FOO
138240
    1MOL0     O    1   3.518   5.152   5.217  0.0380 -0.3380 -0.4480
    1MOL0     C    2   3.508   5.193   5.336 -0.4674  0.0849  0.5233
    1MOL0     O    3   3.605   5.269   5.402  0.6049  0.1298 -0.1032
    1MOL0     C    4   3.736   5.287   5.366  0.5279  0.2075  1.0354
    1MOL0     C    5   3.823   5.314   5.470  0.0375 -0.1667  0.3167
    1MOL0     C    6   3.956   5.350   5.449  0.6257  0.3237 -0.0043
    1MOL0     C    7   4.005   5.357   5.320 -0.2086 -0.3117  0.2293
    1MOL0     O    8   4.143   5.376   5.296 -0.1408  0.3195 -0.0139
    1MOL0     C    9   4.231   5.394   5.407  0.6675 -0.4490 -0.8986
    1MOL0     C   10   4.367   5.370   5.353 -0.2782 -0.4282 -0.3312
    1MOL0     C   11   4.481   5.413   5.454  0.5670 -0.1596  0.0360
    1MOL0     C   12   4.622   5.427   5.390  0.4312  0.4119  0.5569
    1MOL0     C   13   4.730   5.493   5.480  0.1736  0.4571  0.4367
    1MOL0     C   14   4.744   5.403   5.603  0.3608 -0.0691  0.8000
    1MOL0     C   15   4.886   5.423   5.673  0.9345 -0.0343  0.2464
    1MOL0     C   16   4.894   5.344   5.805  0.0813 -0.0548 -0.1633
    1MOL0     N   17   5.031   5.356   5.855  0.3967  0.0352  0.0831
    1MOL0     C   18   5.139   5.280   5.815 -0.2758 -0.7024  0.2293
    1MOL0     C   19   5.252   5.333   5.870 -0.1918 -0.0792  0.1457
    1MOL0     C   20   5.389   5.290   5.831  0.2175 -0.8101 -0.0622
    1MOL0     C   21   5.493   5.408   5.860 -0.8762 -0.3371 -0.4306
    1MOL0     C   22   5.525   5.435   6.009 -1.0066  0.7268  0.3920
    1MOL0     C   23   5.646   5.525   6.008 -0.7112 -0.0947  0.8487
    1MOL0     O   24   5.664   5.569   6.138  0.8660 -0.4848 -0.3412
    1MOL0     C   25   5.778   5.642   6.168 -0.3598  1.1905 -0.0055
    1MOL0     C   26   5.819   5.638   6.299 -0.3610 -0.6370  0.0391
    1MOL0     C   27   5.944   5.688   6.334 -1.0016 -0.4125 -0.0675
    1MOL0     C   28   6.035   5.740   6.233 -0.5698 -0.1813 -0.3944
    1MOL0     C   29   6.168   5.785   6.275 -0.1204 -0.0661  0.2780
    1MOL0     O   30   6.235   5.869   6.193 -0.4503 -0.4070  0.2447
    1MOL0     C   31   6.372   5.875   6.198 -0.5065  0.2731  1.1858
    1MOL0     C   32   6.454   5.763   6.233  0.3457  0.0665 -0.1777
    1MOL0     C   33   6.594   5.781   6.222  0.5371 -0.3086 -0.4206
    1MOL0     C   34   6.658   5.895   6.168  0.4259  0.3268 -0.7675
    1MOL0     O   35   6.795   5.908   6.165 -0.0625  0.1574  0.3423
    1MOL0     C   36   6.867   5.905   6.287 -0.6097 -0.7108  0.1825
    1MOL0     C   37   6.967   6.015   6.303 -0.5450 -1.4681  0.5946
    1MOL0     C   38   7.036   6.006   6.440 -0.3728 -0.2734  0.0081
    1MOL0     C   39   7.165   6.093   6.449 -0.3136 -0.0613 -1.0275
    1MOL0     C   40   7.245   6.046   6.571  0.0694  0.4126  0.2100
    1MOL0     C   41   7.393   6.092   6.562 -0.3801  0.4542  0.7888
    1MOL0     C   42   7.401   6.247   6.587 -0.1182 -0.2241 -0.1074
    1MOL0     C   43   7.454   6.335   6.471 -0.1187 -0.3241  0.3889
    1MOL0    Cl   44   7.615   6.274   6.432 -0.4906  0.1820 -0.1206
    1MOL0     C   45   6.575   5.994   6.120  1.1810  0.5313 -0.3372
    1MOL0     C   46   6.434   5.989   6.134 -0.4432 -0.6428 -0.7998
    1MOL0     O   47   6.209   5.743   6.382  0.0816 -0.2549  0.1550
    1MOL0     C   48   5.995   5.739   6.103  0.0694  0.3081 -0.7067
    1MOL0     C   49   5.873   5.683   6.068 -0.3316 -0.2775  0.4927
    1MOL0     N   50   5.206   5.438   5.947 -0.7638  0.8801  0.3044
    1MOL0     N   51   5.079   5.457   5.929 -0.2520  0.3836  0.0085
    1MOL0     C   52   3.919   5.332   5.213  0.1961  0.2647 -0.1236
    1MOL0     C   53   3.786   5.293   5.235  0.2192  0.0726  0.1770
    1MOL0     C   54   3.386   5.146   5.406  0.3211  0.0379 -0.3400
    1MOL0     C   55   3.285   5.085   5.330 -0.3067  0.3244  0.4610
    1MOL0     C   56   3.166   5.043   5.394  0.2589  0.6170 -0.2599
    1MOL0     C   57   3.138   5.075   5.536  0.1533  0.1543  0.9839
    1MOL0     O   58   3.019   5.015   5.579  0.0433  0.4047 -0.2207
    1MOL0     C   59   2.972   5.064   5.705 -0.0406 -0.1837 -0.0119
    1MOL0     C   60   2.866   4.969   5.770 -0.4663  0.1181 -0.3556
    1MOL0     C   61   2.747   4.929   5.676 -0.5995  0.2337 -0.6973
    1MOL0     C   62   2.643   5.042   5.661  0.4078  0.6236 -0.4293
    1MOL0     C   63   2.527   4.990   5.581 -0.0459  0.0650 -0.2881
    1MOL0     C   64   2.465   4.934   5.489  0.2757  0.7669  0.1855
    1MOL0     C   65   3.239   5.145   5.612 -0.4046  0.2073  1.3377
    1MOL0     C   66   3.361   5.178   5.544 -0.6195 -0.2998 -0.2856
    1MOL0     C   67   3.461   5.245   5.640 -0.4894 -1.2155  0.1403
    1MOL0     H   68   3.779   5.310   5.569  0.3105  0.8235  0.4838
    1MOL0     H   69   4.011   5.374   5.539  0.0325  0.6932  0.2642
    1MOL0     H   70   4.214   5.498   5.437 -2.9760 -0.3731 -2.6825
    1MOL0     H   71   4.214   5.316   5.481 -2.1261  1.4687  0.6485
    1MOL0     H   72   4.367   5.429   5.261 -0.0081 -0.4204 -0.3253
    1MOL0     H   73   4.375   5.262   5.338 -0.3490 -0.8957  2.3434
    1MOL0     H   74   4.500   5.347   5.539  3.1326  0.0031 -0.3320
    1MOL0     H   75   4.438   5.507   5.492 -0.1433 -0.8262  0.9418
    1MOL0     H   76   4.656   5.331   5.350  1.9495  1.8888 -1.9417
    1MOL0     H   77   4.619   5.499   5.308  1.3857  1.1045  1.1189
    1MOL0     H   78   4.825   5.498   5.426  0.9874  1.0137  1.8551
    1MOL0     H   79   4.708   5.596   5.508 -1.3700  0.5752 -1.1021
    1MOL0     H   80   4.667   5.424   5.678  0.9803 -1.9634  2.0208
    1MOL0     H   81   4.725   5.298   5.579 -1.4316  0.7118 -1.6483
    1MOL0     H   82   4.891   5.531   5.693 -0.7384  0.3856 -1.3237
    1MOL0     H   83   4.969   5.396   5.607  0.8879  0.0618  0.1481
    1MOL0     H   84   4.818   5.385   5.871 -1.0589 -0.6951 -1.0544
    1MOL0     H   85   4.864   5.240   5.794 -1.3712  0.3408 -0.1224
    1MOL0     H   86   5.153   5.195   5.748  2.3022 -3.9776  4.4510
    1MOL0     H   87   5.409   5.205   5.898 -3.2730  0.2273  2.5783
    1MOL0     H   88   5.397   5.250   5.729  0.8302  1.3515 -0.9076
    1MOL0     H   89   5.592   5.382   5.823 -0.5208  1.7054 -1.0751
    1MOL0     H   90   5.465   5.500   5.808  1.2377  0.6627  0.1035
    1MOL0     H   91   5.550   5.341   6.059  0.4852  0.5460 -0.6485
    1MOL0     H   92   5.443   5.492   6.054 -0.6123 -0.1138  2.3011
    1MOL0     H   93   5.632   5.613   5.945 -2.0482 -0.8420  0.0527
    1MOL0     H   94   5.729   5.461   5.976 -1.5229 -1.3956  1.2944
    1MOL0     H   95   5.751   5.605   6.376 -1.2632  1.4775  0.2293
    1MOL0     H   96   5.977   5.698   6.436  2.2608 -2.3945 -0.8015
    1MOL0     H   97   6.409   5.670   6.266 -0.9752  0.4002 -0.9807
    1MOL0     H   98   6.657   5.705   6.267 -0.3639  0.0349  1.5181
    1MOL0     H   99   6.802   5.910   6.375  0.7366 -0.1902  1.1875
    1MOL0     H  100   6.925   5.812   6.290 -0.5575 -0.6717  0.4045
    1MOL0     H  101   7.033   6.008   6.217 -1.5175 -2.8733 -0.0884
    1MOL0     H  102   6.926   6.115   6.293  2.5091  0.0250  1.7710
    1MOL0     H  103   6.969   6.037   6.520  2.3112  0.7219  2.0203
    1MOL0     H  104   7.068   5.904   6.465  2.0658  0.8665  1.8430
    1MOL0     H  105   7.151   6.202   6.453 -0.9130 -0.1608 -0.1072
    1MOL0     H  106   7.225   6.087   6.358  2.6247 -3.3366  0.8787
    1MOL0     H  107   7.255   5.938   6.584 -3.9574 -0.1504 -0.3057
    1MOL0     H  108   7.189   6.074   6.661  0.3321 -1.9523  1.2041
    1MOL0     H  109   7.456   6.027   6.623 -0.0005 -0.5087 -0.5906
    1MOL0     H  110   7.420   6.060   6.461 -2.0525 -0.8842  0.7249
    1MOL0     H  111   7.468   6.251   6.673  0.6188  1.3084 -0.7157
    1MOL0     H  112   7.301   6.281   6.617 -0.2313 -0.7669  0.1522
    1MOL0     H  113   7.380   6.314   6.393 -1.6789  0.4982  1.5918
    1MOL0     H  114   7.454   6.436   6.513  0.3231  0.2671 -0.9950
    1MOL0     H  115   6.624   6.081   6.079 -0.6547  1.2871 -1.0206
    1MOL0     H  116   6.368   6.071   6.108  0.7323  1.4797  2.3357
    1MOL0     H  117   6.068   5.770   6.028  1.7634 -1.3623  0.1518
    1MOL0     H  118   5.852   5.677   5.962  0.1401  0.5897  0.3422
    1MOL0     H  119   3.948   5.331   5.108 -2.9068 -1.1313 -1.0755
    1MOL0     H  120   3.725   5.268   5.148 -2.6295  0.2001  2.0156
    1MOL0     H  121   3.279   5.062   5.224  1.3828 -0.1623  0.4414
    1MOL0     H  122   3.093   4.995   5.329 -2.0264  0.9559  1.8700
    1MOL0     H  123   2.934   5.163   5.679  4.1851  1.5248 -0.4973
    1MOL0     H  124   3.052   5.081   5.779  1.3556 -1.5197 -1.1389
    1MOL0     H  125   2.822   5.013   5.860 -2.4641 -1.7217 -0.3581
    1MOL0     H  126   2.925   4.883   5.802  1.9675  0.9942 -2.2127
    1MOL0     H  127   2.713   4.831   5.713 -0.0054 -0.2881 -1.5159
    1MOL0     H  128   2.793   4.911   5.579  0.9753 -0.6834  0.1869
    1MOL0     H  129   2.608   5.066   5.762  0.6546 -1.6047  0.2313
    1MOL0     H  130   2.682   5.132   5.614 -5.3827  3.7865 -0.1073
    1MOL0     H  131   2.415   4.882   5.410 -2.2986  1.2971  1.3764
    1MOL0     H  132   3.220   5.164   5.718 -1.0476  0.3880  1.1921
    1MOL0     H  133   3.487   5.345   5.604 -1.2425 -0.9457  0.3355
    1MOL0     H  134   3.422   5.253   5.742 -0.2486 -0.7585  0.2020
    1MOL0     H  135   3.554   5.187   5.642 -1.6605 -3.2081 -0.6684
    2MOL0     O  136   6.374   8.300  10.479  0.3530 -1.0386  0.2475
    2MOL0     C  137   6.290   8.386  10.467  0.5229 -0.1383 -0.0805
    2MOL0     O  138   6.317   8.520  10.461 -0.0374  0.5839 -0.7759
    2MOL0     C  139   6.444   8.563  10.464 -0.2061 -1.3515  0.0974
    2MOL0     C  140   6.469   8.682  10.394  0.0896 -0.1111 -0.3112
    2MOL0     C  141   6.588   8.766  10.407  0.2725 -0.4620 -0.0194
    2MOL0     C  142   6.691   8.725  10.490  0.1432 -0.4855  0.4314
    2MOL0     O  143   6.809   8.802  10.505  0.3188  0.4014 -0.6174
    2MOL0     C  144   6.915   8.781  10.411  0.1705 -0.8522  0.4464
    2MOL0     C  145   6.983   8.635  10.419 -0.5900 -0.4088  0.2495
    2MOL0     C  146   7.053   8.623  10.563  0.2108 -0.4953  0.5626
    2MOL0     C  147   7.118   8.484  10.589 -0.7797  0.6148 -1.0283
    2MOL0     C  148   7.216   8.509  10.711  0.3074  0.4608  0.2794
    2MOL0     C  149   7.253   8.378  10.790 -0.2261 -0.0670  0.2730
    2MOL0     C  150   7.312   8.401  10.923 -0.5067  1.0870 -0.8945
    2MOL0     C  151   7.440   8.492  10.918 -0.8532  0.0699 -0.5445
    2MOL0     N  152   7.491   8.512  11.058 -0.7140  0.0262 -0.0419
    2MOL0     C  153   7.491   8.639  11.110  0.0268 -0.3821 -0.1032
    2MOL0     C  154   7.508   8.621  11.240 -0.4452  0.0478  0.2306
    2MOL0     C  155   7.513   8.729  11.342 -0.0865  0.3690 -0.0163
    2MOL0     C  156   7.634   8.720  11.444  0.3021  0.3290 -0.6578
    2MOL0     C  157   7.780   8.709  11.380 -0.8977  0.9492  0.8401
    2MOL0     C  158   7.865   8.838  11.351  0.3422 -0.0169  0.7127
    2MOL0     O  159   7.912   8.894  11.476  0.2977 -0.9161 -0.6743
    2MOL0     C  160   8.048   8.885  11.487 -0.6485  0.1656  1.0242
    2MOL0     C  161   8.140   8.944  11.387 -0.8129 -0.7333  1.0576
    2MOL0     C  162   8.278   8.929  11.408 -0.1842  1.0424 -0.4417
    2MOL0     C  163   8.330   8.861  11.527  0.3158 -0.4771  0.3147
    2MOL0     C  164   8.475   8.835  11.540 -0.2868  0.5333  0.1681
    2MOL0     O  165   8.520   8.775  11.656 -0.9531 -0.0969 -0.0918
    2MOL0     C  166   8.649   8.771  11.670 -0.3724  0.1334  0.1621
    2MOL0     C  167   8.735   8.670  11.612  0.4161  0.5804 -0.2631
    2MOL0     C  168   8.872   8.674  11.638  0.0278 -0.7098 -0.5837
    2MOL0     C  169   8.932   8.779  11.718 -0.0266  0.1395  0.2523
    2MOL0     O  170   9.064   8.772  11.760  0.2485  0.2281  0.4486
    2MOL0     C  171   9.156   8.768  11.651 -0.8196 -0.6116 -0.0006
    2MOL0     C  172   9.287   8.837  11.688  0.3988  0.1647  0.9004
    2MOL0     C  173   9.402   8.746  11.726 -0.7939  0.2676  0.8320
    2MOL0     C  174   9.542   8.815  11.756  0.2934 -0.0392  0.1910
    2MOL0     C  175   9.653   8.713  11.759  0.2892  0.4014 -0.2332
    2MOL0     C  176   9.793   8.766  11.814  0.8280  0.0232  0.1573
    2MOL0     C  177   9.892   8.817  11.711  0.7026 -0.7378 -0.3868
    2MOL0     C  178   9.976   8.700  11.652 -0.0659  0.0866  0.2543
    2MOL0    Cl  179  10.073   8.601  11.778 -0.3811  0.1921  0.4033
    2MOL0     C  180   8.850   8.874  11.778  0.2490 -0.2015 -0.2814
    2MOL0     C  181   8.712   8.864  11.749  0.4204 -0.6054 -0.5531
    2MOL0     O  182   8.546   8.858  11.439  0.1886 -0.2374  0.2366
    2MOL0     C  183   8.234   8.802  11.612  0.1266 -0.2182 -0.4921
    2MOL0     C  184   8.097   8.814  11.598  1.1576  0.5188 -0.7408
    2MOL0     N  185   7.523   8.489  11.268  0.9923 -0.0830 -0.5019
    2MOL0     N  186   7.519   8.421  11.154 -0.7255  0.1966 -0.1533
    2MOL0     C  187   6.678   8.601  10.548  1.1848 -0.6877  0.3647
    2MOL0     C  188   6.553   8.527  10.547 -0.3764 -0.0021  0.5399
    2MOL0     C  189   6.150   8.341  10.455 -0.4968  0.0874 -0.6608
    2MOL0     C  190   6.109   8.232  10.535 -0.6225  0.0682 -0.3234
    2MOL0     C  191   5.978   8.185  10.539 -0.0601  0.1469 -0.0291
    2MOL0     C  192   5.887   8.237  10.450 -0.4192 -0.1901  0.4249
    2MOL0     O  193   5.754   8.200  10.432  0.4729 -0.1062  0.0563
    2MOL0     C  194   5.718   8.072  10.506  0.8189 -0.5206  0.5701
    2MOL0     C  195   5.586   8.028  10.463  0.4530 -0.1412  0.0442
    2MOL0     C  196   5.537   7.908  10.533 -0.0910  0.6357 -0.1226
    2MOL0     C  197   5.412   7.866  10.459 -0.2925 -0.1434 -0.1657
    2MOL0     C  198   5.316   7.780  10.521 -0.5285  0.4686 -0.2002
    2MOL0     C  199   5.231   7.716  10.576 -0.5711  0.8645 -0.1994
    2MOL0     C  200   5.923   8.342  10.367 -0.4127  0.0306 -0.3267
    2MOL0     C  201   6.058   8.396  10.370  0.1522  0.0738  0.2373
    2MOL0     C  202   6.092   8.505  10.264 -0.5827 -0.3130 -0.0490
    2MOL0     H  203   6.391   8.724  10.332 -0.0020  0.6545  0.3039
    2MOL0     H  204   6.591   8.858  10.348 -0.4674 -0.4088  0.0190
    2MOL0     H  205   6.867   8.805  10.315  2.6286  3.6887  0.0740
    2MOL0     H  206   6.990   8.860  10.425 -0.6700  0.6106 -2.4542
    2MOL0     H  207   7.054   8.628  10.336  0.3509  0.4939  0.9449
    2MOL0     H  208   6.911   8.555  10.399  0.3544 -1.0823 -0.5930
    2MOL0     H  209   6.974   8.639  10.636 -1.6221 -1.7194 -1.0416
    2MOL0     H  210   7.124   8.706  10.566 -2.4097  1.9102 -0.1224
    2MOL0     H  211   7.049   8.403  10.614  0.4829 -0.2028 -0.0568
    2MOL0     H  212   7.174   8.443  10.505  1.9745  0.4870  0.7540
    2MOL0     H  213   7.308   8.558  10.680  1.0365  0.0696  1.7240
    2MOL0     H  214   7.172   8.581  10.780  2.2740 -0.3072  2.4858
    2MOL0     H  215   7.151   8.342  10.809  0.0792 -1.0535  0.0751
    2MOL0     H  216   7.319   8.308  10.738  0.5017 -1.1317  2.5161
    2MOL0     H  217   7.342   8.307  10.970 -1.0761  1.7108  0.7891
    2MOL0     H  218   7.239   8.447  10.991 -2.3577 -0.4737 -1.7226
    2MOL0     H  219   7.523   8.455  10.857 -2.4057 -1.3763 -1.8748
    2MOL0     H  220   7.415   8.590  10.875 -0.7972 -0.4973 -1.9060
    2MOL0     H  221   7.460   8.729  11.058 -1.2882  0.0828  1.4039
    2MOL0     H  222   7.503   8.829  11.299  3.4947  0.7474 -0.2648
    2MOL0     H  223   7.417   8.708  11.390  0.5558 -4.6267 -0.4067
    2MOL0     H  224   7.620   8.796  11.522 -0.4807 -0.0997 -0.3604
    2MOL0     H  225   7.612   8.632  11.506 -2.4340  1.7786  0.6370
    2MOL0     H  226   7.771   8.663  11.281 -0.3417 -0.4098  1.3974
    2MOL0     H  227   7.841   8.641  11.440  1.0118  0.0716 -1.9043
    2MOL0     H  228   7.800   8.910  11.300 -0.9089 -2.1487 -0.8802
    2MOL0     H  229   7.949   8.811  11.287 -2.1554 -0.5600 -2.6236
    2MOL0     H  230   8.095   8.991  11.300 -1.8397 -0.6514  1.6158
    2MOL0     H  231   8.344   8.952  11.325 -0.8179 -2.6585 -2.1724
    2MOL0     H  232   8.682   8.604  11.545 -2.6169  2.6745 -0.1008
    2MOL0     H  233   8.932   8.593  11.599  0.6238 -1.2418  1.3107
    2MOL0     H  234   9.155   8.664  11.617  1.3511  0.1607 -2.7306
    2MOL0     H  235   9.118   8.824  11.566  2.1707 -0.8291 -1.6114
    2MOL0     H  236   9.321   8.890  11.598  0.1280 -0.7409  0.2466
    2MOL0     H  237   9.271   8.909  11.768 -0.3940  1.5402 -0.4470
    2MOL0     H  238   9.369   8.684  11.810  1.0076  1.7045  2.7081
    2MOL0     H  239   9.423   8.677  11.644  1.3525  1.5807  0.1977
    2MOL0     H  240   9.529   8.862  11.855  0.8545  0.4226  0.0499
    2MOL0     H  241   9.567   8.898  11.689  0.0526  1.3729  1.7761
    2MOL0     H  242   9.659   8.659  11.664  1.9004 -1.1187  0.6874
    2MOL0     H  243   9.623   8.637  11.831 -0.4866  0.3613 -0.5893
    2MOL0     H  244   9.761   8.850  11.875 -0.4062  0.2535 -0.7585
    2MOL0     H  245   9.841   8.689  11.875 -1.0333 -1.6130 -0.3468
    2MOL0     H  246   9.953   8.886  11.770 -1.2986 -0.9564  2.0927
    2MOL0     H  247   9.837   8.885  11.646  1.0623  0.7601  0.8277
    2MOL0     H  248   9.905   8.643  11.592 -0.3863  0.1857  0.5346
    2MOL0     H  249  10.053   8.740  11.586 -0.1804 -2.5214 -1.6055
    2MOL0     H  250   8.872   8.953  11.849 -1.1125  1.3004 -1.4680
    2MOL0     H  251   8.648   8.941  11.792 -2.0692 -0.3205 -4.3055
    2MOL0     H  252   8.264   8.740  11.696  2.2642 -0.8325 -1.6341
    2MOL0     H  253   8.024   8.772  11.667 -0.3185  3.5505 -0.2815
    2MOL0     H  254   6.766   8.575  10.606  1.5306 -0.4209 -0.0372
    2MOL0     H  255   6.546   8.436  10.607 -1.1671 -0.4185 -0.1573
    2MOL0     H  256   6.189   8.188  10.594 -1.3336 -0.4203  0.2980
    2MOL0     H  257   5.946   8.105  10.604  2.6375 -2.2480 -1.4274
    2MOL0     H  258   5.715   8.078  10.615 -0.8410  0.3030  0.5126
    2MOL0     H  259   5.794   7.995  10.487  2.0258  1.2314 -2.3608
    2MOL0     H  260   5.586   8.007  10.356  0.4934  1.0757 -0.2097
    2MOL0     H  261   5.515   8.108  10.484  0.6405  0.0660 -0.1027
    2MOL0     H  262   5.505   7.947  10.630 -0.9301  1.4123 -0.6931
    2MOL0     H  263   5.608   7.825  10.539 -3.3094 -2.2180  1.6615
    2MOL0     H  264   5.358   7.955  10.428 -2.8934 -1.7269 -0.4882
    2MOL0     H  265   5.459   7.813  10.375  0.1641  0.8924 -0.5802
    2MOL0     H  266   5.154   7.664  10.629  0.3084  0.7253  0.9968
    2MOL0     H  267   5.854   8.387  10.297 -0.0388  1.0511 -0.0489
    2MOL0     H  268   6.183   8.485  10.206  0.6423  4.5625 -0.3102
    2MOL0     H  269   6.007   8.520  10.198 -0.8647  0.6031  0.4897
    2MOL0     H  270   6.124   8.598  10.313  2.2054  0.5447 -3.1112
    3MOL0     O  271  11.195   6.745   0.870  0.1848 -0.2121  0.1422
    3MOL0     C  272  11.082   6.747   0.915 -0.2108  0.1229 -0.1761
    3MOL0     O  273  11.048   6.711   1.040 -0.4771 -0.3344 -0.0146
    3MOL0     C  274  11.131   6.626   1.117  0.0667 -0.0366 -0.4389
    3MOL0     C  275  11.262   6.661   1.137  0.1246 -0.5769 -0.3596
    3MOL0     C  276  11.340   6.584   1.226  0.0368 -0.2148 -0.0161
    3MOL0     C  277  11.288   6.481   1.304  0.4739 -0.2704  0.0350
    3MOL0     O  278  11.362   6.394   1.377 -0.2487 -0.0825  0.4864
    3MOL0     C  279  11.442   6.455   1.481  0.8997  0.1299  0.3171
    3MOL0     C  280  11.502   6.341   1.575 -0.0089 -0.6822 -0.2635
    3MOL0     C  281  11.591   6.412   1.676  0.5851  0.1665 -0.1144
    3MOL0     C  282  11.676   6.301   1.747 -0.0770 -0.2433 -0.8626
    3MOL0     C  283  11.780   6.355   1.847 -0.5331  0.5097 -0.3830
    3MOL0     C  284  11.867   6.466   1.780  0.9261  0.5156  0.4491
    3MOL0     C  285  11.979   6.525   1.876  0.2452 -0.1387 -0.4672
    3MOL0     C  286  12.026   6.663   1.807  0.6044 -0.7064  1.4746
    3MOL0     N  287  12.145   6.718   1.863 -0.7840  0.2000  0.9652
    3MOL0     C  288  12.222   6.817   1.805  0.7310 -1.2724 -0.5568
    3MOL0     C  289  12.316   6.855   1.890 -0.1237 -0.2054 -0.7934
    3MOL0     C  290  12.426   6.965   1.862  0.5267  0.0732 -0.7983
    3MOL0     C  291  12.560   6.928   1.930  0.0190  1.1003 -0.1460
    3MOL0     C  292  12.676   7.016   1.880  0.0800 -0.0969 -0.3276
    3MOL0     C  293  12.801   7.011   1.968 -0.6808 -0.6166  0.5168
    3MOL0     O  294  12.896   7.106   1.914 -0.0206 -0.5303  0.5612
    3MOL0     C  295  13.024   7.089   1.960  0.4828  0.3134  1.1217
    3MOL0     C  296  13.051   7.083   2.100  0.2323 -0.3561 -0.1076
    3MOL0     C  297  13.191   7.092   2.135 -0.3183  0.4616 -0.4887
    3MOL0     C  298  13.290   7.102   2.046 -0.3170 -0.6585 -0.2974
    3MOL0     C  299  13.426   7.086   2.090 -1.4421  0.4492  0.9218
    3MOL0     O  300  13.453   7.080   2.220 -0.3261  0.0511  0.8669
    3MOL0     C  301  13.585   7.079   2.259 -1.4174  0.7256 -0.1542
    3MOL0     C  302  13.683   7.174   2.217  0.2882 -0.1599 -0.3763
    3MOL0     C  303  13.810   7.167   2.284  0.3451  0.1914 -0.0401
    3MOL0     C  304  13.831   7.087   2.394 -0.1803 -0.3214  0.9336
    3MOL0     O  305  13.946   7.083   2.475  0.0204 -0.0738 -1.2315
    3MOL0     C  306  14.063   7.156   2.427  0.1421  0.1316 -0.2099
    3MOL0     C  307  14.184   7.128   2.519  0.2377 -0.7407 -0.3292
    3MOL0     C  308  14.311   7.185   2.469  0.6722  1.0674 -0.1242
    3MOL0     C  309  14.344   7.175   2.318  0.5814 -0.1589 -0.1600
    3MOL0     C  310  14.491   7.210   2.309 -0.2515  0.3831  0.5671
    3MOL0     C  311  14.535   7.225   2.157 -0.5285 -0.0747  0.0943
    3MOL0     C  312  14.686   7.183   2.137 -0.7545 -0.3252  0.6418
    3MOL0     C  313  14.768   7.246   2.027  0.2941  1.0137  0.5740
    3MOL0    Cl  314  14.703   7.177   1.889 -0.5548 -0.1378 -0.1106
    3MOL0     C  315  13.735   6.997   2.431 -1.2365  0.2223 -0.4706
    3MOL0     C  316  13.615   6.991   2.373  0.0405  0.2655  0.7583
    3MOL0     O  317  13.509   7.074   1.998 -0.7446 -0.3226  0.6317
    3MOL0     C  318  13.262   7.097   1.911  0.6716 -0.1108  0.6939
    3MOL0     C  319  13.126   7.097   1.869  0.2224  0.7684  0.0488
    3MOL0     N  320  12.302   6.775   2.003  0.5998  0.0972 -0.3008
    3MOL0     N  321  12.191   6.702   1.989 -0.1909 -0.0824  0.0940
    3MOL0     C  322  11.152   6.463   1.290  0.4497 -0.0339  0.2544
    3MOL0     C  323  11.076   6.532   1.197  0.2168 -0.3350  0.4578
    3MOL0     C  324  10.979   6.816   0.837 -0.1211  0.0745  0.1315
    3MOL0     C  325  10.875   6.885   0.901  0.3203  0.2882 -0.2953
    3MOL0     C  326  10.772   6.950   0.834  1.0117 -0.5845 -0.8819
    3MOL0     C  327  10.777   6.967   0.702 -0.1583 -0.0058  0.1170
    3MOL0     O  328  10.671   7.042   0.648 -0.2402  0.1780  0.0927
    3MOL0     C  329  10.634   7.017   0.512 -0.1148  0.1000  0.1875
    3MOL0     C  330  10.481   7.038   0.499 -0.6860  0.3477  0.6170
    3MOL0     C  331  10.397   6.913   0.542 -0.5408  0.2247 -0.6946
    3MOL0     C  332  10.390   6.798   0.441  0.0401  0.0235 -0.0215
    3MOL0     C  333  10.512   6.718   0.428  0.3745  0.4411  0.3542
    3MOL0     C  334  10.617   6.661   0.397  0.6057  0.2902 -0.0678
    3MOL0     C  335  10.878   6.898   0.638 -0.0638 -0.1472 -0.3533
    3MOL0     C  336  10.972   6.820   0.695  0.4068 -0.6306  1.5876
    3MOL0     C  337  11.056   6.744   0.594  0.0013  0.5695 -0.1717
    3MOL0     H  338  11.313   6.732   1.073 -0.1015  0.2028  0.2964
    3MOL0     H  339  11.446   6.606   1.230 -0.4459  2.3795  0.2567
    3MOL0     H  340  11.523   6.515   1.439  0.8070 -0.0664 -0.1592
    3MOL0     H  341  11.382   6.522   1.543  1.1607  0.0075  0.7047
    3MOL0     H  342  11.556   6.273   1.509  0.4010 -0.3468 -0.2740
    3MOL0     H  343  11.415   6.297   1.625 -0.2307  4.2417  4.6123
    3MOL0     H  344  11.535   6.479   1.742  0.6888  0.8317 -0.6789
    3MOL0     H  345  11.662   6.477   1.623  1.1104  2.9128  3.5746
    3MOL0     H  346  11.611   6.241   1.812  0.4538  0.9839  0.8899
    3MOL0     H  347  11.728   6.231   1.681 -0.0890 -2.6978  1.5515
    3MOL0     H  348  11.721   6.414   1.918 -2.8691  1.7487 -3.1443
    3MOL0     H  349  11.842   6.279   1.896 -2.1672 -0.9595 -0.4833
    3MOL0     H  350  11.921   6.420   1.696 -0.1522  0.8744 -0.4725
    3MOL0     H  351  11.798   6.547   1.754 -1.6020 -1.7838 -0.5284
    3MOL0     H  352  12.066   6.462   1.900  2.0778  1.8205 -1.5806
    3MOL0     H  353  11.929   6.547   1.970  1.6956 -2.7174  1.0421
    3MOL0     H  354  12.041   6.646   1.700  1.1250  3.3254  0.7201
    3MOL0     H  355  11.949   6.740   1.813 -0.2181 -1.2000 -1.2789
    3MOL0     H  356  12.201   6.864   1.709 -2.5866  0.3968  0.8456
    3MOL0     H  357  12.435   6.984   1.754 -0.7361 -0.1137 -0.9569
    3MOL0     H  358  12.400   7.057   1.915 -2.3109 -0.7413 -0.5822
    3MOL0     H  359  12.552   6.905   2.037 -3.4889 -2.4680 -0.9541
    3MOL0     H  360  12.599   6.832   1.893  0.1292 -0.1294  2.8755
    3MOL0     H  361  12.638   7.117   1.868  2.2959  0.5602 -2.8669
    3MOL0     H  362  12.696   6.985   1.777 -0.7306 -0.6352 -0.3361
    3MOL0     H  363  12.838   6.908   1.980  0.7411  0.0477  2.2865
    3MOL0     H  364  12.781   7.041   2.071  1.8181 -0.7941  1.1013
    3MOL0     H  365  12.971   7.072   2.172  1.6697 -0.3958  1.5346
    3MOL0     H  366  13.210   7.082   2.241 -2.6271 -0.7513 -0.1214
    3MOL0     H  367  13.667   7.249   2.141 -2.7371  0.3407  0.6160
    3MOL0     H  368  13.880   7.245   2.253 -0.2123  0.2306 -1.2891
    3MOL0     H  369  14.090   7.116   2.329 -0.9057  1.9225 -1.2797
    3MOL0     H  370  14.052   7.265   2.431  2.2417  0.3530  0.9808
    3MOL0     H  371  14.170   7.182   2.614  1.2612 -1.0562  0.0098
    3MOL0     H  372  14.182   7.020   2.530 -1.3003 -0.6964  0.1857
    3MOL0     H  373  14.321   7.287   2.507  1.1095  0.8951  0.2365
    3MOL0     H  374  14.386   7.122   2.518 -0.2910  0.2647  0.3498
    3MOL0     H  375  14.292   7.249   2.256  4.0283  0.4688 -2.5755
    3MOL0     H  376  14.323   7.074   2.282 -2.0961  0.4157 -0.4109
    3MOL0     H  377  14.550   7.132   2.359 -0.7069 -1.4843 -1.6257
    3MOL0     H  378  14.519   7.305   2.356  3.0956  0.9132 -2.0883
    3MOL0     H  379  14.478   7.149   2.102  1.3762  0.2671 -2.5557
    3MOL0     H  380  14.527   7.331   2.131  0.3643 -0.3213 -1.3334
    3MOL0     H  381  14.696   7.074   2.142  0.9284 -0.1987  0.6078
    3MOL0     H  382  14.745   7.225   2.218  0.2736  2.4715 -1.4026
    3MOL0     H  383  14.758   7.355   2.029  0.2203  1.0078  0.4899
    3MOL0     H  384  14.874   7.220   2.031  0.0688 -0.0246  0.1108
    3MOL0     H  385  13.760   6.934   2.516 -0.4117  1.9068  0.6054
    3MOL0     H  386  13.552   6.907   2.400 -0.8284  0.9590  0.9046
    3MOL0     H  387  13.342   7.100   1.838  0.6390  0.4619  0.6782
    3MOL0     H  388  13.110   7.093   1.762 -0.5058  0.4753  0.1619
    3MOL0     H  389  11.110   6.379   1.345 -0.1125  0.6737  0.9367
    3MOL0     H  390  10.968   6.526   1.185  0.2397  0.5732 -0.3407
    3MOL0     H  391  10.879   6.863   1.007 -0.8342  0.4698 -0.1962
    3MOL0     H  392  10.685   6.985   0.887 -0.2875 -2.3354 -1.7710
    3MOL0     H  393  10.668   6.916   0.484  2.2223  0.5444  1.1362
    3MOL0     H  394  10.687   7.086   0.445  0.8981  0.1915  1.0524
    3MOL0     H  395  10.458   7.065   0.396  1.2649 -1.4460 -0.3690
    3MOL0     H  396  10.453   7.126   0.558 -0.6459  2.5487 -2.4008
    3MOL0     H  397  10.292   6.945   0.550 -0.3838  0.6176 -0.1859
    3MOL0     H  398  10.436   6.874   0.636 -2.5915  0.4179  0.2892
    3MOL0     H  399  10.306   6.731   0.459 -0.5373  0.6675 -0.2590
    3MOL0     H  400  10.363   6.834   0.342  0.2886  0.5607  0.1024
    3MOL0     H  401  10.714   6.630   0.365  0.0060 -1.8813  0.0511
    3MOL0     H  402  10.880   6.909   0.530  0.3649  0.2041 -0.3154
    3MOL0     H  403  11.079   6.646   0.637  2.3609  1.1203 -0.0564
    3MOL0     H  404  10.997   6.738   0.502  1.8234  1.6562 -1.4636
    3MOL0     H  405  11.148   6.792   0.561  1.1371 -1.9192 -0.9049
    4MOL0     O  406   4.128  10.147   9.038  0.0342  0.3230  0.5210
    4MOL0     C  407   4.090  10.249   9.099  0.1529 -0.1133 -0.7751
    4MOL0     O  408   4.160  10.312   9.197  0.1828 -0.0504 -0.1540
    4MOL0     C  409   4.277  10.252   9.226  0.9200  0.4457  0.2573
    4MOL0     C  410   4.395  10.321   9.198 -0.3221 -0.2419 -0.3229
    4MOL0     C  411   4.522  10.262   9.210 -0.7526  0.2219  0.6856
    4MOL0     C  412   4.530  10.130   9.256 -0.0681 -0.7604 -0.5384
    4MOL0     O  413   4.651  10.074   9.275 -0.0837  0.9612  0.2648
    4MOL0     C  414   4.658   9.936   9.320 -1.7364 -0.2629  0.6880
    4MOL0     C  415   4.806   9.909   9.334 -0.3115  0.6824 -0.4620
    4MOL0     C  416   4.839   9.773   9.395  0.5355 -0.5113  0.5284
    4MOL0     C  417   4.988   9.760   9.447 -0.7317 -0.2292  0.1197
    4MOL0     C  418   5.033   9.614   9.455  0.3394 -0.9742 -0.8209
    4MOL0     C  419   5.187   9.611   9.492 -0.3489 -0.6732 -0.7598
    4MOL0     C  420   5.239   9.472   9.521 -0.3704  0.6743 -0.6295
    4MOL0     C  421   5.179   9.403   9.657  0.7021  0.7402  1.5296
    4MOL0     N  422   5.188   9.482   9.773  0.3654  0.0024  0.3128
    4MOL0     C  423   5.294   9.496   9.858  0.2579  1.2742  0.0737
    4MOL0     C  424   5.253   9.591   9.945  0.5211 -0.2389 -0.1929
    4MOL0     C  425   5.327   9.621  10.070 -0.2998 -0.0364 -0.5938
    4MOL0     C  426   5.390   9.760  10.049 -0.5385  0.7319  0.0965
    4MOL0     C  427   5.503   9.779  10.151  0.2375  0.5147 -0.2223
    4MOL0     C  428   5.624   9.855  10.093  0.8823  0.0731 -0.3295
    4MOL0     O  429   5.716   9.861  10.206 -0.4788 -0.1545  0.3518
    4MOL0     C  430   5.822   9.770  10.216  0.1866  0.5820 -0.1201
    4MOL0     C  431   5.903   9.773  10.331  0.3073 -0.3445  0.7695
    4MOL0     C  432   6.010   9.686  10.348 -0.2506 -0.8657  0.2570
    4MOL0     C  433   6.026   9.583  10.253 -0.3519  0.1410 -0.0009
    4MOL0     C  434   6.135   9.479  10.270  0.2516 -0.2547  0.3636
    4MOL0     O  435   6.232   9.520  10.360  0.0663 -0.2529 -0.6472
    4MOL0     C  436   6.342   9.452  10.398  0.0462 -0.0347  0.5595
    4MOL0     C  437   6.395   9.490  10.524 -0.3484  0.3465 -0.2264
    4MOL0     C  438   6.514   9.424  10.570  1.2528  0.2027 -0.6008
    4MOL0     C  439   6.564   9.306  10.504 -0.0919  0.1080 -0.4149
    4MOL0     O  440   6.670   9.226  10.546 -0.3314  0.5651  0.2066
    4MOL0     C  441   6.754   9.274  10.652  0.5565  0.0718  0.3557
    4MOL0     C  442   6.891   9.201  10.644  0.9512  0.3375  0.2677
    4MOL0     C  443   6.900   9.075  10.731  0.0170 -0.2110 -0.4937
    4MOL0     C  444   7.023   9.001  10.707 -0.1843 -0.1070 -0.7289
    4MOL0     C  445   7.053   8.894  10.811  0.2594 -0.1423  0.8865
    4MOL0     C  446   7.134   8.957  10.925  0.8367  0.1996 -0.4857
    4MOL0     C  447   7.173   8.849  11.032  0.9444 -0.7721  0.2415
    4MOL0     C  448   7.233   8.915  11.162  0.3558  0.2568 -0.8245
    4MOL0    Cl  449   7.380   8.985  11.129 -0.4171 -0.2714 -0.0096
    4MOL0     C  450   6.497   9.275  10.384 -0.4987  1.0548 -0.4702
    4MOL0     C  451   6.403   9.351  10.327 -0.1603 -0.2050 -0.7766
    4MOL0     O  452   6.128   9.372  10.207 -0.1797 -0.0738  0.4875
    4MOL0     C  453   5.950   9.575  10.138 -0.2693 -0.1292 -0.1496
    4MOL0     C  454   5.844   9.664  10.122  0.7912 -0.7446 -0.4566
    4MOL0     N  455   5.123   9.626   9.918 -0.2682  0.4375  0.1664
    4MOL0     N  456   5.086   9.572   9.806 -0.4556 -0.0582  0.4508
    4MOL0     C  457   4.409  10.054   9.290 -0.7103 -0.5374 -0.4372
    4MOL0     C  458   4.285  10.117   9.273  0.1210 -0.1360 -0.4837
    4MOL0     C  459   3.967  10.319   9.063  0.0798  0.6216 -0.0136
    4MOL0     C  460   3.912  10.405   9.156 -0.3874  0.6655 -0.7206
    4MOL0     C  461   3.794  10.476   9.135 -0.8350 -0.5088 -0.3410
    4MOL0     C  462   3.729  10.472   9.014  0.9560  0.1690  0.3022
    4MOL0     O  463   3.620  10.549   8.980 -0.9017  0.5085  0.5491
    4MOL0     C  464   3.571  10.646   9.072  0.0048 -0.8737  0.4778
    4MOL0     C  465   3.486  10.589   9.181 -0.2679 -0.5094  0.1743
    4MOL0     C  466   3.349  10.578   9.124  0.4165  0.2640 -0.6461
    4MOL0     C  467   3.237  10.524   9.214  0.3270 -0.0200  0.0204
    4MOL0     C  468   3.115  10.486   9.138 -0.2887 -0.6815  0.1290
    4MOL0     C  469   3.019  10.458   9.070 -0.4186 -0.4718  0.1436
    4MOL0     C  470   3.767  10.379   8.915 -0.1917 -0.1797 -0.0492
    4MOL0     C  471   3.890  10.305   8.941 -0.7205 -0.8172  0.2198
    4MOL0     C  472   3.945  10.248   8.818  0.4494 -0.2929  0.3366
    4MOL0     H  473   4.392  10.426   9.174  0.4964 -0.1443 -0.0334
    4MOL0     H  474   4.614  10.309   9.177  1.5475 -4.4921 -0.4449
    4MOL0     H  475   4.604   9.925   9.414  0.8434 -1.2884  2.1585
    4MOL0     H  476   4.619   9.863   9.249  0.9770  0.3966 -1.6869
    4MOL0     H  477   4.853   9.989   9.393  1.1367 -2.2491  2.6597
    4MOL0     H  478   4.850   9.909   9.233 -0.9620 -1.6588 -0.7852
    4MOL0     H  479   4.811   9.702   9.317 -0.3517  2.0814 -1.6391
    4MOL0     H  480   4.780   9.758   9.486  3.9225  0.9676  3.2335
    4MOL0     H  481   5.061   9.824   9.398 -0.0634  0.2756  1.7207
    4MOL0     H  482   4.983   9.793   9.551  1.5134  1.7559 -0.3249
    4MOL0     H  483   4.981   9.556   9.532  0.5142 -1.3477 -0.9846
    4MOL0     H  484   5.012   9.563   9.360  0.7512 -2.4569 -0.1379
    4MOL0     H  485   5.237   9.668   9.413 -2.6990  1.5057 -0.8063
    4MOL0     H  486   5.191   9.668   9.585  1.1601 -0.0471 -1.1809
    4MOL0     H  487   5.348   9.480   9.534 -0.7543  2.4198  2.6330
    4MOL0     H  488   5.221   9.403   9.438 -1.8364 -0.0892  0.2778
    4MOL0     H  489   5.079   9.359   9.647  0.3252  1.5385  1.6698
    4MOL0     H  490   5.239   9.313   9.676 -1.3920 -1.4231 -1.2992
    4MOL0     H  491   5.388   9.442   9.856  0.4255  1.5680 -0.1800
    4MOL0     H  492   5.270   9.632  10.162  3.3603  0.4395  1.8401
    4MOL0     H  493   5.393   9.536  10.092 -1.3155 -1.2172 -1.9288
    4MOL0     H  494   5.435   9.767   9.950 -0.2514  0.3786  0.2009
    4MOL0     H  495   5.320   9.844  10.053 -1.6247 -0.1951  1.5301
    4MOL0     H  496   5.542   9.685  10.191  0.6244  0.6392 -0.3009
    4MOL0     H  497   5.467   9.847  10.228 -1.0218 -0.5058  0.1359
    4MOL0     H  498   5.605   9.960  10.071  2.4586  0.0546 -2.0078
    4MOL0     H  499   5.670   9.810  10.005  1.1325 -2.8131  1.1644
    4MOL0     H  500   5.866   9.846  10.403  0.2986  0.1663  0.2570
    4MOL0     H  501   6.075   9.699  10.433  0.1547  0.1687 -0.1937
    4MOL0     H  502   6.344   9.566  10.582 -0.5809  1.3214 -1.6675
    4MOL0     H  503   6.543   9.444  10.672  0.3228  0.7928 -0.4416
    4MOL0     H  504   6.764   9.383  10.644 -4.3410  0.8804  1.4731
    4MOL0     H  505   6.708   9.251  10.748  0.6438 -3.1736 -0.2821
    4MOL0     H  506   6.908   9.171  10.540  1.1785  2.2622 -0.2878
    4MOL0     H  507   6.972   9.270  10.671  0.0078  1.2457  0.8706
    4MOL0     H  508   6.883   9.104  10.835 -1.2404 -3.7316  0.4177
    4MOL0     H  509   6.817   9.006  10.713  2.0963 -3.3370  1.0081
    4MOL0     H  510   7.099   9.080  10.711 -3.5389  3.4526 -1.2759
    4MOL0     H  511   7.023   8.966  10.603 -0.2033 -0.2857 -0.6698
    4MOL0     H  512   7.127   8.827  10.767  2.3530  1.5086  1.7123
    4MOL0     H  513   6.960   8.839  10.830 -0.1894 -0.4062 -1.7905
    4MOL0     H  514   7.229   9.001  10.892  0.7308  1.8259  1.2304
    4MOL0     H  515   7.081   9.034  10.981  2.0073  1.5512 -1.1508
    4MOL0     H  516   7.241   8.775  10.989  2.6322  1.6904 -1.5092
    4MOL0     H  517   7.082   8.802  11.072  0.6226  0.9078  1.6289
    4MOL0     H  518   7.158   8.985  11.199  0.8429 -0.0037  0.7172
    4MOL0     H  519   7.256   8.839  11.237  1.1008 -0.6332 -1.9158
    4MOL0     H  520   6.529   9.186  10.332  0.5105  0.9957  0.2253
    4MOL0     H  521   6.370   9.325  10.227  3.3853  1.3228 -2.5425
    4MOL0     H  522   5.977   9.498  10.066  1.0178  1.1279 -1.0533
    4MOL0     H  523   5.777   9.647  10.038 -1.0612  2.4943  0.1666
    4MOL0     H  524   4.406   9.956   9.337 -2.1769 -0.8337 -1.0972
    4MOL0     H  525   4.190  10.080   9.312  0.2338  1.5026  1.4963
    4MOL0     H  526   3.949  10.394   9.258 -0.2564 -1.5694 -0.9596
    4MOL0     H  527   3.758  10.525   9.224  0.4908 -0.6315  0.2924
    4MOL0     H  528   3.519  10.726   9.018  1.2234 -0.1981  0.2576
    4MOL0     H  529   3.659  10.699   9.111  0.0078  2.4698 -3.4259
    4MOL0     H  530   3.482  10.653   9.270 -1.1660  1.7729 -1.4230
    4MOL0     H  531   3.522  10.487   9.198 -1.2850 -1.1390 -1.2377
    4MOL0     H  532   3.351  10.511   9.038 -0.3188 -2.0599  1.0679
    4MOL0     H  533   3.318  10.674   9.080  2.7480  0.8853 -1.0684
    4MOL0     H  534   3.280  10.437   9.265  1.5886  0.1182 -0.7587
    4MOL0     H  535   3.210  10.592   9.296  0.2882 -0.0587  0.0397
    4MOL0     H  536   2.944  10.429   8.999  2.2408 -1.1646 -2.5601
    4MOL0     H  537   3.718  10.375   8.819 -2.2215 -0.0872  0.9225
    4MOL0     H  538   4.009  10.328   8.777  1.0811  0.6816  3.0321
    4MOL0     H  539   4.009  10.161   8.832  2.4186  1.2269  1.3796
    4MOL0     H  540   3.866  10.227   8.746  2.1847  1.0024 -2.1197
    5MOL0     O  541  11.079   9.036   3.170  0.0459  0.1201 -0.5234
    5MOL0     C  542  11.048   8.926   3.118 -0.2105 -0.6522  0.0524
    5MOL0     O  543  11.124   8.866   3.019  0.2272  0.3103 -0.1627
    5MOL0     C  544  11.240   8.928   2.984  0.3991  0.2478 -0.0203
    5MOL0     C  545  11.269   8.966   2.850  0.5912 -0.0258 -0.7587
    5MOL0     C  546  11.377   9.045   2.810 -0.7664 -0.8394  0.3879
    5MOL0     C  547  11.474   9.082   2.909 -1.0036  0.0513  0.2867
    5MOL0     O  548  11.568   9.173   2.865 -0.4014 -0.0403 -0.9242
    5MOL0     C  549  11.703   9.117   2.855  0.0682  0.2650 -0.0240
    5MOL0     C  550  11.751   9.060   2.715  0.0851 -0.5161  0.6028
    5MOL0     C  551  11.897   9.047   2.727  0.5238  0.9496 -0.2941
    5MOL0     C  552  11.947   8.977   2.595  0.1826  0.4919  0.1954
    5MOL0     C  553  12.096   9.006   2.561  0.0883  0.1776  0.5681
    5MOL0     C  554  12.189   8.912   2.647 -0.0080  0.8383 -0.0945
    5MOL0     C  555  12.342   8.937   2.631 -0.9839  0.1633 -0.5546
    5MOL0     C  556  12.390   9.040   2.730 -0.9469 -1.0321 -0.3403
    5MOL0     N  557  12.538   9.053   2.708  0.4283  0.0434  0.0211
    5MOL0     C  558  12.636   8.985   2.773 -0.8913 -0.2205 -0.3467
    5MOL0     C  559  12.757   9.005   2.712  0.2031  0.4493 -0.0879
    5MOL0     C  560  12.883   8.935   2.748  0.3089 -0.2703  0.2808
    5MOL0     C  561  12.997   9.026   2.724 -0.3894 -0.5724 -0.9384
    5MOL0     C  562  13.116   8.970   2.792 -0.5421 -0.2577  0.5122
    5MOL0     C  563  13.152   8.821   2.757 -0.0838  0.1777 -0.4982
    5MOL0     O  564  13.283   8.776   2.796  0.1342  0.2669 -0.3401
    5MOL0     C  565  13.398   8.838   2.746  1.0532  0.1114  0.5148
    5MOL0     C  566  13.522   8.805   2.809  0.2190  0.4323 -0.8559
    5MOL0     C  567  13.639   8.866   2.756 -0.3869  0.3352 -0.9418
    5MOL0     C  568  13.631   8.960   2.657  0.5346  0.2463 -0.5921
    5MOL0     C  569  13.757   9.033   2.612 -0.6927  0.1751  0.5448
    5MOL0     O  570  13.851   9.056   2.707  0.5656  0.3016  0.1753
    5MOL0     C  571  13.968   9.118   2.661  0.8958  0.0129 -0.0296
    5MOL0     C  572  13.974   9.235   2.583 -0.3651  0.4090  0.1498
    5MOL0     C  573  14.089   9.299   2.552 -0.2471  0.0575  0.4006
    5MOL0     C  574  14.210   9.259   2.603 -0.3039 -0.2477 -0.5169
    5MOL0     O  575  14.323   9.341   2.588  0.3566 -0.3924  0.2358
    5MOL0     C  576  14.444   9.309   2.661 -0.3861 -0.2328 -0.6741
    5MOL0     C  577  14.525   9.201   2.588 -0.6430 -0.4881 -0.5278
    5MOL0     C  578  14.623   9.125   2.686 -0.0312  0.4454  0.5690
    5MOL0     C  579  14.732   9.205   2.744 -0.0562 -0.1699  0.2219
    5MOL0     C  580  14.835   9.260   2.644 -0.1388  0.7098 -0.2291
    5MOL0     C  581  14.960   9.173   2.632 -0.6911 -0.3141 -0.0688
    5MOL0     C  582  15.067   9.240   2.540  0.0630  0.3522 -0.4755
    5MOL0     C  583  15.193   9.159   2.535 -0.4267  0.9303  0.3655
    5MOL0    Cl  584  15.162   8.991   2.459 -0.1292  0.1303 -0.1257
    5MOL0     C  585  14.203   9.148   2.692 -0.4589  0.8529 -0.1306
    5MOL0     C  586  14.084   9.075   2.716  0.1563  0.3913 -0.6705
    5MOL0     O  587  13.764   9.065   2.495  0.3803 -0.1656 -0.0948
    5MOL0     C  588  13.506   8.983   2.587  0.2648 -0.2030 -0.2917
    5MOL0     C  589  13.393   8.929   2.640  0.3952 -1.2943  0.8642
    5MOL0     N  590  12.721   9.083   2.603 -0.4738 -0.4475 -0.1918
    5MOL0     N  591  12.596   9.114   2.598 -0.1704 -0.4802 -0.2325
    5MOL0     C  592  11.460   9.032   3.041  1.0630  0.1153  1.0307
    5MOL0     C  593  11.338   8.963   3.083 -0.1995 -0.1086  1.1450
    5MOL0     C  594  10.936   8.852   3.170  0.9939  0.4897 -0.0702
    5MOL0     C  595  10.824   8.919   3.214  0.3177  0.2384 -0.4591
    5MOL0     C  596  10.719   8.852   3.275 -0.2046  0.4703 -0.2649
    5MOL0     C  597  10.709   8.715   3.276 -0.2076 -0.1385  0.5030
    5MOL0     O  598  10.603   8.650   3.326 -0.5468 -0.2906  0.2754
    5MOL0     C  599  10.577   8.510   3.283 -0.3085 -0.6975 -0.4146
    5MOL0     C  600  10.479   8.424   3.377  0.0051  0.3683 -0.1550
    5MOL0     C  601  10.339   8.444   3.351  0.1595 -0.2487  0.3064
    5MOL0     C  602  10.292   8.576   3.404 -0.6292 -0.3619 -0.1950
    5MOL0     C  603  10.153   8.595   3.394  0.1519 -0.1249  0.3006
    5MOL0     C  604  10.034   8.617   3.376 -0.4771 -0.2007 -0.8205
    5MOL0     C  605  10.822   8.646   3.233 -0.6153  0.2939 -0.4746
    5MOL0     C  606  10.938   8.708   3.181  0.7299 -0.1579 -0.7737
    5MOL0     C  607  11.060   8.627   3.146  0.3944 -0.6942  0.0939
    5MOL0     H  608  11.200   8.934   2.772 -1.1243  2.3989 -0.3646
    5MOL0     H  609  11.392   9.072   2.706 -0.7842 -1.0078  0.3422
    5MOL0     H  610  11.773   9.197   2.881  0.1105  1.2269 -2.7211
    5MOL0     H  611  11.715   9.042   2.934 -0.0063  0.6118  0.3210
    5MOL0     H  612  11.723   9.135   2.640 -0.8304 -1.5080 -0.0649
    5MOL0     H  613  11.704   8.965   2.687  0.6060 -0.2100 -1.4523
    5MOL0     H  614  11.935   9.004   2.820 -2.0429  1.2598  1.0111
    5MOL0     H  615  11.936   9.150   2.724  1.2860  0.6421 -1.3338
    5MOL0     H  616  11.927   8.870   2.607 -2.1921  0.9519  0.9362
    5MOL0     H  617  11.878   8.999   2.514  0.3391  0.2441 -0.0081
    5MOL0     H  618  12.106   8.987   2.454 -1.6210  2.5619 -0.1056
    5MOL0     H  619  12.115   9.113   2.578  1.1988  0.5622 -2.5543
    5MOL0     H  620  12.168   8.915   2.754  1.0711  2.7391  0.1109
    5MOL0     H  621  12.174   8.809   2.613  0.5540  1.2254 -1.5823
    5MOL0     H  622  12.354   8.968   2.527  0.2508 -1.0690 -0.8016
    5MOL0     H  623  12.380   8.836   2.646 -1.4248  0.2256  1.2487
    5MOL0     H  624  12.340   9.136   2.717  2.6014  1.4925  2.5904
    5MOL0     H  625  12.365   9.013   2.833 -2.7804  2.7204  0.3596
    5MOL0     H  626  12.621   8.911   2.851  2.3777 -1.7923 -1.0956
    5MOL0     H  627  12.870   8.905   2.852 -0.9950 -1.8234 -0.2874
    5MOL0     H  628  12.895   8.847   2.684 -0.8897  0.5940 -1.2194
    5MOL0     H  629  13.016   9.044   2.618 -1.6305 -1.2786 -1.3011
    5MOL0     H  630  12.973   9.117   2.779 -1.7960 -1.9082  0.8000
    5MOL0     H  631  13.108   8.966   2.901 -0.9040 -2.3938  0.4565
    5MOL0     H  632  13.196   9.041   2.770 -0.8415  0.0954  0.5314
    5MOL0     H  633  13.143   8.819   2.648 -4.5567  4.1088 -0.4979
    5MOL0     H  634  13.075   8.759   2.804 -1.5729  2.1707 -0.2132
    5MOL0     H  635  13.526   8.725   2.883  0.4078 -0.9600 -2.3283
    5MOL0     H  636  13.735   8.831   2.793 -1.6293 -2.3234 -0.0367
    5MOL0     H  637  13.885   9.285   2.546 -0.4206  0.0971 -0.1456
    5MOL0     H  638  14.075   9.386   2.488  1.8798  1.3803  1.5854
    5MOL0     H  639  14.511   9.392   2.686  0.8244 -0.9929 -1.3415
    5MOL0     H  640  14.414   9.267   2.758  0.0268 -3.8306 -1.9753
    5MOL0     H  641  14.446   9.128   2.568 -3.3801  1.6932  1.3986
    5MOL0     H  642  14.580   9.234   2.500 -1.0555  0.4284 -0.4537
    5MOL0     H  643  14.562   9.084   2.766 -1.9157  0.8964 -0.5683
    5MOL0     H  644  14.674   9.044   2.634  0.3078 -0.2200  1.9027
    5MOL0     H  645  14.788   9.138   2.810  0.6817  1.8955  1.8045
    5MOL0     H  646  14.689   9.287   2.802  2.8075  0.0426  2.3062
    5MOL0     H  647  14.875   9.356   2.676  0.4589 -0.5096  3.0858
    5MOL0     H  648  14.784   9.265   2.547 -2.1257  1.8332  0.7994
    5MOL0     H  649  15.013   9.153   2.726  4.2814 -0.3337 -2.5682
    5MOL0     H  650  14.930   9.078   2.586 -2.3317 -0.9859  2.1977
    5MOL0     H  651  15.092   9.341   2.571  0.1495  0.7397 -1.7256
    5MOL0     H  652  15.020   9.261   2.443 -1.8441  2.0849  0.7423
    5MOL0     H  653  15.274   9.213   2.485 -1.1561  1.8419  0.1529
    5MOL0     H  654  15.226   9.141   2.638  2.0491  1.4369 -0.2751
    5MOL0     H  655  14.292   9.102   2.735  0.8119  1.0687 -2.3640
    5MOL0     H  656  14.079   8.987   2.779 -1.2581  2.0724  1.7412
    5MOL0     H  657  13.509   9.051   2.502  1.3270 -2.3202 -2.0526
    5MOL0     H  658  13.301   8.937   2.582  1.4908  0.8059 -0.6998
    5MOL0     H  659  11.536   9.053   3.116  0.0009 -1.6402  2.7054
    5MOL0     H  660  11.320   8.949   3.189 -2.1716  0.3733  0.9153
    5MOL0     H  661  10.811   9.027   3.203 -0.0182  0.2686  0.2143
    5MOL0     H  662  10.637   8.917   3.304  1.5385  2.3208  0.7481
    5MOL0     H  663  10.669   8.451   3.291  0.2769  0.1589 -0.7253
    5MOL0     H  664  10.549   8.501   3.178  0.4538  1.3927 -0.8488
    5MOL0     H  665  10.512   8.439   3.480 -0.1454 -0.3415 -0.0029
    5MOL0     H  666  10.484   8.317   3.357 -0.7600  0.3051 -0.0505
    5MOL0     H  667  10.276   8.365   3.391  0.7625 -1.4621 -1.0483
    5MOL0     H  668  10.321   8.442   3.243  0.2928  1.2353  0.2302
    5MOL0     H  669  10.323   8.580   3.509 -1.1980 -2.1016  0.0667
    5MOL0     H  670  10.345   8.656   3.352  0.9846 -2.1944 -1.5169
    5MOL0     H  671   9.928   8.613   3.363 -1.0427  4.6659  0.3748
    5MOL0     H  672  10.851   8.543   3.250  1.9498  1.2429  1.5932
    5MOL0     H  673  11.051   8.530   3.194  1.3653  1.0117  4.1309
    5MOL0     H  674  11.053   8.623   3.037 -0.1933 -0.3369  0.1151
    5MOL0     H  675  11.155   8.664   3.184 -0.6123  0.4695  1.6015
    6MOL0     O  676   2.728   8.315   7.916 -0.2749 -0.0218 -0.3536
    6MOL0     C  677   2.627   8.270   7.970 -0.2480 -0.3982  0.3111
    6MOL0     O  678   2.625   8.199   8.086  0.0694 -0.2375 -0.7207
    6MOL0     C  679   2.736   8.207   8.167 -0.2161 -0.1039 -1.1203
    6MOL0     C  680   2.826   8.104   8.169 -0.3792  0.0406 -0.1241
    6MOL0     C  681   2.933   8.106   8.264 -0.1535  0.0267  0.0444
    6MOL0     C  682   2.952   8.217   8.350  0.4071 -0.3714  0.1556
    6MOL0     O  683   3.064   8.199   8.427 -0.2330 -0.7905 -0.3904
    6MOL0     C  684   3.085   8.280   8.540  0.6826  0.3756  0.3277
    6MOL0     C  685   3.216   8.220   8.610 -0.1219 -0.0313 -0.8332
    6MOL0     C  686   3.332   8.309   8.584  0.1356 -0.5249 -0.2399
    6MOL0     C  687   3.450   8.274   8.670  0.8044 -1.0941 -0.0695
    6MOL0     C  688   3.567   8.347   8.595 -0.2000  0.1402 -0.3762
    6MOL0     C  689   3.691   8.326   8.691  0.4567 -0.0313 -0.3244
    6MOL0     C  690   3.829   8.362   8.628  0.1611  0.5448  0.0699
    6MOL0     C  691   3.938   8.342   8.735 -1.0008  0.0846 -0.0519
    6MOL0     N  692   4.071   8.356   8.661  0.3376 -1.0312 -0.2622
    6MOL0     C  693   4.196   8.402   8.713  0.3311 -0.3097 -0.4793
    6MOL0     C  694   4.286   8.399   8.616  1.0990 -0.1951 -0.3790
    6MOL0     C  695   4.421   8.451   8.622  0.2246  0.3236 -0.3188
    6MOL0     C  696   4.503   8.357   8.698  0.1315  0.0811 -0.2198
    6MOL0     C  697   4.524   8.228   8.622  0.1152 -0.7727 -0.8745
    6MOL0     C  698   4.546   8.112   8.716  0.4565 -0.9779 -0.9207
    6MOL0     O  699   4.635   8.142   8.826 -0.5871 -0.4706  0.3136
    6MOL0     C  700   4.771   8.168   8.810 -0.2806 -0.8919 -0.1182
    6MOL0     C  701   4.854   8.108   8.715 -0.0140 -0.0301  0.0329
    6MOL0     C  702   4.996   8.123   8.726 -1.2051 -0.4858 -0.0538
    6MOL0     C  703   5.050   8.202   8.823  0.4434 -0.4482 -0.8338
    6MOL0     C  704   5.195   8.198   8.846  0.0743  0.9414 -0.5470
    6MOL0     O  705   5.272   8.110   8.767  0.2607 -0.3894 -0.2020
    6MOL0     C  706   5.411   8.109   8.775  0.2210 -0.3226 -0.1490
    6MOL0     C  707   5.488   8.223   8.792 -0.0551 -0.3232 -0.6454
    6MOL0     C  708   5.630   8.219   8.813  0.5896 -0.5488  1.3596
    6MOL0     C  709   5.693   8.090   8.800  0.1472  0.1061 -0.2749
    6MOL0     O  710   5.824   8.071   8.781  0.5163 -1.2943 -0.0031
    6MOL0     C  711   5.907   8.108   8.888 -0.6643 -0.4728  0.1990
    6MOL0     C  712   6.048   8.043   8.875  0.2215 -0.6666 -0.4285
    6MOL0     C  713   6.140   8.065   8.992  0.2604  0.2833 -0.3203
    6MOL0     C  714   6.241   7.949   8.995  0.4148 -0.5950  0.2285
    6MOL0     C  715   6.339   7.954   9.114 -0.8635  0.3375 -0.4543
    6MOL0     C  716   6.423   7.827   9.119  0.7465 -0.3419 -0.2637
    6MOL0     C  717   6.533   7.836   9.224 -0.0538 -0.3089 -0.1978
    6MOL0     C  718   6.655   7.734   9.204  0.9784 -0.0896 -0.3013
    6MOL0    Cl  719   6.658   7.623   9.340 -0.4269  0.0656 -0.4337
    6MOL0     C  720   5.608   7.979   8.776 -0.1953 -0.0861  0.1730
    6MOL0     C  721   5.475   7.995   8.763  0.1041  0.4843 -0.2851
    6MOL0     O  722   5.234   8.274   8.930  0.5202  0.3798  0.5313
    6MOL0     C  723   4.968   8.262   8.920  0.3150  0.4794  0.2241
    6MOL0     C  724   4.829   8.241   8.910 -0.1774  0.4066 -0.0046
    6MOL0     N  725   4.221   8.350   8.505  0.4719  0.3044  0.7805
    6MOL0     N  726   4.095   8.334   8.530 -0.1938 -0.1134 -0.0375
    6MOL0     C  727   2.859   8.323   8.345  0.2446  0.2083 -0.0883
    6MOL0     C  728   2.754   8.314   8.253 -0.0336  0.2523  0.2105
    6MOL0     C  729   2.497   8.288   7.906  0.1838 -0.1966  0.5058
    6MOL0     C  730   2.388   8.206   7.944  0.0240 -0.3078 -0.6795
    6MOL0     C  731   2.252   8.227   7.890 -1.3047  0.1457  0.2539
    6MOL0     C  732   2.229   8.329   7.798 -0.5093  0.8178  0.1576
    6MOL0     O  733   2.097   8.324   7.767 -0.9457 -0.2121  0.8987
    6MOL0     C  734   2.046   8.424   7.676  0.2387 -0.6665  0.0809
    6MOL0     C  735   2.003   8.552   7.757 -1.3280  0.2106  1.0464
    6MOL0     C  736   1.961   8.660   7.660 -0.4122 -0.9642  0.3678
    6MOL0     C  737   1.974   8.802   7.722  0.4546 -0.1678 -0.0950
    6MOL0     C  738   2.116   8.837   7.730  0.2209  0.2998  0.3587
    6MOL0     C  739   2.229   8.866   7.753  0.2887  0.1946 -0.4332
    6MOL0     C  740   2.336   8.411   7.760 -0.2756  0.1276 -0.2600
    6MOL0     C  741   2.467   8.397   7.814  0.1012  1.1016  0.4093
    6MOL0     C  742   2.561   8.505   7.774 -0.2667 -0.1064  0.2732
    6MOL0     H  743   2.820   8.016   8.106 -1.4745 -2.1771  2.8194
    6MOL0     H  744   3.007   8.026   8.256 -0.5264 -0.3077 -0.1335
    6MOL0     H  745   3.104   8.385   8.516 -1.5894  1.6219  3.4111
    6MOL0     H  746   2.999   8.275   8.607 -1.5541  1.5401 -2.2552
    6MOL0     H  747   3.234   8.115   8.586  1.1188  0.2051 -1.0395
    6MOL0     H  748   3.196   8.216   8.718  1.1625 -1.9497 -0.6069
    6MOL0     H  749   3.315   8.416   8.601  0.8196 -0.4292 -0.1360
    6MOL0     H  750   3.364   8.299   8.480  0.5487  1.7414 -0.3898
    6MOL0     H  751   3.454   8.316   8.772  2.1165 -1.5113  0.0742
    6MOL0     H  752   3.474   8.167   8.673 -1.1422 -1.5926 -1.2954
    6MOL0     H  753   3.579   8.300   8.497  0.6350 -1.3993  0.4129
    6MOL0     H  754   3.556   8.456   8.589 -1.0387  0.0316 -1.0076
    6MOL0     H  755   3.676   8.377   8.786 -1.9813 -3.4652  1.3652
    6MOL0     H  756   3.700   8.219   8.714  0.8725  0.4637  2.0282
    6MOL0     H  757   3.826   8.463   8.587 -0.7461  0.3619 -0.3433
    6MOL0     H  758   3.842   8.294   8.543 -0.2254  2.5685 -1.6916
    6MOL0     H  759   3.935   8.421   8.811  1.0963 -3.4406  4.1234
    6MOL0     H  760   3.922   8.253   8.796  1.1048  0.1175  0.6576
    6MOL0     H  761   4.234   8.426   8.811  0.2376  2.5890 -1.0847
    6MOL0     H  762   4.446   8.463   8.516 -1.7938  2.2953 -0.6464
    6MOL0     H  763   4.408   8.546   8.674  0.9152  0.3678 -0.2163
    6MOL0     H  764   4.596   8.414   8.701 -0.0660  0.5623 -2.0645
    6MOL0     H  765   4.466   8.341   8.800 -2.2107  0.9908 -0.8875
    6MOL0     H  766   4.607   8.237   8.551 -0.5528 -0.9715 -1.6999
    6MOL0     H  767   4.437   8.209   8.558  1.5177 -0.5451 -2.9451
    6MOL0     H  768   4.568   8.018   8.664  0.9020 -1.3876 -0.0234
    6MOL0     H  769   4.449   8.100   8.764  0.4604  1.6079 -0.1365
    6MOL0     H  770   4.815   8.061   8.625 -3.5182  0.6228  1.0626
    6MOL0     H  771   5.053   8.073   8.649 -1.5986 -1.3250  0.1911
    6MOL0     H  772   5.448   8.324   8.790  0.7952  0.0728 -4.1660
    6MOL0     H  773   5.687   8.309   8.835  0.0196 -0.2068  1.4782
    6MOL0     H  774   5.923   8.216   8.899 -1.0059 -0.2196 -1.5415
    6MOL0     H  775   5.868   8.072   8.984 -0.4216  0.2843  0.5967
    6MOL0     H  776   6.031   7.937   8.854 -3.3298  0.0296 -1.7861
    6MOL0     H  777   6.095   8.077   8.782 -0.8409  0.9516 -0.4205
    6MOL0     H  778   6.193   8.159   8.974 -0.1257  0.8692  1.3680
    6MOL0     H  779   6.086   8.074   9.087  0.5877  0.6019 -0.1617
    6MOL0     H  780   6.300   7.950   8.902  1.6913 -1.0095  1.0051
    6MOL0     H  781   6.188   7.853   8.996  1.5279 -1.2331 -0.2052
    6MOL0     H  782   6.284   7.964   9.208  1.2513  0.2143  0.8749
    6MOL0     H  783   6.403   8.043   9.122 -1.4999  0.6752  1.2252
    6MOL0     H  784   6.363   7.739   9.141 -0.1515  0.2766 -0.1603
    6MOL0     H  785   6.471   7.815   9.021 -0.7624  2.3644 -1.4732
    6MOL0     H  786   6.479   7.825   9.319  0.5756 -2.6885 -0.0384
    6MOL0     H  787   6.565   7.940   9.231  0.0797 -0.3095 -0.7637
    6MOL0     H  788   6.646   7.694   9.103  1.5947  3.5832 -1.9920
    6MOL0     H  789   6.746   7.791   9.186  0.1173  0.6847 -2.5356
    6MOL0     H  790   5.665   7.889   8.754  1.1662  1.1709 -1.7239
    6MOL0     H  791   5.415   7.909   8.737  0.6035 -0.3144  1.1049
    6MOL0     H  792   5.019   8.314   9.001  0.3042 -1.9377  1.8643
    6MOL0     H  793   4.769   8.288   8.987 -0.6358 -2.6638  1.6601
    6MOL0     H  794   2.863   8.418   8.397  1.7986  0.6383 -0.9256
    6MOL0     H  795   2.684   8.397   8.253  0.4950  0.7154 -0.9471
    6MOL0     H  796   2.392   8.123   8.014 -4.5472  0.3807  0.6912
    6MOL0     H  797   2.176   8.161   7.931  1.7493 -2.0739  2.9345
    6MOL0     H  798   1.964   8.388   7.613  0.0468 -0.9429  0.4841
    6MOL0     H  799   2.117   8.455   7.599 -1.3959  2.2396 -0.4143
    6MOL0     H  800   2.087   8.576   7.823  0.2285  3.4693 -1.7902
    6MOL0     H  801   1.913   8.526   7.813 -0.6947 -0.4380  1.7842
    6MOL0     H  802   1.858   8.648   7.625  0.2005 -0.5018 -1.6931
    6MOL0     H  803   2.023   8.657   7.570 -1.5021  1.8423 -0.5847
    6MOL0     H  804   1.932   8.870   7.647 -0.6539 -0.2801  0.4078
    6MOL0     H  805   1.920   8.809   7.817 -0.9624  1.5424 -0.9598
    6MOL0     H  806   2.333   8.881   7.773  0.0315 -0.5412  1.6922
    6MOL0     H  807   2.326   8.499   7.697  2.5537 -0.4866 -1.7125
    6MOL0     H  808   2.622   8.550   7.854 -0.8490 -0.6449  1.0282
    6MOL0     H  809   2.630   8.467   7.698 -0.5018 -0.3104  0.1601
    6MOL0     H  810   2.511   8.589   7.726 -0.1633 -1.1080 -1.6828
    7MOL0     O  811   8.935   4.254   4.596 -0.5375  0.0263 -0.2956
    7MOL0     C  812   8.860   4.337   4.539  0.7543 -0.4979  0.8675
    7MOL0     O  813   8.847   4.467   4.569 -0.8705 -0.3249 -0.0857
    7MOL0     C  814   8.932   4.533   4.649 -0.8802  1.1517 -0.1937
    7MOL0     C  815   9.072   4.510   4.653  0.6340 -0.3048 -0.2537
    7MOL0     C  816   9.149   4.600   4.723 -0.0527 -0.3914 -0.4921
    7MOL0     C  817   9.102   4.711   4.797 -0.6330  0.7068  0.9057
    7MOL0     O  818   9.196   4.786   4.869  0.0904  0.1279  0.2125
    7MOL0     C  819   9.156   4.920   4.910 -0.3086 -0.0475  0.5303
    7MOL0     C  820   9.276   4.982   4.964 -0.6848 -0.5596 -0.6402
    7MOL0     C  821   9.267   5.137   4.992  0.7191  0.2070 -0.4278
    7MOL0     C  822   9.145   5.172   5.080  0.3716  0.0579  0.2962
    7MOL0     C  823   9.170   5.311   5.143  0.5662  0.3396  0.8819
    7MOL0     C  824   9.059   5.381   5.218 -0.0595  0.0297  0.5503
    7MOL0     C  825   8.991   5.287   5.314 -0.5234  0.3779  0.1357
    7MOL0     C  826   8.881   5.352   5.395  0.6618  0.5296  0.4052
    7MOL0     N  827   8.794   5.244   5.448  0.2386  0.4510  0.1335
    7MOL0     C  828   8.693   5.184   5.375 -0.3236  0.7567  0.2587
    7MOL0     C  829   8.630   5.097   5.458 -0.6615 -0.3986  0.1210
    7MOL0     C  830   8.516   5.008   5.411 -1.0270 -0.0814 -0.2832
    7MOL0     C  831   8.398   5.010   5.512  0.2309 -0.2419 -0.2679
    7MOL0     C  832   8.272   5.048   5.433 -0.5371  0.0336 -0.4230
    7MOL0     C  833   8.140   5.014   5.493 -0.1947 -0.6653  0.0630
    7MOL0     O  834   8.121   4.874   5.517 -0.1289  0.1222  0.2199
    7MOL0     C  835   7.996   4.818   5.515  1.2331  0.5762  0.8648
    7MOL0     C  836   7.888   4.905   5.476 -0.1839  0.8993  0.5227
    7MOL0     C  837   7.757   4.858   5.507  0.0988 -0.1831  0.1068
    7MOL0     C  838   7.733   4.733   5.570 -0.6865  0.3862 -0.0849
    7MOL0     C  839   7.598   4.678   5.599 -0.5817  0.3876  0.2669
    7MOL0     O  840   7.486   4.734   5.540 -0.3901 -0.1841 -0.1450
    7MOL0     C  841   7.370   4.708   5.604  1.0432  0.3265 -0.3639
    7MOL0     C  842   7.253   4.677   5.536 -0.2597  0.4542 -0.5402
    7MOL0     C  843   7.129   4.657   5.593  0.6175 -1.3929  0.9237
    7MOL0     C  844   7.117   4.665   5.730  1.0281  0.2116  0.1154
    7MOL0     O  845   6.988   4.667   5.776 -0.3473  0.2690 -0.0086
    7MOL0     C  846   6.965   4.644   5.914  0.2677  0.2861 -0.4179
    7MOL0     C  847   6.813   4.663   5.934 -0.1362  0.4022 -0.0081
    7MOL0     C  848   6.732   4.567   5.850 -0.2464  0.1193 -0.1303
    7MOL0     C  849   6.586   4.560   5.883 -0.0532 -0.5526  0.3678
    7MOL0     C  850   6.528   4.430   5.833  0.0465  0.0994 -0.5100
    7MOL0     C  851   6.549   4.406   5.685 -0.0124 -0.3347  0.7242
    7MOL0     C  852   6.466   4.287   5.633 -0.0112  1.0708  0.5634
    7MOL0     C  853   6.448   4.282   5.489 -0.7205 -0.3985  0.5796
    7MOL0    Cl  854   6.388   4.433   5.441 -0.0173  0.0376 -0.2763
    7MOL0     C  855   7.230   4.698   5.807  0.3105  0.4575 -0.1387
    7MOL0     C  856   7.351   4.722   5.740 -0.3054 -0.6667  0.4359
    7MOL0     O  857   7.599   4.585   5.675  0.4832  0.0682 -0.2557
    7MOL0     C  858   7.846   4.658   5.601  0.1941  1.3613  0.5033
    7MOL0     C  859   7.977   4.705   5.586 -0.1635  0.2016  0.5660
    7MOL0     N  860   8.685   5.113   5.583 -0.2813  0.5087  0.3990
    7MOL0     N  861   8.788   5.197   5.578  0.7724  0.9249 -0.0282
    7MOL0     C  862   8.968   4.734   4.786 -0.2157 -0.4269  0.0636
    7MOL0     C  863   8.889   4.642   4.725  0.4342 -0.2773  0.3401
    7MOL0     C  864   8.760   4.296   4.437 -0.3350  0.6201 -0.0878
    7MOL0     C  865   8.638   4.367   4.434  0.3231  0.5913  0.1155
    7MOL0     C  866   8.549   4.348   4.332  0.0616 -0.1221 -0.3666
    7MOL0     C  867   8.575   4.253   4.242  0.5482 -0.2078  0.6220
    7MOL0     O  868   8.486   4.234   4.136  0.2550 -0.6337  0.0369
    7MOL0     C  869   8.393   4.131   4.171 -0.0906  0.5108  0.3779
    7MOL0     C  870   8.267   4.185   4.212  0.2984  0.3625  0.0950
    7MOL0     C  871   8.171   4.241   4.104 -0.5157  0.4738  0.6364
    7MOL0     C  872   8.039   4.285   4.157  1.3675  0.1425  0.0450
    7MOL0     C  873   7.944   4.316   4.046 -1.1260 -0.0609  0.7083
    7MOL0     C  874   7.866   4.351   3.961 -0.1653  0.0885 -0.4568
    7MOL0     C  875   8.690   4.179   4.245  0.3946 -0.2672  0.6910
    7MOL0     C  876   8.791   4.204   4.334  0.0779  0.3793 -0.6591
    7MOL0     C  877   8.926   4.139   4.321 -1.2853  0.6977 -0.9535
    7MOL0     H  878   9.114   4.426   4.599  0.4190 -1.3693  1.1671
    7MOL0     H  879   9.257   4.593   4.708  0.0614  0.7907 -0.3166
    7MOL0     H  880   9.125   4.972   4.819  1.0885  0.6708  0.4407
    7MOL0     H  881   9.072   4.924   4.980 -0.4900  1.8873  0.2383
    7MOL0     H  882   9.363   4.958   4.902  2.7206 -0.4785  3.5778
    7MOL0     H  883   9.284   4.929   5.060  2.2027  0.0491 -0.4590
    7MOL0     H  884   9.265   5.196   4.900  0.6100  0.6317 -0.1548
    7MOL0     H  885   9.350   5.169   5.056  0.2414 -0.4225  0.5385
    7MOL0     H  886   9.055   5.184   5.018  2.1305  1.2271 -2.1925
    7MOL0     H  887   9.137   5.099   5.161  0.7751 -2.0238 -1.4423
    7MOL0     H  888   9.255   5.296   5.210  2.4409 -1.5512 -1.6977
    7MOL0     H  889   9.202   5.372   5.058  0.9816  1.7781  2.0447
    7MOL0     H  890   9.108   5.460   5.275  1.0856 -0.2653 -0.0020
    7MOL0     H  891   8.993   5.439   5.153  1.3233  1.8176  0.6628
    7MOL0     H  892   9.074   5.266   5.381 -0.4620  1.8247  0.5411
    7MOL0     H  893   8.946   5.199   5.266 -1.8057 -0.1632  2.1550
    7MOL0     H  894   8.929   5.403   5.479 -0.5425  1.7237  0.3927
    7MOL0     H  895   8.824   5.421   5.333  1.2560 -2.1304 -3.4804
    7MOL0     H  896   8.670   5.190   5.269 -0.1173  0.9575  0.2235
    7MOL0     H  897   8.489   5.044   5.311  3.1334  0.2150 -1.4940
    7MOL0     H  898   8.558   4.907   5.405  2.1948  0.6103  4.6321
    7MOL0     H  899   8.377   4.913   5.557 -1.4481  0.3683  0.3653
    7MOL0     H  900   8.411   5.075   5.599  1.6874  0.3728 -0.9132
    7MOL0     H  901   8.272   4.989   5.341 -4.4832 -0.7048 -0.1389
    7MOL0     H  902   8.272   5.154   5.408 -2.3837 -0.1824 -1.5147
    7MOL0     H  903   8.074   5.058   5.417  0.8482  1.1336  0.1451
    7MOL0     H  904   8.129   5.066   5.589 -1.1103 -2.3822  0.9368
    7MOL0     H  905   7.892   5.002   5.428  1.4190  0.9155  0.6576
    7MOL0     H  906   7.672   4.919   5.478  0.4837  0.3730  0.1365
    7MOL0     H  907   7.257   4.664   5.429 -0.4200 -0.7057 -0.4228
    7MOL0     H  908   7.039   4.644   5.534 -0.6506  3.3688  1.3748
    7MOL0     H  909   6.985   4.542   5.950  0.9044  0.1911 -1.0199
    7MOL0     H  910   7.015   4.710   5.986 -0.5934  2.3409 -1.6129
    7MOL0     H  911   6.790   4.652   6.041  0.5897  0.4332  0.1600
    7MOL0     H  912   6.782   4.762   5.903  1.5656  0.9179 -0.1681
    7MOL0     H  913   6.741   4.595   5.744 -0.3634 -2.8533 -1.0311
    7MOL0     H  914   6.770   4.467   5.874 -2.3475 -0.2199  2.1297
    7MOL0     H  915   6.533   4.644   5.837  2.6966 -1.2219 -4.7223
    7MOL0     H  916   6.579   4.569   5.992  1.6180  2.6875  0.3183
    7MOL0     H  917   6.424   4.430   5.867  0.1772  0.6476 -0.0776
    7MOL0     H  918   6.577   4.351   5.890  0.6404  1.8875  1.6214
    7MOL0     H  919   6.536   4.501   5.632  0.5648 -0.0918  1.0135
    7MOL0     H  920   6.652   4.373   5.673 -0.3656 -0.9687 -0.7902
    7MOL0     H  921   6.371   4.277   5.686  0.0860  0.4569  0.6297
    7MOL0     H  922   6.515   4.194   5.665  1.1014  1.6379  0.5814
    7MOL0     H  923   6.549   4.261   5.451 -0.4497 -1.5992  1.8620
    7MOL0     H  924   6.380   4.202   5.458  2.1564 -2.9161  0.2277
    7MOL0     H  925   7.238   4.703   5.915  0.8481  2.0394 -0.2339
    7MOL0     H  926   7.447   4.754   5.778 -0.1831  0.7545 -0.9425
    7MOL0     H  927   7.822   4.562   5.648 -1.3043  0.9977 -0.9145
    7MOL0     H  928   8.061   4.653   5.629  0.6087  1.5504  0.7381
    7MOL0     H  929   8.918   4.818   4.834 -1.9749 -1.7751  0.6993
    7MOL0     H  930   8.783   4.658   4.709  0.5877 -1.2356 -2.2147
    7MOL0     H  931   8.628   4.443   4.511 -0.3909 -0.2364  0.8635
    7MOL0     H  932   8.467   4.419   4.333  0.2504  0.0983 -0.6613
    7MOL0     H  933   8.430   4.063   4.249 -1.1967 -1.9749 -1.1514
    7MOL0     H  934   8.383   4.072   4.080 -0.3493 -0.8781  1.2740
    7MOL0     H  935   8.276   4.254   4.297 -1.9583  0.8940 -0.0599
    7MOL0     H  936   8.220   4.091   4.242  1.1089  0.6573  2.5665
    7MOL0     H  937   8.150   4.163   4.030  0.7746  1.0222 -0.3576
    7MOL0     H  938   8.230   4.314   4.048 -0.4904  0.7862  1.0641
    7MOL0     H  939   7.997   4.204   4.218  0.4968 -1.0639 -2.0464
    7MOL0     H  940   8.044   4.377   4.215 -0.7985  1.3006 -1.4732
    7MOL0     H  941   7.813   4.387   3.876  0.9061 -0.8485 -1.5585
    7MOL0     H  942   8.712   4.100   4.173 -0.0773  1.1441 -1.0497
    7MOL0     H  943   8.963   4.084   4.408 -0.4903  0.9302 -1.1407
    7MOL0     H  944   8.924   4.060   4.245  2.6866 -0.2876 -0.2384
    7MOL0     H  945   8.993   4.213   4.278  1.5666 -1.0221  0.2906
    8MOL0     O  946   0.839   7.459   2.225 -0.6914  0.0806 -0.1858
    8MOL0     C  947   0.843   7.557   2.157  0.2409 -0.4758 -0.7447
    8MOL0     O  948   0.736   7.599   2.081 -1.0695 -0.1385 -0.2156
    8MOL0     C  949   0.611   7.541   2.064 -0.2614  0.6634  0.6011
    8MOL0     C  950   0.546   7.466   2.163 -0.2736  0.1556  0.2138
    8MOL0     C  951   0.414   7.429   2.127  0.4979  0.0698  0.4919
    8MOL0     C  952   0.357   7.439   1.997  0.1471 -0.8119 -0.6067
    8MOL0     O  953   0.232   7.392   1.964 -0.2218  0.1323 -0.8708
    8MOL0     C  954   0.136   7.337   2.059  0.7221  0.0084 -0.5956
    8MOL0     C  955   0.034   7.264   1.973 -0.3676  0.3668  0.0637
    8MOL0     C  956  -0.039   7.169   2.063  0.3227  0.0597 -0.0983
    8MOL0     C  957  -0.123   7.064   1.986 -0.5003 -0.1756 -0.4432
    8MOL0     C  958  -0.228   7.007   2.087  0.0832 -0.0052 -0.0193
    8MOL0     C  959  -0.169   6.947   2.226 -0.2531 -0.2595  0.7087
    8MOL0     C  960  -0.056   6.832   2.194  0.8410 -0.4323  0.4921
    8MOL0     C  961   0.011   6.783   2.325  0.0456  0.6395 -0.1057
    8MOL0     N  962   0.082   6.893   2.385  0.4261  0.2678  0.9406
    8MOL0     C  963   0.201   6.949   2.345  1.0442  0.0880 -0.1285
    8MOL0     C  964   0.215   7.047   2.432 -0.6250  0.2722  0.2354
    8MOL0     C  965   0.334   7.128   2.441  0.4674 -0.6661 -0.0201
    8MOL0     C  966   0.364   7.196   2.572 -0.2236 -0.7819  0.1325
    8MOL0     C  967   0.452   7.315   2.566 -0.2907 -0.1155  0.5388
    8MOL0     C  968   0.603   7.278   2.539 -0.1512 -0.6597 -0.0337
    8MOL0     O  969   0.666   7.202   2.644  0.0633  0.2483 -0.0965
    8MOL0     C  970   0.803   7.216   2.665 -0.4750 -0.8773  0.3575
    8MOL0     C  971   0.897   7.241   2.558  0.1225 -1.0004  0.5090
    8MOL0     C  972   1.036   7.236   2.576  0.2229 -0.2756  0.4470
    8MOL0     C  973   1.089   7.230   2.707 -0.3198 -0.2127 -0.2453
    8MOL0     C  974   1.233   7.244   2.730  0.1553  0.2713 -0.2478
    8MOL0     O  975   1.312   7.261   2.624 -0.5566 -0.3657  0.9744
    8MOL0     C  976   1.438   7.216   2.617 -0.4706 -0.0948  0.4989
    8MOL0     C  977   1.502   7.116   2.692 -0.3733  0.0625 -0.1217
    8MOL0     C  978   1.635   7.080   2.672 -0.2558 -0.3438  0.0291
    8MOL0     C  979   1.710   7.139   2.570  0.2644 -0.1615 -0.0573
    8MOL0     O  980   1.847   7.119   2.554  0.8691 -0.7658 -0.2031
    8MOL0     C  981   1.908   7.044   2.653  0.0068 -0.9554  0.4946
    8MOL0     C  982   2.059   7.064   2.659 -0.4315  0.7167  0.0776
    8MOL0     C  983   2.097   7.199   2.722  0.7428 -0.8445 -0.0384
    8MOL0     C  984   2.250   7.213   2.739  0.0387  0.1444 -0.3564
    8MOL0     C  985   2.283   7.348   2.805 -0.0264 -0.2044 -0.1311
    8MOL0     C  986   2.429   7.386   2.817  0.5236  0.2838  0.1295
    8MOL0     C  987   2.501   7.376   2.676 -0.6663  0.6423 -0.9764
    8MOL0     C  988   2.629   7.450   2.676  0.0239  0.0951 -0.6200
    8MOL0    Cl  989   2.738   7.382   2.805 -0.4017  0.1896  0.0627
    8MOL0     C  990   1.644   7.227   2.484  0.1070  0.0887 -0.4530
    8MOL0     C  991   1.513   7.269   2.508 -0.2990 -0.3811 -1.1604
    8MOL0     O  992   1.274   7.223   2.844 -1.1846  0.2500  0.1059
    8MOL0     C  993   0.994   7.209   2.809 -0.2138  0.6255  0.8568
    8MOL0     C  994   0.857   7.195   2.790  0.2314 -0.2887  0.1573
    8MOL0     N  995   0.102   7.064   2.508  0.1257 -0.5075 -0.0126
    8MOL0     N  996   0.022   6.968   2.482 -0.2806 -0.8553  0.0428
    8MOL0     C  997   0.429   7.517   1.911  0.8132  0.1321  0.3184
    8MOL0     C  998   0.552   7.572   1.938 -0.1645  0.7222  0.0078
    8MOL0     C  999   0.972   7.626   2.137 -0.5653 -0.6181 -0.0456
    8MOL0     C 1000   0.970   7.716   2.031  0.1632  0.2968  0.7210
    8MOL0     C 1001   1.084   7.786   2.001  0.0939 -0.2631 -0.1967
    8MOL0     C 1002   1.193   7.777   2.083  0.2801  1.2570  0.6853
    8MOL0     O 1003   1.312   7.843   2.056  1.3347  0.3230  0.1453
    8MOL0     C 1004   1.304   7.988   2.058 -0.1470 -0.3869  0.2661
    8MOL0     C 1005   1.414   8.042   2.145  0.0351  0.3599  0.7712
    8MOL0     C 1006   1.556   7.996   2.098  0.0327  0.2688  0.5855
    8MOL0     C 1007   1.634   8.098   2.009  0.7410 -0.2325  0.1286
    8MOL0     C 1008   1.763   8.049   1.983 -0.3999  0.8149 -0.0728
    8MOL0     C 1009   1.868   7.997   1.948 -0.3222  0.4672  0.3116
    8MOL0     C 1010   1.205   7.683   2.186  0.5829  0.7366  0.1702
    8MOL0     C 1011   1.096   7.597   2.209  0.4572  0.3283  0.5957
    8MOL0     C 1012   1.121   7.485   2.301  0.5918 -0.0273  0.1775
    8MOL0     H 1013   0.578   7.445   2.264 -1.5633  0.6873  0.7572
    8MOL0     H 1014   0.347   7.389   2.203  0.6272  0.2697  0.7110
    8MOL0     H 1015   0.189   7.266   2.124  2.6057  0.2064 -1.8390
    8MOL0     H 1016   0.095   7.418   2.120 -0.1857 -1.2288  0.5051
    8MOL0     H 1017   0.094   7.219   1.893  1.2972  1.2549  0.7555
    8MOL0     H 1018  -0.034   7.340   1.933 -0.5392  2.2835  3.5944
    8MOL0     H 1019  -0.104   7.217   2.136  1.9709  1.0613  0.7632
    8MOL0     H 1020   0.034   7.122   2.130  0.1842 -1.6972 -1.1113
    8MOL0     H 1021  -0.175   7.102   1.898 -3.7831 -0.9673  1.0048
    8MOL0     H 1022  -0.069   6.974   1.953 -0.8172 -0.0621 -1.2993
    8MOL0     H 1023  -0.299   7.090   2.098  0.6778  0.7028 -1.2924
    8MOL0     H 1024  -0.283   6.930   2.031 -0.5587  2.2650 -2.7849
    8MOL0     H 1025  -0.119   7.029   2.279  0.1021 -0.2797  0.4082
    8MOL0     H 1026  -0.240   6.897   2.292  0.4338 -2.8292 -0.4012
    8MOL0     H 1027   0.023   6.869   2.128 -0.3904 -0.6970 -1.2201
    8MOL0     H 1028  -0.106   6.748   2.145 -0.0518 -0.0329  0.6893
    8MOL0     H 1029  -0.072   6.763   2.394  0.2804  0.8636  0.2426
    8MOL0     H 1030   0.077   6.696   2.317  0.5927  1.2159 -2.8613
    8MOL0     H 1031   0.276   6.912   2.277 -0.3144 -2.0500 -0.5472
    8MOL0     H 1032   0.417   7.062   2.415  0.0515 -1.1854 -0.0301
    8MOL0     H 1033   0.317   7.197   2.357  1.5165 -0.3937 -0.0299
    8MOL0     H 1034   0.271   7.227   2.621  0.6911  1.2089  0.7131
    8MOL0     H 1035   0.402   7.123   2.644 -2.1328 -0.5625  1.4333
    8MOL0     H 1036   0.458   7.379   2.656  0.7087  1.9913 -0.9343
    8MOL0     H 1037   0.429   7.365   2.472 -0.6058  0.8263  1.1000
    8MOL0     H 1038   0.659   7.372   2.536  1.1658 -1.4425 -1.8027
    8MOL0     H 1039   0.622   7.230   2.442  1.4599 -0.2503  0.0547
    8MOL0     H 1040   0.865   7.263   2.456 -1.0635  1.4268  1.3156
    8MOL0     H 1041   1.097   7.265   2.491 -0.1479 -2.0304 -0.4521
    8MOL0     H 1042   1.444   7.063   2.766 -0.2544 -0.1679 -0.1932
    8MOL0     H 1043   1.671   7.006   2.742 -3.9540 -0.9087  1.5577
    8MOL0     H 1044   1.881   7.083   2.751  0.8353  1.0546 -0.0121
    8MOL0     H 1045   1.875   6.940   2.647  0.3608 -0.9722 -3.1989
    8MOL0     H 1046   2.100   6.988   2.727  3.4078 -0.2838 -3.0144
    8MOL0     H 1047   2.106   7.053   2.561 -3.0347 -0.0817 -1.1683
    8MOL0     H 1048   2.061   7.281   2.659  1.6607 -0.3106  0.1110
    8MOL0     H 1049   2.046   7.203   2.818 -0.8009 -2.3280 -0.7279
    8MOL0     H 1050   2.273   7.208   2.632 -0.8623 -1.2583 -0.5150
    8MOL0     H 1051   2.286   7.129   2.800  1.0627 -1.8124 -3.4275
    8MOL0     H 1052   2.232   7.357   2.901  1.6744 -0.2702  0.8104
    8MOL0     H 1053   2.244   7.422   2.734 -1.7114 -1.8062 -0.9637
    8MOL0     H 1054   2.444   7.485   2.859  0.1662 -0.3713  1.9291
    8MOL0     H 1055   2.486   7.322   2.886  0.3483  0.1930  0.1913
    8MOL0     H 1056   2.440   7.433   2.607 -2.7129  0.7532  0.8107
    8MOL0     H 1057   2.519   7.270   2.655  2.9077  0.1815  2.8932
    8MOL0     H 1058   2.685   7.429   2.584 -0.0732 -0.1454 -0.6249
    8MOL0     H 1059   2.611   7.557   2.687  0.0911 -0.1408  2.7015
    8MOL0     H 1060   1.694   7.271   2.399  1.0908  0.7197  0.4271
    8MOL0     H 1061   1.467   7.343   2.444  0.3370  2.8978  1.8866
    8MOL0     H 1062   1.034   7.210   2.909 -1.5329 -0.2181  1.4095
    8MOL0     H 1063   0.785   7.175   2.868  0.8790  4.3414  2.2746
    8MOL0     H 1064   0.397   7.512   1.807 -1.9789 -0.9453  1.1298
    8MOL0     H 1065   0.613   7.633   1.872  2.6232  0.8039  2.4844
    8MOL0     H 1066   0.880   7.737   1.974  0.3934  3.1746  1.2464
    8MOL0     H 1067   1.090   7.851   1.915  1.1652 -0.3588 -0.2018
    8MOL0     H 1068   1.210   8.004   2.111  0.5291 -0.0183  1.4129
    8MOL0     H 1069   1.301   8.036   1.960  1.7748  1.7125  1.1187
    8MOL0     H 1070   1.412   8.007   2.249  2.3765  2.7206  1.7254
    8MOL0     H 1071   1.401   8.151   2.148  1.0699  0.5459 -0.7501
    8MOL0     H 1072   1.553   7.905   2.037 -0.2529  1.7751 -1.7550
    8MOL0     H 1073   1.616   7.965   2.184  0.9934  1.5573  0.4192
    8MOL0     H 1074   1.577   8.117   1.917  0.1620  2.1616  0.9038
    8MOL0     H 1075   1.643   8.189   2.068 -0.9493  0.7171 -0.9925
    8MOL0     H 1076   1.970   7.974   1.925  0.3277  2.3319  1.1120
    8MOL0     H 1077   1.304   7.669   2.227  0.0460  0.4023  1.4044
    8MOL0     H 1078   1.060   7.491   2.392  1.4491 -0.0155  0.7731
    8MOL0     H 1079   1.111   7.395   2.240 -3.7896 -0.1268  0.7298
    8MOL0     H 1080   1.224   7.481   2.337  0.7391 -2.5632 -0.3210
    9MOL0     O 1081   0.597   6.163  10.040  0.1900 -0.5440  0.3514
    9MOL0     C 1082   0.642   6.061   9.984 -0.0287 -0.3536  0.2010
    9MOL0     O 1083   0.689   5.946  10.058 -0.5078 -0.4132  0.0814
    9MOL0     C 1084   0.704   5.961  10.191 -0.3048  1.2649 -0.4200
    9MOL0     C 1085   0.630   5.882  10.281 -0.5617  0.7258 -0.5114
    9MOL0     C 1086   0.654   5.893  10.415  0.4228  0.2382  0.0009
    9MOL0     C 1087   0.742   5.987  10.470 -0.0397  0.1321 -0.6748
    9MOL0     O 1088   0.770   6.004  10.603  0.3095 -0.6623 -0.2718
    9MOL0     C 1089   0.702   5.913  10.697  0.4951 -0.5381  0.4560
    9MOL0     C 1090   0.755   5.919  10.841 -0.5551 -0.5789  0.2831
    9MOL0     C 1091   0.900   5.868  10.839 -0.3229 -0.3814  0.3547
    9MOL0     C 1092   0.955   5.856  10.974 -0.0986 -0.0370  0.2912
    9MOL0     C 1093   1.073   5.770  10.959  0.4152  0.0350 -0.2062
    9MOL0     C 1094   1.208   5.849  10.937 -0.5798  0.3578 -0.2639
    9MOL0     C 1095   1.322   5.748  10.918 -0.0183 -0.2215 -0.6658
    9MOL0     C 1096   1.361   5.683  11.057 -0.9343  0.6045 -0.4535
    9MOL0     N 1097   1.497   5.611  11.048  0.3036  0.2714  0.5121
    9MOL0     C 1098   1.617   5.651  10.994 -0.0873  0.4743  0.7156
    9MOL0     C 1099   1.700   5.548  11.019 -0.8556  0.1305 -0.0475
    9MOL0     C 1100   1.846   5.558  10.989 -0.6698  0.3811 -0.0222
    9MOL0     C 1101   1.918   5.423  11.038 -0.9338 -0.2292 -0.3330
    9MOL0     C 1102   2.068   5.467  11.076  0.4986  0.1475  0.1327
    9MOL0     C 1103   2.144   5.366  11.165  0.0162  0.4096  1.1686
    9MOL0     O 1104   2.277   5.420  11.172 -0.2272 -0.4894  1.0382
    9MOL0     C 1105   2.379   5.379  11.101 -0.5005 -0.8658  0.6120
    9MOL0     C 1106   2.374   5.292  10.992 -0.7629  0.0643 -0.2779
    9MOL0     C 1107   2.497   5.260  10.925  0.9471 -0.2057 -0.4955
    9MOL0     C 1108   2.615   5.326  10.960 -0.4418  0.2731 -0.3009
    9MOL0     C 1109   2.738   5.297  10.879  0.7046 -1.3503  0.9915
    9MOL0     O 1110   2.848   5.362  10.926  0.0011 -0.2149  0.2771
    9MOL0     C 1111   2.968   5.351  10.849  0.4284 -0.3164 -0.9040
    9MOL0     C 1112   3.011   5.480  10.805 -0.4629  1.1072  0.0762
    9MOL0     C 1113   3.126   5.487  10.724 -0.2801  0.6699 -0.6472
    9MOL0     C 1114   3.198   5.365  10.704  0.2283 -0.7758  0.4333
    9MOL0     O 1115   3.320   5.371  10.633  0.4948  0.6428 -0.3718
    9MOL0     C 1116   3.303   5.368  10.496  0.1796  0.6128  0.8975
    9MOL0     C 1117   3.282   5.506  10.428 -0.2540 -0.2075  0.2783
    9MOL0     C 1118   3.389   5.607  10.462 -0.1285 -0.0140 -0.2881
    9MOL0     C 1119   3.543   5.568  10.434 -0.4940 -0.3105 -0.2528
    9MOL0     C 1120   3.633   5.652  10.515  0.1101 -0.2828 -0.3131
    9MOL0     C 1121   3.761   5.566  10.535 -0.9886  0.6048  0.1030
    9MOL0     C 1122   3.852   5.633  10.636  0.1392 -0.8693 -1.3861
    9MOL0     C 1123   3.910   5.773  10.593  0.0112  0.4244  0.4428
    9MOL0    Cl 1124   4.036   5.831  10.708  0.1066  0.0073 -0.3860
    9MOL0     C 1125   3.157   5.245  10.751 -1.0887  0.9919 -0.1621
    9MOL0     C 1126   3.041   5.233  10.828  0.6534  0.4959  0.4539
    9MOL0     O 1127   2.737   5.218  10.785  0.2830  0.1234  0.4299
    9MOL0     C 1128   2.619   5.414  11.068 -0.1820  0.8827  0.3311
    9MOL0     C 1129   2.502   5.438  11.133  0.4391 -0.0201 -0.3504
    9MOL0     N 1130   1.633   5.450  11.083  0.6724  0.3579  0.7968
    9MOL0     N 1131   1.513   5.485  11.107  0.5774 -0.2221 -0.1933
    9MOL0     C 1132   0.817   6.067  10.379  0.6183  0.4890  0.4227
    9MOL0     C 1133   0.783   6.064  10.246  0.0669 -0.1145 -0.5929
    9MOL0     C 1134   0.666   6.062   9.837 -0.1270 -0.0725  0.0795
    9MOL0     C 1135   0.719   5.946   9.770 -0.6285  0.3986 -0.4385
    9MOL0     C 1136   0.726   5.924   9.635 -0.8678 -0.8008 -0.0360
    9MOL0     C 1137   0.698   6.036   9.558  0.2418  0.2443 -0.7235
    9MOL0     O 1138   0.702   6.027   9.421  1.1090 -0.8621  0.0531
    9MOL0     C 1139   0.809   6.098   9.352 -0.3905 -0.0108 -0.1975
    9MOL0     C 1140   0.935   6.009   9.357 -0.4286  0.4591  0.4274
    9MOL0     C 1141   0.907   5.872   9.292  0.1204  0.0825 -0.0687
    9MOL0     C 1142   0.879   5.879   9.146 -0.0587  0.2108 -0.2225
    9MOL0     C 1143   0.987   5.945   9.066  0.4307  1.1762 -0.2119
    9MOL0     C 1144   1.089   5.969   9.011 -0.4617 -0.4109 -0.2394
    9MOL0     C 1145   0.668   6.163   9.618  0.2824 -0.5187 -0.3376
    9MOL0     C 1146   0.645   6.174   9.753  0.9241 -0.4428 -0.6751
    9MOL0     C 1147   0.561   6.289   9.795 -0.1843 -1.0432 -0.1391
    9MOL0     H 1148   0.557   5.810  10.244 -2.9713  3.4597 -1.4807
    9MOL0     H 1149   0.596   5.821  10.472  1.2171  0.1978  0.7725
    9MOL0     H 1150   0.597   5.941  10.709  0.6798 -0.4709  2.1408
    9MOL0     H 1151   0.708   5.811  10.659 -0.6995 -0.1808 -0.7527
    9MOL0     H 1152   0.694   5.868  10.916 -1.3715  0.2586  0.1971
    9MOL0     H 1153   0.754   6.022  10.875 -3.1419 -0.0881 -0.9939
    9MOL0     H 1154   0.965   5.937  10.784 -2.8377  2.5152  0.7021
    9MOL0     H 1155   0.893   5.775  10.783 -1.5157 -0.8841  1.3027
    9MOL0     H 1156   0.990   5.946  11.027  1.1370 -0.3365  0.0154
    9MOL0     H 1157   0.885   5.799  11.036 -1.1319  1.2030  0.3238
    9MOL0     H 1158   1.075   5.718  11.055 -1.4268  3.1396  1.6843
    9MOL0     H 1159   1.070   5.689  10.885  2.6575  0.3192 -0.6726
    9MOL0     H 1160   1.213   5.912  10.848 -1.0519 -0.1698 -0.6629
    9MOL0     H 1161   1.229   5.912  11.025 -0.1273  0.1347 -0.2066
    9MOL0     H 1162   1.405   5.813  10.891  0.5416  0.3866  2.1673
    9MOL0     H 1163   1.319   5.665  10.847  3.1505 -2.3327  1.4040
    9MOL0     H 1164   1.355   5.759  11.136 -0.4302 -0.0223  0.1989
    9MOL0     H 1165   1.292   5.601  11.079  1.4964 -1.3220  0.4828
    9MOL0     H 1166   1.635   5.745  10.944 -2.9116  1.5537  1.5623
    9MOL0     H 1167   1.871   5.569  10.883  0.2497  0.8231  0.2300
    9MOL0     H 1168   1.889   5.651  11.027  2.1501 -1.5399  1.8799
    9MOL0     H 1169   1.886   5.379  11.134  1.6385  0.9794  1.1968
    9MOL0     H 1170   1.907   5.345  10.963  1.5092 -1.2871  0.3134
    9MOL0     H 1171   2.063   5.561  11.132  0.5832 -0.9872  2.1448
    9MOL0     H 1172   2.122   5.487  10.983 -0.2088  1.2824 -0.0498
    9MOL0     H 1173   2.143   5.272  11.111  0.2116  1.4430 -0.7273
    9MOL0     H 1174   2.109   5.343  11.266  0.5262 -3.1370  0.6630
    9MOL0     H 1175   2.290   5.237  10.952 -1.0830 -0.8338  1.5591
    9MOL0     H 1176   2.484   5.187  10.846 -2.3030 -1.5871  1.1650
    9MOL0     H 1177   2.944   5.562  10.827 -2.6717 -0.9859  1.5896
    9MOL0     H 1178   3.165   5.574  10.672  0.4875  0.0975 -1.0623
    9MOL0     H 1179   3.387   5.320  10.445  0.2280 -1.6948  2.9880
    9MOL0     H 1180   3.215   5.307  10.478  0.8956  0.1438 -1.3908
    9MOL0     H 1181   3.279   5.492  10.319  0.8707 -0.1394  0.2261
    9MOL0     H 1182   3.186   5.551  10.456 -0.8429  0.9281 -3.0073
    9MOL0     H 1183   3.364   5.696  10.403  2.6339  0.6011 -0.6767
    9MOL0     H 1184   3.385   5.640  10.566 -0.0775  0.4767 -0.4385
    9MOL0     H 1185   3.555   5.588  10.327 -0.0161  0.7239 -0.0173
    9MOL0     H 1186   3.559   5.460  10.446 -0.0350 -0.2419 -0.2356
    9MOL0     H 1187   3.595   5.680  10.614  2.2835 -0.4031  0.6082
    9MOL0     H 1188   3.663   5.742  10.461 -0.4287  2.1128  3.0370
    9MOL0     H 1189   3.736   5.464  10.565 -2.1712  0.5714 -0.9148
    9MOL0     H 1190   3.810   5.561  10.437 -0.8619  2.2590  0.0476
    9MOL0     H 1191   3.930   5.558  10.646  0.1783 -0.8215 -1.3355
    9MOL0     H 1192   3.808   5.640  10.736  0.2713 -1.0343 -1.3164
    9MOL0     H 1193   3.949   5.781  10.491  0.5274  2.8444  0.7582
    9MOL0     H 1194   3.828   5.845  10.597 -1.3972 -1.0327 -0.8152
    9MOL0     H 1195   3.229   5.164  10.742 -1.0968  0.7152  1.8541
    9MOL0     H 1196   2.999   5.145  10.875 -0.1632  1.2268  1.1231
    9MOL0     H 1197   2.704   5.458  11.119 -1.2885  2.5058  0.8646
    9MOL0     H 1198   2.492   5.510  11.214 -1.9271 -0.8070  0.1270
    9MOL0     H 1199   0.883   6.146  10.413 -0.2088  1.3893 -0.0506
    9MOL0     H 1200   0.816   6.143  10.179 -2.0635 -0.5409 -2.2535
    9MOL0     H 1201   0.747   5.858   9.827 -0.5872 -0.3535 -1.5890
    9MOL0     H 1202   0.755   5.833   9.584 -0.1914 -1.0453  0.7607
    9MOL0     H 1203   0.823   6.204   9.373  0.4628  0.0860 -1.1880
    9MOL0     H 1204   0.773   6.100   9.248  0.7616  1.1621 -0.6049
    9MOL0     H 1205   0.969   5.983   9.457 -1.9310 -0.7902  0.6582
    9MOL0     H 1206   1.014   6.064   9.305 -0.1865 -2.4502 -2.5994
    9MOL0     H 1207   0.827   5.823   9.347  1.3780  0.3376  2.1000
    9MOL0     H 1208   0.993   5.806   9.306 -1.8778 -2.8797 -0.8787
    9MOL0     H 1209   0.862   5.776   9.114  2.2744  0.0566 -1.1232
    9MOL0     H 1210   0.793   5.946   9.136  1.4040  3.0340  3.5851
    9MOL0     H 1211   1.177   5.971   8.950  0.6451 -4.4732  0.8354
    9MOL0     H 1212   0.634   6.237   9.546 -0.7755 -0.6237  0.0296
    9MOL0     H 1213   0.458   6.260   9.818 -1.4749  3.1215  0.2804
    9MOL0     H 1214   0.601   6.351   9.876 -1.7469  0.7971 -0.6688
    9MOL0     H 1215   0.555   6.361   9.712 -1.3528  0.9886  1.6040
   10MOL0     O 1216  10.029  10.928   4.136 -0.0971  1.0231  0.2408
   10MOL0     C 1217  10.021  10.964   4.253  0.3021 -0.1525 -0.0658
   10MOL0     O 1218  10.108  10.945   4.348 -0.0517  0.6504  0.5801
   10MOL0     C 1219  10.222  10.870   4.320 -0.0589  0.1089  0.2094
   10MOL0     C 1220  10.341  10.893   4.392  0.0887  0.1636 -0.1831
   10MOL0     C 1221  10.439  10.802   4.380  0.2056  0.3597 -0.4777
   10MOL0     C 1222  10.433  10.690   4.301  0.2161 -0.1639 -0.7530
   10MOL0     O 1223  10.542  10.612   4.292 -0.1181  1.0753  0.3856
   10MOL0     C 1224  10.544  10.469   4.306  0.7745 -0.2911 -0.4419
   10MOL0     C 1225  10.559  10.428   4.452  0.0990  0.0534 -0.7477
   10MOL0     C 1226  10.686  10.479   4.530 -0.0327  0.0442 -0.5069
   10MOL0     C 1227  10.814  10.410   4.496  0.4345 -0.5200  0.5428
   10MOL0     C 1228  10.931  10.485   4.567 -0.1563  0.1253  0.4074
   10MOL0     C 1229  11.063  10.436   4.508 -0.2028 -0.0099 -0.0413
   10MOL0     C 1230  11.187  10.491   4.582 -0.3535  0.1681 -0.3565
   10MOL0     C 1231  11.310  10.480   4.494 -0.3994 -0.1545  0.3471
   10MOL0     N 1232  11.411  10.573   4.544 -0.0062 -0.4111 -0.2021
   10MOL0     C 1233  11.487  10.563   4.651  0.6348 -0.2923 -0.5794
   10MOL0     C 1234  11.533  10.689   4.668 -0.8760 -0.0697 -0.0697
   10MOL0     C 1235  11.622  10.731   4.781  0.4688  0.4950 -0.3020
   10MOL0     C 1236  11.738  10.821   4.744 -0.6161 -0.3607  0.3649
   10MOL0     C 1237  11.835  10.828   4.860  0.1384  1.3578 -0.6494
   10MOL0     C 1238  11.927  10.947   4.843 -1.4433  0.3219 -0.1080
   10MOL0     O 1239  12.047  10.941   4.924 -0.0518 -0.5299 -0.3190
   10MOL0     C 1240  12.140  11.040   4.909 -0.7189 -0.5231 -0.6084
   10MOL0     C 1241  12.122  11.158   4.834 -0.3302  0.5312 -0.7604
   10MOL0     C 1242  12.205  11.269   4.843 -1.0217 -1.0217 -0.3083
   10MOL0     C 1243  12.303  11.275   4.946  0.5815 -0.0804  0.3738
   10MOL0     C 1244  12.376  11.400   4.986 -0.4770 -0.2386 -0.7500
   10MOL0     O 1245  12.410  11.403   5.115 -0.0278  0.2762 -0.5363
   10MOL0     C 1246  12.520  11.463   5.157 -0.4286  0.0555  0.0230
   10MOL0     C 1247  12.511  11.553   5.263  0.5192 -0.0161 -0.2808
   10MOL0     C 1248  12.633  11.609   5.303  0.1702 -1.0070  0.7604
   10MOL0     C 1249  12.755  11.588   5.233 -0.3586 -0.4025  0.3508
   10MOL0     O 1250  12.865  11.652   5.300  0.2273  0.1360 -0.2931
   10MOL0     C 1251  12.993  11.654   5.232 -0.5796  0.0585  0.6692
   10MOL0     C 1252  13.066  11.784   5.265  0.6494 -0.2701  0.7958
   10MOL0     C 1253  13.207  11.786   5.216  0.0781 -0.1891 -0.1479
   10MOL0     C 1254  13.281  11.917   5.247  0.0281 -0.3808  0.1175
   10MOL0     C 1255  13.433  11.915   5.218 -0.9577 -0.3484 -0.3417
   10MOL0     C 1256  13.489  12.059   5.211 -0.1293 -0.2487  0.7987
   10MOL0     C 1257  13.528  12.121   5.347  0.2643  0.7934  0.4511
   10MOL0     C 1258  13.629  12.042   5.424 -1.0325  0.7122  0.0406
   10MOL0    Cl 1259  13.688  12.145   5.562  0.7021  0.0181 -0.2829
   10MOL0     C 1260  12.768  11.502   5.129  0.9593 -0.2621  0.2565
   10MOL0     C 1261  12.645  11.435   5.093 -0.4042 -0.6287  0.0441
   10MOL0     O 1262  12.415  11.474   4.896  0.6053  0.0289 -0.2866
   10MOL0     C 1263  12.315  11.158   5.030 -0.2360  0.1400  1.0201
   10MOL0     C 1264  12.228  11.045   5.017  0.0452 -0.1930  0.2509
   10MOL0     N 1265  11.504  10.767   4.559  0.7788 -0.5357  0.0925
   10MOL0     N 1266  11.428  10.696   4.480  0.1383 -0.2223  0.0259
   10MOL0     C 1267  10.317  10.668   4.232  0.9226  0.0414 -0.1611
   10MOL0     C 1268  10.213  10.754   4.242 -0.1725 -0.1849 -0.2495
   10MOL0     C 1269   9.900  11.032   4.288  0.6395 -0.0200 -0.7698
   10MOL0     C 1270   9.824  10.973   4.390  0.2288  0.0944 -0.1034
   10MOL0     C 1271   9.706  11.031   4.432  0.5470  1.7451 -1.0238
   10MOL0     C 1272   9.664  11.152   4.378  0.9867 -0.2800 -0.0715
   10MOL0     O 1273   9.546  11.206   4.418  0.4374  0.2225 -0.4909
   10MOL0     C 1274   9.504  11.332   4.377 -0.1070 -0.5510  0.1387
   10MOL0     C 1275   9.365  11.373   4.434  0.2246 -0.6044  0.5384
   10MOL0     C 1276   9.258  11.265   4.382  0.2586  0.5208  0.5237
   10MOL0     C 1277   9.113  11.289   4.435  0.6373  0.2096  0.2915
   10MOL0     C 1278   9.040  11.166   4.407  0.1426 -0.1554 -0.1467
   10MOL0     C 1279   8.983  11.073   4.366  0.8474  0.7175  0.2482
   10MOL0     C 1280   9.740  11.214   4.273  0.8679 -0.5441 -0.5580
   10MOL0     C 1281   9.855  11.150   4.239 -0.3399 -0.9780  0.8598
   10MOL0     C 1282   9.926  11.226   4.134 -0.1803  0.2833  0.3363
   10MOL0     H 1283  10.340  10.979   4.459 -1.8264 -0.5558  0.7839
   10MOL0     H 1284  10.520  10.820   4.450 -0.8852 -2.9149  1.8857
   10MOL0     H 1285  10.455  10.427   4.259 -1.9283  0.4804  3.5591
   10MOL0     H 1286  10.630  10.428   4.251  1.7922  0.2576  0.6909
   10MOL0     H 1287  10.549  10.319   4.456 -2.8822  0.2912  0.3738
   10MOL0     H 1288  10.482  10.465   4.520  0.6590  0.1757 -0.1609
   10MOL0     H 1289  10.674  10.463   4.638  2.2071  0.4272 -0.1518
   10MOL0     H 1290  10.696  10.585   4.507 -0.2105  0.0375 -0.6174
   10MOL0     H 1291  10.809  10.306   4.528  1.2189 -0.7540 -0.0328
   10MOL0     H 1292  10.835  10.412   4.388 -3.9316 -3.2081 -0.6071
   10MOL0     H 1293  10.925  10.594   4.564 -1.7247  0.1115  1.8655
   10MOL0     H 1294  10.935  10.464   4.674  0.7913  4.8590  1.5564
   10MOL0     H 1295  11.066  10.327   4.514  0.4765 -0.1794 -2.5669
   10MOL0     H 1296  11.073  10.453   4.401  2.2168  0.1083  0.1547
   10MOL0     H 1297  11.199  10.448   4.682  1.9099  0.1069 -0.6087
   10MOL0     H 1298  11.163  10.596   4.599 -1.3393  0.6106 -3.8024
   10MOL0     H 1299  11.342  10.376   4.494 -1.0362 -0.3701 -1.1190
   10MOL0     H 1300  11.268  10.512   4.398 -2.2487 -0.8971  0.8701
   10MOL0     H 1301  11.494  10.476   4.716  1.5589  0.8805  0.9587
   10MOL0     H 1302  11.555  10.792   4.843 -2.0064 -0.2839 -2.0480
   10MOL0     H 1303  11.650  10.638   4.831 -0.7143  1.6168  2.7103
   10MOL0     H 1304  11.789  10.797   4.650  1.5510  2.2905  0.7574
   10MOL0     H 1305  11.699  10.919   4.716  1.2769 -0.0441 -1.3639
   10MOL0     H 1306  11.899  10.739   4.856  0.1753  1.1135  2.4053
   10MOL0     H 1307  11.789  10.835   4.959  0.9753 -1.8760  0.0905
   10MOL0     H 1308  11.873  11.036   4.878 -0.2089  1.1745 -0.2992
   10MOL0     H 1309  11.967  10.964   4.742  0.2653 -2.2355  0.0467
   10MOL0     H 1310  12.038  11.155   4.766 -3.3920  1.5403  2.6855
   10MOL0     H 1311  12.182  11.359   4.787  0.9563  2.1982  3.5008
   10MOL0     H 1312  12.417  11.565   5.316 -0.6385  0.9089 -2.4070
   10MOL0     H 1313  12.641  11.686   5.379  1.6197  3.1743 -3.1682
   10MOL0     H 1314  13.055  11.567   5.259  2.5658  1.7471 -0.5677
   10MOL0     H 1315  12.982  11.654   5.124 -0.3174  0.8068  0.6353
   10MOL0     H 1316  13.022  11.867   5.210  3.0690 -1.3123 -3.1447
   10MOL0     H 1317  13.070  11.796   5.374 -1.1651  0.4802  0.8127
   10MOL0     H 1318  13.262  11.707   5.270  2.7024  0.9532 -0.9654
   10MOL0     H 1319  13.210  11.753   5.112 -1.4631  1.9126 -0.9217
   10MOL0     H 1320  13.270  11.942   5.353  0.1448 -1.1249  0.3068
   10MOL0     H 1321  13.242  11.991   5.177 -0.1646 -2.3706 -1.9774
   10MOL0     H 1322  13.448  11.872   5.118 -3.5582  1.1761 -1.5011
   10MOL0     H 1323  13.487  11.852   5.289  0.3470 -0.6548 -1.5558
   10MOL0     H 1324  13.579  12.062   5.150  0.9398 -0.2689  2.3183
   10MOL0     H 1325  13.416  12.128   5.168  0.5697  0.7256  1.1417
   10MOL0     H 1326  13.438  12.136   5.407  2.2454 -1.4685  4.3386
   10MOL0     H 1327  13.581  12.215   5.331 -0.5645  0.8773 -2.3231
   10MOL0     H 1328  13.594  11.946   5.463 -1.1776  1.7515  2.6521
   10MOL0     H 1329  13.715  12.025   5.359  0.6092 -0.6221  2.4393
   10MOL0     H 1330  12.857  11.480   5.070  1.1670  0.3230  0.3413
   10MOL0     H 1331  12.657  11.355   5.021  1.0921 -0.1663 -0.2583
   10MOL0     H 1332  12.396  11.152   5.101  1.8852  1.3460 -1.1407
   10MOL0     H 1333  12.233  10.960   5.084 -1.9567  2.2161  3.7761
   10MOL0     H 1334  10.305  10.576   4.176  0.5474  0.2073 -0.3566
   10MOL0     H 1335  10.122  10.728   4.189 -0.4811  0.5475 -0.0969
   10MOL0     H 1336   9.855  10.886   4.447 -0.6404 -0.1873 -0.0577
   10MOL0     H 1337   9.652  10.981   4.512  4.1178  0.6742  0.9567
   10MOL0     H 1338   9.491  11.335   4.268 -1.3533 -0.1074  0.2769
   10MOL0     H 1339   9.583  11.401   4.408  0.6449  0.0536 -2.8216
   10MOL0     H 1340   9.331  11.471   4.399  0.8432 -0.4056  0.4800
   10MOL0     H 1341   9.352  11.375   4.543  0.4033  0.1645  0.5519
   10MOL0     H 1342   9.289  11.167   4.419 -0.3995  0.4226  0.8256
   10MOL0     H 1343   9.255  11.259   4.273 -0.1063  1.0019  0.5085
   10MOL0     H 1344   9.115  11.302   4.544 -1.5573 -2.2868  0.7281
   10MOL0     H 1345   9.078  11.377   4.380  3.4676  2.4832  1.8579
   10MOL0     H 1346   8.924  10.988   4.339  0.2634  0.7009  1.5098
   10MOL0     H 1347   9.704  11.303   4.222  1.9024 -0.1774 -0.6699
   10MOL0     H 1348  10.034  11.216   4.143  0.1626  1.4518 -1.8578
   10MOL0     H 1349   9.887  11.191   4.038  0.6534 -0.7940  0.3776
   10MOL0     H 1350   9.904  11.333   4.144  0.8346  0.6199 -0.8137
   11MOL0     O 1351  11.172   9.818   3.909 -0.0061  0.4331  0.0312
   11MOL0     C 1352  11.107   9.827   3.802  0.2671 -0.6974  0.1873
   11MOL0     O 1353  11.162   9.792   3.676  0.7642 -0.5480  0.2115
   11MOL0     C 1354  11.300   9.772   3.681  0.2129  0.7676  0.1816
   11MOL0     C 1355  11.346   9.643   3.706 -0.6854  0.2216 -0.8346
   11MOL0     C 1356  11.485   9.619   3.697 -0.7518  0.1394 -0.9434
   11MOL0     C 1357  11.581   9.719   3.662  0.4741  0.2046  0.0409
   11MOL0     O 1358  11.714   9.703   3.638 -0.0225 -0.2140 -0.4766
   11MOL0     C 1359  11.783   9.594   3.690 -0.5053  0.5968  0.5188
   11MOL0     C 1360  11.926   9.609   3.636 -1.4809 -0.7856  0.7613
   11MOL0     C 1361  12.006   9.722   3.702 -0.8983  0.2444  0.4651
   11MOL0     C 1362  12.155   9.714   3.657  0.3337 -0.0588  0.1345
   11MOL0     C 1363  12.162   9.729   3.503 -0.4030 -0.3858 -0.1376
   11MOL0     C 1364  12.310   9.717   3.462 -0.3035 -0.1600 -0.1228
   11MOL0     C 1365  12.402   9.828   3.518 -0.3943  0.6044 -0.7484
   11MOL0     C 1366  12.543   9.812   3.450  0.3031  0.3854  0.1181
   11MOL0     N 1367  12.627   9.686   3.481  0.3269 -0.0440  0.3609
   11MOL0     C 1368  12.660   9.609   3.376 -0.6612 -0.2894  0.0537
   11MOL0     C 1369  12.705   9.500   3.443 -0.4144  0.1610  0.0171
   11MOL0     C 1370  12.768   9.381   3.382  0.4426  0.5867 -0.2798
   11MOL0     C 1371  12.921   9.391   3.359  0.5597 -0.3308  0.2961
   11MOL0     C 1372  12.951   9.496   3.250 -0.8499  0.5598 -0.1662
   11MOL0     C 1373  13.094   9.514   3.212  0.5495  0.5682  0.3818
   11MOL0     O 1374  13.188   9.546   3.320  0.2670 -0.0569 -0.3484
   11MOL0     C 1375  13.320   9.545   3.310  0.0580  1.0412  0.7534
   11MOL0     C 1376  13.380   9.446   3.231  0.5623 -0.1288  1.3015
   11MOL0     C 1377  13.523   9.434   3.227 -0.0690  0.3385 -0.3018
   11MOL0     C 1378  13.607   9.515   3.303 -0.0750  0.1284  0.4433
   11MOL0     C 1379  13.753   9.508   3.285 -0.2405 -0.8873 -0.3123
   11MOL0     O 1380  13.792   9.426   3.177 -0.1280  0.1300 -0.2810
   11MOL0     C 1381  13.924   9.398   3.157  0.0531  0.1127  0.5894
   11MOL0     C 1382  14.010   9.351   3.263  0.0968 -0.4410 -0.4843
   11MOL0     C 1383  14.148   9.336   3.237  0.5392  0.5096 -0.4165
   11MOL0     C 1384  14.193   9.350   3.101 -0.1232 -0.2913 -0.1819
   11MOL0     O 1385  14.330   9.336   3.083  0.1246 -0.3195 -0.1187
   11MOL0     C 1386  14.403   9.457   3.123 -0.0720 -0.7455  0.4907
   11MOL0     C 1387  14.540   9.466   3.061  0.3242  0.7893 -0.4071
   11MOL0     C 1388  14.632   9.361   3.135 -0.1110  0.3224  1.2232
   11MOL0     C 1389  14.776   9.384   3.108  0.2110  0.2288 -0.5682
   11MOL0     C 1390  14.875   9.270   3.140 -0.4201 -0.2840  0.7893
   11MOL0     C 1391  15.009   9.297   3.072 -0.5748  0.1930 -0.3248
   11MOL0     C 1392  15.116   9.186   3.105 -0.3422 -0.4701 -0.0776
   11MOL0     C 1393  15.255   9.227   3.055 -0.7577  0.8632  0.1072
   11MOL0    Cl 1394  15.266   9.250   2.882 -0.5187  0.1682 -0.0654
   11MOL0     C 1395  14.103   9.367   2.999  0.3692  0.1028  0.1005
   11MOL0     C 1396  13.968   9.390   3.030  0.9573  0.5540  0.1024
   11MOL0     O 1397  13.832   9.572   3.361 -0.1561 -0.3774 -0.8513
   11MOL0     C 1398  13.544   9.611   3.383 -0.0781 -0.1394  0.3052
   11MOL0     C 1399  13.403   9.625   3.391  0.4555 -0.9433  0.5129
   11MOL0     N 1400  12.698   9.520   3.580 -0.4779 -0.8408  0.4257
   11MOL0     N 1401  12.658   9.641   3.597  0.4921 -0.4717  1.1498
   11MOL0     C 1402  11.527   9.848   3.638 -0.8609 -1.2107 -1.4051
   11MOL0     C 1403  11.387   9.872   3.643 -0.4540 -0.3420 -0.5116
   11MOL0     C 1404  10.960   9.866   3.809  0.3660 -0.0913 -1.8111
   11MOL0     C 1405  10.897   9.909   3.692 -0.1410  0.0698 -0.5724
   11MOL0     C 1406  10.765   9.948   3.693  0.3624  0.3895  0.0234
   11MOL0     C 1407  10.693   9.944   3.817 -0.0814 -0.5299  0.3211
   11MOL0     O 1408  10.565   9.982   3.846  0.6862 -0.0168  0.1003
   11MOL0     C 1409  10.493  10.051   3.739 -0.7691  0.2908 -0.6846
   11MOL0     C 1410  10.354  10.079   3.789  0.0295 -0.5678 -0.3242
   11MOL0     C 1411  10.284   9.949   3.804  0.5619  0.1328  0.2513
   11MOL0     C 1412  10.134   9.959   3.836  0.4639 -0.1409 -0.7174
   11MOL0     C 1413  10.088   9.819   3.834 -0.0644  0.0850 -0.2420
   11MOL0     C 1414  10.043   9.705   3.823  0.0884  0.0199  0.7743
   11MOL0     C 1415  10.764   9.909   3.931 -0.3604 -0.2190  0.5220
   11MOL0     C 1416  10.896   9.872   3.935 -0.6119 -0.0539 -0.5899
   11MOL0     C 1417  10.945   9.852   4.073  0.0664  0.0359 -0.7653
   11MOL0     H 1418  11.274   9.563   3.721  0.0375 -0.1569  0.8906
   11MOL0     H 1419  11.511   9.515   3.715 -1.7778  0.3763  2.5019
   11MOL0     H 1420  11.780   9.588   3.799  0.1879 -0.9429  0.4918
   11MOL0     H 1421  11.734   9.505   3.649 -1.4243  0.4914  1.8157
   11MOL0     H 1422  11.921   9.619   3.527  0.8507 -0.2848  0.6509
   11MOL0     H 1423  11.997   9.526   3.647  1.6623  1.7390  1.0714
   11MOL0     H 1424  11.996   9.714   3.810 -2.0175  5.5919  1.0567
   11MOL0     H 1425  11.956   9.816   3.678 -2.6199 -0.4885  1.0149
   11MOL0     H 1426  12.211   9.785   3.719  1.6532 -0.7749 -0.2185
   11MOL0     H 1427  12.195   9.615   3.680 -1.4688 -0.6988  0.7044
   11MOL0     H 1428  12.106   9.655   3.446 -0.0977 -0.7432  0.0279
   11MOL0     H 1429  12.132   9.830   3.472 -1.4110  0.5984  3.5207
   11MOL0     H 1430  12.342   9.623   3.508  0.6562  0.4546  0.4958
   11MOL0     H 1431  12.315   9.716   3.352 -1.7758  1.3390 -0.2562
   11MOL0     H 1432  12.422   9.822   3.625  6.2476 -1.0310 -1.6072
   11MOL0     H 1433  12.365   9.929   3.498 -1.5464  0.6255  1.2581
   11MOL0     H 1434  12.528   9.810   3.342  0.5640 -0.3784  0.0889
   11MOL0     H 1435  12.605   9.898   3.476  1.0837  0.7818 -2.7335
   11MOL0     H 1436  12.641   9.625   3.270  0.2609  1.0362  0.0748
   11MOL0     H 1437  12.752   9.305   3.459  0.9095  2.5589  1.8796
   11MOL0     H 1438  12.720   9.348   3.290 -2.1535  1.2305  0.7506
   11MOL0     H 1439  12.960   9.430   3.453 -1.1671  1.2838  0.4026
   11MOL0     H 1440  12.957   9.293   3.327 -1.2411  0.0982 -3.6347
   11MOL0     H 1441  12.911   9.596   3.271  0.0638  1.2176 -1.4046
   11MOL0     H 1442  12.906   9.469   3.154  0.3316  0.1132 -0.6153
   11MOL0     H 1443  13.108   9.598   3.143 -0.5330 -0.0972 -0.7001
   11MOL0     H 1444  13.133   9.433   3.151  2.0489  0.7430  1.0806
   11MOL0     H 1445  13.329   9.370   3.173  1.1942 -0.3967  1.0938
   11MOL0     H 1446  13.562   9.354   3.165 -0.6501 -0.6395  0.5718
   11MOL0     H 1447  13.966   9.331   3.360  0.6633 -2.7161 -0.6285
   11MOL0     H 1448  14.210   9.315   3.323 -1.5316  0.9287  1.2608
   11MOL0     H 1449  14.349   9.541   3.077  0.9890 -1.3237 -1.9941
   11MOL0     H 1450  14.402   9.459   3.232  0.4466  1.5327  0.5124
   11MOL0     H 1451  14.533   9.433   2.957  0.2226  1.4469 -0.6129
   11MOL0     H 1452  14.585   9.565   3.056  4.3687 -0.8654 -0.5099
   11MOL0     H 1453  14.606   9.353   3.241  0.5322  1.1867  1.4551
   11MOL0     H 1454  14.611   9.264   3.090 -0.6872  0.7727  0.5032
   11MOL0     H 1455  14.811   9.463   3.174  4.0516 -1.7496  0.0525
   11MOL0     H 1456  14.786   9.409   3.002  0.5017 -0.1283 -0.6271
   11MOL0     H 1457  14.837   9.177   3.097 -1.0980  0.4018 -0.1649
   11MOL0     H 1458  14.888   9.257   3.247  1.3907  0.3140  0.6889
   11MOL0     H 1459  14.990   9.300   2.965 -2.7442  0.0533  0.0185
   11MOL0     H 1460  15.045   9.396   3.103 -0.5745  0.4833 -1.2371
   11MOL0     H 1461  15.085   9.092   3.059 -1.1813 -0.8403  1.2230
   11MOL0     H 1462  15.107   9.168   3.212  2.3909 -0.4623  0.2299
   11MOL0     H 1463  15.300   9.316   3.101  1.3060 -0.3667  0.6433
   11MOL0     H 1464  15.324   9.144   3.075 -2.0247 -0.2643 -0.1205
   11MOL0     H 1465  14.141   9.360   2.897  0.0363 -0.1947 -0.0046
   11MOL0     H 1466  13.902   9.397   2.945 -0.4075  0.4172  1.1301
   11MOL0     H 1467  13.608   9.677   3.441  0.0648 -1.1628  1.3381
   11MOL0     H 1468  13.360   9.701   3.455  2.6824  0.4644  0.4577
   11MOL0     H 1469  11.596   9.932   3.634 -1.6249 -0.2759  1.8259
   11MOL0     H 1470  11.357   9.973   3.616  0.2269  0.8305  2.7197
   11MOL0     H 1471  10.954   9.908   3.600  2.6315 -1.6906  0.9915
   11MOL0     H 1472  10.723   9.985   3.600 -0.4975 -0.3045  0.1075
   11MOL0     H 1473  10.489   9.984   3.652 -3.2102 -1.9012  0.9418
   11MOL0     H 1474  10.545  10.146   3.726  0.7534 -0.3651  0.3387
   11MOL0     H 1475  10.315  10.150   3.716 -3.5904 -1.4910  0.5051
   11MOL0     H 1476  10.367  10.140   3.879 -1.2302 -0.5587 -0.1335
   11MOL0     H 1477  10.339   9.883   3.871  0.0703 -2.6570 -1.8797
   11MOL0     H 1478  10.281   9.911   3.701 -1.9419  0.5886  0.0807
   11MOL0     H 1479  10.119   9.995   3.938 -1.0290  0.6189 -1.1906
   11MOL0     H 1480  10.075  10.016   3.765 -2.0807 -1.0617  0.5414
   11MOL0     H 1481  10.007   9.604   3.816 -1.8444  0.1423  5.5465
   11MOL0     H 1482  10.697   9.916   4.016  0.9831  0.8576  1.5273
   11MOL0     H 1483  11.026   9.919   4.103  0.3711 -1.2565  1.5588
   11MOL0     H 1484  10.866   9.842   4.148 -1.1001  1.7099 -1.7255
   11MOL0     H 1485  10.995   9.754   4.073  2.9978  1.4333 -0.0877
   12MOL0     O 1486   5.763   7.175   4.350  0.3884 -0.8813 -0.3272
   12MOL0     C 1487   5.753   7.194   4.226  0.8187 -0.5495  0.3293
   12MOL0     O 1488   5.853   7.214   4.142 -0.3781 -0.2981  0.0877
   12MOL0     C 1489   5.970   7.271   4.188  0.3036 -0.0835 -0.0590
   12MOL0     C 1490   5.971   7.357   4.296  0.0922 -0.7038 -0.1650
   12MOL0     C 1491   6.101   7.384   4.350  0.5373 -1.3233 -0.3273
   12MOL0     C 1492   6.217   7.354   4.284 -0.4293  0.2894  0.4602
   12MOL0     O 1493   6.341   7.412   4.297  0.0035  0.3487  0.5935
   12MOL0     C 1494   6.384   7.459   4.428  0.9930  0.5000 -0.3773
   12MOL0     C 1495   6.536   7.478   4.419  0.3769 -0.9329 -0.2947
   12MOL0     C 1496   6.571   7.579   4.315  0.2369 -0.0801 -0.1888
   12MOL0     C 1497   6.723   7.603   4.301 -0.0289  0.1306 -0.4856
   12MOL0     C 1498   6.763   7.719   4.209  0.1037  0.1221 -0.1834
   12MOL0     C 1499   6.907   7.766   4.236  0.6383 -0.3923  0.4225
   12MOL0     C 1500   6.960   7.868   4.131  1.0554  0.1637  0.1584
   12MOL0     C 1501   6.887   7.998   4.153  0.9751  0.7293  0.1895
   12MOL0     N 1502   6.966   8.111   4.117 -1.1710  0.3950 -0.5333
   12MOL0     C 1503   7.095   8.137   4.163 -0.9319 -0.0170  0.3960
   12MOL0     C 1504   7.144   8.234   4.079 -0.2646 -0.2894  0.4283
   12MOL0     C 1505   7.280   8.303   4.077  1.0980  0.7019 -0.3599
   12MOL0     C 1506   7.377   8.231   4.173 -0.0078  0.1189  0.2161
   12MOL0     C 1507   7.366   8.294   4.316 -0.2108  0.5053 -0.1206
   12MOL0     C 1508   7.454   8.215   4.418  0.9214 -0.6878 -0.6861
   12MOL0     O 1509   7.586   8.196   4.355  0.7418 -0.4402  0.4074
   12MOL0     C 1510   7.697   8.172   4.432 -0.1192  0.0388  0.1528
   12MOL0     C 1511   7.698   8.114   4.559  0.3784  0.4883 -0.0102
   12MOL0     C 1512   7.817   8.085   4.632 -0.3119  1.3098  0.1636
   12MOL0     C 1513   7.939   8.118   4.581  0.8607  0.0092 -0.2035
   12MOL0     C 1514   8.069   8.090   4.653 -0.2853  0.3957  0.1281
   12MOL0     O 1515   8.190   8.141   4.617 -0.6392  0.6052 -0.2063
   12MOL0     C 1516   8.306   8.132   4.688 -0.1849  0.2475 -0.3449
   12MOL0     C 1517   8.324   8.116   4.826  0.4771  0.8834  0.2760
   12MOL0     C 1518   8.454   8.112   4.883 -0.4346 -0.1094  0.1687
   12MOL0     C 1519   8.566   8.128   4.799 -0.3107  0.4757 -0.0266
   12MOL0     O 1520   8.695   8.149   4.842 -0.0600 -0.0875 -0.5899
   12MOL0     C 1521   8.696   8.260   4.933 -0.6028 -0.1695  0.3840
   12MOL0     C 1522   8.811   8.260   5.035 -0.1491  0.7619  0.1209
   12MOL0     C 1523   8.944   8.315   4.973  0.8801 -0.0697  0.3017
   12MOL0     C 1524   9.034   8.336   5.099  0.0967  0.3458  0.6183
   12MOL0     C 1525   9.174   8.402   5.071  1.0058 -0.9412 -0.1302
   12MOL0     C 1526   9.257   8.401   5.198  0.9642  0.4462  0.3927
   12MOL0     C 1527   9.395   8.468   5.167  0.1363  0.9802 -0.3195
   12MOL0     C 1528   9.487   8.484   5.283  0.0152  0.1789 -0.0154
   12MOL0    Cl 1529   9.538   8.324   5.347  0.0203 -0.2245  0.5849
   12MOL0     C 1530   8.547   8.122   4.664  0.2392 -0.4398 -1.1393
   12MOL0     C 1531   8.423   8.137   4.604  0.1849  1.1346 -0.7616
   12MOL0     O 1532   8.052   8.020   4.754 -0.2023  0.0169 -0.2614
   12MOL0     C 1533   7.950   8.178   4.447  0.0412  0.1348  0.5073
   12MOL0     C 1534   7.827   8.203   4.371 -0.5062  0.1159  0.5432
   12MOL0     N 1535   7.044   8.253   3.983  0.8616 -0.0362 -0.1997
   12MOL0     N 1536   6.940   8.191   4.011  0.0279  0.5080 -0.5282
   12MOL0     C 1537   6.212   7.269   4.172 -0.1612  0.5899 -0.4223
   12MOL0     C 1538   6.088   7.235   4.124  0.0716  0.3013  0.5634
   12MOL0     C 1539   5.609   7.201   4.165 -0.2876  0.6243  0.1334
   12MOL0     C 1540   5.498   7.180   4.248  0.0128 -0.4468  0.4794
   12MOL0     C 1541   5.362   7.163   4.200 -0.3955  0.0971  0.9571
   12MOL0     C 1542   5.336   7.185   4.066 -0.7281 -0.4238  0.3440
   12MOL0     O 1543   5.221   7.153   4.002  0.1309 -0.2692  0.0083
   12MOL0     C 1544   5.118   7.092   4.077  0.3593  0.4617 -0.6792
   12MOL0     C 1545   5.004   7.061   3.976 -0.2211 -0.4313 -0.6059
   12MOL0     C 1546   4.927   7.186   3.922 -0.4350 -0.3827 -0.6601
   12MOL0     C 1547   4.788   7.146   3.860  0.4142 -0.2599 -0.0546
   12MOL0     C 1548   4.718   7.272   3.803 -0.1911 -0.6245 -0.4488
   12MOL0     C 1549   4.675   7.386   3.767 -0.1419  0.1866 -0.7181
   12MOL0     C 1550   5.451   7.218   3.983 -0.0600 -0.3401  0.0157
   12MOL0     C 1551   5.585   7.218   4.024 -0.0010 -1.2742  0.2858
   12MOL0     C 1552   5.692   7.247   3.924  0.2650  0.4157 -0.3512
   12MOL0     H 1553   5.881   7.390   4.348  0.1877  1.0224 -1.0254
   12MOL0     H 1554   6.096   7.453   4.434 -0.2678 -0.1807 -1.2864
   12MOL0     H 1555   6.336   7.554   4.450  0.6022  0.0696  0.6759
   12MOL0     H 1556   6.362   7.388   4.509  1.0179  0.3455 -0.5043
   12MOL0     H 1557   6.585   7.383   4.395  2.0582 -0.8902  2.4786
   12MOL0     H 1558   6.573   7.505   4.518 -2.4961  1.3009  0.2998
   12MOL0     H 1559   6.521   7.674   4.334 -1.5519 -0.6640 -1.7447
   12MOL0     H 1560   6.536   7.556   4.214 -0.5037  2.3779 -0.5524
   12MOL0     H 1561   6.758   7.627   4.402  2.1143 -2.1681 -0.5858
   12MOL0     H 1562   6.770   7.508   4.273 -1.9323 -0.3242 -2.3916
   12MOL0     H 1563   6.759   7.689   4.104  0.9810 -0.0664 -0.1690
   12MOL0     H 1564   6.701   7.809   4.217  1.9150  1.3150  1.1189
   12MOL0     H 1565   6.904   7.818   4.333  1.1852  0.9356 -0.2572
   12MOL0     H 1566   6.970   7.676   4.231 -0.6855 -1.3105 -0.4564
   12MOL0     H 1567   6.928   7.831   4.033 -0.4408 -1.1651  1.1100
   12MOL0     H 1568   7.069   7.862   4.143  1.1755 -2.0018 -1.4586
   12MOL0     H 1569   6.796   8.004   4.092 -2.4645 -0.6852  4.5959
   12MOL0     H 1570   6.856   8.011   4.257 -0.7944  0.6997 -0.2994
   12MOL0     H 1571   7.144   8.090   4.247  1.8408 -1.1514 -1.6710
   12MOL0     H 1572   7.334   8.307   3.982  2.2989  4.3380  0.3178
   12MOL0     H 1573   7.264   8.409   4.097 -1.5280  0.1401  0.8732
   12MOL0     H 1574   7.363   8.123   4.173  3.4955 -0.4348 -0.3740
   12MOL0     H 1575   7.480   8.242   4.140 -0.1582  0.8210 -0.0454
   12MOL0     H 1576   7.263   8.290   4.351 -0.1446 -1.6162 -0.0555
   12MOL0     H 1577   7.397   8.398   4.301 -1.1613  1.1225  1.9016
   12MOL0     H 1578   7.395   8.124   4.432 -2.3361  1.1491 -1.3449
   12MOL0     H 1579   7.458   8.267   4.514 -2.7771 -1.4686  0.0435
   12MOL0     H 1580   7.610   8.070   4.605  0.7876 -1.2121 -0.7663
   12MOL0     H 1581   7.809   8.032   4.727  0.2756 -0.7289 -0.8652
   12MOL0     H 1582   8.245   8.122   4.900 -0.8045  1.0391 -1.0868
   12MOL0     H 1583   8.475   8.114   4.990 -0.7899  1.1141  0.2358
   12MOL0     H 1584   8.716   8.350   4.873  0.7774  0.8904  2.3392
   12MOL0     H 1585   8.603   8.284   4.986  1.5230  1.9061  3.4815
   12MOL0     H 1586   8.784   8.318   5.124  0.2770  0.8058  0.2213
   12MOL0     H 1587   8.830   8.161   5.077 -2.5967 -0.3123 -1.0989
   12MOL0     H 1588   8.989   8.249   4.898  1.4485 -1.1134  1.5460
   12MOL0     H 1589   8.918   8.411   4.925 -0.6699 -0.7851 -0.3638
   12MOL0     H 1590   9.049   8.241   5.150 -2.2954  0.7592  2.2497
   12MOL0     H 1591   8.988   8.392   5.182  2.9374  2.9501  0.6018
   12MOL0     H 1592   9.166   8.507   5.040 -0.0563 -0.9487  0.1039
   12MOL0     H 1593   9.222   8.339   4.995  2.9794 -0.7877  0.9146
   12MOL0     H 1594   9.215   8.442   5.291  0.4161 -1.7437  1.1577
   12MOL0     H 1595   9.266   8.294   5.217 -4.3664 -0.3901 -0.3989
   12MOL0     H 1596   9.380   8.566   5.121 -2.2765  0.4815 -0.7561
   12MOL0     H 1597   9.444   8.402   5.094 -1.3512 -0.0937 -0.4171
   12MOL0     H 1598   9.572   8.541   5.246  0.8265 -0.3258  1.0202
   12MOL0     H 1599   9.440   8.541   5.363  0.8954 -0.2189  0.8062
   12MOL0     H 1600   8.640   8.127   4.608  1.7645  1.7460  1.3325
   12MOL0     H 1601   8.416   8.145   4.496 -0.3559  1.0049 -0.7405
   12MOL0     H 1602   8.048   8.190   4.402 -0.1929 -1.1151 -0.3733
   12MOL0     H 1603   7.830   8.234   4.267  0.4136 -2.7430 -0.3803
   12MOL0     H 1604   6.310   7.247   4.130  0.7021 -1.3557  2.2712
   12MOL0     H 1605   6.094   7.175   4.034  3.2217 -0.2765  1.0129
   12MOL0     H 1606   5.508   7.157   4.354  0.8499 -1.2054  0.2515
   12MOL0     H 1607   5.288   7.123   4.268 -1.5670 -1.1495 -0.9721
   12MOL0     H 1608   5.089   7.165   4.153  1.8725  1.9938 -1.4858
   12MOL0     H 1609   5.160   7.000   4.120  0.9296  2.0552  2.5107
   12MOL0     H 1610   4.940   6.977   4.006 -0.3313 -1.0146 -2.3612
   12MOL0     H 1611   5.049   7.012   3.889 -0.5844 -4.0233  1.0554
   12MOL0     H 1612   4.993   7.244   3.856  2.0939 -0.1503  1.8720
   12MOL0     H 1613   4.909   7.258   4.002  1.5717  0.3239 -0.7886
   12MOL0     H 1614   4.793   7.075   3.777  0.6467  1.3299 -1.4552
   12MOL0     H 1615   4.738   7.094   3.942  1.6293 -2.2358 -0.5039
   12MOL0     H 1616   4.630   7.481   3.747 -0.7163 -0.1386 -1.0074
   12MOL0     H 1617   5.435   7.222   3.876 -1.3562 -0.3194  0.1920
   12MOL0     H 1618   5.642   7.282   3.833 -1.1313  0.1190  0.2844
   12MOL0     H 1619   5.772   7.317   3.950 -3.1029  4.6980 -0.5364
   12MOL0     H 1620   5.740   7.151   3.903 -1.7126 -0.6169 -0.3309
   13MOL0     O 1621  11.166   1.743   6.652 -1.0276 -0.5580 -0.3115
   13MOL0     C 1622  11.240   1.828   6.599  0.0974 -0.4983  0.2940
   13MOL0     O 1623  11.194   1.942   6.529  0.0037 -0.1741 -0.4684
   13MOL0     C 1624  11.057   1.956   6.494  0.0006  0.8528 -0.0263
   13MOL0     C 1625  11.000   1.879   6.394 -0.4096  0.0459 -0.3451
   13MOL0     C 1626  10.872   1.901   6.340 -0.1772 -0.0874  0.8458
   13MOL0     C 1627  10.800   2.011   6.375 -0.3489 -0.3912  0.7996
   13MOL0     O 1628  10.677   2.025   6.307  0.8058 -0.3101 -0.7875
   13MOL0     C 1629  10.589   2.123   6.369  0.2330 -0.3748 -0.4737
   13MOL0     C 1630  10.536   2.074   6.507 -0.4628  0.0042  0.2167
   13MOL0     C 1631  10.487   1.927   6.507  0.0036  0.0562  1.2655
   13MOL0     C 1632  10.383   1.900   6.397 -0.4542  0.2574  1.1005
   13MOL0     C 1633  10.273   1.810   6.449  0.2114 -0.3300 -0.2025
   13MOL0     C 1634  10.190   1.750   6.335 -0.5040 -0.5810  0.2718
   13MOL0     C 1635  10.268   1.632   6.266  0.2717 -0.5938 -1.0475
   13MOL0     C 1636  10.168   1.536   6.210  0.1144 -0.1948 -0.8834
   13MOL0     N 1637  10.094   1.593   6.093 -0.4599  0.3991 -0.4781
   13MOL0     C 1638  10.155   1.634   5.978  0.6207 -0.9147 -0.7292
   13MOL0     C 1639  10.044   1.659   5.902 -0.4308 -1.1366  0.6824
   13MOL0     C 1640  10.041   1.698   5.759  0.8631 -0.7420 -0.5716
   13MOL0     C 1641  10.143   1.647   5.667 -0.3371  0.4725  0.3083
   13MOL0     C 1642  10.138   1.718   5.528 -0.4066  0.8344 -0.3949
   13MOL0     C 1643   9.994   1.712   5.452 -0.4831 -0.2448  0.3974
   13MOL0     O 1644   9.960   1.578   5.448  0.0187  0.0555  0.8251
   13MOL0     C 1645   9.928   1.524   5.325  0.4165  0.0299 -0.5118
   13MOL0     C 1646  10.024   1.488   5.232  0.0547  0.2037  0.3482
   13MOL0     C 1647   9.991   1.419   5.118  0.2922  0.7038 -0.8794
   13MOL0     C 1648   9.857   1.376   5.088  0.5788 -0.4795  0.7145
   13MOL0     C 1649   9.838   1.317   4.949  0.3457 -0.3255 -0.8316
   13MOL0     O 1650   9.942   1.283   4.874 -0.0817  0.0202 -0.0711
   13MOL0     C 1651   9.934   1.260   4.733 -0.2162 -0.7289 -0.5124
   13MOL0     C 1652   9.827   1.219   4.655 -0.4376 -0.3327 -0.9293
   13MOL0     C 1653   9.840   1.182   4.522 -0.3692 -0.4164  0.1798
   13MOL0     C 1654   9.966   1.212   4.454  0.6903 -0.7072 -0.6796
   13MOL0     O 1655   9.980   1.194   4.318  0.3785  0.2363  0.2006
   13MOL0     C 1656   9.948   1.063   4.265  0.3536 -0.4011  0.9784
   13MOL0     C 1657   9.962   1.052   4.108  0.3167  0.0168  0.2072
   13MOL0     C 1658  10.106   1.075   4.055 -0.8707  0.4818  0.3821
   13MOL0     C 1659  10.199   0.947   4.065 -0.5753 -0.0557  0.2467
   13MOL0     C 1660  10.323   0.954   3.977  0.1772 -0.4359  1.0624
   13MOL0     C 1661  10.437   0.854   4.007  0.9341 -1.1700  0.0980
   13MOL0     C 1662  10.568   0.884   3.922 -0.0155 -0.6413  0.2674
   13MOL0     C 1663  10.654   0.752   3.897 -0.4458  0.4430 -0.2977
   13MOL0    Cl 1664  10.736   0.713   4.048 -0.1744  0.9577  0.0367
   13MOL0     C 1665  10.072   1.264   4.532  0.2568  0.2582 -0.6667
   13MOL0     C 1666  10.057   1.285   4.667  0.3112  0.1405 -0.3689
   13MOL0     O 1667   9.722   1.312   4.911 -0.1882  0.4373 -0.0077
   13MOL0     C 1668   9.763   1.418   5.180 -0.0458 -0.8836 -1.2179
   13MOL0     C 1669   9.799   1.481   5.298  0.7990  0.7732  0.1873
   13MOL0     N 1670   9.929   1.635   5.968  0.0050 -0.5039  0.2084
   13MOL0     N 1671   9.961   1.597   6.083  0.8339  0.1833 -0.8665
   13MOL0     C 1672  10.861   2.097   6.472  0.6545 -0.4432  0.3845
   13MOL0     C 1673  10.983   2.070   6.526 -1.3758 -0.0888  0.1832
   13MOL0     C 1674  11.388   1.828   6.603  0.1360  0.2527  0.9983
   13MOL0     C 1675  11.461   1.810   6.478  0.0573  0.4265 -0.5840
   13MOL0     C 1676  11.603   1.790   6.471  0.0514  0.1476  0.5060
   13MOL0     C 1677  11.678   1.813   6.586  0.2275  0.3929 -0.4364
   13MOL0     O 1678  11.815   1.821   6.593 -0.4218 -0.2332  0.0076
   13MOL0     C 1679  11.897   1.825   6.478 -0.1516  1.0543  0.0203
   13MOL0     C 1680  12.040   1.814   6.530  0.5794  0.5584 -0.0043
   13MOL0     C 1681  12.077   1.934   6.614 -0.0779 -0.3909  0.2248
   13MOL0     C 1682  12.220   1.915   6.646  0.3133 -0.0219 -0.3334
   13MOL0     C 1683  12.234   1.820   6.765  0.7327  0.0458 -0.1468
   13MOL0     C 1684  12.241   1.740   6.857 -1.1141 -0.4169  0.3346
   13MOL0     C 1685  11.606   1.820   6.703  0.8823 -0.2027 -0.8738
   13MOL0     C 1686  11.467   1.833   6.720 -0.6622  0.7942 -0.3286
   13MOL0     C 1687  11.405   1.844   6.861  0.3693  0.7203 -1.4401
   13MOL0     H 1688  11.055   1.792   6.360 -2.5115 -1.9974  1.1241
   13MOL0     H 1689  10.840   1.833   6.262  1.3782 -2.3711  2.0816
   13MOL0     H 1690  10.643   2.218   6.376 -0.2863 -0.1048 -0.1317
   13MOL0     H 1691  10.512   2.151   6.296  2.5801  1.1878 -2.5589
   13MOL0     H 1692  10.462   2.146   6.545  1.0577  1.7872 -0.0091
   13MOL0     H 1693  10.622   2.072   6.575 -0.8128  1.7765  0.7623
   13MOL0     H 1694  10.453   1.914   6.610  1.0144  2.6010  2.0015
   13MOL0     H 1695  10.574   1.861   6.497 -1.4456 -1.6996 -0.4680
   13MOL0     H 1696  10.343   1.998   6.367 -0.0746  0.7962  2.3075
   13MOL0     H 1697  10.428   1.856   6.307  0.1440  4.1980 -0.7794
   13MOL0     H 1698  10.321   1.729   6.506 -2.0230 -0.7675  1.1549
   13MOL0     H 1699  10.220   1.873   6.521  0.4366 -1.7718  1.3045
   13MOL0     H 1700  10.096   1.720   6.382 -0.6066 -1.5183 -0.4973
   13MOL0     H 1701  10.169   1.821   6.255  3.2382 -1.3119 -1.5815
   13MOL0     H 1702  10.325   1.578   6.342 -0.4182  1.8262  1.3421
   13MOL0     H 1703  10.330   1.657   6.179 -1.3097 -0.4285 -2.1858
   13MOL0     H 1704  10.218   1.443   6.181  1.9927  0.4726  0.0345
   13MOL0     H 1705  10.101   1.510   6.293  1.8279 -2.2731 -0.0370
   13MOL0     H 1706  10.259   1.648   5.949  0.1116  0.8301 -1.8804
   13MOL0     H 1707   9.938   1.683   5.724  0.2488  0.5957  0.5690
   13MOL0     H 1708  10.052   1.806   5.748 -1.8875 -0.5701 -2.8074
   13MOL0     H 1709  10.240   1.674   5.710 -0.3871  2.0056 -0.4479
   13MOL0     H 1710  10.128   1.540   5.658 -1.2318  0.5399  0.9324
   13MOL0     H 1711  10.212   1.663   5.469 -0.9280 -3.0865  2.2223
   13MOL0     H 1712  10.169   1.821   5.546 -1.1726  0.5952  2.8409
   13MOL0     H 1713   9.994   1.758   5.353  4.0978  2.0040  1.1768
   13MOL0     H 1714   9.925   1.765   5.519  0.5826  0.5819  0.8724
   13MOL0     H 1715  10.124   1.518   5.262  0.4061 -1.7992  1.3366
   13MOL0     H 1716  10.077   1.401   5.054 -1.1607 -1.3864 -2.3937
   13MOL0     H 1717   9.742   1.190   4.717 -0.5071  3.3674  0.9875
   13MOL0     H 1718   9.751   1.144   4.472  0.3927  0.5000 -2.0077
   13MOL0     H 1719  10.008   0.989   4.318  0.1126  1.2691  3.8118
   13MOL0     H 1720   9.842   1.046   4.289  0.2839 -1.1252  0.2075
   13MOL0     H 1721   9.924   0.956   4.073 -0.8705  0.7332 -0.5464
   13MOL0     H 1722   9.896   1.127   4.063  0.0477  0.8856  1.9844
   13MOL0     H 1723  10.106   1.112   3.952  0.5905 -1.0555 -0.2352
   13MOL0     H 1724  10.156   1.144   4.123  0.6524 -1.4056  1.3026
   13MOL0     H 1725  10.148   0.857   4.030  1.0340 -1.6659  1.8391
   13MOL0     H 1726  10.227   0.926   4.168 -0.3272 -2.6271 -0.2891
   13MOL0     H 1727  10.363   1.055   3.992  2.8656 -1.2640 -0.0477
   13MOL0     H 1728  10.293   0.945   3.872 -1.7283  0.5936  1.4762
   13MOL0     H 1729  10.467   0.857   4.112  2.3351  1.0431 -0.2812
   13MOL0     H 1730  10.394   0.756   3.986 -2.2441 -0.0912  0.9852
   13MOL0     H 1731  10.631   0.959   3.971 -0.1057 -0.1883 -0.2996
   13MOL0     H 1732  10.543   0.927   3.824 -0.0656  0.7518  0.8696
   13MOL0     H 1733  10.583   0.680   3.856 -0.0802 -0.4837  0.6674
   13MOL0     H 1734  10.729   0.785   3.824 -0.2719  1.7791  0.4391
   13MOL0     H 1735  10.164   1.291   4.481  1.0676  1.4422  1.3405
   13MOL0     H 1736  10.141   1.328   4.721  0.7697 -1.9985  0.7437
   13MOL0     H 1737   9.657   1.399   5.167 -0.6114  0.9510  0.2429
   13MOL0     H 1738   9.728   1.509   5.375  0.2030 -0.2498  0.0189
   13MOL0     H 1739  10.820   2.195   6.496  2.2427  0.5905 -0.8424
   13MOL0     H 1740  11.022   2.137   6.602  1.6653  0.9402 -2.1183
   13MOL0     H 1741  11.400   1.803   6.389 -0.9777 -0.8423  0.1920
   13MOL0     H 1742  11.661   1.782   6.380  2.4843  0.7454  1.9175
   13MOL0     H 1743  11.877   1.914   6.418  0.6597  0.1914 -1.5836
   13MOL0     H 1744  11.883   1.738   6.414  3.4849  0.8954 -0.7718
   13MOL0     H 1745  12.105   1.794   6.444  1.0534 -2.6128  0.9648
   13MOL0     H 1746  12.049   1.726   6.595 -1.5703 -0.3582 -0.8547
   13MOL0     H 1747  12.015   1.946   6.703  1.7024 -0.0184  1.4769
   13MOL0     H 1748  12.065   2.022   6.550  1.7261 -2.2311 -2.9157
   13MOL0     H 1749  12.273   1.864   6.565 -0.1036 -1.4773  0.2637
   13MOL0     H 1750  12.277   2.006   6.666  0.9276 -0.9623  2.7630
   13MOL0     H 1751  12.255   1.676   6.942 -0.6535  0.9503  1.3226
   13MOL0     H 1752  11.658   1.817   6.798 -1.1850 -0.2238  0.3142
   13MOL0     H 1753  11.304   1.886   6.861  0.0787  0.0341 -1.1609
   13MOL0     H 1754  11.398   1.745   6.908 -0.5318  1.1880 -0.5484
   13MOL0     H 1755  11.472   1.912   6.915  0.7896  0.9408 -2.2199
   14MOL0     O 1756   4.352   8.020   1.184 -0.0967 -0.3276 -0.3616
   14MOL0     C 1757   4.267   8.019   1.096  0.2701 -0.4213 -0.0283
   14MOL0     O 1758   4.291   8.068   0.970 -0.7291 -0.5973  0.0560
   14MOL0     C 1759   4.424   8.092   0.934 -0.0262  0.0489  0.2669
   14MOL0     C 1760   4.451   8.226   0.899 -0.1469  0.2955  0.0524
   14MOL0     C 1761   4.583   8.263   0.872  0.0109 -0.2530 -0.2328
   14MOL0     C 1762   4.683   8.180   0.880  0.6307  0.9166  0.2951
   14MOL0     O 1763   4.806   8.231   0.846 -0.1246  0.1886  0.0526
   14MOL0     C 1764   4.914   8.148   0.816 -0.2690  0.3932  0.3892
   14MOL0     C 1765   5.018   8.238   0.751  0.5376  0.2984  0.1311
   14MOL0     C 1766   5.127   8.146   0.692 -0.7312 -0.5839 -0.3801
   14MOL0     C 1767   5.255   8.222   0.682 -0.0958  0.2191 -0.0628
   14MOL0     C 1768   5.359   8.148   0.597  0.0500 -0.5236 -0.2118
   14MOL0     C 1769   5.503   8.214   0.589  0.2168  0.2520 -0.2798
   14MOL0     C 1770   5.511   8.331   0.492  0.0011  0.1183 -0.4297
   14MOL0     C 1771   5.571   8.290   0.363 -0.7361 -0.3758  0.1129
   14MOL0     N 1772   5.610   8.415   0.294  0.2761  0.1314  0.4269
   14MOL0     C 1773   5.729   8.489   0.295  0.2241 -0.2655  0.6149
   14MOL0     C 1774   5.698   8.590   0.208 -0.0618  0.7731 -0.0856
   14MOL0     C 1775   5.797   8.690   0.162  0.4659  0.5993  0.4339
   14MOL0     C 1776   5.819   8.686   0.011 -1.4152  0.2562  0.2233
   14MOL0     C 1777   5.854   8.549  -0.047  0.7466 -0.2851  0.1893
   14MOL0     C 1778   5.991   8.500  -0.018  0.9440  0.4415  0.1458
   14MOL0     O 1779   5.971   8.418   0.102 -0.7027  0.3422  0.3265
   14MOL0     C 1780   6.081   8.389   0.184 -0.0654  0.1545  0.2046
   14MOL0     C 1781   6.214   8.437   0.151  0.7812 -0.0907  0.0584
   14MOL0     C 1782   6.321   8.398   0.226  0.4930 -0.2426  0.5575
   14MOL0     C 1783   6.309   8.311   0.334  0.5039  1.0946  0.6313
   14MOL0     C 1784   6.434   8.256   0.399  0.5569 -0.1264 -0.0158
   14MOL0     O 1785   6.549   8.325   0.367 -0.5773 -0.1097 -0.3172
   14MOL0     C 1786   6.675   8.300   0.409  0.0796 -0.5605 -0.0237
   14MOL0     C 1787   6.775   8.358   0.332  0.4454  0.4174  0.1443
   14MOL0     C 1788   6.906   8.356   0.366 -0.5372 -0.0162 -0.5103
   14MOL0     C 1789   6.945   8.284   0.488 -0.3851 -0.0143  1.1166
   14MOL0     O 1790   7.071   8.274   0.534  0.9016 -0.2702 -0.0760
   14MOL0     C 1791   7.170   8.361   0.481  0.2375 -0.3344 -0.3507
   14MOL0     C 1792   7.157   8.490   0.574  0.6174 -0.7253  1.0362
   14MOL0     C 1793   7.261   8.603   0.560  0.4300 -0.0385 -0.1895
   14MOL0     C 1794   7.401   8.576   0.612 -0.3444  0.5622  0.4592
   14MOL0     C 1795   7.495   8.686   0.568  0.2437 -0.3272 -0.2967
   14MOL0     C 1796   7.643   8.650   0.595  0.4109 -0.5314  0.1248
   14MOL0     C 1797   7.732   8.762   0.545  0.0794  0.6984  0.9545
   14MOL0     C 1798   7.868   8.768   0.611 -1.0135 -0.2278  0.0626
   14MOL0    Cl 1799   7.966   8.617   0.597 -0.2120  0.2304 -0.0174
   14MOL0     C 1800   6.854   8.205   0.547  0.3369  0.0681  0.5844
   14MOL0     C 1801   6.717   8.222   0.516  0.6801  0.0116  0.1442
   14MOL0     O 1802   6.418   8.152   0.464  0.3909 -0.3441  0.1799
   14MOL0     C 1803   6.175   8.256   0.369  0.7451  0.3859  0.9611
   14MOL0     C 1804   6.068   8.303   0.293 -0.2214  0.7913  0.5858
   14MOL0     N 1805   5.573   8.572   0.170  0.2886 -0.3549  0.4528
   14MOL0     N 1806   5.514   8.468   0.211  0.2591 -0.1976 -0.0955
   14MOL0     C 1807   4.656   8.036   0.901  0.7982 -0.1632 -0.5853
   14MOL0     C 1808   4.525   7.996   0.925 -0.4993 -0.0552 -0.4836
   14MOL0     C 1809   4.126   7.985   1.126 -0.0211 -0.6306 -0.5772
   14MOL0     C 1810   4.093   7.875   1.212 -0.2840  0.5947 -0.9634
   14MOL0     C 1811   3.961   7.835   1.231  1.1472 -0.6783 -0.0005
   14MOL0     C 1812   3.852   7.903   1.161  0.3625  0.0683 -0.8166
   14MOL0     O 1813   3.714   7.873   1.182 -0.3443 -0.2786 -0.2397
   14MOL0     C 1814   3.683   7.809   1.308  0.8305  0.2706 -0.2489
   14MOL0     C 1815   3.537   7.839   1.349 -0.1181 -0.0945 -0.2283
   14MOL0     C 1816   3.434   7.759   1.266 -0.7481 -0.8557  1.1953
   14MOL0     C 1817   3.300   7.826   1.261  0.8405  1.2020  0.2133
   14MOL0     C 1818   3.243   7.830   1.399  0.1477 -1.0830  0.6284
   14MOL0     C 1819   3.216   7.848   1.516 -0.6975 -0.8226  0.0043
   14MOL0     C 1820   3.889   8.007   1.071  0.3234 -0.1397 -0.9791
   14MOL0     C 1821   4.020   8.056   1.059  0.0427 -0.9035 -0.2833
   14MOL0     C 1822   4.037   8.171   0.965  0.0919 -0.1106  0.3363
   14MOL0     H 1823   4.376   8.304   0.905 -1.6461 -1.0961  0.0803
   14MOL0     H 1824   4.616   8.365   0.855 -0.9903  0.0644 -0.2895
   14MOL0     H 1825   4.959   8.097   0.902 -0.7403 -0.4546  0.1489
   14MOL0     H 1826   4.885   8.071   0.743  1.7237 -1.2629  1.2513
   14MOL0     H 1827   5.058   8.308   0.826 -0.0432  1.6738 -0.7974
   14MOL0     H 1828   4.976   8.292   0.665  1.4865  0.0481 -0.5057
   14MOL0     H 1829   5.100   8.135   0.587  1.0492  3.2579 -1.3989
   14MOL0     H 1830   5.129   8.045   0.734  2.0893  0.2523  1.8579
   14MOL0     H 1831   5.243   8.323   0.642 -0.6416  0.9443  1.8052
   14MOL0     H 1832   5.278   8.239   0.788  0.3436 -2.6401  0.3849
   14MOL0     H 1833   5.373   8.046   0.635 -1.2269 -1.4622 -2.0892
   14MOL0     H 1834   5.327   8.142   0.493  0.9651  1.3756 -0.6435
   14MOL0     H 1835   5.527   8.256   0.687  0.9334 -0.3624 -0.1859
   14MOL0     H 1836   5.579   8.137   0.573  0.0713 -0.5351  2.3776
   14MOL0     H 1837   5.573   8.405   0.543 -1.3381 -0.4282  2.1234
   14MOL0     H 1838   5.413   8.377   0.478  0.5273  1.4192  0.0026
   14MOL0     H 1839   5.660   8.229   0.379  1.0754  1.7041 -1.4782
   14MOL0     H 1840   5.498   8.232   0.305  1.5652 -3.6323  0.1906
   14MOL0     H 1841   5.820   8.494   0.354  1.0209  3.4586 -0.6304
   14MOL0     H 1842   5.756   8.788   0.187  0.4419  0.7219 -0.0618
   14MOL0     H 1843   5.890   8.665   0.213 -0.2839  2.0484  2.6886
   14MOL0     H 1844   5.735   8.720  -0.051 -1.9204 -1.7064 -0.2283
   14MOL0     H 1845   5.891   8.763  -0.018 -1.2055 -0.4399 -1.2083
   14MOL0     H 1846   5.843   8.558  -0.155 -0.8652  3.2964  0.5239
   14MOL0     H 1847   5.768   8.489  -0.012  0.3463 -0.3089 -0.8199
   14MOL0     H 1848   6.059   8.581   0.009  0.2186  0.6306  1.4685
   14MOL0     H 1849   6.031   8.434  -0.096  1.6814  1.3821 -0.2883
   14MOL0     H 1850   6.230   8.509   0.072  0.0344  1.5940  1.3582
   14MOL0     H 1851   6.421   8.430   0.199  1.5041 -2.2009  1.7636
   14MOL0     H 1852   6.756   8.417   0.242  0.5729  0.9817  0.4824
   14MOL0     H 1853   6.980   8.415   0.311  1.2005 -1.1714  0.5015
   14MOL0     H 1854   7.266   8.318   0.511  0.8814  1.2174 -0.0778
   14MOL0     H 1855   7.167   8.375   0.373 -0.2878  0.5767 -0.2245
   14MOL0     H 1856   7.058   8.533   0.558  1.7969  2.2632  1.1031
   14MOL0     H 1857   7.152   8.467   0.681 -0.5660  1.6906  1.5837
   14MOL0     H 1858   7.258   8.635   0.455 -2.5815 -0.8546 -0.4378
   14MOL0     H 1859   7.217   8.686   0.616 -0.0832  0.0709 -0.7435
   14MOL0     H 1860   7.439   8.486   0.563 -1.5437  1.7969 -3.0898
   14MOL0     H 1861   7.397   8.559   0.720 -1.9987 -1.4538  0.1352
   14MOL0     H 1862   7.478   8.766   0.641  0.2199 -2.3990  2.1212
   14MOL0     H 1863   7.473   8.723   0.468 -0.3084 -0.0665 -0.0839
   14MOL0     H 1864   7.660   8.652   0.703 -3.5268  1.3490  0.8919
   14MOL0     H 1865   7.678   8.560   0.545 -0.2574  0.0460 -1.4548
   14MOL0     H 1866   7.696   8.864   0.559  1.6040  1.1052  2.0883
   14MOL0     H 1867   7.753   8.734   0.441  1.5050 -4.2985  2.3277
   14MOL0     H 1868   7.925   8.844   0.557  0.6068 -1.0949  0.5170
   14MOL0     H 1869   7.848   8.800   0.714  1.2534 -0.2761  0.5595
   14MOL0     H 1870   6.892   8.144   0.628 -2.2105 -0.8854  1.1362
   14MOL0     H 1871   6.641   8.166   0.569 -0.8589  1.5345 -0.3535
   14MOL0     H 1872   6.157   8.174   0.438 -0.2525  4.0504  5.5427
   14MOL0     H 1873   5.971   8.255   0.302  0.6150 -0.8948  1.1010
   14MOL0     H 1874   4.741   7.968   0.897  1.5896  0.8787 -2.3039
   14MOL0     H 1875   4.498   7.893   0.941 -1.7784  0.5644  1.7151
   14MOL0     H 1876   4.173   7.828   1.268  0.5552  2.4470 -0.5480
   14MOL0     H 1877   3.940   7.766   1.313 -0.7539  1.3791  1.3326
   14MOL0     H 1878   3.740   7.847   1.393  0.5392  1.1909 -0.4555
   14MOL0     H 1879   3.703   7.702   1.299 -0.4660 -0.3959  3.3186
   14MOL0     H 1880   3.524   7.947   1.344 -1.1136 -0.1586  0.6068
   14MOL0     H 1881   3.526   7.807   1.453  2.8579 -0.9977 -0.1050
   14MOL0     H 1882   3.416   7.666   1.319  1.0162 -1.0186  1.5770
   14MOL0     H 1883   3.467   7.752   1.161 -2.4151  2.5372  0.2946
   14MOL0     H 1884   3.316   7.923   1.213  3.7566 -0.2319 -2.0667
   14MOL0     H 1885   3.216   7.773   1.214  0.5741 -1.2614  3.1380
   14MOL0     H 1886   3.192   7.864   1.619  1.6253 -2.3272  0.8792
   14MOL0     H 1887   3.817   8.055   1.006  1.1330 -1.1578 -2.6915
   14MOL0     H 1888   4.110   8.245   0.998 -1.0351  1.7625 -1.1621
   14MOL0     H 1889   4.060   8.141   0.862 -1.6274 -1.3285  0.2564
   14MOL0     H 1890   3.948   8.233   0.955  1.0507  1.1635 -0.6262
   15MOL0     O 1891   0.435   1.317   4.463 -0.1170  0.4162 -0.6199
   15MOL0     C 1892   0.393   1.354   4.570  0.2329  0.1915 -1.1448
   15MOL0     O 1893   0.450   1.443   4.657  0.1813 -0.1655 -0.0160
   15MOL0     C 1894   0.581   1.487   4.644 -0.0109  0.8915 -0.0243
   15MOL0     C 1895   0.616   1.610   4.701 -0.7265 -0.3715 -0.0621
   15MOL0     C 1896   0.744   1.667   4.691 -0.4874 -0.1480  0.6701
   15MOL0     C 1897   0.841   1.597   4.618 -0.2762  0.5346 -0.5198
   15MOL0     O 1898   0.959   1.651   4.591  0.0357  0.5238  0.6537
   15MOL0     C 1899   0.999   1.660   4.450 -0.4510  0.5219 -0.3872
   15MOL0     C 1900   1.149   1.682   4.445  0.9943  0.1578  0.1328
   15MOL0     C 1901   1.186   1.822   4.498 -0.4501 -0.0514 -0.9718
   15MOL0     C 1902   1.331   1.846   4.473 -0.0321  1.0578 -0.8970
   15MOL0     C 1903   1.369   1.992   4.473  0.4801 -0.4163 -0.4903
   15MOL0     C 1904   1.354   2.071   4.605  0.5263 -0.1525  0.1390
   15MOL0     C 1905   1.382   1.990   4.737 -0.3532 -0.2916  0.1889
   15MOL0     C 1906   1.529   1.950   4.746 -0.3412  0.1935 -0.5680
   15MOL0     N 1907   1.622   2.065   4.747 -0.3293 -0.5673 -0.5506
   15MOL0     C 1908   1.670   2.134   4.858 -1.1028 -0.7456  0.7804
   15MOL0     C 1909   1.762   2.227   4.811  0.6686 -0.1687 -0.1151
   15MOL0     C 1910   1.827   2.327   4.900  0.6644  0.0889  0.4793
   15MOL0     C 1911   1.959   2.261   4.956  0.3861 -0.6069  0.3228
   15MOL0     C 1912   2.064   2.252   4.851 -0.2675  0.5895  1.3420
   15MOL0     C 1913   2.197   2.190   4.899 -0.3835 -0.3774 -0.6331
   15MOL0     O 1914   2.276   2.185   4.778 -0.1698 -0.1841  0.1522
   15MOL0     C 1915   2.404   2.133   4.772  0.6437  0.2878  0.3380
   15MOL0     C 1916   2.456   2.105   4.649 -0.0695 -0.1935 -0.3070
   15MOL0     C 1917   2.583   2.074   4.621  0.1441 -0.1993  0.2049
   15MOL0     C 1918   2.669   2.051   4.726 -0.8840  0.1673 -0.3990
   15MOL0     C 1919   2.808   2.023   4.699 -0.0646 -0.9478 -1.2262
   15MOL0     O 1920   2.886   1.976   4.800 -0.3365  0.0163  0.2082
   15MOL0     C 1921   3.014   1.919   4.773  0.0683  0.2264  0.5912
   15MOL0     C 1922   3.123   1.953   4.855  0.5605  0.8147 -0.3708
   15MOL0     C 1923   3.246   1.905   4.832  0.5388  0.6569 -0.3234
   15MOL0     C 1924   3.268   1.813   4.734 -0.0813 -0.5028 -0.0160
   15MOL0     O 1925   3.396   1.756   4.725 -0.6584  0.4646  0.5493
   15MOL0     C 1926   3.498   1.838   4.660  0.9177  0.0332 -0.5386
   15MOL0     C 1927   3.641   1.794   4.695  0.3118 -0.0215 -0.5251
   15MOL0     C 1928   3.762   1.828   4.607  0.7276  0.4545 -0.0834
   15MOL0     C 1929   3.897   1.768   4.650  0.6978  0.2081  0.4037
   15MOL0     C 1930   4.017   1.834   4.574  0.4389  0.4905  0.9432
   15MOL0     C 1931   4.156   1.779   4.591  1.0572  0.5716 -0.2448
   15MOL0     C 1932   4.259   1.890   4.563  0.4187  0.9491  0.4837
   15MOL0     C 1933   4.406   1.826   4.557 -0.0509 -0.0184  0.9133
   15MOL0    Cl 1934   4.438   1.781   4.720  0.3346 -0.0895  0.0701
   15MOL0     C 1935   3.165   1.780   4.650 -0.5415  0.1409  0.8554
   15MOL0     C 1936   3.038   1.825   4.673 -0.1068 -0.7443  0.0762
   15MOL0     O 1937   2.841   2.038   4.582  0.2094 -0.7530 -0.2891
   15MOL0     C 1938   2.621   2.059   4.860  1.2069 -0.4164 -0.7019
   15MOL0     C 1939   2.484   2.102   4.881 -0.5400 -0.3818  0.0760
   15MOL0     N 1940   1.750   2.205   4.672 -0.2792  0.0333 -0.6750
   15MOL0     N 1941   1.676   2.113   4.636 -0.1093 -0.7879  0.0308
   15MOL0     C 1942   0.816   1.469   4.572 -0.6502 -0.5841 -0.4933
   15MOL0     C 1943   0.686   1.412   4.593 -0.0511  0.2238  1.4386
   15MOL0     C 1944   0.276   1.274   4.637  0.1104 -0.2690  0.2591
   15MOL0     C 1945   0.200   1.188   4.550 -0.4840  1.1580  0.2910
   15MOL0     C 1946   0.095   1.118   4.599 -0.6077 -0.0348 -0.2181
   15MOL0     C 1947   0.044   1.140   4.727  0.5170 -0.0445 -0.3181
   15MOL0     O 1948  -0.075   1.079   4.769 -0.6219 -0.6287  0.3030
   15MOL0     C 1949  -0.196   1.122   4.720  0.4167  0.1853  0.1739
   15MOL0     C 1950  -0.296   1.011   4.753  0.0025  0.0309  0.0646
   15MOL0     C 1951  -0.250   0.877   4.696 -0.0021  0.5711 -0.5770
   15MOL0     C 1952  -0.363   0.771   4.700 -0.0363 -0.2482  0.5009
   15MOL0     C 1953  -0.325   0.638   4.643  0.1110  0.1209 -0.1833
   15MOL0     C 1954  -0.278   0.528   4.607 -0.1498  0.1484 -0.2092
   15MOL0     C 1955   0.117   1.217   4.816 -0.2461  0.5581 -0.2265
   15MOL0     C 1956   0.232   1.285   4.773 -0.0862  0.5000 -0.2598
   15MOL0     C 1957   0.293   1.366   4.890  0.6957  0.0199  0.9585
   15MOL0     H 1958   0.535   1.674   4.735 -0.6346 -0.4732  0.3577
   15MOL0     H 1959   0.771   1.766   4.726  1.0594 -0.9889  2.0039
   15MOL0     H 1960   0.968   1.574   4.390  0.2062  0.0819 -0.1064
   15MOL0     H 1961   0.956   1.749   4.404 -0.2713  1.9521  2.0342
   15MOL0     H 1962   1.175   1.677   4.339 -1.8947 -0.7913 -0.6375
   15MOL0     H 1963   1.198   1.601   4.500 -1.9136 -1.8511  0.0290
   15MOL0     H 1964   1.171   1.818   4.607 -0.3167  0.6589 -0.9199
   15MOL0     H 1965   1.143   1.902   4.437  1.5689 -0.9066 -3.6795
   15MOL0     H 1966   1.392   1.786   4.541 -1.1054  1.9086  0.8855
   15MOL0     H 1967   1.370   1.809   4.378 -0.6221 -2.8262  0.1904
   15MOL0     H 1968   1.473   2.000   4.442  1.3833 -0.4329  2.2515
   15MOL0     H 1969   1.301   2.046   4.406 -0.9611  1.4263  2.2384
   15MOL0     H 1970   1.412   2.164   4.603 -0.5791  0.6675  2.3150
   15MOL0     H 1971   1.248   2.099   4.601  0.9562  1.4818 -3.6974
   15MOL0     H 1972   1.311   1.908   4.751  0.9425 -1.5969 -0.5935
   15MOL0     H 1973   1.377   2.062   4.819  0.1783  0.4890 -0.4480
   15MOL0     H 1974   1.555   1.896   4.838 -0.3167 -1.0749 -1.2915
   15MOL0     H 1975   1.551   1.888   4.659  0.1547 -0.7708  0.2152
   15MOL0     H 1976   1.669   2.102   4.962 -0.8654 -4.4001 -0.2151
   15MOL0     H 1977   1.832   2.424   4.851 -2.7807  0.6303  0.9156
   15MOL0     H 1978   1.760   2.359   4.981  1.3554  3.2994 -0.1159
   15MOL0     H 1979   1.994   2.324   5.038  3.0011  0.0259 -1.1451
   15MOL0     H 1980   1.947   2.156   4.982  0.9643 -1.4010 -2.2728
   15MOL0     H 1981   2.078   2.351   4.806 -0.4388 -0.3996 -1.0665
   15MOL0     H 1982   2.034   2.180   4.773  2.8109  1.8783 -1.2688
   15MOL0     H 1983   2.181   2.097   4.954 -1.3312  2.6697  5.1096
   15MOL0     H 1984   2.245   2.257   4.972  0.7755 -1.2572 -0.5594
   15MOL0     H 1985   2.386   2.128   4.569 -0.9753  0.3428  0.6224
   15MOL0     H 1986   2.608   2.068   4.515 -3.0803  0.3315 -0.6967
   15MOL0     H 1987   3.105   2.028   4.931 -0.1637  1.5581 -1.2416
   15MOL0     H 1988   3.328   1.941   4.892  0.9584  1.2556 -1.2273
   15MOL0     H 1989   3.493   1.824   4.551  1.0283 -1.7046 -0.3354
   15MOL0     H 1990   3.483   1.941   4.695 -1.0131 -0.0263 -1.0672
   15MOL0     H 1991   3.660   1.840   4.793 -3.3995  0.5525  0.0646
   15MOL0     H 1992   3.642   1.686   4.711  0.6669  0.3064  2.3054
   15MOL0     H 1993   3.723   1.810   4.506 -0.1078  1.0597  0.1277
   15MOL0     H 1994   3.772   1.936   4.617 -3.1532  0.9300 -0.0674
   15MOL0     H 1995   3.888   1.661   4.631 -0.4073  0.3004  0.3516
   15MOL0     H 1996   3.908   1.782   4.758  1.0598 -1.1648  0.5645
   15MOL0     H 1997   4.023   1.942   4.590 -1.1965  1.0509 -1.7360
   15MOL0     H 1998   3.994   1.816   4.469  0.7496  2.4196  0.5215
   15MOL0     H 1999   4.176   1.739   4.691  0.0456  0.3073 -0.1399
   15MOL0     H 2000   4.159   1.688   4.530 -2.9796  1.9138 -2.8733
   15MOL0     H 2001   4.267   1.959   4.647  1.6973  0.4998  0.7451
   15MOL0     H 2002   4.237   1.942   4.469 -2.3348 -2.7561 -1.2128
   15MOL0     H 2003   4.406   1.744   4.484 -0.5631  0.0783  0.7955
   15MOL0     H 2004   4.483   1.900   4.532  2.0642 -1.6202  2.3146
   15MOL0     H 2005   3.194   1.707   4.575  0.4146  0.9251  0.4265
   15MOL0     H 2006   2.951   1.798   4.614  0.2959 -3.0177  0.4469
   15MOL0     H 2007   2.682   2.036   4.946 -1.5673  0.0200  1.5204
   15MOL0     H 2008   2.455   2.134   4.980 -2.2584  0.8580 -0.7713
   15MOL0     H 2009   0.895   1.417   4.518 -0.6466 -1.3740  0.2644
   15MOL0     H 2010   0.666   1.308   4.566  0.5987 -0.0959  2.1214
   15MOL0     H 2011   0.242   1.184   4.450 -1.1951  0.6965  0.0028
   15MOL0     H 2012   0.048   1.052   4.527  0.4200 -3.6934  2.1408
   15MOL0     H 2013  -0.204   1.143   4.613  0.0069 -0.4979  0.0653
   15MOL0     H 2014  -0.227   1.209   4.778  0.5246  1.4364 -1.5622
   15MOL0     H 2015  -0.396   1.027   4.710  0.0648 -2.2401 -1.1311
   15MOL0     H 2016  -0.317   0.991   4.858  1.4195 -2.9441 -0.1098
   15MOL0     H 2017  -0.170   0.832   4.756 -1.5877  0.1348  1.3258
   15MOL0     H 2018  -0.225   0.897   4.592 -2.5971  0.8726 -1.2099
   15MOL0     H 2019  -0.406   0.757   4.799  0.6444 -2.8035  0.4968
   15MOL0     H 2020  -0.444   0.801   4.634  0.1992  0.2372  0.4240
   15MOL0     H 2021  -0.242   0.428   4.611 -5.2094 -1.9721 -0.6870
   15MOL0     H 2022   0.067   1.238   4.910 -0.0900 -2.1456  0.5534
   15MOL0     H 2023   0.239   1.342   4.982 -0.2615  0.6255  0.5708
   15MOL0     H 2024   0.399   1.339   4.897  1.2085  1.6119 -0.1635
   15MOL0     H 2025   0.281   1.472   4.867 -0.3717 -0.7191 -2.6650
   16MOL0     O 2026   8.629   0.724   7.644 -0.5242 -0.9567  0.5315
   16MOL0     C 2027   8.516   0.771   7.662 -0.1418  0.5774  0.4511
   16MOL0     O 2028   8.487   0.904   7.657 -0.2193 -0.2673  0.3943
   16MOL0     C 2029   8.590   0.996   7.634  0.2829 -0.1166 -0.4975
   16MOL0     C 2030   8.699   0.987   7.541 -0.1256  0.7857 -1.1939
   16MOL0     C 2031   8.809   1.083   7.544  0.0201  0.8503  0.2560
   16MOL0     C 2032   8.806   1.181   7.646  0.4799 -0.2024 -0.4212
   16MOL0     O 2033   8.908   1.272   7.668 -0.0506  0.3160 -0.2093
   16MOL0     C 2034   9.003   1.295   7.561 -0.1896  0.0653 -0.4444
   16MOL0     C 2035   9.100   1.396   7.621  0.7833 -0.1970 -0.0692
   16MOL0     C 2036   9.184   1.449   7.509 -0.3997  0.9926  0.7868
   16MOL0     C 2037   9.306   1.360   7.473  0.0423 -0.4381 -0.3821
   16MOL0     C 2038   9.397   1.435   7.377 -0.6376  0.1775  0.8447
   16MOL0     C 2039   9.333   1.489   7.246  0.3249  0.1717  0.3997
   16MOL0     C 2040   9.429   1.509   7.123  0.5152 -0.1488 -0.0751
   16MOL0     C 2041   9.459   1.381   7.044  0.2511  0.2227 -0.5082
   16MOL0     N 2042   9.550   1.409   6.930  0.0218  0.5230 -0.1164
   16MOL0     C 2043   9.516   1.440   6.799  0.2163 -0.2973  0.3636
   16MOL0     C 2044   9.630   1.437   6.729 -0.4556  0.0412  0.6664
   16MOL0     C 2045   9.641   1.442   6.578  0.1557  0.5700 -0.0482
   16MOL0     C 2046   9.690   1.584   6.536 -0.3074  0.8812 -0.4215
   16MOL0     C 2047   9.729   1.586   6.386 -0.5650 -0.1038  0.3763
   16MOL0     C 2048   9.793   1.725   6.364  0.3491 -0.1193 -0.2023
   16MOL0     O 2049   9.685   1.821   6.356  0.5827 -0.0725  0.5617
   16MOL0     C 2050   9.704   1.954   6.357 -0.3984  0.1323  0.0705
   16MOL0     C 2051   9.599   2.035   6.309 -0.0178 -0.2836 -0.2655
   16MOL0     C 2052   9.624   2.173   6.290 -0.7651  0.2220  0.3160
   16MOL0     C 2053   9.742   2.243   6.332 -0.0164 -0.1456  0.3063
   16MOL0     C 2054   9.773   2.375   6.286 -0.0107  0.5086  0.4749
   16MOL0     O 2055   9.902   2.421   6.295 -0.4085 -0.5763  0.3702
   16MOL0     C 2056   9.960   2.517   6.209 -0.4352  1.4480 -1.1879
   16MOL0     C 2057  10.081   2.564   6.261 -0.2254 -0.0143  0.0611
   16MOL0     C 2058  10.165   2.638   6.177 -0.2813  1.0857  0.4683
   16MOL0     C 2059  10.114   2.679   6.057 -0.7005  0.1761 -0.0091
   16MOL0     O 2060  10.201   2.758   5.994  0.3512 -0.5063 -0.1375
   16MOL0     C 2061  10.158   2.848   5.896 -0.2571  0.4514  0.4698
   16MOL0     C 2062  10.284   2.920   5.847  0.2499  0.4254  0.3824
   16MOL0     C 2063  10.243   3.056   5.775 -0.2115  0.3405  0.2881
   16MOL0     C 2064  10.380   3.127   5.723  0.3573  0.2289  0.0202
   16MOL0     C 2065  10.459   3.185   5.842 -1.0064 -0.0355  0.5635
   16MOL0     C 2066  10.542   3.307   5.793  0.4901  0.1237 -0.1094
   16MOL0     C 2067  10.610   3.368   5.914 -1.0777 -0.3779 -0.0182
   16MOL0     C 2068  10.704   3.487   5.874 -0.0450 -0.7920 -0.2772
   16MOL0    Cl 2069  10.799   3.542   6.007 -0.1503  0.0435 -0.0881
   16MOL0     C 2070   9.992   2.634   6.000  0.5146 -1.9136 -0.4205
   16MOL0     C 2071   9.924   2.545   6.083 -0.6665  0.8507 -0.9484
   16MOL0     O 2072   9.676   2.430   6.224 -0.5947  0.0850 -0.0937
   16MOL0     C 2073   9.834   2.158   6.400 -0.7237 -0.5794  0.4419
   16MOL0     C 2074   9.821   2.017   6.398 -0.5062  0.8103  0.6333
   16MOL0     N 2075   9.730   1.403   6.816 -0.6326 -0.3874  0.1433
   16MOL0     N 2076   9.680   1.396   6.938 -0.5018 -0.4032 -0.2606
   16MOL0     C 2077   8.702   1.192   7.731  0.5644  0.3396  0.1456
   16MOL0     C 2078   8.594   1.101   7.732  0.1588 -0.5148  0.1678
   16MOL0     C 2079   8.401   0.677   7.679  0.0886 -0.1780 -0.7788
   16MOL0     C 2080   8.305   0.711   7.777  0.5733  0.2759 -0.2574
   16MOL0     C 2081   8.205   0.617   7.804 -0.2615 -0.9760 -0.2037
   16MOL0     C 2082   8.200   0.491   7.739  1.0290  0.7943  0.1153
   16MOL0     O 2083   8.105   0.394   7.750  0.4689 -0.0279  0.2647
   16MOL0     C 2084   7.965   0.434   7.769  0.2185 -0.0377 -0.1457
   16MOL0     C 2085   7.872   0.318   7.812 -0.1961 -0.2322 -0.7615
   16MOL0     C 2086   7.723   0.358   7.794 -0.1253  0.5150 -0.6740
   16MOL0     C 2087   7.633   0.245   7.746 -0.3855 -0.1327  0.2010
   16MOL0     C 2088   7.602   0.141   7.850 -0.1908  0.4754  0.0417
   16MOL0     C 2089   7.563   0.058   7.936  0.1537 -0.4571 -0.3101
   16MOL0     C 2090   8.299   0.463   7.654 -0.8331 -0.1259  0.4289
   16MOL0     C 2091   8.402   0.542   7.626  1.1313 -1.1593 -0.1057
   16MOL0     C 2092   8.518   0.486   7.554 -1.0241  0.6067  0.7978
   16MOL0     H 2093   8.710   0.910   7.466  3.1479 -0.2279  0.1135
   16MOL0     H 2094   8.888   1.070   7.471  0.2257 -0.3753  0.6766
   16MOL0     H 2095   9.061   1.204   7.547 -0.0889  0.0320  0.1561
   16MOL0     H 2096   8.945   1.333   7.476 -2.3851  0.5108  1.1485
   16MOL0     H 2097   9.153   1.370   7.713 -1.1492  1.3901  1.5996
   16MOL0     H 2098   9.043   1.484   7.651  1.5066 -0.4885  2.4036
   16MOL0     H 2099   9.218   1.552   7.526 -1.3831  1.6605 -1.0562
   16MOL0     H 2100   9.117   1.451   7.423  0.9231 -6.0543 -0.9889
   16MOL0     H 2101   9.367   1.337   7.560 -1.3629 -0.8440  0.5352
   16MOL0     H 2102   9.279   1.267   7.422 -2.0301  0.5586 -1.2552
   16MOL0     H 2103   9.439   1.526   7.422 -0.3223  1.3646 -1.6462
   16MOL0     H 2104   9.483   1.370   7.358  1.3301  3.3419 -2.5104
   16MOL0     H 2105   9.246   1.434   7.211 -2.0622  2.3838  2.4276
   16MOL0     H 2106   9.297   1.587   7.281 -3.4376 -1.8501  2.7955
   16MOL0     H 2107   9.519   1.554   7.165  1.6351 -1.8608 -0.5112
   16MOL0     H 2108   9.381   1.575   7.050  2.9874  1.6406 -0.2050
   16MOL0     H 2109   9.506   1.309   7.111  0.3633  0.0930 -0.7261
   16MOL0     H 2110   9.370   1.333   7.004 -0.1160  0.2026  0.3162
   16MOL0     H 2111   9.419   1.468   6.759  1.3394  0.7621 -1.8008
   16MOL0     H 2112   9.717   1.369   6.549  1.1835  1.0785  1.3187
   16MOL0     H 2113   9.547   1.410   6.531 -1.4545  1.7883  2.1506
   16MOL0     H 2114   9.607   1.654   6.549 -1.3906 -0.7264  2.5281
   16MOL0     H 2115   9.762   1.609   6.614  0.9736 -1.1575 -0.8586
   16MOL0     H 2116   9.646   1.566   6.318 -1.3731 -0.5746  1.4592
   16MOL0     H 2117   9.811   1.518   6.359  1.1220  2.4309 -1.3986
   16MOL0     H 2118   9.844   1.717   6.267  0.8598 -2.9199  0.2118
   16MOL0     H 2119   9.866   1.737   6.445  0.4188 -1.3449 -0.0629
   16MOL0     H 2120   9.510   1.975   6.292 -0.2716 -1.2036  3.3760
   16MOL0     H 2121   9.549   2.233   6.239 -1.6371  0.5504  1.9363
   16MOL0     H 2122  10.113   2.536   6.361 -1.4667  0.3236  0.5776
   16MOL0     H 2123  10.260   2.670   6.218  0.0136 -0.6415  1.2217
   16MOL0     H 2124  10.095   2.800   5.821  2.3486  0.2639 -1.7869
   16MOL0     H 2125  10.096   2.920   5.950  0.4304  0.3495  1.4294
   16MOL0     H 2126  10.350   2.935   5.932  0.3722 -1.3291  0.6388
   16MOL0     H 2127  10.336   2.852   5.778 -1.1323  1.6319 -1.9873
   16MOL0     H 2128  10.195   3.040   5.679  2.1016 -1.8574 -0.6173
   16MOL0     H 2129  10.194   3.127   5.842 -2.4963  1.4028 -2.3132
   16MOL0     H 2130  10.342   3.205   5.657 -0.0951 -0.1223 -0.1371
   16MOL0     H 2131  10.441   3.061   5.661  0.2168  2.7519 -3.0462
   16MOL0     H 2132  10.527   3.110   5.883  0.7969  1.4266  0.3553
   16MOL0     H 2133  10.387   3.228   5.911 -0.9748 -0.3778  0.8156
   16MOL0     H 2134  10.616   3.266   5.724 -0.9521  0.3030 -1.8317
   16MOL0     H 2135  10.487   3.390   5.748  0.6735  1.1564  1.4853
   16MOL0     H 2136  10.671   3.294   5.966  2.6472 -0.2606 -3.7110
   16MOL0     H 2137  10.538   3.409   5.986  0.7610 -0.4334  1.9658
   16MOL0     H 2138  10.766   3.454   5.790 -0.5771 -1.9486 -0.2385
   16MOL0     H 2139  10.641   3.571   5.843 -3.0172 -3.8016 -3.4332
   16MOL0     H 2140   9.952   2.684   5.913 -0.6447 -0.7665  0.7329
   16MOL0     H 2141   9.827   2.508   6.050 -0.8124 -1.6404  1.8717
   16MOL0     H 2142   9.921   2.208   6.442 -1.0946  1.0283 -0.6256
   16MOL0     H 2143   9.900   1.954   6.438 -2.9544 -2.4744  0.7162
   16MOL0     H 2144   8.713   1.268   7.807  0.3793  0.9048 -0.3819
   16MOL0     H 2145   8.514   1.108   7.804 -1.3499  2.0540 -1.5907
   16MOL0     H 2146   8.314   0.801   7.836  1.6387 -0.3601  0.6161
   16MOL0     H 2147   8.125   0.648   7.870 -1.5725 -0.8716 -1.7836
   16MOL0     H 2148   7.925   0.476   7.676 -1.6378  2.7049  1.7175
   16MOL0     H 2149   7.960   0.515   7.843 -1.2586  0.6269 -0.9188
   16MOL0     H 2150   7.892   0.296   7.917  0.0040  2.7836 -0.0684
   16MOL0     H 2151   7.886   0.228   7.752 -1.2047 -0.5833 -0.4873
   16MOL0     H 2152   7.726   0.437   7.718 -0.1869  0.0839 -1.1267
   16MOL0     H 2153   7.688   0.403   7.888  1.9427  0.0067  0.4069
   16MOL0     H 2154   7.538   0.287   7.712  1.8499  3.0546 -2.9414
   16MOL0     H 2155   7.679   0.192   7.662 -0.4420 -0.9764  0.6903
   16MOL0     H 2156   7.519  -0.006   8.010 -0.0095  1.4578  1.3273
   16MOL0     H 2157   8.283   0.366   7.608 -0.4135  0.0614 -0.1344
   16MOL0     H 2158   8.607   0.464   7.613 -1.5246 -0.0184  1.3316
   16MOL0     H 2159   8.488   0.385   7.524  1.4271 -0.8394  2.7846
   16MOL0     H 2160   8.564   0.538   7.469  1.8204 -0.8685  1.3269
   17MOL0     O 2161   2.609   2.737   9.526  0.0918  0.0853  0.3410
   17MOL0     C 2162   2.557   2.843   9.517 -1.0352 -0.1919  0.4467
   17MOL0     O 2163   2.623   2.963   9.495 -0.4123  0.6851  0.2365
   17MOL0     C 2164   2.758   2.963   9.465  0.4195 -0.2311  0.3006
   17MOL0     C 2165   2.815   2.871   9.376  0.3409  1.2329 -0.6641
   17MOL0     C 2166   2.954   2.861   9.345  0.4195  0.2137 -0.1273
   17MOL0     C 2167   3.041   2.959   9.398 -0.1726  0.0792  0.5482
   17MOL0     O 2168   3.175   2.959   9.371 -0.3182  0.2229  0.1499
   17MOL0     C 2169   3.237   2.831   9.369 -0.1384  0.9688 -0.1273
   17MOL0     C 2170   3.386   2.860   9.360 -0.5206 -0.0546 -0.5876
   17MOL0     C 2171   3.460   2.722   9.367  0.0154 -0.4482  0.9295
   17MOL0     C 2172   3.608   2.747   9.341 -0.3869 -0.0291  0.8621
   17MOL0     C 2173   3.690   2.619   9.345 -0.4632 -0.6412  0.2220
   17MOL0     C 2174   3.831   2.669   9.320 -0.9476 -0.6204 -0.8265
   17MOL0     C 2175   3.942   2.557   9.319  0.3308 -0.5715 -0.8724
   17MOL0     C 2176   3.952   2.480   9.185  0.2634  0.1818 -0.1136
   17MOL0     N 2177   4.074   2.401   9.184 -0.3228  0.5154  0.3386
   17MOL0     C 2178   4.068   2.261   9.197 -0.7979  0.1353  0.0183
   17MOL0     C 2179   4.187   2.233   9.253 -0.3348 -0.1945  0.0922
   17MOL0     C 2180   4.210   2.097   9.307  0.1417  0.0589 -0.4389
   17MOL0     C 2181   4.350   2.052   9.269 -0.8578 -0.3618  0.1451
   17MOL0     C 2182   4.387   1.920   9.341 -0.7259 -0.8812  0.3205
   17MOL0     C 2183   4.522   1.853   9.294 -0.1567  0.1142  0.0091
   17MOL0     O 2184   4.624   1.955   9.284 -0.1994 -0.3334  0.2121
   17MOL0     C 2185   4.756   1.926   9.289 -0.8351  0.1599  0.1948
   17MOL0     C 2186   4.804   1.803   9.322 -0.3861  0.4063  0.1214
   17MOL0     C 2187   4.937   1.774   9.324 -0.1619  0.3850  0.3818
   17MOL0     C 2188   5.035   1.865   9.311  0.5894 -0.2276  0.0212
   17MOL0     C 2189   5.175   1.829   9.334  0.5606 -0.3224  0.1533
   17MOL0     O 2190   5.260   1.937   9.367  0.0028 -0.3516 -0.2561
   17MOL0     C 2191   5.400   1.921   9.389 -0.0674 -1.1545  0.0124
   17MOL0     C 2192   5.482   2.018   9.330 -0.1006  0.3523 -0.1553
   17MOL0     C 2193   5.620   2.014   9.357 -0.6634 -0.2012  0.2436
   17MOL0     C 2194   5.673   1.914   9.440 -0.3444 -0.1927 -0.2192
   17MOL0     O 2195   5.809   1.911   9.462  0.6728  0.5191 -0.3023
   17MOL0     C 2196   5.862   1.825   9.567 -0.1164  0.1128  0.1118
   17MOL0     C 2197   6.002   1.854   9.603 -1.6213  0.2997 -0.2716
   17MOL0     C 2198   6.104   1.825   9.488  0.5746  0.3529 -0.0145
   17MOL0     C 2199   6.244   1.885   9.508 -0.0324 -0.0020  0.6055
   17MOL0     C 2200   6.329   1.874   9.381  0.8321 -0.3040  0.4848
   17MOL0     C 2201   6.463   1.939   9.400  0.2859 -0.2814  0.0602
   17MOL0     C 2202   6.562   1.873   9.299 -0.7599  0.4636  0.0023
   17MOL0     C 2203   6.695   1.949   9.299  0.2965 -0.1336 -0.6757
   17MOL0    Cl 2204   6.735   1.991   9.480 -0.5421  0.4303  0.2904
   17MOL0     C 2205   5.594   1.805   9.472 -0.4976 -0.9246  0.4916
   17MOL0     C 2206   5.460   1.808   9.438  0.0723  0.2539 -0.1782
   17MOL0     O 2207   5.208   1.710   9.323  0.6424  0.1364  0.3700
   17MOL0     C 2208   4.988   1.992   9.270  0.2903 -0.2866  0.3913
   17MOL0     C 2209   4.856   2.020   9.250  1.3766  0.0528  0.4353
   17MOL0     N 2210   4.264   2.347   9.260 -0.0199  0.2585  1.0783
   17MOL0     N 2211   4.196   2.449   9.220 -0.0272  0.3573 -0.3671
   17MOL0     C 2212   2.983   3.053   9.476  0.2211  0.7109  0.2333
   17MOL0     C 2213   2.849   3.055   9.516 -0.4931 -0.1454 -0.8637
   17MOL0     C 2214   2.415   2.848   9.533  0.9564 -0.3023 -0.7656
   17MOL0     C 2215   2.370   2.941   9.629  1.3376  0.5644 -0.0349
   17MOL0     C 2216   2.230   2.950   9.660  0.3289 -0.3180  0.2653
   17MOL0     C 2217   2.138   2.865   9.600 -0.1279 -0.4017  0.3426
   17MOL0     O 2218   2.011   2.886   9.637 -0.0415  0.0062 -0.4714
   17MOL0     C 2219   1.912   2.822   9.561  0.8378 -0.0181  0.8040
   17MOL0     C 2220   1.771   2.840   9.621  0.1205  0.1527 -0.0412
   17MOL0     C 2221   1.722   2.986   9.601 -0.0756 -0.1537  0.3124
   17MOL0     C 2222   1.572   3.017   9.627 -0.0405  0.1190  0.5586
   17MOL0     C 2223   1.494   2.942   9.521  0.4521 -0.9178 -0.7656
   17MOL0     C 2224   1.415   2.895   9.447 -0.5170  0.8395  0.5137
   17MOL0     C 2225   2.185   2.770   9.509  0.7068 -0.1278  0.0006
   17MOL0     C 2226   2.318   2.761   9.470  0.9987 -0.2600 -0.8048
   17MOL0     C 2227   2.344   2.656   9.364  0.8130 -0.5085  0.1749
   17MOL0     H 2228   2.752   2.796   9.328 -1.0593  0.6331  1.8983
   17MOL0     H 2229   2.992   2.791   9.270 -0.4333  0.3932 -0.7345
   17MOL0     H 2230   3.210   2.766   9.452 -1.5284  1.3699 -0.2343
   17MOL0     H 2231   3.215   2.774   9.279 -3.3752  1.9197 -0.0517
   17MOL0     H 2232   3.411   2.916   9.451 -0.1719  1.8398 -1.7938
   17MOL0     H 2233   3.416   2.914   9.270  2.3194  0.8016  0.7476
   17MOL0     H 2234   3.428   2.653   9.288 -2.0869 -1.9288  2.9345
   17MOL0     H 2235   3.433   2.671   9.460  0.3351  2.4625  2.7619
   17MOL0     H 2236   3.624   2.781   9.238 -1.7312  0.1398  0.7009
   17MOL0     H 2237   3.634   2.828   9.410  1.1777  0.7297 -0.5428
   17MOL0     H 2238   3.688   2.568   9.442 -0.5712  1.2240  1.2413
   17MOL0     H 2239   3.653   2.544   9.274 -0.7185 -0.1103 -0.2066
   17MOL0     H 2240   3.837   2.732   9.231 -1.9301  0.5403 -0.1147
   17MOL0     H 2241   3.861   2.739   9.399 -0.5287  0.4370 -1.8868
   17MOL0     H 2242   3.914   2.485   9.396 -0.0795  0.5307  0.0347
   17MOL0     H 2243   4.040   2.598   9.346 -0.0620  1.1132 -1.8605
   17MOL0     H 2244   3.872   2.406   9.170 -1.0254  1.9434 -2.6026
   17MOL0     H 2245   3.944   2.545   9.098  0.3815 -0.9637 -1.0035
   17MOL0     H 2246   3.987   2.191   9.181  0.9548 -1.8097 -0.7529
   17MOL0     H 2247   4.200   2.105   9.416  1.0734 -0.8570 -0.2737
   17MOL0     H 2248   4.141   2.017   9.277 -0.3415  0.3127 -0.0338
   17MOL0     H 2249   4.358   2.046   9.160  0.5951 -1.7636  0.2962
   17MOL0     H 2250   4.430   2.124   9.292 -1.0768  0.2936 -1.0373
   17MOL0     H 2251   4.309   1.843   9.347  0.5146 -2.1570  0.6066
   17MOL0     H 2252   4.407   1.947   9.445 -3.1747  0.6183  0.4892
   17MOL0     H 2253   4.508   1.806   9.196 -0.1687  1.9542 -0.9039
   17MOL0     H 2254   4.540   1.782   9.375 -1.6718 -0.6754 -0.3076
   17MOL0     H 2255   4.736   1.721   9.343  1.1990 -1.0716 -0.2663
   17MOL0     H 2256   4.974   1.674   9.344  3.3594  1.7234  1.2327
   17MOL0     H 2257   5.435   2.100   9.277  1.3858  0.4265 -1.4328
   17MOL0     H 2258   5.696   2.082   9.319 -1.4273  0.7085  0.3277
   17MOL0     H 2259   5.799   1.821   9.657  0.7875 -3.3685  0.7346
   17MOL0     H 2260   5.858   1.723   9.528 -0.2858  0.0026  0.4183
   17MOL0     H 2261   6.021   1.958   9.632  1.3057 -0.3498  0.5455
   17MOL0     H 2262   6.032   1.801   9.695 -0.7412  3.1237  1.1953
   17MOL0     H 2263   6.111   1.717   9.475 -2.2593  0.2636 -1.6381
   17MOL0     H 2264   6.053   1.867   9.401 -0.3701  2.6232  1.5429
   17MOL0     H 2265   6.297   1.835   9.590  1.3286 -0.3106 -0.4371
   17MOL0     H 2266   6.227   1.986   9.547  2.0670  1.1457 -1.2383
   17MOL0     H 2267   6.270   1.925   9.304  1.3840  2.5088  1.8196
   17MOL0     H 2268   6.333   1.767   9.355  1.0366 -0.2427  0.2584
   17MOL0     H 2269   6.459   2.046   9.377 -2.1359 -0.1558  0.7677
   17MOL0     H 2270   6.494   1.926   9.504 -2.3695 -1.3006  0.8186
   17MOL0     H 2271   6.518   1.865   9.199 -2.6184 -2.9762  0.9567
   17MOL0     H 2272   6.592   1.774   9.333 -4.8760 -0.7479  0.5869
   17MOL0     H 2273   6.777   1.881   9.274  3.0077  1.9976  1.6888
   17MOL0     H 2274   6.686   2.038   9.235 -0.9499  1.2030  1.2461
   17MOL0     H 2275   5.636   1.722   9.529 -0.0084 -0.8559  0.2327
   17MOL0     H 2276   5.397   1.723   9.465 -0.0614  0.4743  0.2185
   17MOL0     H 2277   5.063   2.066   9.243 -0.8095 -0.0720 -2.5013
   17MOL0     H 2278   4.822   2.116   9.212 -0.1966 -0.2599  0.9822
   17MOL0     H 2279   3.056   3.123   9.516 -0.1214  1.9270 -1.1753
   17MOL0     H 2280   2.806   3.134   9.576 -1.7080 -2.5220  1.6338
   17MOL0     H 2281   2.427   3.023   9.671 -1.0719  2.9255 -1.0989
   17MOL0     H 2282   2.199   3.034   9.721  1.3314 -1.3045  2.2126
   17MOL0     H 2283   1.931   2.714   9.562  2.1017  0.1928  0.9409
   17MOL0     H 2284   1.913   2.855   9.457 -1.1753  0.4277  0.8920
   17MOL0     H 2285   1.770   2.815   9.727  1.7302 -1.9774 -0.4615
   17MOL0     H 2286   1.713   2.764   9.567  1.9962 -0.6271 -1.0531
   17MOL0     H 2287   1.746   3.017   9.499 -2.7796  0.1501 -0.3105
   17MOL0     H 2288   1.773   3.052   9.672  0.2510  1.4193 -1.3038
   17MOL0     H 2289   1.550   2.979   9.727  3.4325  1.1313  1.8562
   17MOL0     H 2290   1.539   3.121   9.624 -2.0271 -0.4892 -1.6131
   17MOL0     H 2291   1.343   2.839   9.391  0.4022 -0.5709  0.6889
   17MOL0     H 2292   2.111   2.717   9.450 -0.9391  0.5190  1.3983
   17MOL0     H 2293   2.325   2.551   9.389  0.9816 -0.4161  0.6963
   17MOL0     H 2294   2.291   2.688   9.274 -0.3971  1.6019  1.5548
   17MOL0     H 2295   2.451   2.668   9.344  0.8478  0.4363  0.8982
   18MOL0     O 2296   7.707   3.439   4.142 -0.5545 -0.3126  0.6351
   18MOL0     C 2297   7.638   3.338   4.136 -0.2229  0.4802  0.6246
   18MOL0     O 2298   7.689   3.208   4.119  0.7807 -0.3882  0.1185
   18MOL0     C 2299   7.818   3.179   4.080 -0.5804 -0.9562 -0.2099
   18MOL0     C 2300   7.892   3.076   4.139 -0.8044  0.2399 -0.4382
   18MOL0     C 2301   8.013   3.042   4.085 -0.1684 -0.3963 -0.5789
   18MOL0     C 2302   8.069   3.106   3.971 -0.4827 -1.3119 -0.1101
   18MOL0     O 2303   8.185   3.067   3.917 -0.6360 -0.5443  0.1522
   18MOL0     C 2304   8.285   3.172   3.885 -0.6857  0.7061  0.0012
   18MOL0     C 2305   8.423   3.107   3.921 -0.0267 -0.2745  0.1857
   18MOL0     C 2306   8.441   3.050   4.067  0.2357 -0.2947  0.4437
   18MOL0     C 2307   8.567   2.961   4.083  0.0469 -0.4854 -0.0325
   18MOL0     C 2308   8.583   2.921   4.227 -0.6791 -0.2254 -0.2873
   18MOL0     C 2309   8.704   2.821   4.249 -0.2798 -0.1921 -1.7841
   18MOL0     C 2310   8.834   2.868   4.171  0.8661 -0.1667  0.5979
   18MOL0     C 2311   8.963   2.811   4.246 -0.6040 -0.2717 -0.6323
   18MOL0     N 2312   9.087   2.819   4.165  0.0901 -0.5805 -0.1599
   18MOL0     C 2313   9.217   2.826   4.218 -0.5744  1.0462  0.3010
   18MOL0     C 2314   9.300   2.852   4.113  0.8835  0.2599  0.0511
   18MOL0     C 2315   9.445   2.866   4.101 -0.2214  0.0947 -0.4475
   18MOL0     C 2316   9.486   2.976   3.991 -0.0969 -0.2400  0.4788
   18MOL0     C 2317   9.637   2.959   3.969 -0.3458  0.2279  0.3339
   18MOL0     C 2318   9.685   2.889   3.846 -0.6074 -0.0213  0.2386
   18MOL0     O 2319   9.830   2.908   3.833  0.2601  0.1786  0.0447
   18MOL0     C 2320   9.917   2.844   3.913  0.2947 -0.3605 -0.2930
   18MOL0     C 2321  10.042   2.909   3.936  0.7642  1.2758  0.5295
   18MOL0     C 2322  10.142   2.847   4.009  0.3419 -0.0439  0.2113
   18MOL0     C 2323  10.118   2.722   4.062  0.0691 -0.8659 -0.0220
   18MOL0     C 2324  10.230   2.656   4.133 -0.2749  0.3474 -0.3145
   18MOL0     O 2325  10.208   2.529   4.178 -1.1007  0.0251 -0.5126
   18MOL0     C 2326  10.302   2.436   4.213  0.0253  0.6107 -0.1070
   18MOL0     C 2327  10.393   2.450   4.316 -0.9318 -0.9259 -0.3188
   18MOL0     C 2328  10.484   2.346   4.342 -0.2634 -0.2322 -0.4529
   18MOL0     C 2329  10.466   2.217   4.273 -0.5990 -0.6717 -0.1605
   18MOL0     O 2330  10.552   2.126   4.318 -0.5872  0.8968 -0.0599
   18MOL0     C 2331  10.559   1.996   4.257  0.6620  0.1737 -0.1078
   18MOL0     C 2332  10.667   1.919   4.321 -0.3679 -0.2381 -1.2648
   18MOL0     C 2333  10.651   1.922   4.475  0.4134  0.2078 -0.8479
   18MOL0     C 2334  10.775   1.850   4.525 -0.7368 -0.0734  0.4053
   18MOL0     C 2335  10.799   1.809   4.670 -0.9182 -0.0788 -0.8495
   18MOL0     C 2336  10.672   1.751   4.729  0.6626  0.2353 -0.8732
   18MOL0     C 2337  10.667   1.730   4.879  0.2299 -0.5957  0.1054
   18MOL0     C 2338  10.788   1.663   4.939 -1.0789 -1.2303 -0.0093
   18MOL0    Cl 2339  10.938   1.767   4.944 -0.1030  0.1308  0.0048
   18MOL0     C 2340  10.366   2.209   4.185 -0.0987  0.9138  1.1540
   18MOL0     C 2341  10.292   2.313   4.149  0.2053  0.0869 -0.2859
   18MOL0     O 2342  10.333   2.710   4.146 -0.3821  0.3684  0.3332
   18MOL0     C 2343   9.995   2.652   4.033 -0.5237 -0.4732  0.8118
   18MOL0     C 2344   9.894   2.718   3.961  0.6778 -0.0785  0.1392
   18MOL0     N 2345   9.221   2.853   4.003  0.3072 -0.6690 -0.5875
   18MOL0     N 2346   9.091   2.832   4.030 -0.5066  0.0495 -0.1058
   18MOL0     C 2347   7.998   3.212   3.915 -0.0415  0.4856 -0.5254
   18MOL0     C 2348   7.875   3.256   3.975 -0.0114 -0.3973  0.6373
   18MOL0     C 2349   7.488   3.356   4.154 -0.0338 -0.7670 -0.1658
   18MOL0     C 2350   7.396   3.250   4.123 -1.2071 -0.1453 -0.2305
   18MOL0     C 2351   7.261   3.264   4.146  0.2938 -0.5672  0.0882
   18MOL0     C 2352   7.202   3.374   4.213 -0.7787  0.4968  0.0551
   18MOL0     O 2353   7.071   3.366   4.236  0.2727 -0.4133  0.1064
   18MOL0     C 2354   7.001   3.487   4.286 -0.2808  0.0499  1.0895
   18MOL0     C 2355   6.983   3.591   4.175  0.2504 -0.1504 -0.0091
   18MOL0     C 2356   6.905   3.538   4.043 -0.8140 -0.0991 -0.1903
   18MOL0     C 2357   6.785   3.447   4.078 -0.6658  0.5068  0.0915
   18MOL0     C 2358   6.684   3.514   4.159 -0.5267  0.3656 -0.5474
   18MOL0     C 2359   6.602   3.576   4.226  0.7342 -0.5966 -0.4512
   18MOL0     C 2360   7.296   3.469   4.250 -0.0597 -0.2581  0.4405
   18MOL0     C 2361   7.436   3.467   4.229  0.1024 -0.0916  0.1836
   18MOL0     C 2362   7.512   3.587   4.277 -0.7103 -0.0135  0.0827
   18MOL0     H 2363   7.850   3.011   4.215  1.4970 -0.7168  0.1231
   18MOL0     H 2364   8.064   2.958   4.132 -1.2027 -1.1512 -0.7566
   18MOL0     H 2365   8.279   3.205   3.781 -1.6046 -1.5921 -0.7382
   18MOL0     H 2366   8.274   3.266   3.938 -0.3516 -0.0086  1.3877
   18MOL0     H 2367   8.497   3.183   3.896  0.9296 -1.1375  0.3027
   18MOL0     H 2368   8.441   3.020   3.857 -2.5494 -1.3825  0.8275
   18MOL0     H 2369   8.359   2.985   4.096  0.7829 -0.3751  1.8727
   18MOL0     H 2370   8.444   3.125   4.146  1.8476 -0.4472  0.5691
   18MOL0     H 2371   8.562   2.877   4.014  0.3032 -1.7115  1.3794
   18MOL0     H 2372   8.653   3.020   4.048 -0.7489 -0.1393 -1.4423
   18MOL0     H 2373   8.592   3.011   4.288 -2.8996 -1.3474  1.8948
   18MOL0     H 2374   8.493   2.878   4.273  0.3785  1.0266  3.2797
   18MOL0     H 2375   8.731   2.804   4.354 -2.7237 -0.6766 -1.1732
   18MOL0     H 2376   8.682   2.724   4.203  1.6992 -0.5809 -1.9782
   18MOL0     H 2377   8.840   2.977   4.185  5.0349 -0.4968  2.6463
   18MOL0     H 2378   8.826   2.852   4.063  2.9955 -1.2171  0.5659
   18MOL0     H 2379   8.989   2.854   4.343  3.1804 -2.3367 -0.5137
   18MOL0     H 2380   8.950   2.702   4.256 -0.1669 -0.1606  1.6936
   18MOL0     H 2381   9.237   2.817   4.325 -1.1191 -1.8580  0.2454
   18MOL0     H 2382   9.483   2.889   4.201  1.0861 -1.7544 -0.4866
   18MOL0     H 2383   9.484   2.772   4.061 -0.6185  0.6658 -2.2597
   18MOL0     H 2384   9.435   2.969   3.895 -1.0817  1.2719  0.8683
   18MOL0     H 2385   9.464   3.076   4.030 -2.4111  0.0387 -1.3203
   18MOL0     H 2386   9.681   2.902   4.052  0.0317 -1.9654 -1.2935
   18MOL0     H 2387   9.679   3.059   3.965 -0.9893  0.5200  0.6324
   18MOL0     H 2388   9.635   2.934   3.760 -0.7764 -2.2023 -0.8654
   18MOL0     H 2389   9.654   2.784   3.842  2.8389 -1.1323 -0.6373
   18MOL0     H 2390  10.065   3.010   3.905  1.8585  0.5128 -1.3062
   18MOL0     H 2391  10.226   2.913   4.028 -1.1005  2.3699 -1.1177
   18MOL0     H 2392  10.422   2.549   4.351  1.6913 -1.7167 -0.0579
   18MOL0     H 2393  10.569   2.360   4.408  0.6283  0.5114 -1.7234
   18MOL0     H 2394  10.470   1.935   4.274  1.6451 -1.7975 -1.6065
   18MOL0     H 2395  10.579   2.001   4.150  1.4409 -0.7385 -0.0207
   18MOL0     H 2396  10.678   1.821   4.273  1.9910 -0.0678 -1.2025
   18MOL0     H 2397  10.756   1.979   4.299 -0.8930  1.4798  0.9803
   18MOL0     H 2398  10.644   2.020   4.524 -3.6362  0.7365 -2.1026
   18MOL0     H 2399  10.565   1.860   4.501  0.5604  0.3248 -0.0552
   18MOL0     H 2400  10.861   1.904   4.484 -1.2448  0.5163  0.1058
   18MOL0     H 2401  10.776   1.754   4.474  0.8639  0.0628  0.1118
   18MOL0     H 2402  10.833   1.898   4.724 -0.9561 -1.0176  0.7785
   18MOL0     H 2403  10.866   1.724   4.676 -1.0398 -0.1878 -1.0282
   18MOL0     H 2404  10.586   1.815   4.707 -1.0650 -1.5472  0.2959
   18MOL0     H 2405  10.663   1.654   4.679  0.1766 -0.0432 -0.2726
   18MOL0     H 2406  10.581   1.664   4.891  0.8895 -1.4547  0.1866
   18MOL0     H 2407  10.639   1.826   4.925  0.0774  0.4694 -2.0986
   18MOL0     H 2408  10.758   1.667   5.044 -3.5775 -1.2963 -0.6611
   18MOL0     H 2409  10.809   1.562   4.902 -0.7035 -0.5877 -1.6802
   18MOL0     H 2410  10.344   2.110   4.146 -1.6032  1.0064  1.6922
   18MOL0     H 2411  10.213   2.298   4.076  0.7335  1.2903 -1.1344
   18MOL0     H 2412   9.979   2.554   4.077 -2.1114 -0.1888  0.9412
   18MOL0     H 2413   9.793   2.678   3.960 -0.0286  1.5900  0.5908
   18MOL0     H 2414   8.029   3.256   3.821  0.9226  2.1187  0.5129
   18MOL0     H 2415   7.826   3.343   3.933  2.6884 -0.1469 -2.3424
   18MOL0     H 2416   7.438   3.156   4.088  0.6346  0.3751  0.4645
   18MOL0     H 2417   7.195   3.178   4.134  1.3477 -1.2862 -0.8364
   18MOL0     H 2418   7.054   3.522   4.375  2.3421  0.4382 -0.5219
   18MOL0     H 2419   6.899   3.464   4.318 -1.5080  4.2547  0.7562
   18MOL0     H 2420   7.082   3.635   4.156 -0.0983  0.2947 -0.8536
   18MOL0     H 2421   6.927   3.673   4.220 -1.3875 -1.3629  0.2723
   18MOL0     H 2422   6.974   3.486   3.977  0.1521  1.6539 -0.6295
   18MOL0     H 2423   6.869   3.622   3.983 -0.3310  0.4323  0.2449
   18MOL0     H 2424   6.741   3.405   3.986  1.0662  1.5811 -1.3010
   18MOL0     H 2425   6.828   3.362   4.131  2.1000  0.9795 -1.2033
   18MOL0     H 2426   6.544   3.625   4.301  0.9798 -0.8046 -0.1209
   18MOL0     H 2427   7.252   3.553   4.302 -2.1137 -0.9594 -0.0919
   18MOL0     H 2428   7.586   3.564   4.354 -0.3258  1.3972  0.1625
   18MOL0     H 2429   7.565   3.625   4.190  0.2575 -1.8546 -0.1963
   18MOL0     H 2430   7.448   3.661   4.326  0.8973  0.5146  1.4912
   19MOL0     O 2431   3.540   6.165   6.390  0.0467 -0.3368 -0.5796
   19MOL0     C 2432   3.530   6.122   6.505 -0.0414  1.5659 -0.1529
   19MOL0     O 2433   3.632   6.068   6.584  0.6211  0.1238 -0.1548
   19MOL0     C 2434   3.752   6.092   6.544  0.1725  0.8156  0.6305
   19MOL0     C 2435   3.807   6.204   6.591  0.6125 -1.3132  0.3569
   19MOL0     C 2436   3.940   6.238   6.546  0.3903  0.5165 -0.1022
   19MOL0     C 2437   4.007   6.166   6.447  0.8471  0.5534  0.0533
   19MOL0     O 2438   4.129   6.210   6.407 -0.5358 -0.2017  0.2486
   19MOL0     C 2439   4.159   6.269   6.279 -0.6781  0.0014 -0.0494
   19MOL0     C 2440   4.306   6.285   6.247 -0.1726 -0.5772  0.8384
   19MOL0     C 2441   4.338   6.373   6.114 -0.7369 -0.5378  0.2285
   19MOL0     C 2442   4.455   6.466   6.144  0.1437  0.6637 -0.2370
   19MOL0     C 2443   4.495   6.559   6.020  0.2003  0.5595  0.1677
   19MOL0     C 2444   4.606   6.655   6.058  0.1157 -0.0370  0.3450
   19MOL0     C 2445   4.644   6.730   5.931 -0.3690  0.4164  0.5261
   19MOL0     C 2446   4.756   6.842   5.971  1.0875  0.4862  0.1879
   19MOL0     N 2447   4.884   6.774   6.000  0.0465 -0.5604  0.8926
   19MOL0     C 2448   4.967   6.727   5.899 -0.6370  0.5546 -0.5896
   19MOL0     C 2449   5.089   6.702   5.961  0.6489  0.3929  0.6007
   19MOL0     C 2450   5.219   6.661   5.898  0.3466  0.0435  1.0577
   19MOL0     C 2451   5.343   6.643   5.989  0.3651 -0.3203 -0.4541
   19MOL0     C 2452   5.476   6.620   5.907 -0.4843 -1.0915  0.3365
   19MOL0     C 2453   5.603   6.615   5.996  0.4886  0.6455 -0.6624
   19MOL0     O 2454   5.719   6.591   5.922 -0.7393  0.5017 -0.0946
   19MOL0     C 2455   5.837   6.592   5.988  1.2918 -0.1370  0.0818
   19MOL0     C 2456   5.862   6.649   6.114  0.2292  0.5084 -0.6183
   19MOL0     C 2457   5.985   6.629   6.174  0.6876 -0.0699 -0.3644
   19MOL0     C 2458   6.093   6.574   6.107  0.2470 -0.0458 -0.0150
   19MOL0     C 2459   6.225   6.572   6.178 -0.0338 -0.4977 -0.0029
   19MOL0     O 2460   6.342   6.541   6.103  0.2859  0.3830 -0.2546
   19MOL0     C 2461   6.462   6.522   6.170  0.0800  0.1955 -0.7542
   19MOL0     C 2462   6.530   6.398   6.183 -0.5519  0.3348 -0.7532
   19MOL0     C 2463   6.647   6.392   6.248 -0.0864  0.5683  0.5647
   19MOL0     C 2464   6.700   6.503   6.311 -1.1459 -0.9359  0.4653
   19MOL0     O 2465   6.815   6.501   6.393 -0.4994  0.6895  0.1025
   19MOL0     C 2466   6.919   6.412   6.355 -0.1411 -0.6456  0.1970
   19MOL0     C 2467   7.048   6.487   6.396 -0.2809 -0.1805  0.2142
   19MOL0     C 2468   7.072   6.620   6.325 -1.0727  0.1171  0.2332
   19MOL0     C 2469   7.106   6.584   6.172 -0.2160  0.7660 -1.1710
   19MOL0     C 2470   7.242   6.519   6.143 -0.0627  0.8685 -0.2090
   19MOL0     C 2471   7.354   6.604   6.180  1.5244  0.6421  0.0705
   19MOL0     C 2472   7.478   6.520   6.168  0.0551  0.3432  0.0311
   19MOL0     C 2473   7.582   6.568   6.263  0.0422  0.4887  0.1228
   19MOL0    Cl 2474   7.656   6.716   6.184  0.1081 -0.0141  0.1096
   19MOL0     C 2475   6.634   6.625   6.308 -0.0481 -0.0271  0.3322
   19MOL0     C 2476   6.520   6.642   6.226  0.2786  0.1692  0.4838
   19MOL0     O 2477   6.222   6.619   6.294  0.1757  0.6218 -0.1474
   19MOL0     C 2478   6.066   6.512   5.976 -0.0010 -0.4393 -0.2540
   19MOL0     C 2479   5.938   6.536   5.924 -0.6955 -0.0497  0.4459
   19MOL0     N 2480   5.072   6.737   6.097 -0.4449  0.3282 -0.4055
   19MOL0     N 2481   4.954   6.786   6.118  0.8406 -0.1798  0.3172
   19MOL0     C 2482   3.943   6.049   6.402 -0.0341  0.5838 -0.1985
   19MOL0     C 2483   3.821   6.013   6.453  0.2409  0.2477  0.0752
   19MOL0     C 2484   3.393   6.108   6.559 -0.6961  0.1257  0.4310
   19MOL0     C 2485   3.295   6.073   6.479  0.7708 -0.5822  0.9238
   19MOL0     C 2486   3.166   6.065   6.523 -0.2708 -0.2558 -0.2543
   19MOL0     C 2487   3.129   6.104   6.652  0.3794 -0.1648  1.2203
   19MOL0     O 2488   3.004   6.095   6.691  0.9263  0.1544  0.0856
   19MOL0     C 2489   2.954   6.204   6.770  0.3679 -0.0652 -0.0527
   19MOL0     C 2490   2.919   6.157   6.908  0.3242 -0.0022  0.1833
   19MOL0     C 2491   2.816   6.039   6.906  0.2595 -1.3953 -0.5500
   19MOL0     C 2492   2.735   6.037   7.037 -0.1150 -0.6868  0.7622
   19MOL0     C 2493   2.649   5.920   7.045  0.4392  0.4266  0.7802
   19MOL0     C 2494   2.579   5.820   7.063  0.8988 -0.6656  0.4374
   19MOL0     C 2495   3.232   6.136   6.744 -0.3313 -0.3258  0.1646
   19MOL0     C 2496   3.364   6.139   6.697  0.0211  0.0465 -0.4791
   19MOL0     C 2497   3.475   6.201   6.787  0.5757  0.0979 -0.3500
   19MOL0     H 2498   3.750   6.275   6.650  0.4579 -1.9381  0.9630
   19MOL0     H 2499   3.981   6.337   6.564 -1.0158  1.3512 -1.2662
   19MOL0     H 2500   4.124   6.202   6.200 -0.5823 -0.1268  0.0165
   19MOL0     H 2501   4.106   6.365   6.270  0.3471  0.5882  0.0065
   19MOL0     H 2502   4.362   6.190   6.245  1.8639  0.5629  0.1452
   19MOL0     H 2503   4.364   6.333   6.326  0.6660  0.2886 -0.2642
   19MOL0     H 2504   4.247   6.422   6.079  1.3376  1.8329 -2.2661
   19MOL0     H 2505   4.373   6.317   6.028  0.9691  1.1575 -0.2564
   19MOL0     H 2506   4.417   6.534   6.221 -0.1452 -1.2947  1.4121
   19MOL0     H 2507   4.539   6.415   6.192 -1.3101 -1.9943 -0.3564
   19MOL0     H 2508   4.536   6.490   5.946  1.7167  0.3434  1.1698
   19MOL0     H 2509   4.407   6.613   5.984 -1.2086 -3.5061 -3.3505
   19MOL0     H 2510   4.575   6.733   6.127  0.4369 -0.3205  0.8129
   19MOL0     H 2511   4.695   6.603   6.095  1.7515  1.1393 -1.6982
   19MOL0     H 2512   4.566   6.788   5.882  0.0861 -0.6655 -1.5720
   19MOL0     H 2513   4.684   6.666   5.852 -0.8744 -0.9236  1.3072
   19MOL0     H 2514   4.771   6.909   5.887 -3.3816 -0.4469 -1.6617
   19MOL0     H 2515   4.706   6.891   6.055 -3.0342  0.0465 -1.7522
   19MOL0     H 2516   4.945   6.707   5.794 -2.0014  0.4674 -0.2969
   19MOL0     H 2517   5.207   6.579   5.826  0.4746  1.4982 -0.6971
   19MOL0     H 2518   5.251   6.742   5.833  0.2706 -0.7083  0.0524
   19MOL0     H 2519   5.339   6.731   6.055 -2.5662 -0.0315 -0.8547
   19MOL0     H 2520   5.320   6.551   6.044  1.8112 -0.4850 -0.1051
   19MOL0     H 2521   5.483   6.706   5.840 -0.3705 -0.3071  1.3412
   19MOL0     H 2522   5.471   6.527   5.849  2.0205 -1.6710  0.9450
   19MOL0     H 2523   5.580   6.539   6.072 -1.6673  1.9221  0.0720
   19MOL0     H 2524   5.614   6.712   6.046  0.4095  0.3099  0.0156
   19MOL0     H 2525   5.785   6.699   6.173  0.0329 -0.5323  0.0232
   19MOL0     H 2526   5.998   6.658   6.278 -0.2055  1.2314 -0.5985
   19MOL0     H 2527   6.477   6.311   6.146  1.7658 -1.4371 -0.1795
   19MOL0     H 2528   6.695   6.295   6.249  1.1731  1.0566 -2.1677
   19MOL0     H 2529   6.907   6.318   6.409 -4.5290 -0.3883  0.0351
   19MOL0     H 2530   6.921   6.380   6.250  0.3437 -0.7017  0.2217
   19MOL0     H 2531   7.035   6.509   6.502  0.1426 -2.2773  0.7460
   19MOL0     H 2532   7.135   6.421   6.393  1.7331  2.1985  2.3331
   19MOL0     H 2533   6.977   6.671   6.343 -1.2706 -0.5143  1.0518
   19MOL0     H 2534   7.148   6.686   6.368 -1.6661  3.4323 -3.3416
   19MOL0     H 2535   7.117   6.684   6.130 -1.4737  0.8455 -1.3586
   19MOL0     H 2536   7.029   6.526   6.119  0.1854 -0.3394 -0.5860
   19MOL0     H 2537   7.251   6.507   6.035  1.8878 -1.1498  0.0923
   19MOL0     H 2538   7.251   6.421   6.191  0.4391  0.9323 -0.1583
   19MOL0     H 2539   7.363   6.688   6.112 -1.4896 -1.4598 -3.3232
   19MOL0     H 2540   7.333   6.645   6.279 -2.7359  0.0473 -0.3912
   19MOL0     H 2541   7.502   6.530   6.062 -0.2347 -1.7208 -0.2734
   19MOL0     H 2542   7.452   6.415   6.185 -0.8322  0.5696  0.1399
   19MOL0     H 2543   7.548   6.587   6.365  0.0995 -1.9603  0.6627
   19MOL0     H 2544   7.662   6.494   6.273  1.7329  2.4372  2.4735
   19MOL0     H 2545   6.671   6.699   6.379  2.1485 -2.2474  1.6615
   19MOL0     H 2546   6.456   6.729   6.219  0.1853  0.1261  0.7999
   19MOL0     H 2547   6.137   6.468   5.907  0.5063 -1.6209  0.9641
   19MOL0     H 2548   5.912   6.485   5.832  1.1655 -1.8659  0.8510
   19MOL0     H 2549   3.995   5.983   6.333 -1.1092  1.0438 -1.4896
   19MOL0     H 2550   3.787   5.917   6.418  0.5308  0.1410  0.0800
   19MOL0     H 2551   3.297   6.041   6.376 -2.8957  0.9525  0.2133
   19MOL0     H 2552   3.096   6.012   6.458  0.1306  1.3319 -2.0876
   19MOL0     H 2553   2.867   6.245   6.718  0.2786  2.1248  1.6677
   19MOL0     H 2554   3.037   6.275   6.777  1.1149 -0.9927  0.7321
   19MOL0     H 2555   2.888   6.244   6.966  2.7232  0.2754  1.1815
   19MOL0     H 2556   3.007   6.125   6.965  2.1285  2.3231 -1.0832
   19MOL0     H 2557   2.874   5.949   6.887  1.8420 -0.6638  0.6232
   19MOL0     H 2558   2.745   6.060   6.825 -1.4771 -0.5453  1.0940
   19MOL0     H 2559   2.810   6.031   7.117 -0.7075 -3.3233  1.1876
   19MOL0     H 2560   2.676   6.130   7.035  0.9702  0.0194  0.2712
   19MOL0     H 2561   2.522   5.739   7.103  1.2040  0.0427  2.4471
   19MOL0     H 2562   3.204   6.165   6.845  0.0856  0.9909 -0.0820
   19MOL0     H 2563   3.536   6.126   6.837 -1.0838 -0.9639  0.1641
   19MOL0     H 2564   3.532   6.273   6.728 -0.1722 -0.7613 -2.2081
   19MOL0     H 2565   3.416   6.253   6.863 -1.4702  0.5281 -2.1289
   20MOL0     O 2566   5.159   4.486   3.273 -0.4796 -0.4714 -0.0808
   20MOL0     C 2567   5.109   4.376   3.276 -0.5189 -0.1490 -0.4611
   20MOL0     O 2568   5.173   4.250   3.246  0.2228  0.8593 -0.1048
   20MOL0     C 2569   5.311   4.262   3.257  0.0680  0.3948  0.1446
   20MOL0     C 2570   5.389   4.264   3.134  0.0812  0.4059  0.9351
   20MOL0     C 2571   5.531   4.267   3.139 -0.0153  0.6341 -0.0179
   20MOL0     C 2572   5.591   4.270   3.261  0.5385 -0.2711  0.5062
   20MOL0     O 2573   5.725   4.269   3.272  0.2753  0.0243  0.3238
   20MOL0     C 2574   5.808   4.254   3.155  0.6158  0.2668 -0.4625
   20MOL0     C 2575   5.953   4.258   3.206  0.3244  0.2167 -0.6828
   20MOL0     C 2576   6.004   4.400   3.242 -0.2162  0.3605 -0.1631
   20MOL0     C 2577   6.155   4.394   3.271 -0.0409  0.2126  0.5119
   20MOL0     C 2578   6.206   4.533   3.299 -0.3435  0.3425  0.5131
   20MOL0     C 2579   6.360   4.530   3.320  0.9776  0.5220 -0.8763
   20MOL0     C 2580   6.430   4.661   3.329  0.0955 -0.3602 -0.4698
   20MOL0     C 2581   6.574   4.653   3.387 -0.6846 -0.2441 -0.0630
   20MOL0     N 2582   6.651   4.602   3.276  0.4357 -0.6529 -0.6758
   20MOL0     C 2583   6.701   4.473   3.271 -0.0883  0.1262 -0.3579
   20MOL0     C 2584   6.756   4.455   3.149 -1.3108 -1.0316  1.4184
   20MOL0     C 2585   6.836   4.337   3.093 -0.2952 -0.0699 -0.3268
   20MOL0     C 2586   6.982   4.353   3.144 -0.7708  0.0981 -0.1245
   20MOL0     C 2587   7.042   4.211   3.132  0.2813 -0.9986  0.4923
   20MOL0     C 2588   7.185   4.200   3.193  0.4028 -0.3713 -0.2888
   20MOL0     O 2589   7.277   4.251   3.094 -0.2466  0.4866 -0.0126
   20MOL0     C 2590   7.408   4.220   3.098 -0.3669 -0.7746  0.2449
   20MOL0     C 2591   7.467   4.208   2.973 -0.6186 -0.1243  0.0966
   20MOL0     C 2592   7.599   4.173   2.964 -0.5049  0.3687 -0.2944
   20MOL0     C 2593   7.682   4.148   3.079 -0.3697  0.6049  0.0478
   20MOL0     C 2594   7.815   4.093   3.053 -0.2598 -0.0933 -0.1524
   20MOL0     O 2595   7.861   4.073   2.926 -0.0777 -0.0803  1.0230
   20MOL0     C 2596   7.975   3.998   2.904 -0.7186 -0.3552  0.6939
   20MOL0     C 2597   8.015   3.881   2.974  0.2425 -0.0765 -1.0448
   20MOL0     C 2598   8.139   3.809   2.936  0.3556 -0.1652  1.0421
   20MOL0     C 2599   8.214   3.866   2.841 -0.8454 -0.0824 -0.2475
   20MOL0     O 2600   8.339   3.814   2.817  0.2107 -0.7029  0.3334
   20MOL0     C 2601   8.368   3.672   2.812 -0.1148 -0.2552  0.7513
   20MOL0     C 2602   8.404   3.619   2.674 -0.8745 -0.4715 -0.1556
   20MOL0     C 2603   8.468   3.474   2.663  0.4944  0.4347  0.3714
   20MOL0     C 2604   8.383   3.388   2.755  0.0941  0.7377 -0.8035
   20MOL0     C 2605   8.394   3.232   2.717  0.2786  0.3250 -0.7255
   20MOL0     C 2606   8.547   3.183   2.716  0.3884  0.0529  0.0998
   20MOL0     C 2607   8.566   3.040   2.654  0.9798  0.1466 -0.4204
   20MOL0     C 2608   8.695   2.976   2.686 -0.5863 -0.4017  0.7231
   20MOL0    Cl 2609   8.711   2.979   2.859  0.1009 -0.0109 -0.4271
   20MOL0     C 2610   8.176   3.984   2.772 -0.3582  0.4688  0.0159
   20MOL0     C 2611   8.058   4.049   2.802  0.0536  0.1327 -0.4929
   20MOL0     O 2612   7.875   4.056   3.157  0.1083 -0.4874 -0.4988
   20MOL0     C 2613   7.627   4.173   3.206  0.1881  0.5897 -0.0641
   20MOL0     C 2614   7.488   4.198   3.213  0.2103 -0.4809  0.5103
   20MOL0     N 2615   6.749   4.577   3.084  0.1111  0.4434 -0.5677
   20MOL0     N 2616   6.679   4.662   3.157  0.7512 -0.0106  0.4301
   20MOL0     C 2617   5.514   4.280   3.376 -0.1680 -1.0146  0.0311
   20MOL0     C 2618   5.374   4.275   3.377 -0.0473 -0.1773  0.2747
   20MOL0     C 2619   4.962   4.375   3.290  0.2989  0.4351 -0.3493
   20MOL0     C 2620   4.897   4.244   3.290  0.1928  0.2831  0.3275
   20MOL0     C 2621   4.765   4.219   3.311 -0.2111 -0.7784 -0.0831
   20MOL0     C 2622   4.684   4.327   3.339 -0.0274  0.3793 -0.0919
   20MOL0     O 2623   4.548   4.308   3.361 -0.0274  1.4003 -0.1782
   20MOL0     C 2624   4.477   4.260   3.246 -0.6674 -0.6159  0.6941
   20MOL0     C 2625   4.486   4.366   3.136  0.2379 -0.4678 -0.4632
   20MOL0     C 2626   4.396   4.345   3.016  1.0224  0.3974 -0.0353
   20MOL0     C 2627   4.413   4.459   2.913  0.2552  0.0266 -0.8021
   20MOL0     C 2628   4.301   4.559   2.938 -0.0949  0.1745  0.6636
   20MOL0     C 2629   4.227   4.656   2.937  0.1844 -0.0424  0.1141
   20MOL0     C 2630   4.734   4.457   3.346 -0.6702  0.3845  0.2482
   20MOL0     C 2631   4.873   4.482   3.314  1.0476  0.3418 -0.0458
   20MOL0     C 2632   4.910   4.624   3.304 -0.5885  0.1422 -0.0326
   20MOL0     H 2633   5.337   4.265   3.039  2.4191  0.5969 -0.4007
   20MOL0     H 2634   5.582   4.269   3.043  1.2400 -1.2363  0.5493
   20MOL0     H 2635   5.784   4.158   3.109  3.0383 -0.6849  0.0971
   20MOL0     H 2636   5.789   4.324   3.073 -2.1979  1.0933  0.7640
   20MOL0     H 2637   6.012   4.233   3.118  0.4319  1.6458 -1.0293
   20MOL0     H 2638   5.956   4.187   3.290 -1.7209  0.8009 -0.0724
   20MOL0     H 2639   5.952   4.450   3.324  0.5667  1.7949 -0.5208
   20MOL0     H 2640   5.991   4.474   3.163  2.4972  2.0916  0.8581
   20MOL0     H 2641   6.161   4.329   3.359  1.0862 -1.3383 -0.6411
   20MOL0     H 2642   6.210   4.343   3.191  0.1464 -0.7081  1.2122
   20MOL0     H 2643   6.184   4.594   3.211  1.9355  2.1261  1.0913
   20MOL0     H 2644   6.150   4.583   3.379 -0.3510  2.6648 -0.8473
   20MOL0     H 2645   6.368   4.465   3.408 -3.1930 -1.8972 -1.9652
   20MOL0     H 2646   6.410   4.465   3.248  1.6467  0.9839 -0.8376
   20MOL0     H 2647   6.375   4.731   3.393  1.3768 -1.1668  1.6080
   20MOL0     H 2648   6.414   4.710   3.232 -1.7297  1.3803  0.6315
   20MOL0     H 2649   6.615   4.747   3.426 -1.2791 -0.4743  1.1800
   20MOL0     H 2650   6.580   4.587   3.474 -2.8636  1.5605  1.5601
   20MOL0     H 2651   6.688   4.393   3.344  0.9826  0.8425  0.6566
   20MOL0     H 2652   6.795   4.244   3.136 -0.8649  0.8338  1.1690
   20MOL0     H 2653   6.829   4.332   2.984 -0.9837  0.4930 -0.3154
   20MOL0     H 2654   7.041   4.424   3.084 -1.0121  0.7732  0.4251
   20MOL0     H 2655   6.988   4.384   3.249  2.2604  2.2823 -0.7820
   20MOL0     H 2656   7.053   4.188   3.026  2.3483  3.8526 -0.5850
   20MOL0     H 2657   6.987   4.134   3.188  0.9034 -0.4906  1.8390
   20MOL0     H 2658   7.211   4.099   3.226 -0.4342 -0.0125  1.6310
   20MOL0     H 2659   7.199   4.261   3.283  0.4021  0.8361 -1.0845
   20MOL0     H 2660   7.404   4.212   2.884  0.1845 -1.5907 -0.5746
   20MOL0     H 2661   7.639   4.160   2.864 -2.7099  0.3176 -1.2334
   20MOL0     H 2662   7.951   3.829   3.045  0.2203 -1.4853 -2.0411
   20MOL0     H 2663   8.189   3.731   2.993 -0.5413 -0.1128  1.9429
   20MOL0     H 2664   8.462   3.659   2.865 -1.0153  1.4108  2.9306
   20MOL0     H 2665   8.286   3.609   2.849 -0.1217 -0.8192 -0.1934
   20MOL0     H 2666   8.313   3.630   2.613 -1.0581  0.6931  0.3005
   20MOL0     H 2667   8.475   3.689   2.628 -1.6876  1.6553  1.6391
   20MOL0     H 2668   8.454   3.446   2.558 -2.8300 -0.3882  0.9292
   20MOL0     H 2669   8.575   3.468   2.681  0.1054 -1.9374  2.3652
   20MOL0     H 2670   8.277   3.414   2.764 -0.0206  0.4308 -1.2028
   20MOL0     H 2671   8.429   3.393   2.854  3.2737 -1.5537 -1.9693
   20MOL0     H 2672   8.356   3.211   2.616  0.7047  1.4868 -1.1411
   20MOL0     H 2673   8.335   3.176   2.790  0.5927  0.2878 -0.4971
   20MOL0     H 2674   8.615   3.252   2.665  2.7570 -4.2987 -3.3189
   20MOL0     H 2675   8.571   3.185   2.823 -1.5017 -3.0269  0.7153
   20MOL0     H 2676   8.569   3.047   2.545  0.6973  0.3075 -0.4172
   20MOL0     H 2677   8.478   2.987   2.690  0.5819  0.9715 -0.1634
   20MOL0     H 2678   8.706   2.873   2.650  1.4948 -0.3365  1.0572
   20MOL0     H 2679   8.775   3.035   2.641 -1.9916  2.7198  1.9711
   20MOL0     H 2680   8.246   4.022   2.698 -0.3890 -0.4730 -0.5169
   20MOL0     H 2681   8.036   4.138   2.743  2.4464  2.2733  1.5824
   20MOL0     H 2682   7.684   4.161   3.298 -0.6192  1.6934  0.6120
   20MOL0     H 2683   7.435   4.200   3.308  1.4651  0.2747  1.2288
   20MOL0     H 2684   5.574   4.293   3.466 -0.7740 -0.1781  0.3228
   20MOL0     H 2685   5.329   4.295   3.474  1.4059 -0.9308  1.1308
   20MOL0     H 2686   4.953   4.153   3.275 -0.6040 -0.4322  1.5237
   20MOL0     H 2687   4.722   4.121   3.298 -0.8694 -0.3918 -0.9629
   20MOL0     H 2688   4.378   4.232   3.283 -1.4576  0.6425 -0.3737
   20MOL0     H 2689   4.533   4.172   3.214  0.5802  0.4702 -0.2556
   20MOL0     H 2690   4.590   4.387   3.110  0.7065  3.3269  3.2591
   20MOL0     H 2691   4.445   4.456   3.184 -0.3099  0.8672 -3.2451
   20MOL0     H 2692   4.291   4.333   3.045  0.8744 -0.7528 -0.9562
   20MOL0     H 2693   4.429   4.262   2.953  0.7130  0.1689  0.0988
   20MOL0     H 2694   4.517   4.492   2.919  0.5108 -0.7163 -1.1055
   20MOL0     H 2695   4.406   4.424   2.810 -2.2337 -2.6053  0.1158
   20MOL0     H 2696   4.153   4.732   2.928 -0.6629 -0.6662  1.3598
   20MOL0     H 2697   4.671   4.539   3.380 -2.6525 -0.3614 -1.4262
   20MOL0     H 2698   4.966   4.652   3.214 -0.3210  0.9124  0.3615
   20MOL0     H 2699   4.823   4.690   3.315 -0.3707  0.4128  0.0979
   20MOL0     H 2700   4.961   4.650   3.398 -0.8476  1.6432 -0.2738
   21MOL0     O 2701   2.950   0.840   0.854  0.0822 -0.5201  0.1204
   21MOL0     C 2702   2.848   0.799   0.801  0.6677 -0.1499 -0.8590
   21MOL0     O 2703   2.809   0.817   0.675 -0.2963  0.4519 -0.0207
   21MOL0     C 2704   2.895   0.886   0.596 -0.1283 -0.8613 -0.0530
   21MOL0     C 2705   2.855   1.012   0.534 -0.0646  0.3958  0.1037
   21MOL0     C 2706   2.944   1.062   0.432  0.2030 -0.5282  0.2462
   21MOL0     C 2707   3.068   0.996   0.405  1.4261 -0.6044 -0.2306
   21MOL0     O 2708   3.169   1.054   0.328  0.5684  0.2147 -0.0982
   21MOL0     C 2709   3.136   1.164   0.243  0.4029 -0.7790  0.0654
   21MOL0     C 2710   3.253   1.179   0.156 -0.5979  0.7278  0.7949
   21MOL0     C 2711   3.273   1.060   0.058  0.5635  0.4009 -0.2209
   21MOL0     C 2712   3.392   1.100  -0.028  1.4461  0.8624 -0.2296
   21MOL0     C 2713   3.419   0.984  -0.134 -0.6091 -0.2554  1.0186
   21MOL0     C 2714   3.563   0.988  -0.155  0.0686 -0.0007  0.6862
   21MOL0     C 2715   3.598   0.893  -0.272  0.0200 -0.4836 -0.5366
   21MOL0     C 2716   3.747   0.852  -0.273  0.1732  0.2806  0.7345
   21MOL0     N 2717   3.778   0.791  -0.407  0.9156  0.1388 -0.3263
   21MOL0     C 2718   3.728   0.678  -0.466 -0.4940  0.0035  0.3958
   21MOL0     C 2719   3.794   0.651  -0.576 -0.3104 -0.2831  0.5217
   21MOL0     C 2720   3.764   0.539  -0.669  0.3167 -0.7958  0.1229
   21MOL0     C 2721   3.617   0.542  -0.722 -0.9938  0.5264 -0.0708
   21MOL0     C 2722   3.575   0.404  -0.778  1.2431 -0.4235 -0.0510
   21MOL0     C 2723   3.433   0.408  -0.826 -0.1241 -0.4622  0.2215
   21MOL0     O 2724   3.394   0.282  -0.891  0.4691 -0.2847  0.4741
   21MOL0     C 2725   3.261   0.254  -0.900 -0.0348  0.5095 -0.6452
   21MOL0     C 2726   3.230   0.128  -0.870 -0.3405  0.8606  0.5262
   21MOL0     C 2727   3.098   0.088  -0.865  0.5668  0.1834  0.9628
   21MOL0     C 2728   2.993   0.168  -0.903  0.3163 -0.7500  0.5767
   21MOL0     C 2729   2.859   0.114  -0.926  0.2754  0.3512 -0.3546
   21MOL0     O 2730   2.760   0.215  -0.947  0.4109 -0.8906 -0.4530
   21MOL0     C 2731   2.627   0.181  -0.951  0.2476  0.8747  0.4075
   21MOL0     C 2732   2.556   0.101  -0.861  0.7332 -0.4298 -0.0779
   21MOL0     C 2733   2.417   0.073  -0.869  0.1720 -0.3208  0.1775
   21MOL0     C 2734   2.336   0.134  -0.971 -0.5759 -0.4322 -0.0716
   21MOL0     O 2735   2.207   0.119  -0.988  1.6058 -0.8546 -0.0027
   21MOL0     C 2736   2.140   0.007  -0.923  0.3327  0.3720 -0.3044
   21MOL0     C 2737   2.003  -0.031  -0.973  0.1377  0.5973 -0.3816
   21MOL0     C 2738   1.906   0.085  -0.957  0.4470  0.0457 -0.8043
   21MOL0     C 2739   1.780   0.051  -1.035  0.8043  0.3153 -0.2120
   21MOL0     C 2740   1.675   0.146  -0.989  0.1516  0.0368 -0.4621
   21MOL0     C 2741   1.555   0.158  -1.079  1.1574  0.1875  0.1619
   21MOL0     C 2742   1.572   0.239  -1.210 -0.5668 -0.3555  0.0658
   21MOL0     C 2743   1.451   0.216  -1.297  0.5585  0.0382 -0.5026
   21MOL0    Cl 2744   1.455   0.323  -1.436 -0.2264  0.4659 -0.0843
   21MOL0     C 2745   2.402   0.226  -1.052  0.3241  0.3922 -0.6147
   21MOL0     C 2746   2.539   0.250  -1.039 -0.6082  0.4716  0.0582
   21MOL0     O 2747   2.835  -0.004  -0.924 -0.0184  0.4831  0.3855
   21MOL0     C 2748   3.026   0.306  -0.927  0.0142  0.2400 -0.3785
   21MOL0     C 2749   3.159   0.352  -0.925 -0.6525  0.8041 -0.4985
   21MOL0     N 2750   3.894   0.754  -0.587  0.2864  0.2869 -0.5822
   21MOL0     N 2751   3.876   0.840  -0.492 -0.0385  0.4955  0.1808
   21MOL0     C 2752   3.108   0.878   0.468 -0.9178 -0.6850 -0.4907
   21MOL0     C 2753   3.018   0.827   0.565  0.2935  0.5289 -0.2744
   21MOL0     C 2754   2.746   0.732   0.895 -0.4975  0.6666  0.2606
   21MOL0     C 2755   2.658   0.632   0.840 -0.3896  0.1604  0.0742
   21MOL0     C 2756   2.555   0.573   0.918 -0.0515 -0.4397  0.1816
   21MOL0     C 2757   2.560   0.598   1.062  0.1097 -0.7024  0.2945
   21MOL0     O 2758   2.465   0.518   1.123 -0.4200 -0.2295 -0.0562
   21MOL0     C 2759   2.457   0.524   1.269  0.0392  0.1177 -0.3352
   21MOL0     C 2760   2.317   0.481   1.312 -0.7246  0.3156 -0.3043
   21MOL0     C 2761   2.295   0.489   1.466 -0.2783  0.4675 -0.2453
   21MOL0     C 2762   2.147   0.457   1.507  0.7852  0.2485 -1.1598
   21MOL0     C 2763   2.111   0.325   1.464 -0.1672 -0.0796 -0.0010
   21MOL0     C 2764   2.080   0.216   1.431  0.3285  0.0400 -0.0547
   21MOL0     C 2765   2.649   0.690   1.117  0.2368 -0.0236 -0.5184
   21MOL0     C 2766   2.733   0.764   1.033 -0.6848 -0.0825 -0.3462
   21MOL0     C 2767   2.812   0.869   1.112 -0.6936 -0.7656  0.4057
   21MOL0     H 2768   2.753   1.049   0.546 -0.3903 -1.2632  3.9998
   21MOL0     H 2769   2.937   1.154   0.374 -0.0752 -0.0167  1.0639
   21MOL0     H 2770   3.042   1.150   0.189 -0.5479  2.4205  0.6614
   21MOL0     H 2771   3.130   1.248   0.312  2.7289 -1.3178  1.0092
   21MOL0     H 2772   3.348   1.195   0.208 -0.0695  1.7245 -0.4016
   21MOL0     H 2773   3.239   1.269   0.096  0.0120  0.5016  0.3006
   21MOL0     H 2774   3.183   1.050  -0.004  1.2133 -1.3051 -0.9420
   21MOL0     H 2775   3.280   0.965   0.111  1.3134  1.0718  0.9177
   21MOL0     H 2776   3.379   1.199  -0.072 -3.1761  0.4228 -0.3065
   21MOL0     H 2777   3.482   1.108   0.034  1.7387 -1.7093 -0.1868
   21MOL0     H 2778   3.381   0.886  -0.104 -0.9366 -1.0047 -1.5786
   21MOL0     H 2779   3.372   1.010  -0.229  0.1770 -2.8224 -0.1631
   21MOL0     H 2780   3.597   1.084  -0.194 -2.2833 -0.7473 -3.8995
   21MOL0     H 2781   3.619   0.959  -0.065  0.3854 -1.7905 -0.0490
   21MOL0     H 2782   3.587   0.945  -0.368  4.5453 -1.9583 -2.1674
   21MOL0     H 2783   3.538   0.802  -0.279  1.1948 -1.2567 -1.0837
   21MOL0     H 2784   3.811   0.936  -0.246 -1.2240  1.4765  0.4349
   21MOL0     H 2785   3.775   0.780  -0.195  0.1355  0.2724  0.7407
   21MOL0     H 2786   3.649   0.609  -0.438  0.2652 -0.5798  1.1674
   21MOL0     H 2787   3.836   0.535  -0.751  3.0978 -3.0704  2.4524
   21MOL0     H 2788   3.776   0.449  -0.608 -1.7877 -1.8639 -0.9486
   21MOL0     H 2789   3.550   0.569  -0.640 -0.3231 -0.8852  0.9965
   21MOL0     H 2790   3.608   0.616  -0.801  1.5126 -0.1329 -1.1006
   21MOL0     H 2791   3.591   0.325  -0.704 -1.5003 -1.2145 -0.1570
   21MOL0     H 2792   3.635   0.379  -0.866  3.2793 -0.1482  1.2200
   21MOL0     H 2793   3.431   0.493  -0.895  1.0534 -0.2370  0.4384
   21MOL0     H 2794   3.360   0.428  -0.747 -1.2214  0.2355 -0.9288
   21MOL0     H 2795   3.306   0.056  -0.842  0.4569  0.6679 -1.8664
   21MOL0     H 2796   3.072  -0.015  -0.843 -1.8203  0.2644 -0.9712
   21MOL0     H 2797   2.625   0.061  -0.787 -0.4570  1.1513  1.9710
   21MOL0     H 2798   2.369   0.017  -0.790  0.7044  1.5392  1.8798
   21MOL0     H 2799   2.201  -0.083  -0.932 -3.0984 -2.0807 -0.9033
   21MOL0     H 2800   2.110   0.023  -0.819 -0.2450  1.5517 -0.6375
   21MOL0     H 2801   2.015  -0.062  -1.078  2.7652 -3.6771  0.9344
   21MOL0     H 2802   1.957  -0.120  -0.930 -0.0181  0.8304 -0.0634
   21MOL0     H 2803   1.885   0.104  -0.851 -0.5957  2.3198 -1.3596
   21MOL0     H 2804   1.943   0.180  -0.995  1.8167  0.6553  1.7771
   21MOL0     H 2805   1.742  -0.051  -1.021 -0.0605  0.8730  1.9101
   21MOL0     H 2806   1.810   0.060  -1.139  2.8861 -1.1947  0.2000
   21MOL0     H 2807   1.715   0.248  -0.988 -1.5802  0.7468  0.0012
   21MOL0     H 2808   1.634   0.122  -0.890 -2.0740  1.2285 -1.0288
   21MOL0     H 2809   1.527   0.059  -1.115  0.9898 -0.2259  1.3796
   21MOL0     H 2810   1.463   0.198  -1.037  0.4005 -1.2605 -0.0669
   21MOL0     H 2811   1.663   0.204  -1.260 -0.5089  1.8859 -1.5181
   21MOL0     H 2812   1.582   0.347  -1.195  3.3509 -0.5196 -0.3156
   21MOL0     H 2813   1.451   0.111  -1.329  0.7874  0.4033 -1.7426
   21MOL0     H 2814   1.361   0.242  -1.241 -0.0834 -1.4694 -0.7984
   21MOL0     H 2815   2.342   0.277  -1.127 -1.4482 -4.0449 -2.5876
   21MOL0     H 2816   2.581   0.320  -1.109  0.5562 -0.8392 -0.6054
   21MOL0     H 2817   2.955   0.388  -0.924  2.6185  2.6327  1.4689
   21MOL0     H 2818   3.194   0.450  -0.956  3.0270 -0.7519 -1.8146
   21MOL0     H 2819   3.203   0.842   0.430  0.1213  2.5107 -1.2789
   21MOL0     H 2820   3.058   0.736   0.610  4.2615  1.7943 -0.8436
   21MOL0     H 2821   2.663   0.600   0.737  2.3669 -2.4940  0.8970
   21MOL0     H 2822   2.490   0.498   0.874  2.6527 -3.3229  0.6863
   21MOL0     H 2823   2.477   0.626   1.304  2.7791 -0.4141 -0.1718
   21MOL0     H 2824   2.527   0.458   1.320 -0.5736 -1.8104 -1.8738
   21MOL0     H 2825   2.303   0.379   1.275 -0.2100  0.1623 -0.0887
   21MOL0     H 2826   2.241   0.541   1.262  0.7231  1.9186 -0.6460
   21MOL0     H 2827   2.316   0.590   1.502 -2.4078  0.1578  2.1086
   21MOL0     H 2828   2.348   0.419   1.531 -1.5363 -1.6806 -1.4082
   21MOL0     H 2829   2.124   0.477   1.612 -0.8034  0.2265 -1.4800
   21MOL0     H 2830   2.080   0.524   1.451 -0.1093 -1.0396 -1.6742
   21MOL0     H 2831   2.045   0.118   1.403 -1.1173  0.7743 -0.8929
   21MOL0     H 2832   2.652   0.713   1.223  1.1187 -0.6405 -0.3996
   21MOL0     H 2833   2.894   0.915   1.057 -1.8726 -0.2213 -0.9587
   21MOL0     H 2834   2.750   0.951   1.150  0.1672 -0.6484  1.6081
   21MOL0     H 2835   2.854   0.823   1.202  1.6176  0.8454  0.2505
   22MOL0     O 2836   2.641   8.529   5.970 -0.1110 -0.0339 -0.3918
   22MOL0     C 2837   2.602   8.616   6.051 -0.1952  0.4245  0.1301
   22MOL0     O 2838   2.688   8.679   6.137 -0.8763 -0.9187 -0.4925
   22MOL0     C 2839   2.821   8.649   6.124  0.1826  0.1301  0.2389
   22MOL0     C 2840   2.910   8.755   6.101 -0.1786  1.0072  0.9737
   22MOL0     C 2841   3.042   8.729   6.084 -0.4573 -0.1482  0.1950
   22MOL0     C 2842   3.088   8.600   6.085 -1.1987  0.8246  0.0453
   22MOL0     O 2843   3.224   8.587   6.087 -0.4952  0.0082  0.2665
   22MOL0     C 2844   3.274   8.462   6.118 -0.3942  0.6792  0.1604
   22MOL0     C 2845   3.427   8.466   6.149 -0.6595 -0.0126  0.5032
   22MOL0     C 2846   3.453   8.518   6.286  0.2309 -0.1093  0.1429
   22MOL0     C 2847   3.601   8.533   6.312 -0.5962 -0.2916  0.2523
   22MOL0     C 2848   3.621   8.608   6.450 -0.1136  1.2538 -0.5385
   22MOL0     C 2849   3.769   8.609   6.502  0.0854  0.1839 -0.3616
   22MOL0     C 2850   3.770   8.687   6.638  0.7179  0.1910 -0.1581
   22MOL0     C 2851   3.905   8.670   6.708 -0.8028 -0.5243  0.3470
   22MOL0     N 2852   4.013   8.738   6.647 -0.2679 -0.3707 -0.5029
   22MOL0     C 2853   4.053   8.873   6.673 -0.2099 -0.1230  0.6595
   22MOL0     C 2854   4.154   8.905   6.589  0.5597  0.0046 -0.0474
   22MOL0     C 2855   4.220   9.033   6.564 -0.4653 -0.5037 -0.0425
   22MOL0     C 2856   4.248   9.120   6.683 -0.4587 -0.0478  0.0810
   22MOL0     C 2857   4.303   9.050   6.804 -0.5849 -0.3029  0.0112
   22MOL0     C 2858   4.448   9.010   6.781  0.1814  0.5830 -0.5111
   22MOL0     O 2859   4.532   9.113   6.720 -0.2214 -0.0788 -0.0574
   22MOL0     C 2860   4.667   9.089   6.713  0.1354 -0.6911 -0.4057
   22MOL0     C 2861   4.744   9.200   6.740  0.1385  0.4054  0.3677
   22MOL0     C 2862   4.884   9.188   6.727 -0.1929  0.6651 -0.2058
   22MOL0     C 2863   4.946   9.075   6.680 -0.8407  0.1428 -1.0822
   22MOL0     C 2864   5.091   9.064   6.647  0.3798  0.3739  0.1189
   22MOL0     O 2865   5.167   9.181   6.661 -0.5131 -0.2842  0.5711
   22MOL0     C 2866   5.303   9.187   6.641 -0.1820  0.2051  0.2624
   22MOL0     C 2867   5.373   9.117   6.537  0.3197  0.3827 -0.4857
   22MOL0     C 2868   5.511   9.137   6.526 -0.4773  0.1813  0.5058
   22MOL0     C 2869   5.577   9.227   6.612 -1.4048 -0.0170  0.0444
   22MOL0     O 2870   5.716   9.233   6.587  0.4240 -1.1059 -0.1081
   22MOL0     C 2871   5.785   9.353   6.618 -0.5713  0.1124  0.1674
   22MOL0     C 2872   5.931   9.328   6.578 -0.6609 -0.4127  0.2200
   22MOL0     C 2873   6.017   9.420   6.666 -0.6502  0.1380 -0.2721
   22MOL0     C 2874   6.158   9.364   6.647 -0.7271 -0.0156  0.0851
   22MOL0     C 2875   6.272   9.437   6.719 -1.1162  0.2661  1.1476
   22MOL0     C 2876   6.245   9.409   6.867 -0.5438 -0.0280  1.4635
   22MOL0     C 2877   6.357   9.454   6.955  0.4430 -0.0123 -0.0039
   22MOL0     C 2878   6.348   9.403   7.099  0.7569 -0.1854  0.2729
   22MOL0    Cl 2879   6.501   9.435   7.172 -0.0832  0.1482  0.3814
   22MOL0     C 2880   5.505   9.294   6.706 -0.0433  0.2019 -0.8861
   22MOL0     C 2881   5.369   9.273   6.726  0.2547 -0.6916 -0.0109
   22MOL0     O 2882   5.134   8.957   6.607  0.1514  0.5953  0.3665
   22MOL0     C 2883   4.859   8.973   6.650 -0.3943  0.9094  0.1219
   22MOL0     C 2884   4.726   8.975   6.668  0.4883  0.3342 -0.0976
   22MOL0     N 2885   4.175   8.795   6.509  0.2640  0.3425 -0.1012
   22MOL0     N 2886   4.099   8.696   6.545  0.1569 -0.6547  0.1244
   22MOL0     C 2887   2.999   8.497   6.110  0.1652  0.3685 -0.3357
   22MOL0     C 2888   2.865   8.520   6.139  0.6607 -0.4676  0.4719
   22MOL0     C 2889   2.463   8.657   6.051 -0.0138  0.0132 -0.5824
   22MOL0     C 2890   2.426   8.784   6.092  0.0979 -0.6020  0.1536
   22MOL0     C 2891   2.292   8.834   6.078  0.0637  0.2136  0.5864
   22MOL0     C 2892   2.193   8.747   6.029  0.3972  0.0963  0.0025
   22MOL0     O 2893   2.063   8.797   6.038 -0.4855 -0.3198 -0.3692
   22MOL0     C 2894   1.959   8.751   5.950  0.4780  0.1716 -0.6504
   22MOL0     C 2895   1.976   8.779   5.804  0.1228 -0.1568 -0.5383
   22MOL0     C 2896   2.007   8.929   5.777  0.7355  0.8476 -0.1838
   22MOL0     C 2897   2.004   8.958   5.623 -0.4642 -0.0220  0.0565
   22MOL0     C 2898   1.880   8.939   5.557 -0.7093 -0.0691  0.5328
   22MOL0     C 2899   1.775   8.948   5.492 -0.7867 -0.7085  0.9150
   22MOL0     C 2900   2.225   8.616   6.004 -0.3096  0.0638 -0.5049
   22MOL0     C 2901   2.357   8.571   6.008 -0.3363  0.1420  0.4896
   22MOL0     C 2902   2.383   8.420   5.996  0.4627  0.3771 -0.6766
   22MOL0     H 2903   2.875   8.856   6.081 -0.1961  0.4111 -2.6725
   22MOL0     H 2904   3.121   8.803   6.085 -1.0493  0.5605 -1.4240
   22MOL0     H 2905   3.218   8.423   6.203  0.0431  0.0979  0.1834
   22MOL0     H 2906   3.267   8.393   6.032  0.1616  1.2735 -0.3705
   22MOL0     H 2907   3.477   8.526   6.072 -3.5979 -1.3480 -2.7149
   22MOL0     H 2908   3.472   8.367   6.146  4.8651  1.8978  4.4698
   22MOL0     H 2909   3.408   8.448   6.357  0.0776 -1.8713 -1.5992
   22MOL0     H 2910   3.399   8.613   6.297  0.6458  0.3028 -1.1248
   22MOL0     H 2911   3.641   8.432   6.326 -0.8696 -0.4288  0.0604
   22MOL0     H 2912   3.654   8.593   6.238  0.9123 -1.8233  0.0258
   22MOL0     H 2913   3.580   8.709   6.442 -0.5276  1.0428 -1.1739
   22MOL0     H 2914   3.557   8.563   6.527  1.0411  0.7601  0.1542
   22MOL0     H 2915   3.807   8.508   6.516 -0.1792  0.1453  0.0909
   22MOL0     H 2916   3.829   8.671   6.434 -1.3474  2.8652  0.6281
   22MOL0     H 2917   3.691   8.642   6.699 -1.7412  0.5477 -2.8508
   22MOL0     H 2918   3.742   8.792   6.625 -0.8889 -0.3750 -1.6155
   22MOL0     H 2919   3.901   8.693   6.815  1.3654  0.5598  0.2522
   22MOL0     H 2920   3.929   8.563   6.711 -2.1433 -0.8191  1.9296
   22MOL0     H 2921   4.009   8.932   6.753  1.2090  0.5760  0.9503
   22MOL0     H 2922   4.309   9.000   6.510  0.2343  0.8646  0.2414
   22MOL0     H 2923   4.165   9.095   6.494 -0.1264 -0.6424 -0.4338
   22MOL0     H 2924   4.319   9.199   6.656 -0.9896 -0.0819 -1.5744
   22MOL0     H 2925   4.155   9.171   6.711 -1.5585  0.7911 -4.2774
   22MOL0     H 2926   4.239   8.970   6.845 -1.5904  1.6113  2.4605
   22MOL0     H 2927   4.298   9.112   6.894  1.1700 -0.8554  0.5203
   22MOL0     H 2928   4.449   8.917   6.723 -0.4087 -0.2286  0.7512
   22MOL0     H 2929   4.489   8.972   6.875 -0.1677  0.2779 -0.4787
   22MOL0     H 2930   4.697   9.295   6.763 -0.0784 -0.2287  2.8196
   22MOL0     H 2931   4.939   9.280   6.741 -2.1413  1.7169  1.0586
   22MOL0     H 2932   5.319   9.052   6.469  1.2196  0.2755 -1.1212
   22MOL0     H 2933   5.568   9.079   6.454  0.5062  2.0049 -0.2579
   22MOL0     H 2934   5.738   9.432   6.559 -1.1058 -0.2357  0.1232
   22MOL0     H 2935   5.773   9.381   6.723  0.4644  0.5880  0.1707
   22MOL0     H 2936   5.953   9.223   6.596  2.4429 -0.0767 -1.0505
   22MOL0     H 2937   5.950   9.365   6.477  0.4166 -0.8161  0.2593
   22MOL0     H 2938   6.005   9.523   6.630 -0.4067  0.0519 -0.6094
   22MOL0     H 2939   5.989   9.422   6.772 -1.2217  0.7212 -0.4267
   22MOL0     H 2940   6.180   9.374   6.540 -0.6254  1.5996  0.2273
   22MOL0     H 2941   6.168   9.261   6.681  0.6535 -1.2560 -3.5844
   22MOL0     H 2942   6.279   9.546   6.713  0.4092  0.2601  2.4119
   22MOL0     H 2943   6.363   9.391   6.679 -1.1047  1.1941  0.0635
   22MOL0     H 2944   6.157   9.467   6.895  0.3925  2.2394 -0.0024
   22MOL0     H 2945   6.228   9.304   6.891  3.7516 -1.5666 -1.1117
   22MOL0     H 2946   6.380   9.561   6.955  0.4815 -0.0176  0.7084
   22MOL0     H 2947   6.454   9.417   6.920  0.6134  0.5983 -0.1809
   22MOL0     H 2948   6.272   9.443   7.167  2.4886  1.2462  1.4671
   22MOL0     H 2949   6.328   9.296   7.105 -0.5821 -0.0722 -1.4077
   22MOL0     H 2950   5.547   9.365   6.775  2.5466  0.9517 -3.0607
   22MOL0     H 2951   5.311   9.324   6.802  2.6131  2.9567 -0.3752
   22MOL0     H 2952   4.892   8.880   6.604  0.5022  0.6111  1.3133
   22MOL0     H 2953   4.667   8.885   6.652 -1.0476  1.4834 -1.3587
   22MOL0     H 2954   3.021   8.392   6.093 -4.6120 -0.6638 -1.9013
   22MOL0     H 2955   2.795   8.438   6.153  0.0728 -0.0094  0.2563
   22MOL0     H 2956   2.511   8.850   6.110  0.1663  0.5103 -3.4410
   22MOL0     H 2957   2.256   8.932   6.106 -2.4055 -1.0069  1.9446
   22MOL0     H 2958   1.863   8.799   5.975 -0.6395 -2.7859  1.2818
   22MOL0     H 2959   1.936   8.645   5.965 -3.5245  1.2440  2.7958
   22MOL0     H 2960   1.883   8.754   5.752 -0.7177 -1.6524  1.5462
   22MOL0     H 2961   2.054   8.716   5.760 -2.1189 -2.0724 -1.9885
   22MOL0     H 2962   2.107   8.950   5.816  0.7241  0.0157  0.3251
   22MOL0     H 2963   1.936   8.995   5.828  0.6759  1.1866 -0.7023
   22MOL0     H 2964   2.040   9.059   5.600  0.0772 -0.0688  0.6735
   22MOL0     H 2965   2.080   8.895   5.576 -0.3441  0.1932 -0.0404
   22MOL0     H 2966   1.689   8.967   5.431  0.0667  1.1185  0.1810
   22MOL0     H 2967   2.143   8.548   5.984 -1.1380  1.4581 -2.0483
   22MOL0     H 2968   2.448   8.373   6.070 -3.0840 -2.7656  0.7875
   22MOL0     H 2969   2.289   8.365   6.008  0.3642  1.1261  3.7814
   22MOL0     H 2970   2.415   8.395   5.894  1.4051  0.8297 -0.5032
   23MOL0     O 2971   6.057  10.569   6.195  0.4629  0.2606  0.3667
   23MOL0     C 2972   6.107  10.461   6.223 -0.3722  0.3194 -0.0916
   23MOL0     O 2973   6.246  10.444   6.270 -0.0393 -0.1710 -0.2522
   23MOL0     C 2974   6.351  10.533   6.259  0.0512 -0.2186  0.1259
   23MOL0     C 2975   6.346  10.670   6.220  0.3870 -0.8403 -0.2178
   23MOL0     C 2976   6.462  10.754   6.213 -0.6658 -0.8412  0.0676
   23MOL0     C 2977   6.590  10.697   6.240  0.4993 -0.0995 -0.6760
   23MOL0     O 2978   6.705  10.770   6.225 -0.0430 -0.6113 -1.0242
   23MOL0     C 2979   6.701  10.906   6.188  1.2023 -0.0481 -0.6667
   23MOL0     C 2980   6.841  10.957   6.170 -0.5003 -1.3377  0.6981
   23MOL0     C 2981   6.924  10.961   6.299 -0.4536  0.5651  0.0658
   23MOL0     C 2982   7.067  11.022   6.273 -0.5261  0.4668 -0.8809
   23MOL0     C 2983   7.147  10.994   6.407  1.2909  0.3066 -0.1138
   23MOL0     C 2984   7.284  11.051   6.406  0.0383  0.0481  0.0339
   23MOL0     C 2985   7.289  11.211   6.398 -0.0238  1.1412 -0.2799
   23MOL0     C 2986   7.426  11.266   6.434 -0.8579 -0.0352 -0.1217
   23MOL0     N 2987   7.534  11.196   6.373 -0.4721 -0.1148  1.0436
   23MOL0     C 2988   7.583  11.229   6.252 -0.1240  0.0930 -0.0547
   23MOL0     C 2989   7.676  11.131   6.220 -0.2150 -0.5542 -0.1345
   23MOL0     C 2990   7.767  11.131   6.103 -0.8933 -0.3623  0.2044
   23MOL0     C 2991   7.886  11.218   6.131 -0.6377  0.3937 -0.2764
   23MOL0     C 2992   8.006  11.186   6.038  1.0497  0.8369 -0.2876
   23MOL0     C 2993   8.121  11.284   6.045 -1.6190 -1.2190 -0.0076
   23MOL0     O 2994   8.211  11.257   5.943  0.0915  0.3899 -0.0587
   23MOL0     C 2995   8.342  11.287   5.958 -0.2568  0.5418 -0.5841
   23MOL0     C 2996   8.402  11.376   6.052 -0.5205 -0.3217 -0.9128
   23MOL0     C 2997   8.541  11.404   6.048 -0.0929 -0.4399  0.3019
   23MOL0     C 2998   8.627  11.344   5.946 -0.4628 -0.0443 -1.3698
   23MOL0     C 2999   8.772  11.364   5.949  0.0335  0.0358 -0.4502
   23MOL0     O 3000   8.839  11.323   5.837  0.7122 -0.1892  0.0923
   23MOL0     C 3001   8.971  11.347   5.816 -0.3244  0.8448  0.1114
   23MOL0     C 3002   9.062  11.427   5.888  0.1277  0.6024 -0.1168
   23MOL0     C 3003   9.195  11.438   5.852 -0.2590 -0.0533 -0.6411
   23MOL0     C 3004   9.250  11.364   5.752 -0.2453 -0.2603  1.5079
   23MOL0     O 3005   9.386  11.364   5.724  0.0839  0.0636 -0.2117
   23MOL0     C 3006   9.437  11.427   5.602  0.0913  0.4973 -0.2428
   23MOL0     C 3007   9.591  11.464   5.615  0.0606 -0.2399 -0.2883
   23MOL0     C 3008   9.648  11.501   5.481  0.0984 -1.3285  0.3612
   23MOL0     C 3009   9.805  11.474   5.478 -0.1048  0.5109  0.6042
   23MOL0     C 3010   9.858  11.574   5.372 -0.4060 -0.2399  0.7799
   23MOL0     C 3011  10.001  11.543   5.333 -0.1204 -0.4390  0.5815
   23MOL0     C 3012   9.997  11.453   5.210 -0.1602 -0.2402 -0.3080
   23MOL0     C 3013  10.146  11.402   5.183 -0.0337  0.1793 -0.6054
   23MOL0    Cl 3014  10.143  11.284   5.055  0.2711  0.6453 -0.2325
   23MOL0     C 3015   9.160  11.285   5.680  0.0125 -0.0335  0.8425
   23MOL0     C 3016   9.023  11.271   5.710  0.2413 -0.9946 -0.4656
   23MOL0     O 3017   8.820  11.410   6.056 -0.7213  0.7440 -0.1539
   23MOL0     C 3018   8.569  11.248   5.862 -0.0239  0.8516  0.1053
   23MOL0     C 3019   8.434  11.222   5.870 -0.1693 -0.5142 -0.5882
   23MOL0     N 3020   7.672  11.041   6.318  0.2096 -0.2480  0.4698
   23MOL0     N 3021   7.590  11.078   6.411  0.1094  0.2605 -0.4898
   23MOL0     C 3022   6.592  10.570   6.290  0.2103  0.5363  0.1558
   23MOL0     C 3023   6.480  10.488   6.303 -0.4743  0.2942  0.3860
   23MOL0     C 3024   6.013  10.345   6.232  0.3337  0.2873  0.0538
   23MOL0     C 3025   6.062  10.231   6.277 -1.0226  0.2004  0.2004
   23MOL0     C 3026   6.003  10.107   6.268  0.0511  0.4623 -0.8477
   23MOL0     C 3027   5.865  10.099   6.233 -0.5092 -0.0861  0.0602
   23MOL0     O 3028   5.803   9.987   6.269 -1.0307 -0.7701  0.4577
   23MOL0     C 3029   5.672   9.955   6.229  0.8344 -0.2251  0.3538
   23MOL0     C 3030   5.572   9.986   6.335 -0.1200 -0.8385  0.6987
   23MOL0     C 3031   5.429   9.990   6.282  0.0957 -0.5849 -0.1097
   23MOL0     C 3032   5.329   9.984   6.401 -0.4750 -0.4114 -0.6145
   23MOL0     C 3033   5.297  10.112   6.447 -0.2707  0.3876 -1.3969
   23MOL0     C 3034   5.287  10.219   6.500 -0.0377 -0.3290  0.7361
   23MOL0     C 3035   5.803  10.221   6.197 -0.0444 -0.2602  0.5842
   23MOL0     C 3036   5.871  10.348   6.199  0.0002  0.8833  0.5039
   23MOL0     C 3037   5.794  10.460   6.149  1.0922  0.3853 -0.1306
   23MOL0     H 3038   6.255  10.726   6.204 -0.3256 -1.3295  1.7622
   23MOL0     H 3039   6.458  10.860   6.193  0.0546 -1.1494 -2.0695
   23MOL0     H 3040   6.646  10.903   6.094  1.0358  0.4514 -0.5854
   23MOL0     H 3041   6.650  10.965   6.264  1.2700  1.1926 -1.5514
   23MOL0     H 3042   6.827  11.061   6.138 -2.5557 -1.8173 -0.1359
   23MOL0     H 3043   6.897  10.912   6.088  1.9836  0.2268  1.4036
   23MOL0     H 3044   6.925  10.866   6.354 -0.1292 -0.5262 -1.7353
   23MOL0     H 3045   6.873  11.031   6.366  0.6476  1.5829 -0.1309
   23MOL0     H 3046   7.125  10.982   6.189  2.6035 -0.9482  1.7424
   23MOL0     H 3047   7.066  11.132   6.269 -1.6219  0.6460  2.0179
   23MOL0     H 3048   7.090  11.036   6.490 -1.0034 -0.2549 -1.3193
   23MOL0     H 3049   7.161  10.886   6.417  1.6309  0.1461 -1.9044
   23MOL0     H 3050   7.345  11.012   6.488  0.7604  2.0118  0.4865
   23MOL0     H 3051   7.325  11.016   6.310  1.4429 -1.1482  1.0252
   23MOL0     H 3052   7.217  11.246   6.472 -1.5901 -0.8257 -0.7783
   23MOL0     H 3053   7.265  11.243   6.296  0.6343 -1.2747 -1.2684
   23MOL0     H 3054   7.431  11.369   6.397 -0.3567 -0.3561 -0.9640
   23MOL0     H 3055   7.456  11.263   6.539  0.8557  0.0292 -0.5848
   23MOL0     H 3056   7.561  11.324   6.205  0.5391  0.8493  1.1180
   23MOL0     H 3057   7.802  11.031   6.080  1.2573  1.0665 -3.7115
   23MOL0     H 3058   7.723  11.170   6.011  1.9897 -0.2161 -1.2137
   23MOL0     H 3059   7.858  11.322   6.111  2.7095  1.5563  0.4333
   23MOL0     H 3060   7.920  11.218   6.235  0.1158  1.5922 -0.4976
   23MOL0     H 3061   7.954  11.172   5.943  0.9997 -2.8833  0.1406
   23MOL0     H 3062   8.049  11.090   6.070 -1.5355 -0.4339 -0.3113
   23MOL0     H 3063   8.165  11.272   6.144 -0.1074  3.4825  0.1596
   23MOL0     H 3064   8.080  11.386   6.046  0.4988 -0.2880  2.3490
   23MOL0     H 3065   8.350  11.434   6.128 -0.9852 -0.0864 -1.4095
   23MOL0     H 3066   8.582  11.469   6.124 -3.2342  3.1541 -0.7726
   23MOL0     H 3067   9.035  11.497   5.967 -0.7441 -0.9524  1.0081
   23MOL0     H 3068   9.256  11.514   5.899 -0.2035  0.4512 -1.5123
   23MOL0     H 3069   9.420  11.349   5.527 -3.5307 -0.5446  1.4307
   23MOL0     H 3070   9.368  11.504   5.567  0.5423  1.7045  1.3828
   23MOL0     H 3071   9.611  11.546   5.684  0.4796 -1.2042  0.7528
   23MOL0     H 3072   9.643  11.382   5.665 -1.1430 -0.6730  0.3050
   23MOL0     H 3073   9.599  11.451   5.398  2.3986  0.2476 -2.1130
   23MOL0     H 3074   9.615  11.605   5.467 -1.4873 -1.3241  3.2815
   23MOL0     H 3075   9.825  11.372   5.445 -2.0226 -0.2297  1.6269
   23MOL0     H 3076   9.839  11.480   5.582  1.7990  0.0078  0.0639
   23MOL0     H 3077   9.845  11.672   5.418 -4.3115  0.0742 -0.6131
   23MOL0     H 3078   9.790  11.564   5.286 -1.4200 -2.1587  1.7282
   23MOL0     H 3079  10.058  11.634   5.313  1.3924 -1.2029  1.2425
   23MOL0     H 3080  10.052  11.482   5.408  1.5522 -0.0391 -0.1947
   23MOL0     H 3081   9.957  11.518   5.132 -1.4615 -1.5050 -0.7354
   23MOL0     H 3082   9.932  11.367   5.230  1.5196 -2.0674 -2.1895
   23MOL0     H 3083  10.207  11.488   5.155  0.8416 -0.0703  0.5018
   23MOL0     H 3084  10.172  11.353   5.277  0.6820 -0.8241 -1.3076
   23MOL0     H 3085   9.195  11.245   5.586  0.0896  1.4449  0.2122
   23MOL0     H 3086   8.956  11.213   5.647 -0.9368  1.5483 -1.7100
   23MOL0     H 3087   8.635  11.185   5.802 -0.5975  0.5164 -0.1804
   23MOL0     H 3088   8.398  11.157   5.790  0.4653 -0.1364 -1.1890
   23MOL0     H 3089   6.686  10.526   6.321  0.3465  1.6972  1.4821
   23MOL0     H 3090   6.493  10.381   6.317  0.0747  0.3358  0.2354
   23MOL0     H 3091   6.169  10.231   6.298 -0.5233 -1.2756 -1.9287
   23MOL0     H 3092   6.054  10.015   6.295 -1.7242  0.2455  2.2966
   23MOL0     H 3093   5.663   9.848   6.210 -1.6223  0.1081 -0.7619
   23MOL0     H 3094   5.648  10.007   6.135  1.6906  1.3896  0.9921
   23MOL0     H 3095   5.598  10.076   6.391  1.6603 -2.2418  2.2727
   23MOL0     H 3096   5.587   9.907   6.409  0.7888 -1.7476 -0.4140
   23MOL0     H 3097   5.419   9.895   6.229  0.2997  0.4667 -2.0971
   23MOL0     H 3098   5.416  10.083   6.227  3.3091  0.6060  0.8909
   23MOL0     H 3099   5.230   9.945   6.374 -1.8914  0.5337  2.7376
   23MOL0     H 3100   5.372   9.931   6.487 -0.8596  0.4484  0.1151
   23MOL0     H 3101   5.281  10.317   6.543 -0.5592  0.6092 -1.3227
   23MOL0     H 3102   5.699  10.218   6.165 -0.4133 -2.5749  1.7349
   23MOL0     H 3103   5.834  10.487   6.051  1.4563 -0.5974 -0.2635
   23MOL0     H 3104   5.687  10.443   6.137  0.5335 -0.6790  4.3367
   23MOL0     H 3105   5.806  10.537   6.226  2.3789  2.4324 -2.2245
   24MOL0     O 3106   9.260   8.721  11.225 -0.4760  0.0019  0.4867
   24MOL0     C 3107   9.311   8.833  11.234  1.0042  0.0481 -0.8708
   24MOL0     O 3108   9.440   8.866  11.213  0.7543 -0.6533 -0.5749
   24MOL0     C 3109   9.514   8.774  11.151 -0.5325 -0.4077  0.8801
   24MOL0     C 3110   9.523   8.793  11.012 -0.0744  0.7292  0.2085
   24MOL0     C 3111   9.615   8.715  10.943 -0.3457  0.0233 -0.3870
   24MOL0     C 3112   9.689   8.612  11.005  0.3774 -0.8155  0.2960
   24MOL0     O 3113   9.797   8.552  10.932  0.6920 -0.4023  0.7373
   24MOL0     C 3114   9.929   8.559  10.993  0.4457 -0.3704  0.2393
   24MOL0     C 3115  10.036   8.477  10.917  0.4795  0.8900 -0.1839
   24MOL0     C 3116  10.029   8.500  10.771 -0.4567 -0.0424 -0.4370
   24MOL0     C 3117  10.160   8.459  10.710 -0.6235  0.2034 -0.2831
   24MOL0     C 3118  10.198   8.309  10.739  0.2275 -0.2193 -0.2522
   24MOL0     C 3119  10.343   8.276  10.693  0.3592 -0.4224 -0.2746
   24MOL0     C 3120  10.452   8.353  10.770  0.1902 -0.1732  0.6866
   24MOL0     C 3121  10.442   8.341  10.917  0.5558 -0.4624 -0.0803
   24MOL0     N 3122  10.463   8.202  10.953 -1.5185  0.3130 -0.4515
   24MOL0     C 3123  10.376   8.114  11.016  0.2859 -0.4318 -0.8128
   24MOL0     C 3124  10.446   7.997  11.037 -0.4117 -0.2824  0.2004
   24MOL0     C 3125  10.410   7.872  11.117 -0.4181  0.1088 -0.0971
   24MOL0     C 3126  10.480   7.873  11.261  0.3141 -0.7249  0.4236
   24MOL0     C 3127  10.482   7.734  11.318  0.5323  0.9501 -0.5565
   24MOL0     C 3128  10.508   7.746  11.469 -0.6051  0.0678 -0.2705
   24MOL0     O 3129  10.636   7.820  11.494  0.0310  0.3813 -0.1129
   24MOL0     C 3130  10.749   7.759  11.460  0.5562 -0.3380 -0.0762
   24MOL0     C 3131  10.860   7.838  11.431 -1.2538  0.3200 -0.0670
   24MOL0     C 3132  10.979   7.780  11.390 -0.7768  0.1937 -0.1864
   24MOL0     C 3133  10.996   7.644  11.375  0.5965 -0.5872  0.4621
   24MOL0     C 3134  11.126   7.585  11.332  0.2682  0.2234 -0.5644
   24MOL0     O 3135  11.127   7.450  11.316  0.1877  0.6077  0.9779
   24MOL0     C 3136  11.237   7.388  11.273  0.4118 -0.0432  0.4919
   24MOL0     C 3137  11.354   7.399  11.334 -1.1267  0.1777  0.9475
   24MOL0     C 3138  11.469   7.331  11.268 -1.5919 -0.4512 -0.1335
   24MOL0     C 3139  11.454   7.254  11.147 -0.7737  0.1376  0.3436
   24MOL0     O 3140  11.559   7.195  11.082 -0.1807  0.2724 -0.8266
   24MOL0     C 3141  11.682   7.222  11.139  0.0352 -0.2035 -0.7254
   24MOL0     C 3142  11.781   7.159  11.041 -0.0328 -0.7648 -0.8407
   24MOL0     C 3143  11.924   7.180  11.087  0.4526  0.4259 -0.3319
   24MOL0     C 3144  12.029   7.118  10.998  0.0788  0.4818  0.3348
   24MOL0     C 3145  12.165   7.136  11.061  0.6732  0.1225 -0.3260
   24MOL0     C 3146  12.275   7.086  10.961 -0.1029 -0.1350  0.4115
   24MOL0     C 3147  12.407   7.036  11.026 -0.3144  0.0891 -0.0224
   24MOL0     C 3148  12.383   6.911  11.115  0.5676 -0.7885 -0.4347
   24MOL0    Cl 3149  12.528   6.825  11.140  0.4595  0.3317  0.1236
   24MOL0     C 3150  11.328   7.250  11.091  0.0061  0.8050 -0.2628
   24MOL0     C 3151  11.219   7.312  11.153 -1.1307 -0.2805 -1.0029
   24MOL0     O 3152  11.213   7.662  11.309 -0.1886 -0.0359  0.4938
   24MOL0     C 3153  10.889   7.567  11.406 -0.3251  1.1240  0.4966
   24MOL0     C 3154  10.768   7.623  11.449 -0.2757  0.7266  0.2437
   24MOL0     N 3155  10.575   8.008  10.982  0.5098 -1.1042 -0.5686
   24MOL0     N 3156  10.586   8.129  10.943 -0.5400 -0.1112 -0.2354
   24MOL0     C 3157   9.668   8.590  11.144 -0.1144  0.0734 -0.9022
   24MOL0     C 3158   9.585   8.678  11.219 -0.7009 -0.1143 -0.2771
   24MOL0     C 3159   9.220   8.934  11.281  0.1887 -0.5780 -0.0241
   24MOL0     C 3160   9.094   8.897  11.333 -0.6172 -0.4974  0.2205
   24MOL0     C 3161   8.997   8.991  11.365  0.2093 -0.6786 -0.4706
   24MOL0     C 3162   9.020   9.126  11.352  0.5624  0.4691  0.0114
   24MOL0     O 3163   8.928   9.223  11.377  0.4753 -0.2481 -0.5318
   24MOL0     C 3164   8.789   9.199  11.370  0.0106  0.1257 -0.5259
   24MOL0     C 3165   8.728   9.186  11.228  0.2733 -0.3891  0.7447
   24MOL0     C 3166   8.580   9.161  11.247  0.4705  0.7908  0.2504
   24MOL0     C 3167   8.505   9.196  11.118 -0.3365  0.2583  0.1406
   24MOL0     C 3168   8.360   9.181  11.122  0.4348 -0.8660 -1.0447
   24MOL0     C 3169   8.237   9.177  11.104 -0.0208  0.8162  0.2328
   24MOL0     C 3170   9.149   9.161  11.312  0.0872  0.3001  0.3094
   24MOL0     C 3171   9.243   9.071  11.266 -1.0273  0.3733 -0.6474
   24MOL0     C 3172   9.369   9.128  11.205  0.6248  0.3987 -0.7463
   24MOL0     H 3173   9.440   8.845  10.964 -2.4423 -2.2994  0.7286
   24MOL0     H 3174   9.629   8.741  10.838  1.6071  3.0703  0.5349
   24MOL0     H 3175   9.957   8.665  11.000 -2.4889  0.7401 -2.3584
   24MOL0     H 3176   9.913   8.517  11.093  1.6398  2.4745  1.7559
   24MOL0     H 3177  10.011   8.373  10.942  2.6992  0.9315  2.6680
   24MOL0     H 3178  10.130   8.493  10.969  0.1947 -2.9745  1.9205
   24MOL0     H 3179  10.026   8.607  10.750  0.9939  0.1292  0.1314
   24MOL0     H 3180   9.941   8.452  10.728 -2.2707  0.6214  2.3082
   24MOL0     H 3181  10.142   8.479  10.604 -0.6074 -1.1572 -0.5612
   24MOL0     H 3182  10.239   8.531  10.733 -2.5633  2.0329  0.9598
   24MOL0     H 3183  10.190   8.285  10.845 -0.4662 -0.0963 -0.2739
   24MOL0     H 3184  10.124   8.247  10.687 -0.1032 -0.7803  0.8608
   24MOL0     H 3185  10.366   8.169  10.693  1.0671 -0.2874  0.9408
   24MOL0     H 3186  10.342   8.299  10.586 -3.9234 -2.3542 -0.8412
   24MOL0     H 3187  10.456   8.459  10.744  3.3123 -0.3303  0.0835
   24MOL0     H 3188  10.546   8.309  10.733 -1.1893 -0.9857 -2.1509
   24MOL0     H 3189  10.506   8.412  10.971  0.8245 -0.4303 -0.4365
   24MOL0     H 3190  10.343   8.378  10.941  1.1285  2.1991 -1.4715
   24MOL0     H 3191  10.272   8.128  11.046  0.5723 -0.4171  0.1887
   24MOL0     H 3192  10.302   7.860  11.116 -0.1511 -3.6823  1.2881
   24MOL0     H 3193  10.443   7.779  11.069 -2.2830 -2.3154  2.9399
   24MOL0     H 3194  10.584   7.904  11.250  0.8394 -2.8586 -1.5301
   24MOL0     H 3195  10.418   7.940  11.321 -1.1657 -2.6266  1.1208
   24MOL0     H 3196  10.560   7.678  11.267 -1.9918 -1.9134 -1.5915
   24MOL0     H 3197  10.393   7.676  11.294  0.9011  0.1372 -0.0307
   24MOL0     H 3198  10.515   7.653  11.526  2.7044  0.5451  0.2667
   24MOL0     H 3199  10.422   7.798  11.513  0.8938  1.1159  1.5340
   24MOL0     H 3200  10.848   7.946  11.432 -1.0064  0.3462 -0.0019
   24MOL0     H 3201  11.054   7.856  11.366 -1.2559  0.5632 -0.5286
   24MOL0     H 3202  11.362   7.462  11.421 -0.7625  2.1830 -0.4726
   24MOL0     H 3203  11.563   7.358  11.314 -0.4893 -0.2915 -2.3533
   24MOL0     H 3204  11.690   7.330  11.150 -0.2361 -0.1814 -0.7304
   24MOL0     H 3205  11.697   7.175  11.236 -0.9141 -1.7220 -1.2758
   24MOL0     H 3206  11.756   7.053  11.049 -2.6195 -0.0958  1.2418
   24MOL0     H 3207  11.758   7.190  10.938 -1.1333 -0.0893 -0.4035
   24MOL0     H 3208  11.948   7.286  11.089  2.0152  0.0972  0.8123
   24MOL0     H 3209  11.932   7.137  11.188 -2.0305 -0.5994 -0.5166
   24MOL0     H 3210  12.012   7.161  10.899 -0.1548  1.5105  0.8059
   24MOL0     H 3211  12.014   7.011  10.988 -0.8087  0.4404  1.8149
   24MOL0     H 3212  12.159   7.078  11.153  0.8960  1.4508  0.5450
   24MOL0     H 3213  12.181   7.241  11.088  1.2249  0.2526 -1.1174
   24MOL0     H 3214  12.219   7.010  10.906  0.3145 -1.0063  1.1592
   24MOL0     H 3215  12.310   7.157  10.886  0.2563 -0.3979  0.3277
   24MOL0     H 3216  12.465   7.113  11.078  0.3298  0.6735 -1.5551
   24MOL0     H 3217  12.469   6.998  10.945  0.2787  1.6897 -0.3654
   24MOL0     H 3218  12.341   6.944  11.210  1.6458  1.5823 -0.7031
   24MOL0     H 3219  12.312   6.847  11.063  0.6906 -0.3163 -1.2058
   24MOL0     H 3220  11.317   7.208  10.992  3.0604 -2.1840  0.4715
   24MOL0     H 3221  11.124   7.314  11.101 -0.7763 -2.4405 -1.8296
   24MOL0     H 3222  10.903   7.460  11.397  1.4162  1.0329  3.0845
   24MOL0     H 3223  10.690   7.549  11.463 -0.9319  1.0643 -1.4132
   24MOL0     H 3224   9.736   8.521  11.194 -1.5053 -1.5165 -1.1038
   24MOL0     H 3225   9.567   8.657  11.324  0.0272  0.1014 -0.0974
   24MOL0     H 3226   9.076   8.790  11.331 -1.0687 -0.4626 -2.8942
   24MOL0     H 3227   8.901   8.947  11.390 -0.3966  1.1868  0.6787
   24MOL0     H 3228   8.733   9.275  11.426  0.7329 -0.8023  1.5407
   24MOL0     H 3229   8.761   9.101  11.410 -0.8924  0.5332 -0.1151
   24MOL0     H 3230   8.779   9.102  11.182  2.5778  1.2976  0.0327
   24MOL0     H 3231   8.737   9.278  11.169  1.5395 -1.6945 -1.1841
   24MOL0     H 3232   8.542   9.213  11.336  0.2406  0.8483  0.1196
   24MOL0     H 3233   8.565   9.053  11.247  0.3039  0.7993  1.3162
   24MOL0     H 3234   8.538   9.296  11.089 -0.3667  1.4601  3.6837
   24MOL0     H 3235   8.541   9.136  11.035 -0.4335  2.1297 -1.3235
   24MOL0     H 3236   8.131   9.184  11.087  0.2472 -0.0208 -2.0531
   24MOL0     H 3237   9.165   9.268  11.308  0.0423  0.2862 -2.5492
   24MOL0     H 3238   9.382   9.099  11.100  2.5906  0.4800 -0.5579
   24MOL0     H 3239   9.366   9.238  11.202 -2.0701  0.4199 -0.2275
   24MOL0     H 3240   9.462   9.105  11.258  0.6879 -0.0578 -1.0507
   25MOL0     O 3241   2.439   1.839   3.458 -0.1734 -0.1569 -0.1477
   25MOL0     C 3242   2.405   1.901   3.365 -0.4694 -0.1673 -0.2334
   25MOL0     O 3243   2.495   1.946   3.269  0.5587  0.1161 -0.0808
   25MOL0     C 3244   2.631   1.920   3.275 -1.0008 -0.0670  0.4242
   25MOL0     C 3245   2.710   1.931   3.397  0.3059  0.5416 -0.5306
   25MOL0     C 3246   2.851   1.907   3.397 -0.5810  0.5073  0.1202
   25MOL0     C 3247   2.922   1.875   3.284  0.8207 -0.3193  0.2110
   25MOL0     O 3248   3.054   1.866   3.271 -0.2768 -0.0096  0.2504
   25MOL0     C 3249   3.157   1.896   3.369 -0.5756 -0.2127 -0.5495
   25MOL0     C 3250   3.291   1.865   3.308  1.0701 -0.2072  0.5341
   25MOL0     C 3251   3.395   1.954   3.376 -0.5763 -0.5435 -0.6576
   25MOL0     C 3252   3.534   1.898   3.355 -0.3845  0.8034 -0.6209
   25MOL0     C 3253   3.646   1.998   3.400  0.2376 -0.1208  0.0050
   25MOL0     C 3254   3.650   2.131   3.330  0.0849  0.1443 -0.8976
   25MOL0     C 3255   3.790   2.184   3.304  0.6133 -0.0042  0.4753
   25MOL0     C 3256   3.846   2.256   3.430 -0.4418  0.3398 -0.2231
   25MOL0     N 3257   3.994   2.287   3.395  0.5527 -0.3251  0.0487
   25MOL0     C 3258   4.042   2.403   3.332 -0.0520  0.3277 -0.3899
   25MOL0     C 3259   4.172   2.369   3.324 -0.1788 -0.4482  0.4122
   25MOL0     C 3260   4.283   2.456   3.266 -0.1665  0.0947  1.4713
   25MOL0     C 3261   4.417   2.414   3.325 -0.9875  0.0505 -0.0975
   25MOL0     C 3262   4.525   2.501   3.270 -0.5743 -0.9708  0.7702
   25MOL0     C 3263   4.669   2.463   3.330 -0.8481  0.3933  0.2989
   25MOL0     O 3264   4.761   2.563   3.291  0.2548 -0.3419 -0.5753
   25MOL0     C 3265   4.889   2.540   3.332  0.7048 -0.1941  0.3150
   25MOL0     C 3266   4.973   2.660   3.333  0.3215  0.3620 -0.7043
   25MOL0     C 3267   5.101   2.652   3.387  0.2319 -0.0842  0.4932
   25MOL0     C 3268   5.145   2.533   3.441  1.0111  0.4787  0.4934
   25MOL0     C 3269   5.284   2.534   3.498 -0.2705 -0.3537  0.9181
   25MOL0     O 3270   5.357   2.651   3.508 -0.5599  0.5243  0.1347
   25MOL0     C 3271   5.472   2.642   3.582  0.4762  0.1711  0.3105
   25MOL0     C 3272   5.457   2.684   3.717 -0.5122  0.2671  0.1267
   25MOL0     C 3273   5.567   2.680   3.803  0.7704 -0.2953 -0.1961
   25MOL0     C 3274   5.695   2.636   3.763  0.4103  0.2639 -0.0936
   25MOL0     O 3275   5.812   2.625   3.843  0.0354 -0.1260 -0.3871
   25MOL0     C 3276   5.924   2.708   3.818 -0.3053  0.1346 -0.8103
   25MOL0     C 3277   6.061   2.649   3.863  0.8824  0.0015  0.4203
   25MOL0     C 3278   6.155   2.756   3.925  0.6028  0.9937  0.4135
   25MOL0     C 3279   6.261   2.670   3.989  0.2815 -0.5432 -0.0240
   25MOL0     C 3280   6.375   2.757   4.041 -1.2780 -0.1027  0.4219
   25MOL0     C 3281   6.508   2.697   4.103 -0.3091 -0.9825 -0.0865
   25MOL0     C 3282   6.567   2.597   4.009 -0.1465  0.5347  0.1565
   25MOL0     C 3283   6.685   2.526   4.056 -0.1245  0.2686  0.4345
   25MOL0    Cl 3284   6.827   2.631   4.035 -0.2099 -0.2537 -0.1957
   25MOL0     C 3285   5.704   2.584   3.629  0.1513  0.2807 -0.4906
   25MOL0     C 3286   5.593   2.590   3.542  0.4625 -0.3988  0.0458
   25MOL0     O 3287   5.332   2.421   3.523  1.1143  0.0243 -0.0345
   25MOL0     C 3288   5.066   2.421   3.445  0.2496  0.3064  0.1207
   25MOL0     C 3289   4.933   2.425   3.396 -0.5077  0.7423 -0.3975
   25MOL0     N 3290   4.199   2.240   3.376 -0.0184  0.3766 -0.5459
   25MOL0     N 3291   4.088   2.197   3.416  0.0046  0.7052 -0.5464
   25MOL0     C 3292   2.840   1.860   3.164  0.1477  0.5911  0.0390
   25MOL0     C 3293   2.698   1.882   3.167  0.3501 -0.3008  1.0945
   25MOL0     C 3294   2.274   1.971   3.369 -0.4302  0.9960  0.0929
   25MOL0     C 3295   2.262   2.090   3.302  0.7836  0.1804  0.0593
   25MOL0     C 3296   2.137   2.156   3.313 -0.0193 -0.2834  0.1433
   25MOL0     C 3297   2.028   2.101   3.385  0.6185 -0.6281  0.0477
   25MOL0     O 3298   1.910   2.170   3.423 -0.2939 -0.3303  0.0721
   25MOL0     C 3299   1.869   2.283   3.344  0.9411 -0.3859  0.4017
   25MOL0     C 3300   1.734   2.318   3.405  0.0835  1.1671 -0.0977
   25MOL0     C 3301   1.670   2.446   3.349 -0.4310 -1.6306 -0.4267
   25MOL0     C 3302   1.535   2.465   3.410  0.8957  0.7016  0.1049
   25MOL0     C 3303   1.481   2.577   3.340 -0.5264 -0.6123  0.3459
   25MOL0     C 3304   1.448   2.680   3.283  0.1928 -0.0290  0.1240
   25MOL0     C 3305   2.037   1.974   3.428  0.5927  0.4430 -0.2797
   25MOL0     C 3306   2.155   1.900   3.413 -0.5130 -0.0147 -0.4248
   25MOL0     C 3307   2.159   1.748   3.443 -0.1603 -0.0887  0.4161
   25MOL0     H 3308   2.654   1.962   3.485 -1.7065  0.3188 -1.6772
   25MOL0     H 3309   2.901   1.912   3.493 -2.5761 -1.2369  1.3387
   25MOL0     H 3310   3.140   2.002   3.393  0.5435 -0.2196  0.3879
   25MOL0     H 3311   3.143   1.848   3.466  0.4353  1.3660  0.4222
   25MOL0     H 3312   3.288   1.890   3.202  0.2123  1.8781  0.9866
   25MOL0     H 3313   3.305   1.761   3.337  2.8332 -0.2458 -0.3210
   25MOL0     H 3314   3.374   1.951   3.483 -2.1055 -0.0958 -0.9189
   25MOL0     H 3315   3.390   2.053   3.329  1.5384 -0.3647 -0.6266
   25MOL0     H 3316   3.555   1.813   3.420  0.0660  3.0997  2.5012
   25MOL0     H 3317   3.555   1.857   3.256 -1.0516 -2.5819  0.4987
   25MOL0     H 3318   3.641   2.015   3.508  0.7432 -0.7831  0.1482
   25MOL0     H 3319   3.740   1.945   3.380  0.3615 -0.5808  1.6680
   25MOL0     H 3320   3.604   2.123   3.231  0.4798 -1.3682 -0.9869
   25MOL0     H 3321   3.591   2.206   3.384 -2.3061  0.6885 -3.9723
   25MOL0     H 3322   3.777   2.266   3.233  1.0130  0.0507  0.4591
   25MOL0     H 3323   3.851   2.109   3.251  0.2053 -1.5391  2.0799
   25MOL0     H 3324   3.786   2.346   3.448  1.5221  1.5028  0.8875
   25MOL0     H 3325   3.849   2.189   3.517  0.2974 -0.9165 -1.1916
   25MOL0     H 3326   3.994   2.497   3.307  1.4851  1.0209 -0.8524
   25MOL0     H 3327   4.287   2.448   3.157  1.0558  3.5708  1.1344
   25MOL0     H 3328   4.256   2.560   3.289  3.4860  1.5878 -0.1081
   25MOL0     H 3329   4.408   2.431   3.433 -1.2008  0.1599 -0.1315
   25MOL0     H 3330   4.434   2.308   3.304  0.1180 -0.0042  0.9562
   25MOL0     H 3331   4.507   2.607   3.291  2.9990 -0.4716  2.0329
   25MOL0     H 3332   4.520   2.489   3.162  0.7258 -0.0556  0.5823
   25MOL0     H 3333   4.700   2.369   3.283 -0.1168  0.6854  0.1980
   25MOL0     H 3334   4.657   2.468   3.439 -1.2556  0.5390  0.2519
   25MOL0     H 3335   4.928   2.750   3.292 -1.4822 -1.3448 -2.6970
   25MOL0     H 3336   5.159   2.743   3.386  0.0480  0.0434  1.1715
   25MOL0     H 3337   5.361   2.719   3.754  0.4290  0.6007  2.3544
   25MOL0     H 3338   5.541   2.704   3.905  0.8494 -0.7566 -0.0636
   25MOL0     H 3339   5.920   2.728   3.711  0.0574  2.2808 -0.4567
   25MOL0     H 3340   5.905   2.799   3.875 -0.4487  0.1826 -0.9334
   25MOL0     H 3341   6.049   2.565   3.933 -0.8196 -1.8105 -1.8885
   25MOL0     H 3342   6.104   2.605   3.773 -1.7041  1.5593 -1.7093
   25MOL0     H 3343   6.198   2.818   3.846  0.1173 -0.3206 -0.9448
   25MOL0     H 3344   6.104   2.814   4.002  0.1350 -1.5676  2.1329
   25MOL0     H 3345   6.304   2.601   3.917  0.3544 -1.2925  0.7274
   25MOL0     H 3346   6.239   2.625   4.087  2.1837  0.3902  0.8926
   25MOL0     H 3347   6.337   2.826   4.116 -0.9369 -0.6984  1.1498
   25MOL0     H 3348   6.411   2.815   3.955 -0.5238 -0.7910  0.2550
   25MOL0     H 3349   6.590   2.768   4.115  1.0858 -2.3597 -1.1975
   25MOL0     H 3350   6.478   2.658   4.201 -3.1487  1.7102  0.2856
   25MOL0     H 3351   6.577   2.620   3.903  1.2296 -1.6991 -0.2565
   25MOL0     H 3352   6.496   2.514   4.011  1.4697 -0.9609 -1.2259
   25MOL0     H 3353   6.673   2.504   4.163  2.7713 -1.8469  0.4094
   25MOL0     H 3354   6.700   2.441   3.990 -0.6332  1.0379 -0.7073
   25MOL0     H 3355   5.799   2.535   3.610 -0.6784 -1.1135 -1.1638
   25MOL0     H 3356   5.599   2.570   3.436  1.3497 -0.7794  0.1626
   25MOL0     H 3357   5.098   2.323   3.480 -2.2182 -1.5858 -2.3861
   25MOL0     H 3358   4.869   2.341   3.420  0.6243  0.6039  2.4542
   25MOL0     H 3359   2.885   1.843   3.067  0.3156  2.0469 -0.1687
   25MOL0     H 3360   2.641   1.869   3.076  2.1574 -1.6152  0.0902
   25MOL0     H 3361   2.340   2.141   3.247  1.4648 -0.6818  0.2165
   25MOL0     H 3362   2.124   2.258   3.277 -1.1200  0.2534  1.9114
   25MOL0     H 3363   1.862   2.256   3.238 -2.3208  4.6208 -1.0123
   25MOL0     H 3364   1.936   2.369   3.357 -1.5203  1.4403  1.8255
   25MOL0     H 3365   1.742   2.329   3.514 -0.7135  0.1524  0.0756
   25MOL0     H 3366   1.669   2.233   3.382  0.6742  0.4751  0.7482
   25MOL0     H 3367   1.666   2.456   3.240 -0.7952  1.1772 -0.2320
   25MOL0     H 3368   1.734   2.525   3.387 -1.1110 -0.6728 -1.2306
   25MOL0     H 3369   1.464   2.388   3.379 -0.9089  2.2506  0.2419
   25MOL0     H 3370   1.540   2.489   3.516 -0.3814  2.7426 -0.2334
   25MOL0     H 3371   1.438   2.773   3.232  0.7977  0.1750  0.3689
   25MOL0     H 3372   1.949   1.935   3.478 -0.1081  0.6366 -1.3279
   25MOL0     H 3373   2.239   1.692   3.394 -0.8008 -0.8751  0.2550
   25MOL0     H 3374   2.187   1.728   3.547  1.9761  0.0704 -0.0918
   25MOL0     H 3375   2.071   1.689   3.418 -2.0493  1.8248  2.0618
   26MOL0     O 3376   5.349  10.125   9.945  0.1032  0.3739 -0.0644
   26MOL0     C 3377   5.343  10.246   9.917  0.2552 -0.0134 -0.9845
   26MOL0     O 3378   5.453  10.326   9.886  1.0229  0.5020 -0.5492
   26MOL0     C 3379   5.574  10.263   9.880 -0.3911 -0.0495 -0.1454
   26MOL0     C 3380   5.609  10.149   9.808 -0.4516 -0.6844 -0.7837
   26MOL0     C 3381   5.744  10.098   9.805 -0.4995 -0.9222 -0.4241
   26MOL0     C 3382   5.837  10.167   9.881 -0.9056  0.0847 -0.4068
   26MOL0     O 3383   5.965  10.123   9.902 -0.6028  0.2084  0.1286
   26MOL0     C 3384   5.980  10.019  10.003 -0.5053 -0.3389  0.5469
   26MOL0     C 3385   6.132  10.019  10.030  0.5620 -1.0027 -0.4818
   26MOL0     C 3386   6.171   9.908  10.123 -0.8831  0.5798 -0.1195
   26MOL0     C 3387   6.323   9.913  10.152 -0.9209 -0.7629 -0.0277
   26MOL0     C 3388   6.374   9.783  10.197  0.5016  0.2604  0.0221
   26MOL0     C 3389   6.525   9.761  10.194 -0.4656  0.4919  0.4964
   26MOL0     C 3390   6.603   9.856  10.286 -0.1601  0.5079  0.3627
   26MOL0     C 3391   6.600   9.823  10.431 -0.1673 -0.8981  0.4933
   26MOL0     N 3392   6.718   9.753  10.476 -0.6742  0.6444 -0.4909
   26MOL0     C 3393   6.832   9.814  10.524  0.5808 -0.0312 -0.3756
   26MOL0     C 3394   6.904   9.713  10.570 -0.1933  0.5186  0.4239
   26MOL0     C 3395   7.035   9.730  10.638  0.0972 -0.3950 -0.1636
   26MOL0     C 3396   7.128   9.628  10.581  0.2632  0.0741 -0.2624
   26MOL0     C 3397   7.258   9.643  10.655 -0.9889 -0.1498  0.0444
   26MOL0     C 3398   7.363   9.532  10.617 -0.6264  0.1656 -0.2786
   26MOL0     O 3399   7.490   9.563  10.687 -0.4962  0.2266  0.0681
   26MOL0     C 3400   7.575   9.451  10.685  0.1741 -0.7690 -0.1306
   26MOL0     C 3401   7.575   9.341  10.599 -0.2281  0.1766  0.1802
   26MOL0     C 3402   7.681   9.250  10.589  0.4569 -0.3254  0.4707
   26MOL0     C 3403   7.791   9.258  10.679  0.3543  0.1519 -0.3467
   26MOL0     C 3404   7.894   9.160  10.694  0.2128 -0.1454  0.1132
   26MOL0     O 3405   7.898   9.051  10.608  0.2270  0.4128  0.5135
   26MOL0     C 3406   8.020   8.988  10.599  1.3817  0.9638  0.2741
   26MOL0     C 3407   8.137   9.058  10.589 -0.3015 -0.2522 -0.5242
   26MOL0     C 3408   8.261   8.992  10.591 -0.0677 -0.2900 -0.0588
   26MOL0     C 3409   8.279   8.857  10.597 -0.4259 -0.6515  0.7370
   26MOL0     O 3410   8.410   8.798  10.583  0.1702 -0.2077  0.5419
   26MOL0     C 3411   8.420   8.671  10.523 -0.3021 -0.0359  0.5189
   26MOL0     C 3412   8.568   8.615  10.528  0.5795  0.5280 -0.1051
   26MOL0     C 3413   8.665   8.690  10.433  0.6818  0.6446 -0.3768
   26MOL0     C 3414   8.816   8.642  10.458  0.7536  0.3126 -0.2265
   26MOL0     C 3415   8.901   8.725  10.357  0.2733 -0.9116 -0.7581
   26MOL0     C 3416   9.051   8.681  10.363  0.5322 -0.3854 -0.6011
   26MOL0     C 3417   9.056   8.528  10.322 -0.0006 -0.4090 -0.1542
   26MOL0     C 3418   9.193   8.478  10.273 -0.2683  0.2824 -0.3359
   26MOL0    Cl 3419   9.153   8.299  10.260 -0.4299  0.0752  0.1484
   26MOL0     C 3420   8.165   8.786  10.608  0.1851 -0.3034 -0.4398
   26MOL0     C 3421   8.033   8.848  10.620 -0.2154  0.6141  0.0587
   26MOL0     O 3422   7.968   9.179  10.786 -0.2820  0.2869 -0.0125
   26MOL0     C 3423   7.786   9.362  10.775 -0.1881 -0.2862  0.7815
   26MOL0     C 3424   7.675   9.451  10.780  0.7569 -0.3589 -0.0146
   26MOL0     N 3425   6.848   9.595  10.533  0.8598 -0.1655  0.1815
   26MOL0     N 3426   6.733   9.620  10.480  0.4456 -0.4101 -0.8874
   26MOL0     C 3427   5.804  10.285   9.938 -0.2897  0.3037  0.2951
   26MOL0     C 3428   5.680  10.337   9.934 -0.5542  0.3013 -0.5399
   26MOL0     C 3429   5.214  10.314   9.926  0.6876 -0.2264 -0.1850
   26MOL0     C 3430   5.198  10.420   9.835  0.3095  0.7661  0.0715
   26MOL0     C 3431   5.084  10.491   9.832  0.2740 -0.0471 -0.7231
   26MOL0     C 3432   4.978  10.458   9.912  1.0571  0.1911  0.7723
   26MOL0     O 3433   4.863  10.532   9.897  0.6303 -0.4269 -0.1702
   26MOL0     C 3434   4.746  10.468   9.943  0.4069  0.3744 -0.0630
   26MOL0     C 3435   4.629  10.552   9.888  0.0622 -0.6862 -0.4141
   26MOL0     C 3436   4.620  10.554   9.736  0.6657 -0.3925 -0.0991
   26MOL0     C 3437   4.575  10.693   9.683  0.0452 -0.1726 -0.0087
   26MOL0     C 3438   4.683  10.790   9.684  0.2034  0.7753 -0.4824
   26MOL0     C 3439   4.767  10.871   9.699  0.5363 -0.1592  0.4499
   26MOL0     C 3440   4.991  10.348   9.996  0.1401  0.1651  0.2033
   26MOL0     C 3441   5.106  10.275  10.004  0.1458  1.5373 -0.5679
   26MOL0     C 3442   5.119  10.160  10.097  1.0969  0.3670  0.1479
   26MOL0     H 3443   5.528  10.111   9.747 -1.4239  0.4404 -0.2387
   26MOL0     H 3444   5.756   9.997   9.768 -2.1453 -1.6892  0.9729
   26MOL0     H 3445   5.920  10.034  10.094 -1.2943 -0.6100  0.0833
   26MOL0     H 3446   5.944   9.921   9.970  1.8204 -0.9876 -0.2665
   26MOL0     H 3447   6.158  10.114  10.078 -0.7697 -1.7231  1.8494
   26MOL0     H 3448   6.194  10.013   9.940 -0.1041  1.7311 -1.2204
   26MOL0     H 3449   6.149   9.815  10.071  0.5974  0.6730 -0.9872
   26MOL0     H 3450   6.124   9.916  10.221 -0.1188  0.0283  0.2996
   26MOL0     H 3451   6.379   9.942  10.062 -2.7363 -1.7002 -1.5184
   26MOL0     H 3452   6.343   9.991  10.226  0.6047 -1.0717 -0.0815
   26MOL0     H 3453   6.338   9.769  10.300 -0.5743 -0.8526 -0.4761
   26MOL0     H 3454   6.324   9.701  10.145 -1.0275  0.9447  0.3365
   26MOL0     H 3455   6.548   9.657  10.219  0.8929 -0.2662 -3.3478
   26MOL0     H 3456   6.561   9.770  10.091 -0.3395 -1.3307  0.3493
   26MOL0     H 3457   6.573   9.961  10.275  0.9817  0.7983 -0.2249
   26MOL0     H 3458   6.707   9.842  10.254 -1.1615 -0.9868 -2.6191
   26MOL0     H 3459   6.587   9.915  10.488 -0.3637  0.5024 -1.6826
   26MOL0     H 3460   6.504   9.781  10.462 -0.8954  0.0845 -0.3533
   26MOL0     H 3461   6.855   9.920  10.531  0.1389 -0.0030  1.0342
   26MOL0     H 3462   7.066   9.830  10.609  2.1972 -0.7748  0.6166
   26MOL0     H 3463   7.011   9.721  10.744  0.1349 -0.0484 -0.1245
   26MOL0     H 3464   7.083   9.529  10.595  2.2868 -0.9787 -0.8694
   26MOL0     H 3465   7.142   9.657  10.476  0.7979 -1.5373 -0.6740
   26MOL0     H 3466   7.251   9.643  10.764 -0.2241  2.2770  0.1332
   26MOL0     H 3467   7.304   9.739  10.633  0.4239 -0.5793  0.9542
   26MOL0     H 3468   7.374   9.536  10.508 -0.1265 -3.2883 -0.4692
   26MOL0     H 3469   7.314   9.436  10.634  0.5144 -0.5891 -1.1232
   26MOL0     H 3470   7.496   9.328  10.525  1.3381 -2.7669 -1.1336
   26MOL0     H 3471   7.673   9.170  10.516  0.9835  0.9604 -1.0471
   26MOL0     H 3472   8.141   9.166  10.599  3.5264 -0.3498  0.8213
   26MOL0     H 3473   8.353   9.050  10.587 -0.5902  0.5470 -0.1299
   26MOL0     H 3474   8.375   8.601  10.594 -1.8723  0.6036  0.1793
   26MOL0     H 3475   8.387   8.671  10.419  0.2306  0.3600  0.3460
   26MOL0     H 3476   8.616   8.613  10.627 -2.4148 -2.7795  1.5094
   26MOL0     H 3477   8.562   8.516  10.483 -0.3644  1.6436 -2.5884
   26MOL0     H 3478   8.643   8.655  10.332  2.6842 -3.2220  0.3017
   26MOL0     H 3479   8.655   8.797  10.449 -0.9164  0.1632  2.4744
   26MOL0     H 3480   8.826   8.534  10.443  3.1468  0.4414  0.1609
   26MOL0     H 3481   8.854   8.672  10.556  2.5296 -1.9600 -0.1292
   26MOL0     H 3482   8.875   8.829  10.376 -0.6028 -0.8522 -2.1269
   26MOL0     H 3483   8.861   8.712  10.256 -0.3959  1.5241 -0.8623
   26MOL0     H 3484   9.115   8.737  10.293 -0.0207  2.2260  0.8347
   26MOL0     H 3485   9.091   8.702  10.463 -0.2439  1.7178 -0.6833
   26MOL0     H 3486   8.979   8.510  10.247 -0.2143  1.3357 -0.4083
   26MOL0     H 3487   9.023   8.468  10.407 -1.2973 -0.6059 -0.7796
   26MOL0     H 3488   9.228   8.526  10.181  1.0041  2.4527  1.1624
   26MOL0     H 3489   9.268   8.493  10.351 -1.7923 -1.8629  1.6698
   26MOL0     H 3490   8.164   8.678  10.612 -1.9183 -0.2985  0.4228
   26MOL0     H 3491   7.943   8.791  10.643 -1.6754  2.9452  0.3883
   26MOL0     H 3492   7.854   9.371  10.860 -0.0497  0.3015  0.6167
   26MOL0     H 3493   7.677   9.532  10.852 -1.6984  0.6677 -0.9700
   26MOL0     H 3494   5.873  10.336  10.004 -0.4218 -1.1004  1.5621
   26MOL0     H 3495   5.656  10.432   9.980 -0.0333 -0.6267  1.8065
   26MOL0     H 3496   5.263  10.442   9.750 -1.6341 -0.6297 -1.8800
   26MOL0     H 3497   5.083  10.584   9.776  3.1424  0.8946  0.6039
   26MOL0     H 3498   4.748  10.467  10.053  2.0919  2.5289 -0.0088
   26MOL0     H 3499   4.748  10.367   9.900 -0.1824  0.1988  0.3062
   26MOL0     H 3500   4.641  10.654   9.928 -0.4887 -0.4783 -0.7705
   26MOL0     H 3501   4.537  10.509   9.928  1.0263 -1.4035  1.1524
   26MOL0     H 3502   4.543  10.483   9.705  0.4039 -1.3776  2.6017
   26MOL0     H 3503   4.717  10.536   9.689  1.4951 -0.5513  1.6107
   26MOL0     H 3504   4.536  10.685   9.581  1.1920  1.7054 -0.6399
   26MOL0     H 3505   4.508  10.738   9.756  1.3630  1.0713  0.4633
   26MOL0     H 3506   4.837  10.950   9.716  0.2745  0.2666 -0.4152
   26MOL0     H 3507   4.910  10.315  10.060 -0.4534 -2.1500 -1.5959
   26MOL0     H 3508   5.121  10.069  10.037 -0.2944 -0.2281  0.9575
   26MOL0     H 3509   5.213  10.157  10.154  0.8540 -1.3785  0.5081
   26MOL0     H 3510   5.026  10.155  10.155  1.0501  0.2788  0.0655
   27MOL0     O 3511   9.699   6.785   3.189  0.1418  0.8526 -0.0226
   27MOL0     C 3512   9.646   6.720   3.273 -0.1540 -0.9219  0.6927
   27MOL0     O 3513   9.694   6.696   3.390 -0.2594  0.1742 -0.3612
   27MOL0     C 3514   9.780   6.771   3.465  0.4093 -0.8426 -0.4055
   27MOL0     C 3515   9.902   6.819   3.411  0.4152 -0.0561 -0.0657
   27MOL0     C 3516   9.988   6.895   3.483  0.2027 -0.2061  0.3723
   27MOL0     C 3517   9.952   6.947   3.605  0.2127 -0.3639 -0.6036
   27MOL0     O 3518  10.033   7.015   3.686  0.5289 -0.6963 -0.5245
   27MOL0     C 3519  10.174   7.013   3.679  0.4807  0.3332  0.2952
   27MOL0     C 3520  10.226   7.113   3.781 -0.3156 -1.2852 -0.2465
   27MOL0     C 3521  10.378   7.126   3.764 -0.1057  0.3810  0.4491
   27MOL0     C 3522  10.432   7.202   3.640 -0.2322  0.2671  0.4406
   27MOL0     C 3523  10.576   7.257   3.641 -0.5151 -0.3810 -0.1345
   27MOL0     C 3524  10.679   7.150   3.614  0.6982  1.1362  0.4142
   27MOL0     C 3525  10.818   7.184   3.670  0.4191 -0.6249 -0.4275
   27MOL0     C 3526  10.916   7.067   3.639  0.2925 -0.2504  0.3582
   27MOL0     N 3527  11.054   7.107   3.674 -0.7460  0.6154  0.2975
   27MOL0     C 3528  11.110   7.092   3.801 -0.4134 -0.5549 -0.0611
   27MOL0     C 3529  11.244   7.119   3.780  0.2056 -0.9456  0.1482
   27MOL0     C 3530  11.354   7.110   3.889 -0.2122 -0.1016  0.0047
   27MOL0     C 3531  11.341   7.000   3.994 -0.1936  0.0310 -0.1502
   27MOL0     C 3532  11.431   7.029   4.121  0.1083  0.7615  0.3621
   27MOL0     C 3533  11.580   7.057   4.089 -0.5558  0.4089 -0.1712
   27MOL0     O 3534  11.636   6.934   4.042  0.2436  1.0148  0.1844
   27MOL0     C 3535  11.759   6.939   3.980 -0.2557  0.2183 -0.0772
   27MOL0     C 3536  11.816   6.816   3.935  0.0742 -0.0536  0.2812
   27MOL0     C 3537  11.947   6.810   3.873 -0.1193 -0.4851  0.5479
   27MOL0     C 3538  12.024   6.930   3.868 -0.0460  0.2732  1.2228
   27MOL0     C 3539  12.157   6.927   3.806  0.4550 -0.7192  0.2152
   27MOL0     O 3540  12.231   7.043   3.806  0.1251  0.0348 -0.3661
   27MOL0     C 3541  12.353   7.058   3.739  0.8287  0.3234  0.4101
   27MOL0     C 3542  12.423   7.169   3.788 -1.0336 -0.3886 -0.4211
   27MOL0     C 3543  12.542   7.210   3.723  0.1156  0.1466 -0.0505
   27MOL0     C 3544  12.593   7.136   3.615 -0.1730 -0.5897 -0.1803
   27MOL0     O 3545  12.721   7.155   3.559  0.1485  0.3765  0.8249
   27MOL0     C 3546  12.788   7.270   3.594  0.8971  0.2023 -0.1049
   27MOL0     C 3547  12.906   7.284   3.495 -0.3189 -0.5728 -1.1630
   27MOL0     C 3548  12.999   7.402   3.529  1.2464  0.5097 -0.2829
   27MOL0     C 3549  13.119   7.377   3.422 -0.6250 -0.2599 -0.2699
   27MOL0     C 3550  13.204   7.508   3.409  0.8824 -0.0680  0.3181
   27MOL0     C 3551  13.326   7.479   3.319 -0.7300  0.7953 -0.4856
   27MOL0     C 3552  13.400   7.609   3.303  0.2799  0.4297 -0.2983
   27MOL0     C 3553  13.489   7.617   3.173 -0.4431  0.1868 -0.3090
   27MOL0    Cl 3554  13.615   7.492   3.174 -0.0777  0.4032 -0.0967
   27MOL0     C 3555  12.539   7.009   3.589  0.5941  0.2128  0.6533
   27MOL0     C 3556  12.410   6.976   3.644 -0.2489 -0.4213  0.1114
   27MOL0     O 3557  12.197   6.815   3.777 -0.5507  0.2485  0.4716
   27MOL0     C 3558  11.965   7.052   3.914 -0.3425 -0.0804  0.7173
   27MOL0     C 3559  11.837   7.051   3.968 -0.2089 -0.5583 -0.1062
   27MOL0     N 3560  11.266   7.145   3.647 -0.4483  0.1362  0.3666
   27MOL0     N 3561  11.160   7.136   3.583 -0.1460  0.0772  0.3335
   27MOL0     C 3562   9.821   6.919   3.650  1.0180 -0.7954  0.1864
   27MOL0     C 3563   9.741   6.827   3.581  0.7312 -0.2801  0.2811
   27MOL0     C 3564   9.509   6.652   3.232  0.3733  0.6027 -0.4834
   27MOL0     C 3565   9.454   6.689   3.112 -1.5771 -0.2350 -0.3544
   27MOL0     C 3566   9.338   6.631   3.067  0.0077 -0.6914  0.6873
   27MOL0     C 3567   9.264   6.532   3.134  0.8339  0.3686  0.0985
   27MOL0     O 3568   9.148   6.490   3.083  0.5763  0.7163  0.4854
   27MOL0     C 3569   9.049   6.426   3.166 -0.8269  1.0422 -0.1620
   27MOL0     C 3570   8.919   6.409   3.091 -0.2687  0.6220  0.1366
   27MOL0     C 3571   8.801   6.349   3.164 -0.1809  0.2917 -0.1040
   27MOL0     C 3572   8.665   6.342   3.085 -0.5502  0.3659  0.2210
   27MOL0     C 3573   8.571   6.255   3.154  0.6556 -0.2777  0.3308
   27MOL0     C 3574   8.489   6.183   3.211 -0.8344  0.1891  0.1118
   27MOL0     C 3575   9.322   6.492   3.253 -0.5241 -0.5113  0.3370
   27MOL0     C 3576   9.443   6.548   3.305  0.1490 -0.5275 -0.2692
   27MOL0     C 3577   9.496   6.492   3.435  0.1587 -0.2068  0.1858
   27MOL0     H 3578   9.921   6.787   3.309 -0.5179  1.6279 -0.8068
   27MOL0     H 3579  10.089   6.916   3.447 -0.8501  0.8960 -2.1742
   27MOL0     H 3580  10.198   6.909   3.707  0.7036  0.3584  0.2007
   27MOL0     H 3581  10.208   7.042   3.579 -2.7711  1.0482 -0.7192
   27MOL0     H 3582  10.192   7.089   3.882 -0.4145 -1.9099 -0.4238
   27MOL0     H 3583  10.177   7.210   3.765 -4.4341 -3.1001  0.1347
   27MOL0     H 3584  10.428   7.028   3.763  1.3757  1.1094  1.2296
   27MOL0     H 3585  10.424   7.183   3.844  0.6602 -0.0638  0.3361
   27MOL0     H 3586  10.418   7.156   3.541  3.4897  1.1959 -0.6774
   27MOL0     H 3587  10.369   7.291   3.643 -1.7485 -0.7866  3.5907
   27MOL0     H 3588  10.586   7.334   3.563  0.0232 -0.8345 -0.5207
   27MOL0     H 3589  10.589   7.304   3.739 -0.4209 -0.1931 -0.2362
   27MOL0     H 3590  10.650   7.052   3.653  1.9085  0.4923 -0.2448
   27MOL0     H 3591  10.696   7.148   3.506  3.9464  1.7500  0.7928
   27MOL0     H 3592  10.813   7.205   3.777 -0.2005  2.5045 -0.9763
   27MOL0     H 3593  10.852   7.279   3.628  0.2099 -0.7181 -0.8116
   27MOL0     H 3594  10.880   6.974   3.684  1.0845 -0.1546  1.2110
   27MOL0     H 3595  10.914   7.042   3.533 -1.7870  0.8633  0.0849
   27MOL0     H 3596  11.059   7.080   3.896 -0.1017 -1.8924 -0.0440
   27MOL0     H 3597  11.447   7.096   3.833 -0.0176 -0.9219  0.5246
   27MOL0     H 3598  11.355   7.199   3.954  1.0592 -0.6460  0.7702
   27MOL0     H 3599  11.235   6.998   4.023 -0.5022 -0.4708 -1.2713
   27MOL0     H 3600  11.370   6.909   3.941  2.3326  1.8352 -2.0984
   27MOL0     H 3601  11.438   6.935   4.176 -1.2636  0.2370 -0.2904
   27MOL0     H 3602  11.384   7.109   4.180 -0.8166  0.7460 -0.3264
   27MOL0     H 3603  11.637   7.078   4.180 -0.9823  1.4880 -0.1415
   27MOL0     H 3604  11.582   7.141   4.019  0.2826  0.3768 -0.1952
   27MOL0     H 3605  11.760   6.723   3.933  0.9826 -0.6109 -0.4304
   27MOL0     H 3606  11.989   6.713   3.847 -0.0498 -1.1128  2.8007
   27MOL0     H 3607  12.381   7.222   3.873  1.9778  0.3225  0.7305
   27MOL0     H 3608  12.594   7.297   3.763  0.4654 -0.1086  0.0584
   27MOL0     H 3609  12.718   7.352   3.575  3.0010  1.9961 -0.6729
   27MOL0     H 3610  12.816   7.274   3.699 -1.3206 -0.1217  0.5483
   27MOL0     H 3611  12.970   7.196   3.506  0.3173 -0.9772 -5.9946
   27MOL0     H 3612  12.874   7.286   3.390  1.6403 -1.2122 -1.8114
   27MOL0     H 3613  12.945   7.495   3.514  1.9485  1.1531  1.0187
   27MOL0     H 3614  13.029   7.394   3.634  1.0310  0.0780 -0.2524
   27MOL0     H 3615  13.085   7.344   3.324 -1.2537  0.9031 -0.4525
   27MOL0     H 3616  13.178   7.293   3.460 -1.1223 -0.9315 -0.9503
   27MOL0     H 3617  13.235   7.545   3.507 -1.7982 -0.0255  1.2537
   27MOL0     H 3618  13.144   7.583   3.357  1.0888 -0.8365 -1.0600
   27MOL0     H 3619  13.391   7.398   3.355 -2.1669 -0.0355  0.3705
   27MOL0     H 3620  13.282   7.448   3.224 -0.6543  1.7642 -0.8455
   27MOL0     H 3621  13.462   7.621   3.392  0.1338 -3.4303  0.5003
   27MOL0     H 3622  13.330   7.693   3.301  0.1242  0.2874 -1.1552
   27MOL0     H 3623  13.433   7.607   3.080  2.1864 -2.7012 -1.7624
   27MOL0     H 3624  13.539   7.714   3.167  1.6746 -0.6713  1.6910
   27MOL0     H 3625  12.575   6.951   3.505 -3.2001 -1.1946 -0.1980
   27MOL0     H 3626  12.365   6.883   3.608  0.1603 -0.3524 -0.5951
   27MOL0     H 3627  12.023   7.143   3.917 -0.8727  0.2475  1.4015
   27MOL0     H 3628  11.790   7.145   3.994 -1.3410 -0.8574 -1.0290
   27MOL0     H 3629   9.784   6.967   3.741  0.5680 -1.4032  0.3345
   27MOL0     H 3630   9.641   6.806   3.619  1.8688 -4.3094  1.5781
   27MOL0     H 3631   9.496   6.770   3.054  1.7470 -0.0118  2.0042
   27MOL0     H 3632   9.301   6.676   2.976 -0.2168 -1.7672  0.2235
   27MOL0     H 3633   9.028   6.482   3.258  0.3450  3.0866 -1.0761
   27MOL0     H 3634   9.084   6.326   3.195 -1.3916  0.7203 -0.5567
   27MOL0     H 3635   8.931   6.359   2.994  0.4861  0.3425  0.3651
   27MOL0     H 3636   8.882   6.510   3.070  0.8440  1.2057  0.9082
   27MOL0     H 3637   8.797   6.416   3.250 -0.3496  1.0837 -0.7214
   27MOL0     H 3638   8.824   6.249   3.203 -2.3663  0.2742  1.3080
   27MOL0     H 3639   8.621   6.439   3.058  2.1288  2.8013  3.6652
   27MOL0     H 3640   8.700   6.296   2.992 -1.8579 -1.9310  0.8016
   27MOL0     H 3641   8.437   6.119   3.278  3.5340 -0.8048  2.9791
   27MOL0     H 3642   9.271   6.424   3.320 -0.3058  3.1225  4.6781
   27MOL0     H 3643   9.435   6.407   3.468 -0.3808  0.6768  1.5898
   27MOL0     H 3644   9.601   6.461   3.445  0.0145 -1.0653 -0.8172
   27MOL0     H 3645   9.483   6.572   3.509  0.0606 -0.0930  0.0446
   28MOL0     O 3646   9.775   9.645  10.586 -0.1269 -1.2221  0.0562
   28MOL0     C 3647   9.703   9.586  10.503 -0.1421  0.1409 -0.0194
   28MOL0     O 3648   9.747   9.501  10.409  0.6764 -0.3152 -0.9796
   28MOL0     C 3649   9.880   9.459  10.393  0.1795  0.4059 -0.2094
   28MOL0     C 3650   9.992   9.543  10.396  0.3181  0.8788 -0.0514
   28MOL0     C 3651  10.122   9.488  10.366  0.7126 -1.3097 -0.7066
   28MOL0     C 3652  10.141   9.352  10.347 -0.6246  0.6582  1.1934
   28MOL0     O 3653  10.274   9.317  10.310  0.3765  0.0542  0.2036
   28MOL0     C 3654  10.310   9.178  10.322  0.0279  0.6710  0.6095
   28MOL0     C 3655  10.443   9.166  10.248  0.1905 -0.1138  0.1861
   28MOL0     C 3656  10.491   9.017  10.268  0.7191 -0.2581  0.4335
   28MOL0     C 3657  10.642   8.994  10.217  0.1117  0.2808  0.1859
   28MOL0     C 3658  10.682   8.844  10.251  1.0320 -1.3796 -1.2355
   28MOL0     C 3659  10.834   8.829  10.223  0.3551 -0.3638  0.1231
   28MOL0     C 3660  10.859   8.676  10.213 -1.0174  0.4383  0.8897
   28MOL0     C 3661  11.005   8.637  10.180  0.1674 -0.7143  0.6903
   28MOL0     N 3662  11.063   8.698  10.062 -0.5370  0.1033 -0.7037
   28MOL0     C 3663  11.130   8.820  10.055 -0.2307  1.0070 -0.2777
   28MOL0     C 3664  11.177   8.837   9.931  0.2007  0.6351 -0.3010
   28MOL0     C 3665  11.250   8.949   9.895 -0.3460 -0.5251 -0.1692
   28MOL0     C 3666  11.385   8.956   9.975  0.8613 -0.3485 -0.6140
   28MOL0     C 3667  11.505   9.000   9.883  0.2160  0.9349 -0.0058
   28MOL0     C 3668  11.632   9.061   9.966 -0.1795 -0.7392 -0.1546
   28MOL0     O 3669  11.580   9.189  10.037 -0.0581  0.6439  0.5725
   28MOL0     C 3670  11.667   9.265  10.107  0.3075  0.0358  0.9246
   28MOL0     C 3671  11.618   9.374  10.177 -0.4691 -0.1495 -0.1647
   28MOL0     C 3672  11.700   9.470  10.256  0.2558  0.4626  0.2161
   28MOL0     C 3673  11.843   9.437  10.248  0.4203 -0.0622 -0.3387
   28MOL0     C 3674  11.941   9.514  10.325  0.1241 -0.7354 -0.1217
   28MOL0     O 3675  12.070   9.514  10.271 -0.3323 -0.3425  0.2870
   28MOL0     C 3676  12.170   9.595  10.322 -0.4212  0.7162  1.2960
   28MOL0     C 3677  12.279   9.596  10.227 -0.0128 -1.0914 -0.1373
   28MOL0     C 3678  12.399   9.661  10.260  0.6077 -0.7599  0.3033
   28MOL0     C 3679  12.405   9.744  10.371 -0.7190  0.2039  0.3963
   28MOL0     O 3680  12.522   9.814  10.389 -0.6713 -0.5329  0.0958
   28MOL0     C 3681  12.507   9.930  10.476  0.3504 -0.0175  0.1542
   28MOL0     C 3682  12.650   9.988  10.494 -0.0444  0.3606  0.1313
   28MOL0     C 3683  12.699  10.049  10.365 -0.9639 -0.6317  0.0343
   28MOL0     C 3684  12.846  10.093  10.402  0.0631 -0.1635  0.1757
   28MOL0     C 3685  12.933  10.160  10.297  1.0742  0.3569 -0.1657
   28MOL0     C 3686  13.058  10.224  10.353 -0.8660  0.2590  0.9040
   28MOL0     C 3687  13.150  10.307  10.253  0.0915 -0.0215  0.2107
   28MOL0     C 3688  13.286  10.246  10.244 -0.1592  0.3699 -0.6940
   28MOL0    Cl 3689  13.371  10.351  10.136  0.1433  0.1048 -0.3194
   28MOL0     C 3690  12.295   9.749  10.453  0.4814 -0.1111  0.3257
   28MOL0     C 3691  12.177   9.685  10.433  0.3015 -0.1075  0.3602
   28MOL0     O 3692  11.898   9.599  10.402 -0.1598  0.7039  0.1974
   28MOL0     C 3693  11.883   9.312  10.185  0.7680 -0.0260 -0.0991
   28MOL0     C 3694  11.800   9.228  10.115  0.0704 -0.6900 -0.3821
   28MOL0     N 3695  11.134   8.728   9.859 -0.3516 -0.0781  0.7973
   28MOL0     N 3696  11.071   8.643   9.938  0.5426 -0.7305  0.3977
   28MOL0     C 3697  10.029   9.264  10.354  0.4823  0.6787 -0.3087
   28MOL0     C 3698   9.902   9.321  10.376 -0.4366 -0.2495 -0.1428
   28MOL0     C 3699   9.553   9.601  10.515  0.0047 -0.5046  0.9566
   28MOL0     C 3700   9.467   9.498  10.457 -0.4897  0.0322 -0.5056
   28MOL0     C 3701   9.328   9.504  10.465  0.6297  0.0631  0.1804
   28MOL0     C 3702   9.267   9.612  10.531 -0.2337  0.0942 -0.4944
   28MOL0     O 3703   9.133   9.617  10.548  0.2041 -0.0655  0.5078
   28MOL0     C 3704   9.067   9.717  10.637 -0.6257  0.2593 -0.2101
   28MOL0     C 3705   8.921   9.670  10.649 -0.2716  0.0192  0.0176
   28MOL0     C 3706   8.845   9.638  10.512 -0.4281  0.0018  0.5531
   28MOL0     C 3707   8.715   9.562  10.548 -0.1481  0.6738  0.7131
   28MOL0     C 3708   8.629   9.555  10.427 -0.2716  0.2762  0.7452
   28MOL0     C 3709   8.567   9.526  10.327  0.4846  0.0999  0.3020
   28MOL0     C 3710   9.348   9.712  10.585 -0.1281 -1.0530  0.4052
   28MOL0     C 3711   9.486   9.714  10.576 -0.2027 -0.5716 -0.8276
   28MOL0     C 3712   9.560   9.828  10.648 -0.2428 -0.8276  0.1915
   28MOL0     H 3713   9.964   9.646  10.416 -0.1069  0.9960 -1.1728
   28MOL0     H 3714  10.206   9.553  10.388  1.2278 -2.2397  0.1588
   28MOL0     H 3715  10.319   9.150  10.427  0.9464  2.0493  0.9341
   28MOL0     H 3716  10.234   9.114  10.276 -0.4673 -0.8665  3.3794
   28MOL0     H 3717  10.523   9.237  10.275  1.8206 -1.9060  0.3027
   28MOL0     H 3718  10.427   9.185  10.141 -1.8636  0.3797  0.5365
   28MOL0     H 3719  10.419   8.953  10.214  1.4220 -0.9649  0.3169
   28MOL0     H 3720  10.503   8.993  10.374 -0.4794 -1.4413  0.3336
   28MOL0     H 3721  10.647   9.028  10.113 -1.0994  2.4859  0.7820
   28MOL0     H 3722  10.714   9.057  10.269  0.5496 -1.5601  1.9197
   28MOL0     H 3723  10.660   8.807  10.352 -3.7358 -0.9527 -1.8821
   28MOL0     H 3724  10.620   8.776  10.191 -1.1198 -1.7587  1.2353
   28MOL0     H 3725  10.868   8.884  10.135  0.2359  1.4017  1.1323
   28MOL0     H 3726  10.898   8.870  10.302 -0.9133  1.1812  0.4071
   28MOL0     H 3727  10.783   8.650  10.139 -0.9479  2.4771  0.0235
   28MOL0     H 3728  10.841   8.621  10.306 -0.6492 -2.4552 -0.6531
   28MOL0     H 3729  11.074   8.657  10.262  3.1634 -2.6974 -1.1541
   28MOL0     H 3730  11.003   8.529  10.161  0.7445 -0.5092 -0.6542
   28MOL0     H 3731  11.129   8.894  10.134 -0.2602  1.5231 -0.7559
   28MOL0     H 3732  11.268   8.950   9.787 -3.4172 -0.1433 -0.7603
   28MOL0     H 3733  11.194   9.041   9.916  2.0545  0.5653  2.0991
   28MOL0     H 3734  11.380   9.031  10.055 -0.3108 -1.9181  0.8441
   28MOL0     H 3735  11.408   8.862  10.024 -2.0412 -0.4955  0.6907
   28MOL0     H 3736  11.476   9.073   9.807 -0.3461  2.6222  1.7280
   28MOL0     H 3737  11.544   8.906   9.843 -2.4746 -0.4877  0.4975
   28MOL0     H 3738  11.717   9.083   9.901  0.6312  1.1455  1.4541
   28MOL0     H 3739  11.658   8.993  10.048  1.6858 -0.6000 -0.5888
   28MOL0     H 3740  11.511   9.388  10.192 -1.0296 -0.1501 -3.4173
   28MOL0     H 3741  11.661   9.562  10.300  0.2491  0.4589  0.2164
   28MOL0     H 3742  12.267   9.548  10.130  2.0048 -2.0197  0.0194
   28MOL0     H 3743  12.492   9.668  10.205 -1.0964  3.4001 -2.6078
   28MOL0     H 3744  12.433  10.004  10.446  0.5762 -0.5632 -1.9067
   28MOL0     H 3745  12.473   9.890  10.572 -0.9912 -0.5015 -0.5000
   28MOL0     H 3746  12.640  10.055  10.581 -2.8422 -1.8053  1.6391
   28MOL0     H 3747  12.717   9.904  10.514 -1.5608 -0.3822  2.6316
   28MOL0     H 3748  12.705   9.990  10.272  2.2900 -1.4173  0.6168
   28MOL0     H 3749  12.636  10.137  10.350 -0.7134  0.2523  3.4384
   28MOL0     H 3750  12.892  10.002  10.440 -1.9744 -0.3662  2.4058
   28MOL0     H 3751  12.844  10.154  10.493 -2.6872  0.1449 -0.0113
   28MOL0     H 3752  12.876  10.229  10.235  1.0765 -0.9431 -1.6915
   28MOL0     H 3753  12.974  10.080  10.235  3.4731  0.2339  1.4182
   28MOL0     H 3754  13.031  10.288  10.437  2.5630 -1.9188  3.9618
   28MOL0     H 3755  13.121  10.142  10.389  1.0891  0.1108 -2.4702
   28MOL0     H 3756  13.146  10.408  10.293  0.8668 -0.3823  1.2505
   28MOL0     H 3757  13.112  10.301  10.151  2.8641  2.0546 -1.0784
   28MOL0     H 3758  13.336  10.247  10.342 -0.4375 -1.4395 -0.5082
   28MOL0     H 3759  13.285  10.150  10.192  1.3310 -0.1730  0.2244
   28MOL0     H 3760  12.288   9.797  10.550 -2.0179 -0.6765  0.4991
   28MOL0     H 3761  12.097   9.701  10.505  0.7629  2.0255  0.4740
   28MOL0     H 3762  11.990   9.299  10.189  0.9634  1.4810 -0.0147
   28MOL0     H 3763  11.854   9.150  10.062 -0.0298 -1.9234  1.2291
   28MOL0     H 3764  10.037   9.158  10.335 -1.5965 -0.6070  4.5603
   28MOL0     H 3765   9.810   9.263  10.384 -1.4575  1.2603 -0.4233
   28MOL0     H 3766   9.522   9.413  10.419 -0.4951 -0.2074  0.0152
   28MOL0     H 3767   9.268   9.432  10.409  0.5155  2.7359 -3.5611
   28MOL0     H 3768   9.072   9.822  10.608 -2.9612  1.2378  2.3855
   28MOL0     H 3769   9.121   9.723  10.732  2.0164  1.7658 -1.7031
   28MOL0     H 3770   8.865   9.747  10.703 -0.0447 -0.3686  0.8264
   28MOL0     H 3771   8.920   9.579  10.709 -0.1207 -0.3163 -0.4815
   28MOL0     H 3772   8.907   9.583  10.441 -0.0214  0.9285  0.1719
   28MOL0     H 3773   8.828   9.734  10.463  0.6053 -0.6515 -1.1425
   28MOL0     H 3774   8.739   9.460  10.581 -0.3571 -0.1061 -1.3842
   28MOL0     H 3775   8.651   9.604  10.627 -4.0369 -0.0933 -1.7290
   28MOL0     H 3776   8.509   9.475  10.253  1.5070 -2.1711  1.0010
   28MOL0     H 3777   9.307   9.783  10.656  5.6902  1.2415  2.0002
   28MOL0     H 3778   9.606   9.794  10.741  1.4562 -0.9658 -0.6451
   28MOL0     H 3779   9.637   9.874  10.584 -0.7891  0.0253  0.1444
   28MOL0     H 3780   9.494   9.909  10.679 -0.8113  0.0049 -2.8198
   29MOL0     O 3781   2.773   2.765   7.249 -0.1004 -0.4042  0.3565
   29MOL0     C 3782   2.735   2.882   7.277  0.7844  0.7036  0.4153
   29MOL0     O 3783   2.815   2.989   7.301  0.6667 -0.8262 -0.8458
   29MOL0     C 3784   2.949   2.974   7.322 -0.1250 -0.4056 -0.1397
   29MOL0     C 3785   3.009   3.062   7.410 -0.1029 -0.7090  0.4886
   29MOL0     C 3786   3.152   3.060   7.419  0.4184 -0.7965  1.7829
   29MOL0     C 3787   3.229   2.975   7.350 -0.9523 -0.2009 -0.6639
   29MOL0     O 3788   3.364   2.990   7.362 -0.4706 -0.6798  0.0097
   29MOL0     C 3789   3.429   2.994   7.238 -0.6905  0.8614  0.2282
   29MOL0     C 3790   3.574   3.045   7.248 -0.2999  0.8290  0.1794
   29MOL0     C 3791   3.643   3.059   7.105 -0.2463  0.1582 -0.6573
   29MOL0     C 3792   3.678   2.923   7.046 -0.1239 -0.1383 -0.3035
   29MOL0     C 3793   3.830   2.881   7.057 -0.1283 -0.1404  0.9911
   29MOL0     C 3794   3.915   2.973   6.975  0.1082  0.2224  0.2787
   29MOL0     C 3795   4.059   2.959   7.000 -0.6005  0.4129 -0.1148
   29MOL0     C 3796   4.109   2.813   6.977 -0.5432 -0.0186 -0.1345
   29MOL0     N 3797   4.253   2.810   6.975  0.4849 -0.4695 -0.2564
   29MOL0     C 3798   4.332   2.852   7.080  0.1685  0.2308  0.0852
   29MOL0     C 3799   4.462   2.856   7.035 -0.4801 -0.1709 -0.1194
   29MOL0     C 3800   4.582   2.898   7.111 -0.2504  0.6193  0.5144
   29MOL0     C 3801   4.709   2.824   7.067 -0.4202  0.0437 -0.1608
   29MOL0     C 3802   4.810   2.843   7.180  0.3196  0.4670  0.1989
   29MOL0     C 3803   4.951   2.798   7.138 -0.1166 -0.1110  0.3916
   29MOL0     O 3804   5.014   2.866   7.028 -0.3442  0.5729 -1.0899
   29MOL0     C 3805   5.146   2.829   7.009  0.1612 -0.0168 -0.4474
   29MOL0     C 3806   5.191   2.868   6.881 -1.2158  0.1788  0.3287
   29MOL0     C 3807   5.328   2.842   6.838  0.0919  0.3951  0.1365
   29MOL0     C 3808   5.414   2.780   6.926 -0.3842 -0.1986  0.3390
   29MOL0     C 3809   5.550   2.749   6.895  0.3661  0.1209 -0.1001
   29MOL0     O 3810   5.599   2.812   6.788  0.0620 -0.7332 -0.4124
   29MOL0     C 3811   5.725   2.785   6.737 -0.0895 -0.3841  0.4639
   29MOL0     C 3812   5.832   2.710   6.786  0.4929  0.5294  0.2709
   29MOL0     C 3813   5.955   2.697   6.718 -0.1034 -1.0688 -0.1419
   29MOL0     C 3814   5.973   2.765   6.597  0.8204  0.4176 -0.8171
   29MOL0     O 3815   6.073   2.761   6.510 -0.0357  0.4927 -0.0612
   29MOL0     C 3816   6.176   2.653   6.526 -0.1573  0.0815 -0.4463
   29MOL0     C 3817   6.287   2.665   6.423 -0.6683 -0.0282 -0.6555
   29MOL0     C 3818   6.399   2.559   6.421 -0.1046 -0.2563  0.2750
   29MOL0     C 3819   6.349   2.414   6.388 -0.3579 -1.0889  0.1450
   29MOL0     C 3820   6.466   2.324   6.358  0.0802 -0.1169 -0.7045
   29MOL0     C 3821   6.534   2.275   6.484 -0.4053 -0.0863  0.4489
   29MOL0     C 3822   6.627   2.155   6.436  0.1648  0.4970  0.9891
   29MOL0     C 3823   6.705   2.092   6.559 -0.3756  0.4977  1.3932
   29MOL0    Cl 3824   6.829   2.216   6.615 -0.2682  0.1424 -0.0620
   29MOL0     C 3825   5.870   2.842   6.544  0.0486 -0.3510 -0.0593
   29MOL0     C 3826   5.749   2.848   6.615 -0.4695  0.3348  0.9257
   29MOL0     O 3827   5.611   2.669   6.962  0.1922 -0.6122  1.0843
   29MOL0     C 3828   5.366   2.737   7.052  0.2048  0.4771  0.2881
   29MOL0     C 3829   5.236   2.765   7.095 -0.2190  0.3596 -0.0738
   29MOL0     N 3830   4.458   2.809   6.904  0.4160  0.1665 -0.3581
   29MOL0     N 3831   4.332   2.801   6.865  0.1235  0.1202 -0.5787
   29MOL0     C 3832   3.167   2.877   7.270 -0.0315  0.7194 -0.4822
   29MOL0     C 3833   3.036   2.887   7.250  0.2809 -0.3867 -0.2324
   29MOL0     C 3834   2.579   2.895   7.253 -0.0822 -0.1178 -0.8637
   29MOL0     C 3835   2.512   2.777   7.216  0.5584 -0.1832  0.0922
   29MOL0     C 3836   2.367   2.788   7.196 -1.1040  0.4153 -0.4011
   29MOL0     C 3837   2.304   2.905   7.206 -0.6016 -0.4672 -0.5086
   29MOL0     O 3838   2.171   2.918   7.181  0.3073  0.2616  0.3502
   29MOL0     C 3839   2.094   2.814   7.117  0.7425 -0.5898  0.2138
   29MOL0     C 3840   1.948   2.841   7.128 -1.0195 -0.8156 -0.7218
   29MOL0     C 3841   1.904   2.885   7.274 -0.5485  0.4673  0.5711
   29MOL0     C 3842   1.753   2.928   7.267 -0.3154  0.2131 -0.7493
   29MOL0     C 3843   1.724   3.063   7.315 -0.5687 -0.1682  0.9636
   29MOL0     C 3844   1.697   3.176   7.351 -0.1351  0.0857 -0.5696
   29MOL0     C 3845   2.368   3.008   7.259  0.5420 -0.4389 -0.4246
   29MOL0     C 3846   2.507   3.011   7.286  0.7137  0.1883 -0.6345
   29MOL0     C 3847   2.562   3.132   7.341  0.0241  0.4037  0.5761
   29MOL0     H 3848   2.940   3.133   7.453 -1.1260 -2.3580  1.7001
   29MOL0     H 3849   3.210   3.125   7.483  0.3439  0.8181  0.2688
   29MOL0     H 3850   3.446   2.893   7.201 -0.1306  0.4201  1.6359
   29MOL0     H 3851   3.370   3.056   7.170 -0.8599  0.1778 -0.2534
   29MOL0     H 3852   3.631   2.977   7.311 -1.5506  0.0569  0.5113
   29MOL0     H 3853   3.564   3.142   7.298 -1.6791  0.1153  1.3419
   29MOL0     H 3854   3.728   3.124   7.128 -1.0839  1.3676 -0.8849
   29MOL0     H 3855   3.578   3.112   7.035  0.0395 -0.2127 -1.2061
   29MOL0     H 3856   3.611   2.845   7.082  4.0513 -4.1362 -0.2735
   29MOL0     H 3857   3.656   2.936   6.939  0.7200  1.8441 -0.2764
   29MOL0     H 3858   3.861   2.886   7.162  2.0350 -0.1180  0.3968
   29MOL0     H 3859   3.847   2.779   7.022  0.0072  1.0103 -2.6399
   29MOL0     H 3860   3.892   2.946   6.872  0.0479  0.2451  0.2860
   29MOL0     H 3861   3.893   3.080   6.984  0.4070  0.1557  2.3746
   29MOL0     H 3862   4.071   2.980   7.106 -0.2558 -0.4019  0.0150
   29MOL0     H 3863   4.125   3.025   6.943 -2.2979  1.0134 -1.4998
   29MOL0     H 3864   4.074   2.747   7.056 -0.2517 -1.3412 -1.0820
   29MOL0     H 3865   4.076   2.770   6.882 -2.8117 -0.5651  0.8305
   29MOL0     H 3866   4.292   2.878   7.177 -1.9135 -1.7831 -0.1399
   29MOL0     H 3867   4.581   3.007   7.102 -3.0138  0.6930  0.7678
   29MOL0     H 3868   4.570   2.881   7.218  2.3073  1.9668  1.0919
   29MOL0     H 3869   4.680   2.718   7.062  1.6410 -0.6608  1.4851
   29MOL0     H 3870   4.751   2.865   6.975  0.7994 -1.9499 -0.5627
   29MOL0     H 3871   4.769   2.797   7.271  2.3860  2.7148  2.4180
   29MOL0     H 3872   4.823   2.949   7.203  0.4363  0.8884 -1.6503
   29MOL0     H 3873   4.938   2.691   7.119  0.1222 -0.1831  0.6288
   29MOL0     H 3874   5.003   2.799   7.234 -2.2202 -1.8816  1.6340
   29MOL0     H 3875   5.130   2.919   6.808  0.4324  1.0612 -0.5056
   29MOL0     H 3876   5.355   2.875   6.739  1.9924 -1.3164  0.0266
   29MOL0     H 3877   5.831   2.655   6.880  2.8125 -3.1556 -1.6510
   29MOL0     H 3878   6.033   2.633   6.756 -1.0027 -1.3979  1.2100
   29MOL0     H 3879   6.238   2.666   6.615 -0.3284 -0.7138 -0.1986
   29MOL0     H 3880   6.129   2.555   6.533 -0.7017  0.4151  1.0813
   29MOL0     H 3881   6.247   2.666   6.321 -1.7697  3.2018 -0.3185
   29MOL0     H 3882   6.345   2.757   6.438  2.3970 -1.9058 -0.1048
   29MOL0     H 3883   6.478   2.594   6.354 -1.6837  1.8791 -0.5859
   29MOL0     H 3884   6.450   2.555   6.518  2.2479  1.2001 -0.8189
   29MOL0     H 3885   6.293   2.419   6.294 -2.1834  0.2687  1.2430
   29MOL0     H 3886   6.296   2.364   6.469  0.8919 -3.4490 -0.4141
   29MOL0     H 3887   6.546   2.368   6.298  1.7529  0.0317  1.5375
   29MOL0     H 3888   6.429   2.237   6.304  1.6164 -0.1238 -1.7915
   29MOL0     H 3889   6.589   2.358   6.530 -1.6177  0.6738  0.5852
   29MOL0     H 3890   6.467   2.236   6.562  1.5296 -2.3714  1.0658
   29MOL0     H 3891   6.702   2.179   6.360  0.2915  0.2225  1.0262
   29MOL0     H 3892   6.558   2.082   6.394  2.2912 -1.9918  1.5687
   29MOL0     H 3893   6.637   2.067   6.640 -0.2753  0.6083  1.5114
   29MOL0     H 3894   6.756   2.001   6.525  0.8722  0.1971  3.8577
   29MOL0     H 3895   5.867   2.888   6.446 -1.4037  1.3691  0.7532
   29MOL0     H 3896   5.676   2.908   6.563  1.2616  1.9567  0.2663
   29MOL0     H 3897   5.433   2.679   7.114  0.4438 -0.5120 -0.8496
   29MOL0     H 3898   5.204   2.756   7.198  1.6839  1.7701  0.7129
   29MOL0     H 3899   3.223   2.808   7.208 -0.2701 -0.4655  0.5817
   29MOL0     H 3900   3.009   2.812   7.176  2.0445 -2.1932  0.8500
   29MOL0     H 3901   2.538   2.672   7.207 -1.7612 -0.8086  0.0723
   29MOL0     H 3902   2.323   2.695   7.162 -0.9763 -0.0712  0.7004
   29MOL0     H 3903   2.106   2.715   7.164 -1.2706 -2.1928 -2.3435
   29MOL0     H 3904   2.125   2.804   7.013  0.4504  0.5721  0.0056
   29MOL0     H 3905   1.902   2.743   7.112  0.6039 -2.1493  1.9115
   29MOL0     H 3906   1.913   2.919   7.060  2.8318  1.7690 -0.0531
   29MOL0     H 3907   1.961   2.971   7.310  1.4809 -0.6999  0.2949
   29MOL0     H 3908   1.921   2.805   7.347 -2.9525 -0.5507  0.1213
   29MOL0     H 3909   1.708   2.917   7.168  0.1519  2.8182 -1.3142
   29MOL0     H 3910   1.701   2.860   7.336 -0.4223 -0.2456 -1.2746
   29MOL0     H 3911   1.674   3.276   7.380  1.0551 -0.3695  2.2256
   29MOL0     H 3912   2.309   3.099   7.266 -1.1595 -1.5447  0.6181
   29MOL0     H 3913   2.622   3.169   7.258  0.5600 -0.0202  0.7644
   29MOL0     H 3914   2.486   3.201   7.378 -0.5148  0.2698 -0.2577
   29MOL0     H 3915   2.631   3.108   7.423  0.3233 -1.5154 -0.1794
   30MOL0     O 3916  10.979   8.500   1.659  0.4046 -0.3094  0.4359
   30MOL0     C 3917  10.880   8.447   1.715  0.2695  0.5468  0.1402
   30MOL0     O 3918  10.884   8.363   1.823 -0.5279 -0.6281 -0.1089
   30MOL0     C 3919  11.002   8.313   1.888  0.0280 -0.2635 -0.1599
   30MOL0     C 3920  10.973   8.224   1.990 -0.1391  0.1425 -0.0071
   30MOL0     C 3921  11.077   8.158   2.061 -0.4265 -0.2873 -0.3573
   30MOL0     C 3922  11.211   8.178   2.020  0.3476  0.8216 -0.6716
   30MOL0     O 3923  11.302   8.099   2.084  0.7406 -1.0634 -0.1350
   30MOL0     C 3924  11.428   8.076   2.021 -0.3024 -1.3390  0.3364
   30MOL0     C 3925  11.523   7.999   2.108  0.1416 -0.4438  0.2605
   30MOL0     C 3926  11.663   7.997   2.044  0.0431 -0.1287  0.3354
   30MOL0     C 3927  11.774   7.943   2.135  0.3221  0.5996 -0.8229
   30MOL0     C 3928  11.921   7.926   2.096  0.7971 -0.1278  0.3580
   30MOL0     C 3929  11.978   8.058   2.071  0.3904  0.3119 -0.2904
   30MOL0     C 3930  12.124   8.054   2.020  1.0927 -0.1349 -1.0221
   30MOL0     C 3931  12.181   8.188   1.997 -0.0890 -0.3002 -0.2592
   30MOL0     N 3932  12.105   8.276   1.901  0.1895 -0.2732 -0.7179
   30MOL0     C 3933  12.009   8.365   1.938  0.3020  1.0233 -0.8836
   30MOL0     C 3934  11.954   8.409   1.825 -0.0568  0.2725  0.4027
   30MOL0     C 3935  11.852   8.508   1.796 -0.0468  0.0264 -0.4558
   30MOL0     C 3936  11.900   8.646   1.816  0.3621  0.3598 -0.0191
   30MOL0     C 3937  11.772   8.742   1.833  0.5282  0.0743  0.2331
   30MOL0     C 3938  11.829   8.883   1.872  0.1784 -0.8052  0.1421
   30MOL0     O 3939  11.837   8.889   2.016 -0.1098  0.1433 -0.0475
   30MOL0     C 3940  11.722   8.927   2.087 -0.2745  0.3182 -0.4235
   30MOL0     C 3941  11.738   8.950   2.225  0.0542 -0.8244  0.0659
   30MOL0     C 3942  11.628   8.955   2.316  0.2828 -0.7191 -0.7185
   30MOL0     C 3943  11.497   8.948   2.269  0.4110  0.2870  0.1938
   30MOL0     C 3944  11.385   8.965   2.364  0.2085  0.1191 -0.9848
   30MOL0     O 3945  11.260   8.911   2.335 -0.6389  0.2377  0.1410
   30MOL0     C 3946  11.148   8.934   2.409  0.7532 -0.0226 -0.1150
   30MOL0     C 3947  11.062   8.828   2.428  0.2822  0.4376 -0.3242
   30MOL0     C 3948  10.967   8.838   2.532 -0.2549 -0.2010 -0.0604
   30MOL0     C 3949  10.949   8.953   2.608  0.8480  0.0347 -0.1918
   30MOL0     O 3950  10.858   8.942   2.715 -0.8039 -1.0358 -0.3586
   30MOL0     C 3951  10.841   9.049   2.819 -0.3031  0.4188 -0.6151
   30MOL0     C 3952  10.709   9.034   2.881 -0.4696 -0.3823 -0.1224
   30MOL0     C 3953  10.608   9.078   2.780 -0.4913  0.1406  0.2253
   30MOL0     C 3954  10.475   9.008   2.814  0.4245  0.6034 -0.3163
   30MOL0     C 3955  10.356   9.075   2.729  0.4721  0.0458  0.2606
   30MOL0     C 3956  10.223   9.011   2.757  0.4304  0.3591  0.5755
   30MOL0     C 3957  10.178   9.029   2.899  1.0619  0.0329  0.0171
   30MOL0     C 3958  10.027   9.012   2.915  0.0211 -0.3590  0.2661
   30MOL0    Cl 3959   9.971   9.046   3.083 -0.0412  0.0345 -0.2571
   30MOL0     C 3960  11.035   9.055   2.582  0.1355 -0.5405 -0.0574
   30MOL0     C 3961  11.121   9.053   2.480 -0.3643  0.7406  0.0868
   30MOL0     O 3962  11.410   9.020   2.470  0.0780 -0.6156 -0.1139
   30MOL0     C 3963  11.481   8.920   2.135  0.8266 -0.0026 -0.0659
   30MOL0     C 3964  11.590   8.923   2.047  0.2070  0.6602  0.0159
   30MOL0     N 3965  12.017   8.338   1.718 -0.1864  0.4780 -0.3196
   30MOL0     N 3966  12.111   8.264   1.764  0.0346 -0.4160  0.2811
   30MOL0     C 3967  11.236   8.262   1.911 -0.7788  0.1137 -0.0722
   30MOL0     C 3968  11.140   8.341   1.857  0.1321  0.0965  0.4967
   30MOL0     C 3969  10.748   8.455   1.645  0.6983 -0.8540  0.5357
   30MOL0     C 3970  10.747   8.489   1.510  0.6963 -0.2365 -0.1489
   30MOL0     C 3971  10.637   8.486   1.425  1.2710 -0.1079 -0.2921
   30MOL0     C 3972  10.513   8.446   1.478  0.5811  0.2025 -0.7400
   30MOL0     O 3973  10.404   8.430   1.410  0.4573 -0.2567 -0.2802
   30MOL0     C 3974  10.401   8.456   1.269 -0.4110 -0.6354  0.1604
   30MOL0     C 3975  10.260   8.445   1.221  0.1922  0.6872 -0.1825
   30MOL0     C 3976  10.244   8.523   1.095 -1.0029 -0.1471 -0.3412
   30MOL0     C 3977  10.113   8.480   1.018  0.1146  0.2132 -0.2071
   30MOL0     C 3978  10.135   8.354   0.938 -0.4380 -0.4538 -0.6865
   30MOL0     C 3979  10.161   8.257   0.873 -0.5212 -0.7851 -0.2170
   30MOL0     C 3980  10.512   8.418   1.621  0.3743 -0.3572  0.0548
   30MOL0     C 3981  10.630   8.419   1.701 -0.2486 -0.2638 -1.0243
   30MOL0     C 3982  10.613   8.394   1.849  0.6514 -0.3934 -0.4906
   30MOL0     H 3983  10.869   8.211   2.018 -0.8867 -0.3959 -2.7784
   30MOL0     H 3984  11.061   8.085   2.140  2.0119 -0.2307  0.2680
   30MOL0     H 3985  11.432   8.045   1.916  1.9689 -0.7462  0.2012
   30MOL0     H 3986  11.475   8.174   2.030 -1.6072 -0.6449 -0.0899
   30MOL0     H 3987  11.484   7.897   2.107  0.1547 -0.4478  0.1094
   30MOL0     H 3988  11.531   8.042   2.208 -0.8413  2.1567 -0.7019
   30MOL0     H 3989  11.687   8.098   2.011 -0.4304 -0.1146  0.0279
   30MOL0     H 3990  11.668   7.935   1.953  1.8289 -0.9437  0.9289
   30MOL0     H 3991  11.773   7.994   2.232  2.6037  1.1103 -1.0245
   30MOL0     H 3992  11.738   7.841   2.155 -0.2334  0.6380 -1.6104
   30MOL0     H 3993  11.973   7.874   2.176 -1.3313 -1.9044  0.6750
   30MOL0     H 3994  11.931   7.870   2.002  0.9316 -0.2284  0.4324
   30MOL0     H 3995  11.908   8.105   2.002  1.0682 -0.2259 -1.3575
   30MOL0     H 3996  11.974   8.127   2.156  0.0572  2.6592 -2.1482
   30MOL0     H 3997  12.123   8.010   1.921 -1.5910  1.2480 -1.7113
   30MOL0     H 3998  12.189   7.991   2.081  2.0047  0.8292 -0.9761
   30MOL0     H 3999  12.187   8.219   2.102  0.3272  0.4842 -0.5131
   30MOL0     H 4000  12.285   8.177   1.965 -0.0842  0.3647 -0.4653
   30MOL0     H 4001  12.003   8.395   2.042  1.1372 -1.0642 -0.1817
   30MOL0     H 4002  11.812   8.497   1.695 -0.8544  2.6227 -0.4972
   30MOL0     H 4003  11.772   8.490   1.869  0.0543  1.0944 -0.0569
   30MOL0     H 4004  11.962   8.649   1.906  0.3510  0.1477 -0.0062
   30MOL0     H 4005  11.960   8.674   1.729  0.7032 -0.7100 -0.1385
   30MOL0     H 4006  11.700   8.697   1.901  0.1830  0.3290  0.0426
   30MOL0     H 4007  11.719   8.752   1.738  0.2417  0.8649  0.4663
   30MOL0     H 4008  11.755   8.956   1.837  2.6340  1.6337 -0.2626
   30MOL0     H 4009  11.914   8.908   1.808  1.4620 -1.6767  1.4472
   30MOL0     H 4010  11.837   8.957   2.269 -0.0938  1.0899  0.1823
   30MOL0     H 4011  11.663   8.973   2.418 -1.5223 -1.2534  0.0396
   30MOL0     H 4012  11.074   8.727   2.389  2.4342 -1.1296  3.7795
   30MOL0     H 4013  10.898   8.755   2.545 -0.0300 -0.6487 -1.5668
   30MOL0     H 4014  10.910   9.038   2.903  1.2974  0.3695 -1.8817
   30MOL0     H 4015  10.847   9.155   2.789 -3.0230  1.2732  1.5159
   30MOL0     H 4016  10.699   8.928   2.906  0.4929 -0.7078 -1.0138
   30MOL0     H 4017  10.706   9.097   2.970 -0.6854  0.1395 -0.4974
   30MOL0     H 4018  10.596   9.185   2.794  1.5687  0.2062  1.9971
   30MOL0     H 4019  10.649   9.038   2.687  1.5411  0.0634  1.1003
   30MOL0     H 4020  10.451   9.019   2.921  0.2468 -0.1207 -0.2768
   30MOL0     H 4021  10.479   8.902   2.789 -1.7536  1.0101 -2.7525
   30MOL0     H 4022  10.379   9.059   2.623 -1.3280 -2.8762  0.2019
   30MOL0     H 4023  10.358   9.183   2.747 -2.9466  0.2140  0.3655
   30MOL0     H 4024  10.158   9.054   2.681  0.0868 -0.6566  0.2910
   30MOL0     H 4025  10.223   8.905   2.731 -2.2998  0.2327  0.8717
   30MOL0     H 4026  10.201   9.129   2.937  1.1691 -0.0505  0.1714
   30MOL0     H 4027  10.226   8.961   2.970  1.7726  2.1987  1.7342
   30MOL0     H 4028   9.993   9.091   2.847 -0.9967  1.3259  2.5636
   30MOL0     H 4029   9.987   8.919   2.875 -1.5212  1.3951 -2.5442
   30MOL0     H 4030  11.024   9.143   2.644  0.3286 -1.4620  1.3351
   30MOL0     H 4031  11.184   9.141   2.477  2.5327 -0.9429  3.6786
   30MOL0     H 4032  11.379   8.906   2.099  0.8805  0.5574 -0.4426
   30MOL0     H 4033  11.574   8.903   1.942 -0.8025  0.9531  0.1116
   30MOL0     H 4034  11.337   8.263   1.871  0.7848 -0.8643  3.4544
   30MOL0     H 4035  11.154   8.414   1.778 -1.1600 -1.2993 -1.1115
   30MOL0     H 4036  10.831   8.531   1.457 -0.9837  1.6963 -1.4223
   30MOL0     H 4037  10.633   8.512   1.320  0.6332  1.4550  0.0969
   30MOL0     H 4038  10.461   8.379   1.220  0.5572 -0.4876  1.0740
   30MOL0     H 4039  10.435   8.558   1.248 -0.4721 -0.2933  1.6162
   30MOL0     H 4040  10.185   8.482   1.291  0.3506 -2.4462  1.8436
   30MOL0     H 4041  10.231   8.340   1.211 -1.7091  0.7443  3.3165
   30MOL0     H 4042  10.325   8.519   1.021  1.4347  2.1274  1.9992
   30MOL0     H 4043  10.233   8.629   1.120 -1.1761  0.2133 -1.8337
   30MOL0     H 4044  10.028   8.476   1.087 -0.2034  0.7722 -0.5591
   30MOL0     H 4045  10.081   8.561   0.953 -0.0375  0.9759  0.7964
   30MOL0     H 4046  10.185   8.169   0.817 -2.6755 -0.3162 -2.0337
   30MOL0     H 4047  10.415   8.392   1.661  0.2395  0.7333  0.4671
   30MOL0     H 4048  10.513   8.380   1.891  1.0199  0.1770  0.6047
   30MOL0     H 4049  10.660   8.297   1.869  1.5672  0.1390 -0.0100
   30MOL0     H 4050  10.666   8.475   1.898 -2.5271  2.3867 -1.2859
   31MOL0     O 4051   0.221   4.540   3.431  0.0010  0.5647  0.2841
   31MOL0     C 4052   0.154   4.638   3.437  0.2393 -0.5224  0.1833
   31MOL0     O 4053   0.157   4.744   3.341  0.0881 -0.1167  0.3002
   31MOL0     C 4054   0.249   4.728   3.237  0.0125  0.3180 -1.0949
   31MOL0     C 4055   0.371   4.798   3.233 -0.1603  0.6905  0.5855
   31MOL0     C 4056   0.464   4.778   3.129  0.2729 -0.0395  0.4020
   31MOL0     C 4057   0.428   4.701   3.017 -0.0083  0.7880  0.0496
   31MOL0     O 4058   0.509   4.679   2.910  0.0224  0.2122  0.4983
   31MOL0     C 4059   0.472   4.589   2.802 -0.3991 -0.0880 -0.5040
   31MOL0     C 4060   0.500   4.447   2.846 -0.0887  0.1656  0.2258
   31MOL0     C 4061   0.655   4.426   2.853 -0.3794  0.2260 -0.7777
   31MOL0     C 4062   0.688   4.280   2.869  1.1742  0.2009  0.2380
   31MOL0     C 4063   0.834   4.255   2.902 -0.6723  0.0420  0.1550
   31MOL0     C 4064   0.861   4.103   2.894  0.4704 -0.2344 -0.7358
   31MOL0     C 4065   1.013   4.067   2.894 -0.0715 -0.5273  0.4551
   31MOL0     C 4066   1.085   4.094   3.025  0.4410  0.5827  0.3266
   31MOL0     N 4067   1.028   4.012   3.132 -0.3653  0.8429  0.4213
   31MOL0     C 4068   0.966   4.076   3.235 -0.3164  0.2354 -0.8657
   31MOL0     C 4069   0.919   3.975   3.303 -0.0362  0.1817  0.8487
   31MOL0     C 4070   0.826   3.971   3.422 -0.4349  0.2436 -0.2953
   31MOL0     C 4071   0.908   4.011   3.542 -0.2054 -0.2061 -0.2175
   31MOL0     C 4072   1.003   3.901   3.592  0.1710  0.5965 -0.4269
   31MOL0     C 4073   1.052   3.931   3.737  0.7551  0.1128  0.1629
   31MOL0     O 4074   1.092   3.805   3.804 -0.7326 -0.9546 -0.0766
   31MOL0     C 4075   1.218   3.744   3.768 -0.5397 -0.4588 -0.2007
   31MOL0     C 4076   1.301   3.786   3.669 -0.9990 -0.2979 -0.0832
   31MOL0     C 4077   1.418   3.728   3.642 -0.4404  0.5318 -0.6359
   31MOL0     C 4078   1.469   3.623   3.724  0.4771  0.1127 -0.2871
   31MOL0     C 4079   1.600   3.561   3.705 -0.3608 -0.4113 -0.1224
   31MOL0     O 4080   1.681   3.617   3.610 -0.2012 -0.0120  0.1274
   31MOL0     C 4081   1.808   3.559   3.580 -0.0741  0.8572  1.1098
   31MOL0     C 4082   1.855   3.593   3.448 -0.9075 -1.2759  0.1920
   31MOL0     C 4083   1.972   3.550   3.402  0.3586  0.1310  0.0874
   31MOL0     C 4084   2.062   3.482   3.482 -0.3518  0.1926  0.0791
   31MOL0     O 4085   2.179   3.448   3.418  0.0065  0.0805  0.4201
   31MOL0     C 4086   2.254   3.344   3.483  0.0056 -0.0803  0.3067
   31MOL0     C 4087   2.365   3.290   3.394 -0.6679 -0.4683  0.6653
   31MOL0     C 4088   2.477   3.390   3.405  1.7920 -0.1994  0.1996
   31MOL0     C 4089   2.588   3.368   3.301 -0.2264 -0.0069 -0.1415
   31MOL0     C 4090   2.699   3.461   3.332 -0.3649 -0.5520 -0.2807
   31MOL0     C 4091   2.819   3.440   3.238 -0.5838  0.5811  0.0372
   31MOL0     C 4092   2.928   3.543   3.282  0.5658 -0.1374  0.4506
   31MOL0     C 4093   3.056   3.535   3.201  0.2778 -0.2932  0.8304
   31MOL0    Cl 4094   3.032   3.583   3.035 -0.0154 -0.1756  0.3953
   31MOL0     C 4095   2.019   3.447   3.612 -0.5700  0.0934 -0.5169
   31MOL0     C 4096   1.898   3.491   3.663 -0.5391  0.1863  0.5338
   31MOL0     O 4097   1.627   3.462   3.767 -0.1273  0.2686 -0.2962
   31MOL0     C 4098   1.392   3.590   3.831  0.2684 -1.0003 -0.3369
   31MOL0     C 4099   1.268   3.649   3.853 -0.3966  0.4499  0.0454
   31MOL0     N 4100   0.958   3.854   3.241 -0.4492 -0.2914 -0.0450
   31MOL0     N 4101   1.030   3.873   3.134 -0.5686  0.0544 -0.1566
   31MOL0     C 4102   0.298   4.646   3.022 -0.0284  0.2120  0.5615
   31MOL0     C 4103   0.213   4.669   3.124  0.8036  0.9433 -1.2168
   31MOL0     C 4104   0.079   4.667   3.567 -0.6535 -0.2267  0.8207
   31MOL0     C 4105   0.032   4.554   3.638 -0.1749  0.0208 -0.4034
   31MOL0     C 4106  -0.045   4.571   3.752  0.8105 -0.2866  0.0742
   31MOL0     C 4107  -0.060   4.696   3.807 -0.8318 -0.4402 -0.0744
   31MOL0     O 4108  -0.133   4.722   3.921  0.0185 -1.1192  0.7340
   31MOL0     C 4109  -0.222   4.625   3.971  0.3482  0.3186  0.1816
   31MOL0     C 4110  -0.149   4.532   4.070  0.0964 -0.4718  0.4482
   31MOL0     C 4111  -0.163   4.579   4.216  0.3474  0.3112 -0.0935
   31MOL0     C 4112  -0.116   4.466   4.305 -0.5711 -0.0208  0.2342
   31MOL0     C 4113  -0.218   4.367   4.312 -0.8281 -0.1467 -0.1970
   31MOL0     C 4114  -0.306   4.288   4.311  0.8071 -0.1136  0.2059
   31MOL0     C 4115  -0.007   4.808   3.746  0.3378  0.9487 -0.6638
   31MOL0     C 4116   0.070   4.794   3.628 -0.0237  0.7006  0.3833
   31MOL0     C 4117   0.118   4.916   3.568  0.1339  0.7484  0.2450
   31MOL0     H 4118   0.407   4.853   3.320 -0.6466  0.7787  0.7332
   31MOL0     H 4119   0.559   4.831   3.132 -0.6537  1.6687  1.1380
   31MOL0     H 4120   0.364   4.595   2.784 -0.9408 -1.9745  1.6254
   31MOL0     H 4121   0.522   4.610   2.707 -0.6916  0.4266 -0.5488
   31MOL0     H 4122   0.456   4.385   2.768  1.8215 -0.3218 -0.5130
   31MOL0     H 4123   0.461   4.416   2.944  2.5364  2.0287  1.9779
   31MOL0     H 4124   0.684   4.486   2.940 -2.3709 -0.8576  0.7342
   31MOL0     H 4125   0.715   4.473   2.775 -0.5338  1.5278 -0.1390
   31MOL0     H 4126   0.623   4.232   2.943  3.1790  0.7470  2.4622
   31MOL0     H 4127   0.665   4.232   2.773  2.2200  0.0739  0.0363
   31MOL0     H 4128   0.900   4.295   2.825  0.8181 -2.2885  0.1273
   31MOL0     H 4129   0.868   4.292   2.999 -0.4756  0.6415 -0.1391
   31MOL0     H 4130   0.807   4.041   2.966  0.4559 -2.3452 -2.4685
   31MOL0     H 4131   0.826   4.066   2.797  0.6077  1.0048 -1.2819
   31MOL0     H 4132   1.060   4.113   2.807  0.9888 -1.8265  0.2993
   31MOL0     H 4133   1.025   3.963   2.863 -0.9220  0.0093 -1.8935
   31MOL0     H 4134   1.191   4.072   3.013  0.5115  1.2327 -0.3316
   31MOL0     H 4135   1.084   4.201   3.046 -0.7887  0.5960  0.2665
   31MOL0     H 4136   0.948   4.181   3.260  3.3652  1.1455 -1.4894
   31MOL0     H 4137   0.748   4.046   3.407 -1.2095 -0.5596 -0.3409
   31MOL0     H 4138   0.785   3.871   3.440 -0.8779  0.4600 -0.1033
   31MOL0     H 4139   0.966   4.099   3.514 -2.5515  1.1452 -1.2010
   31MOL0     H 4140   0.836   4.040   3.619  0.5023  2.1917 -0.3791
   31MOL0     H 4141   1.084   3.880   3.521 -0.4914 -2.0022 -0.5142
   31MOL0     H 4142   0.944   3.809   3.599 -0.7955  1.3136  1.3615
   31MOL0     H 4143   0.963   3.966   3.792  0.1934  0.2176 -0.7844
   31MOL0     H 4144   1.131   4.007   3.737 -0.3259  1.3995 -2.9648
   31MOL0     H 4145   1.260   3.865   3.606 -0.2345  0.4892  0.3924
   31MOL0     H 4146   1.474   3.760   3.554 -0.1496 -1.9078 -1.4083
   31MOL0     H 4147   1.783   3.623   3.373  3.2725  0.7024 -3.4639
   31MOL0     H 4148   1.996   3.567   3.297 -2.2512  0.1319 -0.5674
   31MOL0     H 4149   2.295   3.366   3.582  0.5620  1.7702 -0.3025
   31MOL0     H 4150   2.184   3.260   3.493  0.7891 -0.6471  1.2947
   31MOL0     H 4151   2.404   3.193   3.424  2.2622  1.0625  2.2853
   31MOL0     H 4152   2.330   3.287   3.290  0.3017 -1.3842  0.3489
   31MOL0     H 4153   2.435   3.488   3.380  0.1114 -0.9583 -0.0412
   31MOL0     H 4154   2.516   3.396   3.507  2.1073 -3.5067  0.3656
   31MOL0     H 4155   2.540   3.372   3.203 -3.1274  0.0727  1.1595
   31MOL0     H 4156   2.619   3.264   3.316  2.0096  0.3445 -1.9183
   31MOL0     H 4157   2.728   3.442   3.435 -1.0817  0.7671  0.1906
   31MOL0     H 4158   2.662   3.563   3.317  0.1425 -0.4352 -0.7667
   31MOL0     H 4159   2.851   3.336   3.248 -0.5945  0.6059  0.3497
   31MOL0     H 4160   2.785   3.453   3.135 -0.7267 -1.7436 -0.2611
   31MOL0     H 4161   2.952   3.531   3.388 -1.0033  1.9873  1.1033
   31MOL0     H 4162   2.887   3.642   3.263  0.5054  0.0155  1.3490
   31MOL0     H 4163   3.121   3.610   3.247  0.9297 -0.6881  0.5523
   31MOL0     H 4164   3.098   3.434   3.201 -1.7482 -1.2828 -2.4681
   31MOL0     H 4165   2.083   3.387   3.677  0.8116  1.6893 -0.3320
   31MOL0     H 4166   1.868   3.457   3.762 -0.7841  0.2581  0.4854
   31MOL0     H 4167   1.420   3.504   3.891 -1.0254  0.6500  2.8179
   31MOL0     H 4168   1.215   3.608   3.939  0.2819  1.3831  0.9399
   31MOL0     H 4169   0.256   4.600   2.933 -0.8787  3.7795 -1.0712
   31MOL0     H 4170   0.108   4.644   3.111  0.4982  2.0519 -0.9843
   31MOL0     H 4171   0.057   4.453   3.610  1.3465  0.5122 -0.9483
   31MOL0     H 4172  -0.083   4.481   3.800  1.5035 -0.0169  1.1806
   31MOL0     H 4173  -0.246   4.556   3.889  1.9111 -1.7194  1.3439
   31MOL0     H 4174  -0.312   4.676   4.008  1.2151  0.2640  2.4933
   31MOL0     H 4175  -0.044   4.526   4.039 -0.0154  1.3171 -0.4127
   31MOL0     H 4176  -0.197   4.435   4.060  1.3365 -1.0779  0.1709
   31MOL0     H 4177  -0.265   4.593   4.251  0.2129  0.6246 -0.6127
   31MOL0     H 4178  -0.108   4.672   4.236 -0.3404  0.4055  1.5557
   31MOL0     H 4179  -0.023   4.433   4.258 -1.1169 -0.3770 -0.6168
   31MOL0     H 4180  -0.103   4.497   4.409 -2.1519 -1.9033  1.0507
   31MOL0     H 4181  -0.383   4.215   4.302  2.9475 -2.4106 -0.8992
   31MOL0     H 4182  -0.027   4.907   3.785  2.1339  0.8851  0.5929
   31MOL0     H 4183   0.134   4.994   3.643 -0.6912  0.8381  0.3384
   31MOL0     H 4184   0.207   4.904   3.506 -0.9612  2.4327 -1.8176
   31MOL0     H 4185   0.034   4.955   3.509 -0.4934 -0.0017  0.6201
   32MOL0     O 4186   2.731   6.488   5.591 -1.0626  0.0472 -0.7139
   32MOL0     C 4187   2.640   6.460   5.521  0.5067  0.3541 -0.8738
   32MOL0     O 4188   2.636   6.430   5.385 -0.5618  0.5492 -0.2171
   32MOL0     C 4189   2.756   6.404   5.327 -0.0754  1.3862 -0.5743
   32MOL0     C 4190   2.841   6.510   5.290  0.0108  1.3100 -0.5493
   32MOL0     C 4191   2.963   6.486   5.217  0.8898 -0.6887 -0.3749
   32MOL0     C 4192   2.979   6.363   5.169 -0.5059  0.3104 -1.4647
   32MOL0     O 4193   3.066   6.322   5.071  0.2413 -0.2740 -0.7226
   32MOL0     C 4194   3.172   6.410   5.047 -0.6306  0.6996  0.5282
   32MOL0     C 4195   3.248   6.345   4.930 -0.4199 -0.4463  0.3782
   32MOL0     C 4196   3.283   6.191   4.946  0.0112  0.3690 -0.2524
   32MOL0     C 4197   3.408   6.165   4.862 -0.5302 -0.1950  0.7802
   32MOL0     C 4198   3.433   6.020   4.844 -0.6976  0.6329 -0.0401
   32MOL0     C 4199   3.562   6.006   4.767 -0.0943  0.0622 -0.4281
   32MOL0     C 4200   3.687   6.033   4.853 -0.1606  0.2477 -0.7863
   32MOL0     C 4201   3.810   5.966   4.792 -0.5256 -1.0517  0.2475
   32MOL0     N 4202   3.938   6.041   4.820  0.0435  0.5969  0.8175
   32MOL0     C 4203   4.038   5.994   4.901 -0.8805  0.0962  0.4986
   32MOL0     C 4204   4.146   6.070   4.856  0.3858  0.4073 -0.5963
   32MOL0     C 4205   4.284   6.030   4.906 -0.3132  0.7491  0.6538
   32MOL0     C 4206   4.394   6.060   4.806 -0.9876  0.2238  0.0477
   32MOL0     C 4207   4.440   6.216   4.805  0.6936  0.8618  0.0946
   32MOL0     C 4208   4.549   6.256   4.694 -0.1432  0.0566 -0.5259
   32MOL0     O 4209   4.666   6.180   4.694  0.1035  1.2261  0.2050
   32MOL0     C 4210   4.782   6.235   4.640 -0.2803 -1.2419 -0.3765
   32MOL0     C 4211   4.895   6.228   4.713 -0.0406 -0.1331 -0.0164
   32MOL0     C 4212   5.017   6.260   4.648 -0.5747  0.2157 -0.0127
   32MOL0     C 4213   5.023   6.296   4.511 -0.3287  0.2054  0.2656
   32MOL0     C 4214   5.150   6.336   4.446  0.7375 -0.3480  0.2078
   32MOL0     O 4215   5.265   6.280   4.504 -0.0140 -0.2350 -0.3077
   32MOL0     C 4216   5.378   6.301   4.430  0.3492  0.1327 -0.6473
   32MOL0     C 4217   5.490   6.364   4.491 -0.0448  0.2853 -0.5874
   32MOL0     C 4218   5.618   6.358   4.424  0.6008 -0.0454  0.1170
   32MOL0     C 4219   5.622   6.306   4.294 -1.0985 -0.4933  0.3908
   32MOL0     O 4220   5.744   6.310   4.235  0.5571 -0.4846  0.5464
   32MOL0     C 4221   5.755   6.259   4.102  1.0955 -0.6130  0.1015
   32MOL0     C 4222   5.884   6.309   4.037 -0.7078  0.0239 -0.0877
   32MOL0     C 4223   5.999   6.239   4.101 -0.2829  0.6044 -0.5607
   32MOL0     C 4224   6.129   6.321   4.086 -0.5374  0.2665  0.5339
   32MOL0     C 4225   6.240   6.270   4.175 -0.5361  0.3191  0.0812
   32MOL0     C 4226   6.327   6.163   4.108  0.1030  0.9227  0.1144
   32MOL0     C 4227   6.419   6.103   4.204  0.2415 -0.0106 -0.5407
   32MOL0     C 4228   6.541   6.189   4.242 -0.5972  0.2869 -0.1516
   32MOL0    Cl 4229   6.692   6.180   4.135 -0.2688  0.1245 -0.0545
   32MOL0     C 4230   5.509   6.251   4.236  0.1732 -0.7535  0.0866
   32MOL0     C 4231   5.388   6.237   4.308 -0.6652  0.3158  0.5380
   32MOL0     O 4232   5.150   6.401   4.339  0.7361  0.4590  0.0134
   32MOL0     C 4233   4.902   6.310   4.441  0.1146  0.7930  0.2399
   32MOL0     C 4234   4.783   6.276   4.511  0.0694 -0.3918  0.5084
   32MOL0     N 4235   4.099   6.169   4.774 -0.2714  0.3992  0.9402
   32MOL0     N 4236   3.978   6.155   4.747 -0.1263 -0.2106  0.5302
   32MOL0     C 4237   2.895   6.259   5.205 -0.0184 -0.1715 -0.1348
   32MOL0     C 4238   2.782   6.277   5.282  0.4699 -0.1656  0.1101
   32MOL0     C 4239   2.512   6.464   5.591 -0.2529 -0.5673 -0.6238
   32MOL0     C 4240   2.397   6.486   5.514  0.7322  0.7254  0.1774
   32MOL0     C 4241   2.276   6.484   5.575  0.8160 -0.7560  0.4564
   32MOL0     C 4242   2.266   6.466   5.714  0.0780 -0.0071  0.3827
   32MOL0     O 4243   2.153   6.453   5.788  0.4766 -0.1312 -0.5071
   32MOL0     C 4244   2.021   6.455   5.727  0.0351  0.7785  0.7537
   32MOL0     C 4245   1.941   6.359   5.815  0.3285  0.5365 -1.5321
   32MOL0     C 4246   1.998   6.220   5.847 -0.8253  0.8461  0.5260
   32MOL0     C 4247   1.932   6.153   5.965 -0.2498 -0.5171  0.1353
   32MOL0     C 4248   1.986   6.017   5.982  0.4436  0.6416 -0.2593
   32MOL0     C 4249   2.027   5.908   5.994 -0.7644 -0.4672 -0.0759
   32MOL0     C 4250   2.380   6.453   5.791  0.2873 -0.0449 -0.3590
   32MOL0     C 4251   2.508   6.447   5.731  0.9045  0.4404 -0.0521
   32MOL0     C 4252   2.617   6.406   5.831 -0.5301  0.0910  0.1186
   32MOL0     H 4253   2.812   6.608   5.328  2.5654  2.0260 -0.2272
   32MOL0     H 4254   3.031   6.566   5.191  2.5938 -1.8064  0.4664
   32MOL0     H 4255   3.133   6.506   5.013 -1.2599  0.0408 -0.6877
   32MOL0     H 4256   3.237   6.428   5.134  2.3179 -2.6840 -0.7284
   32MOL0     H 4257   3.343   6.398   4.917  0.9389 -2.5777  1.0620
   32MOL0     H 4258   3.189   6.349   4.838  0.1859 -3.0312 -0.1998
   32MOL0     H 4259   3.201   6.127   4.912  1.8758 -2.8084  0.7763
   32MOL0     H 4260   3.304   6.161   5.049  0.5756 -0.8112 -0.6875
   32MOL0     H 4261   3.392   6.202   4.760  0.5542  2.3611  1.4468
   32MOL0     H 4262   3.491   6.229   4.893 -2.8489  2.2845  2.3204
   32MOL0     H 4263   3.427   5.965   4.939 -0.7302  0.1989 -0.2928
   32MOL0     H 4264   3.355   5.980   4.779 -0.1294  3.9188 -3.0529
   32MOL0     H 4265   3.570   5.903   4.730  1.5404  0.4244 -1.1918
   32MOL0     H 4266   3.554   6.062   4.674  1.4489 -1.3798 -1.5088
   32MOL0     H 4267   3.672   5.986   4.950 -1.3048  0.9918 -0.5856
   32MOL0     H 4268   3.700   6.141   4.868  0.1426  0.3434 -1.6601
   32MOL0     H 4269   3.823   5.862   4.822  1.4180 -0.3681  1.9999
   32MOL0     H 4270   3.801   5.973   4.683 -0.9944 -2.8949  0.1408
   32MOL0     H 4271   4.037   5.927   4.987  1.3651  0.2343  0.6989
   32MOL0     H 4272   4.316   6.083   4.996 -1.6752  1.7266  0.5786
   32MOL0     H 4273   4.295   5.923   4.928 -0.7454  1.1079  2.8911
   32MOL0     H 4274   4.489   6.008   4.821  0.4108  2.3877 -0.9347
   32MOL0     H 4275   4.369   6.026   4.704  0.6529  0.5518 -0.4996
   32MOL0     H 4276   4.485   6.236   4.903  2.1667 -3.6056  0.5967
   32MOL0     H 4277   4.351   6.278   4.792  1.6913  1.9884 -1.9429
   32MOL0     H 4278   4.569   6.364   4.697 -0.0177  0.1313 -2.8788
   32MOL0     H 4279   4.501   6.227   4.601 -1.8028 -0.7301  0.5307
   32MOL0     H 4280   4.898   6.186   4.813 -0.8512 -0.5576 -0.1567
   32MOL0     H 4281   5.109   6.261   4.705 -1.6759 -0.7592  1.8641
   32MOL0     H 4282   5.484   6.404   4.592  1.8556 -0.0654 -0.2942
   32MOL0     H 4283   5.704   6.406   4.470  0.4904  2.7170 -2.3404
   32MOL0     H 4284   5.747   6.151   4.086 -2.8328 -0.2284 -1.5576
   32MOL0     H 4285   5.681   6.313   4.042 -0.2782 -0.5770  1.7653
   32MOL0     H 4286   5.884   6.284   3.930  0.7778 -0.1361 -0.0793
   32MOL0     H 4287   5.878   6.417   4.047 -0.8150 -0.1396  2.0322
   32MOL0     H 4288   5.978   6.224   4.207 -2.3818 -1.0147 -1.1455
   32MOL0     H 4289   6.002   6.142   4.051 -0.8135 -0.0001  0.5332
   32MOL0     H 4290   6.107   6.424   4.116 -1.4091  0.8502 -1.9028
   32MOL0     H 4291   6.164   6.327   3.983 -2.6678 -1.9949 -0.4200
   32MOL0     H 4292   6.193   6.234   4.267 -1.2064  1.5794  0.2499
   32MOL0     H 4293   6.307   6.352   4.202 -0.2565  0.3679 -0.7102
   32MOL0     H 4294   6.266   6.085   4.060 -0.6729  0.6478  1.4971
   32MOL0     H 4295   6.389   6.223   4.041  3.0470 -1.9291  0.0616
   32MOL0     H 4296   6.459   6.008   4.168 -2.5682 -1.8061  0.7235
   32MOL0     H 4297   6.354   6.094   4.291  0.0123 -1.2401 -0.8141
   32MOL0     H 4298   6.517   6.294   4.256  0.5007  0.5823 -0.4153
   32MOL0     H 4299   6.569   6.155   4.342 -2.5436 -0.6799  0.1307
   32MOL0     H 4300   5.522   6.214   4.135  1.3639  1.1879 -0.5470
   32MOL0     H 4301   5.297   6.189   4.274 -1.9580  2.2657  1.0496
   32MOL0     H 4302   4.884   6.337   4.337 -4.2588 -2.0795 -0.0051
   32MOL0     H 4303   4.690   6.272   4.456  0.8627 -0.5630 -0.8602
   32MOL0     H 4304   2.913   6.159   5.168  1.9840 -1.0501  2.8231
   32MOL0     H 4305   2.709   6.198   5.297  0.1264  0.2031  0.4418
   32MOL0     H 4306   2.392   6.502   5.407 -2.2083 -1.4665 -0.1419
   32MOL0     H 4307   2.181   6.496   5.523 -0.2260 -4.3155  1.3172
   32MOL0     H 4308   2.026   6.422   5.623  0.3144 -0.4908  1.1537
   32MOL0     H 4309   1.975   6.554   5.723  0.3990  0.9714 -3.3364
   32MOL0     H 4310   1.844   6.340   5.768  0.4302  0.3562 -1.6710
   32MOL0     H 4311   1.916   6.407   5.910  4.0257 -0.3643  0.0845
   32MOL0     H 4312   2.106   6.221   5.866 -0.3591 -1.8899 -1.4288
   32MOL0     H 4313   1.983   6.152   5.763  0.0199 -0.7155  1.5938
   32MOL0     H 4314   1.942   6.205   6.060 -1.0859 -3.2173  1.7944
   32MOL0     H 4315   1.825   6.137   5.952 -0.4259 -2.4883  3.1095
   32MOL0     H 4316   2.046   5.803   6.005 -0.7009 -0.2075  3.5412
   32MOL0     H 4317   2.367   6.421   5.894  1.7478 -1.2941 -0.5198
   32MOL0     H 4318   2.582   6.372   5.929 -2.2151  3.7421  0.9630
   32MOL0     H 4319   2.671   6.326   5.780 -2.3935 -1.9688  1.1896
   32MOL0     H 4320   2.683   6.491   5.849 -0.6560  0.4417 -1.0100
   33MOL0     O 4321   3.642  10.190   1.591  0.4751 -0.1932  0.6387
   33MOL0     C 4322   3.545  10.117   1.608 -0.0806 -0.4361  0.5977
   33MOL0     O 4323   3.551   9.999   1.672 -0.5126 -0.1789  0.5105
   33MOL0     C 4324   3.650   9.970   1.758 -0.3482  0.4901 -0.1877
   33MOL0     C 4325   3.707  10.066   1.847 -0.1109  0.5558  0.5951
   33MOL0     C 4326   3.821  10.035   1.923  0.8662  0.5677 -0.4567
   33MOL0     C 4327   3.849   9.897   1.949 -0.5201 -0.5272  0.0569
   33MOL0     O 4328   3.948   9.857   2.044 -0.1882  0.0198  0.0001
   33MOL0     C 4329   3.999   9.952   2.138  0.5907 -0.2607  0.2026
   33MOL0     C 4330   4.099   9.879   2.228 -0.8054  0.4213 -0.1179
   33MOL0     C 4331   4.155   9.952   2.346 -0.3001 -0.2637  0.3557
   33MOL0     C 4332   4.258  10.046   2.303  0.2904  0.0286  0.1894
   33MOL0     C 4333   4.314  10.111   2.434  0.5861  0.7716  0.0209
   33MOL0     C 4334   4.419  10.221   2.404 -0.1399 -0.3436  0.0952
   33MOL0     C 4335   4.472  10.289   2.532 -0.7664 -0.1223 -0.0713
   33MOL0     C 4336   4.469  10.197   2.655 -0.8021 -0.0984  0.3454
   33MOL0     N 4337   4.565  10.085   2.645  0.3673 -0.2107  0.0522
   33MOL0     C 4338   4.695  10.104   2.647  0.1000 -1.3396 -1.5969
   33MOL0     C 4339   4.752   9.982   2.681  0.6184  0.4551 -0.2359
   33MOL0     C 4340   4.894   9.948   2.688  0.5532 -0.7760 -0.4672
   33MOL0     C 4341   4.958   9.969   2.823  0.3349 -0.0319 -0.7308
   33MOL0     C 4342   5.070   9.873   2.860 -0.1045  0.7718 -0.1994
   33MOL0     C 4343   5.134   9.917   2.995  0.1606 -0.5111 -0.3224
   33MOL0     O 4344   5.252   9.992   2.976 -0.1509 -0.3648 -0.1863
   33MOL0     C 4345   5.366   9.921   2.952  0.1919  0.0379  0.2364
   33MOL0     C 4346   5.484   9.986   2.951 -0.1672  0.2791  0.2312
   33MOL0     C 4347   5.606   9.936   2.908  0.1968 -0.0371  1.0881
   33MOL0     C 4348   5.616   9.803   2.869  0.3455  0.5242  0.8015
   33MOL0     C 4349   5.744   9.740   2.838  0.2382 -0.9300 -0.1308
   33MOL0     O 4350   5.847   9.827   2.813  0.0978 -0.2893 -0.1418
   33MOL0     C 4351   5.970   9.782   2.803 -0.3685 -0.0503 -0.4350
   33MOL0     C 4352   6.051   9.819   2.697  0.9184 -0.1987 -0.1463
   33MOL0     C 4353   6.169   9.763   2.675 -0.7869  0.1553  0.0051
   33MOL0     C 4354   6.228   9.685   2.781 -0.4023  0.3872  0.3220
   33MOL0     O 4355   6.354   9.631   2.760  0.1628 -0.2281  0.2739
   33MOL0     C 4356   6.433   9.583   2.866  0.8650 -0.1126 -1.0657
   33MOL0     C 4357   6.568   9.537   2.817  0.5360 -0.5609  0.1619
   33MOL0     C 4358   6.671   9.650   2.770  0.8450 -0.9518 -0.9103
   33MOL0     C 4359   6.802   9.604   2.738  0.2897  0.8889 -0.7109
   33MOL0     C 4360   6.903   9.712   2.679  0.1259 -0.0326  0.1474
   33MOL0     C 4361   7.054   9.674   2.680  0.2713 -0.2281  0.4973
   33MOL0     C 4362   7.108   9.540   2.627  0.4594  0.0525 -0.3580
   33MOL0     C 4363   7.259   9.544   2.616 -0.1277  0.5703  0.1974
   33MOL0    Cl 4364   7.351   9.595   2.760 -0.2860 -0.5344 -0.1276
   33MOL0     C 4365   6.164   9.666   2.903 -0.0047 -0.6034  0.8474
   33MOL0     C 4366   6.029   9.707   2.906 -0.1062  0.1595  0.0402
   33MOL0     O 4367   5.745   9.618   2.832  0.3684  0.2243 -0.7680
   33MOL0     C 4368   5.489   9.730   2.875  0.5180 -0.3172 -0.0191
   33MOL0     C 4369   5.368   9.786   2.914  0.6141  0.2702  0.2614
   33MOL0     N 4370   4.647   9.897   2.709 -0.2054 -0.6920 -0.1128
   33MOL0     N 4371   4.534   9.957   2.687 -0.4770 -0.4190 -0.2996
   33MOL0     C 4372   3.797   9.809   1.862 -0.7086  0.0170  0.0474
   33MOL0     C 4373   3.697   9.838   1.768 -0.5036 -0.0504 -0.3496
   33MOL0     C 4374   3.415  10.170   1.570  0.7040  0.9717  0.0687
   33MOL0     C 4375   3.406  10.303   1.534  0.1445 -0.0362  0.4165
   33MOL0     C 4376   3.293  10.349   1.480 -0.3149 -1.0461 -0.5372
   33MOL0     C 4377   3.172  10.281   1.479  0.4459 -0.3673  0.4064
   33MOL0     O 4378   3.056  10.342   1.425 -0.3006  0.7349 -0.2802
   33MOL0     C 4379   2.932  10.275   1.436 -0.4593 -0.0384 -0.3965
   33MOL0     C 4380   2.828  10.345   1.348 -0.3445  0.7610  0.2970
   33MOL0     C 4381   2.786  10.487   1.408  0.2921  0.6904 -0.3233
   33MOL0     C 4382   2.662  10.556   1.341 -0.3945 -1.1808  0.4593
   33MOL0     C 4383   2.706  10.583   1.202 -0.2718  0.0708  0.1138
   33MOL0     C 4384   2.748  10.610   1.093 -0.1773  0.1549 -0.2361
   33MOL0     C 4385   3.175  10.148   1.524  0.3225  0.2724 -0.1702
   33MOL0     C 4386   3.295  10.091   1.569 -0.0292  0.2049  0.8038
   33MOL0     C 4387   3.284   9.945   1.598 -0.9867 -0.1776 -0.0343
   33MOL0     H 4388   3.678  10.170   1.844  0.5590  0.7655  1.0960
   33MOL0     H 4389   3.866  10.119   1.974  2.0553  0.5710 -1.4598
   33MOL0     H 4390   4.037  10.039   2.083 -2.4327  1.4254  0.5679
   33MOL0     H 4391   3.913   9.979   2.201  0.2506 -0.1105 -0.3127
   33MOL0     H 4392   4.180   9.844   2.163 -0.2434  3.5685 -1.3223
   33MOL0     H 4393   4.046   9.793   2.270 -0.3069 -0.0132 -0.3621
   33MOL0     H 4394   4.176   9.872   2.418  0.4407 -0.0963  0.3398
   33MOL0     H 4395   4.072  10.015   2.378 -0.8522  1.9474 -4.4889
   33MOL0     H 4396   4.340   9.999   2.248  1.3850  1.5424  0.4739
   33MOL0     H 4397   4.215  10.122   2.237  0.8158 -0.2977 -0.5309
   33MOL0     H 4398   4.234  10.155   2.494  0.1703 -0.8649  0.7281
   33MOL0     H 4399   4.357  10.025   2.486 -2.2052 -1.6762 -1.3628
   33MOL0     H 4400   4.502  10.184   2.343  0.3400 -1.3642  1.3266
   33MOL0     H 4401   4.368  10.285   2.331  2.2891 -1.6466 -3.0397
   33MOL0     H 4402   4.395  10.366   2.544 -0.2892  0.3100  0.2509
   33MOL0     H 4403   4.569  10.339   2.523 -1.4342  1.1286 -0.5177
   33MOL0     H 4404   4.510  10.262   2.734  1.1737 -0.2087 -0.5242
   33MOL0     H 4405   4.375  10.151   2.685 -0.8767 -1.0126 -1.2436
   33MOL0     H 4406   4.743  10.199   2.624  0.6286 -0.0434  3.6045
   33MOL0     H 4407   4.885   9.842   2.665 -0.2300 -1.1507  1.3583
   33MOL0     H 4408   4.950   9.997   2.608 -0.2399  2.1923  0.6419
   33MOL0     H 4409   4.990  10.073   2.831  3.7882 -1.1170  2.1703
   33MOL0     H 4410   4.881   9.952   2.898 -0.2650 -1.7977 -1.6945
   33MOL0     H 4411   5.151   9.867   2.787 -0.2822  1.5632 -0.4706
   33MOL0     H 4412   5.035   9.769   2.859  0.4555  0.5627  1.0455
   33MOL0     H 4413   5.160   9.825   3.048  1.8790  0.2841  0.2874
   33MOL0     H 4414   5.060   9.973   3.054 -0.7286 -1.0935 -0.8539
   33MOL0     H 4415   5.500  10.086   2.992  0.6315  0.4429 -0.4641
   33MOL0     H 4416   5.683  10.012   2.917 -2.6518  3.3293 -0.4205
   33MOL0     H 4417   6.014   9.895   2.629  2.2421  1.0142  0.4575
   33MOL0     H 4418   6.237   9.795   2.597 -1.3484  0.0135 -0.5455
   33MOL0     H 4419   6.460   9.662   2.936  1.1021 -0.6695 -0.5201
   33MOL0     H 4420   6.385   9.499   2.918 -0.0127  2.4739  2.6875
   33MOL0     H 4421   6.613   9.472   2.892 -2.3711 -0.1730  2.4166
   33MOL0     H 4422   6.552   9.471   2.730 -0.2317  0.3751 -0.4294
   33MOL0     H 4423   6.642   9.696   2.675 -0.9723  0.3048  0.1910
   33MOL0     H 4424   6.672   9.727   2.848 -0.0112 -2.6000  0.8061
   33MOL0     H 4425   6.798   9.521   2.667  4.1026 -0.7059  0.6720
   33MOL0     H 4426   6.852   9.560   2.825  1.2347 -1.2428 -2.2383
   33MOL0     H 4427   6.881   9.805   2.732 -3.0818 -2.1614  2.9226
   33MOL0     H 4428   6.876   9.725   2.573  1.8567 -0.8127 -0.4251
   33MOL0     H 4429   7.104   9.750   2.620  1.5903 -1.1316  0.4145
   33MOL0     H 4430   7.088   9.687   2.783  1.3636 -2.4770  0.4719
   33MOL0     H 4431   7.079   9.524   2.522  3.2645  1.8762 -1.5246
   33MOL0     H 4432   7.079   9.458   2.693  0.8073 -0.0981 -0.3936
   33MOL0     H 4433   7.300   9.443   2.599  1.7700  1.3264  0.0354
   33MOL0     H 4434   7.288   9.608   2.532  0.6751 -0.7077 -0.5430
   33MOL0     H 4435   6.210   9.612   2.985 -1.1355  0.7980  2.4707
   33MOL0     H 4436   5.981   9.684   3.001 -0.6608  0.3200 -0.1968
   33MOL0     H 4437   5.484   9.628   2.839  2.5996 -0.8936  1.1521
   33MOL0     H 4438   5.288   9.714   2.903  1.2209 -0.1920 -1.4230
   33MOL0     H 4439   3.832   9.706   1.872 -0.8236 -0.3100 -2.2227
   33MOL0     H 4440   3.654   9.762   1.704 -0.4858 -1.2002  0.9544
   33MOL0     H 4441   3.490  10.371   1.529 -1.2669  1.8757  1.3275
   33MOL0     H 4442   3.290  10.452   1.445  4.2072 -0.5072  0.0739
   33MOL0     H 4443   2.892  10.283   1.538  1.1604 -0.5757  0.3171
   33MOL0     H 4444   2.942  10.168   1.418  2.9639  0.2967 -1.1004
   33MOL0     H 4445   2.734  10.289   1.341 -0.2953  0.5176  1.3558
   33MOL0     H 4446   2.865  10.348   1.245 -3.2829 -2.2108 -1.0293
   33MOL0     H 4447   2.867  10.561   1.406  1.8965 -0.9862  0.0774
   33MOL0     H 4448   2.746  10.476   1.509 -1.8184 -0.7923 -1.2271
   33MOL0     H 4449   2.565  10.508   1.358 -0.1833 -2.0496 -0.6410
   33MOL0     H 4450   2.641  10.650   1.393 -0.5942 -2.2837  2.4677
   33MOL0     H 4451   2.805  10.630   1.005  0.8531 -0.4110  0.2792
   33MOL0     H 4452   3.086  10.086   1.530  0.0462  0.4752 -1.7330
   33MOL0     H 4453   3.294   9.923   1.704 -2.8653 -1.6107 -0.0999
   33MOL0     H 4454   3.184   9.904   1.580  0.0909 -2.5865 -0.9718
   33MOL0     H 4455   3.348   9.895   1.525 -1.9733 -1.8066  0.1633
   34MOL0     O 4456   5.008  11.159  10.942 -0.0746  0.1601  0.3009
   34MOL0     C 4457   4.938  11.224  10.861  0.7936  0.3045 -0.2796
   34MOL0     O 4458   4.982  11.322  10.777 -0.1951  1.3548  0.2062
   34MOL0     C 4459   5.117  11.320  10.776  0.0458 -0.8464  0.0258
   34MOL0     C 4460   5.192  11.386  10.868 -0.3511 -0.2533  0.0964
   34MOL0     C 4461   5.327  11.371  10.863 -0.2783  0.3204  0.6963
   34MOL0     C 4462   5.393  11.285  10.769  0.7438 -0.4137 -0.5444
   34MOL0     O 4463   5.533  11.290  10.778  0.4879 -0.3039 -0.4721
   34MOL0     C 4464   5.609  11.208  10.694  0.2502  0.1093  0.5113
   34MOL0     C 4465   5.746  11.273  10.696 -0.8368  0.4156 -1.0714
   34MOL0     C 4466   5.830  11.241  10.812  0.0070 -0.3327 -0.7651
   34MOL0     C 4467   5.980  11.268  10.804 -0.3098  1.0964 -0.5816
   34MOL0     C 4468   6.060  11.216  10.930  0.2581  0.5964  0.3252
   34MOL0     C 4469   6.210  11.193  10.890 -0.2259 -0.0335 -0.3048
   34MOL0     C 4470   6.288  11.119  10.996  0.3878 -0.2156  0.5769
   34MOL0     C 4471   6.439  11.127  10.950 -0.0774  0.4538  0.5026
   34MOL0     N 4472   6.544  11.113  11.059  0.3985 -0.3118 -0.1529
   34MOL0     C 4473   6.551  11.007  11.148  0.8664 -0.8354 -0.5354
   34MOL0     C 4474   6.662  11.023  11.218 -0.6316 -0.4045 -0.5327
   34MOL0     C 4475   6.721  10.925  11.304 -0.4631  0.7210  0.3728
   34MOL0     C 4476   6.852  10.883  11.245 -0.4815 -0.2702  0.7521
   34MOL0     C 4477   6.931  10.803  11.341  0.2198 -0.2444  0.1099
   34MOL0     C 4478   7.037  10.717  11.276  0.3499 -0.0353  0.4499
   34MOL0     O 4479   7.130  10.647  11.365 -0.1496 -1.2548 -0.3753
   34MOL0     C 4480   7.258  10.696  11.380  0.1320 -0.1407 -0.1170
   34MOL0     C 4481   7.296  10.829  11.336  1.1663  1.0650  0.4243
   34MOL0     C 4482   7.428  10.871  11.363  0.7853 -0.2221  0.6100
   34MOL0     C 4483   7.515  10.789  11.430 -0.2792  0.0527 -1.1665
   34MOL0     C 4484   7.656  10.829  11.446 -0.1816  0.1773 -0.0023
   34MOL0     O 4485   7.745  10.752  11.517  0.9718 -0.3528  0.2124
   34MOL0     C 4486   7.883  10.770  11.500  0.6014  0.4314 -0.7367
   34MOL0     C 4487   7.947  10.755  11.377  0.3859  0.2499 -0.3226
   34MOL0     C 4488   8.086  10.765  11.368 -0.1889 -0.0521 -0.2875
   34MOL0     C 4489   8.169  10.793  11.483  0.5635  1.3514  0.1876
   34MOL0     O 4490   8.296  10.786  11.464  0.3207 -0.0386  0.1557
   34MOL0     C 4491   8.375  10.876  11.537 -0.5266  0.3413  0.2345
   34MOL0     C 4492   8.517  10.867  11.495 -0.4347  0.2521 -0.7487
   34MOL0     C 4493   8.543  10.875  11.348  0.1093  0.1497  0.3619
   34MOL0     C 4494   8.685  10.930  11.320 -0.0791  0.0426  0.6785
   34MOL0     C 4495   8.710  10.946  11.170 -0.8831  0.4302 -0.7029
   34MOL0     C 4496   8.863  10.947  11.136  0.6461  1.0261  1.4123
   34MOL0     C 4497   8.930  11.076  11.178 -0.2210  0.1064  0.2809
   34MOL0     C 4498   9.069  11.088  11.134 -1.2503  1.1164  0.1122
   34MOL0    Cl 4499   9.175  10.943  11.163 -0.2833 -0.2893  0.2642
   34MOL0     C 4500   8.098  10.808  11.605  0.2283 -0.0505 -0.3633
   34MOL0     C 4501   7.957  10.802  11.617 -0.4376  0.7490 -0.6933
   34MOL0     O 4502   7.687  10.931  11.386  0.0349 -0.4645  0.5227
   34MOL0     C 4503   7.471  10.662  11.477 -0.7011 -0.0141  0.6828
   34MOL0     C 4504   7.344  10.618  11.462 -0.6014 -0.8237  0.4182
   34MOL0     N 4505   6.702  11.153  11.200  0.0287  0.1198 -0.1079
   34MOL0     N 4506   6.630  11.208  11.107 -0.3525  0.0167  0.9877
   34MOL0     C 4507   5.321  11.228  10.666  0.3574 -0.0959 -0.0446
   34MOL0     C 4508   5.177  11.240  10.670  0.6124  0.1928 -0.8649
   34MOL0     C 4509   4.788  11.206  10.862 -0.4763 -0.0874 -0.5032
   34MOL0     C 4510   4.706  11.289  10.774 -0.0642  0.5589  0.5173
   34MOL0     C 4511   4.567  11.267  10.769  0.1368  0.1844  0.6113
   34MOL0     C 4512   4.507  11.170  10.843 -0.2971  0.1740  0.5562
   34MOL0     O 4513   4.374  11.130  10.833  0.9786  0.1901  0.1798
   34MOL0     C 4514   4.277  11.237  10.804 -0.1889 -0.3668  0.3790
   34MOL0     C 4515   4.142  11.177  10.826  0.0445  0.1552  0.2374
   34MOL0     C 4516   4.123  11.146  10.971  0.4187 -0.7594  0.8570
   34MOL0     C 4517   3.977  11.093  10.995 -0.0960  0.2313  1.1930
   34MOL0     C 4518   3.877  11.212  10.984 -0.2862  0.0444 -0.1007
   34MOL0     C 4519   3.785  11.295  10.985  0.0739 -0.5340 -0.4515
   34MOL0     C 4520   4.579  11.080  10.916  0.2744  0.2094  0.0708
   34MOL0     C 4521   4.726  11.094  10.929  0.6873  0.2565 -0.1386
   34MOL0     C 4522   4.796  10.993  11.002 -0.5479  1.1302  0.1686
   34MOL0     H 4523   5.146  11.433  10.954 -1.9072  1.4810 -1.5612
   34MOL0     H 4524   5.385  11.410  10.946  1.1714 -1.8914  0.8124
   34MOL0     H 4525   5.609  11.114  10.749  1.3582 -0.2210 -0.0298
   34MOL0     H 4526   5.567  11.208  10.593  1.7779 -0.8124 -0.1488
   34MOL0     H 4527   5.733  11.382  10.688 -1.3667  0.5124  0.7079
   34MOL0     H 4528   5.805  11.243  10.608  1.8861 -0.6056  0.9653
   34MOL0     H 4529   5.816  11.135  10.835  1.6926 -0.2247  0.9444
   34MOL0     H 4530   5.790  11.296  10.898  1.3018 -1.2625  0.4634
   34MOL0     H 4531   6.020  11.213  10.718 -1.3305  1.3749 -1.2483
   34MOL0     H 4532   6.004  11.375  10.805 -0.1210  1.0543 -0.5709
   34MOL0     H 4533   6.056  11.291  11.010 -2.1294  0.0451  0.7985
   34MOL0     H 4534   6.009  11.127  10.966 -1.9986  1.3050 -0.8855
   34MOL0     H 4535   6.190  11.125  10.806 -1.4810  1.3204 -1.1396
   34MOL0     H 4536   6.266  11.279  10.852  2.1023 -1.5767 -0.6271
   34MOL0     H 4537   6.247  11.021  11.018 -1.4844  0.7009  1.3707
   34MOL0     H 4538   6.270  11.180  11.085  0.9296 -1.0171  1.2560
   34MOL0     H 4539   6.470  11.048  10.880 -0.7811  1.4417 -0.9899
   34MOL0     H 4540   6.460  11.219  10.895  1.6258 -1.4098 -2.2146
   34MOL0     H 4541   6.490  10.918  11.140 -0.5851  0.1647 -1.0288
   34MOL0     H 4542   6.722  10.957  11.408  3.5573 -1.0524  1.0757
   34MOL0     H 4543   6.664  10.832  11.305 -1.0723  1.0202 -1.5558
   34MOL0     H 4544   6.834  10.816  11.161  1.3768  1.3335 -1.0323
   34MOL0     H 4545   6.905  10.975  11.217  0.5607 -0.5406  1.7663
   34MOL0     H 4546   6.865  10.733  11.393  0.8593 -1.7522 -1.0584
   34MOL0     H 4547   6.974  10.874  11.413  0.9226 -0.0528 -0.4852
   34MOL0     H 4548   7.081  10.773  11.194 -0.0646  1.5618  1.2720
   34MOL0     H 4549   6.981  10.642  11.219 -0.8620  2.4317 -1.8405
   34MOL0     H 4550   7.224  10.896  11.291 -0.2354 -0.9787 -0.4860
   34MOL0     H 4551   7.461  10.972  11.342  2.3556 -0.5662  1.2710
   34MOL0     H 4552   7.893  10.738  11.284  2.3286  0.1074 -1.4827
   34MOL0     H 4553   8.139  10.744  11.276 -2.2544 -1.6026 -1.1928
   34MOL0     H 4554   8.337  10.976  11.513 -0.8243 -0.1526 -1.5422
   34MOL0     H 4555   8.374  10.859  11.645 -0.1719 -0.5135  0.1170
   34MOL0     H 4556   8.584  10.933  11.550  0.3694 -0.7025 -0.5487
   34MOL0     H 4557   8.549  10.765  11.518 -0.7383  0.7963  2.4925
   34MOL0     H 4558   8.518  10.787  11.287 -0.0726  1.0409 -0.8897
   34MOL0     H 4559   8.465  10.946  11.321  1.3176  0.9788 -1.0833
   34MOL0     H 4560   8.753  10.864  11.374 -0.5969 -0.6034  0.5620
   34MOL0     H 4561   8.706  11.028  11.363 -1.3204  0.4292  0.4380
   34MOL0     H 4562   8.660  11.033  11.127 -0.1201  0.1386 -2.2534
   34MOL0     H 4563   8.661  10.860  11.123 -0.8502 -2.3795  3.7738
   34MOL0     H 4564   8.911  10.866  11.191  0.8067 -0.5648 -0.9145
   34MOL0     H 4565   8.873  10.934  11.028  0.8321  2.8231  1.1862
   34MOL0     H 4566   8.911  11.091  11.285 -4.1661 -1.5157 -0.0038
   34MOL0     H 4567   8.883  11.165  11.135  2.8705  2.0395  0.5832
   34MOL0     H 4568   9.060  11.103  11.026  2.1110  0.4501 -0.3812
   34MOL0     H 4569   9.112  11.173  11.188 -0.3415 -0.5042  2.1310
   34MOL0     H 4570   8.158  10.809  11.696  2.3248  1.7261 -1.6760
   34MOL0     H 4571   7.894  10.821  11.703  0.1792 -0.6473  0.1039
   34MOL0     H 4572   7.550  10.602  11.521  1.2381  1.8580 -0.0196
   34MOL0     H 4573   7.311  10.525  11.507  1.5222 -1.6325  0.4242
   34MOL0     H 4574   5.367  11.179  10.581  1.0005  1.3308 -0.5548
   34MOL0     H 4575   5.111  11.187  10.603 -2.7773  0.2973  2.1099
   34MOL0     H 4576   4.749  11.368  10.714  0.4091 -1.1454 -1.4723
   34MOL0     H 4577   4.500  11.322  10.704 -0.2946 -0.2540  0.6766
   34MOL0     H 4578   4.275  11.264  10.699 -2.5785 -0.0711  0.4542
   34MOL0     H 4579   4.303  11.322  10.868  1.3717 -0.8948  0.4845
   34MOL0     H 4580   4.115  11.099  10.755  1.0754  1.4332 -1.6249
   34MOL0     H 4581   4.072  11.258  10.805 -1.3880  0.1265  4.0133
   34MOL0     H 4582   4.132  11.242  11.024  1.9864 -1.2881  1.6053
   34MOL0     H 4583   4.192  11.071  11.009 -1.2010 -2.0125  1.4518
   34MOL0     H 4584   3.952  11.011  10.928  0.2959  0.7560  0.3854
   34MOL0     H 4585   3.968  11.055  11.097  0.0765 -0.5913  0.9040
   34MOL0     H 4586   3.718  11.375  11.011 -0.5472 -0.4479 -2.1803
   34MOL0     H 4587   4.530  10.995  10.964  0.0864 -0.8891 -1.9637
   34MOL0     H 4588   4.854  11.028  11.088  1.2357  0.3889 -0.6653
   34MOL0     H 4589   4.732  10.917  11.048  1.7567 -0.8125  0.3645
   34MOL0     H 4590   4.865  10.937  10.938 -2.0589  0.9591 -1.3747
   35MOL0     O 4591  10.360   1.980   7.938  0.2913  0.2842  0.4121
   35MOL0     C 4592  10.386   2.069   8.023  0.2494  0.4084 -0.7818
   35MOL0     O 4593  10.499   2.140   8.031 -0.4158 -0.2371 -0.4681
   35MOL0     C 4594  10.598   2.126   7.936 -0.4783 -0.3832 -0.1849
   35MOL0     C 4595  10.585   2.180   7.809  0.5044  0.1183  0.5694
   35MOL0     C 4596  10.676   2.170   7.705  0.2928 -0.5913 -0.3431
   35MOL0     C 4597  10.799   2.106   7.734 -0.5900  0.8051 -0.1694
   35MOL0     O 4598  10.912   2.098   7.653  0.8325  0.2865  1.1715
   35MOL0     C 4599  10.907   2.173   7.520 -0.0414  0.5266 -0.5328
   35MOL0     C 4600  11.042   2.145   7.448 -0.3443  0.8565 -0.3368
   35MOL0     C 4601  11.169   2.223   7.495 -0.0285 -0.4350  0.1435
   35MOL0     C 4602  11.268   2.242   7.380 -0.1529  0.0696  1.0941
   35MOL0     C 4603  11.388   2.333   7.420  0.8446 -0.7388  0.0261
   35MOL0     C 4604  11.514   2.295   7.330 -0.4689  0.2985 -0.9180
   35MOL0     C 4605  11.513   2.343   7.183 -0.2279  0.5164 -0.0435
   35MOL0     C 4606  11.657   2.312   7.107 -0.1363 -0.2641 -1.1333
   35MOL0     N 4607  11.777   2.370   7.165 -0.0557 -0.1932  0.5066
   35MOL0     C 4608  11.869   2.447   7.093 -0.4467  0.1037  0.0582
   35MOL0     C 4609  11.990   2.440   7.163 -0.0523 -0.5725 -0.6361
   35MOL0     C 4610  12.109   2.529   7.125 -0.5202 -0.7461  0.2460
   35MOL0     C 4611  12.182   2.590   7.240 -0.3685  0.1700  0.4756
   35MOL0     C 4612  12.233   2.500   7.342 -0.2782  0.3044 -0.1115
   35MOL0     C 4613  12.318   2.562   7.441 -0.4437 -0.3823 -0.1834
   35MOL0     O 4614  12.410   2.663   7.392  0.0521 -0.0918 -0.5380
   35MOL0     C 4615  12.511   2.622   7.317  1.1719 -0.0151  0.6950
   35MOL0     C 4616  12.591   2.720   7.262  0.7871 -0.4450  0.2290
   35MOL0     C 4617  12.702   2.689   7.184  0.7213 -0.0926 -0.0760
   35MOL0     C 4618  12.751   2.556   7.166 -0.2993 -0.1121  0.0352
   35MOL0     C 4619  12.882   2.535   7.101 -0.7669  0.9818  0.2151
   35MOL0     O 4620  12.938   2.406   7.101  0.0778  0.2226  0.4821
   35MOL0     C 4621  13.061   2.386   7.047 -0.2710  0.8691 -0.0882
   35MOL0     C 4622  13.170   2.437   7.117  0.1659  0.2989  0.7128
   35MOL0     C 4623  13.295   2.435   7.057  0.3903 -0.2674 -0.5604
   35MOL0     C 4624  13.310   2.375   6.923 -0.1852 -0.1939  0.0590
   35MOL0     O 4625  13.418   2.387   6.834  0.3279 -0.3659 -0.1972
   35MOL0     C 4626  13.535   2.450   6.866 -0.6799 -0.7720  0.1550
   35MOL0     C 4627  13.638   2.345   6.888 -0.3583  1.0016 -0.9093
   35MOL0     C 4628  13.769   2.408   6.909 -0.5257 -1.4035 -0.2865
   35MOL0     C 4629  13.878   2.313   6.964  0.0576  0.0174 -0.3583
   35MOL0     C 4630  14.014   2.383   6.988  0.0609  0.1494 -0.2624
   35MOL0     C 4631  14.097   2.372   6.861 -0.5801 -0.3547  0.0466
   35MOL0     C 4632  14.227   2.452   6.863  0.7012 -0.4408 -0.0636
   35MOL0     C 4633  14.335   2.401   6.954 -0.1440 -0.9924  0.4332
   35MOL0    Cl 4634  14.485   2.495   6.954 -0.1609 -0.1001  0.4706
   35MOL0     C 4635  13.199   2.311   6.866  0.3056 -0.7152 -0.4122
   35MOL0     C 4636  13.074   2.325   6.928  0.9089  0.4835  0.0135
   35MOL0     O 4637  12.927   2.628   7.042 -0.1066 -0.7771 -0.6501
   35MOL0     C 4638  12.669   2.452   7.227 -0.8177 -0.2605 -0.1208
   35MOL0     C 4639  12.550   2.484   7.291  0.9309 -0.3776 -0.1666
   35MOL0     N 4640  11.967   2.350   7.270 -1.0574 -0.2012  0.5553
   35MOL0     N 4641  11.841   2.310   7.267  0.3331 -0.3195  0.2721
   35MOL0     C 4642  10.813   2.046   7.863 -0.1090  1.1157  0.1554
   35MOL0     C 4643  10.724   2.060   7.962 -0.8647 -0.2199 -1.1405
   35MOL0     C 4644  10.273   2.112   8.117 -1.7240  0.8505  0.3515
   35MOL0     C 4645  10.315   2.211   8.211  0.5133  1.0790 -0.5005
   35MOL0     C 4646  10.234   2.245   8.319 -0.9976  1.0212 -0.1343
   35MOL0     C 4647  10.105   2.189   8.329 -0.6225  0.3861  0.0240
   35MOL0     O 4648  10.026   2.202   8.439 -0.3881 -0.9280 -0.0289
   35MOL0     C 4649  10.062   2.312   8.523 -0.5805 -0.1177  0.8159
   35MOL0     C 4650   9.970   2.317   8.639  0.6941 -0.4588 -0.6185
   35MOL0     C 4651   9.833   2.374   8.592  0.2845  0.2799  0.2634
   35MOL0     C 4652   9.735   2.262   8.550  0.1540  0.0874  0.1264
   35MOL0     C 4653   9.605   2.329   8.534 -1.2437  0.5741 -0.2127
   35MOL0     C 4654   9.485   2.365   8.532 -0.1870  0.2340 -0.0634
   35MOL0     C 4655  10.059   2.099   8.232  0.0182  0.2945  0.8428
   35MOL0     C 4656  10.142   2.060   8.123 -0.4081  0.4232  0.3961
   35MOL0     C 4657  10.081   1.975   8.011 -0.2559  0.2572  0.8194
   35MOL0     H 4658  10.493   2.233   7.785  0.9173 -0.3392 -2.3695
   35MOL0     H 4659  10.649   2.215   7.610 -0.5669 -0.4277 -0.0257
   35MOL0     H 4660  10.823   2.141   7.458  0.3904  0.8628 -1.3044
   35MOL0     H 4661  10.907   2.279   7.543 -1.1600  0.4376 -0.0713
   35MOL0     H 4662  11.031   2.157   7.340 -0.4008  1.1521 -0.2994
   35MOL0     H 4663  11.057   2.039   7.471  0.4185  0.7502 -1.2433
   35MOL0     H 4664  11.215   2.183   7.586  0.6227  0.9975  0.4789
   35MOL0     H 4665  11.137   2.323   7.525 -1.6984 -0.3543 -1.7331
   35MOL0     H 4666  11.304   2.140   7.362 -2.1054 -1.5580  5.1191
   35MOL0     H 4667  11.215   2.275   7.290  2.0916 -0.8511 -0.6527
   35MOL0     H 4668  11.362   2.436   7.396  0.2286 -0.0218  3.2594
   35MOL0     H 4669  11.399   2.319   7.528 -1.3672 -1.4043  0.2118
   35MOL0     H 4670  11.596   2.342   7.385 -1.4513  1.2296 -0.1862
   35MOL0     H 4671  11.532   2.187   7.333 -3.6171 -0.3023 -0.2254
   35MOL0     H 4672  11.489   2.447   7.162 -0.3967  1.0905  2.6503
   35MOL0     H 4673  11.437   2.291   7.124  1.5606  0.3100 -2.2990
   35MOL0     H 4674  11.666   2.203   7.113 -0.1092 -0.1662  1.6103
   35MOL0     H 4675  11.647   2.344   7.002 -0.4081  3.3644 -0.1397
   35MOL0     H 4676  11.848   2.506   7.005 -0.5912 -1.6982 -1.1586
   35MOL0     H 4677  12.190   2.472   7.079  1.6588  2.6424 -0.5030
   35MOL0     H 4678  12.085   2.618   7.065 -1.9031 -0.1037  1.6984
   35MOL0     H 4679  12.259   2.655   7.196 -1.5425  0.2816 -1.5429
   35MOL0     H 4680  12.119   2.668   7.283 -2.4043  0.8257 -3.2682
   35MOL0     H 4681  12.287   2.418   7.295  1.0741  0.2686  1.4253
   35MOL0     H 4682  12.154   2.447   7.395  2.0319 -1.8283  1.4171
   35MOL0     H 4683  12.368   2.499   7.515  0.8988  0.6290 -0.1790
   35MOL0     H 4684  12.243   2.612   7.503 -3.0001 -2.5401 -1.3610
   35MOL0     H 4685  12.564   2.824   7.278 -4.0579 -1.3818 -0.1110
   35MOL0     H 4686  12.755   2.777   7.147 -0.4830  0.1008 -1.4421
   35MOL0     H 4687  13.167   2.488   7.212 -0.3901 -2.1603  2.1057
   35MOL0     H 4688  13.382   2.488   7.095  0.0879  0.9823 -1.5047
   35MOL0     H 4689  13.571   2.497   6.774  0.8998  1.0814  1.6459
   35MOL0     H 4690  13.522   2.524   6.945 -2.1069  0.2882 -1.0045
   35MOL0     H 4691  13.616   2.277   6.972 -2.5795 -0.4699 -2.5859
   35MOL0     H 4692  13.650   2.276   6.804 -1.7262  0.5581 -0.7598
   35MOL0     H 4693  13.806   2.454   6.817 -1.1453 -2.3606 -1.0323
   35MOL0     H 4694  13.757   2.482   6.989 -0.9667 -2.1475  0.3512
   35MOL0     H 4695  13.888   2.222   6.904  0.4485 -1.6116  2.0634
   35MOL0     H 4696  13.841   2.273   7.058  2.0549  1.4816  1.1272
   35MOL0     H 4697  14.065   2.330   7.069 -2.7195 -2.3373  0.0397
   35MOL0     H 4698  13.993   2.486   7.017  1.3851 -0.2542  2.4440
   35MOL0     H 4699  14.119   2.267   6.842  0.3976 -0.1389 -0.0601
   35MOL0     H 4700  14.036   2.413   6.781  2.5882 -1.0320 -2.9415
   35MOL0     H 4701  14.194   2.550   6.900  3.3030  0.9225 -1.1103
   35MOL0     H 4702  14.262   2.472   6.761  0.8731  0.6586  0.2040
   35MOL0     H 4703  14.293   2.396   7.055  0.8615  0.3558  0.9572
   35MOL0     H 4704  14.353   2.298   6.924 -2.7601 -1.3126 -0.3544
   35MOL0     H 4705  13.218   2.256   6.774  0.9038 -1.6166  0.2342
   35MOL0     H 4706  12.979   2.298   6.883 -0.6714  1.6116  2.4724
   35MOL0     H 4707  12.698   2.347   7.227 -1.0779 -0.3329 -0.1187
   35MOL0     H 4708  12.492   2.408   7.342  0.4067  1.8506  2.8491
   35MOL0     H 4709  10.907   1.996   7.882 -1.7127 -1.9344  0.5997
   35MOL0     H 4710  10.746   2.016   8.059  0.8778  1.4318 -0.7167
   35MOL0     H 4711  10.411   2.262   8.218 -0.6939  3.2441  3.4545
   35MOL0     H 4712  10.279   2.320   8.384  1.6616 -0.9761  0.5079
   35MOL0     H 4713  10.055   2.408   8.471  2.5420  1.2810  2.7173
   35MOL0     H 4714  10.161   2.303   8.568 -0.4252  3.9845  1.6337
   35MOL0     H 4715  10.004   2.394   8.709 -0.8623  1.7783 -2.1889
   35MOL0     H 4716   9.966   2.220   8.689 -1.2111  0.1667  0.5685
   35MOL0     H 4717   9.838   2.446   8.510 -1.3588  1.1778  0.9152
   35MOL0     H 4718   9.793   2.435   8.673 -2.7285 -0.5167 -0.4897
   35MOL0     H 4719   9.769   2.219   8.456 -1.9891  0.0490 -0.6651
   35MOL0     H 4720   9.718   2.185   8.626  0.7552  1.2542  1.4909
   35MOL0     H 4721   9.383   2.400   8.537  0.3925  2.3012 -1.3916
   35MOL0     H 4722   9.956   2.066   8.239 -0.3420  1.3806  0.9226
   35MOL0     H 4723  10.113   1.871   8.021 -0.4422  0.3586  3.1823
   35MOL0     H 4724   9.972   1.979   8.020 -0.4182 -0.2286 -0.7299
   35MOL0     H 4725  10.100   2.013   7.910 -1.8333 -0.2897  0.2880
   36MOL0     O 4726   2.677   8.469   3.300  0.0072  0.3778  0.1760
   36MOL0     C 4727   2.684   8.547   3.398  0.4147  0.4971 -0.1910
   36MOL0     O 4728   2.799   8.598   3.436  0.4589  0.3663  0.6969
   36MOL0     C 4729   2.911   8.561   3.367  0.1300  0.5076  0.3399
   36MOL0     C 4730   2.989   8.663   3.329 -0.5204  0.1204 -0.7143
   36MOL0     C 4731   3.105   8.628   3.258  0.2789 -0.5427 -1.4946
   36MOL0     C 4732   3.144   8.496   3.230 -0.5851  0.1874  0.0288
   36MOL0     O 4733   3.263   8.474   3.161  0.8341 -0.1616  0.6957
   36MOL0     C 4734   3.346   8.367   3.200 -0.3430  0.9435 -0.1363
   36MOL0     C 4735   3.489   8.391   3.146 -0.3587  1.1702  0.0339
   36MOL0     C 4736   3.544   8.536   3.168  0.0691 -0.4557  0.2361
   36MOL0     C 4737   3.697   8.531   3.152  0.3275  0.1243 -0.4674
   36MOL0     C 4738   3.780   8.495   3.271 -0.0065 -0.0762  0.0325
   36MOL0     C 4739   3.927   8.513   3.233  0.2053 -0.2492  0.0678
   36MOL0     C 4740   4.022   8.518   3.349 -0.3528 -0.4689 -0.8129
   36MOL0     C 4741   4.121   8.636   3.349  0.2891 -0.2817  0.1414
   36MOL0     N 4742   4.193   8.627   3.477 -0.3395 -0.9353 -0.2905
   36MOL0     C 4743   4.280   8.529   3.517  0.3532 -0.4590 -0.8601
   36MOL0     C 4744   4.324   8.566   3.639  0.5896 -0.4457  0.3704
   36MOL0     C 4745   4.423   8.492   3.729  0.0346 -0.4684  0.0936
   36MOL0     C 4746   4.522   8.581   3.805 -0.0362 -0.2009 -0.1228
   36MOL0     C 4747   4.598   8.515   3.926  0.1776 -0.1102  0.2067
   36MOL0     C 4748   4.720   8.601   3.953 -0.2401  0.9698 -1.0216
   36MOL0     O 4749   4.785   8.553   4.078  0.1986 -0.5306 -0.6493
   36MOL0     C 4750   4.914   8.594   4.105  0.3396  0.0913  0.1227
   36MOL0     C 4751   4.986   8.691   4.035  0.6072 -0.1804  0.7062
   36MOL0     C 4752   5.116   8.727   4.073 -0.4126 -0.1470  0.0858
   36MOL0     C 4753   5.183   8.654   4.179  0.1348 -0.0005  0.1827
   36MOL0     C 4754   5.318   8.689   4.228  0.3216 -0.0724  0.0314
   36MOL0     O 4755   5.391   8.613   4.304 -0.1396 -0.0717  0.0100
   36MOL0     C 4756   5.510   8.669   4.353 -0.1519  0.7140  0.3995
   36MOL0     C 4757   5.518   8.786   4.432 -0.3416 -0.0746  0.7277
   36MOL0     C 4758   5.643   8.833   4.480  0.3016 -0.2380  0.2365
   36MOL0     C 4759   5.763   8.772   4.439 -0.0001  0.3466 -0.8915
   36MOL0     O 4760   5.877   8.836   4.494 -0.5570  0.7035 -0.9794
   36MOL0     C 4761   6.008   8.792   4.441 -0.2412 -0.1836  0.3972
   36MOL0     C 4762   6.116   8.892   4.497  0.4847  0.0290  0.6290
   36MOL0     C 4763   6.250   8.850   4.452 -0.4909 -0.8904 -0.1349
   36MOL0     C 4764   6.355   8.914   4.544  0.1564 -0.1502  0.2536
   36MOL0     C 4765   6.485   8.841   4.518 -0.3062 -0.3666 -0.2391
   36MOL0     C 4766   6.598   8.923   4.572  0.3833  0.4926  0.2204
   36MOL0     C 4767   6.728   8.850   4.559 -1.5404 -0.3935  0.9402
   36MOL0     C 4768   6.847   8.945   4.589 -0.3172  0.3263 -0.6429
   36MOL0    Cl 4769   7.001   8.858   4.559 -0.4289  0.6029  0.1697
   36MOL0     C 4770   5.753   8.662   4.354 -0.1616 -0.4492  0.9091
   36MOL0     C 4771   5.621   8.616   4.306 -0.3144  0.0921  0.0209
   36MOL0     O 4772   5.357   8.792   4.182  0.3944 -0.6909 -0.2066
   36MOL0     C 4773   5.110   8.549   4.238 -0.4722  0.3605  0.0471
   36MOL0     C 4774   4.973   8.526   4.203  0.2432 -0.3066 -0.5345
   36MOL0     N 4775   4.275   8.695   3.670  0.0850 -0.1797 -0.2296
   36MOL0     N 4776   4.186   8.724   3.576  0.0387 -0.5119 -0.0846
   36MOL0     C 4777   3.063   8.395   3.265  0.3876  0.0010  1.2836
   36MOL0     C 4778   2.947   8.425   3.331  0.3340 -0.5444  0.7753
   36MOL0     C 4779   2.554   8.603   3.457 -0.2944  0.1195  0.9955
   36MOL0     C 4780   2.567   8.693   3.565 -0.1611 -0.1238  0.4048
   36MOL0     C 4781   2.456   8.737   3.634 -0.1735  0.7709  0.6563
   36MOL0     C 4782   2.326   8.702   3.603  0.0285  0.0906 -0.1729
   36MOL0     O 4783   2.214   8.747   3.672  0.1954  0.2649  0.9651
   36MOL0     C 4784   2.203   8.836   3.782  0.1766  0.1075  0.0719
   36MOL0     C 4785   2.057   8.810   3.838 -0.1490 -0.2287  0.8446
   36MOL0     C 4786   1.958   8.872   3.741 -0.6028 -0.6617  0.9850
   36MOL0     C 4787   1.833   8.785   3.716 -0.7928 -0.1426  0.1418
   36MOL0     C 4788   1.748   8.784   3.835  0.4436 -0.1461 -0.7737
   36MOL0     C 4789   1.675   8.778   3.933  0.0067  0.4347  0.6908
   36MOL0     C 4790   2.312   8.619   3.488 -0.0023  0.1158  0.2886
   36MOL0     C 4791   2.423   8.565   3.418  0.0097  0.5673  0.3578
   36MOL0     C 4792   2.384   8.463   3.311 -0.5136  0.9789 -0.8681
   36MOL0     H 4793   2.955   8.762   3.358  1.4658  0.9220 -1.0167
   36MOL0     H 4794   3.180   8.700   3.228 -0.6928  1.2341  0.0632
   36MOL0     H 4795   3.351   8.369   3.309  1.2117  2.2144 -0.2017
   36MOL0     H 4796   3.313   8.267   3.170  0.5253  0.3376  0.8556
   36MOL0     H 4797   3.505   8.371   3.039  5.8119 -1.2165  1.0534
   36MOL0     H 4798   3.554   8.321   3.198  0.2517 -0.6075 -2.9127
   36MOL0     H 4799   3.521   8.576   3.267  0.5495 -0.1146  0.2125
   36MOL0     H 4800   3.512   8.609   3.093  4.4522 -0.4406 -1.9034
   36MOL0     H 4801   3.719   8.462   3.070  0.6548 -1.8625  1.2028
   36MOL0     H 4802   3.733   8.627   3.113  2.2290 -0.6857 -0.8049
   36MOL0     H 4803   3.745   8.552   3.357 -2.1598 -0.0878 -0.7838
   36MOL0     H 4804   3.760   8.393   3.307 -1.9222  0.6879  1.2795
   36MOL0     H 4805   3.964   8.432   3.170 -0.3673 -0.8327  0.4757
   36MOL0     H 4806   3.931   8.600   3.166 -0.5495 -0.1940  0.0859
   36MOL0     H 4807   4.080   8.428   3.369  0.2969  0.0769 -0.1660
   36MOL0     H 4808   3.955   8.528   3.435  0.3788 -2.1696 -0.0178
   36MOL0     H 4809   4.194   8.617   3.270 -0.0478  1.9913 -0.7759
   36MOL0     H 4810   4.069   8.731   3.335  2.0058  0.3647 -2.4524
   36MOL0     H 4811   4.301   8.430   3.477 -2.4029 -1.8235  0.7943
   36MOL0     H 4812   4.359   8.436   3.798 -0.3538 -0.3370 -0.1581
   36MOL0     H 4813   4.472   8.415   3.669  0.8168 -0.0415  0.1773
   36MOL0     H 4814   4.594   8.614   3.730 -0.1381 -1.5687 -0.8608
   36MOL0     H 4815   4.468   8.670   3.836 -1.0420 -0.0856 -2.0582
   36MOL0     H 4816   4.631   8.417   3.890 -1.0166  0.3265 -2.3231
   36MOL0     H 4817   4.527   8.501   4.008  0.7083 -2.4017  0.3569
   36MOL0     H 4818   4.689   8.703   3.974  0.1524  0.4342  2.7662
   36MOL0     H 4819   4.803   8.597   3.881  0.6377 -0.9764 -0.0080
   36MOL0     H 4820   4.934   8.746   3.957 -1.1214 -0.5616  1.5463
   36MOL0     H 4821   5.152   8.811   4.014  0.2953 -0.5133 -0.0116
   36MOL0     H 4822   5.428   8.839   4.461 -0.9793 -1.2703  0.9981
   36MOL0     H 4823   5.640   8.921   4.544  0.0624  1.1676 -1.6339
   36MOL0     H 4824   6.031   8.690   4.474  1.4541 -0.7059 -2.1709
   36MOL0     H 4825   5.999   8.791   4.332  2.5286  0.4095  0.0857
   36MOL0     H 4826   6.093   8.994   4.464 -1.5783 -0.1998  1.1779
   36MOL0     H 4827   6.092   8.895   4.604  0.1485  0.7978  0.5409
   36MOL0     H 4828   6.252   8.742   4.470  0.0865 -0.8213  0.2708
   36MOL0     H 4829   6.267   8.873   4.347 -0.2263  1.8600  0.4071
   36MOL0     H 4830   6.336   8.899   4.650 -1.0404 -1.6760 -0.1340
   36MOL0     H 4831   6.357   9.018   4.509 -0.9793 -0.6583 -1.4805
   36MOL0     H 4832   6.502   8.828   4.411 -1.4695  0.2832 -0.5136
   36MOL0     H 4833   6.474   8.746   4.571 -1.7087  0.7136  1.5356
   36MOL0     H 4834   6.608   9.019   4.520 -0.5299  1.2198  1.3121
   36MOL0     H 4835   6.568   8.949   4.674 -1.2652  0.7329 -0.2868
   36MOL0     H 4836   6.741   8.805   4.460 -1.1447 -3.1434  2.1469
   36MOL0     H 4837   6.728   8.765   4.629 -2.1371 -1.6165 -0.4857
   36MOL0     H 4838   6.838   9.032   4.523 -4.3386  2.2890  2.0236
   36MOL0     H 4839   6.831   8.974   4.694 -0.8999  0.6864 -0.8268
   36MOL0     H 4840   5.844   8.608   4.329 -1.4052 -2.7134  1.0520
   36MOL0     H 4841   5.612   8.524   4.250  1.0463 -0.1816  0.2195
   36MOL0     H 4842   5.161   8.485   4.310  0.1918  0.8038 -0.0193
   36MOL0     H 4843   4.916   8.452   4.259 -0.1140  0.5354  0.2331
   36MOL0     H 4844   3.087   8.296   3.228  0.2537  0.7416 -0.9009
   36MOL0     H 4845   2.879   8.345   3.356 -1.0550  0.6480  0.9537
   36MOL0     H 4846   2.657   8.745   3.596 -0.4228 -0.0787  1.0943
   36MOL0     H 4847   2.456   8.812   3.712 -0.2748  1.6793 -0.1977
   36MOL0     H 4848   2.213   8.941   3.753  1.5070  0.2330  0.9410
   36MOL0     H 4849   2.280   8.811   3.855  1.8365 -0.7635 -1.8901
   36MOL0     H 4850   2.054   8.850   3.940 -0.5681  0.2101  0.6680
   36MOL0     H 4851   2.038   8.703   3.844  0.8628 -0.4901 -0.3691
   36MOL0     H 4852   2.008   8.901   3.649 -2.9745 -1.5990 -0.6963
   36MOL0     H 4853   1.928   8.968   3.784  0.4126 -0.3329  0.9766
   36MOL0     H 4854   1.771   8.821   3.633 -0.9753 -1.8961 -0.5272
   36MOL0     H 4855   1.873   8.689   3.682 -0.3144 -0.3740  1.3214
   36MOL0     H 4856   1.611   8.773   4.019 -1.7780 -1.9692 -0.6735
   36MOL0     H 4857   2.211   8.588   3.465  0.4363 -1.7410  0.6769
   36MOL0     H 4858   2.279   8.474   3.284 -0.6648 -0.9352 -1.2060
   36MOL0     H 4859   2.427   8.473   3.211 -0.0045 -0.4193 -0.8210
   36MOL0     H 4860   2.396   8.365   3.358 -1.0478  1.9086  1.3343
   37MOL0     O 4861   7.790   5.042  11.047 -1.0284 -1.1928 -1.0116
   37MOL0     C 4862   7.849   4.964  10.965  0.4204  0.1531  0.0114
   37MOL0     O 4863   7.954   4.890  10.992  0.6695 -0.0617 -0.4085
   37MOL0     C 4864   8.010   4.891  11.122 -0.0675 -0.0259  0.1044
   37MOL0     C 4865   8.148   4.933  11.135  0.7550  0.1814 -0.4485
   37MOL0     C 4866   8.203   4.939  11.263 -0.8259  0.5208 -0.9541
   37MOL0     C 4867   8.132   4.905  11.379  0.6062  0.0218 -0.6593
   37MOL0     O 4868   8.179   4.912  11.513 -0.1779  0.0093  0.7852
   37MOL0     C 4869   8.315   4.947  11.525  0.3298 -0.5584 -0.6477
   37MOL0     C 4870   8.349   4.940  11.672 -0.3308  0.1254 -0.3979
   37MOL0     C 4871   8.504   4.941  11.694 -0.5859  0.0869  0.5129
   37MOL0     C 4872   8.569   4.806  11.677 -0.0258  0.8651  0.4480
   37MOL0     C 4873   8.724   4.814  11.682  0.0646  0.0004  0.2999
   37MOL0     C 4874   8.787   4.862  11.551 -0.0042 -1.1088 -0.5879
   37MOL0     C 4875   8.942   4.849  11.561  0.4165  0.7037  0.0808
   37MOL0     C 4876   9.018   4.900  11.446 -0.1266 -0.5514  0.0150
   37MOL0     N 4877   9.152   4.849  11.429 -0.2363  0.5661  0.0033
   37MOL0     C 4878   9.229   4.845  11.312 -0.6374 -0.5365  0.6822
   37MOL0     C 4879   9.354   4.826  11.343 -0.0044 -0.8123  0.4903
   37MOL0     C 4880   9.462   4.852  11.249  0.3703 -0.0963  0.0038
   37MOL0     C 4881   9.476   4.743  11.140 -0.2667 -0.0557 -0.6982
   37MOL0     C 4882   9.519   4.809  11.004 -0.2679 -0.2772  0.3141
   37MOL0     C 4883   9.519   4.719  10.888  0.3621  0.4871  0.2241
   37MOL0     O 4884   9.620   4.609  10.903  0.6436 -0.0256  0.3394
   37MOL0     C 4885   9.753   4.629  10.896  0.6727 -0.3958 -0.1332
   37MOL0     C 4886   9.807   4.732  10.820  0.0437  0.3372 -0.0624
   37MOL0     C 4887   9.947   4.753  10.804 -0.2382  0.2935  0.6145
   37MOL0     C 4888  10.034   4.672  10.879 -0.0779 -0.0638 -0.1381
   37MOL0     C 4889  10.179   4.696  10.878  0.2394 -0.6538  0.0433
   37MOL0     O 4890  10.257   4.633  10.972  0.0705 -0.1429  0.3055
   37MOL0     C 4891  10.394   4.640  10.981 -0.4448  0.2276  0.3680
   37MOL0     C 4892  10.489   4.686  10.885  0.5893  0.3284  0.0277
   37MOL0     C 4893  10.625   4.707  10.917 -0.1363  0.3178 -0.1624
   37MOL0     C 4894  10.677   4.657  11.040 -1.0069 -0.9237 -0.1101
   37MOL0     O 4895  10.810   4.670  11.060 -0.4768  0.3390 -0.1744
   37MOL0     C 4896  10.896   4.611  10.960 -0.5313  0.4687  0.1469
   37MOL0     C 4897  11.020   4.581  11.037 -1.0987  0.5329  0.1496
   37MOL0     C 4898  11.084   4.696  11.106 -0.8719 -0.3407  0.2377
   37MOL0     C 4899  11.228   4.686  11.140 -0.0718 -0.1228 -0.0501
   37MOL0     C 4900  11.288   4.799  11.222 -0.0983  0.9169  0.0258
   37MOL0     C 4901  11.437   4.778  11.262  0.3357  0.3553  0.1203
   37MOL0     C 4902  11.490   4.909  11.332 -0.3434 -0.2576 -0.4574
   37MOL0     C 4903  11.624   4.892  11.392 -0.9023  0.3920  0.5212
   37MOL0    Cl 4904  11.749   4.905  11.269 -0.0705  0.4121 -0.5375
   37MOL0     C 4905  10.591   4.603  11.132  0.4459  0.5306 -0.3305
   37MOL0     C 4906  10.453   4.594  11.101 -0.4787 -0.1267  0.0827
   37MOL0     O 4907  10.225   4.791  10.809 -0.0446 -0.3319  0.9373
   37MOL0     C 4908   9.981   4.567  10.968  0.2884 -0.5528  0.3346
   37MOL0     C 4909   9.844   4.552  10.972  0.2902 -0.9590  0.1563
   37MOL0     N 4910   9.360   4.823  11.483  0.1676 -0.4042 -0.2878
   37MOL0     N 4911   9.235   4.831  11.535 -0.4240  0.2695 -0.3671
   37MOL0     C 4912   7.991   4.875  11.358 -0.0591 -0.6332  0.1315
   37MOL0     C 4913   7.931   4.865  11.237  0.9291 -0.8709 -0.0241
   37MOL0     C 4914   7.784   4.928  10.845  0.9699  0.0071 -0.6544
   37MOL0     C 4915   7.815   4.794  10.798 -0.4231  0.0438 -0.0014
   37MOL0     C 4916   7.744   4.745  10.690 -0.1434 -0.6101  0.9475
   37MOL0     C 4917   7.640   4.818  10.631  0.4672 -0.4951  0.4567
   37MOL0     O 4918   7.585   4.768  10.513  0.2101 -0.6789  0.0828
   37MOL0     C 4919   7.478   4.836  10.444  0.7053  0.1038  0.8587
   37MOL0     C 4920   7.452   4.767  10.308  0.4107 -0.0991  0.3687
   37MOL0     C 4921   7.362   4.644  10.331  0.3249  0.2910  0.3489
   37MOL0     C 4922   7.370   4.570  10.190  0.2970 -0.2784  0.4401
   37MOL0     C 4923   7.314   4.635  10.069 -0.0104  0.5131  0.3424
   37MOL0     C 4924   7.271   4.700   9.971  0.5913  0.9292 -0.5315
   37MOL0     C 4925   7.602   4.951  10.679 -0.6540 -0.9806  0.6323
   37MOL0     C 4926   7.676   5.004  10.783  0.0874 -1.1295  0.9403
   37MOL0     C 4927   7.649   5.149  10.809 -0.3733  0.5230  0.6572
   37MOL0     H 4928   8.214   4.957  11.052  1.8243  0.0218  0.3486
   37MOL0     H 4929   8.308   4.967  11.261 -0.3774 -0.8063  1.3013
   37MOL0     H 4930   8.385   4.886  11.468 -0.2580 -0.9643 -0.9469
   37MOL0     H 4931   8.336   5.049  11.493  2.6946 -0.4837  0.8796
   37MOL0     H 4932   8.316   4.856  11.734  2.3387  1.1509  2.6921
   37MOL0     H 4933   8.312   5.033  11.715 -0.0316 -0.7819  1.9602
   37MOL0     H 4934   8.532   4.963  11.798  4.0910  0.9878 -0.7179
   37MOL0     H 4935   8.554   5.013  11.629  0.8185 -1.1199  0.2102
   37MOL0     H 4936   8.528   4.737  11.752 -1.9885  0.7994 -0.6142
   37MOL0     H 4937   8.545   4.774  11.575  0.5608 -0.6264  0.7532
   37MOL0     H 4938   8.757   4.884  11.759  0.1311  0.4470 -0.1262
   37MOL0     H 4939   8.769   4.720  11.716  0.0269  0.6074  2.1292
   37MOL0     H 4940   8.758   4.800  11.465  1.2480  0.8498 -2.5579
   37MOL0     H 4941   8.756   4.963  11.525  0.3073  0.2031  3.5096
   37MOL0     H 4942   8.966   4.744  11.578 -2.9452 -0.3927 -1.2547
   37MOL0     H 4943   8.975   4.904  11.650 -1.5206  2.2361 -0.0840
   37MOL0     H 4944   8.966   4.856  11.361 -1.5710 -0.4252  0.7947
   37MOL0     H 4945   9.019   5.009  11.441 -1.1107 -0.4977  0.7221
   37MOL0     H 4946   9.186   4.868  11.215 -1.4930 -0.4097  1.0856
   37MOL0     H 4947   9.444   4.951  11.207 -1.4765 -0.2440  0.3790
   37MOL0     H 4948   9.557   4.867  11.301  0.8436 -1.8404 -0.2968
   37MOL0     H 4949   9.558   4.682  11.180  0.3179  0.9747 -0.2958
   37MOL0     H 4950   9.383   4.686  11.129 -1.6569  1.5886  1.6200
   37MOL0     H 4951   9.614   4.862  11.012 -0.1566 -0.6117  1.2451
   37MOL0     H 4952   9.436   4.873  10.971  0.6888 -0.4100 -2.6167
   37MOL0     H 4953   9.534   4.765  10.790  3.5374 -1.4360 -0.3293
   37MOL0     H 4954   9.422   4.670  10.888  1.3259 -1.5008  0.3935
   37MOL0     H 4955   9.755   4.806  10.760  2.8565  2.5273  0.0197
   37MOL0     H 4956   9.976   4.836  10.740  0.5589  0.5218  1.2546
   37MOL0     H 4957  10.449   4.709  10.787  1.5232 -1.4124 -0.7964
   37MOL0     H 4958  10.695   4.747  10.845  0.2597 -1.1590 -0.6356
   37MOL0     H 4959  10.852   4.523  10.912 -0.9177 -0.0780  1.4391
   37MOL0     H 4960  10.915   4.685  10.882  0.0538 -1.2933 -1.4597
   37MOL0     H 4961  10.999   4.502  11.109  1.2359 -0.2871  0.0195
   37MOL0     H 4962  11.090   4.534  10.967 -2.1511  0.6841 -1.0312
   37MOL0     H 4963  11.083   4.787  11.045 -1.0145  0.0805  0.8490
   37MOL0     H 4964  11.031   4.713  11.200 -1.3681 -1.9813  0.2810
   37MOL0     H 4965  11.281   4.689  11.045 -1.9787  3.1633 -1.1720
   37MOL0     H 4966  11.237   4.591  11.194 -1.2867 -0.2784 -0.0836
   37MOL0     H 4967  11.225   4.814  11.309 -0.3175  1.4311 -0.2190
   37MOL0     H 4968  11.277   4.885  11.155 -1.5097  0.6344 -0.1317
   37MOL0     H 4969  11.444   4.696  11.333 -2.6027  1.5165  1.9329
   37MOL0     H 4970  11.496   4.756  11.173  0.5261  1.9983 -0.1941
   37MOL0     H 4971  11.418   4.929  11.411  1.1751  2.4385  0.3627
   37MOL0     H 4972  11.478   4.995  11.265 -2.1768 -0.3353 -0.2697
   37MOL0     H 4973  11.649   4.980  11.453  2.1549 -0.3812  0.5405
   37MOL0     H 4974  11.634   4.799  11.448 -0.4779 -0.5343 -1.0392
   37MOL0     H 4975  10.621   4.595  11.236  3.5185  4.8924 -0.6163
   37MOL0     H 4976  10.403   4.552  11.188  1.7360 -0.3138  1.3281
   37MOL0     H 4977  10.053   4.508  11.024  0.4684  0.7684  1.5595
   37MOL0     H 4978   9.809   4.479  11.044  1.7435 -1.7224  0.1375
   37MOL0     H 4979   7.933   4.846  11.445  1.6702 -1.1754  1.1800
   37MOL0     H 4980   7.825   4.843  11.232  0.0338  2.5817  1.0218
   37MOL0     H 4981   7.893   4.729  10.837  0.3347  0.8065 -0.2031
   37MOL0     H 4982   7.759   4.652  10.637  1.8094 -2.7727  4.8054
   37MOL0     H 4983   7.490   4.942  10.422 -1.8233  0.3900  0.6759
   37MOL0     H 4984   7.392   4.821  10.509  1.1532 -3.7762  0.7860
   37MOL0     H 4985   7.548   4.740  10.263 -0.1304 -2.3036  0.4213
   37MOL0     H 4986   7.407   4.845  10.246  1.4753  0.9562  0.8857
   37MOL0     H 4987   7.261   4.676  10.359  0.2481  0.8710 -0.5357
   37MOL0     H 4988   7.405   4.585  10.412  0.1240 -0.2556  0.0653
   37MOL0     H 4989   7.473   4.545  10.163 -1.0540 -3.1358 -2.9620
   37MOL0     H 4990   7.323   4.471  10.197 -0.0061 -0.3919 -2.2423
   37MOL0     H 4991   7.237   4.753   9.885  1.7751  1.3610 -0.7526
   37MOL0     H 4992   7.529   5.011  10.625  1.1838  0.6476 -0.1892
   37MOL0     H 4993   7.576   5.188  10.738  0.1569  0.4822  0.0874
   37MOL0     H 4994   7.597   5.151  10.905  1.0270 -1.2197  1.5090
   37MOL0     H 4995   7.732   5.220  10.797  0.4022 -0.6734 -1.5943
   38MOL0     O 4996   6.294   5.110   0.534 -0.2439  0.2596  0.5724
   38MOL0     C 4997   6.198   5.053   0.586  0.4851 -0.4886 -0.6387
   38MOL0     O 4998   6.193   5.005   0.714 -0.8177 -0.2549  0.4383
   38MOL0     C 4999   6.297   5.032   0.802 -0.3510 -1.1961 -0.9978
   38MOL0     C 5000   6.424   4.974   0.785 -0.1682  0.1191  0.0343
   38MOL0     C 5001   6.520   4.991   0.881 -0.2706 -0.3562  0.3488
   38MOL0     C 5002   6.489   5.055   1.004 -0.0931 -0.8500 -0.3806
   38MOL0     O 5003   6.573   5.071   1.112 -0.1310 -0.5665  0.6989
   38MOL0     C 5004   6.696   4.996   1.109  0.7703 -1.2281  0.7303
   38MOL0     C 5005   6.765   5.020   1.246  0.1321  0.4999  0.2649
   38MOL0     C 5006   6.786   5.170   1.279 -0.4237 -0.3490 -0.6757
   38MOL0     C 5007   6.884   5.191   1.396  0.1467 -0.5286 -0.6399
   38MOL0     C 5008   6.937   5.337   1.393  0.3986 -0.1023  0.4471
   38MOL0     C 5009   7.021   5.359   1.516 -0.2455 -0.8527  0.7734
   38MOL0     C 5010   7.107   5.493   1.493 -0.8289 -0.1073 -0.3303
   38MOL0     C 5011   7.167   5.526   1.627  0.4799  0.5163 -0.1757
   38MOL0     N 5012   7.258   5.641   1.625  0.1078 -0.7349 -0.1005
   38MOL0     C 5013   7.235   5.761   1.566  0.5812  0.8701  0.7662
   38MOL0     C 5014   7.353   5.830   1.573  0.0828  0.3944 -1.0422
   38MOL0     C 5015   7.367   5.980   1.530  0.1625 -0.2583  0.4306
   38MOL0     C 5016   7.512   6.034   1.548 -0.1773  0.3308 -0.2283
   38MOL0     C 5017   7.518   6.184   1.494 -0.1743 -0.2475 -0.1485
   38MOL0     C 5018   7.663   6.236   1.515 -1.1515  0.0634  0.7557
   38MOL0     O 5019   7.751   6.155   1.430  0.0172 -0.1176 -0.5906
   38MOL0     C 5020   7.883   6.195   1.417  0.1540 -1.2561 -0.8866
   38MOL0     C 5021   7.971   6.156   1.518 -0.2497  0.0307  0.3670
   38MOL0     C 5022   8.106   6.205   1.527 -0.1648 -0.4074  0.4048
   38MOL0     C 5023   8.152   6.297   1.430  0.2114  0.5230  0.5005
   38MOL0     C 5024   8.297   6.338   1.428  0.2588 -0.3800  0.1620
   38MOL0     O 5025   8.371   6.291   1.529  0.0521 -0.2729  0.0260
   38MOL0     C 5026   8.501   6.333   1.522  0.7967 -0.0802 -0.1409
   38MOL0     C 5027   8.536   6.469   1.517 -0.6249 -0.1998 -0.2607
   38MOL0     C 5028   8.671   6.509   1.504 -0.3886 -0.9681 -0.1879
   38MOL0     C 5029   8.769   6.414   1.489 -0.0646 -0.3575 -0.1895
   38MOL0     O 5030   8.904   6.433   1.483 -0.0133  0.2848  0.3144
   38MOL0     C 5031   8.966   6.555   1.528  0.3064 -0.7257  0.3217
   38MOL0     C 5032   9.103   6.518   1.584  0.2037  0.0166 -0.0016
   38MOL0     C 5033   9.084   6.435   1.704  0.1506  1.3054 -0.1851
   38MOL0     C 5034   9.224   6.411   1.762  0.3199 -0.0963  0.0089
   38MOL0     C 5035   9.239   6.291   1.863  0.9808 -0.8554 -0.1563
   38MOL0     C 5036   9.384   6.286   1.931  0.5197 -0.5239  0.1559
   38MOL0     C 5037   9.411   6.175   2.036  0.2816  0.0802 -0.5865
   38MOL0     C 5038   9.535   6.207   2.118 -0.5479 -0.4831 -0.0798
   38MOL0    Cl 5039   9.508   6.359   2.211  0.2265  0.3229  0.2576
   38MOL0     C 5040   8.731   6.280   1.490  1.2040  0.0878  0.0704
   38MOL0     C 5041   8.599   6.242   1.513 -0.0341  0.8447  0.3133
   38MOL0     O 5042   8.334   6.414   1.336  0.4631  0.4212 -0.3562
   38MOL0     C 5043   8.058   6.341   1.336 -0.8053 -0.9968 -0.0811
   38MOL0     C 5044   7.924   6.285   1.325 -0.3712 -0.2524 -0.2420
   38MOL0     N 5045   7.443   5.744   1.646 -0.3962  0.0993 -0.3011
   38MOL0     N 5046   7.386   5.635   1.672  0.4583 -0.0144  0.5474
   38MOL0     C 5047   6.361   5.111   1.026  0.6074 -0.1559  0.2613
   38MOL0     C 5048   6.265   5.105   0.922 -0.2780 -1.1268 -0.1891
   38MOL0     C 5049   6.073   5.024   0.509  0.5540 -0.9216  0.7014
   38MOL0     C 5050   5.959   5.013   0.585 -0.0988  1.0616 -0.8428
   38MOL0     C 5051   5.838   5.003   0.523 -0.3564 -0.9566  0.3665
   38MOL0     C 5052   5.818   4.991   0.389  0.4926  0.0557 -0.7221
   38MOL0     O 5053   5.688   4.971   0.346 -0.9532 -0.2007  0.1165
   38MOL0     C 5054   5.662   5.020   0.212 -0.3478  0.1904  0.3981
   38MOL0     C 5055   5.690   4.904   0.110  0.9500 -0.5042  0.0740
   38MOL0     C 5056   5.578   4.897   0.009  0.2995  0.3774  1.0615
   38MOL0     C 5057   5.614   4.837  -0.134 -0.5256  0.2868 -0.0413
   38MOL0     C 5058   5.658   4.698  -0.120  0.7544 -0.3600 -0.5054
   38MOL0     C 5059   5.694   4.585  -0.125  0.4258  0.3658 -0.9182
   38MOL0     C 5060   5.940   4.989   0.321  0.1193 -1.0850 -0.1711
   38MOL0     C 5061   6.065   5.009   0.369 -0.9379  0.7154  0.1046
   38MOL0     C 5062   6.184   5.006   0.288 -0.9979 -0.1559  0.0616
   38MOL0     H 5063   6.436   4.910   0.698 -0.4139  0.5564 -0.3263
   38MOL0     H 5064   6.619   4.946   0.883 -0.2672 -0.4028 -0.3839
   38MOL0     H 5065   6.674   4.889   1.108 -1.1472 -0.8601  0.6151
   38MOL0     H 5066   6.758   5.024   1.024  0.4849 -1.7884  0.3302
   38MOL0     H 5067   6.859   4.965   1.258  0.7330  1.2903 -0.6931
   38MOL0     H 5068   6.698   4.983   1.324  0.1396 -1.5337 -0.6308
   38MOL0     H 5069   6.691   5.214   1.308  0.5313  0.3767  1.5736
   38MOL0     H 5070   6.840   5.215   1.195  1.7313 -0.4235  0.5783
   38MOL0     H 5071   6.828   5.174   1.489 -1.7301  2.0962 -1.1771
   38MOL0     H 5072   6.972   5.126   1.390 -0.8443 -2.0219  0.2927
   38MOL0     H 5073   6.997   5.367   1.307 -0.0228  1.0913  0.5579
   38MOL0     H 5074   6.855   5.408   1.409 -0.1327 -0.8466  1.1211
   38MOL0     H 5075   6.952   5.375   1.599 -3.4171  0.1342 -1.8178
   38MOL0     H 5076   7.092   5.276   1.522  2.5141  1.1137 -1.6609
   38MOL0     H 5077   7.038   5.574   1.467 -1.5603  0.1909  2.2990
   38MOL0     H 5078   7.184   5.465   1.420 -0.2971 -2.2700  0.9786
   38MOL0     H 5079   7.094   5.529   1.709 -0.7334 -1.5459 -1.1197
   38MOL0     H 5080   7.231   5.445   1.665  0.9281  0.9419 -0.0123
   38MOL0     H 5081   7.145   5.805   1.526 -0.4158 -0.8772  0.9925
   38MOL0     H 5082   7.348   5.987   1.422  0.7167  0.5118  0.3742
   38MOL0     H 5083   7.290   6.039   1.580  0.4515 -0.1315  0.7199
   38MOL0     H 5084   7.539   6.051   1.653 -1.5247  0.1883  0.1604
   38MOL0     H 5085   7.591   5.980   1.495  0.9507 -0.4655  2.1126
   38MOL0     H 5086   7.471   6.263   1.554 -0.9166  0.7250 -1.9443
   38MOL0     H 5087   7.486   6.196   1.390  0.5674 -2.0732 -0.6280
   38MOL0     H 5088   7.696   6.235   1.619 -0.4935 -0.2493  0.5485
   38MOL0     H 5089   7.674   6.338   1.477  3.4076 -1.1268 -1.7927
   38MOL0     H 5090   7.939   6.089   1.598 -1.1991  0.1994  0.1402
   38MOL0     H 5091   8.180   6.159   1.592  1.3860 -1.3942 -1.9282
   38MOL0     H 5092   8.455   6.540   1.525 -0.3327 -0.1061  3.2572
   38MOL0     H 5093   8.698   6.614   1.504  3.9166 -1.8573  0.6785
   38MOL0     H 5094   8.982   6.635   1.456 -3.0201  0.2515  0.4829
   38MOL0     H 5095   8.913   6.605   1.610  1.0247 -0.1560  0.4386
   38MOL0     H 5096   9.166   6.467   1.510  0.8285  1.2303 -0.3380
   38MOL0     H 5097   9.149   6.613   1.614  2.0134 -0.3370 -1.4262
   38MOL0     H 5098   9.016   6.479   1.779 -0.4649  1.2599 -0.7082
   38MOL0     H 5099   9.043   6.337   1.677  0.3613 -0.0952  3.8677
   38MOL0     H 5100   9.254   6.509   1.798 -0.7256 -0.6104  2.4819
   38MOL0     H 5101   9.299   6.389   1.686  0.4674 -0.8998  0.3703
   38MOL0     H 5102   9.216   6.200   1.806  0.2729 -0.9898  0.3307
   38MOL0     H 5103   9.166   6.294   1.944  1.2207 -0.2584  0.0383
   38MOL0     H 5104   9.465   6.284   1.856  0.7200  0.3160  0.3482
   38MOL0     H 5105   9.400   6.385   1.974 -0.8367  1.0748 -2.7253
   38MOL0     H 5106   9.413   6.072   1.998  2.4488  0.1354 -0.7268
   38MOL0     H 5107   9.336   6.173   2.116  1.2055 -1.9316  0.3089
   38MOL0     H 5108   9.548   6.132   2.197 -0.5165  0.2039  0.5830
   38MOL0     H 5109   9.627   6.204   2.059 -1.0018 -1.2026 -0.7555
   38MOL0     H 5110   8.808   6.207   1.468  1.3777  0.0149  0.9025
   38MOL0     H 5111   8.564   6.139   1.514 -4.1779  2.0482  1.5220
   38MOL0     H 5112   8.091   6.426   1.277  0.3217 -0.5000  1.2039
   38MOL0     H 5113   7.846   6.315   1.255  0.7496 -0.0825 -1.4423
   38MOL0     H 5114   6.345   5.169   1.116 -3.4601 -1.1743  0.3711
   38MOL0     H 5115   6.169   5.141   0.957  0.6860 -0.6134  2.1240
   38MOL0     H 5116   5.942   5.017   0.693  0.7127 -0.9251 -0.6040
   38MOL0     H 5117   5.748   5.020   0.582  0.3799 -0.4638  1.3798
   38MOL0     H 5118   5.740   5.090   0.180  1.1326 -1.0546  1.1188
   38MOL0     H 5119   5.560   5.056   0.204 -1.1375 -1.3796  2.4433
   38MOL0     H 5120   5.714   4.811   0.161  4.2807  0.6370  0.8556
   38MOL0     H 5121   5.782   4.930   0.057  1.5282  0.2370  1.3833
   38MOL0     H 5122   5.544   5.001   0.000  2.2671  1.2181  2.7543
   38MOL0     H 5123   5.497   4.836   0.050 -1.6690  3.1918  1.6884
   38MOL0     H 5124   5.525   4.839  -0.198  0.2894 -1.9133 -1.3306
   38MOL0     H 5125   5.692   4.891  -0.189 -0.4717 -0.6962 -0.9688
   38MOL0     H 5126   5.739   4.488  -0.125  1.9591  1.0449 -1.9695
   38MOL0     H 5127   5.942   4.948   0.220  0.4959 -1.5153  0.0083
   38MOL0     H 5128   6.160   4.939   0.205  0.6170 -3.7179  2.2148
   38MOL0     H 5129   6.215   5.109   0.270 -1.4424  0.7009  3.4348
   38MOL0     H 5130   6.270   4.950   0.327 -0.7894 -0.5327 -0.9217
   39MOL0     O 5131   4.761   1.328   3.187  0.2158 -0.3692 -0.0582
   39MOL0     C 5132   4.715   1.227   3.249 -0.6255  0.2237  0.6796
   39MOL0     O 5133   4.786   1.149   3.348 -0.0223 -0.4992 -0.5093
   39MOL0     C 5134   4.900   1.212   3.396 -0.4735  0.0847  0.2118
   39MOL0     C 5135   4.911   1.329   3.467  0.9966  0.0599 -0.5777
   39MOL0     C 5136   5.032   1.382   3.518 -0.3336  0.5476  0.3536
   39MOL0     C 5137   5.154   1.324   3.475  0.2395  0.5839  0.7706
   39MOL0     O 5138   5.275   1.378   3.512  0.5739 -0.3495 -0.5380
   39MOL0     C 5139   5.398   1.317   3.490 -0.7302  0.3044  0.1641
   39MOL0     C 5140   5.500   1.402   3.561  0.7546  0.6055 -0.8499
   39MOL0     C 5141   5.645   1.356   3.534 -0.0506  0.3059 -0.4634
   39MOL0     C 5142   5.744   1.434   3.617 -0.8378  0.3732  0.0705
   39MOL0     C 5143   5.886   1.373   3.622  0.0196  0.8341 -0.1127
   39MOL0     C 5144   5.978   1.469   3.695  0.2206 -0.0545 -0.8369
   39MOL0     C 5145   6.121   1.410   3.680 -0.1309  0.6693 -0.5336
   39MOL0     C 5146   6.209   1.489   3.786  0.1832  0.5397  0.0382
   39MOL0     N 5147   6.330   1.417   3.830  0.4512  0.5827 -0.1275
   39MOL0     C 5148   6.328   1.312   3.915  0.3106  0.7404 -0.3316
   39MOL0     C 5149   6.455   1.271   3.926  0.0634  0.3804 -0.0054
   39MOL0     C 5150   6.512   1.149   4.010  0.8805  0.2100 -0.0920
   39MOL0     C 5151   6.524   1.193   4.157 -0.4739  1.1592  0.2776
   39MOL0     C 5152   6.575   1.075   4.243  0.6594  0.9880 -0.1653
   39MOL0     C 5153   6.605   1.115   4.378 -0.6954  0.1573 -0.6315
   39MOL0     O 5154   6.654   1.001   4.457  0.4852  0.0584  0.4593
   39MOL0     C 5155   6.789   0.982   4.448  0.3172 -0.3203  0.9877
   39MOL0     C 5156   6.879   1.043   4.540  0.5761 -0.7801 -0.0051
   39MOL0     C 5157   7.014   1.034   4.527  1.1833  0.3598 -0.6343
   39MOL0     C 5158   7.069   0.950   4.434  0.4266 -0.0367 -0.6354
   39MOL0     C 5159   7.216   0.923   4.433  0.4384  0.1544 -0.5607
   39MOL0     O 5160   7.257   0.821   4.352  0.0780  0.1439 -0.1851
   39MOL0     C 5161   7.392   0.787   4.353  0.0267  0.3463 -0.1197
   39MOL0     C 5162   7.445   0.743   4.473  0.0004  0.6461  0.2458
   39MOL0     C 5163   7.575   0.694   4.473  0.6093  0.5897 -0.5466
   39MOL0     C 5164   7.655   0.702   4.355  0.3494 -0.3637  0.7678
   39MOL0     O 5165   7.786   0.664   4.347  0.2994 -0.1946  0.6974
   39MOL0     C 5166   7.839   0.608   4.471  0.3846 -0.0895  0.2148
   39MOL0     C 5167   7.980   0.557   4.456 -0.0850 -1.0413  0.5401
   39MOL0     C 5168   8.071   0.673   4.417  1.2838  0.4488  0.7578
   39MOL0     C 5169   8.211   0.627   4.389  0.7445 -0.2186  0.1646
   39MOL0     C 5170   8.272   0.733   4.298  0.6184 -0.3307  0.5598
   39MOL0     C 5171   8.419   0.709   4.270  0.3110 -0.9174  0.3391
   39MOL0     C 5172   8.463   0.825   4.180  0.1514  0.0812  0.1502
   39MOL0     C 5173   8.615   0.819   4.148  0.2260  0.3548 -0.2803
   39MOL0    Cl 5174   8.656   0.954   4.038 -0.3930  0.2942 -0.2623
   39MOL0     C 5175   7.597   0.731   4.228  0.6186 -0.2206  0.2583
   39MOL0     C 5176   7.460   0.770   4.233 -0.3379 -0.1211  0.5457
   39MOL0     O 5177   7.290   0.997   4.503  0.1617  0.7202  0.1090
   39MOL0     C 5178   6.983   0.891   4.345  0.3122  0.1840  0.0839
   39MOL0     C 5179   6.845   0.898   4.352 -0.6340  0.8693 -0.3888
   39MOL0     N 5180   6.533   1.356   3.844  0.3802  0.0021 -1.1143
   39MOL0     N 5181   6.453   1.439   3.789  0.1536 -0.0630  0.1103
   39MOL0     C 5182   5.146   1.214   3.390  0.3439 -0.3779  0.6550
   39MOL0     C 5183   5.023   1.156   3.362  0.2179  1.4393 -0.4816
   39MOL0     C 5184   4.570   1.196   3.229  0.4089 -0.1978  0.3501
   39MOL0     C 5185   4.513   1.091   3.309 -0.7104 -0.7092 -0.0721
   39MOL0     C 5186   4.376   1.065   3.322  0.2934  0.5387  0.8684
   39MOL0     C 5187   4.293   1.135   3.226  0.5065 -0.0556  0.0071
   39MOL0     O 5188   4.157   1.120   3.225  0.3798 -1.0715  0.5583
   39MOL0     C 5189   4.089   1.025   3.308 -0.2772  0.1840 -0.4358
   39MOL0     C 5190   3.958   1.009   3.231 -0.2757 -0.0261 -0.0091
   39MOL0     C 5191   3.846   0.938   3.315 -0.1180 -0.3313 -0.2971
   39MOL0     C 5192   3.734   0.885   3.223 -0.3741  1.2863  0.3698
   39MOL0     C 5193   3.614   0.838   3.292 -0.6572  0.2663  0.3334
   39MOL0     C 5194   3.512   0.802   3.339  0.3253 -0.0274 -0.2460
   39MOL0     C 5195   4.348   1.233   3.140  0.3947  0.1303 -0.1761
   39MOL0     C 5196   4.489   1.264   3.139  0.0428 -0.0479 -0.4133
   39MOL0     C 5197   4.541   1.354   3.032 -0.5313 -0.2345  0.6316
   39MOL0     H 5198   4.815   1.379   3.479  0.7991 -0.7170  1.4726
   39MOL0     H 5199   5.025   1.465   3.587 -1.2203 -0.5986  1.6839
   39MOL0     H 5200   5.400   1.217   3.535 -0.9663  0.8084  1.3281
   39MOL0     H 5201   5.424   1.307   3.384  0.8981 -0.6338  0.6155
   39MOL0     H 5202   5.477   1.378   3.665 -3.1320 -3.0220 -2.2565
   39MOL0     H 5203   5.489   1.509   3.542 -1.5548  0.3214 -1.5141
   39MOL0     H 5204   5.663   1.375   3.428 -3.2839 -0.2725 -1.2184
   39MOL0     H 5205   5.650   1.248   3.551  1.8185  0.5267  0.6959
   39MOL0     H 5206   5.743   1.532   3.568 -1.0007  1.0272  1.3446
   39MOL0     H 5207   5.715   1.441   3.722 -0.7173  0.3818  0.1033
   39MOL0     H 5208   5.877   1.273   3.665  0.7685  0.0080 -1.7797
   39MOL0     H 5209   5.931   1.368   3.523  0.3098  0.6969  0.0250
   39MOL0     H 5210   5.963   1.569   3.653  1.0780 -0.4508 -2.1643
   39MOL0     H 5211   5.941   1.473   3.797 -0.1500 -0.9650 -0.9204
   39MOL0     H 5212   6.150   1.416   3.575 -2.5130  1.0400 -1.2151
   39MOL0     H 5213   6.119   1.305   3.710  0.6064  0.8497  0.1995
   39MOL0     H 5214   6.243   1.586   3.749 -0.6547  1.1405  0.8149
   39MOL0     H 5215   6.145   1.516   3.870 -1.9580 -3.2374 -0.1706
   39MOL0     H 5216   6.252   1.268   3.980 -1.5137  3.7292 -0.2237
   39MOL0     H 5217   6.440   1.067   4.006 -0.8870  1.7291 -0.9466
   39MOL0     H 5218   6.603   1.109   3.965 -1.0009 -1.7127 -2.4829
   39MOL0     H 5219   6.599   1.270   4.173  4.7917 -3.2790  0.1064
   39MOL0     H 5220   6.429   1.234   4.193 -1.8514 -1.2200 -0.3602
   39MOL0     H 5221   6.660   1.022   4.198  0.6139  0.7146  0.0686
   39MOL0     H 5222   6.492   1.004   4.247  0.1710  1.5263 -0.4938
   39MOL0     H 5223   6.517   1.154   4.430 -0.2564 -1.3753  1.3733
   39MOL0     H 5224   6.672   1.201   4.381 -0.9237  0.3264 -0.3082
   39MOL0     H 5225   6.838   1.100   4.623 -2.5392 -1.2074 -1.1143
   39MOL0     H 5226   7.074   1.086   4.601  1.8590  0.6322 -1.3633
   39MOL0     H 5227   7.394   0.761   4.567  1.3014 -0.3444  1.1869
   39MOL0     H 5228   7.614   0.657   4.568 -3.5661  2.2445  2.1129
   39MOL0     H 5229   7.842   0.685   4.549  2.1046 -0.5429  0.6442
   39MOL0     H 5230   7.776   0.525   4.504  0.1228  0.7276  1.8972
   39MOL0     H 5231   8.025   0.516   4.548  0.4511 -0.0157  0.7499
   39MOL0     H 5232   7.973   0.479   4.380 -1.5196  2.6787 -3.5461
   39MOL0     H 5233   8.027   0.712   4.325  2.2089 -0.5891 -0.1350
   39MOL0     H 5234   8.063   0.755   4.490  1.8516  3.2085 -2.0640
   39MOL0     H 5235   8.221   0.535   4.331  0.8235  0.4769 -0.9441
   39MOL0     H 5236   8.260   0.626   4.487 -1.5446  1.5899  1.4218
   39MOL0     H 5237   8.265   0.829   4.350  2.1693 -0.3894  0.9211
   39MOL0     H 5238   8.214   0.742   4.206  1.9994  0.2540 -0.2687
   39MOL0     H 5239   8.478   0.712   4.363  2.1452 -1.1873 -0.7660
   39MOL0     H 5240   8.422   0.620   4.207 -0.1929 -1.7115  1.3904
   39MOL0     H 5241   8.444   0.915   4.238  0.3956  0.3865 -0.2413
   39MOL0     H 5242   8.399   0.832   4.091 -2.9013  2.1380  2.2976
   39MOL0     H 5243   8.671   0.841   4.239  0.2076  2.4383 -0.7312
   39MOL0     H 5244   8.653   0.728   4.098  0.8139  0.7958 -0.6535
   39MOL0     H 5245   7.647   0.712   4.134 -3.3490 -3.6108 -1.5041
   39MOL0     H 5246   7.408   0.799   4.142  0.3028  1.2648  0.5883
   39MOL0     H 5247   7.017   0.827   4.264 -0.2776  1.4875 -1.2267
   39MOL0     H 5248   6.796   0.845   4.272  1.3413  0.5462 -1.4425
   39MOL0     H 5249   5.222   1.150   3.346  0.0006 -0.7010  0.5304
   39MOL0     H 5250   5.019   1.066   3.300  2.0024  0.4979  0.6893
   39MOL0     H 5251   4.583   1.037   3.372 -0.7806 -0.9087 -0.1643
   39MOL0     H 5252   4.345   0.983   3.386 -1.5528 -0.3413 -1.0296
   39MOL0     H 5253   4.073   1.063   3.410 -1.4960 -1.1169 -0.1055
   39MOL0     H 5254   4.133   0.927   3.328 -2.4861 -0.9030 -0.5208
   39MOL0     H 5255   3.992   0.941   3.152 -0.2713  0.4404 -0.4118
   39MOL0     H 5256   3.924   1.103   3.186  1.0185  0.1844 -0.5791
   39MOL0     H 5257   3.799   1.004   3.388 -2.0098 -0.7041 -1.1072
   39MOL0     H 5258   3.890   0.850   3.362  0.7542  0.2597  0.0111
   39MOL0     H 5259   3.707   0.957   3.145 -0.6182  0.4583 -0.3140
   39MOL0     H 5260   3.777   0.798   3.174 -1.1451  1.1624 -0.1025
   39MOL0     H 5261   3.414   0.767   3.367  0.2382  0.2335 -0.2199
   39MOL0     H 5262   4.281   1.276   3.066 -0.1105 -1.5862 -0.7642
   39MOL0     H 5263   4.623   1.304   2.978  1.0645  0.9255  1.8580
   39MOL0     H 5264   4.471   1.377   2.951  0.4238  0.9806  0.1058
   39MOL0     H 5265   4.575   1.453   3.062 -0.8193  1.3128 -3.4938
   40MOL0     O 5266   7.189  10.351   0.695 -0.6704  0.2336 -0.1252
   40MOL0     C 5267   7.154  10.418   0.797 -0.1531  0.3422 -0.0772
   40MOL0     O 5268   7.242  10.455   0.903  0.1260 -0.6387  0.3834
   40MOL0     C 5269   7.361  10.388   0.893  0.1356  0.2943 -0.3595
   40MOL0     C 5270   7.384  10.267   0.962  0.6787 -0.5714 -0.3924
   40MOL0     C 5271   7.508  10.209   0.976  0.1344  0.0087  0.1335
   40MOL0     C 5272   7.617  10.268   0.911  0.7115  0.6957  0.0217
   40MOL0     O 5273   7.749  10.208   0.913 -0.1352 -0.1858 -0.4173
   40MOL0     C 5274   7.839  10.214   0.804  0.5648  0.5688  0.3207
   40MOL0     C 5275   7.962  10.121   0.841  0.9045 -0.0985 -0.2164
   40MOL0     C 5276   8.096  10.153   0.768 -0.1947  0.2288  0.1114
   40MOL0     C 5277   8.217  10.073   0.820 -1.0898  0.3382 -0.3861
   40MOL0     C 5278   8.350  10.114   0.757 -1.0763 -0.8841  0.1246
   40MOL0     C 5279   8.424  10.227   0.834 -0.2172 -0.2080  0.3452
   40MOL0     C 5280   8.566  10.250   0.772  0.0716 -0.1618  0.2019
   40MOL0     C 5281   8.655  10.342   0.857  0.1986 -0.5799  1.3385
   40MOL0     N 5282   8.789  10.359   0.796 -0.4156  0.2504  0.5829
   40MOL0     C 5283   8.863  10.275   0.719  0.0086 -0.4985  0.4321
   40MOL0     C 5284   8.985  10.331   0.693  0.6614 -0.3858  0.3556
   40MOL0     C 5285   9.087  10.287   0.594 -0.4647 -0.3136 -0.2773
   40MOL0     C 5286   9.183  10.182   0.653 -0.2178  0.8888 -0.1853
   40MOL0     C 5287   9.253  10.240   0.771  0.0563 -0.2183  0.3818
   40MOL0     C 5288   9.405  10.214   0.780  0.3816  0.2005 -0.3286
   40MOL0     O 5289   9.464  10.289   0.889  0.4056  0.4496  0.0370
   40MOL0     C 5290   9.593  10.315   0.886 -0.7373 -0.3209  0.1359
   40MOL0     C 5291   9.635  10.394   0.984 -0.7733 -0.2331  0.7294
   40MOL0     C 5292   9.764  10.419   0.998  0.9448  0.7892 -0.5110
   40MOL0     C 5293   9.855  10.373   0.915  0.8059 -0.5572  1.3204
   40MOL0     C 5294   9.994  10.423   0.937 -0.2439  0.0870  0.9943
   40MOL0     O 5295  10.091  10.351   0.869  0.3708 -0.1680  0.0077
   40MOL0     C 5296  10.224  10.357   0.870  0.3200 -0.5532  0.1262
   40MOL0     C 5297  10.293  10.254   0.823 -0.1156  0.8331  0.1783
   40MOL0     C 5298  10.432  10.250   0.828 -0.5937  0.0681  0.1728
   40MOL0     C 5299  10.501  10.349   0.892 -0.4122 -0.0886 -0.6700
   40MOL0     O 5300  10.641  10.340   0.881 -0.1290 -0.5388  0.2166
   40MOL0     C 5301  10.722  10.443   0.940 -0.2952 -0.3406  0.7400
   40MOL0     C 5302  10.856  10.380   0.963 -0.7834 -0.3419 -0.1318
   40MOL0     C 5303  10.920  10.330   0.847 -0.2542 -0.1739 -0.4759
   40MOL0     C 5304  11.073  10.307   0.870 -0.0301  0.2714  0.0170
   40MOL0     C 5305  11.151  10.432   0.841 -0.3359 -0.8982  0.7343
   40MOL0     C 5306  11.302  10.411   0.833 -0.2761 -0.9206  0.2622
   40MOL0     C 5307  11.376  10.534   0.785 -0.6342  0.1793  0.7488
   40MOL0     C 5308  11.490  10.507   0.690  0.0937 -0.0409 -1.4270
   40MOL0    Cl 5309  11.449  10.440   0.530 -0.4149 -0.0171  0.0947
   40MOL0     C 5310  10.431  10.466   0.932  0.4366 -0.0501  0.2242
   40MOL0     C 5311  10.296  10.470   0.919 -1.0236  0.0887 -0.7715
   40MOL0     O 5312  10.016  10.506   1.030  0.3697 -1.0377 -0.3481
   40MOL0     C 5313   9.813  10.292   0.808  0.4512  1.4570 -0.8255
   40MOL0     C 5314   9.680  10.259   0.794 -0.1197 -0.0582  0.2215
   40MOL0     N 5315   8.980  10.452   0.758 -0.4448 -0.1849  0.6701
   40MOL0     N 5316   8.865  10.471   0.813  0.3407  0.5220  0.1734
   40MOL0     C 5317   7.598  10.387   0.842 -0.4132 -0.1510  0.0059
   40MOL0     C 5318   7.469  10.446   0.833  0.1422 -0.2606 -1.1749
   40MOL0     C 5319   7.007  10.447   0.816  0.0492  1.4120  0.1295
   40MOL0     C 5320   6.973  10.548   0.904 -0.1172 -0.9039 -0.1600
   40MOL0     C 5321   6.838  10.586   0.919 -0.6989 -0.2661  0.3514
   40MOL0     C 5322   6.740  10.525   0.848 -0.8088 -0.2261 -0.2437
   40MOL0     O 5323   6.606  10.558   0.856 -0.3063  0.5205 -0.0934
   40MOL0     C 5324   6.570  10.682   0.910  0.0660  0.9374  0.0782
   40MOL0     C 5325   6.425  10.723   0.861  0.1211 -0.3756 -0.0128
   40MOL0     C 5326   6.417  10.759   0.712 -0.2252  0.8878  0.2982
   40MOL0     C 5327   6.280  10.808   0.657 -0.0185  0.9452  0.5767
   40MOL0     C 5328   6.244  10.933   0.717  0.8216  0.3194 -0.3728
   40MOL0     C 5329   6.185  11.031   0.748  0.5856 -0.1373 -0.3958
   40MOL0     C 5330   6.766  10.420   0.759  0.1761 -0.6020  1.1532
   40MOL0     C 5331   6.901  10.382   0.740 -0.0679  0.7700 -0.1075
   40MOL0     C 5332   6.922  10.286   0.621 -0.2171  0.1210  0.3802
   40MOL0     H 5333   7.303  10.222   1.018 -1.2904 -1.0205 -3.4136
   40MOL0     H 5334   7.522  10.121   1.037  0.0086  2.0259  3.2976
   40MOL0     H 5335   7.792  10.175   0.713  1.7226 -1.9884  0.7139
   40MOL0     H 5336   7.872  10.316   0.783  1.4475  0.5650  1.6114
   40MOL0     H 5337   7.944  10.017   0.814 -1.7078 -0.1574  1.3760
   40MOL0     H 5338   7.976  10.132   0.949 -1.2244 -0.5553  0.1424
   40MOL0     H 5339   8.112  10.261   0.775 -1.6072  0.4611  0.1423
   40MOL0     H 5340   8.070  10.124   0.666 -1.7235  0.0367  0.5259
   40MOL0     H 5341   8.223  10.081   0.929  3.6287  5.0221 -0.6088
   40MOL0     H 5342   8.208   9.966   0.797 -1.2937  0.4588 -0.8700
   40MOL0     H 5343   8.427  10.037   0.750  1.3852  1.2549  1.8415
   40MOL0     H 5344   8.324  10.175   0.669 -1.7110 -1.5844 -0.1770
   40MOL0     H 5345   8.371  10.321   0.818  0.4335  0.3856  1.5067
   40MOL0     H 5346   8.426  10.209   0.942  0.4307  1.4618  0.6533
   40MOL0     H 5347   8.553  10.280   0.668  0.6394 -0.0730  0.1494
   40MOL0     H 5348   8.620  10.154   0.765  1.6074  0.6551  0.2960
   40MOL0     H 5349   8.596  10.434   0.865 -1.0709 -1.0449 -1.4437
   40MOL0     H 5350   8.662  10.301   0.958  0.8392  1.0644  2.0060
   40MOL0     H 5351   8.823  10.182   0.683 -1.6215  0.5844 -0.6788
   40MOL0     H 5352   9.025  10.248   0.512 -2.6268  2.2029  0.0261
   40MOL0     H 5353   9.144  10.372   0.556 -1.0311 -0.0619 -0.5816
   40MOL0     H 5354   9.122  10.095   0.679  0.9235  0.4131  1.0518
   40MOL0     H 5355   9.254  10.148   0.577  1.7520 -0.1570  2.0102
   40MOL0     H 5356   9.205  10.204   0.863  0.8267 -1.8900  0.1627
   40MOL0     H 5357   9.244  10.349   0.775 -0.7444 -0.1790 -1.5756
   40MOL0     H 5358   9.438  10.243   0.680 -0.5858 -2.8713 -1.6796
   40MOL0     H 5359   9.417  10.106   0.794  0.7148  0.2057 -0.5665
   40MOL0     H 5360   9.555  10.436   1.045 -2.4696 -1.3985 -0.5795
   40MOL0     H 5361   9.802  10.479   1.081 -1.2361  0.6437  0.6713
   40MOL0     H 5362  10.239  10.171   0.779 -0.9841  0.3007  2.1259
   40MOL0     H 5363  10.488  10.166   0.787  0.9528  0.5554  1.1772
   40MOL0     H 5364  10.732  10.536   0.883 -0.2306 -0.7462  0.0820
   40MOL0     H 5365  10.686  10.473   1.039 -3.0184  1.2579 -0.6080
   40MOL0     H 5366  10.926  10.447   1.013 -0.8340  0.0513 -0.5891
   40MOL0     H 5367  10.846  10.301   1.039 -0.2104 -0.5744 -0.2975
   40MOL0     H 5368  10.876  10.235   0.817  0.1163 -1.1531  1.8653
   40MOL0     H 5369  10.915  10.403   0.765 -0.4224 -0.5765 -0.8242
   40MOL0     H 5370  11.114  10.231   0.803 -0.3490  0.3709 -0.2945
   40MOL0     H 5371  11.088  10.263   0.969  2.2076  0.1021 -0.3383
   40MOL0     H 5372  11.135  10.510   0.916  0.3088  0.2608 -0.2991
   40MOL0     H 5373  11.107  10.471   0.749 -0.1248  1.1391  1.4438
   40MOL0     H 5374  11.341  10.383   0.932  0.2274  1.7855  0.9122
   40MOL0     H 5375  11.324  10.332   0.761  2.3663 -0.3921  0.4081
   40MOL0     H 5376  11.405  10.597   0.869 -1.8047  0.5751  0.8771
   40MOL0     H 5377  11.313  10.604   0.729 -0.2690 -0.3722 -0.3869
   40MOL0     H 5378  11.554  10.593   0.669  2.0349 -1.0230  0.1724
   40MOL0     H 5379  11.542  10.430   0.748 -0.0689  0.9665  0.1275
   40MOL0     H 5380  10.493  10.544   0.975  1.9991 -1.2256  0.1759
   40MOL0     H 5381  10.237  10.549   0.966 -0.6213  0.1860 -0.4163
   40MOL0     H 5382   9.884  10.249   0.738 -0.4462  1.2477 -1.6388
   40MOL0     H 5383   9.665  10.186   0.715  1.8914 -1.3705  0.9741
   40MOL0     H 5384   7.684  10.433   0.795  0.3345  2.1674  3.2860
   40MOL0     H 5385   7.449  10.532   0.771 -0.6927  0.0580 -0.4889
   40MOL0     H 5386   7.040  10.598   0.973 -0.2825 -1.2525  0.2611
   40MOL0     H 5387   6.818  10.672   0.982 -3.1430 -2.0868  2.2105
   40MOL0     H 5388   6.638  10.763   0.880  2.4880 -1.1894 -0.5854
   40MOL0     H 5389   6.568  10.671   1.019  1.1404  0.7772  0.0998
   40MOL0     H 5390   6.391  10.804   0.926 -0.5886 -0.6695 -0.0109
   40MOL0     H 5391   6.354  10.642   0.881 -0.6821 -0.1339 -1.7173
   40MOL0     H 5392   6.427  10.667   0.652 -4.1324  1.4450 -1.5742
   40MOL0     H 5393   6.496  10.832   0.697 -0.3742  0.7975 -1.0928
   40MOL0     H 5394   6.274  10.803   0.547 -2.3707 -0.3413  0.6907
   40MOL0     H 5395   6.217  10.723   0.685  3.4303 -1.2617  2.3637
   40MOL0     H 5396   6.136  11.123   0.774 -0.5892 -0.6947 -0.5685
   40MOL0     H 5397   6.695  10.373   0.691  1.4140 -2.3312  1.0023
   40MOL0     H 5398   6.824  10.249   0.590 -0.2233 -0.3061  0.8935
   40MOL0     H 5399   6.973  10.347   0.546  0.6443  1.1964  1.7818
   40MOL0     H 5400   6.984  10.205   0.661 -1.4853 -0.5849  0.9803
   41MOL0     O 5401   2.450   2.104   1.882  0.2852 -0.2016  0.0880
   41MOL0     C 5402   2.340   2.068   1.917 -0.3735 -0.4834  0.2623
   41MOL0     O 5403   2.318   1.975   2.017  0.1819 -0.0097 -0.0111
   41MOL0     C 5404   2.437   1.910   2.063  0.1078 -0.7262  0.1981
   41MOL0     C 5405   2.478   1.795   2.005  0.2982 -0.3022 -0.7752
   41MOL0     C 5406   2.590   1.721   2.050 -0.5867 -0.0278  0.3274
   41MOL0     C 5407   2.670   1.776   2.151 -0.5977  0.4969 -0.3755
   41MOL0     O 5408   2.777   1.692   2.192  0.0530 -0.3555  0.4252
   41MOL0     C 5409   2.886   1.758   2.262 -0.3208 -0.1286 -0.0658
   41MOL0     C 5410   3.021   1.681   2.267 -0.8402  0.1595 -0.0565
   41MOL0     C 5411   2.999   1.543   2.328  0.5742  0.2453  0.0844
   41MOL0     C 5412   3.142   1.497   2.360 -0.7974 -0.2518  0.8054
   41MOL0     C 5413   3.136   1.353   2.409  0.7739 -0.6101  0.5718
   41MOL0     C 5414   3.194   1.237   2.317  0.0285  0.3254 -0.3105
   41MOL0     C 5415   3.346   1.230   2.319  0.2169 -0.6665  0.5865
   41MOL0     C 5416   3.405   1.189   2.450 -0.4415 -0.0550  0.3089
   41MOL0     N 5417   3.546   1.236   2.447  0.1299  0.0705 -0.4183
   41MOL0     C 5418   3.641   1.142   2.441 -0.0681 -0.3156  0.9012
   41MOL0     C 5419   3.761   1.211   2.441  0.5645 -0.5447 -0.6672
   41MOL0     C 5420   3.894   1.152   2.445  0.3782  0.9461 -0.2430
   41MOL0     C 5421   3.940   1.097   2.308 -0.0602  0.6970 -0.0762
   41MOL0     C 5422   4.079   1.033   2.319  0.7540  0.0151 -0.4252
   41MOL0     C 5423   4.125   0.974   2.185 -0.1691  0.0079 -0.7838
   41MOL0     O 5424   4.233   0.888   2.187 -0.4259  0.1980  0.0661
   41MOL0     C 5425   4.361   0.935   2.181  0.4580 -0.4309 -0.4081
   41MOL0     C 5426   4.397   1.058   2.133 -1.0194 -0.7074  0.2430
   41MOL0     C 5427   4.522   1.109   2.149 -0.5941  0.1994 -1.2328
   41MOL0     C 5428   4.628   1.024   2.196  0.4498 -0.0711 -0.1209
   41MOL0     C 5429   4.766   1.067   2.216  0.8810 -0.3767  0.0616
   41MOL0     O 5430   4.849   0.960   2.251  0.6620 -0.9519  0.2248
   41MOL0     C 5431   4.982   0.999   2.260  0.1721 -0.1754  0.9745
   41MOL0     C 5432   5.047   1.040   2.140  0.0911  0.1779  0.4858
   41MOL0     C 5433   5.178   1.078   2.146 -0.5005 -0.5090 -0.2220
   41MOL0     C 5434   5.246   1.088   2.265 -0.3305 -0.1825 -0.0819
   41MOL0     O 5435   5.372   1.142   2.269  0.4687  0.2809 -0.3935
   41MOL0     C 5436   5.429   1.193   2.148 -0.1340 -0.6342  0.0413
   41MOL0     C 5437   5.576   1.240   2.159 -0.8152 -0.1758  0.8023
   41MOL0     C 5438   5.674   1.127   2.199  1.4524 -0.3562  0.9527
   41MOL0     C 5439   5.809   1.189   2.226  0.0540 -0.1393 -0.2265
   41MOL0     C 5440   5.913   1.099   2.298  0.5188  0.5684 -0.3197
   41MOL0     C 5441   6.040   1.181   2.330 -0.4818  0.1112  1.2583
   41MOL0     C 5442   6.150   1.108   2.414  0.4720 -0.1029  0.4639
   41MOL0     C 5443   6.287   1.166   2.396 -0.2676  0.1779 -0.5817
   41MOL0    Cl 5444   6.276   1.338   2.437  0.4530 -0.2483  0.1733
   41MOL0     C 5445   5.183   1.041   2.387 -0.8790  0.5859  0.9313
   41MOL0     C 5446   5.051   1.000   2.385 -0.2822  0.0014 -0.5036
   41MOL0     O 5447   4.783   1.183   2.225  0.4932 -0.7029 -0.2714
   41MOL0     C 5448   4.589   0.898   2.237  0.3026  1.2152  0.3918
   41MOL0     C 5449   4.460   0.851   2.235  0.6718  0.0321 -0.2665
   41MOL0     N 5450   3.733   1.347   2.435 -0.5634  0.2468 -0.7756
   41MOL0     N 5451   3.605   1.359   2.450  0.2765  0.5587  0.1401
   41MOL0     C 5452   2.628   1.895   2.216  0.9163 -0.4037  0.3691
   41MOL0     C 5453   2.511   1.957   2.172  0.2826  0.7039  0.4799
   41MOL0     C 5454   2.224   2.127   1.834  0.1037  0.6446  0.2975
   41MOL0     C 5455   2.097   2.054   1.846 -0.3970  0.4647 -0.1939
   41MOL0     C 5456   1.990   2.106   1.775  0.6066  0.5963  0.6830
   41MOL0     C 5457   2.004   2.215   1.686 -0.4271 -0.3454 -0.2928
   41MOL0     O 5458   1.899   2.290   1.621 -0.1533  0.2393  0.2696
   41MOL0     C 5459   1.764   2.256   1.642 -0.2278  0.3630  0.6324
   41MOL0     C 5460   1.669   2.347   1.551 -0.4943  0.6612  0.0019
   41MOL0     C 5461   1.690   2.323   1.397 -0.5326  0.5514  0.2319
   41MOL0     C 5462   1.565   2.296   1.308 -0.4710  0.2268 -0.4429
   41MOL0     C 5463   1.507   2.424   1.258  0.4391 -0.4419 -0.1153
   41MOL0     C 5464   1.463   2.527   1.210 -0.3773 -0.7603 -0.1310
   41MOL0     C 5465   2.132   2.272   1.670  0.3773 -0.3885 -0.1340
   41MOL0     C 5466   2.243   2.236   1.743 -0.0151  0.4579 -0.1881
   41MOL0     C 5467   2.361   2.321   1.717  0.0846 -0.0014  0.3637
   41MOL0     H 5468   2.416   1.761   1.923 -0.3777 -0.9467 -0.0215
   41MOL0     H 5469   2.616   1.631   1.994  3.9499  1.6778 -0.7780
   41MOL0     H 5470   2.910   1.850   2.208  1.3003 -0.7583 -0.4725
   41MOL0     H 5471   2.858   1.791   2.363 -0.1216  0.6557 -0.2583
   41MOL0     H 5472   3.093   1.736   2.327 -0.1215 -0.0372 -0.7284
   41MOL0     H 5473   3.059   1.660   2.166 -1.0917 -1.7431  0.2013
   41MOL0     H 5474   2.943   1.478   2.260 -1.1976  2.2745 -0.5140
   41MOL0     H 5475   2.943   1.546   2.422  0.4163 -1.8045  0.0947
   41MOL0     H 5476   3.194   1.495   2.264 -3.2635  1.4390 -0.6670
   41MOL0     H 5477   3.195   1.569   2.423 -0.1727  1.3607 -1.4383
   41MOL0     H 5478   3.167   1.337   2.513  0.3391  3.2135  1.4355
   41MOL0     H 5479   3.030   1.327   2.414 -0.4031  2.6404 -2.8072
   41MOL0     H 5480   3.156   1.140   2.350 -0.7954 -0.1924 -2.6222
   41MOL0     H 5481   3.146   1.251   2.220  0.2943  1.7433 -0.2605
   41MOL0     H 5482   3.376   1.331   2.289  0.0349 -1.0439 -0.9578
   41MOL0     H 5483   3.378   1.160   2.241  0.4763 -0.1017  0.1795
   41MOL0     H 5484   3.364   1.253   2.528  2.3944  2.2761  0.0392
   41MOL0     H 5485   3.398   1.082   2.474 -1.0406  0.2524  1.5846
   41MOL0     H 5486   3.638   1.034   2.449 -1.9487 -0.3625  0.0119
   41MOL0     H 5487   3.961   1.226   2.490 -1.3998  1.0691  2.3608
   41MOL0     H 5488   3.905   1.067   2.512  0.8979  2.3198  1.4750
   41MOL0     H 5489   3.873   1.019   2.271 -0.6002  0.5344  1.1889
   41MOL0     H 5490   3.946   1.182   2.240  2.8143  0.6238 -0.0123
   41MOL0     H 5491   4.070   0.948   2.387  1.7313 -1.3512 -1.9480
   41MOL0     H 5492   4.156   1.096   2.364 -1.0153  1.1787  1.1739
   41MOL0     H 5493   4.152   1.052   2.113  2.3005 -1.2225 -1.3194
   41MOL0     H 5494   4.048   0.912   2.137 -1.0216  2.9746 -3.6715
   41MOL0     H 5495   4.332   1.132   2.086 -0.8226 -1.4590 -1.2787
   41MOL0     H 5496   4.542   1.208   2.111  0.2220  0.7061  0.4029
   41MOL0     H 5497   4.985   1.041   2.050 -0.3616 -1.2799  0.7517
   41MOL0     H 5498   5.217   1.110   2.050  0.8585  0.0790  0.4908
   41MOL0     H 5499   5.424   1.114   2.073  0.0859 -0.4033 -0.2224
   41MOL0     H 5500   5.371   1.280   2.116  1.7766  0.6069 -0.2545
   41MOL0     H 5501   5.600   1.278   2.059 -1.6864 -1.0137  0.2579
   41MOL0     H 5502   5.578   1.330   2.221 -1.0160  0.8985 -0.6870
   41MOL0     H 5503   5.626   1.079   2.285 -0.4292  2.2582  1.5017
   41MOL0     H 5504   5.684   1.047   2.125  0.1775 -0.6800  1.1015
   41MOL0     H 5505   5.788   1.278   2.286  1.7295  0.2967 -0.2512
   41MOL0     H 5506   5.853   1.222   2.131 -1.0278  2.1145  0.0079
   41MOL0     H 5507   5.934   1.010   2.238  0.2348  0.4509 -0.2457
   41MOL0     H 5508   5.879   1.069   2.398  0.1500  1.7244 -0.0799
   41MOL0     H 5509   6.092   1.217   2.242  1.6007  2.0458  3.1403
   41MOL0     H 5510   6.014   1.275   2.380  2.1415  1.7045 -0.1715
   41MOL0     H 5511   6.144   1.001   2.391 -1.1611  0.0694 -0.0651
   41MOL0     H 5512   6.112   1.120   2.516  1.2739  0.8645  0.6552
   41MOL0     H 5513   6.362   1.108   2.450 -0.7928 -0.9474 -1.0269
   41MOL0     H 5514   6.308   1.163   2.289 -4.5324 -0.0270 -1.6202
   41MOL0     H 5515   5.246   1.039   2.475 -1.3805  0.5124  1.2894
   41MOL0     H 5516   4.988   0.981   2.472 -0.1594 -0.3912 -0.4976
   41MOL0     H 5517   4.653   0.826   2.286 -1.3528 -1.0432 -0.5328
   41MOL0     H 5518   4.431   0.752   2.271  2.1441 -1.1300 -2.0882
   41MOL0     H 5519   2.683   1.941   2.298 -1.0004 -1.1216  2.1438
   41MOL0     H 5520   2.475   2.047   2.220 -0.6368  0.8481 -0.4493
   41MOL0     H 5521   2.094   1.965   1.907 -2.3671 -0.7060 -1.8519
   41MOL0     H 5522   1.891   2.064   1.793  0.3508 -0.2739 -2.2122
   41MOL0     H 5523   1.732   2.252   1.746 -0.1738  0.7442  0.6632
   41MOL0     H 5524   1.762   2.155   1.599 -2.6715  1.5965 -2.5912
   41MOL0     H 5525   1.680   2.455   1.567  1.1452  0.3751  0.9949
   41MOL0     H 5526   1.562   2.341   1.571 -0.5425 -0.1642 -0.4752
   41MOL0     H 5527   1.761   2.239   1.395 -1.4608 -0.3378  2.0714
   41MOL0     H 5528   1.743   2.400   1.340 -0.3865  1.1468  1.1396
   41MOL0     H 5529   1.596   2.244   1.217  1.4904  1.1152 -0.3313
   41MOL0     H 5530   1.490   2.231   1.354  1.2926 -2.1156 -0.6610
   41MOL0     H 5531   1.419   2.614   1.166 -2.1414 -0.9250  1.1911
   41MOL0     H 5532   2.136   2.336   1.583 -1.5530 -0.1909 -0.1314
   41MOL0     H 5533   2.328   2.386   1.635  0.1432 -0.7139 -0.2313
   41MOL0     H 5534   2.392   2.387   1.799 -0.3121  2.8589 -1.6536
   41MOL0     H 5535   2.443   2.252   1.695 -0.3656 -1.3432  2.6111
   42MOL0     O 5536   9.052   8.015   2.613  0.0385 -0.3616  0.0382
   42MOL0     C 5537   9.012   7.910   2.658 -0.1730 -0.0477 -0.4054
   42MOL0     O 5538   9.081   7.788   2.654 -0.0651  0.1820 -0.0447
   42MOL0     C 5539   9.203   7.785   2.588  0.0154 -0.2731 -0.0650
   42MOL0     C 5540   9.319   7.783   2.673  0.6141 -0.0933 -0.1534
   42MOL0     C 5541   9.444   7.779   2.608 -0.2942 -0.8000 -0.3822
   42MOL0     C 5542   9.455   7.803   2.471 -0.2132 -0.1484 -0.2007
   42MOL0     O 5543   9.582   7.833   2.420  0.0248  0.0003 -0.3249
   42MOL0     C 5544   9.597   7.815   2.282 -0.7190 -0.0671  0.2985
   42MOL0     C 5545   9.739   7.818   2.229  0.1851 -0.6258 -0.5055
   42MOL0     C 5546   9.813   7.948   2.274 -0.4220 -0.1335  0.2200
   42MOL0     C 5547   9.946   7.953   2.198  0.5793 -0.6759  0.7731
   42MOL0     C 5548  10.034   8.062   2.260  0.4308  0.4112 -0.1283
   42MOL0     C 5549   9.988   8.204   2.238  0.0589 -0.4601  0.0351
   42MOL0     C 5550  10.088   8.311   2.287 -0.1938 -0.1788  0.5269
   42MOL0     C 5551  10.043   8.443   2.235  0.2490 -0.2113  0.6055
   42MOL0     N 5552  10.146   8.540   2.253 -0.3793  0.3407  0.8843
   42MOL0     C 5553  10.132   8.674   2.271  0.0260  0.0779 -0.1982
   42MOL0     C 5554  10.246   8.738   2.236 -0.6273  0.1259  0.3453
   42MOL0     C 5555  10.289   8.872   2.243  0.1767 -0.5360 -0.7101
   42MOL0     C 5556  10.347   8.911   2.385 -0.2956  0.1839 -0.8872
   42MOL0     C 5557  10.470   8.842   2.443  0.1624 -0.0373  0.1753
   42MOL0     C 5558  10.599   8.865   2.364 -0.1669 -1.0318 -0.1898
   42MOL0     O 5559  10.633   9.008   2.372  0.7743 -0.1672  0.3536
   42MOL0     C 5560  10.749   9.054   2.319 -0.7031  0.1688 -0.5501
   42MOL0     C 5561  10.830   8.986   2.234 -0.0829  0.5824 -0.6194
   42MOL0     C 5562  10.952   9.036   2.175  0.3651 -0.1968 -0.8131
   42MOL0     C 5563  10.986   9.164   2.208 -0.4598  0.0176 -0.3416
   42MOL0     C 5564  11.119   9.218   2.162  0.2153 -0.6234  0.1605
   42MOL0     O 5565  11.154   9.340   2.222  0.1939  0.3749 -0.1699
   42MOL0     C 5566  11.287   9.365   2.223  0.1802  0.3695 -0.5263
   42MOL0     C 5567  11.345   9.457   2.136  0.0041 -0.6909  0.4911
   42MOL0     C 5568  11.483   9.476   2.127 -0.2549 -0.0119  0.2793
   42MOL0     C 5569  11.571   9.395   2.211 -0.0650 -1.3389 -0.6975
   42MOL0     O 5570  11.700   9.425   2.212 -0.6098  0.3407  0.1838
   42MOL0     C 5571  11.791   9.312   2.178  0.3759  0.1882 -0.1721
   42MOL0     C 5572  11.928   9.352   2.214  0.9735  0.6856  0.0308
   42MOL0     C 5573  12.017   9.237   2.176 -0.3243 -0.1739  0.1658
   42MOL0     C 5574  12.159   9.263   2.225  0.1689 -0.3630 -0.2000
   42MOL0     C 5575  12.255   9.142   2.194 -0.5369  0.1545 -0.4375
   42MOL0     C 5576  12.398   9.196   2.192  0.0667  0.0584 -0.3447
   42MOL0     C 5577  12.458   9.233   2.330  0.6430 -0.5975 -0.4948
   42MOL0     C 5578  12.602   9.275   2.324 -0.0867  0.4293  0.2064
   42MOL0    Cl 5579  12.639   9.429   2.257  0.0885  0.1418  0.3797
   42MOL0     C 5580  11.514   9.315   2.304 -0.7619 -0.3578 -0.6339
   42MOL0     C 5581  11.377   9.298   2.316  1.2657 -0.1641 -0.0232
   42MOL0     O 5582  11.189   9.155   2.080  0.2410  0.6810  0.1936
   42MOL0     C 5583  10.899   9.238   2.287 -0.8092  0.1778  0.1935
   42MOL0     C 5584  10.781   9.189   2.345  0.5723 -0.6035  0.1381
   42MOL0     N 5585  10.332   8.639   2.191  0.2048  0.0754  0.2163
   42MOL0     N 5586  10.275   8.527   2.192  0.6958 -0.3138 -0.1234
   42MOL0     C 5587   9.335   7.811   2.392  0.4614 -0.0599  0.1468
   42MOL0     C 5588   9.213   7.779   2.449 -0.2653 -0.2500  0.1030
   42MOL0     C 5589   8.889   7.896   2.739  0.0745  0.3831  0.2278
   42MOL0     C 5590   8.765   7.922   2.678 -0.3638  0.2372 -0.1593
   42MOL0     C 5591   8.642   7.909   2.739 -0.1568  0.8236 -0.1582
   42MOL0     C 5592   8.645   7.841   2.862  1.3817  0.3042 -0.0649
   42MOL0     O 5593   8.528   7.809   2.932 -0.2224 -0.7931  0.1283
   42MOL0     C 5594   8.392   7.823   2.876 -0.4773  0.3287  0.0535
   42MOL0     C 5595   8.290   7.790   2.986 -0.2622 -0.7326 -0.4190
   42MOL0     C 5596   8.314   7.878   3.115  0.5776 -0.1290  0.7995
   42MOL0     C 5597   8.383   7.798   3.227  0.2453  0.1503  0.0838
   42MOL0     C 5598   8.279   7.716   3.279 -0.1652  1.0773 -0.7363
   42MOL0     C 5599   8.189   7.665   3.344  0.4513  0.6742  0.4578
   42MOL0     C 5600   8.764   7.805   2.926  0.7516  0.6436  0.4982
   42MOL0     C 5601   8.887   7.841   2.869  0.4851  0.2353 -0.2349
   42MOL0     C 5602   9.014   7.789   2.944 -0.1379  0.5004  0.0164
   42MOL0     H 5603   9.299   7.791   2.780 -2.9385  3.3678 -0.8482
   42MOL0     H 5604   9.530   7.769   2.673 -0.9100 -0.3681  0.5180
   42MOL0     H 5605   9.559   7.714   2.262  1.3195 -1.5246  3.0963
   42MOL0     H 5606   9.545   7.896   2.231  0.2415  0.3033 -0.1199
   42MOL0     H 5607   9.733   7.800   2.122 -2.4521  1.0653 -0.7347
   42MOL0     H 5608   9.802   7.738   2.270 -0.6167 -1.8981 -1.6799
   42MOL0     H 5609   9.839   7.951   2.380  1.2592 -1.8576 -0.0886
   42MOL0     H 5610   9.755   8.036   2.244 -0.9347 -1.5194 -3.2786
   42MOL0     H 5611  10.001   7.858   2.193 -1.3102 -1.8833 -5.0695
   42MOL0     H 5612   9.927   7.969   2.092  1.1530  0.8594  0.8851
   42MOL0     H 5613  10.046   8.031   2.364 -0.3516  0.3097 -0.0624
   42MOL0     H 5614  10.128   8.046   2.206  0.0483  2.0915 -1.3834
   42MOL0     H 5615   9.955   8.214   2.135 -2.5621 -1.0267  0.7382
   42MOL0     H 5616   9.904   8.199   2.308  1.0877 -1.5280  1.2561
   42MOL0     H 5617  10.188   8.286   2.251  0.5958  0.2173  2.3871
   42MOL0     H 5618  10.097   8.324   2.395 -1.9622 -0.8809  0.7934
   42MOL0     H 5619  10.019   8.444   2.128  1.5063  1.7858  0.2960
   42MOL0     H 5620   9.952   8.479   2.284 -2.6042 -2.5915 -2.4199
   42MOL0     H 5621  10.044   8.724   2.310  0.8324  0.9644  0.5269
   42MOL0     H 5622  10.361   8.898   2.163  1.9013  4.3543  1.9830
   42MOL0     H 5623  10.205   8.939   2.224 -0.7440 -2.0946 -2.5499
   42MOL0     H 5624  10.376   9.016   2.395 -0.0203 -0.0548  1.1845
   42MOL0     H 5625  10.269   8.890   2.458  1.0984 -1.8058  0.1320
   42MOL0     H 5626  10.446   8.735   2.442 -2.6108  0.5189 -0.1972
   42MOL0     H 5627  10.487   8.876   2.546  0.4720  0.8682 -0.1678
   42MOL0     H 5628  10.590   8.831   2.261  0.7663  2.3885 -1.5197
   42MOL0     H 5629  10.678   8.808   2.415  0.5382  0.3040  0.2586
   42MOL0     H 5630  10.813   8.880   2.221 -1.4538  0.8100 -0.7982
   42MOL0     H 5631  11.011   8.983   2.101 -0.2123 -0.4917 -1.0708
   42MOL0     H 5632  11.280   9.519   2.076  0.8336  1.0265  1.2747
   42MOL0     H 5633  11.509   9.530   2.036 -0.7404  1.2775  0.8806
   42MOL0     H 5634  11.765   9.221   2.233  2.1670 -0.1427  0.1917
   42MOL0     H 5635  11.787   9.289   2.071  0.6405  2.3446 -0.6957
   42MOL0     H 5636  11.952   9.442   2.157 -0.7585  0.6984 -0.7173
   42MOL0     H 5637  11.938   9.378   2.320  0.9556  1.0065 -0.0459
   42MOL0     H 5638  11.987   9.139   2.213  1.3318 -0.3240  1.1979
   42MOL0     H 5639  12.021   9.233   2.066 -0.0960  1.2896  0.1020
   42MOL0     H 5640  12.151   9.276   2.333  0.2168 -0.0160 -0.2348
   42MOL0     H 5641  12.193   9.359   2.184 -1.1675  0.3972  0.3865
   42MOL0     H 5642  12.224   9.096   2.100 -0.4456 -1.8321  0.4584
   42MOL0     H 5643  12.236   9.073   2.277 -1.5412  0.6118 -0.2607
   42MOL0     H 5644  12.461   9.110   2.166  0.0240  0.1426 -0.7233
   42MOL0     H 5645  12.423   9.275   2.121  2.0792  1.8931  2.2273
   42MOL0     H 5646  12.448   9.144   2.393 -2.8729  0.6388  0.9215
   42MOL0     H 5647  12.400   9.314   2.374 -1.7419 -2.3015 -0.2525
   42MOL0     H 5648  12.637   9.284   2.428  1.0469 -1.8863  0.1076
   42MOL0     H 5649  12.669   9.205   2.274  0.9046  2.5920 -1.6646
   42MOL0     H 5650  11.581   9.258   2.368 -2.0715 -0.4687  0.6881
   42MOL0     H 5651  11.339   9.231   2.393  2.8760  1.0683  1.9514
   42MOL0     H 5652  10.930   9.341   2.303  0.2400 -0.2186  0.8397
   42MOL0     H 5653  10.714   9.244   2.410  0.5290 -0.8510  0.3027
   42MOL0     H 5654   9.330   7.830   2.285 -0.5219 -0.7385  0.0661
   42MOL0     H 5655   9.128   7.777   2.382 -0.6944 -0.0221  0.6324
   42MOL0     H 5656   8.760   7.964   2.578  0.5102 -2.7675 -1.6049
   42MOL0     H 5657   8.551   7.939   2.688 -1.4276 -2.3388 -0.0275
   42MOL0     H 5658   8.378   7.753   2.792  0.2290 -1.2800  1.2095
   42MOL0     H 5659   8.368   7.926   2.851 -0.0019  0.5424  0.4594
   42MOL0     H 5660   8.299   7.683   3.009  0.1891 -0.4956  0.5554
   42MOL0     H 5661   8.190   7.809   2.947  0.1554 -1.7224 -2.0517
   42MOL0     H 5662   8.220   7.921   3.151  0.6950  0.5263  0.3443
   42MOL0     H 5663   8.387   7.955   3.088 -0.2405 -0.0156 -1.2422
   42MOL0     H 5664   8.474   7.748   3.192  0.7479  2.0711 -1.5149
   42MOL0     H 5665   8.425   7.867   3.301  3.8651 -0.7138 -0.9640
   42MOL0     H 5666   8.109   7.622   3.402 -0.5569 -0.0605 -1.4071
   42MOL0     H 5667   8.759   7.752   3.021 -1.0538 -0.9099 -0.4033
   42MOL0     H 5668   9.065   7.707   2.893 -2.2513 -1.1857  0.4836
   42MOL0     H 5669   9.081   7.873   2.965  1.2346  0.9459 -4.9887
   42MOL0     H 5670   8.985   7.735   3.035  0.6054 -2.8638 -1.5939
   43MOL0     O 5671   8.025   6.897   2.340 -0.4020  0.1235 -0.1604
   43MOL0     C 5672   7.985   6.827   2.431 -0.1178 -0.2209 -0.1570
   43MOL0     O 5673   8.051   6.725   2.485 -0.2299 -0.1724  0.5547
   43MOL0     C 5674   8.171   6.681   2.428 -0.8453 -0.1583 -0.1051
   43MOL0     C 5675   8.174   6.648   2.292  0.2028  0.2900  0.0363
   43MOL0     C 5676   8.295   6.595   2.235  0.0393  1.2646 -0.0487
   43MOL0     C 5677   8.412   6.587   2.314  0.0720 -0.1635 -0.2313
   43MOL0     O 5678   8.531   6.535   2.275 -1.1310 -0.2823  0.0065
   43MOL0     C 5679   8.565   6.551   2.135 -0.5305  0.1604  0.4836
   43MOL0     C 5680   8.701   6.494   2.106 -1.2181 -0.1504 -0.5939
   43MOL0     C 5681   8.806   6.563   2.201  0.5988  0.4841  0.7868
   43MOL0     C 5682   8.937   6.539   2.131  0.0880 -0.5551  0.6026
   43MOL0     C 5683   9.045   6.621   2.203 -0.3955  0.0575 -0.2149
   43MOL0     C 5684   9.181   6.604   2.129  0.1922 -0.4168 -0.0582
   43MOL0     C 5685   9.303   6.657   2.198  0.7990  0.1275 -0.1066
   43MOL0     C 5686   9.296   6.805   2.202 -0.7086  0.2535 -0.2014
   43MOL0     N 5687   9.424   6.868   2.237 -0.0506 -0.6086  0.5472
   43MOL0     C 5688   9.487   6.885   2.358  0.5818 -0.2701  0.0593
   43MOL0     C 5689   9.605   6.958   2.337 -0.0500  0.6959 -0.4900
   43MOL0     C 5690   9.699   7.009   2.448 -0.2849  0.4177  0.2487
   43MOL0     C 5691   9.828   7.062   2.396  0.1957 -0.6040 -0.5952
   43MOL0     C 5692   9.920   7.099   2.513  0.0927 -0.0495  0.2632
   43MOL0     C 5693  10.055   7.150   2.458 -0.2995  0.7855 -0.4139
   43MOL0     O 5694  10.144   7.045   2.406  0.9926 -0.0060  0.1884
   43MOL0     C 5695  10.253   7.007   2.474  0.5589 -0.1406 -0.6146
   43MOL0     C 5696  10.298   7.041   2.610 -0.3248  0.6199  0.6125
   43MOL0     C 5697  10.408   6.986   2.662 -0.1963  0.6127 -0.0674
   43MOL0     C 5698  10.486   6.898   2.583 -0.6522  0.5759 -0.6633
   43MOL0     C 5699  10.616   6.844   2.617 -0.7006 -0.1300  0.1287
   43MOL0     O 5700  10.692   6.932   2.693  0.4424  0.3009  0.3783
   43MOL0     C 5701  10.812   6.895   2.737 -0.1258  0.0915  0.4732
   43MOL0     C 5702  10.826   6.804   2.844  0.2238 -0.4318  0.0199
   43MOL0     C 5703  10.953   6.758   2.874 -0.5031 -0.4620  0.8298
   43MOL0     C 5704  11.070   6.802   2.806  0.0878 -0.4989 -0.1252
   43MOL0     O 5705  11.196   6.756   2.858  1.2590 -0.0400 -0.5365
   43MOL0     C 5706  11.309   6.787   2.773  0.4606 -0.1131  0.5163
   43MOL0     C 5707  11.432   6.694   2.788 -0.6244 -0.3552  0.5289
   43MOL0     C 5708  11.526   6.678   2.659  0.0781  0.3631 -0.4271
   43MOL0     C 5709  11.650   6.754   2.679 -0.0723 -0.0473  0.0753
   43MOL0     C 5710  11.732   6.773   2.548 -0.1900  0.3116  0.2734
   43MOL0     C 5711  11.869   6.833   2.574 -0.8121 -0.0802  0.6865
   43MOL0     C 5712  11.971   6.736   2.631  0.5725  0.3937  0.2649
   43MOL0     C 5713  12.110   6.768   2.560  0.2835 -0.0976  0.3634
   43MOL0    Cl 5714  12.257   6.661   2.606  0.5534  0.3918 -0.3463
   43MOL0     C 5715  11.053   6.907   2.721  0.1371  0.0954 -0.1101
   43MOL0     C 5716  10.923   6.952   2.677 -0.4759  0.2461  0.1899
   43MOL0     O 5717  10.655   6.730   2.576 -0.6596 -0.1820  0.2758
   43MOL0     C 5718  10.446   6.861   2.455  0.6908 -0.5153 -1.1659
   43MOL0     C 5719  10.324   6.912   2.398 -0.0885 -0.1375 -0.5766
   43MOL0     N 5720   9.617   6.963   2.198  0.0869  0.2128  0.4104
   43MOL0     N 5721   9.505   6.918   2.142  0.1079  0.5365  0.1653
   43MOL0     C 5722   8.409   6.636   2.449 -0.3324  0.4973  0.5129
   43MOL0     C 5723   8.284   6.673   2.511 -0.4480  1.1892  0.1230
   43MOL0     C 5724   7.876   6.865   2.502  1.4006 -0.5345  0.7521
   43MOL0     C 5725   7.844   7.004   2.518  0.1690 -0.5990 -0.2415
   43MOL0     C 5726   7.731   7.042   2.582 -0.5133 -0.1326 -0.4979
   43MOL0     C 5727   7.649   6.957   2.655  0.3955 -0.3312 -0.2961
   43MOL0     O 5728   7.527   6.983   2.708  0.1716 -0.5322  0.4221
   43MOL0     C 5729   7.485   7.120   2.742  1.1505 -0.2938  0.6271
   43MOL0     C 5730   7.424   7.187   2.614 -0.5392 -0.3617 -0.2370
   43MOL0     C 5731   7.326   7.101   2.523  0.1519  0.0647  0.2830
   43MOL0     C 5732   7.263   7.194   2.422  0.0702  0.6458  0.4557
   43MOL0     C 5733   7.187   7.108   2.323 -0.5246  0.0198  0.6046
   43MOL0     C 5734   7.132   7.037   2.244 -0.2270 -0.2580  0.4148
   43MOL0     C 5735   7.684   6.823   2.648 -0.7044  1.0187 -0.5831
   43MOL0     C 5736   7.792   6.775   2.570  0.2966 -0.4063 -0.4497
   43MOL0     C 5737   7.789   6.629   2.538 -0.8396  0.2381 -0.2313
   43MOL0     H 5738   8.090   6.653   2.224  0.3604 -0.1374 -0.1910
   43MOL0     H 5739   8.301   6.566   2.130  0.8024  2.6972 -0.4396
   43MOL0     H 5740   8.491   6.508   2.068 -3.7151  2.6064  2.1183
   43MOL0     H 5741   8.558   6.655   2.101 -0.2025 -0.5185 -1.8009
   43MOL0     H 5742   8.716   6.519   2.000 -1.7111  0.0227 -0.6250
   43MOL0     H 5743   8.699   6.386   2.123  0.5871 -0.3332 -1.3292
   43MOL0     H 5744   8.786   6.526   2.303 -1.1923  0.0872  0.3232
   43MOL0     H 5745   8.796   6.672   2.212 -0.8850  0.1954  3.0277
   43MOL0     H 5746   8.967   6.434   2.140  0.3929 -0.3694  1.8678
   43MOL0     H 5747   8.930   6.556   2.023 -3.3361 -2.0166  0.4647
   43MOL0     H 5748   9.029   6.729   2.216  2.5450  0.3294  2.3927
   43MOL0     H 5749   9.050   6.587   2.307  0.0615 -1.5161 -0.7274
   43MOL0     H 5750   9.206   6.497   2.132 -0.5233 -0.5843  0.0370
   43MOL0     H 5751   9.170   6.643   2.027 -1.4464 -1.5670 -0.3474
   43MOL0     H 5752   9.396   6.634   2.145  0.0863 -0.4942 -1.1217
   43MOL0     H 5753   9.305   6.608   2.296 -2.2345  4.2697  2.3884
   43MOL0     H 5754   9.260   6.841   2.105  0.0587  2.0330  0.1316
   43MOL0     H 5755   9.222   6.832   2.278 -2.1783  1.2545 -1.9181
   43MOL0     H 5756   9.447   6.857   2.455  0.6154  0.2795  0.2321
   43MOL0     H 5757   9.650   7.090   2.502  0.9167 -0.6813  3.1831
   43MOL0     H 5758   9.713   6.930   2.523 -1.5613 -0.3519 -0.2815
   43MOL0     H 5759   9.873   6.989   2.328 -0.0200 -0.7185 -0.6170
   43MOL0     H 5760   9.811   7.155   2.341 -0.5959  2.1486  3.8130
   43MOL0     H 5761   9.947   7.009   2.569 -0.0453 -1.9814 -2.5932
   43MOL0     H 5762   9.879   7.177   2.578 -1.1829  1.1813 -1.9016
   43MOL0     H 5763  10.107   7.203   2.539  0.4540  0.7297 -0.8557
   43MOL0     H 5764  10.030   7.220   2.378 -0.8917  1.5841  0.4476
   43MOL0     H 5765  10.231   7.097   2.674 -2.1370  0.3258 -0.9479
   43MOL0     H 5766  10.437   7.006   2.765 -0.6357  0.0820  0.1660
   43MOL0     H 5767  10.737   6.765   2.893  1.4965  0.0169  2.8990
   43MOL0     H 5768  10.976   6.682   2.949 -0.8074  0.0323  1.4312
   43MOL0     H 5769  11.276   6.787   2.668  1.5986  0.8669  0.1228
   43MOL0     H 5770  11.348   6.888   2.792  0.8596  0.0959 -1.2415
   43MOL0     H 5771  11.496   6.723   2.872  1.7002 -0.8425 -0.9999
   43MOL0     H 5772  11.400   6.590   2.800  0.9076 -1.0359 -0.8879
   43MOL0     H 5773  11.549   6.573   2.640 -0.9515  0.0611 -0.0850
   43MOL0     H 5774  11.470   6.701   2.567 -1.7816 -0.8390  0.3249
   43MOL0     H 5775  11.701   6.710   2.766 -5.4661 -0.6923  3.3604
   43MOL0     H 5776  11.628   6.859   2.702 -1.0282 -0.6526  2.1645
   43MOL0     H 5777  11.678   6.835   2.476  0.2405  0.0166 -0.3113
   43MOL0     H 5778  11.749   6.679   2.495  2.0246 -2.0371  4.6298
   43MOL0     H 5779  11.913   6.882   2.487  0.5821 -2.4767 -0.0516
   43MOL0     H 5780  11.848   6.916   2.643 -0.3079  1.2327 -0.6862
   43MOL0     H 5781  11.937   6.637   2.600  1.0663  0.6721 -1.2327
   43MOL0     H 5782  11.973   6.749   2.740 -2.5114  1.7025  0.2854
   43MOL0     H 5783  12.104   6.772   2.450  3.6497  0.9074  0.0932
   43MOL0     H 5784  12.124   6.872   2.593 -3.7262  0.4916  0.7222
   43MOL0     H 5785  11.141   6.955   2.679 -0.0598 -0.8418 -1.7026
   43MOL0     H 5786  10.911   7.039   2.612  3.3762  0.9990  0.2249
   43MOL0     H 5787  10.498   6.787   2.395  1.9918 -1.2392  0.7465
   43MOL0     H 5788  10.289   6.884   2.299  0.1337 -1.9816 -0.1816
   43MOL0     H 5789   8.502   6.627   2.503 -0.7167 -2.9965  0.8019
   43MOL0     H 5790   8.291   6.709   2.613 -0.7626  0.8510  0.2643
   43MOL0     H 5791   7.911   7.073   2.468  2.0848 -0.7576  1.8959
   43MOL0     H 5792   7.713   7.148   2.598 -0.9412 -0.2191 -0.4034
   43MOL0     H 5793   7.573   7.173   2.781  0.2694  2.4527 -0.8711
   43MOL0     H 5794   7.420   7.124   2.830  0.3447  0.6194  0.0172
   43MOL0     H 5795   7.502   7.214   2.542 -0.5784  2.0347  0.5446
   43MOL0     H 5796   7.367   7.270   2.656 -0.1172  0.4082 -1.1333
   43MOL0     H 5797   7.251   7.059   2.590 -1.1265  0.8511 -0.5827
   43MOL0     H 5798   7.382   7.023   2.472 -1.6851 -1.2624  0.1892
   43MOL0     H 5799   7.196   7.266   2.472 -0.1623 -0.4248  1.7259
   43MOL0     H 5800   7.331   7.256   2.363 -0.5803 -0.3944 -1.4885
   43MOL0     H 5801   7.084   6.958   2.190  0.3981 -2.8352  3.3060
   43MOL0     H 5802   7.612   6.752   2.686 -2.1869  3.4956  1.5156
   43MOL0     H 5803   7.835   6.567   2.615 -2.0583 -0.5421 -0.0934
   43MOL0     H 5804   7.683   6.608   2.521 -1.5873  1.0118  2.8140
   43MOL0     H 5805   7.847   6.616   2.447 -1.1826  1.1383 -0.5963
   44MOL0     O 5806   1.938   6.842   5.696 -0.0478  0.7630 -0.5775
   44MOL0     C 5807   1.950   6.911   5.795  0.8871 -0.1229 -0.6112
   44MOL0     O 5808   1.859   6.925   5.893  0.1991 -0.6728  0.4638
   44MOL0     C 5809   1.733   6.866   5.867  0.5499 -0.5698 -0.3108
   44MOL0     C 5810   1.721   6.728   5.887 -0.7044 -0.9001  0.3472
   44MOL0     C 5811   1.603   6.664   5.869 -0.4088 -0.4870 -0.3735
   44MOL0     C 5812   1.488   6.730   5.835 -0.4136 -0.3708 -0.1086
   44MOL0     O 5813   1.373   6.655   5.806 -0.6570 -0.6247  0.4685
   44MOL0     C 5814   1.246   6.701   5.772  0.1060  0.6911  0.5920
   44MOL0     C 5815   1.147   6.586   5.805  0.0149 -0.1712 -0.7085
   44MOL0     C 5816   1.176   6.533   5.937  0.6976  0.4957 -0.6580
   44MOL0     C 5817   1.073   6.418   5.959 -0.4624  0.4897 -0.0701
   44MOL0     C 5818   1.114   6.344   6.089 -0.4155 -0.3956  0.4952
   44MOL0     C 5819   1.079   6.404   6.216  0.1367 -0.2444  0.3292
   44MOL0     C 5820   1.112   6.313   6.324 -0.7690 -0.7748 -0.1443
   44MOL0     C 5821   1.081   6.380   6.459 -0.3552  0.7723 -0.2508
   44MOL0     N 5822   0.950   6.446   6.465 -0.0549  0.0898  0.3019
   44MOL0     C 5823   0.824   6.383   6.471 -0.4776  0.2639  0.0090
   44MOL0     C 5824   0.737   6.474   6.508 -0.1606  0.2752  0.3632
   44MOL0     C 5825   0.592   6.448   6.540  0.0417  0.1692  0.4462
   44MOL0     C 5826   0.522   6.352   6.445  0.8832 -0.2319  0.3468
   44MOL0     C 5827   0.512   6.428   6.304  1.2451  1.0507  0.0548
   44MOL0     C 5828   0.435   6.338   6.201 -0.6134  0.4971  0.5051
   44MOL0     O 5829   0.470   6.365   6.070  1.1758 -0.6332  1.1585
   44MOL0     C 5830   0.577   6.309   5.998 -0.0245 -0.1670  0.8451
   44MOL0     C 5831   0.684   6.239   6.061 -0.7741  0.3175 -0.3100
   44MOL0     C 5832   0.786   6.190   5.973 -0.2646 -0.4718 -0.2032
   44MOL0     C 5833   0.783   6.221   5.836 -0.2320 -0.0185 -0.7762
   44MOL0     C 5834   0.889   6.167   5.751 -0.7539 -0.4123  0.1864
   44MOL0     O 5835   0.856   6.165   5.620  0.2588 -0.3435 -0.4646
   44MOL0     C 5836   0.944   6.123   5.517 -0.2159 -0.0386 -0.0630
   44MOL0     C 5837   0.872   6.066   5.412 -0.0831  0.1369 -0.1457
   44MOL0     C 5838   0.947   6.028   5.298 -0.0310 -0.5153  0.2548
   44MOL0     C 5839   1.082   6.041   5.281  0.2153  0.0611 -0.4082
   44MOL0     O 5840   1.147   5.997   5.165  0.1322  0.1023 -0.3977
   44MOL0     C 5841   1.069   5.938   5.059  0.3417 -0.7386 -0.5433
   44MOL0     C 5842   1.149   5.929   4.932  0.3326 -0.3266 -0.7172
   44MOL0     C 5843   1.267   5.836   4.961 -0.1367  0.2681 -0.4289
   44MOL0     C 5844   1.326   5.804   4.825 -0.2950 -1.7812 -0.1851
   44MOL0     C 5845   1.449   5.708   4.828  0.3680 -0.1262 -0.0515
   44MOL0     C 5846   1.553   5.757   4.928  0.2064 -0.3497  0.8367
   44MOL0     C 5847   1.672   5.673   4.922  0.5240 -0.7086 -0.2699
   44MOL0     C 5848   1.765   5.708   4.813  0.2209  0.0442 -0.2474
   44MOL0    Cl 5849   1.942   5.675   4.836 -0.5259  0.4213 -0.5138
   44MOL0     C 5850   1.147   6.112   5.388  0.2126  0.0366  0.0462
   44MOL0     C 5851   1.083   6.154   5.506 -0.6292  0.0473  0.3793
   44MOL0     O 5852   0.983   6.103   5.801  0.6965  0.0810 -0.1033
   44MOL0     C 5853   0.690   6.309   5.781  0.1680  0.0848 -0.9898
   44MOL0     C 5854   0.580   6.343   5.856 -0.2736 -0.6901  0.2405
   44MOL0     N 5855   0.798   6.593   6.526 -1.0087  0.7734 -0.2045
   44MOL0     N 5856   0.931   6.583   6.491  0.0169  0.0242  0.3164
   44MOL0     C 5857   1.491   6.867   5.804 -0.1202 -0.0921 -0.5746
   44MOL0     C 5858   1.619   6.940   5.828  0.3096 -0.7454  0.0346
   44MOL0     C 5859   2.081   6.982   5.795 -0.9878  0.4992 -0.5475
   44MOL0     C 5860   2.102   7.083   5.896  0.1434 -0.7533  0.0292
   44MOL0     C 5861   2.222   7.147   5.910  0.2524 -0.4605  0.2179
   44MOL0     C 5862   2.329   7.112   5.826 -0.4894  0.8220  0.0163
   44MOL0     O 5863   2.444   7.185   5.827  0.9804  0.5455  0.4327
   44MOL0     C 5864   2.547   7.117   5.910  1.1478 -1.6211 -0.5404
   44MOL0     C 5865   2.678   7.153   5.841 -0.5197 -0.3075 -0.3432
   44MOL0     C 5866   2.684   7.114   5.690  0.5464  0.4036 -0.1840
   44MOL0     C 5867   2.710   7.240   5.601 -0.0239 -0.3378  0.1359
   44MOL0     C 5868   2.848   7.287   5.615  0.4508 -0.3471 -0.5998
   44MOL0     C 5869   2.953   7.330   5.629 -0.8531  0.1299 -0.3514
   44MOL0     C 5870   2.312   7.016   5.727  0.1986  0.7310 -0.9015
   44MOL0     C 5871   2.190   6.951   5.708 -0.7321 -0.4793 -0.6000
   44MOL0     C 5872   2.188   6.848   5.597  0.2170 -0.7054  0.4848
   44MOL0     H 5873   1.805   6.669   5.923 -0.8761 -2.5640 -1.8241
   44MOL0     H 5874   1.594   6.559   5.891  1.5044 -0.6831 -0.4036
   44MOL0     H 5875   1.223   6.791   5.830 -3.3829  0.1148  0.3235
   44MOL0     H 5876   1.241   6.709   5.663  1.8728  0.7204  0.4719
   44MOL0     H 5877   1.164   6.499   5.740  2.7466 -2.5936  2.8641
   44MOL0     H 5878   1.041   6.610   5.796 -0.2061 -0.7812  0.2260
   44MOL0     H 5879   1.156   6.605   6.016  0.1950 -0.5190  0.1697
   44MOL0     H 5880   1.275   6.495   5.962 -0.4469 -0.5852  2.8246
   44MOL0     H 5881   0.971   6.455   5.975 -0.9747 -1.0220  0.3452
   44MOL0     H 5882   1.074   6.343   5.879 -0.3730  0.3612  0.0530
   44MOL0     H 5883   1.053   6.253   6.079 -1.0387  0.0745 -0.0168
   44MOL0     H 5884   1.222   6.325   6.087 -0.7056 -2.2797  0.1706
   44MOL0     H 5885   1.133   6.500   6.222  2.0411 -1.0510 -2.1534
   44MOL0     H 5886   0.971   6.424   6.217  0.0110  0.0629  5.2159
   44MOL0     H 5887   1.218   6.287   6.320 -1.1218 -2.1568 -3.4134
   44MOL0     H 5888   1.052   6.221   6.322  1.7887 -2.5672  0.0459
   44MOL0     H 5889   1.073   6.303   6.537 -0.5060  0.3835 -0.6460
   44MOL0     H 5890   1.159   6.448   6.494  2.3878 -2.5055  0.6141
   44MOL0     H 5891   0.798   6.282   6.440  0.6204  0.7110 -2.6110
   44MOL0     H 5892   0.596   6.403   6.639  3.1333 -0.7625  0.0051
   44MOL0     H 5893   0.537   6.542   6.550  2.1801  1.3589  1.8142
   44MOL0     H 5894   0.578   6.258   6.438  2.3800  0.7207 -1.2537
   44MOL0     H 5895   0.420   6.336   6.481  0.4847 -0.1442 -0.7108
   44MOL0     H 5896   0.608   6.445   6.255  0.0585 -0.3043 -3.0194
   44MOL0     H 5897   0.460   6.524   6.311 -0.5529  0.3787 -2.5290
   44MOL0     H 5898   0.327   6.349   6.217 -0.7092 -0.4923  0.5963
   44MOL0     H 5899   0.456   6.232   6.215 -1.3125  0.5660  2.4190
   44MOL0     H 5900   0.697   6.220   6.168  1.6798 -3.0550 -1.0363
   44MOL0     H 5901   0.862   6.129   6.020 -1.6547 -0.4356  2.2886
   44MOL0     H 5902   0.769   6.035   5.404  0.5729 -1.6876 -3.4724
   44MOL0     H 5903   0.884   5.993   5.217 -1.2099  1.2193  0.3719
   44MOL0     H 5904   1.025   5.841   5.086 -3.8029  1.2900  0.9323
   44MOL0     H 5905   0.982   6.002   5.043  1.1033  0.7733  1.0044
   44MOL0     H 5906   1.093   5.885   4.848 -0.0933 -1.1574 -0.0108
   44MOL0     H 5907   1.176   6.029   4.896 -0.1205  0.6135  1.4196
   44MOL0     H 5908   1.342   5.887   5.022 -0.7302 -0.9546  1.4446
   44MOL0     H 5909   1.232   5.742   5.005  0.2419 -1.2103 -3.0624
   44MOL0     H 5910   1.365   5.898   4.784  0.2168 -1.1930  1.5655
   44MOL0     H 5911   1.243   5.771   4.763 -1.3859 -0.8149  0.7006
   44MOL0     H 5912   1.496   5.712   4.729  0.7757  1.2472  0.1774
   44MOL0     H 5913   1.430   5.602   4.844 -2.9064  0.4819  0.6655
   44MOL0     H 5914   1.582   5.862   4.935 -0.8294 -0.0022  0.1959
   44MOL0     H 5915   1.506   5.746   5.026 -1.0039 -0.3932  0.2756
   44MOL0     H 5916   1.649   5.567   4.935 -0.6212 -0.3778  0.5644
   44MOL0     H 5917   1.721   5.697   5.017  0.4550 -0.6419 -0.2509
   44MOL0     H 5918   1.727   5.666   4.720 -0.2991 -1.7019  0.7184
   44MOL0     H 5919   1.770   5.816   4.796 -0.4413 -0.1327 -1.6890
   44MOL0     H 5920   1.253   6.120   5.369  0.1909 -2.6225 -1.7862
   44MOL0     H 5921   1.151   6.206   5.573  0.3370 -2.1007  1.1338
   44MOL0     H 5922   0.708   6.347   5.681  1.1975  2.6082  0.0646
   44MOL0     H 5923   0.503   6.414   5.829 -0.7927 -1.2529  0.2399
   44MOL0     H 5924   1.403   6.915   5.765  0.8512 -0.3626 -3.3082
   44MOL0     H 5925   1.612   7.045   5.803  0.5871 -0.6795  0.2295
   44MOL0     H 5926   2.021   7.105   5.966 -0.5531  0.2804 -1.0516
   44MOL0     H 5927   2.215   7.232   5.978 -0.1519  1.6953 -2.3586
   44MOL0     H 5928   2.541   7.009   5.924  0.6806 -1.6639 -1.0009
   44MOL0     H 5929   2.558   7.155   6.011  0.0555 -3.6313  0.4066
   44MOL0     H 5930   2.762   7.101   5.888  0.3554  0.7059 -0.7530
   44MOL0     H 5931   2.699   7.260   5.849 -1.1082 -0.2552  0.6842
   44MOL0     H 5932   2.596   7.056   5.660  0.4899 -0.7612  2.0311
   44MOL0     H 5933   2.777   7.058   5.679  0.4905  0.1958  0.3492
   44MOL0     H 5934   2.706   7.213   5.495 -1.0956  1.9752 -0.4573
   44MOL0     H 5935   2.638   7.319   5.622  0.1599 -0.6488  2.1242
   44MOL0     H 5936   3.048   7.378   5.631 -2.8905  4.7902 -1.7136
   44MOL0     H 5937   2.392   6.994   5.658 -0.3005  0.9162 -1.5460
   44MOL0     H 5938   2.287   6.834   5.552  1.7110 -1.4573  3.7161
   44MOL0     H 5939   2.158   6.752   5.640  0.9811 -0.2654  2.0767
   44MOL0     H 5940   2.120   6.879   5.518 -0.2863 -1.7539  0.4952
   45MOL0     O 5941   2.957  10.219   0.363  0.1570  0.2192 -0.4227
   45MOL0     C 5942   3.015  10.155   0.271  0.1546  0.1050 -0.4873
   45MOL0     O 5943   3.129  10.200   0.207  0.2168  0.0723 -0.5914
   45MOL0     C 5944   3.195  10.305   0.263  0.0200 -0.2129 -0.2211
   45MOL0     C 5945   3.183  10.430   0.205 -0.2226 -0.1335 -0.6904
   45MOL0     C 5946   3.248  10.541   0.252  0.4770 -0.0429 -0.4272
   45MOL0     C 5947   3.319  10.531   0.376  0.2956 -0.0124  1.3473
   45MOL0     O 5948   3.391  10.633   0.424 -0.1046 -0.4696  0.2958
   45MOL0     C 5949   3.395  10.766   0.369  0.1041 -0.1641 -0.6587
   45MOL0     C 5950   3.464  10.871   0.452 -0.4689  0.3201  0.0077
   45MOL0     C 5951   3.619  10.860   0.447  0.0323  0.0615  0.1285
   45MOL0     C 5952   3.685  10.983   0.508  0.2423  0.3913  0.1759
   45MOL0     C 5953   3.840  10.971   0.520 -0.5316  0.8237  0.5514
   45MOL0     C 5954   3.901  11.093   0.594  0.2837  0.5835  0.5432
   45MOL0     C 5955   4.044  11.053   0.644 -0.1135 -0.3141  0.6128
   45MOL0     C 5956   4.044  10.950   0.753  0.1886 -0.0603  0.4103
   45MOL0     N 5957   4.172  10.943   0.832  0.6046 -0.1457  0.4910
   45MOL0     C 5958   4.251  10.833   0.826 -0.2747 -0.5168 -0.1829
   45MOL0     C 5959   4.355  10.849   0.916  0.4209  0.3045  0.1667
   45MOL0     C 5960   4.469  10.762   0.944 -0.8526  0.5828  0.1936
   45MOL0     C 5961   4.597  10.825   0.895  0.0602  0.0679  0.5794
   45MOL0     C 5962   4.720  10.737   0.904 -0.4994 -0.1286  0.1670
   45MOL0     C 5963   4.840  10.803   0.831 -0.1005 -0.0755  0.1222
   45MOL0     O 5964   4.895  10.893   0.929  0.1513 -0.0196  0.0030
   45MOL0     C 5965   5.022  10.946   0.898  0.1090  0.4183  0.9806
   45MOL0     C 5966   5.106  10.914   0.790  0.0130 -0.0222  0.4098
   45MOL0     C 5967   5.235  10.970   0.783  0.8797  0.3264 -0.1815
   45MOL0     C 5968   5.286  11.045   0.892  0.0215  0.0175 -0.8095
   45MOL0     C 5969   5.424  11.106   0.897  0.2064 -0.0487  0.2437
   45MOL0     O 5970   5.471  11.128   1.031  0.0312  0.2794  0.0064
   45MOL0     C 5971   5.599  11.166   1.056 -0.5877 -0.6169  0.4281
   45MOL0     C 5972   5.687  11.236   0.975  0.1730  0.0871  0.2027
   45MOL0     C 5973   5.819  11.255   1.020 -0.4760 -0.8256 -0.1103
   45MOL0     C 5974   5.870  11.206   1.146 -0.4172 -0.0383  0.2049
   45MOL0     O 5975   5.998  11.208   1.190 -0.1822  0.1468  0.1915
   45MOL0     C 5976   6.096  11.283   1.109 -0.6437  0.5295 -0.8685
   45MOL0     C 5977   6.240  11.244   1.159  0.1187  0.4467  0.7786
   45MOL0     C 5978   6.270  11.093   1.117 -1.2349  0.4332  0.2868
   45MOL0     C 5979   6.405  11.056   1.183  0.0806  0.5057  0.2229
   45MOL0     C 5980   6.398  10.909   1.234 -0.6866  0.1555 -0.2742
   45MOL0     C 5981   6.537  10.871   1.295  0.4430  0.3707 -0.0353
   45MOL0     C 5982   6.536  10.733   1.365 -0.1743 -1.0256 -0.2624
   45MOL0     C 5983   6.674  10.684   1.420 -0.1443 -0.0688 -0.1116
   45MOL0    Cl 5984   6.772  10.680   1.270  0.3565 -0.0313  0.0711
   45MOL0     C 5985   5.771  11.146   1.230  0.2075 -0.5905 -0.4641
   45MOL0     C 5986   5.640  11.128   1.187  0.0750  0.3873 -0.3183
   45MOL0     O 5987   5.480  11.131   0.793  0.5150 -0.1586 -1.0410
   45MOL0     C 5988   5.202  11.069   1.000  0.0685  0.0747  0.3351
   45MOL0     C 5989   5.071  11.018   1.002 -0.2856 -0.7297 -0.1617
   45MOL0     N 5990   4.314  10.964   0.982 -0.2016 -0.2721 -1.2017
   45MOL0     N 5991   4.215  11.026   0.933  0.5508 -0.2068 -0.3701
   45MOL0     C 5992   3.324  10.403   0.442  0.3108 -0.8050 -0.8551
   45MOL0     C 5993   3.271  10.284   0.379  0.6569  0.3579 -0.8268
   45MOL0     C 5994   2.938  10.037   0.198 -0.3376 -0.1569  0.3425
   45MOL0     C 5995   2.991   9.984   0.084  0.0006 -0.4023 -0.0178
   45MOL0     C 5996   2.937   9.867   0.026  0.0974 -0.5033  0.7184
   45MOL0     C 5997   2.823   9.810   0.077  0.3592  0.0881  0.2706
   45MOL0     O 5998   2.759   9.709   0.013 -0.2765  0.5748 -0.1037
   45MOL0     C 5999   2.618   9.677   0.040 -0.3677 -0.5750  0.6869
   45MOL0     C 6000   2.552   9.601  -0.074 -0.1984 -0.4500 -0.2154
   45MOL0     C 6001   2.538   9.687  -0.201 -0.0667 -0.3314 -0.2432
   45MOL0     C 6002   2.502   9.602  -0.325 -0.3232 -0.4324 -0.3569
   45MOL0     C 6003   2.629   9.574  -0.396  0.1371 -0.1855  0.7644
   45MOL0     C 6004   2.725   9.542  -0.462 -0.1113  1.3791 -0.2251
   45MOL0     C 6005   2.779   9.863   0.197  0.2093 -0.6311  0.8257
   45MOL0     C 6006   2.831   9.974   0.260 -0.7114 -0.0966  0.4206
   45MOL0     C 6007   2.767  10.007   0.387 -0.2396 -0.2856  0.7293
   45MOL0     H 6008   3.123  10.436   0.115 -2.7332 -3.9710  0.4598
   45MOL0     H 6009   3.244  10.643   0.215 -0.1591 -0.1415 -0.6526
   45MOL0     H 6010   3.430  10.763   0.265  1.7746 -0.0277 -0.1376
   45MOL0     H 6011   3.292  10.803   0.364  0.0811 -0.2095 -0.5151
   45MOL0     H 6012   3.428  10.862   0.555 -0.4146  1.4176  0.1343
   45MOL0     H 6013   3.433  10.971   0.421 -0.4975  0.7449  1.3433
   45MOL0     H 6014   3.660  10.849   0.346 -0.0290  2.7251 -0.2510
   45MOL0     H 6015   3.649  10.778   0.513  0.5356  2.0891  2.5468
   45MOL0     H 6016   3.660  11.072   0.450  1.0564  1.8070  1.8961
   45MOL0     H 6017   3.639  11.012   0.603 -0.0790  0.7475 -0.0824
   45MOL0     H 6018   3.851  10.877   0.573 -1.7787  0.7779  0.7560
   45MOL0     H 6019   3.893  10.951   0.426 -0.2830  2.2971  0.3488
   45MOL0     H 6020   3.908  11.180   0.528  0.6837 -1.3954 -2.1858
   45MOL0     H 6021   3.834  11.123   0.675  0.2670 -0.3652  0.8893
   45MOL0     H 6022   4.087  11.144   0.686  1.4568 -1.3764  1.4438
   45MOL0     H 6023   4.109  11.029   0.559 -0.5737 -0.2742  0.2473
   45MOL0     H 6024   3.967  10.982   0.824  1.9578  2.4599  1.3289
   45MOL0     H 6025   4.021  10.850   0.715  1.6227 -0.3328  0.2090
   45MOL0     H 6026   4.231  10.759   0.750  0.1113 -1.5224  0.6705
   45MOL0     H 6027   4.485  10.755   1.052  0.4247 -0.8022 -0.0552
   45MOL0     H 6028   4.462  10.664   0.897  1.4755 -0.1282  1.1903
   45MOL0     H 6029   4.586  10.867   0.794  1.9517  2.4080  1.2493
   45MOL0     H 6030   4.624  10.905   0.965  2.8524  0.4843 -0.8360
   45MOL0     H 6031   4.692  10.648   0.847 -1.9766  1.2367 -1.3454
   45MOL0     H 6032   4.733  10.710   1.009  0.3550 -1.3478 -0.2319
   45MOL0     H 6033   4.821  10.859   0.739  1.1652  2.0912  1.1054
   45MOL0     H 6034   4.910  10.720   0.816  1.0135  0.6868  1.0186
   45MOL0     H 6035   5.074  10.843   0.714  0.4058  1.3385 -1.0710
   45MOL0     H 6036   5.310  10.955   0.706  0.5686 -0.4721 -0.3400
   45MOL0     H 6037   5.638  11.282   0.890 -1.9204  0.5801  1.6128
   45MOL0     H 6038   5.875  11.323   0.956 -1.4457 -0.5622 -0.6991
   45MOL0     H 6039   6.095  11.257   1.003  2.4874  0.5776 -0.9848
   45MOL0     H 6040   6.091  11.392   1.119 -0.4865  0.3860  1.1981
   45MOL0     H 6041   6.313  11.304   1.103 -1.3576 -1.2680 -3.3958
   45MOL0     H 6042   6.247  11.268   1.265  2.0865  4.1561 -0.0086
   45MOL0     H 6043   6.198  11.028   1.167  1.1865 -2.0301  0.8211
   45MOL0     H 6044   6.259  11.072   1.010  0.5210  0.1283  0.1355
   45MOL0     H 6045   6.424  11.119   1.270  0.4108  0.3130  0.2940
   45MOL0     H 6046   6.492  11.072   1.118 -0.1458  2.5660  0.3722
   45MOL0     H 6047   6.374  10.836   1.156  2.1026  0.9494 -2.0134
   45MOL0     H 6048   6.332  10.901   1.321  0.0026 -1.1770  0.1564
   45MOL0     H 6049   6.614  10.877   1.218 -0.1834  0.7756 -0.6459
   45MOL0     H 6050   6.566  10.948   1.367  1.6784  1.6222 -1.8027
   45MOL0     H 6051   6.495  10.652   1.304 -0.5772  0.8897 -2.7253
   45MOL0     H 6052   6.474  10.757   1.452  0.9533 -0.5758  0.4428
   45MOL0     H 6053   6.719  10.753   1.493 -0.2211 -0.1373 -0.0010
   45MOL0     H 6054   6.665  10.586   1.467  0.9804  0.0471  0.3798
   45MOL0     H 6055   5.808  11.123   1.330  0.1635 -1.0494 -0.5555
   45MOL0     H 6056   5.570  11.087   1.259  0.4321  0.9388  0.3559
   45MOL0     H 6057   5.241  11.118   1.088 -1.5132  0.3916  0.8974
   45MOL0     H 6058   5.030  11.029   1.102  1.2843 -0.1293  0.4578
   45MOL0     H 6059   3.372  10.416   0.539  0.6644  4.2701 -1.4681
   45MOL0     H 6060   3.292  10.186   0.423  0.4479  1.5849  2.3091
   45MOL0     H 6061   3.088  10.018   0.048 -0.2445 -0.1939 -0.4906
   45MOL0     H 6062   2.972   9.842  -0.073 -3.0771  3.3568 -1.6690
   45MOL0     H 6063   2.560   9.767   0.064  2.0643  1.3078 -0.0422
   45MOL0     H 6064   2.598   9.616   0.129 -0.5623  0.5118  1.4059
   45MOL0     H 6065   2.453   9.561  -0.052  0.1897 -0.2051  2.1649
   45MOL0     H 6066   2.605   9.507  -0.093 -1.4837 -1.5709  1.5438
   45MOL0     H 6067   2.627   9.746  -0.222  0.1406  0.5603  2.6945
   45MOL0     H 6068   2.467   9.769  -0.187 -0.3596  0.8212 -5.9389
   45MOL0     H 6069   2.439   9.515  -0.304 -0.3569 -0.8877 -2.2191
   45MOL0     H 6070   2.453   9.669  -0.395  1.3912 -1.1774 -2.3847
   45MOL0     H 6071   2.817   9.504  -0.503  1.0878  1.7132  2.0204
   45MOL0     H 6072   2.694   9.815   0.243 -1.4982  1.0261 -0.4634
   45MOL0     H 6073   2.841  10.004   0.467  3.0187  2.4463 -1.8887
   45MOL0     H 6074   2.730  10.110   0.381  1.0128  0.1029 -1.7157
   45MOL0     H 6075   2.680   9.944   0.409 -0.7896  0.6165  1.1938
   46MOL0     O 6076   2.931   6.244   9.422 -0.1129 -0.3101 -0.4829
   46MOL0     C 6077   2.907   6.177   9.517 -0.3535  0.0216 -0.3689
   46MOL0     O 6078   3.005   6.113   9.597 -0.3040  0.9175  0.8124
   46MOL0     C 6079   3.137   6.145   9.599 -0.6295  0.1713 -0.9379
   46MOL0     C 6080   3.223   6.046   9.658  0.5991  0.7459  0.3918
   46MOL0     C 6081   3.359   6.063   9.651  0.2777 -0.3419 -0.4594
   46MOL0     C 6082   3.414   6.168   9.589  0.4796 -0.0587  0.5782
   46MOL0     O 6083   3.553   6.178   9.611 -0.0160  0.0933 -0.1526
   46MOL0     C 6084   3.618   6.293   9.567  0.1581 -0.3431  0.9612
   46MOL0     C 6085   3.768   6.276   9.596 -0.5805 -0.4435  0.2054
   46MOL0     C 6086   3.811   6.216   9.733 -0.4009  0.3496 -0.6474
   46MOL0     C 6087   3.938   6.282   9.794 -0.0424  0.0444  0.1340
   46MOL0     C 6088   3.950   6.222   9.936  0.0693 -0.7065  0.0710
   46MOL0     C 6089   4.079   6.280   9.998 -0.0335 -0.1730 -1.1400
   46MOL0     C 6090   4.084   6.224  10.134  0.4559 -0.4923 -0.4559
   46MOL0     C 6091   4.196   6.275  10.219 -0.5683 -0.0540 -0.6793
   46MOL0     N 6092   4.320   6.299  10.141  0.0674 -0.7160  0.1177
   46MOL0     C 6093   4.431   6.221  10.138  0.8090  0.1730  0.0257
   46MOL0     C 6094   4.535   6.294  10.093 -0.0787 -0.1191  0.7954
   46MOL0     C 6095   4.676   6.247  10.090 -0.0653 -0.5410  0.3387
   46MOL0     C 6096   4.737   6.293  10.220 -0.5786  0.3306  0.0020
   46MOL0     C 6097   4.877   6.244  10.249 -0.6726 -0.2964 -0.3379
   46MOL0     C 6098   4.979   6.273  10.138 -0.3839  0.1330 -0.6976
   46MOL0     O 6099   5.022   6.412  10.130  0.0454 -0.5878  0.2129
   46MOL0     C 6100   5.131   6.463  10.198 -0.2803 -0.2518  0.3893
   46MOL0     C 6101   5.187   6.583  10.143 -0.2954  0.6530 -0.3292
   46MOL0     C 6102   5.304   6.637  10.194 -0.3273 -0.4828 -0.0222
   46MOL0     C 6103   5.374   6.575  10.291 -0.2289 -0.6679 -0.5270
   46MOL0     C 6104   5.506   6.629  10.336 -0.1672  0.2325 -0.2078
   46MOL0     O 6105   5.528   6.755  10.312 -0.4785  0.0801 -0.0267
   46MOL0     C 6106   5.604   6.833  10.408 -0.3320  0.6529 -0.3738
   46MOL0     C 6107   5.638   6.958  10.367  0.8260  0.2312  0.5605
   46MOL0     C 6108   5.731   7.039  10.442 -0.2389 -0.4222 -0.6103
   46MOL0     C 6109   5.781   6.992  10.564 -0.0179 -0.0247  0.3234
   46MOL0     O 6110   5.867   7.061  10.645  0.4796 -0.4832  0.0567
   46MOL0     C 6111   5.969   7.135  10.572  0.6539 -0.4202  1.0096
   46MOL0     C 6112   6.078   7.164  10.666 -0.2095  0.2425  1.0943
   46MOL0     C 6113   6.132   7.039  10.737 -0.6861  0.4307  0.7471
   46MOL0     C 6114   6.268   7.059  10.806 -0.0965  0.0409  0.0349
   46MOL0     C 6115   6.371   7.051  10.691  0.2108  0.2180  0.9089
   46MOL0     C 6116   6.516   7.043  10.743 -0.2814  0.2808  0.2728
   46MOL0     C 6117   6.609   7.088  10.634  0.3207 -0.1207  0.7159
   46MOL0     C 6118   6.755   7.130  10.666  0.6410  0.1082 -0.2050
   46MOL0    Cl 6119   6.850   6.988  10.691 -0.2101  0.1410  0.2464
   46MOL0     C 6120   5.738   6.865  10.606 -0.1670 -0.0984  0.1076
   46MOL0     C 6121   5.650   6.788  10.535  0.0533 -0.3223  0.5783
   46MOL0     O 6122   5.593   6.550  10.372 -0.1589  0.6673  0.1693
   46MOL0     C 6123   5.309   6.471  10.358 -0.5724 -0.1497  0.9395
   46MOL0     C 6124   5.192   6.407  10.306 -0.3879 -0.3752 -0.6496
   46MOL0     N 6125   4.481   6.409  10.046 -0.4028 -0.6864  0.2296
   46MOL0     N 6126   4.353   6.414  10.068  0.3541 -0.3119 -0.1575
   46MOL0     C 6127   3.329   6.265   9.531 -0.6562  1.0667  0.5890
   46MOL0     C 6128   3.192   6.255   9.533 -0.1561 -0.1716 -0.2806
   46MOL0     C 6129   2.767   6.142   9.538 -1.2529 -0.0762 -0.4297
   46MOL0     C 6130   2.730   6.094   9.674  0.1049 -0.7012 -0.0914
   46MOL0     C 6131   2.608   6.055   9.713  0.4750  0.3508  0.1209
   46MOL0     C 6132   2.505   6.060   9.619  0.0863  0.2957  0.1697
   46MOL0     O 6133   2.381   5.999   9.639 -1.0811  0.3020  0.3132
   46MOL0     C 6134   2.329   5.954   9.763  0.5591  0.2032  0.5624
   46MOL0     C 6135   2.229   6.055   9.821 -0.2268 -0.4590  0.5748
   46MOL0     C 6136   2.275   6.206   9.817 -0.0748  0.0959 -0.2513
   46MOL0     C 6137   2.204   6.290   9.920 -0.1442  0.1819  0.3466
   46MOL0     C 6138   2.060   6.311   9.886 -0.6970 -0.2817  0.2378
   46MOL0     C 6139   1.947   6.337   9.862  0.5089 -0.4386  1.1127
   46MOL0     C 6140   2.535   6.111   9.490  0.1817  0.6619 -0.1673
   46MOL0     C 6141   2.658   6.150   9.450 -0.5619  0.7801 -0.7070
   46MOL0     C 6142   2.683   6.167   9.298 -0.0082 -0.8692 -0.0886
   46MOL0     H 6143   3.178   5.961   9.710 -1.0139 -0.8172 -3.2051
   46MOL0     H 6144   3.425   5.994   9.702 -1.6758 -0.8380  1.5072
   46MOL0     H 6145   3.600   6.317   9.462  1.4441 -0.3037  0.7315
   46MOL0     H 6146   3.581   6.371   9.634  1.6928 -0.9731  2.6468
   46MOL0     H 6147   3.819   6.370   9.570  0.9235 -0.9766  1.0802
   46MOL0     H 6148   3.802   6.203   9.522 -0.1071  0.1497 -0.1750
   46MOL0     H 6149   3.826   6.108   9.725  0.3128  0.2318  1.6272
   46MOL0     H 6150   3.724   6.238   9.796  1.5756 -1.1545  2.8437
   46MOL0     H 6151   4.023   6.252   9.732 -0.1504  0.3409 -0.1661
   46MOL0     H 6152   3.930   6.391   9.789  1.4900  0.1600 -0.2106
   46MOL0     H 6153   3.869   6.260   9.999  0.5816  2.8783 -1.2256
   46MOL0     H 6154   3.950   6.112   9.935  0.0252 -0.7041 -0.5002
   46MOL0     H 6155   4.173   6.263   9.944 -0.0751  1.3411 -1.7399
   46MOL0     H 6156   4.065   6.387  10.010  0.3372  0.0903 -2.7972
   46MOL0     H 6157   4.081   6.115  10.132 -3.0968 -0.6176  1.8430
   46MOL0     H 6158   3.991   6.248  10.188  0.7866  0.9290 -0.4765
   46MOL0     H 6159   4.162   6.372  10.256  4.2102  0.8570  2.1042
   46MOL0     H 6160   4.210   6.203  10.300 -1.0453  1.6345  0.9561
   46MOL0     H 6161   4.441   6.120  10.176  2.9857  0.9842  1.8358
   46MOL0     H 6162   4.668   6.138  10.084 -1.5953 -0.3857 -1.5807
   46MOL0     H 6163   4.725   6.299  10.007  0.6708 -0.1859  0.9843
   46MOL0     H 6164   4.734   6.402  10.233 -2.3076  0.2652  0.4897
   46MOL0     H 6165   4.677   6.250  10.301  1.1385  1.1586  1.8242
   46MOL0     H 6166   4.866   6.135  10.259 -4.1933  0.0703  1.1560
   46MOL0     H 6167   4.922   6.279  10.343 -0.2715  0.3939 -0.7791
   46MOL0     H 6168   4.949   6.234  10.040  2.5793  0.6813 -1.9424
   46MOL0     H 6169   5.071   6.217  10.154 -0.1105  0.2089 -1.9087
   46MOL0     H 6170   5.143   6.637  10.060 -0.1906  0.3741 -0.5687
   46MOL0     H 6171   5.333   6.732  10.150 -2.3373  0.4523  0.5181
   46MOL0     H 6172   5.582   6.997  10.282  1.0637  0.5946  0.5667
   46MOL0     H 6173   5.747   7.142  10.410 -0.6383 -0.8473 -2.2450
   46MOL0     H 6174   6.003   7.090  10.479  0.0556  1.7228 -0.3296
   46MOL0     H 6175   5.925   7.233  10.549  0.9767 -0.1895  1.3592
   46MOL0     H 6176   6.154   7.221  10.614  1.5565 -0.3623  2.8857
   46MOL0     H 6177   6.029   7.220  10.747 -0.0076  1.9182  0.1098
   46MOL0     H 6178   6.070   7.012  10.824  2.3471 -1.5391  2.4668
   46MOL0     H 6179   6.142   6.956  10.666 -1.3152 -0.2744  1.4551
   46MOL0     H 6180   6.297   6.992  10.887 -0.2304  0.9361  0.8425
   46MOL0     H 6181   6.278   7.160  10.848 -1.6221  1.9430 -3.6612
   46MOL0     H 6182   6.353   7.146  10.641 -1.3499  0.4130  1.7859
   46MOL0     H 6183   6.354   6.969  10.621 -0.4670  0.0131  1.2995
   46MOL0     H 6184   6.530   7.102  10.835  1.4334 -1.4851  1.2238
   46MOL0     H 6185   6.541   6.940  10.770 -0.8068  0.6703  2.4357
   46MOL0     H 6186   6.573   7.179  10.585  0.4321  0.3646  1.5331
   46MOL0     H 6187   6.609   7.007  10.560 -1.4083 -0.4853  1.0830
   46MOL0     H 6188   6.805   7.177  10.580  1.1755 -2.1087 -1.1863
   46MOL0     H 6189   6.760   7.199  10.751  2.3123  2.3453 -1.9656
   46MOL0     H 6190   5.759   6.836  10.708  0.4404  0.3860  0.1229
   46MOL0     H 6191   5.607   6.699  10.581 -2.8692  0.5765 -0.2106
   46MOL0     H 6192   5.357   6.436  10.449  1.4216  0.6839  0.2759
   46MOL0     H 6193   5.139   6.329  10.358 -1.5387  2.0067  1.9718
   46MOL0     H 6194   3.383   6.346   9.483 -0.9437  0.4588 -0.8272
   46MOL0     H 6195   3.130   6.328   9.481  0.2612 -0.5478 -1.3162
   46MOL0     H 6196   2.809   6.107   9.747  0.1369 -1.6010  0.0356
   46MOL0     H 6197   2.587   6.031   9.817  0.7958 -0.0854  0.0850
   46MOL0     H 6198   2.409   5.938   9.835  0.0861 -5.7891  0.2450
   46MOL0     H 6199   2.274   5.860   9.750 -2.1684  0.9468  5.0015
   46MOL0     H 6200   2.201   6.034   9.925  1.7039  0.8209  1.3994
   46MOL0     H 6201   2.142   6.059   9.755  0.0917  0.2249  0.1860
   46MOL0     H 6202   2.255   6.249   9.718 -1.7249  0.9473  0.4103
   46MOL0     H 6203   2.380   6.213   9.847  0.1716 -2.9533 -0.0813
   46MOL0     H 6204   2.221   6.239  10.014 -0.5102  0.4989  0.5882
   46MOL0     H 6205   2.253   6.388   9.918 -1.4867  0.8872  1.1831
   46MOL0     H 6206   1.844   6.364   9.846  0.7223 -1.2345 -2.1273
   46MOL0     H 6207   2.468   6.115   9.405 -1.2355  2.5322  0.9415
   46MOL0     H 6208   2.618   6.099   9.243  0.2869 -1.6462  0.5092
   46MOL0     H 6209   2.645   6.267   9.274 -0.6736 -1.2529 -0.6779
   46MOL0     H 6210   2.788   6.162   9.270  0.5623 -0.4751  1.8028
   47MOL0     O 6211   3.759   5.553   4.806 -0.3225 -0.4104 -0.2330
   47MOL0     C 6212   3.727   5.562   4.928  0.6761  0.2552  0.1785
   47MOL0     O 6213   3.805   5.594   5.037 -0.3620  0.4126  0.1962
   47MOL0     C 6214   3.940   5.603   5.032 -0.4598  0.1086  0.2222
   47MOL0     C 6215   4.025   5.552   4.935 -0.5264 -0.4215  0.4596
   47MOL0     C 6216   4.161   5.580   4.932  0.3804  0.2717  0.9510
   47MOL0     C 6217   4.219   5.658   5.027  0.5078  0.3166 -0.1493
   47MOL0     O 6218   4.354   5.688   5.034  0.0224 -0.6283  0.7149
   47MOL0     C 6219   4.440   5.597   4.960  0.4676 -0.2890  0.1747
   47MOL0     C 6220   4.587   5.625   4.992  0.1928 -0.3969  0.0981
   47MOL0     C 6221   4.651   5.730   4.908 -0.0371 -0.2800 -0.5458
   47MOL0     C 6222   4.808   5.734   4.925 -0.2466 -0.0354 -0.4307
   47MOL0     C 6223   4.868   5.843   4.838 -0.7909 -0.5733 -0.4552
   47MOL0     C 6224   5.024   5.857   4.866  0.5779  0.4494 -0.8886
   47MOL0     C 6225   5.116   5.781   4.768  0.6566 -0.7563  0.1233
   47MOL0     C 6226   5.163   5.880   4.652 -0.2882 -0.2844 -0.3070
   47MOL0     N 6227   5.311   5.875   4.639 -0.2288  0.2313 -0.7506
   47MOL0     C 6228   5.379   5.946   4.542 -0.4814  0.7293  0.0866
   47MOL0     C 6229   5.505   5.922   4.561 -0.4561 -1.1214 -0.5758
   47MOL0     C 6230   5.623   5.969   4.468  0.4431 -0.1113  0.5011
   47MOL0     C 6231   5.740   6.025   4.546 -0.3144 -0.1550 -0.2192
   47MOL0     C 6232   5.852   6.065   4.450 -0.2823 -0.0519 -0.0723
   47MOL0     C 6233   5.954   5.960   4.404 -0.6295  0.5862  0.0798
   47MOL0     O 6234   5.893   5.869   4.314 -0.3250  0.0949  0.2320
   47MOL0     C 6235   5.968   5.770   4.270 -0.0192  0.8028 -0.7441
   47MOL0     C 6236   6.108   5.769   4.282  0.3905  0.6845 -0.0537
   47MOL0     C 6237   6.175   5.647   4.264  0.3605 -0.9915 -0.7569
   47MOL0     C 6238   6.109   5.524   4.225 -0.8708 -0.0419 -0.7938
   47MOL0     C 6239   6.176   5.402   4.200 -0.2714  0.2839  0.4362
   47MOL0     O 6240   6.095   5.296   4.192 -0.3763 -0.3229 -0.3888
   47MOL0     C 6241   6.151   5.176   4.174 -0.5986  0.8051  0.2979
   47MOL0     C 6242   6.252   5.120   4.257 -0.4190  0.2016  0.9643
   47MOL0     C 6243   6.315   4.996   4.230  0.8323 -0.4138 -0.5075
   47MOL0     C 6244   6.264   4.917   4.124  0.2418 -0.3780 -0.2999
   47MOL0     O 6245   6.318   4.793   4.105 -0.7975 -0.4585  0.8299
   47MOL0     C 6246   6.230   4.676   4.115  0.2938 -0.5959 -0.7168
   47MOL0     C 6247   6.198   4.634   4.259  0.2282 -0.9921 -0.4410
   47MOL0     C 6248   6.101   4.520   4.254 -0.2306  1.0385 -0.7317
   47MOL0     C 6249   6.018   4.507   4.387  0.4865 -0.4628  0.0344
   47MOL0     C 6250   5.942   4.372   4.388  1.4120 -0.0524 -0.1277
   47MOL0     C 6251   5.824   4.385   4.490 -0.4167 -0.0330  0.1071
   47MOL0     C 6252   5.727   4.265   4.479 -0.5901 -0.5717 -0.0847
   47MOL0     C 6253   5.795   4.130   4.490  0.2632  0.2030  0.1487
   47MOL0    Cl 6254   5.660   4.002   4.499 -0.0823  0.4914 -0.1157
   47MOL0     C 6255   6.164   4.972   4.047  0.1068  0.3451  0.4366
   47MOL0     C 6256   6.101   5.097   4.072  0.4510  1.0865 -0.9121
   47MOL0     O 6257   6.296   5.405   4.193 -0.6568  0.4150  1.1037
   47MOL0     C 6258   5.973   5.531   4.214  0.1865 -0.8537  0.0475
   47MOL0     C 6259   5.903   5.648   4.248  0.0544  0.4475 -0.0650
   47MOL0     N 6260   5.517   5.841   4.671  0.1846  0.0636 -0.5275
   47MOL0     N 6261   5.405   5.807   4.713  0.8000 -0.0489  0.2254
   47MOL0     C 6262   4.134   5.720   5.120  0.1599 -0.1382  0.3451
   47MOL0     C 6263   3.993   5.680   5.128 -1.0952  0.6958 -0.9064
   47MOL0     C 6264   3.587   5.536   4.959  0.1012 -0.2906  0.0777
   47MOL0     C 6265   3.559   5.515   5.097 -0.7450 -0.2196  0.5486
   47MOL0     C 6266   3.435   5.472   5.142  0.0030  0.4406 -0.0247
   47MOL0     C 6267   3.335   5.454   5.052  0.1961  0.0028  0.0237
   47MOL0     O 6268   3.204   5.419   5.078  0.4741 -0.1529 -0.0804
   47MOL0     C 6269   3.162   5.428   5.207  0.2733 -0.1772  0.3266
   47MOL0     C 6270   3.029   5.356   5.218  0.3474 -0.3043  0.5144
   47MOL0     C 6271   2.967   5.368   5.360 -0.1838  0.5848 -0.5041
   47MOL0     C 6272   2.842   5.276   5.378  0.4041  0.2193 -0.0474
   47MOL0     C 6273   2.746   5.281   5.269 -0.3267 -0.2682 -0.9104
   47MOL0     C 6274   2.660   5.275   5.188  0.2388  0.7892  1.0710
   47MOL0     C 6275   3.358   5.481   4.915  0.8784 -0.0707 -0.1688
   47MOL0     C 6276   3.477   5.528   4.869 -0.9041  0.3228  0.4231
   47MOL0     C 6277   3.489   5.548   4.715 -0.2123 -0.0392 -0.4009
   47MOL0     H 6278   3.996   5.490   4.851 -0.3276  1.0545 -0.7467
   47MOL0     H 6279   4.224   5.533   4.858 -2.5246 -0.0835 -1.5030
   47MOL0     H 6280   4.419   5.495   4.992 -1.2802 -1.0289 -2.9782
   47MOL0     H 6281   4.410   5.611   4.856 -0.6617  1.5648  0.6971
   47MOL0     H 6282   4.646   5.537   4.965  4.7544  1.8414  1.7154
   47MOL0     H 6283   4.599   5.633   5.100  0.6879 -0.2800  0.0365
   47MOL0     H 6284   4.601   5.813   4.957  0.8409  0.2669 -0.5579
   47MOL0     H 6285   4.613   5.730   4.805 -0.5583 -0.7694 -0.3623
   47MOL0     H 6286   4.832   5.746   5.031 -0.9601  0.7322 -0.3487
   47MOL0     H 6287   4.858   5.641   4.895 -2.4380 -1.2311 -0.5226
   47MOL0     H 6288   4.859   5.816   4.732  0.8350  2.4196 -1.4666
   47MOL0     H 6289   4.822   5.940   4.862  0.4564 -0.1116  0.1508
   47MOL0     H 6290   5.049   5.963   4.853  1.1642  0.8585  2.5230
   47MOL0     H 6291   5.050   5.823   4.967  0.7850 -0.9629 -1.4022
   47MOL0     H 6292   5.066   5.690   4.732 -0.6742  0.8072 -2.2074
   47MOL0     H 6293   5.206   5.759   4.827  3.6976  0.2823 -3.7140
   47MOL0     H 6294   5.114   5.848   4.559 -0.5764  4.8700 -2.2437
   47MOL0     H 6295   5.138   5.985   4.667  0.6127 -0.1808  0.4832
   47MOL0     H 6296   5.342   6.015   4.467  1.4049 -1.8863 -3.5765
   47MOL0     H 6297   5.652   5.880   4.411 -2.3691 -0.1534 -1.0708
   47MOL0     H 6298   5.580   6.045   4.402 -2.3968 -2.4174 -0.5450
   47MOL0     H 6299   5.707   6.117   4.595 -0.3797  0.0840 -0.7116
   47MOL0     H 6300   5.771   5.963   4.631  0.9829  0.2253 -0.3982
   47MOL0     H 6301   5.913   6.147   4.491  3.0127 -1.7056 -1.2974
   47MOL0     H 6302   5.805   6.098   4.357 -1.6068 -0.1827  0.5370
   47MOL0     H 6303   6.005   5.904   4.483 -0.8549 -0.7456 -0.6881
   47MOL0     H 6304   6.034   6.010   4.350 -0.0460 -2.2767 -1.9696
   47MOL0     H 6305   6.173   5.853   4.305  1.1053 -0.0983  0.8887
   47MOL0     H 6306   6.282   5.656   4.278 -0.0071  1.3905  1.4184
   47MOL0     H 6307   6.286   5.188   4.335 -0.3232  1.9447 -0.5222
   47MOL0     H 6308   6.400   4.955   4.283  1.5174  0.2477 -1.0545
   47MOL0     H 6309   6.145   4.693   4.050  0.7189  0.1910 -1.0869
   47MOL0     H 6310   6.287   4.598   4.063  1.4303  1.4571 -2.7638
   47MOL0     H 6311   6.288   4.608   4.313  0.1639 -0.9900 -0.3345
   47MOL0     H 6312   6.150   4.716   4.315 -0.5962 -2.4997  1.1424
   47MOL0     H 6313   6.026   4.527   4.175 -1.4982  3.1932  0.5447
   47MOL0     H 6314   6.152   4.424   4.246 -1.7617 -0.1386  1.9556
   47MOL0     H 6315   5.946   4.590   4.391  0.5796 -0.3696 -0.1986
   47MOL0     H 6316   6.085   4.521   4.472  0.9877  1.5486 -0.6274
   47MOL0     H 6317   6.008   4.291   4.419  2.9423  0.7901 -1.0756
   47MOL0     H 6318   5.899   4.363   4.288  2.0178  0.4857 -0.4396
   47MOL0     H 6319   5.855   4.390   4.595 -1.6230 -0.6255  0.5080
   47MOL0     H 6320   5.769   4.477   4.469  0.5038  0.2718 -1.1291
   47MOL0     H 6321   5.674   4.272   4.383  1.8104 -0.7745 -1.5131
   47MOL0     H 6322   5.651   4.278   4.556 -0.6282  4.2240 -0.6654
   47MOL0     H 6323   5.844   4.108   4.395 -0.2970  2.6410 -0.7739
   47MOL0     H 6324   5.864   4.115   4.574 -0.0194  2.0017  0.7346
   47MOL0     H 6325   6.120   4.913   3.968  0.4721  1.0858 -0.3411
   47MOL0     H 6326   6.017   5.130   4.013 -0.1198 -1.8414 -1.9261
   47MOL0     H 6327   5.905   5.448   4.195 -0.3775 -0.3939  0.0218
   47MOL0     H 6328   5.794   5.645   4.248  0.0566  0.3593 -0.5216
   47MOL0     H 6329   4.186   5.784   5.192  1.7578 -0.1435 -0.7685
   47MOL0     H 6330   3.924   5.710   5.206  0.1089  0.1555  0.4134
   47MOL0     H 6331   3.632   5.521   5.177  0.3474  0.2624 -0.4413
   47MOL0     H 6332   3.414   5.462   5.248 -1.2233 -1.1745 -0.3774
   47MOL0     H 6333   3.150   5.534   5.232 -0.3707  0.7569 -3.4263
   47MOL0     H 6334   3.235   5.376   5.270  1.0224 -0.2424 -0.5757
   47MOL0     H 6335   3.049   5.251   5.199 -2.9503 -1.1679  1.1956
   47MOL0     H 6336   2.959   5.385   5.139  0.2834 -0.3483  0.5552
   47MOL0     H 6337   2.947   5.475   5.367  1.5129  0.9904 -1.4475
   47MOL0     H 6338   3.043   5.339   5.433  1.5334  1.1292 -1.9958
   47MOL0     H 6339   2.870   5.170   5.378  0.9060  0.3449  0.3753
   47MOL0     H 6340   2.784   5.298   5.469 -0.8283  0.3024 -0.8342
   47MOL0     H 6341   2.584   5.281   5.113 -0.0136  0.1760  1.2686
   47MOL0     H 6342   3.280   5.480   4.839  1.8269 -1.4768 -1.1671
   47MOL0     H 6343   3.506   5.654   4.695 -0.7753  0.0888 -0.2127
   47MOL0     H 6344   3.576   5.489   4.683  0.5439  0.2231  1.0781
   47MOL0     H 6345   3.410   5.505   4.654 -0.4548  1.5726 -1.2821
   48MOL0     O 6346   8.428   2.031   8.918  0.4798 -1.1249 -0.5773
   48MOL0     C 6347   8.349   2.124   8.938  0.3197 -0.2341  0.3807
   48MOL0     O 6348   8.396   2.250   8.961  1.1194 -0.3565 -0.0357
   48MOL0     C 6349   8.527   2.267   8.979  0.1779  0.3674  0.2144
   48MOL0     C 6350   8.620   2.307   8.878  0.3383 -0.2118 -0.3790
   48MOL0     C 6351   8.751   2.344   8.917 -0.0737  0.1972  0.2460
   48MOL0     C 6352   8.801   2.329   9.044  0.5083  0.7561 -0.9541
   48MOL0     O 6353   8.925   2.358   9.074 -0.4688  0.2802 -0.5778
   48MOL0     C 6354   8.997   2.253   9.128 -0.3655  0.2232 -0.4391
   48MOL0     C 6355   9.104   2.303   9.228  0.9020  0.2876 -0.2125
   48MOL0     C 6356   9.217   2.208   9.230 -0.2966 -0.1135 -0.2856
   48MOL0     C 6357   9.346   2.287   9.274 -0.3303  0.5793 -1.0704
   48MOL0     C 6358   9.445   2.211   9.367 -0.2091  0.1329  0.6869
   48MOL0     C 6359   9.499   2.087   9.302 -0.2666  0.7149  0.9657
   48MOL0     C 6360   9.650   2.057   9.334 -0.1078  0.2578 -0.2841
   48MOL0     C 6361   9.659   2.002   9.484 -0.2343 -0.1721  0.2581
   48MOL0     N 6362   9.804   1.990   9.517  0.3985 -0.0743  0.2642
   48MOL0     C 6363   9.874   2.093   9.576 -0.1558 -0.1517 -0.2828
   48MOL0     C 6364  10.003   2.049   9.574  0.6283  0.5772  0.3815
   48MOL0     C 6365  10.114   2.127   9.633 -0.1554 -0.6153  0.0505
   48MOL0     C 6366  10.172   2.216   9.527 -0.0595 -0.0023 -0.2329
   48MOL0     C 6367  10.288   2.305   9.586 -0.0190  0.4127 -0.6589
   48MOL0     C 6368  10.379   2.366   9.475 -0.9768 -0.6310 -0.7499
   48MOL0     O 6369  10.442   2.265   9.393 -0.3146 -0.2598  0.4178
   48MOL0     C 6370  10.542   2.303   9.297  0.2823 -0.1344 -0.6093
   48MOL0     C 6371  10.569   2.431   9.253 -0.4971 -0.4185  0.5368
   48MOL0     C 6372  10.670   2.459   9.163  0.3089  0.6270  0.0933
   48MOL0     C 6373  10.747   2.351   9.111 -0.5422 -0.8241 -0.0129
   48MOL0     C 6374  10.861   2.377   9.014  0.3390 -0.3796  0.1381
   48MOL0     O 6375  10.943   2.273   8.987  0.0290  1.1245  0.1025
   48MOL0     C 6376  11.053   2.277   8.903 -0.3040 -0.1429  0.7035
   48MOL0     C 6377  11.094   2.153   8.863 -0.1535  0.2000 -0.1534
   48MOL0     C 6378  11.206   2.127   8.782 -0.1266 -0.7940  0.1018
   48MOL0     C 6379  11.285   2.228   8.740 -0.5989  0.0532  0.3092
   48MOL0     O 6380  11.396   2.212   8.650  0.0326 -0.4256  0.2192
   48MOL0     C 6381  11.365   2.167   8.518 -0.6299 -0.2760  0.5912
   48MOL0     C 6382  11.472   2.221   8.417  0.1314  1.1144  1.0337
   48MOL0     C 6383  11.614   2.162   8.450  1.8228 -0.0764 -0.2957
   48MOL0     C 6384  11.711   2.198   8.340 -0.1663 -0.3256 -0.4550
   48MOL0     C 6385  11.842   2.123   8.360 -0.0162  0.2226  1.0671
   48MOL0     C 6386  11.946   2.169   8.259 -0.0988  0.0898 -0.5161
   48MOL0     C 6387  11.917   2.109   8.118  0.4621  0.7849  0.3060
   48MOL0     C 6388  12.029   2.125   8.013 -0.2955  0.4188 -0.1393
   48MOL0    Cl 6389  11.966   2.056   7.856  0.5479  0.0526  0.1022
   48MOL0     C 6390  11.247   2.359   8.771 -0.3714 -0.4111  0.7204
   48MOL0     C 6391  11.127   2.392   8.851 -0.0869  0.4869 -0.2985
   48MOL0     O 6392  10.873   2.499   8.979  0.1693  0.2485 -0.1510
   48MOL0     C 6393  10.715   2.219   9.149  0.7723 -0.0712 -0.1147
   48MOL0     C 6394  10.618   2.198   9.245  0.0367  0.4753 -0.6545
   48MOL0     N 6395  10.005   1.932   9.505  0.2774  0.5458  0.3829
   48MOL0     N 6396   9.891   1.892   9.480 -0.6656  0.0277 -0.4924
   48MOL0     C 6397   8.706   2.294   9.145 -0.8143  0.4724  0.7137
   48MOL0     C 6398   8.575   2.257   9.107  0.9739  1.2028 -0.0747
   48MOL0     C 6399   8.202   2.105   8.963  0.4467  1.0807  0.0878
   48MOL0     C 6400   8.136   2.189   9.048  0.4724  0.0607  0.1676
   48MOL0     C 6401   8.007   2.162   9.088  0.5367  0.5543  0.3391
   48MOL0     C 6402   7.932   2.055   9.043 -0.0939 -0.1032 -0.1187
   48MOL0     O 6403   7.806   2.031   9.087  0.9462  0.1279  0.5081
   48MOL0     C 6404   7.789   2.056   9.223  0.4295 -0.3490 -1.0994
   48MOL0     C 6405   7.682   1.958   9.275 -0.1751  0.1939  0.6069
   48MOL0     C 6406   7.549   1.962   9.203 -0.1948 -0.1972  0.1655
   48MOL0     C 6407   7.432   1.900   9.281  1.3363  0.3114 -0.4785
   48MOL0     C 6408   7.326   1.833   9.208  0.1781 -0.1280 -0.1357
   48MOL0     C 6409   7.251   1.775   9.142  0.1907  0.3293 -0.6137
   48MOL0     C 6410   7.999   1.968   8.956  0.2549  0.5019  0.7098
   48MOL0     C 6411   8.133   1.991   8.914  0.4383 -0.0398  0.0241
   48MOL0     C 6412   8.185   1.897   8.803 -0.1386 -0.2395  0.5710
   48MOL0     H 6413   8.578   2.328   8.780 -0.6107 -0.1279  0.0267
   48MOL0     H 6414   8.824   2.379   8.844  0.4133  0.6801  0.9515
   48MOL0     H 6415   8.936   2.189   9.193 -1.9199 -0.5686 -2.5688
   48MOL0     H 6416   9.038   2.189   9.049  2.4734  2.5418 -0.9958
   48MOL0     H 6417   9.070   2.308   9.332  2.4976  2.2339  0.2959
   48MOL0     H 6418   9.137   2.402   9.192 -0.3114  1.6139  2.1017
   48MOL0     H 6419   9.237   2.164   9.132  1.4629 -1.0629  0.4486
   48MOL0     H 6420   9.193   2.130   9.303 -2.5807 -1.9004 -2.7633
   48MOL0     H 6421   9.388   2.331   9.184 -0.9347  0.7161 -1.2897
   48MOL0     H 6422   9.313   2.368   9.340  1.2112  0.9034 -0.6478
   48MOL0     H 6423   9.531   2.277   9.386 -1.2899  1.3197  1.6193
   48MOL0     H 6424   9.404   2.195   9.467  0.3085 -0.3586  0.8271
   48MOL0     H 6425   9.434   2.009   9.342  0.8179  0.6559  2.7270
   48MOL0     H 6426   9.490   2.087   9.193 -3.1225  0.6029  1.1346
   48MOL0     H 6427   9.707   2.148   9.313  1.8673 -1.4941 -3.3347
   48MOL0     H 6428   9.685   1.971   9.276  2.5776  0.4975  0.8142
   48MOL0     H 6429   9.614   2.070   9.557 -2.5403 -1.6154  0.2897
   48MOL0     H 6430   9.612   1.904   9.498  2.7352 -1.6160  0.6860
   48MOL0     H 6431   9.841   2.182   9.629  1.5574  1.3865 -1.6865
   48MOL0     H 6432  10.077   2.196   9.709  1.8860  0.7545 -0.1248
   48MOL0     H 6433  10.181   2.052   9.677 -1.1607 -1.9784 -0.6630
   48MOL0     H 6434  10.206   2.144   9.452 -0.2266  0.0861 -0.3979
   48MOL0     H 6435  10.107   2.294   9.484 -0.5551  2.9015  4.9689
   48MOL0     H 6436  10.357   2.242   9.643  1.0647  2.6532  0.6062
   48MOL0     H 6437  10.256   2.383   9.655  0.7662 -1.0136  1.4220
   48MOL0     H 6438  10.454   2.417   9.536 -0.3443  0.4854 -2.3650
   48MOL0     H 6439  10.319   2.440   9.422 -1.2177  0.3306  0.7940
   48MOL0     H 6440  10.521   2.524   9.284  0.2584  1.5568 -3.5410
   48MOL0     H 6441  10.682   2.561   9.129  0.6015  0.7792  0.6453
   48MOL0     H 6442  11.045   2.066   8.905  4.1825 -2.2285  0.4419
   48MOL0     H 6443  11.220   2.023   8.754  1.1713 -0.2099 -1.5382
   48MOL0     H 6444  11.359   2.058   8.514 -2.0162 -0.1884 -1.4644
   48MOL0     H 6445  11.263   2.197   8.491 -0.1253  1.4115  0.4328
   48MOL0     H 6446  11.441   2.203   8.313 -2.6919 -1.4350  2.1484
   48MOL0     H 6447  11.478   2.330   8.422 -0.7796  1.2913 -0.7323
   48MOL0     H 6448  11.645   2.200   8.548 -0.2386 -0.2606  0.4748
   48MOL0     H 6449  11.605   2.053   8.456 -1.6091  0.1276  0.3568
   48MOL0     H 6450  11.741   2.303   8.345 -4.4333  1.0551  3.3130
   48MOL0     H 6451  11.660   2.165   8.249 -0.5732 -1.3815  0.1423
   48MOL0     H 6452  11.837   2.015   8.342 -1.3849  0.1999  1.5057
   48MOL0     H 6453  11.874   2.141   8.464 -0.4379  2.6679  0.8354
   48MOL0     H 6454  11.949   2.278   8.246  4.2843  0.8617  4.1334
   48MOL0     H 6455  12.046   2.135   8.286 -0.5376 -0.1241  0.8741
   48MOL0     H 6456  11.830   2.163   8.079 -0.2236  0.6363  1.5837
   48MOL0     H 6457  11.875   2.009   8.105 -0.1978  0.7874  2.1379
   48MOL0     H 6458  12.059   2.229   7.999  0.0763  0.0893 -1.9999
   48MOL0     H 6459  12.116   2.073   8.055  0.3388  3.0931  2.1569
   48MOL0     H 6460  11.302   2.443   8.729  0.6777 -1.9157 -1.0573
   48MOL0     H 6461  11.104   2.493   8.883 -3.9019  1.0387 -3.8458
   48MOL0     H 6462  10.770   2.142   9.096 -0.6351  0.1790 -2.0445
   48MOL0     H 6463  10.583   2.102   9.282 -0.8152  0.9979 -0.0679
   48MOL0     H 6464   8.732   2.300   9.250  0.1409  1.0726  0.4586
   48MOL0     H 6465   8.508   2.226   9.187 -0.5613  1.5234 -1.1788
   48MOL0     H 6466   8.187   2.282   9.070  0.2903  0.8731 -2.5309
   48MOL0     H 6467   7.973   2.230   9.165  1.1844  2.0644 -0.6575
   48MOL0     H 6468   7.760   2.160   9.242  3.8450  0.4502  0.5945
   48MOL0     H 6469   7.879   2.041   9.284 -0.4319  0.2575  0.3648
   48MOL0     H 6470   7.674   1.973   9.383  0.9003 -1.7720  1.0012
   48MOL0     H 6471   7.721   1.856   9.277  0.1708  0.2857 -0.7686
   48MOL0     H 6472   7.558   1.912   9.106 -4.4467  0.9081 -1.0050
   48MOL0     H 6473   7.543   2.067   9.173 -0.5549 -0.1822  0.2859
   48MOL0     H 6474   7.475   1.829   9.352  0.0941  0.3504  0.3564
   48MOL0     H 6475   7.385   1.984   9.333 -1.5313  0.2928 -2.7723
   48MOL0     H 6476   7.183   1.716   9.085  2.7302 -1.5613 -1.8595
   48MOL0     H 6477   7.933   1.886   8.929 -0.6380  1.2161  0.7026
   48MOL0     H 6478   8.105   1.837   8.761  1.0484 -0.6273 -1.2495
   48MOL0     H 6479   8.229   1.958   8.724 -1.4107 -1.4758 -1.1796
   48MOL0     H 6480   8.259   1.823   8.836 -1.4086 -0.8622  2.1754
   49MOL0     O 6481  10.743   0.330   7.551  0.8079  0.7279 -0.2131
   49MOL0     C 6482  10.724   0.402   7.643  0.0362  0.0298  0.4082
   49MOL0     O 6483  10.744   0.534   7.638  0.4806  0.4122 -0.8640
   49MOL0     C 6484  10.848   0.586   7.564 -0.8802  0.2614 -0.0642
   49MOL0     C 6485  10.971   0.510   7.551  0.3301 -0.5584  0.3320
   49MOL0     C 6486  11.088   0.579   7.502 -0.2904  0.7208 -0.0580
   49MOL0     C 6487  11.084   0.708   7.457 -0.1211  0.2169 -0.3985
   49MOL0     O 6488  11.204   0.768   7.412 -0.5917  0.8631 -0.1384
   49MOL0     C 6489  11.284   0.817   7.523 -1.0555  0.3103 -0.2951
   49MOL0     C 6490  11.440   0.803   7.512 -0.1968 -0.8936 -0.0862
   49MOL0     C 6491  11.517   0.868   7.626 -0.4615 -0.1012  0.3816
   49MOL0     C 6492  11.667   0.851   7.595 -0.2025  1.2647  0.3180
   49MOL0     C 6493  11.746   0.949   7.677 -0.3426  0.2530 -0.1378
   49MOL0     C 6494  11.716   0.938   7.829 -0.6714  0.0373  0.0597
   49MOL0     C 6495  11.820   1.018   7.904 -0.9830 -0.0015  0.2098
   49MOL0     C 6496  11.796   1.172   7.903 -0.6939 -0.4796 -0.3859
   49MOL0     N 6497  11.922   1.240   7.934 -0.0984 -0.0382 -0.2513
   49MOL0     C 6498  12.012   1.209   8.037  0.5082 -0.4731  0.3253
   49MOL0     C 6499  12.104   1.311   8.028 -0.7799 -0.0381  0.6695
   49MOL0     C 6500  12.228   1.332   8.114  0.7148 -0.0014  0.7361
   49MOL0     C 6501  12.353   1.307   8.029 -1.6314  0.0023  0.0567
   49MOL0     C 6502  12.395   1.164   8.048 -0.5438 -0.6688  0.0585
   49MOL0     C 6503  12.535   1.136   8.000 -0.2061 -0.3397  0.0172
   49MOL0     O 6504  12.624   1.170   8.108 -0.6077  0.5931  0.1075
   49MOL0     C 6505  12.758   1.152   8.096 -0.3820 -0.1439  0.0420
   49MOL0     C 6506  12.815   1.114   7.972  1.2261  0.1085  0.6341
   49MOL0     C 6507  12.950   1.100   7.960 -0.0218  0.1063 -0.0349
   49MOL0     C 6508  13.037   1.127   8.068  0.0404  0.9941  0.2062
   49MOL0     C 6509  13.187   1.099   8.058  0.4848 -0.1593  0.0124
   49MOL0     O 6510  13.233   1.036   7.948  0.3102  0.2341  1.2651
   49MOL0     C 6511  13.363   1.051   7.915 -0.6033  0.5229 -0.3414
   49MOL0     C 6512  13.440   1.162   7.931  1.0292  0.3261  0.4631
   49MOL0     C 6513  13.586   1.158   7.910  0.3261  0.3096 -0.3768
   49MOL0     C 6514  13.640   1.044   7.848  0.5266 -0.0267  0.1247
   49MOL0     O 6515  13.766   1.056   7.809 -0.3477 -0.1069  0.2649
   49MOL0     C 6516  13.854   0.936   7.825 -0.1335 -0.6152 -0.0267
   49MOL0     C 6517  13.926   0.941   7.962  0.3575 -0.1410  0.1187
   49MOL0     C 6518  13.971   0.805   8.009  0.5133  0.4091 -0.2818
   49MOL0     C 6519  14.026   0.821   8.152 -0.0460  0.4172  0.4710
   49MOL0     C 6520  14.068   0.679   8.200  0.1194  0.1609  0.2613
   49MOL0     C 6521  14.104   0.676   8.346 -0.0299 -0.4460  0.7719
   49MOL0     C 6522  14.238   0.732   8.370  0.2964 -0.8050 -0.2429
   49MOL0     C 6523  14.291   0.703   8.501 -0.1882 -0.4869  0.3126
   49MOL0    Cl 6524  14.419   0.827   8.532 -0.0248  0.4985 -0.0377
   49MOL0     C 6525  13.554   0.939   7.808 -0.2204  0.3946  0.7773
   49MOL0     C 6526  13.423   0.937   7.854 -0.8531 -0.4651  0.4464
   49MOL0     O 6527  13.259   1.127   8.155 -0.1504 -1.1043  0.3037
   49MOL0     C 6528  12.981   1.178   8.185 -0.0139 -0.0659 -0.0484
   49MOL0     C 6529  12.839   1.197   8.196 -1.1963 -0.5854 -0.1013
   49MOL0     N 6530  12.060   1.397   7.933 -0.1228 -0.3578  0.1343
   49MOL0     N 6531  11.959   1.349   7.876 -0.3575 -0.5438  0.3519
   49MOL0     C 6532  10.959   0.773   7.452  0.0987  0.1194  0.6448
   49MOL0     C 6533  10.843   0.713   7.505 -0.1978  0.1156 -0.6269
   49MOL0     C 6534  10.631   0.339   7.740 -0.1970  0.0093  0.0554
   49MOL0     C 6535  10.521   0.407   7.797 -0.3788  0.0865 -0.2126
   49MOL0     C 6536  10.427   0.355   7.892  1.0910  0.0257 -0.0936
   49MOL0     C 6537  10.454   0.234   7.936 -0.9634  0.1176  0.4874
   49MOL0     O 6538  10.360   0.167   8.013 -0.5862 -0.2705 -0.2977
   49MOL0     C 6539  10.292   0.240   8.120  0.3702  0.6948 -0.9375
   49MOL0     C 6540  10.253   0.153   8.233 -0.0720  0.2877  0.5647
   49MOL0     C 6541  10.135   0.056   8.199  0.8295 -0.4908 -0.6195
   49MOL0     C 6542  10.013   0.085   8.282  1.0626 -0.3371 -0.2529
   49MOL0     C 6543   9.918  -0.022   8.282  0.1972  0.2416  0.1114
   49MOL0     C 6544   9.848  -0.112   8.259 -0.8989 -0.0396  0.0371
   49MOL0     C 6545  10.573   0.170   7.896  0.1599  0.9158 -0.2170
   49MOL0     C 6546  10.662   0.215   7.797 -0.4206  0.1387  0.1405
   49MOL0     C 6547  10.778   0.128   7.754  0.6181 -0.3812 -0.8708
   49MOL0     H 6548  10.986   0.413   7.599  1.1729  0.1925  1.6584
   49MOL0     H 6549  11.186   0.532   7.496  0.2853  1.4951  2.1593
   49MOL0     H 6550  11.278   0.924   7.546  0.9553  0.4308 -0.1150
   49MOL0     H 6551  11.249   0.778   7.619  2.2181 -0.3861  0.7620
   49MOL0     H 6552  11.467   0.849   7.416  1.0697 -0.7725  0.3215
   49MOL0     H 6553  11.470   0.697   7.506  0.5570 -0.7487  0.9332
   49MOL0     H 6554  11.484   0.832   7.724 -0.4099 -1.0451  0.0675
   49MOL0     H 6555  11.493   0.975   7.631 -0.2878 -0.0517  0.1630
   49MOL0     H 6556  11.699   0.748   7.612 -1.4191  1.1101  1.9014
   49MOL0     H 6557  11.695   0.870   7.491  3.2098 -0.7231  0.7063
   49MOL0     H 6558  11.851   0.924   7.662  0.1940  1.9234  0.6238
   49MOL0     H 6559  11.745   1.055   7.651  0.7289  0.5885  1.1140
   49MOL0     H 6560  11.617   0.981   7.849 -0.3733  0.5377  0.4891
   49MOL0     H 6561  11.713   0.834   7.862 -2.6757 -0.2857 -1.0107
   49MOL0     H 6562  11.922   1.008   7.866  0.1665  2.2683  2.3903
   49MOL0     H 6563  11.823   0.971   8.003 -1.4787  1.4522  0.9442
   49MOL0     H 6564  11.762   1.209   7.806 -0.4014  1.2712  0.1473
   49MOL0     H 6565  11.721   1.214   7.970 -2.4749 -1.4517 -1.7024
   49MOL0     H 6566  12.004   1.124   8.105 -0.9002 -0.1369  0.6248
   49MOL0     H 6567  12.238   1.438   8.140 -1.2126  0.8909 -1.7676
   49MOL0     H 6568  12.220   1.272   8.205 -0.2525 -1.2391 -0.1401
   49MOL0     H 6569  12.327   1.344   7.930 -1.3977  1.9761  0.6953
   49MOL0     H 6570  12.442   1.362   8.063 -0.5606 -1.2123 -0.6864
   49MOL0     H 6571  12.321   1.104   7.994 -0.4071 -0.1301 -0.7492
   49MOL0     H 6572  12.383   1.139   8.154  1.9527 -0.4917  0.4619
   49MOL0     H 6573  12.560   1.197   7.913  0.3556  0.4251  0.6993
   49MOL0     H 6574  12.542   1.033   7.964 -1.5960 -0.7171  0.7464
   49MOL0     H 6575  12.750   1.107   7.885  0.1976  1.4268  1.2669
   49MOL0     H 6576  12.993   1.057   7.870  0.9688 -0.1120  0.5317
   49MOL0     H 6577  13.393   1.254   7.963 -1.8847 -0.4423 -1.2251
   49MOL0     H 6578  13.647   1.245   7.931 -1.0237  1.1537  0.1708
   49MOL0     H 6579  13.793   0.846   7.829 -0.7442 -0.2495 -0.7629
   49MOL0     H 6580  13.931   0.937   7.747  1.9385 -2.7702  1.8356
   49MOL0     H 6581  14.003   1.019   7.962 -1.7868  2.0913 -0.2004
   49MOL0     H 6582  13.862   0.982   8.040  0.0517  1.6160 -1.0001
   49MOL0     H 6583  13.885   0.738   8.007  2.4248 -2.1977 -0.9258
   49MOL0     H 6584  14.041   0.753   7.943  1.7463 -0.4554  1.6147
   49MOL0     H 6585  13.949   0.863   8.218 -1.5396 -0.9913 -0.2964
   49MOL0     H 6586  14.112   0.886   8.135  0.8157 -0.8968 -0.3419
   49MOL0     H 6587  14.142   0.638   8.130  0.2219  0.4447  0.2012
   49MOL0     H 6588  13.984   0.610   8.187 -0.2731  0.7961 -0.6818
   49MOL0     H 6589  14.027   0.730   8.402  1.2882  1.1428  1.0969
   49MOL0     H 6590  14.102   0.571   8.378  1.4849 -0.4675  0.8696
   49MOL0     H 6591  14.236   0.839   8.349  0.3189 -0.6478  0.5264
   49MOL0     H 6592  14.318   0.680   8.317  1.7935  1.5118 -0.4086
   49MOL0     H 6593  14.212   0.703   8.577  1.5610 -0.5296  2.2176
   49MOL0     H 6594  14.335   0.603   8.495  0.3961 -0.1953 -0.3693
   49MOL0     H 6595  13.604   0.855   7.760  0.4189  1.1304  0.1191
   49MOL0     H 6596  13.355   0.856   7.833 -1.5422  0.8061 -2.7958
   49MOL0     H 6597  13.051   1.210   8.262 -2.3001  0.1844  2.0385
   49MOL0     H 6598  12.801   1.263   8.274  1.7148  1.4472 -0.2626
   49MOL0     H 6599  10.951   0.867   7.398 -0.4118 -0.8735 -1.0970
   49MOL0     H 6600  10.750   0.769   7.504  0.4774  1.5170  2.4942
   49MOL0     H 6601  10.503   0.510   7.766  0.4383  0.3029  0.0108
   49MOL0     H 6602  10.336   0.411   7.913  1.3636  0.0611  1.0727
   49MOL0     H 6603  10.207   0.298   8.082 -2.2623 -0.9759  1.9076
   49MOL0     H 6604  10.365   0.303   8.172 -0.0918  0.9336 -0.5623
   49MOL0     H 6605  10.231   0.225   8.313  0.0402  0.1301  0.7392
   49MOL0     H 6606  10.343   0.103   8.272  0.5805  0.9739 -0.0398
   49MOL0     H 6607  10.176  -0.045   8.213  3.0688  0.2082 -1.7735
   49MOL0     H 6608  10.108   0.065   8.094  1.0154  1.2589 -0.5467
   49MOL0     H 6609  10.050   0.096   8.385 -1.1512 -1.5297  0.7428
   49MOL0     H 6610   9.963   0.176   8.250 -0.4735 -1.2795 -0.6580
   49MOL0     H 6611   9.788  -0.195   8.227  0.1518 -0.1321 -1.8560
   49MOL0     H 6612  10.590   0.081   7.956 -0.1010  0.8626 -0.2228
   49MOL0     H 6613  10.863   0.197   7.749  1.6921 -1.7227 -1.4874
   49MOL0     H 6614  10.795   0.042   7.819 -3.5671 -0.7221  0.0411
   49MOL0     H 6615  10.765   0.096   7.651  1.1649 -2.2337 -0.4046
   50MOL0     O 6616  10.727   6.337  10.887  0.2396  0.0662  0.2177
   50MOL0     C 6617  10.640   6.257  10.914  0.7465 -0.1957  0.2491
   50MOL0     O 6618  10.664   6.131  10.957 -0.1502  0.0513 -0.0272
   50MOL0     C 6619  10.788   6.091  10.988 -0.7236  0.1086  0.6265
   50MOL0     C 6620  10.889   6.060  10.889  0.0645 -0.4033  0.5165
   50MOL0     C 6621  11.019   6.027  10.931  0.6647  0.2693 -0.0030
   50MOL0     C 6622  11.049   6.021  11.071 -0.3853  0.1614  0.2409
   50MOL0     O 6623  11.164   5.977  11.123 -0.4441  0.7137  0.1697
   50MOL0     C 6624  11.280   6.020  11.052  0.0884 -0.3442 -0.8314
   50MOL0     C 6625  11.411   6.019  11.140  0.1442 -0.2440  0.1641
   50MOL0     C 6626  11.411   6.112  11.261  0.6491  0.0191 -0.1648
   50MOL0     C 6627  11.525   6.076  11.361  0.1905 -0.4321  0.0834
   50MOL0     C 6628  11.494   6.168  11.483  0.5181 -0.4886 -0.6136
   50MOL0     C 6629  11.579   6.124  11.597 -0.7652  0.0228 -0.6104
   50MOL0     C 6630  11.539   6.201  11.729 -0.2797 -0.2280  0.0633
   50MOL0     C 6631  11.597   6.344  11.736 -0.5175  0.3607  0.0562
   50MOL0     N 6632  11.738   6.331  11.763  0.3366  0.4393 -0.7798
   50MOL0     C 6633  11.793   6.324  11.892  0.6043  1.3618 -0.7073
   50MOL0     C 6634  11.936   6.316  11.867  0.4667  0.2827  0.4995
   50MOL0     C 6635  12.048   6.321  11.970  0.3914  0.0123  0.1978
   50MOL0     C 6636  12.133   6.191  11.977  0.1106  0.7935 -0.6064
   50MOL0     C 6637  12.228   6.214  12.092 -0.0288  0.2181  0.4932
   50MOL0     C 6638  12.328   6.102  12.126 -0.6862 -0.8713 -0.0015
   50MOL0     O 6639  12.425   6.163  12.216  0.2586  0.5439 -0.1541
   50MOL0     C 6640  12.545   6.098  12.246 -0.0420  0.8673 -0.1546
   50MOL0     C 6641  12.565   5.963  12.236 -0.6779  0.1412  0.4088
   50MOL0     C 6642  12.686   5.912  12.278 -0.2844 -0.1421  0.3884
   50MOL0     C 6643  12.789   5.984  12.334  0.0175  0.7295 -0.3876
   50MOL0     C 6644  12.915   5.934  12.381 -0.0111  0.2842 -0.3303
   50MOL0     O 6645  12.995   6.010  12.458 -0.4246  0.3671 -0.6146
   50MOL0     C 6646  13.105   5.952  12.532 -1.0958 -0.4192 -0.0336
   50MOL0     C 6647  13.213   5.882  12.475  0.5863 -0.4135  0.6233
   50MOL0     C 6648  13.333   5.861  12.543 -0.1336  0.3167  0.9895
   50MOL0     C 6649  13.346   5.892  12.672  0.8166  0.1093 -1.0853
   50MOL0     O 6650  13.456   5.859  12.748 -0.6423 -0.6899 -0.3662
   50MOL0     C 6651  13.536   5.741  12.700 -0.4120 -0.6474  1.3938
   50MOL0     C 6652  13.576   5.677  12.829  0.0209 -0.2036  0.5163
   50MOL0     C 6653  13.685   5.570  12.819  0.0770  0.1106 -0.1665
   50MOL0     C 6654  13.694   5.491  12.959  0.6737 -0.4574  1.6090
   50MOL0     C 6655  13.797   5.364  12.958  0.0607 -0.2697  0.2051
   50MOL0     C 6656  13.767   5.272  13.076  0.4976 -0.6254  0.0776
   50MOL0     C 6657  13.850   5.141  13.069  0.4018  0.3080 -0.0410
   50MOL0     C 6658  13.787   5.036  13.160 -0.0662  0.1782 -0.6318
   50MOL0    Cl 6659  13.869   5.023  13.319  0.0492  0.1531 -0.3349
   50MOL0     C 6660  13.239   5.954  12.737  0.9199 -0.0953 -0.2413
   50MOL0     C 6661  13.118   5.988  12.668  0.9417 -0.2359  0.4680
   50MOL0     O 6662  12.942   5.820  12.353 -0.0985 -0.5855 -0.1005
   50MOL0     C 6663  12.769   6.120  12.345  0.4441  1.0946  0.1949
   50MOL0     C 6664  12.644   6.175  12.299  0.3041  0.7478 -0.1190
   50MOL0     N 6665  11.951   6.323  11.730 -0.3109  0.1712  0.6690
   50MOL0     N 6666  11.835   6.339  11.672 -0.3792  0.3627 -0.5598
   50MOL0     C 6667  10.940   6.037  11.162 -0.8346  0.1317  0.4790
   50MOL0     C 6668  10.827   6.087  11.120  0.3734 -0.7991  0.0799
   50MOL0     C 6669  10.499   6.279  10.865  0.3383  0.3352 -0.3856
   50MOL0     C 6670  10.416   6.169  10.847  0.4900 -0.3776  0.0171
   50MOL0     C 6671  10.278   6.180  10.833  1.4728  0.3720  0.3090
   50MOL0     C 6672  10.221   6.302  10.816  0.3066 -0.5054 -0.2493
   50MOL0     O 6673  10.084   6.322  10.771  0.1518  0.2945 -0.1389
   50MOL0     C 6674  10.009   6.217  10.711  1.6612  1.2098 -0.0455
   50MOL0     C 6675   9.912   6.156  10.807  0.4243  1.1674  0.0884
   50MOL0     C 6676   9.800   6.257  10.824 -0.2635  0.0719  0.0623
   50MOL0     C 6677   9.688   6.210  10.926 -1.1548 -0.1573  0.6634
   50MOL0     C 6678   9.600   6.106  10.881 -0.7496 -0.3333  0.3200
   50MOL0     C 6679   9.520   6.022  10.860  0.8028 -0.5736  0.4782
   50MOL0     C 6680  10.299   6.417  10.821  0.7426 -0.6348  0.0287
   50MOL0     C 6681  10.438   6.409  10.856 -0.1263  0.2073 -0.2479
   50MOL0     C 6682  10.518   6.537  10.875 -0.1805 -1.2717 -0.7664
   50MOL0     H 6683  10.867   6.054  10.783  2.7090 -6.0322 -0.0681
   50MOL0     H 6684  11.091   6.005  10.853 -0.1583  0.6878 -0.9037
   50MOL0     H 6685  11.304   5.952  10.969 -0.7281 -1.0296 -0.5150
   50MOL0     H 6686  11.274   6.118  11.005 -0.1593  0.5163  0.9365
   50MOL0     H 6687  11.493   6.051  11.075 -1.0568  2.0669 -0.3381
   50MOL0     H 6688  11.429   5.917  11.177  0.2423  0.0415  0.9220
   50MOL0     H 6689  11.316   6.096  11.312  1.0309  1.9827  1.2859
   50MOL0     H 6690  11.407   6.218  11.236 -1.0492  0.1330  0.4642
   50MOL0     H 6691  11.514   5.971  11.390 -0.1057 -1.5246 -3.5323
   50MOL0     H 6692  11.624   6.098  11.320 -0.7821  4.2838 -0.2715
   50MOL0     H 6693  11.519   6.272  11.460 -1.5600 -0.0008 -0.8945
   50MOL0     H 6694  11.386   6.162  11.503  0.5631  0.4509 -0.0529
   50MOL0     H 6695  11.574   6.019  11.626  0.3686  0.3532  0.9313
   50MOL0     H 6696  11.685   6.135  11.573  0.0005 -2.9509  0.9310
   50MOL0     H 6697  11.588   6.146  11.810 -0.0885 -1.8083 -1.0572
   50MOL0     H 6698  11.431   6.208  11.746 -0.1452 -1.7963  1.9758
   50MOL0     H 6699  11.591   6.390  11.637  1.5720 -0.5918 -0.5780
   50MOL0     H 6700  11.546   6.407  11.810 -0.9904  0.8538 -0.6802
   50MOL0     H 6701  11.744   6.296  11.985 -1.1369 -0.2650 -2.0427
   50MOL0     H 6702  12.108   6.410  11.952  1.7247 -0.7884  0.5642
   50MOL0     H 6703  11.995   6.330  12.065 -0.2452  1.2624 -0.2540
   50MOL0     H 6704  12.056   6.114  11.988 -0.7006  1.3414 -2.1173
   50MOL0     H 6705  12.196   6.170  11.889 -0.8021 -0.5746 -0.9546
   50MOL0     H 6706  12.164   6.221  12.180 -0.5525  0.5640  0.0969
   50MOL0     H 6707  12.275   6.312  12.079  2.2344 -0.4398  2.9300
   50MOL0     H 6708  12.381   6.076  12.034  3.2618  1.5797  1.3026
   50MOL0     H 6709  12.281   6.013  12.168  0.6720 -2.0081 -0.8246
   50MOL0     H 6710  12.485   5.899  12.198  0.3680 -0.6716 -0.4872
   50MOL0     H 6711  12.703   5.805  12.267 -1.1108 -0.5793  2.7230
   50MOL0     H 6712  13.201   5.846  12.373 -0.9405 -0.3515  0.7531
   50MOL0     H 6713  13.412   5.805  12.494 -1.3701 -0.8948  0.3286
   50MOL0     H 6714  13.489   5.656  12.650  0.5749 -1.1626  1.3127
   50MOL0     H 6715  13.626   5.769  12.643  1.6453 -0.4518  4.4716
   50MOL0     H 6716  13.624   5.754  12.890  0.3095  0.4948 -0.5696
   50MOL0     H 6717  13.490   5.638  12.886 -0.0197  0.2036  0.7390
   50MOL0     H 6718  13.688   5.504  12.732 -1.9229  0.0731 -0.2441
   50MOL0     H 6719  13.784   5.615  12.806 -1.1825  2.8266 -1.1764
   50MOL0     H 6720  13.594   5.461  12.989  1.2511 -2.2733  1.8235
   50MOL0     H 6721  13.736   5.563  13.030 -0.4633  1.0857  0.7913
   50MOL0     H 6722  13.901   5.397  12.958  0.3477 -0.3772  5.3158
   50MOL0     H 6723  13.791   5.314  12.861 -0.8010 -0.2288  0.2321
   50MOL0     H 6724  13.769   5.322  13.174 -1.2939 -0.4040  0.0479
   50MOL0     H 6725  13.662   5.241  13.064  0.0810  0.5186  0.6000
   50MOL0     H 6726  13.957   5.159  13.082  0.8504 -0.8255 -1.7926
   50MOL0     H 6727  13.840   5.105  12.966 -2.2274  1.4021 -0.2590
   50MOL0     H 6728  13.682   5.067  13.169 -0.0760 -0.1764  0.6665
   50MOL0     H 6729  13.782   4.935  13.118  0.4622 -0.2846  0.3924
   50MOL0     H 6730  13.253   5.996  12.836  0.0622  0.5094 -0.3598
   50MOL0     H 6731  13.036   6.044  12.712  0.3550 -1.5126  1.0535
   50MOL0     H 6732  12.834   6.188  12.400  2.9726 -0.8650 -0.2163
   50MOL0     H 6733  12.639   6.283  12.311  0.6749  0.8223 -0.5708
   50MOL0     H 6734  10.948   6.033  11.270 -2.8186  0.2170  0.6544
   50MOL0     H 6735  10.748   6.106  11.191  0.6134 -0.9432  0.3857
   50MOL0     H 6736  10.448   6.066  10.865 -0.1711 -0.4562  0.7740
   50MOL0     H 6737  10.213   6.093  10.828 -0.6272  1.9278 -2.1571
   50MOL0     H 6738  10.072   6.138  10.668  0.9550  1.8443 -2.3947
   50MOL0     H 6739   9.965   6.253  10.618  1.0668 -0.4846 -0.4560
   50MOL0     H 6740   9.949   6.132  10.907 -1.7158 -2.5013  0.2156
   50MOL0     H 6741   9.874   6.065  10.759  0.0830  1.8890 -1.0585
   50MOL0     H 6742   9.746   6.266  10.729 -2.5732 -3.3994  0.8396
   50MOL0     H 6743   9.836   6.347  10.874  1.1808 -1.3922  1.8136
   50MOL0     H 6744   9.748   6.188  11.015 -0.1225  2.0712  0.5724
   50MOL0     H 6745   9.633   6.301  10.948 -1.1369  0.1524 -0.5078
   50MOL0     H 6746   9.441   5.953  10.840  1.0789 -0.0621 -2.9201
   50MOL0     H 6747  10.258   6.517  10.810 -1.5384 -1.3805  1.0342
   50MOL0     H 6748  10.581   6.554  10.787 -0.2921 -0.1779 -0.6464
   50MOL0     H 6749  10.462   6.630  10.885 -0.0995 -1.2952 -0.0267
   50MOL0     H 6750  10.580   6.525  10.964  0.9650  1.2116 -1.1593
   51MOL0     O 6751   4.432   8.759   0.572 -0.1660  0.0892  0.5801
   51MOL0     C 6752   4.450   8.647   0.616 -0.6160 -0.5413  0.7489
   51MOL0     O 6753   4.559   8.608   0.699  0.0905  0.1343  0.3650
   51MOL0     C 6754   4.678   8.681   0.710 -0.7494  0.4032  0.4621
   51MOL0     C 6755   4.694   8.819   0.701  0.1400 -1.0441 -0.5017
   51MOL0     C 6756   4.823   8.882   0.732  0.1244 -0.9986  0.8936
   51MOL0     C 6757   4.937   8.798   0.772 -0.1300  0.6622 -0.2842
   51MOL0     O 6758   5.057   8.841   0.815 -0.5611  0.6962  0.1256
   51MOL0     C 6759   5.083   8.979   0.817 -0.6815 -0.8541  0.2528
   51MOL0     C 6760   5.236   9.011   0.843  0.1942  0.3951 -1.0786
   51MOL0     C 6761   5.255   9.156   0.840  0.6215  0.2038 -0.2203
   51MOL0     C 6762   5.396   9.204   0.808  0.6565 -0.0933 -0.0032
   51MOL0     C 6763   5.487   9.201   0.928  0.2190 -0.3085  0.4250
   51MOL0     C 6764   5.630   9.184   0.879  0.0830  0.2393  0.4539
   51MOL0     C 6765   5.738   9.154   0.986  0.1175 -0.1662 -0.1719
   51MOL0     C 6766   5.702   9.041   1.088  0.3663  0.1771  0.2391
   51MOL0     N 6767   5.795   9.023   1.204 -0.1483  0.9764 -0.1225
   51MOL0     C 6768   5.863   8.914   1.248 -0.1458  0.1970 -0.2533
   51MOL0     C 6769   5.891   8.931   1.376 -0.0138 -0.0273  0.0375
   51MOL0     C 6770   5.982   8.840   1.458  0.3213  0.9693 -0.2607
   51MOL0     C 6771   6.052   8.907   1.577  0.0612 -0.1669 -0.0596
   51MOL0     C 6772   6.146   8.826   1.665  0.4883 -0.5139  0.2783
   51MOL0     C 6773   6.285   8.813   1.608 -0.5560  0.9639 -0.8396
   51MOL0     O 6774   6.355   8.707   1.674  0.2238 -0.2311 -0.3010
   51MOL0     C 6775   6.477   8.670   1.628 -0.0022 -0.2642 -0.0850
   51MOL0     C 6776   6.517   8.682   1.496  0.1051 -0.5208  0.2297
   51MOL0     C 6777   6.636   8.616   1.449  0.9625  0.4118 -0.0703
   51MOL0     C 6778   6.722   8.557   1.537 -0.5552  0.2236 -0.1911
   51MOL0     C 6779   6.846   8.496   1.490  0.2048  0.4928  0.4068
   51MOL0     O 6780   6.926   8.417   1.580 -0.2119 -0.5126  0.1998
   51MOL0     C 6781   7.050   8.366   1.557 -0.5770 -0.4398  0.3880
   51MOL0     C 6782   7.104   8.342   1.425  1.2721  0.2229 -0.0584
   51MOL0     C 6783   7.235   8.288   1.405  0.5407  0.2684 -0.8146
   51MOL0     C 6784   7.311   8.263   1.523 -0.0139  0.1771  0.3061
   51MOL0     O 6785   7.433   8.202   1.513 -0.5357  0.2641  0.4674
   51MOL0     C 6786   7.527   8.278   1.436 -0.7039 -0.2436  0.0711
   51MOL0     C 6787   7.643   8.193   1.401 -0.2739  0.0345 -0.4399
   51MOL0     C 6788   7.750   8.281   1.334  0.5915  0.3863 -0.8343
   51MOL0     C 6789   7.876   8.200   1.292 -0.7409 -0.2248  0.3587
   51MOL0     C 6790   7.953   8.258   1.170  0.0715 -0.2607  0.1330
   51MOL0     C 6791   8.085   8.186   1.137 -0.2243  0.7325  0.6686
   51MOL0     C 6792   8.193   8.189   1.240 -0.3863  0.0417 -0.0472
   51MOL0     C 6793   8.323   8.130   1.183 -0.3636 -0.0202 -0.5164
   51MOL0    Cl 6794   8.434   8.254   1.133  0.1768 -0.0174  0.5722
   51MOL0     C 6795   7.247   8.272   1.648 -0.2037 -0.0824  0.2273
   51MOL0     C 6796   7.123   8.320   1.664  0.2234 -0.5013  0.8183
   51MOL0     O 6797   6.879   8.545   1.384  0.1313 -0.6351  0.2868
   51MOL0     C 6798   6.685   8.556   1.676  0.3100 -0.2488  0.4715
   51MOL0     C 6799   6.562   8.609   1.713  0.1323  0.2852  0.7809
   51MOL0     N 6800   5.854   9.059   1.402 -0.6896 -0.5610  0.1107
   51MOL0     N 6801   5.794   9.116   1.302 -0.4564  0.1188 -0.3214
   51MOL0     C 6802   4.910   8.664   0.797  0.3810  0.2938  0.3415
   51MOL0     C 6803   4.785   8.602   0.760 -0.1259 -0.1576  0.3978
   51MOL0     C 6804   4.339   8.555   0.601  0.4375  1.0111 -0.3629
   51MOL0     C 6805   4.202   8.591   0.636 -0.7403 -0.2088  0.2262
   51MOL0     C 6806   4.096   8.494   0.645 -0.9346  0.7378 -0.1125
   51MOL0     C 6807   4.115   8.362   0.614 -0.0695 -0.5020  1.1545
   51MOL0     O 6808   4.027   8.266   0.608 -0.0104 -0.0776 -0.0895
   51MOL0     C 6809   3.892   8.290   0.664  0.3762 -0.2096  0.3424
   51MOL0     C 6810   3.808   8.156   0.658 -0.3388 -1.0020  0.4147
   51MOL0     C 6811   3.655   8.185   0.674 -0.5163 -0.1912  0.3721
   51MOL0     C 6812   3.564   8.056   0.681  0.2947 -0.4548 -0.4108
   51MOL0     C 6813   3.512   8.042   0.829 -0.6322 -0.2666  0.2427
   51MOL0     C 6814   3.483   8.035   0.945  0.7400 -0.0473  0.2325
   51MOL0     C 6815   4.245   8.330   0.560  0.7353  0.2072  0.2255
   51MOL0     C 6816   4.352   8.423   0.553 -0.5523  0.2569 -0.7103
   51MOL0     C 6817   4.474   8.384   0.480 -0.3437  0.2669 -0.2116
   51MOL0     H 6818   4.605   8.875   0.672  1.8401  1.5097 -1.0714
   51MOL0     H 6819   4.821   8.989   0.719 -1.0049 -1.1326 -0.2781
   51MOL0     H 6820   5.064   9.021   0.718  2.5571  1.7118  0.5589
   51MOL0     H 6821   5.019   9.022   0.895  2.3331  3.1469  0.8387
   51MOL0     H 6822   5.304   8.962   0.773  1.0147 -2.3455  1.4169
   51MOL0     H 6823   5.258   8.981   0.946  0.3188 -0.6987 -1.4049
   51MOL0     H 6824   5.224   9.205   0.932 -1.7267  2.0675 -1.8735
   51MOL0     H 6825   5.190   9.197   0.762  0.3623  0.9264  0.3753
   51MOL0     H 6826   5.431   9.133   0.732 -2.2367 -0.2447 -1.3534
   51MOL0     H 6827   5.380   9.308   0.780 -0.2882  0.0134  0.8818
   51MOL0     H 6828   5.485   9.296   0.983 -0.3273  0.2037 -0.4630
   51MOL0     H 6829   5.466   9.119   0.997 -2.0763  1.1698  1.6119
   51MOL0     H 6830   5.633   9.096   0.814 -0.2690  1.5678 -1.4505
   51MOL0     H 6831   5.657   9.268   0.814  0.5864 -0.7272 -0.6118
   51MOL0     H 6832   5.745   9.250   1.038 -3.8771  1.2438 -1.8455
   51MOL0     H 6833   5.836   9.133   0.943  1.5698  0.5920  2.5057
   51MOL0     H 6834   5.600   9.055   1.125 -0.4308  0.4041 -1.9120
   51MOL0     H 6835   5.693   8.945   1.037  1.0054 -0.7168  1.7351
   51MOL0     H 6836   5.857   8.816   1.201 -3.2627 -0.6203  1.5973
   51MOL0     H 6837   5.926   8.760   1.507  3.2224 -0.7968  0.4457
   51MOL0     H 6838   6.060   8.798   1.394 -2.5630 -2.0468 -2.1253
   51MOL0     H 6839   6.107   8.988   1.528  2.1991 -0.2164  2.0791
   51MOL0     H 6840   5.976   8.960   1.636  1.5623  4.0623 -1.5444
   51MOL0     H 6841   6.093   8.731   1.654 -1.7069  0.8879 -2.8352
   51MOL0     H 6842   6.139   8.863   1.767 -0.5949  2.1427 -0.6470
   51MOL0     H 6843   6.349   8.899   1.628  1.3907 -0.0378 -2.3399
   51MOL0     H 6844   6.285   8.791   1.500  1.2502  1.0507 -0.8924
   51MOL0     H 6845   6.461   8.730   1.416  3.3262  0.7443 -1.4755
   51MOL0     H 6846   6.653   8.610   1.342  0.3204 -1.6215 -0.1067
   51MOL0     H 6847   7.047   8.376   1.340 -0.9723  0.3706  1.4253
   51MOL0     H 6848   7.264   8.271   1.302  0.4415 -0.1621 -0.7738
   51MOL0     H 6849   7.482   8.320   1.346  1.8692  1.4460 -0.5314
   51MOL0     H 6850   7.566   8.361   1.496 -1.4321  0.5877 -0.5886
   51MOL0     H 6851   7.685   8.156   1.495  2.5019  0.2089 -1.5242
   51MOL0     H 6852   7.626   8.105   1.338  1.5157 -0.4389 -0.3219
   51MOL0     H 6853   7.706   8.318   1.241 -2.0811  1.6993  0.8494
   51MOL0     H 6854   7.773   8.371   1.393  1.2799 -1.2899  1.5958
   51MOL0     H 6855   7.848   8.095   1.275 -0.6162 -0.1318 -0.4285
   51MOL0     H 6856   7.943   8.185   1.377 -2.1078 -5.0271  0.9015
   51MOL0     H 6857   7.980   8.364   1.176 -1.7050  0.2132  0.3023
   51MOL0     H 6858   7.879   8.251   1.090 -1.4889  0.6238  1.4423
   51MOL0     H 6859   8.057   8.083   1.113  0.9640 -0.0520  2.4124
   51MOL0     H 6860   8.124   8.232   1.046  0.6398 -0.3409  0.4647
   51MOL0     H 6861   8.164   8.125   1.325 -2.4006 -0.0159 -0.7198
   51MOL0     H 6862   8.206   8.293   1.270 -0.5147 -0.3556  1.4708
   51MOL0     H 6863   8.373   8.089   1.272 -3.7080  2.8678  3.0659
   51MOL0     H 6864   8.306   8.056   1.104 -0.0891  1.0403 -1.5933
   51MOL0     H 6865   7.301   8.246   1.738  1.7009 -0.4848 -0.9689
   51MOL0     H 6866   7.086   8.322   1.766 -0.6579 -0.1558  0.5012
   51MOL0     H 6867   6.747   8.518   1.757 -0.0030 -2.1265 -0.1248
   51MOL0     H 6868   6.520   8.574   1.806 -1.1758 -0.0093  0.1025
   51MOL0     H 6869   4.984   8.599   0.843 -0.0413 -0.0140  0.6029
   51MOL0     H 6870   4.761   8.498   0.779  0.6385 -0.1816  1.2805
   51MOL0     H 6871   4.182   8.695   0.660  1.4213  0.2090  0.4604
   51MOL0     H 6872   3.999   8.530   0.679  0.6930  4.5542  1.1186
   51MOL0     H 6873   3.835   8.362   0.605  0.5253 -1.1526 -1.0024
   51MOL0     H 6874   3.896   8.319   0.769 -2.1910  0.5768  0.2975
   51MOL0     H 6875   3.831   8.083   0.738  0.4911 -0.7816  0.3880
   51MOL0     H 6876   3.818   8.107   0.561 -1.3631  0.9452 -0.7165
   51MOL0     H 6877   3.632   8.246   0.587 -0.3958  0.7931  1.0214
   51MOL0     H 6878   3.638   8.246   0.763  1.7510 -0.6319  1.1925
   51MOL0     H 6879   3.482   8.049   0.610 -0.1630 -0.3444  0.0981
   51MOL0     H 6880   3.624   7.969   0.652  1.0271 -0.2816  0.5080
   51MOL0     H 6881   3.450   8.038   1.047  1.8673  3.6471  0.6464
   51MOL0     H 6882   4.257   8.227   0.527  1.0698  0.3384 -0.0757
   51MOL0     H 6883   4.476   8.463   0.405 -0.2988 -1.1837 -1.7879
   51MOL0     H 6884   4.561   8.378   0.546 -2.2641 -2.1796  2.3393
   51MOL0     H 6885   4.462   8.294   0.419  0.8838 -0.1280  0.0937
   52MOL0     O 6886   6.251   9.218   0.993 -0.1562  0.4170 -0.0997
   52MOL0     C 6887   6.246   9.235   0.869  0.6467 -0.5916 -0.6913
   52MOL0     O 6888   6.341   9.207   0.778 -0.4971  0.3361 -0.0804
   52MOL0     C 6889   6.461   9.158   0.825 -0.3199  0.4740  0.7895
   52MOL0     C 6890   6.486   9.014   0.795 -0.2186  0.5386 -0.6609
   52MOL0     C 6891   6.585   8.956   0.870 -0.1015  0.5374  0.4988
   52MOL0     C 6892   6.664   9.018   0.968 -0.1206 -0.2719  0.6351
   52MOL0     O 6893   6.770   8.971   1.041  0.5723  0.6807 -0.2835
   52MOL0     C 6894   6.750   8.833   1.098  0.0192  0.2967  0.4900
   52MOL0     C 6895   6.875   8.795   1.171  0.3145 -0.8176 -0.1937
   52MOL0     C 6896   6.901   8.886   1.296  0.8418 -0.5020 -0.1978
   52MOL0     C 6897   7.054   8.861   1.344  0.5094 -0.2807 -0.1951
   52MOL0     C 6898   7.096   8.948   1.465  0.0575  0.2936  0.0802
   52MOL0     C 6899   7.026   8.930   1.596  0.4683  0.3411 -0.5036
   52MOL0     C 6900   7.037   8.793   1.658  0.1784  0.4061  0.6369
   52MOL0     C 6901   6.999   8.798   1.806  0.5152  0.2853 -0.0190
   52MOL0     N 6902   7.047   8.675   1.873 -0.2568  0.3881 -0.5040
   52MOL0     C 6903   7.163   8.678   1.951 -0.3082  0.3028  0.2301
   52MOL0     C 6904   7.163   8.567   2.034  0.2541 -0.8236 -0.3174
   52MOL0     C 6905   7.262   8.545   2.143  0.0288  0.1028 -0.2596
   52MOL0     C 6906   7.362   8.423   2.124  0.0038  0.4587 -0.7023
   52MOL0     C 6907   7.478   8.437   2.229 -0.2365  0.5141 -0.2091
   52MOL0     C 6908   7.595   8.342   2.189 -0.0840  0.4549  0.2046
   52MOL0     O 6909   7.697   8.327   2.287 -0.2820 -0.4352  0.4508
   52MOL0     C 6910   7.826   8.372   2.278 -0.5515 -0.0005  1.2258
   52MOL0     C 6911   7.929   8.323   2.367  0.7901 -0.2653 -0.2050
   52MOL0     C 6912   8.057   8.347   2.353 -0.4027 -0.0257 -0.0665
   52MOL0     C 6913   8.101   8.428   2.250  0.4067  0.2869 -0.3461
   52MOL0     C 6914   8.242   8.455   2.231  0.8669 -0.0773 -0.7627
   52MOL0     O 6915   8.320   8.384   2.318 -0.4480  0.1094 -0.0714
   52MOL0     C 6916   8.444   8.430   2.327 -1.1358 -0.0652  0.0198
   52MOL0     C 6917   8.540   8.420   2.219  0.0251 -0.3573  0.0235
   52MOL0     C 6918   8.668   8.473   2.223  0.1607 -0.0498 -0.6827
   52MOL0     C 6919   8.704   8.550   2.342 -0.5389 -0.2596 -0.0862
   52MOL0     O 6920   8.835   8.591   2.352  0.0744 -0.7383  0.8546
   52MOL0     C 6921   8.898   8.610   2.482 -0.9425 -0.9652  0.3687
   52MOL0     C 6922   9.039   8.663   2.446  0.1793  0.1738  0.2033
   52MOL0     C 6923   9.133   8.684   2.562  0.4260  0.8995 -0.1487
   52MOL0     C 6924   9.269   8.718   2.512 -0.7708 -0.2538  0.7408
   52MOL0     C 6925   9.361   8.755   2.627 -0.3874  1.0429  0.6538
   52MOL0     C 6926   9.499   8.815   2.599 -0.2731 -0.4871  0.6301
   52MOL0     C 6927   9.587   8.839   2.726  0.5286  0.2471  0.1154
   52MOL0     C 6928   9.701   8.930   2.697  0.6733 -0.5883  0.0154
   52MOL0    Cl 6929   9.846   8.834   2.626  0.1235 -0.4317 -0.2625
   52MOL0     C 6930   8.611   8.560   2.453 -0.4423 -0.1713  0.3871
   52MOL0     C 6931   8.482   8.500   2.440 -0.3030 -0.0791 -0.1684
   52MOL0     O 6932   8.277   8.541   2.153 -0.5464  0.4140  0.3322
   52MOL0     C 6933   8.008   8.485   2.153 -0.2901  0.1040 -0.1351
   52MOL0     C 6934   7.868   8.451   2.165 -0.7205  0.7359  0.2496
   52MOL0     N 6935   7.046   8.504   2.012  0.4370  0.4732  0.1517
   52MOL0     N 6936   6.985   8.563   1.917  0.5747  0.1011  0.2234
   52MOL0     C 6937   6.633   9.149   0.996  0.1697 -0.1915  0.4073
   52MOL0     C 6938   6.535   9.225   0.922  0.0457  0.5316  0.0104
   52MOL0     C 6939   6.119   9.298   0.806  0.7377  0.0952 -0.6067
   52MOL0     C 6940   6.099   9.289   0.664 -0.6155 -0.1763 -1.0596
   52MOL0     C 6941   5.980   9.340   0.608  0.0600  0.4025  0.4329
   52MOL0     C 6942   5.885   9.407   0.679  0.9339 -0.3767 -0.2109
   52MOL0     O 6943   5.775   9.458   0.611 -0.0623  0.4444 -0.8150
   52MOL0     C 6944   5.696   9.569   0.654  0.0237  0.2561 -0.2447
   52MOL0     C 6945   5.619   9.623   0.537 -0.2925 -0.3111  0.1133
   52MOL0     C 6946   5.492   9.545   0.501 -0.4063 -0.5826 -0.8154
   52MOL0     C 6947   5.502   9.401   0.445 -0.3215  0.1697 -0.4902
   52MOL0     C 6948   5.539   9.402   0.306 -0.4097 -0.0948 -0.1675
   52MOL0     C 6949   5.589   9.398   0.192  0.5158  0.0450  0.7228
   52MOL0     C 6950   5.898   9.405   0.819  0.2621 -0.8401 -0.2424
   52MOL0     C 6951   6.016   9.363   0.882  0.1485  0.0008  0.3702
   52MOL0     C 6952   6.016   9.379   1.031 -0.5034  0.3114 -0.7216
   52MOL0     H 6953   6.424   8.949   0.734 -1.3814  0.5397  0.4765
   52MOL0     H 6954   6.607   8.850   0.867  1.4956  0.5024  5.1920
   52MOL0     H 6955   6.673   8.835   1.175  0.4190  2.5099  0.8755
   52MOL0     H 6956   6.718   8.764   1.019 -1.5475 -0.7632  1.9826
   52MOL0     H 6957   6.969   8.796   1.114  0.8632 -1.9595  0.6543
   52MOL0     H 6958   6.856   8.693   1.206  1.3020 -1.6143 -1.8183
   52MOL0     H 6959   6.831   8.856   1.375  2.2611 -1.0843  0.8815
   52MOL0     H 6960   6.886   8.991   1.269 -0.1085 -0.6709 -0.3576
   52MOL0     H 6961   7.073   8.757   1.369 -0.4581 -0.2688  0.6554
   52MOL0     H 6962   7.121   8.887   1.262  0.3145  2.2771  0.3593
   52MOL0     H 6963   7.201   8.917   1.469 -0.1031 -0.1845  0.6154
   52MOL0     H 6964   7.087   9.055   1.440 -2.4301 -0.1964 -1.4423
   52MOL0     H 6965   7.059   9.007   1.667  0.0116 -1.8221  2.2315
   52MOL0     H 6966   6.920   8.953   1.584  0.9372  2.0372 -1.8314
   52MOL0     H 6967   7.138   8.756   1.640 -0.6566 -1.9150  0.4404
   52MOL0     H 6968   6.973   8.721   1.606  0.0652  1.6986 -1.1335
   52MOL0     H 6969   7.048   8.885   1.852  2.8810 -0.9459 -0.0635
   52MOL0     H 6970   6.891   8.814   1.818  0.1474 -2.0571  0.2429
   52MOL0     H 6971   7.233   8.760   1.956 -0.7305  0.5761  2.4261
   52MOL0     H 6972   7.321   8.637   2.144  1.6669 -0.8505  1.8739
   52MOL0     H 6973   7.204   8.530   2.234  1.2327  1.7300  0.8410
   52MOL0     H 6974   7.300   8.334   2.142  0.4135 -0.1911 -2.3650
   52MOL0     H 6975   7.402   8.424   2.023  0.9468 -1.1659 -0.3849
   52MOL0     H 6976   7.450   8.412   2.332 -1.6844  2.2934 -0.1303
   52MOL0     H 6977   7.523   8.536   2.231  0.1806  0.3995  4.2379
   52MOL0     H 6978   7.627   8.365   2.087 -1.6710 -1.0043 -0.6819
   52MOL0     H 6979   7.557   8.239   2.183 -0.6010  0.7190 -3.9849
   52MOL0     H 6980   7.893   8.262   2.449 -0.9721  2.4269  1.1636
   52MOL0     H 6981   8.126   8.311   2.428 -0.1529 -0.8167 -0.6590
   52MOL0     H 6982   8.511   8.367   2.129  1.6414 -1.3051  0.0226
   52MOL0     H 6983   8.746   8.469   2.147  2.2293 -4.5495  1.3119
   52MOL0     H 6984   8.850   8.678   2.554  1.0039 -1.4315  2.2043
   52MOL0     H 6985   8.923   8.516   2.532  1.6844 -0.6719 -0.2775
   52MOL0     H 6986   9.087   8.580   2.392  0.4894  0.2348  0.3801
   52MOL0     H 6987   9.028   8.753   2.385 -1.4314  1.2986  2.0709
   52MOL0     H 6988   9.095   8.763   2.627  2.1619 -0.9258  3.3204
   52MOL0     H 6989   9.143   8.596   2.626 -1.1790  1.6451  1.1866
   52MOL0     H 6990   9.263   8.803   2.444 -0.2125 -0.5020  0.3753
   52MOL0     H 6991   9.307   8.630   2.459 -0.3903  0.5126 -0.2810
   52MOL0     H 6992   9.391   8.666   2.683  2.4887  1.3085 -0.2830
   52MOL0     H 6993   9.315   8.820   2.701 -1.4044  0.3983  0.6073
   52MOL0     H 6994   9.569   8.761   2.535  2.5184  1.3110  1.9533
   52MOL0     H 6995   9.498   8.912   2.547  0.8346 -1.8572 -2.1326
   52MOL0     H 6996   9.635   8.745   2.754  1.0567 -0.6784 -3.4141
   52MOL0     H 6997   9.516   8.877   2.800  0.6703  3.1311 -1.1189
   52MOL0     H 6998   9.670   9.019   2.642 -0.3448  0.3207  1.9708
   52MOL0     H 6999   9.749   8.962   2.790  2.6138 -2.0892 -0.4083
   52MOL0     H 7000   8.641   8.619   2.539  0.3926  2.8344 -1.7962
   52MOL0     H 7001   8.428   8.512   2.533 -1.4085 -0.8626 -0.6898
   52MOL0     H 7002   8.033   8.544   2.066 -0.0957 -1.5332 -1.2351
   52MOL0     H 7003   7.799   8.488   2.090  0.7916 -4.8296 -4.6197
   52MOL0     H 7004   6.690   9.211   1.064 -1.9108  4.3518 -1.5400
   52MOL0     H 7005   6.522   9.331   0.935 -0.9769  0.5082 -0.6995
   52MOL0     H 7006   6.172   9.233   0.607 -0.9359 -2.7456  0.8355
   52MOL0     H 7007   5.957   9.328   0.503  1.0320  0.3653  0.2128
   52MOL0     H 7008   5.773   9.637   0.692 -0.0630 -0.3436  1.0743
   52MOL0     H 7009   5.631   9.521   0.728  1.3015  1.2090  1.5717
   52MOL0     H 7010   5.677   9.628   0.445  1.2845 -2.6435  0.8992
   52MOL0     H 7011   5.580   9.725   0.549 -3.0990 -1.3972  1.2643
   52MOL0     H 7012   5.445   9.599   0.418  3.1572 -0.1837 -2.7635
   52MOL0     H 7013   5.430   9.538   0.591 -1.0167  3.7755 -0.6856
   52MOL0     H 7014   5.575   9.343   0.502  1.3526  1.5616 -1.1336
   52MOL0     H 7015   5.403   9.355   0.438 -0.0374 -0.5041 -0.2342
   52MOL0     H 7016   5.621   9.402   0.090 -2.2508 -1.3443 -0.3096
   52MOL0     H 7017   5.804   9.421   0.871 -1.0851  1.0942 -2.9863
   52MOL0     H 7018   6.104   9.431   1.070 -1.3281  1.7205 -0.6725
   52MOL0     H 7019   5.926   9.437   1.052  0.7134  1.8657  0.5402
   52MOL0     H 7020   6.025   9.278   1.074 -0.4677  0.5311 -0.2033
   53MOL0     O 7021   1.451   2.544  10.841 -0.1501 -0.6357 -0.0237
   53MOL0     C 7022   1.443   2.438  10.899  0.0223  0.5755  0.0991
   53MOL0     O 7023   1.546   2.370  10.955 -0.7686 -0.4479  0.3900
   53MOL0     C 7024   1.669   2.429  10.964 -0.7883 -0.3957  0.1584
   53MOL0     C 7025   1.735   2.490  10.857 -0.2688 -0.8523  0.3096
   53MOL0     C 7026   1.870   2.536  10.871 -0.3307 -0.2177  0.1837
   53MOL0     C 7027   1.940   2.524  10.996  0.4421  0.1115 -0.2672
   53MOL0     O 7028   2.058   2.575  10.998  0.0549 -0.0642  0.1674
   53MOL0     C 7029   2.144   2.519  11.092  0.1470 -0.2286  0.8927
   53MOL0     C 7030   2.281   2.575  11.062 -0.1383  0.0847 -0.3621
   53MOL0     C 7031   2.385   2.488  11.134 -1.4599 -0.1246 -0.2164
   53MOL0     C 7032   2.529   2.534  11.085  0.2431  0.2109  0.3490
   53MOL0     C 7033   2.634   2.456  11.164 -0.0731 -0.1446 -0.6947
   53MOL0     C 7034   2.765   2.472  11.107 -0.0664  0.1012  0.4528
   53MOL0     C 7035   2.874   2.423  11.204  0.2128  0.1909 -0.5928
   53MOL0     C 7036   3.013   2.435  11.149 -0.5414 -0.4035 -0.4447
   53MOL0     N 7037   3.119   2.377  11.232  0.2600  0.3201 -0.0635
   53MOL0     C 7038   3.259   2.372  11.206 -0.6658  0.1142 -0.5536
   53MOL0     C 7039   3.312   2.340  11.324 -0.7150  0.2358 -0.3334
   53MOL0     C 7040   3.460   2.314  11.363  0.3665  0.3601 -0.3565
   53MOL0     C 7041   3.467   2.283  11.513 -0.9469 -0.1424  0.4242
   53MOL0     C 7042   3.593   2.214  11.557  0.3568  0.2908 -0.6403
   53MOL0     C 7043   3.594   2.140  11.691  0.6424 -0.3271 -0.0885
   53MOL0     O 7044   3.724   2.089  11.707  0.2803 -0.0386  0.2096
   53MOL0     C 7045   3.747   1.962  11.655  0.0196 -0.7116 -0.1809
   53MOL0     C 7046   3.875   1.917  11.685 -0.3605  0.2718 -0.0836
   53MOL0     C 7047   3.911   1.789  11.639  0.2756 -0.1298 -0.5617
   53MOL0     C 7048   3.832   1.705  11.558 -0.3933  0.3303 -0.3087
   53MOL0     C 7049   3.873   1.572  11.517 -0.8972  0.2291 -0.1080
   53MOL0     O 7050   3.807   1.511  11.420 -1.0965 -0.5526 -0.8113
   53MOL0     C 7051   3.838   1.385  11.377 -0.5187  0.2309 -0.6478
   53MOL0     C 7052   3.778   1.281  11.448 -1.0858 -0.9555 -0.3920
   53MOL0     C 7053   3.796   1.154  11.401  0.2374 -0.1121 -0.0225
   53MOL0     C 7054   3.882   1.126  11.290 -0.0613  0.4897  0.1109
   53MOL0     O 7055   3.915   0.993  11.279  0.3259  0.2553 -0.5832
   53MOL0     C 7056   4.034   0.965  11.210 -0.0632  0.9945  0.0792
   53MOL0     C 7057   4.076   0.823  11.233  1.0699  0.1958  0.3955
   53MOL0     C 7058   4.215   0.785  11.199 -0.2088  0.3021  1.0436
   53MOL0     C 7059   4.242   0.797  11.045 -0.2726  0.6156 -0.0789
   53MOL0     C 7060   4.395   0.777  11.025  1.2790 -0.3744 -0.4497
   53MOL0     C 7061   4.439   0.810  10.883  0.4489  0.0746  0.2251
   53MOL0     C 7062   4.592   0.787  10.877 -0.7226  0.6081  0.0690
   53MOL0     C 7063   4.644   0.835  10.726 -0.2357 -0.1789 -0.7375
   53MOL0    Cl 7064   4.681   1.007  10.731  0.0653  0.4091 -0.5714
   53MOL0     C 7065   3.944   1.234  11.224  0.0671  0.0967 -0.6011
   53MOL0     C 7066   3.911   1.361  11.261 -0.2907 -0.0020 -0.1649
   53MOL0     O 7067   3.968   1.523  11.575  0.0902  0.1992 -0.1167
   53MOL0     C 7068   3.708   1.750  11.532 -0.4717  0.3163 -0.0446
   53MOL0     C 7069   3.664   1.878  11.577 -0.3375  0.3144  0.2448
   53MOL0     N 7070   3.211   2.336  11.420  0.5274  0.4148  0.3878
   53MOL0     N 7071   3.092   2.359  11.363  0.2251  0.2309  0.4331
   53MOL0     C 7072   1.867   2.478  11.105 -0.2479  0.5135  0.4408
   53MOL0     C 7073   1.737   2.433  11.090 -0.8699  0.4693 -1.3998
   53MOL0     C 7074   1.315   2.353  10.903 -0.4770 -0.5765  1.0781
   53MOL0     C 7075   1.305   2.243  10.989 -0.2515  0.1678  0.1078
   53MOL0     C 7076   1.187   2.172  11.008  0.2333 -0.1697 -0.0832
   53MOL0     C 7077   1.071   2.205  10.937 -0.0365 -0.2793 -0.3701
   53MOL0     O 7078   0.945   2.151  10.945 -0.2813  0.1149 -1.1436
   53MOL0     C 7079   0.890   2.098  11.069 -0.3115  0.7386 -0.1167
   53MOL0     C 7080   0.774   2.193  11.123 -0.6045 -0.2471  0.6981
   53MOL0     C 7081   0.676   2.235  11.011 -0.2486 -0.6521  0.2497
   53MOL0     C 7082   0.566   2.128  11.001  0.5094  0.5191 -0.9873
   53MOL0     C 7083   0.466   2.124  11.115 -0.2126 -0.6406  0.2623
   53MOL0     C 7084   0.377   2.096  11.197  0.1705  0.4281  1.1358
   53MOL0     C 7085   1.078   2.309  10.848  0.6507  0.3516 -0.1437
   53MOL0     C 7086   1.199   2.380  10.825 -0.0490 -0.8569  0.4687
   53MOL0     C 7087   1.196   2.494  10.723 -0.8698  0.6942  0.1058
   53MOL0     H 7088   1.694   2.497  10.757  1.9058  2.3696 -0.5078
   53MOL0     H 7089   1.922   2.583  10.789  3.8053 -1.0776  2.0777
   53MOL0     H 7090   2.129   2.539  11.199  0.8605  1.7089  0.6691
   53MOL0     H 7091   2.150   2.414  11.064  1.2301 -0.2794  1.2674
   53MOL0     H 7092   2.282   2.680  11.093 -1.3947  0.0925 -0.3254
   53MOL0     H 7093   2.303   2.566  10.956  2.7095  2.0195 -0.0458
   53MOL0     H 7094   2.373   2.381  11.117  0.5099 -0.3719 -0.2060
   53MOL0     H 7095   2.363   2.520  11.236 -0.5281 -0.0735 -0.0298
   53MOL0     H 7096   2.537   2.526  10.977  2.0463  2.8033  0.1942
   53MOL0     H 7097   2.537   2.640  11.111 -2.0919  0.3577  0.6926
   53MOL0     H 7098   2.637   2.497  11.265 -0.8876 -0.1640 -0.6521
   53MOL0     H 7099   2.617   2.348  11.162  1.4559 -0.4411  0.2856
   53MOL0     H 7100   2.761   2.433  11.004 -1.8471 -0.8867  0.8531
   53MOL0     H 7101   2.794   2.573  11.079 -1.1003  0.4507  0.6264
   53MOL0     H 7102   2.861   2.317  11.227 -1.0799  0.2321 -1.0794
   53MOL0     H 7103   2.877   2.482  11.296 -0.3128  0.1569 -0.5512
   53MOL0     H 7104   3.017   2.386  11.051 -3.3994 -0.2543 -0.7158
   53MOL0     H 7105   3.046   2.540  11.149 -0.2404 -0.4940  0.2439
   53MOL0     H 7106   3.316   2.378  11.114  0.1004 -1.7894 -0.2423
   53MOL0     H 7107   3.499   2.240  11.293  1.0174 -0.7231  1.0821
   53MOL0     H 7108   3.524   2.400  11.342  1.7590 -0.9227 -1.6289
   53MOL0     H 7109   3.449   2.373  11.573  2.2549  0.1766  1.1243
   53MOL0     H 7110   3.384   2.216  11.534  0.1738 -0.9804  2.4426
   53MOL0     H 7111   3.676   2.285  11.555  0.5763  0.0235 -1.5682
   53MOL0     H 7112   3.611   2.149  11.471  0.0401 -0.8495  0.1286
   53MOL0     H 7113   3.514   2.068  11.711  1.1843 -0.9755 -0.2414
   53MOL0     H 7114   3.578   2.216  11.768 -1.1141  0.5403 -1.2430
   53MOL0     H 7115   3.940   1.972  11.751 -0.5623 -0.2691  0.5778
   53MOL0     H 7116   4.010   1.752  11.660  0.8811  0.8900 -1.5218
   53MOL0     H 7117   3.716   1.287  11.537 -2.5916 -4.9734 -0.9887
   53MOL0     H 7118   3.738   1.074  11.445  1.9702 -2.0807 -1.1504
   53MOL0     H 7119   4.015   0.964  11.102  4.0090 -1.4783 -0.8030
   53MOL0     H 7120   4.117   1.031  11.236 -0.7724  1.3786  1.4622
   53MOL0     H 7121   4.061   0.805  11.340  0.8430  0.1707  0.3599
   53MOL0     H 7122   4.002   0.758  11.185  0.7328  0.3352  0.7203
   53MOL0     H 7123   4.280   0.851  11.257 -1.3878  0.6461  2.0104
   53MOL0     H 7124   4.242   0.684  11.230 -0.5394 -1.4426 -3.6612
   53MOL0     H 7125   4.211   0.894  11.005  0.2205  0.9331  0.2989
   53MOL0     H 7126   4.190   0.721  10.986  1.2332 -1.3024  0.9353
   53MOL0     H 7127   4.424   0.677  11.060  2.1635 -0.0819 -0.3235
   53MOL0     H 7128   4.447   0.846  11.093  1.3726 -0.6295 -0.2591
   53MOL0     H 7129   4.390   0.750  10.807  0.4224  1.2494 -0.7075
   53MOL0     H 7130   4.412   0.914  10.863  1.7613 -0.2859 -4.6708
   53MOL0     H 7131   4.607   0.682  10.903  1.3773  0.9801  0.5071
   53MOL0     H 7132   4.636   0.853  10.952  1.3249  0.7910 -1.2283
   53MOL0     H 7133   4.732   0.775  10.701  0.6727  0.4778  0.7405
   53MOL0     H 7134   4.571   0.820  10.646  0.8252  4.3088 -2.8401
   53MOL0     H 7135   4.014   1.214  11.144  0.8378 -2.0723  0.5267
   53MOL0     H 7136   3.947   1.451  11.212  0.9682 -0.3856  0.0244
   53MOL0     H 7137   3.642   1.692  11.468  0.2456  0.1642 -0.6630
   53MOL0     H 7138   3.561   1.907  11.557 -0.8528 -1.5988 -0.1524
   53MOL0     H 7139   1.931   2.463  11.191  1.4016 -0.3284 -0.8758
   53MOL0     H 7140   1.690   2.398  11.181  2.0095  0.1054  0.0434
   53MOL0     H 7141   1.392   2.218  11.049  1.2278 -2.7095 -2.9121
   53MOL0     H 7142   1.170   2.109  11.095 -4.0166  2.5658  1.4354
   53MOL0     H 7143   0.967   2.088  11.146 -0.6744  0.7566  0.2521
   53MOL0     H 7144   0.847   1.998  11.056 -0.5792  0.4125  2.6658
   53MOL0     H 7145   0.823   2.284  11.159 -0.2061 -0.5142  0.8395
   53MOL0     H 7146   0.731   2.132  11.203  3.3267 -2.6392  1.3195
   53MOL0     H 7147   0.725   2.246  10.914 -1.1558 -2.4765 -0.4772
   53MOL0     H 7148   0.630   2.330  11.036 -1.5745 -0.9087 -1.1109
   53MOL0     H 7149   0.503   2.137  10.913 -0.2273 -0.5165 -0.5863
   53MOL0     H 7150   0.613   2.029  10.996  0.4733  0.5208 -1.3200
   53MOL0     H 7151   0.294   2.067  11.257 -0.7105 -1.2475 -0.7606
   53MOL0     H 7152   0.994   2.318  10.780 -0.3837 -0.2421  1.0125
   53MOL0     H 7153   1.214   2.593  10.766  3.0703 -0.1871  0.9277
   53MOL0     H 7154   1.270   2.483  10.643 -1.5335 -1.0053 -0.3054
   53MOL0     H 7155   1.101   2.494  10.669 -0.5058 -2.4028 -0.7062
   54MOL0     O 7156   6.021  11.008  10.074 -0.1002 -0.4000  0.3200
   54MOL0     C 7157   6.028  11.099   9.990 -0.5407 -0.1773  0.2471
   54MOL0     O 7158   6.136  11.173   9.957  0.5167 -0.3815 -0.0963
   54MOL0     C 7159   6.252  11.160  10.030  0.4035 -0.4921  0.0725
   54MOL0     C 7160   6.246  11.175  10.167  0.2958  0.3213  0.5064
   54MOL0     C 7161   6.362  11.154  10.245  0.1042  0.0703  0.0811
   54MOL0     C 7162   6.477  11.097  10.192 -0.3755 -0.3124 -0.0332
   54MOL0     O 7163   6.581  11.073  10.274  0.6776  0.0224  0.2226
   54MOL0     C 7164   6.662  11.195  10.304  0.3554  0.4484  0.8305
   54MOL0     C 7165   6.645  11.258  10.442  0.0336 -0.3057  0.2710
   54MOL0     C 7166   6.702  11.162  10.545  0.9070 -0.1674  0.5463
   54MOL0     C 7167   6.725  11.228  10.684  0.4536  0.0186  0.0244
   54MOL0     C 7168   6.771  11.131  10.799 -1.0742 -0.2817  0.4710
   54MOL0     C 7169   6.911  11.078  10.777  0.5449  0.1545  0.1300
   54MOL0     C 7170   6.948  10.976  10.882 -0.2167  0.3733  0.1453
   54MOL0     C 7171   7.053  10.864  10.842  0.5035  0.4311 -0.2009
   54MOL0     N 7172   7.191  10.899  10.879 -0.1947  0.3345  1.2693
   54MOL0     C 7173   7.277  10.964  10.793  0.2613  0.0038 -0.4893
   54MOL0     C 7174   7.385  10.989  10.869 -0.8653  0.5470  0.6936
   54MOL0     C 7175   7.511  11.039  10.808  0.2360 -0.1429  0.0358
   54MOL0     C 7176   7.595  11.122  10.909  0.4329 -0.0657 -0.0197
   54MOL0     C 7177   7.730  11.156  10.850  0.4697 -0.2497  0.1681
   54MOL0     C 7178   7.794  11.265  10.929  0.6238 -0.3768  0.0347
   54MOL0     O 7179   7.877  11.326  10.832 -0.3105  0.1454  0.0879
   54MOL0     C 7180   7.984  11.404  10.873  0.2046 -1.5829  0.0570
   54MOL0     C 7181   8.044  11.487  10.777 -0.7376 -0.2304  0.4931
   54MOL0     C 7182   8.124  11.597  10.815 -1.0296  0.5350 -0.0925
   54MOL0     C 7183   8.156  11.615  10.953  0.3602 -0.2961  0.7587
   54MOL0     C 7184   8.238  11.729  10.995 -0.4198  0.7914 -0.0108
   54MOL0     O 7185   8.294  11.800  10.891 -0.1152  0.3996 -0.4217
   54MOL0     C 7186   8.377  11.907  10.917  0.2814 -0.4638 -0.1057
   54MOL0     C 7187   8.347  12.009  11.004 -0.4453 -0.2623  0.2548
   54MOL0     C 7188   8.433  12.117  11.021  0.3485 -0.3404  0.2254
   54MOL0     C 7189   8.559  12.118  10.962 -0.2854  1.1770  0.1896
   54MOL0     O 7190   8.648  12.219  10.995  0.1552  0.0251  0.1570
   54MOL0     C 7191   8.740  12.263  10.898 -0.5598 -0.2659  0.7097
   54MOL0     C 7192   8.799  12.392  10.953  0.1618  0.0193 -0.1318
   54MOL0     C 7193   8.919  12.381  11.041  0.4883  0.0851 -0.2368
   54MOL0     C 7194   9.044  12.333  10.968 -0.3933  0.0642  0.2796
   54MOL0     C 7195   9.168  12.344  11.053 -0.4479 -0.3390 -0.0830
   54MOL0     C 7196   9.277  12.257  10.995 -0.7235  0.5037  0.3265
   54MOL0     C 7197   9.391  12.226  11.093 -0.1717 -0.0980 -0.1010
   54MOL0     C 7198   9.345  12.106  11.178 -0.2991  0.0273 -0.1139
   54MOL0    Cl 7199   9.461  12.075  11.302 -0.2124  0.1189 -0.0480
   54MOL0     C 7200   8.581  12.018  10.868 -0.3928 -1.0265 -0.9576
   54MOL0     C 7201   8.493  11.912  10.851  0.5907 -0.3149  0.4859
   54MOL0     O 7202   8.252  11.751  11.112  0.5487 -0.0814  0.6955
   54MOL0     C 7203   8.109  11.524  11.044  0.3319 -0.4052 -0.1612
   54MOL0     C 7204   8.025  11.414  11.008  0.0083 -0.5404  0.9486
   54MOL0     N 7205   7.377  10.926  10.990 -0.2748 -0.8242  0.4279
   54MOL0     N 7206   7.251  10.885  11.006  0.1847 -0.4579  0.3065
   54MOL0     C 7207   6.478  11.079  10.054  0.0907 -0.2409 -0.9599
   54MOL0     C 7208   6.368  11.112   9.975  0.9679 -0.4288 -0.3962
   54MOL0     C 7209   5.892  11.137   9.926  0.2542  1.0197 -0.0047
   54MOL0     C 7210   5.774  11.112  10.002 -0.2108  0.1411  0.6701
   54MOL0     C 7211   5.652  11.133   9.944 -0.1038  0.5462  0.4451
   54MOL0     C 7212   5.641  11.179   9.817 -0.5454 -0.5907 -0.6004
   54MOL0     O 7213   5.524  11.179   9.747  0.7574 -0.0760  0.3184
   54MOL0     C 7214   5.394  11.161   9.804  1.0513 -0.2126  0.6716
   54MOL0     C 7215   5.297  11.158   9.682 -0.4001  0.7739  1.0605
   54MOL0     C 7216   5.140  11.172   9.699 -0.3878 -0.3855 -0.9701
   54MOL0     C 7217   5.071  11.130   9.569 -0.6620  0.6013  0.0350
   54MOL0     C 7218   5.089  10.983   9.546 -0.7475 -0.4622  0.2493
   54MOL0     C 7219   5.115  10.864   9.536 -0.5147 -0.0379 -0.0417
   54MOL0     C 7220   5.756  11.203   9.735  0.1447 -0.8063  0.0003
   54MOL0     C 7221   5.880  11.185   9.795 -0.6181 -0.3881  0.4886
   54MOL0     C 7222   6.004  11.195   9.704 -0.2962  0.0514 -0.2776
   54MOL0     H 7223   6.163  11.216  10.223  0.9949  0.8584  1.1866
   54MOL0     H 7224   6.351  11.152  10.353 -2.3873 -4.6701 -0.0064
   54MOL0     H 7225   6.764  11.170  10.273  0.1961  1.3470 -0.5072
   54MOL0     H 7226   6.643  11.272  10.229  0.3315 -1.2785 -1.0366
   54MOL0     H 7227   6.540  11.288  10.456  0.0251 -0.5153  0.6446
   54MOL0     H 7228   6.702  11.351  10.431  0.1547 -0.5456 -1.5105
   54MOL0     H 7229   6.802  11.129  10.514 -0.5359 -3.7541 -0.9090
   54MOL0     H 7230   6.642  11.071  10.553 -1.0201  0.5288 -3.5157
   54MOL0     H 7231   6.790  11.316  10.675  0.3558  0.1202  0.2987
   54MOL0     H 7232   6.625  11.257  10.715 -1.0642 -1.6228 -2.8839
   54MOL0     H 7233   6.772  11.192  10.890  1.2821 -0.2240  0.4681
   54MOL0     H 7234   6.705  11.043  10.799 -0.7537 -0.5269 -0.1186
   54MOL0     H 7235   6.916  11.039  10.675 -1.3574 -0.2421  0.1507
   54MOL0     H 7236   6.982  11.159  10.796  2.0744 -0.4364 -2.5283
   54MOL0     H 7237   6.861  10.919  10.916 -1.2021  2.4081  1.3079
   54MOL0     H 7238   6.982  11.021  10.976  0.1179 -5.0245  2.9846
   54MOL0     H 7239   7.034  10.778  10.906 -0.8067  2.0792  1.7540
   54MOL0     H 7240   7.037  10.836  10.738 -3.5082  2.0485 -0.1774
   54MOL0     H 7241   7.253  10.995  10.692  1.3049  1.4968 -0.3231
   54MOL0     H 7242   7.556  10.946  10.774 -1.4691 -1.0250  0.1226
   54MOL0     H 7243   7.491  11.110  10.727  0.9082 -1.9134 -1.7727
   54MOL0     H 7244   7.551  11.219  10.936 -0.4511 -0.0866 -1.3056
   54MOL0     H 7245   7.611  11.057  10.995  3.6236  1.4069  0.6535
   54MOL0     H 7246   7.711  11.184  10.746 -1.6746 -1.3619  0.2107
   54MOL0     H 7247   7.795  11.069  10.841  1.0339  0.2928 -1.4112
   54MOL0     H 7248   7.857  11.219  11.006  3.7773  5.0965  1.3398
   54MOL0     H 7249   7.727  11.344  10.965  1.6430  0.1142  0.9277
   54MOL0     H 7250   8.013  11.482  10.673 -1.9311  0.6306  0.7878
   54MOL0     H 7251   8.165  11.662  10.739  0.6656 -2.0245 -1.5066
   54MOL0     H 7252   8.241  12.016  11.028 -1.2437  0.4363 -3.0214
   54MOL0     H 7253   8.407  12.198  11.089  1.4512 -0.4363  0.7801
   54MOL0     H 7254   8.817  12.187  10.891 -2.2721 -1.8916 -3.3261
   54MOL0     H 7255   8.697  12.280  10.798 -2.7927 -0.8352  1.5143
   54MOL0     H 7256   8.819  12.456  10.867 -2.1820  2.2703  0.8691
   54MOL0     H 7257   8.730  12.451  11.014  2.0280  2.3398 -0.0998
   54MOL0     H 7258   8.945  12.476  11.088 -0.7721  0.2817  0.0737
   54MOL0     H 7259   8.895  12.310  11.120  1.3142 -1.5290 -1.3781
   54MOL0     H 7260   9.053  12.390  10.874 -0.7785  0.5641  0.5393
   54MOL0     H 7261   9.028  12.226  10.957 -0.4413  0.2075 -1.3540
   54MOL0     H 7262   9.158  12.307  11.155 -1.3287  1.0106  0.3408
   54MOL0     H 7263   9.203  12.447  11.066  1.6455 -1.0932  0.6870
   54MOL0     H 7264   9.240  12.165  10.948  1.3431 -0.1962 -0.0504
   54MOL0     H 7265   9.333  12.323  10.928  0.6945  1.0204  1.9502
   54MOL0     H 7266   9.407  12.322  11.142 -2.2065 -1.2522  3.1468
   54MOL0     H 7267   9.482  12.200  11.038 -0.2414  1.9134 -1.2971
   54MOL0     H 7268   9.252  12.130  11.230 -0.2865 -0.7928  0.3138
   54MOL0     H 7269   9.320  12.015  11.123  0.0946 -1.4466  1.9857
   54MOL0     H 7270   8.682  12.006  10.829  0.3881 -3.5554  1.5142
   54MOL0     H 7271   8.525  11.836  10.780  2.9390 -0.3232  1.4592
   54MOL0     H 7272   8.137  11.535  11.149  1.9649  1.6572 -0.7505
   54MOL0     H 7273   7.995  11.352  11.092  1.8246 -0.8480  1.4200
   54MOL0     H 7274   6.567  11.038  10.006 -0.3683 -1.5738 -0.7355
   54MOL0     H 7275   6.372  11.083   9.870  1.7614 -0.4821 -0.3525
   54MOL0     H 7276   5.775  11.079  10.105  3.3335  2.5467  1.5854
   54MOL0     H 7277   5.570  11.107  10.009  2.5290 -0.1598  3.7828
   54MOL0     H 7278   5.362  11.244   9.868  3.6060 -1.1608  3.4252
   54MOL0     H 7279   5.378  11.063   9.850  0.2082 -0.8393 -0.8493
   54MOL0     H 7280   5.322  11.072   9.619 -1.2669  2.1376 -1.2487
   54MOL0     H 7281   5.309  11.253   9.629 -1.6123  0.0102 -0.6462
   54MOL0     H 7282   5.109  11.275   9.720  1.1465 -0.2158  0.6956
   54MOL0     H 7283   5.111  11.122   9.791 -2.3227  0.9443 -0.8067
   54MOL0     H 7284   4.963  11.145   9.581 -1.6198 -3.9337 -0.9141
   54MOL0     H 7285   5.112  11.192   9.488 -1.6746 -0.5362 -1.4080
   54MOL0     H 7286   5.128  10.759   9.518  2.4778  0.3238 -0.4951
   54MOL0     H 7287   5.739  11.231   9.632  0.1658 -2.2881 -0.4392
   54MOL0     H 7288   6.071  11.279   9.726  1.1122 -1.3218  0.9055
   54MOL0     H 7289   6.060  11.103   9.716  1.5496  1.3636  2.1262
   54MOL0     H 7290   5.985  11.205   9.597  0.9849  1.2149 -0.4335
   55MOL0     O 7291   1.693   3.223   5.470  0.2401 -0.0008 -0.1192
   55MOL0     C 7292   1.681   3.186   5.353  0.4282 -0.7482  0.3873
   55MOL0     O 7293   1.764   3.097   5.286  0.5020 -0.1398  0.4930
   55MOL0     C 7294   1.861   3.024   5.344  0.7813  0.2067  0.3615
   55MOL0     C 7295   1.984   3.007   5.282  0.9274  0.1979 -0.5047
   55MOL0     C 7296   2.081   2.927   5.334  0.5517 -0.1507 -0.8232
   55MOL0     C 7297   2.054   2.848   5.446  0.1331 -0.4063  0.0426
   55MOL0     O 7298   2.137   2.760   5.506 -0.6441  0.2551  0.3739
   55MOL0     C 7299   2.275   2.762   5.471 -0.5186 -0.1772 -0.9345
   55MOL0     C 7300   2.357   2.661   5.547 -0.0584  0.3400  0.4343
   55MOL0     C 7301   2.509   2.680   5.538  0.3654 -1.2885 -0.1579
   55MOL0     C 7302   2.570   2.640   5.402 -0.9966  0.2713 -0.2926
   55MOL0     C 7303   2.726   2.661   5.419 -1.3223  0.6422  0.4139
   55MOL0     C 7304   2.799   2.609   5.289 -0.8016  0.9010  0.3989
   55MOL0     C 7305   2.947   2.610   5.312  0.1822  0.3829  0.1985
   55MOL0     C 7306   3.034   2.666   5.195 -0.6890 -0.1729  0.6578
   55MOL0     N 7307   3.171   2.692   5.250 -0.2326 -0.2984 -0.3721
   55MOL0     C 7308   3.283   2.606   5.244  0.2335  0.5194  0.3824
   55MOL0     C 7309   3.387   2.680   5.282  1.3143  0.8687  1.4009
   55MOL0     C 7310   3.523   2.616   5.307  0.6109 -0.1091 -0.0399
   55MOL0     C 7311   3.599   2.593   5.180  0.2170 -0.2499  0.0070
   55MOL0     C 7312   3.721   2.511   5.223 -0.3720 -0.6714 -0.4349
   55MOL0     C 7313   3.824   2.523   5.106  0.5000  0.7068 -0.5714
   55MOL0     O 7314   3.933   2.448   5.144 -0.5625 -0.0587 -0.1219
   55MOL0     C 7315   4.038   2.457   5.063  0.1934 -0.5886 -0.3049
   55MOL0     C 7316   4.054   2.559   4.961 -0.3218  0.2670 -1.4437
   55MOL0     C 7317   4.171   2.571   4.887  0.9480  0.3779 -0.1964
   55MOL0     C 7318   4.283   2.482   4.910  0.7574 -0.3330 -0.6681
   55MOL0     C 7319   4.405   2.475   4.827  0.0838  0.2831 -0.7241
   55MOL0     O 7320   4.437   2.354   4.781  0.5074  0.3417 -0.1649
   55MOL0     C 7321   4.558   2.329   4.710  0.8323 -0.2785 -0.4765
   55MOL0     C 7322   4.560   2.221   4.627  0.0428 -0.2119  0.4146
   55MOL0     C 7323   4.676   2.168   4.580  0.4085  0.0187  0.6561
   55MOL0     C 7324   4.805   2.230   4.608  0.5831  0.5007  0.5513
   55MOL0     O 7325   4.912   2.168   4.544 -0.4677  0.3259 -0.3503
   55MOL0     C 7326   5.043   2.244   4.567  0.1096  0.1810 -0.2360
   55MOL0     C 7327   5.157   2.209   4.477 -0.2225  0.3831  0.4171
   55MOL0     C 7328   5.160   2.065   4.434 -0.5757  0.3422 -0.1576
   55MOL0     C 7329   5.303   2.035   4.396 -0.3045  0.0529  0.0636
   55MOL0     C 7330   5.339   1.891   4.371  0.2602  0.6070 -0.4366
   55MOL0     C 7331   5.486   1.859   4.392 -0.2998 -1.0999  0.2965
   55MOL0     C 7332   5.512   1.708   4.393 -0.0218  0.6496  0.1260
   55MOL0     C 7333   5.648   1.649   4.428 -0.2659 -0.0308  0.4903
   55MOL0    Cl 7334   5.770   1.750   4.333 -0.2094 -0.1618 -0.0360
   55MOL0     C 7335   4.804   2.344   4.691 -0.1357  0.6402 -0.2052
   55MOL0     C 7336   4.683   2.388   4.743  0.4581  0.5339 -0.0355
   55MOL0     O 7337   4.462   2.579   4.796  0.6796 -0.0394 -0.4751
   55MOL0     C 7338   4.263   2.382   5.006 -0.0747  0.1567 -0.5557
   55MOL0     C 7339   4.142   2.372   5.080 -0.3265  0.3488  0.2216
   55MOL0     N 7340   3.341   2.812   5.310  0.2990 -0.2731  0.4728
   55MOL0     N 7341   3.215   2.812   5.297 -0.0384  0.0758 -0.2977
   55MOL0     C 7342   1.924   2.853   5.504 -0.2073 -0.0840 -0.1836
   55MOL0     C 7343   1.827   2.940   5.450 -0.1844 -0.8934  0.7925
   55MOL0     C 7344   1.576   3.246   5.263  0.5315 -0.2395  0.5389
   55MOL0     C 7345   1.538   3.176   5.144  0.2734  1.0436 -0.0093
   55MOL0     C 7346   1.443   3.233   5.054 -0.2292 -0.4458  0.2653
   55MOL0     C 7347   1.394   3.365   5.081 -0.3270 -0.5007  0.6159
   55MOL0     O 7348   1.299   3.420   4.994 -0.1282 -0.0250  0.4622
   55MOL0     C 7349   1.246   3.331   4.891  0.6192  0.0500 -0.6133
   55MOL0     C 7350   1.145   3.399   4.800 -1.0302 -0.1819  0.4166
   55MOL0     C 7351   1.204   3.461   4.678 -1.1901  0.6992  0.3626
   55MOL0     C 7352   1.262   3.361   4.574  0.5112 -0.0855 -0.7263
   55MOL0     C 7353   1.179   3.246   4.554 -0.2979 -0.5586 -0.2394
   55MOL0     C 7354   1.099   3.152   4.528  0.1325 -0.9001  1.1298
   55MOL0     C 7355   1.422   3.426   5.197 -0.2434 -0.0936  0.9982
   55MOL0     C 7356   1.510   3.368   5.290 -0.4325 -0.8387  0.9080
   55MOL0     C 7357   1.547   3.457   5.407 -0.5811 -0.2263 -0.3646
   55MOL0     H 7358   2.016   3.056   5.190  3.0687 -1.6213 -0.8081
   55MOL0     H 7359   2.170   2.908   5.274  0.3250  0.4793 -1.3704
   55MOL0     H 7360   2.284   2.734   5.366  1.7366  2.2519 -1.4995
   55MOL0     H 7361   2.317   2.862   5.485  3.1481 -1.6989  0.1821
   55MOL0     H 7362   2.332   2.560   5.513  1.0697  0.4158 -0.6998
   55MOL0     H 7363   2.322   2.677   5.649 -0.8880 -2.6202  0.7305
   55MOL0     H 7364   2.542   2.614   5.619 -2.5305 -1.3809  1.0464
   55MOL0     H 7365   2.541   2.780   5.568  0.4863  0.1481 -4.4211
   55MOL0     H 7366   2.546   2.535   5.382  0.8876 -0.3182  0.3675
   55MOL0     H 7367   2.533   2.703   5.321 -0.1902  0.7334 -0.3089
   55MOL0     H 7368   2.746   2.769   5.427 -0.7006  0.4230  2.2906
   55MOL0     H 7369   2.764   2.606   5.505  0.1666  2.7743  1.2129
   55MOL0     H 7370   2.768   2.508   5.264  0.7996  0.4998 -0.1012
   55MOL0     H 7371   2.770   2.665   5.200  0.1684  0.2161 -0.3728
   55MOL0     H 7372   2.977   2.506   5.324 -2.7575 -0.9882 -2.9814
   55MOL0     H 7373   2.969   2.677   5.396 -2.0350  0.6022  0.6588
   55MOL0     H 7374   3.054   2.606   5.106  0.4849  2.5208 -1.0018
   55MOL0     H 7375   2.998   2.764   5.164 -0.9953  0.7494  3.5956
   55MOL0     H 7376   3.273   2.498   5.237 -1.6145  0.7253 -0.9005
   55MOL0     H 7377   3.577   2.686   5.371  0.0294 -1.1124  1.6183
   55MOL0     H 7378   3.508   2.518   5.353 -0.9191  0.3917  0.6053
   55MOL0     H 7379   3.541   2.537   5.106 -0.8026 -1.2813  1.5106
   55MOL0     H 7380   3.633   2.685   5.132  0.0930 -0.3748 -0.3180
   55MOL0     H 7381   3.704   2.405   5.246  2.9318 -1.4876 -1.2189
   55MOL0     H 7382   3.766   2.553   5.313  1.5360 -0.4020 -1.4526
   55MOL0     H 7383   3.842   2.631   5.101  2.2686  0.8284  3.9846
   55MOL0     H 7384   3.782   2.479   5.015  1.3314  0.1930 -0.7135
   55MOL0     H 7385   3.971   2.623   4.934 -0.9880 -0.8387 -2.1022
   55MOL0     H 7386   4.183   2.656   4.822 -0.9623  1.1556  0.3997
   55MOL0     H 7387   4.465   2.172   4.609  0.2072  0.7607 -4.2748
   55MOL0     H 7388   4.670   2.085   4.510 -0.8775  2.3464 -2.2440
   55MOL0     H 7389   5.018   2.349   4.547 -2.6254 -0.3319  0.0257
   55MOL0     H 7390   5.063   2.244   4.674 -0.5031 -1.2003 -0.0917
   55MOL0     H 7391   5.152   2.265   4.383 -2.6760 -3.1076 -1.7904
   55MOL0     H 7392   5.249   2.240   4.528  0.1684  0.1518 -0.1334
   55MOL0     H 7393   5.140   2.006   4.524  2.2071 -0.8181 -0.2168
   55MOL0     H 7394   5.086   2.046   4.356  0.3546  2.7212 -1.7237
   55MOL0     H 7395   5.360   2.068   4.483 -2.3483 -2.1713  2.4070
   55MOL0     H 7396   5.336   2.102   4.316 -0.8840  0.6440  0.3161
   55MOL0     H 7397   5.300   1.871   4.271 -2.7711 -2.1872  1.1135
   55MOL0     H 7398   5.281   1.834   4.443 -0.2406 -1.7150 -2.5498
   55MOL0     H 7399   5.548   1.919   4.324  0.0305 -1.0872  0.6026
   55MOL0     H 7400   5.526   1.904   4.484  1.1583  2.0310 -1.7041
   55MOL0     H 7401   5.486   1.682   4.290  0.0159  2.2014 -0.3017
   55MOL0     H 7402   5.438   1.658   4.456  1.9476 -0.4861  1.6445
   55MOL0     H 7403   5.667   1.676   4.532  1.1599  3.6548 -0.5959
   55MOL0     H 7404   5.669   1.543   4.411  0.8692 -0.1462  2.3743
   55MOL0     H 7405   4.899   2.384   4.722 -0.0191 -1.0436  1.8039
   55MOL0     H 7406   4.676   2.472   4.812 -1.5925  1.9382 -1.8142
   55MOL0     H 7407   4.340   2.308   5.025  0.9157  0.7407 -2.0701
   55MOL0     H 7408   4.144   2.280   5.136  0.2629  0.8575  1.0576
   55MOL0     H 7409   1.892   2.796   5.591  2.0216  1.7305  1.9659
   55MOL0     H 7410   1.728   2.937   5.493 -0.5515  1.8896  0.3724
   55MOL0     H 7411   1.585   3.086   5.107 -2.0874 -0.2033 -0.1400
   55MOL0     H 7412   1.414   3.172   4.969 -2.6789  1.2437 -0.2332
   55MOL0     H 7413   1.206   3.245   4.947  0.1341  1.4613  1.3370
   55MOL0     H 7414   1.331   3.305   4.827 -0.4269  0.2690 -2.1202
   55MOL0     H 7415   1.108   3.485   4.856 -0.7747  0.0473  0.2398
   55MOL0     H 7416   1.062   3.329   4.782 -0.8399 -0.2511 -0.2394
   55MOL0     H 7417   1.277   3.539   4.699  0.5129 -0.8192  0.2736
   55MOL0     H 7418   1.126   3.520   4.628  1.5804  2.3675 -2.3498
   55MOL0     H 7419   1.273   3.418   4.481 -1.3008 -2.2928 -2.4076
   55MOL0     H 7420   1.367   3.340   4.596  0.2012 -0.3929  0.5482
   55MOL0     H 7421   1.027   3.074   4.514 -2.5110  0.8046  3.9460
   55MOL0     H 7422   1.387   3.526   5.220 -0.5376 -0.2548  1.2469
   55MOL0     H 7423   1.515   3.416   5.503 -0.2936  2.3324  0.9209
   55MOL0     H 7424   1.653   3.484   5.400 -0.5560 -0.5729 -1.6018
   55MOL0     H 7425   1.505   3.558   5.402  0.0103  0.0030 -0.8807
   56MOL0     O 7426  10.010   1.101   9.209  0.2016  0.0981 -0.2133
   56MOL0     C 7427  10.029   1.205   9.276  0.6837 -0.1851  0.2113
   56MOL0     O 7428  10.134   1.225   9.364  0.2736  0.4944  0.7325
   56MOL0     C 7429  10.241   1.141   9.372 -0.1774 -0.9266 -0.0505
   56MOL0     C 7430  10.270   1.008   9.318 -0.2874 -0.0641  0.5341
   56MOL0     C 7431  10.391   0.943   9.343 -0.7688 -0.1473  0.0582
   56MOL0     C 7432  10.488   1.004   9.420 -0.0863  0.0252 -0.0016
   56MOL0     O 7433  10.609   0.933   9.442 -0.0152  0.2013  0.5444
   56MOL0     C 7434  10.690   0.892   9.336 -0.2733 -0.0143 -0.0322
   56MOL0     C 7435  10.715   0.998   9.219 -0.3923 -0.3114 -0.3795
   56MOL0     C 7436  10.842   0.974   9.130 -0.0081  0.9475 -0.8244
   56MOL0     C 7437  10.832   0.847   9.045 -0.2778  0.5737 -0.1531
   56MOL0     C 7438  10.958   0.831   8.960 -0.3343 -0.8967  1.1305
   56MOL0     C 7439  10.958   0.710   8.871 -0.2965  0.0922 -0.0368
   56MOL0     C 7440  11.096   0.688   8.817  0.6068 -0.1580  0.2870
   56MOL0     C 7441  11.103   0.562   8.719 -0.0557 -0.3169 -0.0773
   56MOL0     N 7442  11.235   0.541   8.656  0.1046  0.0961 -0.8814
   56MOL0     C 7443  11.340   0.481   8.714 -1.1419 -0.1808 -0.1916
   56MOL0     C 7444  11.429   0.464   8.613 -0.3509 -0.4287  0.0436
   56MOL0     C 7445  11.553   0.379   8.616 -0.4647  1.1076  0.7437
   56MOL0     C 7446  11.503   0.230   8.605  0.1542 -0.0295 -0.8258
   56MOL0     C 7447  11.611   0.128   8.647 -0.3577  1.4042 -0.1060
   56MOL0     C 7448  11.552  -0.010   8.594 -0.1484  0.6462  0.4846
   56MOL0     O 7449  11.577  -0.024   8.461 -0.5363 -0.0253 -0.3452
   56MOL0     C 7450  11.706  -0.072   8.424 -0.3178  0.0313  0.2086
   56MOL0     C 7451  11.816  -0.079   8.503 -0.4825 -0.1678  0.0559
   56MOL0     C 7452  11.938  -0.112   8.453 -0.1641 -0.4208 -0.1033
   56MOL0     C 7453  11.953  -0.144   8.319 -0.2963 -0.5639  0.9108
   56MOL0     C 7454  12.085  -0.171   8.254 -0.3348  0.3370 -0.1947
   56MOL0     O 7455  12.194  -0.125   8.326  0.2567  0.4254 -0.8293
   56MOL0     C 7456  12.325  -0.166   8.295  0.0194 -0.0016 -0.8675
   56MOL0     C 7457  12.378  -0.237   8.186  0.5648  0.6714  0.3917
   56MOL0     C 7458  12.517  -0.249   8.172 -0.5667 -0.1969  0.1409
   56MOL0     C 7459  12.597  -0.208   8.275 -0.4245  0.4883 -0.9416
   56MOL0     O 7460  12.731  -0.227   8.249 -0.5183 -0.1532  0.3869
   56MOL0     C 7461  12.821  -0.233   8.356 -0.7544  0.2371  0.2351
   56MOL0     C 7462  12.951  -0.283   8.302 -0.7286  0.8411 -0.6830
   56MOL0     C 7463  13.057  -0.259   8.410 -0.4444  0.0935 -0.7971
   56MOL0     C 7464  13.193  -0.330   8.377  0.3779  0.6743  0.1497
   56MOL0     C 7465  13.284  -0.308   8.496 -0.5729 -0.3549  0.3664
   56MOL0     C 7466  13.417  -0.376   8.487 -0.5718  0.1572  0.1361
   56MOL0     C 7467  13.520  -0.344   8.596  0.9379 -1.0368  0.4063
   56MOL0     C 7468  13.607  -0.461   8.618  0.2127  0.1097  0.8555
   56MOL0    Cl 7469  13.722  -0.465   8.475 -0.2712 -0.3987 -0.1476
   56MOL0     C 7470  12.542  -0.153   8.391 -0.1853 -0.5400 -0.7515
   56MOL0     C 7471  12.407  -0.131   8.398 -0.7788  0.2463  0.0522
   56MOL0     O 7472  12.089  -0.217   8.141  0.1254 -0.3475 -0.5363
   56MOL0     C 7473  11.836  -0.158   8.235 -0.2062 -0.0903  0.3360
   56MOL0     C 7474  11.713  -0.111   8.290 -0.0014  0.6749  0.8883
   56MOL0     N 7475  11.382   0.540   8.513  0.9360  0.3608  0.1400
   56MOL0     N 7476  11.268   0.589   8.540  0.4507  0.3749 -0.7038
   56MOL0     C 7477  10.467   1.127   9.474 -0.7185  0.2126  0.0278
   56MOL0     C 7478  10.349   1.190   9.457  0.6603  0.1823 -0.8613
   56MOL0     C 7479   9.932   1.314   9.268  0.8290 -0.7798 -0.1577
   56MOL0     C 7480   9.970   1.435   9.330 -0.0593 -0.1540  0.2475
   56MOL0     C 7481   9.894   1.545   9.316 -0.4973 -0.3491 -0.1195
   56MOL0     C 7482   9.777   1.551   9.251 -0.2421  0.0300 -0.3230
   56MOL0     O 7483   9.711   1.670   9.250  0.0450  0.0637 -0.5556
   56MOL0     C 7484   9.567   1.665   9.281  0.0608  0.3218 -0.0975
   56MOL0     C 7485   9.508   1.562   9.384 -0.5645 -0.2827  0.6508
   56MOL0     C 7486   9.564   1.580   9.524  1.1453  0.2663  0.0366
   56MOL0     C 7487   9.521   1.441   9.590 -1.3326 -1.4971 -0.1749
   56MOL0     C 7488   9.540   1.467   9.736  0.0656  0.4075  0.4552
   56MOL0     C 7489   9.538   1.508   9.847 -0.5012  0.2853 -0.0015
   56MOL0     C 7490   9.730   1.435   9.186 -0.4015  0.1638 -0.1106
   56MOL0     C 7491   9.803   1.316   9.195 -0.0471 -0.3581  0.2809
   56MOL0     C 7492   9.747   1.196   9.125  0.3065 -0.1703 -0.2360
   56MOL0     H 7493  10.200   0.946   9.262  0.1297 -0.7672  0.7753
   56MOL0     H 7494  10.411   0.840   9.316 -1.3873 -0.0519 -0.8202
   56MOL0     H 7495  10.790   0.872   9.374 -0.8815 -2.3042  0.5657
   56MOL0     H 7496  10.652   0.795   9.301 -0.7892  1.2876 -3.4652
   56MOL0     H 7497  10.719   1.094   9.272  0.1041 -1.6208  2.1322
   56MOL0     H 7498  10.627   0.997   9.155  0.8215 -3.9755 -2.2867
   56MOL0     H 7499  10.933   0.959   9.189  1.5182  0.6072 -3.1349
   56MOL0     H 7500  10.860   1.051   9.054  0.3871  0.0836 -1.6359
   56MOL0     H 7501  10.810   0.764   9.113  1.7791  1.4493  1.7196
   56MOL0     H 7502  10.746   0.861   8.978  0.5393 -0.9483 -1.5838
   56MOL0     H 7503  10.966   0.919   8.896  2.9817 -0.9700  1.2791
   56MOL0     H 7504  11.050   0.845   9.017 -0.0100  1.0915  0.1974
   56MOL0     H 7505  10.923   0.630   8.937 -1.3381  1.9320  1.7739
   56MOL0     H 7506  10.892   0.732   8.787 -0.3910  0.5010  0.1426
   56MOL0     H 7507  11.172   0.685   8.896  2.0064  1.7554 -0.8920
   56MOL0     H 7508  11.108   0.782   8.763 -1.5344  0.6065  1.0419
   56MOL0     H 7509  11.072   0.471   8.772  0.8472 -0.6454 -0.0820
   56MOL0     H 7510  11.033   0.591   8.641  2.7796  1.5569 -2.1370
   56MOL0     H 7511  11.335   0.432   8.811 -1.8599  3.0055  1.5502
   56MOL0     H 7512  11.620   0.395   8.531 -0.8532 -1.4124 -0.1347
   56MOL0     H 7513  11.609   0.385   8.710  1.2350 -2.8952  0.2109
   56MOL0     H 7514  11.412   0.216   8.664 -1.0401  0.6885 -2.4369
   56MOL0     H 7515  11.479   0.213   8.500  0.5513 -1.6153 -0.6757
   56MOL0     H 7516  11.615   0.132   8.756 -1.0949  1.9848 -0.0875
   56MOL0     H 7517  11.708   0.148   8.602  0.3446 -0.3830  0.5421
   56MOL0     H 7518  11.446  -0.023   8.615 -0.9580 -0.6047 -3.5454
   56MOL0     H 7519  11.590  -0.093   8.654 -0.0643  0.4485  0.1624
   56MOL0     H 7520  11.819  -0.064   8.610  2.0056  0.4862 -0.0215
   56MOL0     H 7521  12.026  -0.126   8.514  0.1893 -0.2345 -0.5635
   56MOL0     H 7522  12.316  -0.288   8.114 -0.3407  1.3157  0.7031
   56MOL0     H 7523  12.556  -0.288   8.078  2.2066 -1.2359  1.6078
   56MOL0     H 7524  12.830  -0.135   8.405 -1.4883  1.5812 -2.1565
   56MOL0     H 7525  12.777  -0.302   8.428 -1.8466 -1.1629 -1.6905
   56MOL0     H 7526  12.959  -0.391   8.286 -0.5564 -0.1588  4.3859
   56MOL0     H 7527  12.980  -0.241   8.205 -0.3418 -1.2407 -1.5290
   56MOL0     H 7528  13.061  -0.151   8.426 -0.8189  0.6457 -3.7388
   56MOL0     H 7529  13.025  -0.299   8.506  0.9031  0.9579  0.0578
   56MOL0     H 7530  13.242  -0.294   8.287  1.6603 -1.7596 -0.2305
   56MOL0     H 7531  13.182  -0.439   8.378 -1.5033  0.8183  2.1569
   56MOL0     H 7532  13.224  -0.343   8.581  3.6731 -2.4818  2.8131
   56MOL0     H 7533  13.305  -0.203   8.515  0.0189 -0.3582 -0.2652
   56MOL0     H 7534  13.392  -0.483   8.488  2.4736 -0.7469 -2.6157
   56MOL0     H 7535  13.457  -0.349   8.389 -1.8783 -0.1725 -0.5177
   56MOL0     H 7536  13.463  -0.307   8.682 -1.0080 -1.5722 -0.5939
   56MOL0     H 7537  13.581  -0.260   8.562 -1.7677  1.0336  0.3699
   56MOL0     H 7538  13.655  -0.443   8.714 -3.1033 -1.0442  2.8946
   56MOL0     H 7539  13.564  -0.559   8.638  1.8300 -0.7906  0.1344
   56MOL0     H 7540  12.596  -0.115   8.477 -1.9007 -0.1032  0.1873
   56MOL0     H 7541  12.364  -0.083   8.486 -0.1389 -0.6355  0.8678
   56MOL0     H 7542  11.832  -0.194   8.133 -0.2198 -0.5572  0.5006
   56MOL0     H 7543  11.620  -0.112   8.233  0.3741 -1.1127  0.2321
   56MOL0     H 7544  10.547   1.173   9.531  0.2247 -1.9034  0.5408
   56MOL0     H 7545  10.324   1.275   9.520 -1.5320 -0.9605 -0.0973
   56MOL0     H 7546  10.064   1.450   9.383  2.3145 -2.0091 -3.0399
   56MOL0     H 7547   9.924   1.645   9.345  1.0326 -0.4990 -1.0664
   56MOL0     H 7548   9.518   1.644   9.185  2.3938 -2.5477 -0.8178
   56MOL0     H 7549   9.532   1.763   9.314 -2.7332 -1.2931  2.2160
   56MOL0     H 7550   9.529   1.462   9.345  0.4759 -0.6133  1.9959
   56MOL0     H 7551   9.399   1.574   9.393 -0.7506 -3.1016  3.6632
   56MOL0     H 7552   9.503   1.663   9.562 -2.0059 -0.2813 -3.1904
   56MOL0     H 7553   9.672   1.595   9.526  1.4336 -1.5889  0.3314
   56MOL0     H 7554   9.414   1.424   9.576 -1.7193 -0.5673  1.4375
   56MOL0     H 7555   9.587   1.361   9.555 -0.4368 -0.9272  0.1853
   56MOL0     H 7556   9.520   1.560   9.940 -1.5610 -1.1301  0.6243
   56MOL0     H 7557   9.645   1.455   9.121  1.2606  3.4759 -1.5521
   56MOL0     H 7558   9.672   1.225   9.051 -0.7285 -2.7274 -0.2799
   56MOL0     H 7559   9.828   1.155   9.065  0.0290  1.9151 -2.1497
   56MOL0     H 7560   9.682   1.135   9.189 -0.8644  1.4471  0.1876
   57MOL0     O 7561   6.829   3.362   0.973  0.0838 -0.1930 -0.1375
   57MOL0     C 7562   6.767   3.461   0.934  0.5612  0.1131  0.5199
   57MOL0     O 7563   6.818   3.577   0.892 -0.0032 -0.1148  0.0338
   57MOL0     C 7564   6.943   3.613   0.925 -0.0078 -0.3365  0.0644
   57MOL0     C 7565   7.000   3.594   1.051  0.6578 -0.8400  0.4362
   57MOL0     C 7566   7.120   3.658   1.088 -0.0301 -0.4050 -0.4062
   57MOL0     C 7567   7.189   3.742   0.996  0.5912 -0.0333 -0.2465
   57MOL0     O 7568   7.311   3.800   1.028 -0.6558 -0.3456  0.7769
   57MOL0     C 7569   7.359   3.916   0.961  0.8878 -0.8473  0.4702
   57MOL0     C 7570   7.506   3.905   0.951  0.2007 -0.6657 -0.2427
   57MOL0     C 7571   7.562   4.032   0.880  0.2818  0.0283  1.1589
   57MOL0     C 7572   7.704   4.012   0.836 -0.6857 -0.4846 -0.4439
   57MOL0     C 7573   7.771   4.148   0.810  0.0319  0.0528  0.1442
   57MOL0     C 7574   7.919   4.129   0.766  0.6827 -0.3664 -0.4537
   57MOL0     C 7575   7.997   4.265   0.767  0.1417 -0.7239 -0.4714
   57MOL0     C 7576   8.143   4.242   0.713 -0.2740  0.0796 -0.7006
   57MOL0     N 7577   8.209   4.368   0.679 -0.5174 -0.2125  0.5024
   57MOL0     C 7578   8.257   4.460   0.771 -0.4634  0.4860  0.1680
   57MOL0     C 7579   8.324   4.553   0.696 -0.0773 -0.1997 -0.1146
   57MOL0     C 7580   8.386   4.686   0.730 -0.2634  0.0248 -0.8409
   57MOL0     C 7581   8.539   4.678   0.753 -0.3722 -0.2310 -0.6864
   57MOL0     C 7582   8.607   4.810   0.784  0.8921  0.0026 -0.0049
   57MOL0     C 7583   8.745   4.796   0.822  0.2364 -0.0814 -0.8552
   57MOL0     O 7584   8.825   4.717   0.727  0.2555  0.1910 -0.2155
   57MOL0     C 7585   8.963   4.722   0.733  0.4555 -0.1004 -0.2604
   57MOL0     C 7586   9.033   4.763   0.848  0.1573  0.1965 -0.0393
   57MOL0     C 7587   9.175   4.771   0.856 -0.5047 -0.2806 -0.1280
   57MOL0     C 7588   9.248   4.760   0.731 -0.4222 -0.1463 -0.5055
   57MOL0     C 7589   9.398   4.774   0.725 -1.2067  0.3531 -0.6851
   57MOL0     O 7590   9.468   4.765   0.602  0.6941 -0.2083  1.0983
   57MOL0     C 7591   9.602   4.795   0.594  0.9222 -0.5852 -0.1623
   57MOL0     C 7592   9.654   4.919   0.638 -0.2842 -0.3100 -0.3682
   57MOL0     C 7593   9.790   4.939   0.634 -0.1141 -0.2316  0.9330
   57MOL0     C 7594   9.882   4.839   0.587 -0.3197  0.2089 -0.1604
   57MOL0     O 7595  10.016   4.848   0.603 -0.5509 -0.4916  0.6470
   57MOL0     C 7596  10.103   4.736   0.581  0.5416  0.8011  0.4441
   57MOL0     C 7597  10.247   4.763   0.632  0.8274 -0.1767  0.2383
   57MOL0     C 7598  10.331   4.850   0.539 -0.5771 -0.7717  0.9212
   57MOL0     C 7599  10.470   4.879   0.594 -0.2485 -0.1466 -0.7685
   57MOL0     C 7600  10.564   4.950   0.499  0.5798  0.0952 -0.4196
   57MOL0     C 7601  10.677   5.029   0.568 -0.0162  0.0708 -0.1448
   57MOL0     C 7602  10.795   4.938   0.565 -0.2701  0.2512 -0.4745
   57MOL0     C 7603  10.906   4.981   0.671 -0.4575  0.3518  0.0657
   57MOL0    Cl 7604  10.963   5.155   0.643 -0.2535  0.3029  0.2246
   57MOL0     C 7605   9.821   4.718   0.534 -0.9242  0.0715 -1.0511
   57MOL0     C 7606   9.684   4.698   0.540  0.5491  0.0678 -0.3413
   57MOL0     O 7607   9.453   4.810   0.830  0.3092  0.5884  0.1312
   57MOL0     C 7608   9.172   4.715   0.623 -0.3275 -0.6915 -0.0948
   57MOL0     C 7609   9.035   4.696   0.627 -0.1451 -0.0090  0.6032
   57MOL0     N 7610   8.306   4.515   0.557 -0.2178  0.2437 -0.0549
   57MOL0     N 7611   8.245   4.397   0.549 -0.2782 -0.7100 -0.5630
   57MOL0     C 7612   7.144   3.735   0.864 -1.1660  0.0508  0.0075
   57MOL0     C 7613   7.016   3.685   0.827 -1.0402  0.5454 -0.4838
   57MOL0     C 7614   6.619   3.460   0.901  0.9841  0.1810 -0.4797
   57MOL0     C 7615   6.555   3.579   0.878  0.0442  0.1822 -0.1078
   57MOL0     C 7616   6.418   3.586   0.836  0.0639  0.4973 -0.0668
   57MOL0     C 7617   6.344   3.473   0.822 -0.3454 -0.2244 -0.1542
   57MOL0     O 7618   6.218   3.486   0.770  0.4707  0.4650 -0.3847
   57MOL0     C 7619   6.116   3.394   0.820  0.4005 -0.0606  0.5689
   57MOL0     C 7620   5.989   3.424   0.747  0.1471  0.3704  0.2788
   57MOL0     C 7621   5.859   3.357   0.802  0.9316 -0.2237  0.5561
   57MOL0     C 7622   5.735   3.349   0.703  0.0120 -0.1001 -0.7446
   57MOL0     C 7623   5.635   3.260   0.760  0.4381 -0.5135  0.2113
   57MOL0     C 7624   5.553   3.190   0.812 -0.3337 -0.7570  0.4749
   57MOL0     C 7625   6.402   3.348   0.861 -0.3595  0.4286  0.3387
   57MOL0     C 7626   6.541   3.339   0.889  0.6585 -0.7274  0.2135
   57MOL0     C 7627   6.590   3.196   0.911 -0.2171 -0.5049 -0.0289
   57MOL0     H 7628   6.944   3.547   1.130 -1.1211  0.6382  0.1192
   57MOL0     H 7629   7.151   3.652   1.192  1.0948  1.1570 -0.6117
   57MOL0     H 7630   7.307   3.933   0.866  1.5734 -0.8747  0.0843
   57MOL0     H 7631   7.334   4.004   1.021  2.2609 -0.5076  0.5645
   57MOL0     H 7632   7.529   3.813   0.898 -0.5159 -0.3416 -1.1323
   57MOL0     H 7633   7.550   3.914   1.051  1.5721 -0.1580 -0.8636
   57MOL0     H 7634   7.559   4.122   0.941 -0.9430  2.9427 -2.8013
   57MOL0     H 7635   7.501   4.063   0.795  1.9841 -0.1699 -0.1924
   57MOL0     H 7636   7.755   3.960   0.917 -2.2183 -1.0037  0.2161
   57MOL0     H 7637   7.715   3.956   0.742 -1.4776  0.1928 -0.9547
   57MOL0     H 7638   7.723   4.194   0.724  1.8121 -0.0116 -0.9418
   57MOL0     H 7639   7.761   4.227   0.885  1.2498  1.1568 -0.8003
   57MOL0     H 7640   7.971   4.059   0.832  0.4872  2.5987  3.1515
   57MOL0     H 7641   7.920   4.087   0.665  1.6561  0.9276 -1.0185
   57MOL0     H 7642   8.012   4.309   0.866 -1.6157 -1.6715  0.2630
   57MOL0     H 7643   7.947   4.335   0.700 -2.6103 -1.6419  0.4708
   57MOL0     H 7644   8.189   4.185   0.794 -1.7926  2.5034  2.0882
   57MOL0     H 7645   8.151   4.183   0.622  2.1340 -0.5235 -0.1803
   57MOL0     H 7646   8.240   4.468   0.878 -1.7822  0.8784 -0.0478
   57MOL0     H 7647   8.374   4.753   0.644 -1.4119  0.4909 -0.3344
   57MOL0     H 7648   8.331   4.729   0.814  0.2896  0.3636 -0.6450
   57MOL0     H 7649   8.562   4.602   0.828 -1.1545  0.6970  0.5498
   57MOL0     H 7650   8.574   4.637   0.658  0.5001 -0.6907 -0.1789
   57MOL0     H 7651   8.552   4.853   0.868  2.3370 -0.0356  0.9989
   57MOL0     H 7652   8.603   4.878   0.698  2.0768 -0.0747 -0.1339
   57MOL0     H 7653   8.739   4.745   0.918 -0.6887  1.5862  0.0115
   57MOL0     H 7654   8.789   4.896   0.834  0.7123 -0.4493  0.5998
   57MOL0     H 7655   8.983   4.799   0.937 -0.0346 -1.0158  0.3610
   57MOL0     H 7656   9.219   4.775   0.955 -2.3143 -1.5649  0.7917
   57MOL0     H 7657   9.584   4.989   0.681 -1.8219 -0.6115 -2.2297
   57MOL0     H 7658   9.845   5.026   0.666  1.1302 -0.8179  0.4588
   57MOL0     H 7659  10.065   4.650   0.636  1.3128  0.1662  0.0135
   57MOL0     H 7660  10.107   4.709   0.475 -1.9320  3.9125 -0.5958
   57MOL0     H 7661  10.240   4.815   0.728  0.8149  0.6194 -0.1871
   57MOL0     H 7662  10.301   4.670   0.647  2.0031  0.4392 -0.1106
   57MOL0     H 7663  10.337   4.784   0.453 -0.8098 -0.8463  0.9606
   57MOL0     H 7664  10.276   4.944   0.526  0.0935 -0.5092 -0.1423
   57MOL0     H 7665  10.525   4.791   0.628  2.7648  0.5176 -3.3760
   57MOL0     H 7666  10.450   4.951   0.674  0.0737 -0.8864 -0.0060
   57MOL0     H 7667  10.498   5.018   0.445 -0.6334  0.0489  0.9409
   57MOL0     H 7668  10.591   4.873   0.427 -5.7299 -1.4617 -1.6624
   57MOL0     H 7669  10.688   5.118   0.506 -1.0345  0.5991  0.4135
   57MOL0     H 7670  10.653   5.057   0.671 -1.7346 -0.2955 -0.4240
   57MOL0     H 7671  10.843   4.928   0.468  3.4384  1.2597  1.0965
   57MOL0     H 7672  10.762   4.835   0.582  0.3355  0.0083 -0.7575
   57MOL0     H 7673  10.851   4.970   0.765  0.1829  0.8981  0.5282
   57MOL0     H 7674  10.995   4.918   0.681 -2.3010 -2.0494  2.9182
   57MOL0     H 7675   9.879   4.632   0.502 -1.3760 -1.1499  1.2710
   57MOL0     H 7676   9.629   4.606   0.522  2.7680 -1.3186 -0.3246
   57MOL0     H 7677   9.230   4.713   0.531  0.7302 -1.6810  0.5668
   57MOL0     H 7678   8.998   4.651   0.536  0.8476 -0.2522  0.3019
   57MOL0     H 7679   7.210   3.777   0.789 -0.2921 -0.0789  0.6925
   57MOL0     H 7680   6.971   3.681   0.728  1.2849 -1.3951 -1.5434
   57MOL0     H 7681   6.600   3.678   0.879  0.3965  0.0305 -0.5197
   57MOL0     H 7682   6.368   3.678   0.809 -0.6054  0.5798  1.3385
   57MOL0     H 7683   6.089   3.413   0.924  0.1256  0.1969  0.4545
   57MOL0     H 7684   6.141   3.289   0.804  0.4909  0.2343 -1.5229
   57MOL0     H 7685   6.008   3.391   0.644 -0.8604 -2.3779  0.9055
   57MOL0     H 7686   5.969   3.532   0.745 -0.8360  0.1870 -1.2831
   57MOL0     H 7687   5.823   3.415   0.887 -2.7388 -0.5943 -0.5709
   57MOL0     H 7688   5.889   3.255   0.827  2.2756 -0.2202 -0.9009
   57MOL0     H 7689   5.696   3.448   0.677  0.1629  0.7528  2.0002
   57MOL0     H 7690   5.773   3.298   0.613 -2.0790 -1.5018 -0.8926
   57MOL0     H 7691   5.484   3.124   0.860 -0.6660  0.2971  1.4944
   57MOL0     H 7692   6.337   3.263   0.843 -1.8600  1.3733  1.0401
   57MOL0     H 7693   6.505   3.132   0.935 -2.2871  2.1296  0.1059
   57MOL0     H 7694   6.631   3.164   0.815  0.7643  1.0391 -0.1686
   57MOL0     H 7695   6.667   3.185   0.988 -0.5077  0.0905  0.3550
   58MOL0     O 7696   1.264   7.345   7.290  0.1966 -0.0216 -0.4137
   58MOL0     C 7697   1.265   7.312   7.174 -0.1361  0.9638  0.1581
   58MOL0     O 7698   1.375   7.270   7.105  0.0426  0.4131 -0.0124
   58MOL0     C 7699   1.494   7.247   7.172 -0.1553  0.8266  0.0219
   58MOL0     C 7700   1.615   7.282   7.107  0.3635 -0.4817 -0.3027
   58MOL0     C 7701   1.734   7.244   7.165 -0.6847  0.0267  0.3266
   58MOL0     C 7702   1.741   7.166   7.281 -0.3917 -0.4294  0.6309
   58MOL0     O 7703   1.861   7.121   7.317 -0.3497 -0.0141 -0.5400
   58MOL0     C 7704   1.901   7.102   7.450  0.3667 -0.1566  0.1528
   58MOL0     C 7705   2.034   7.167   7.477  1.2369  0.2989 -0.1955
   58MOL0     C 7706   2.073   7.175   7.627  0.7800 -0.2099  0.2110
   58MOL0     C 7707   2.048   7.043   7.707 -0.2965 -0.5585  0.4422
   58MOL0     C 7708   2.130   7.059   7.838 -0.1714 -0.4998  0.5304
   58MOL0     C 7709   2.108   6.949   7.936 -0.5736 -0.0885 -0.1498
   58MOL0     C 7710   2.200   6.983   8.062 -0.2502  0.1469 -0.4320
   58MOL0     C 7711   2.126   7.059   8.178  0.3163 -0.0751  0.9659
   58MOL0     N 7712   2.214   7.104   8.286 -0.4607  0.5119 -0.3295
   58MOL0     C 7713   2.312   7.204   8.273  0.6834 -0.7674 -0.7074
   58MOL0     C 7714   2.377   7.201   8.394  0.3202  0.7911 -1.1157
   58MOL0     C 7715   2.490   7.297   8.427 -0.0630  0.1241 -0.2704
   58MOL0     C 7716   2.590   7.265   8.545  0.7475  0.8557 -0.1916
   58MOL0     C 7717   2.712   7.359   8.544 -0.5570 -0.1411 -0.4164
   58MOL0     C 7718   2.801   7.346   8.659 -0.7218  0.6747  0.0820
   58MOL0     O 7719   2.912   7.437   8.662  0.2888 -0.3108  0.0403
   58MOL0     C 7720   3.018   7.430   8.755 -0.0125  1.4156 -0.2205
   58MOL0     C 7721   3.033   7.325   8.850 -0.6623  0.7731  0.1829
   58MOL0     C 7722   3.157   7.311   8.910  0.3579  0.2577 -1.0138
   58MOL0     C 7723   3.259   7.408   8.902  0.1155  0.2112  0.2600
   58MOL0     C 7724   3.389   7.385   8.980  0.6026  1.1932  0.5075
   58MOL0     O 7725   3.468   7.492   8.997 -0.4589 -0.2597  0.3219
   58MOL0     C 7726   3.591   7.468   9.048  0.5446  0.7453  0.5153
   58MOL0     C 7727   3.690   7.386   8.988 -0.0498  0.9813  0.1881
   58MOL0     C 7728   3.823   7.385   9.024 -1.2298 -0.6396 -0.6054
   58MOL0     C 7729   3.863   7.476   9.133 -0.4644 -0.3374 -0.1722
   58MOL0     O 7730   3.995   7.493   9.167 -0.2979  0.1002 -0.2030
   58MOL0     C 7731   4.073   7.543   9.062 -0.0053  0.5196  0.5898
   58MOL0     C 7732   4.215   7.512   9.101 -0.0788  0.4306 -0.4898
   58MOL0     C 7733   4.260   7.364   9.073  0.8394  0.4037  0.5119
   58MOL0     C 7734   4.398   7.346   9.135  0.5503  0.3088 -0.6379
   58MOL0     C 7735   4.477   7.226   9.083 -0.1350  1.0666  0.1124
   58MOL0     C 7736   4.617   7.208   9.157 -0.1455  0.4342  0.0892
   58MOL0     C 7737   4.693   7.083   9.098 -0.1054 -0.3963 -0.8190
   58MOL0     C 7738   4.815   7.114   9.021 -0.1808 -0.6670 -0.7525
   58MOL0    Cl 7739   4.921   7.211   9.142 -0.5142  0.0098  0.0651
   58MOL0     C 7740   3.762   7.558   9.197 -0.1376  0.4593  0.2111
   58MOL0     C 7741   3.628   7.549   9.145 -0.5896 -0.0874 -0.6703
   58MOL0     O 7742   3.406   7.273   9.030  0.3805  0.1546  0.5013
   58MOL0     C 7743   3.234   7.519   8.815 -0.3140  1.6071 -0.9809
   58MOL0     C 7744   3.115   7.526   8.737  0.0154  0.0915 -0.1141
   58MOL0     N 7745   2.312   7.108   8.474  0.5164 -0.0994  0.1628
   58MOL0     N 7746   2.210   7.056   8.412  0.8793  0.1318 -0.3024
   58MOL0     C 7747   1.624   7.149   7.352  0.9824  0.8100 -0.4566
   58MOL0     C 7748   1.499   7.180   7.293  0.1366 -0.5669 -0.5241
   58MOL0     C 7749   1.135   7.309   7.102  0.3321 -0.0751  1.4596
   58MOL0     C 7750   1.036   7.398   7.136  0.2435  0.1232 -0.2099
   58MOL0     C 7751   0.914   7.410   7.066  0.2574  0.0189  0.4411
   58MOL0     C 7752   0.893   7.323   6.961  0.6147 -0.5289 -0.3731
   58MOL0     O 7753   0.785   7.336   6.878  0.3555 -0.0945 -0.0715
   58MOL0     C 7754   0.676   7.426   6.897 -0.0092  0.0970  0.1017
   58MOL0     C 7755   0.539   7.376   6.847  0.1336  0.2637 -0.0122
   58MOL0     C 7756   0.424   7.481   6.849  0.0540  0.5971  0.7111
   58MOL0     C 7757   0.310   7.442   6.764 -0.2708 -0.0377 -0.5017
   58MOL0     C 7758   0.202   7.544   6.785 -0.3954 -0.0445 -0.0558
   58MOL0     C 7759   0.119   7.622   6.826  0.6249 -0.1095  0.1221
   58MOL0     C 7760   0.987   7.231   6.924  0.3154 -0.2658  0.0348
   58MOL0     C 7761   1.106   7.220   6.991  0.1850 -0.6422 -0.8725
   58MOL0     C 7762   1.207   7.115   6.945  1.0838  0.6668  0.0791
   58MOL0     H 7763   1.606   7.334   7.013  0.8222  0.1581 -0.0041
   58MOL0     H 7764   1.828   7.254   7.112 -0.9446  2.3040  0.2137
   58MOL0     H 7765   1.836   7.158   7.519 -3.2775 -3.1220 -0.5274
   58MOL0     H 7766   1.898   6.994   7.464 -1.0655 -0.3436 -1.2458
   58MOL0     H 7767   2.031   7.265   7.427 -1.0197 -0.5543 -1.8878
   58MOL0     H 7768   2.103   7.108   7.415 -1.7363 -0.8216 -2.6836
   58MOL0     H 7769   2.023   7.259   7.676  0.4552  1.3168 -2.5732
   58MOL0     H 7770   2.180   7.199   7.626  0.7002  0.3063 -2.2717
   58MOL0     H 7771   1.939   7.037   7.716 -0.4595  1.2360  0.0796
   58MOL0     H 7772   2.081   6.960   7.643 -4.8236 -0.7486 -2.0781
   58MOL0     H 7773   2.237   7.068   7.813 -0.5684  0.9820 -0.8958
   58MOL0     H 7774   2.106   7.154   7.887  3.5303  0.4611  0.8464
   58MOL0     H 7775   2.002   6.932   7.958 -0.4201 -1.7071 -0.5377
   58MOL0     H 7776   2.144   6.854   7.898 -5.2299 -2.6096  0.9412
   58MOL0     H 7777   2.292   7.035   8.034  0.0863  0.0220  0.3866
   58MOL0     H 7778   2.219   6.883   8.102 -0.9032  0.5352  0.9313
   58MOL0     H 7779   2.077   7.148   8.138 -1.3159 -1.2217  0.2571
   58MOL0     H 7780   2.050   6.984   8.205 -3.3647  2.5076 -1.3982
   58MOL0     H 7781   2.331   7.263   8.184 -3.9312  2.2324 -0.0569
   58MOL0     H 7782   2.559   7.307   8.342 -1.0251  0.9038 -0.9752
   58MOL0     H 7783   2.446   7.394   8.449  1.0231  0.2262  1.6313
   58MOL0     H 7784   2.540   7.270   8.642 -0.2663 -0.7257 -0.5877
   58MOL0     H 7785   2.615   7.159   8.535 -3.0658 -0.3104  0.9731
   58MOL0     H 7786   2.672   7.461   8.548 -1.2061 -0.2875 -2.1390
   58MOL0     H 7787   2.765   7.345   8.449 -0.6683 -2.5790 -0.1786
   58MOL0     H 7788   2.845   7.246   8.654  1.8859  1.4253  3.5276
   58MOL0     H 7789   2.753   7.367   8.755  1.1273  1.1035  0.9754
   58MOL0     H 7790   2.950   7.258   8.871  0.1594  0.7162  3.7014
   58MOL0     H 7791   3.159   7.229   8.981 -0.1092  2.6848  2.0047
   58MOL0     H 7792   3.652   7.326   8.906  0.4261  0.0663  0.6150
   58MOL0     H 7793   3.896   7.322   8.974  0.9931  1.1253  0.2051
   58MOL0     H 7794   4.046   7.490   8.971 -3.4082 -1.2064  2.4310
   58MOL0     H 7795   4.066   7.652   9.057 -0.2939  0.4467 -0.9330
   58MOL0     H 7796   4.286   7.570   9.041 -1.7860 -0.7040 -3.8081
   58MOL0     H 7797   4.232   7.531   9.208 -0.1444  0.0681 -0.4111
   58MOL0     H 7798   4.187   7.299   9.122 -0.4764  2.1616  1.0130
   58MOL0     H 7799   4.265   7.346   8.965  0.3182 -1.2460  0.7316
   58MOL0     H 7800   4.375   7.333   9.241 -2.2729  1.0757 -1.0895
   58MOL0     H 7801   4.463   7.433   9.122  1.2947  0.3279  2.4096
   58MOL0     H 7802   4.495   7.245   8.977 -1.4117 -1.3827 -0.6123
   58MOL0     H 7803   4.423   7.133   9.104 -2.1088  2.0292 -0.4695
   58MOL0     H 7804   4.675   7.301   9.150 -0.9797  0.9788  0.3276
   58MOL0     H 7805   4.593   7.198   9.263 -2.4902 -1.7176 -0.5532
   58MOL0     H 7806   4.623   7.027   9.036 -2.5698  1.8997 -0.2931
   58MOL0     H 7807   4.709   7.011   9.179 -1.5645  1.2295  1.0189
   58MOL0     H 7808   4.860   7.020   8.989  0.9975 -1.6879  3.2454
   58MOL0     H 7809   4.789   7.176   8.935 -0.1332 -1.7082 -1.5221
   58MOL0     H 7810   3.786   7.626   9.278 -2.9207 -1.0271  2.4682
   58MOL0     H 7811   3.548   7.599   9.198  1.4361  1.2131  1.4120
   58MOL0     H 7812   3.315   7.587   8.792  0.1089  1.3646 -0.1999
   58MOL0     H 7813   3.101   7.613   8.673 -2.8593 -0.2991 -0.1483
   58MOL0     H 7814   1.626   7.092   7.444 -2.2908 -0.6386 -1.0991
   58MOL0     H 7815   1.408   7.154   7.346  1.3916 -1.3330  1.3332
   58MOL0     H 7816   1.044   7.444   7.234  3.4214  0.1717 -0.3902
   58MOL0     H 7817   0.843   7.489   7.090 -0.8011 -0.7839 -0.0060
   58MOL0     H 7818   0.708   7.523   6.858 -0.1848  0.3855  0.6686
   58MOL0     H 7819   0.656   7.438   7.004  0.0935  0.0148  0.1298
   58MOL0     H 7820   0.512   7.290   6.909 -1.1019  1.3243  0.9674
   58MOL0     H 7821   0.549   7.347   6.742  0.1832 -2.2776  0.6201
   58MOL0     H 7822   0.461   7.571   6.799 -0.9690  0.2354 -0.7638
   58MOL0     H 7823   0.396   7.505   6.952 -0.7701 -4.1985  1.8496
   58MOL0     H 7824   0.324   7.428   6.657 -2.4795 -0.0232 -0.8432
   58MOL0     H 7825   0.277   7.346   6.807  4.7624 -1.0949  1.7259
   58MOL0     H 7826   0.040   7.688   6.858 -1.8505 -2.3886 -0.8601
   58MOL0     H 7827   0.949   7.173   6.841  0.6709  0.1009 -0.3947
   58MOL0     H 7828   1.216   7.041   7.024 -1.2067  0.9199  0.6576
   58MOL0     H 7829   1.166   7.059   6.860 -1.1622 -1.2246  2.2385
   58MOL0     H 7830   1.301   7.153   6.904  0.7513 -0.4092 -1.8065
   59MOL0     O 7831   9.481   8.382   4.451 -0.0550  0.2323  0.2162
   59MOL0     C 7832   9.389   8.369   4.530  0.1923  0.0306 -0.3412
   59MOL0     O 7833   9.400   8.400   4.664 -0.2195  0.0611 -0.7840
   59MOL0     C 7834   9.526   8.429   4.706  0.5693 -0.3394  0.4312
   59MOL0     C 7835   9.582   8.339   4.795  0.2934  0.7086 -0.4028
   59MOL0     C 7836   9.714   8.356   4.813 -0.0889 -0.2162 -0.1029
   59MOL0     C 7837   9.784   8.462   4.774  0.8682 -0.1236  0.8609
   59MOL0     O 7838   9.911   8.470   4.826  0.2068  1.0018 -0.4999
   59MOL0     C 7839   9.969   8.591   4.872  0.3308 -0.1432  0.5255
   59MOL0     C 7840  10.071   8.549   4.978  0.1717 -0.8642 -0.6374
   59MOL0     C 7841  10.009   8.491   5.108 -0.4315 -0.0822  0.5367
   59MOL0     C 7842  10.113   8.479   5.223 -0.1006  0.5415  0.2768
   59MOL0     C 7843  10.065   8.396   5.344  0.3001 -0.2600 -0.5871
   59MOL0     C 7844   9.931   8.457   5.392  1.0704  0.6855  0.7277
   59MOL0     C 7845   9.884   8.412   5.527  0.2356  0.6934 -0.2968
   59MOL0     C 7846   9.978   8.427   5.643 -0.3756 -0.9618 -0.2986
   59MOL0     N 7847  10.021   8.570   5.657 -0.6872  0.7271 -0.2845
   59MOL0     C 7848  10.139   8.628   5.603  0.3869 -0.1651 -0.4944
   59MOL0     C 7849  10.124   8.758   5.634 -0.5279  0.2890  0.2170
   59MOL0     C 7850  10.222   8.864   5.599  0.1519 -0.3670  0.2932
   59MOL0     C 7851  10.260   8.957   5.722  0.1937 -0.2392  0.3372
   59MOL0     C 7852  10.399   8.931   5.778 -0.6435  0.7701 -0.1286
   59MOL0     C 7853  10.516   8.986   5.683 -0.3888 -0.3745  0.2146
   59MOL0     O 7854  10.642   8.918   5.718 -0.0414  0.1245 -0.2172
   59MOL0     C 7855  10.758   8.994   5.723 -0.6491 -0.0925 -0.1919
   59MOL0     C 7856  10.771   9.129   5.678 -0.2043  0.2216 -0.1022
   59MOL0     C 7857  10.879   9.204   5.708 -0.6085 -0.9933 -0.0276
   59MOL0     C 7858  10.985   9.148   5.790  0.4368  0.9027  0.3396
   59MOL0     C 7859  11.111   9.227   5.809 -0.5407 -0.2103  0.6570
   59MOL0     O 7860  11.202   9.175   5.883 -0.5484 -0.0410  0.5425
   59MOL0     C 7861  11.315   9.256   5.908  0.1850 -0.1890 -0.6255
   59MOL0     C 7862  11.359   9.277   6.037  0.1953 -0.0330  0.8972
   59MOL0     C 7863  11.477   9.350   6.048  0.1272 -0.0554 -0.7306
   59MOL0     C 7864  11.549   9.409   5.948 -0.1560 -0.4485  0.1421
   59MOL0     O 7865  11.661   9.478   5.977 -0.0212  0.5588  0.2128
   59MOL0     C 7866  11.772   9.448   5.886  0.8201  0.0877  0.1394
   59MOL0     C 7867  11.897   9.522   5.939  1.2879 -0.3181 -0.8085
   59MOL0     C 7868  11.871   9.671   5.972  0.5142  0.9979 -0.6880
   59MOL0     C 7869  11.998   9.751   5.994 -0.0327  0.0958 -0.0359
   59MOL0     C 7870  11.976   9.892   6.023 -0.1294 -0.1144 -0.4503
   59MOL0     C 7871  11.901   9.917   6.160 -0.6612  0.1797  0.8463
   59MOL0     C 7872  11.890  10.069   6.177  0.2327 -0.8267 -0.1522
   59MOL0     C 7873  11.818  10.116   6.307  0.1079 -0.8020  0.3885
   59MOL0    Cl 7874  11.778  10.290   6.295 -0.4008  0.5651  0.2046
   59MOL0     C 7875  11.503   9.386   5.818 -0.1657  0.0356  0.2599
   59MOL0     C 7876  11.390   9.311   5.799  0.4614 -0.2747  0.0690
   59MOL0     O 7877  11.112   9.346   5.770  0.6829 -0.3739 -0.7063
   59MOL0     C 7878  10.969   9.017   5.847  0.7074  0.0477  0.5271
   59MOL0     C 7879  10.849   8.950   5.818 -0.5163  0.2448  0.5305
   59MOL0     N 7880  10.007   8.778   5.705  0.6550  0.2792  0.1048
   59MOL0     N 7881   9.952   8.665   5.724  0.1811 -0.6663 -0.0068
   59MOL0     C 7882   9.731   8.559   4.694  0.5831  0.4411 -0.0074
   59MOL0     C 7883   9.597   8.538   4.653 -0.8495 -0.1462 -0.3225
   59MOL0     C 7884   9.251   8.345   4.476 -0.2409  0.5198 -0.0625
   59MOL0     C 7885   9.216   8.379   4.350 -0.4063  1.1123  0.0249
   59MOL0     C 7886   9.091   8.352   4.303 -0.2017 -0.4497  0.0052
   59MOL0     C 7887   8.996   8.286   4.377  0.2380  0.2749 -0.3488
   59MOL0     O 7888   8.870   8.257   4.325 -1.2298  0.2156  0.7448
   59MOL0     C 7889   8.847   8.277   4.186 -0.3686  0.0351  0.3471
   59MOL0     C 7890   8.757   8.174   4.138 -0.0280 -0.0912 -0.6345
   59MOL0     C 7891   8.611   8.220   4.169  0.8403 -0.4482 -0.5705
   59MOL0     C 7892   8.502   8.113   4.170 -0.4714  0.5728 -0.2265
   59MOL0     C 7893   8.373   8.184   4.187 -0.0940 -0.2056  0.3170
   59MOL0     C 7894   8.263   8.237   4.200 -0.3304 -0.1794 -0.3881
   59MOL0     C 7895   9.027   8.250   4.503 -0.4335  0.1341 -0.1542
   59MOL0     C 7896   9.158   8.274   4.554 -0.1849 -0.2097  0.0154
   59MOL0     C 7897   9.186   8.217   4.693  0.5886  0.0525 -0.3786
   59MOL0     H 7898   9.524   8.262   4.845  2.2933 -0.3694  0.3808
   59MOL0     H 7899   9.755   8.286   4.885 -1.6168  0.3397  1.3637
   59MOL0     H 7900  10.023   8.652   4.799  0.3285  0.2609  0.8499
   59MOL0     H 7901   9.891   8.654   4.917  0.5965  0.2997  0.3811
   59MOL0     H 7902  10.116   8.645   5.006 -2.0410 -0.2498  1.1030
   59MOL0     H 7903  10.157   8.496   4.936  3.0190  4.7247 -2.9143
   59MOL0     H 7904   9.965   8.394   5.086 -0.6884  0.2670 -0.5742
   59MOL0     H 7905   9.923   8.548   5.144  0.3145  0.1459  2.0128
   59MOL0     H 7906  10.199   8.421   5.188 -1.0654 -2.7093  2.8319
   59MOL0     H 7907  10.165   8.572   5.248  0.2547  0.9976 -1.9891
   59MOL0     H 7908  10.053   8.290   5.322 -2.1791 -0.4002  0.9706
   59MOL0     H 7909  10.142   8.391   5.421 -2.4338  2.7079  2.7452
   59MOL0     H 7910   9.932   8.567   5.393 -1.1049  0.7505  0.0581
   59MOL0     H 7911   9.856   8.425   5.319  1.8894 -3.0086  1.3037
   59MOL0     H 7912   9.846   8.311   5.511 -2.2178  1.8287 -2.1588
   59MOL0     H 7913   9.793   8.467   5.554 -1.3841 -1.8033 -0.3890
   59MOL0     H 7914   9.919   8.398   5.731 -0.4911 -1.2769 -0.4772
   59MOL0     H 7915  10.065   8.362   5.632 -1.6434 -2.3839 -3.2996
   59MOL0     H 7916  10.216   8.575   5.548  1.9667  0.2693  1.2384
   59MOL0     H 7917  10.319   8.830   5.561  0.7727  0.8605  0.7035
   59MOL0     H 7918  10.168   8.921   5.523  0.5771 -2.2520 -1.4995
   59MOL0     H 7919  10.260   9.060   5.687 -2.7887 -0.4160 -0.4468
   59MOL0     H 7920  10.185   8.943   5.801 -1.7307 -0.1746 -1.3743
   59MOL0     H 7921  10.412   8.824   5.797 -0.5338  1.1268  2.1083
   59MOL0     H 7922  10.412   8.974   5.878 -0.0678 -2.4881  1.3056
   59MOL0     H 7923  10.515   9.094   5.698 -2.7650 -0.6370  3.2370
   59MOL0     H 7924  10.489   8.967   5.579 -0.4041 -0.5474  0.2488
   59MOL0     H 7925  10.695   9.158   5.605 -1.1043  0.4264  0.9027
   59MOL0     H 7926  10.894   9.307   5.678  4.8614 -0.7519  2.4492
   59MOL0     H 7927  11.301   9.241   6.121  0.0394  1.3263  1.3882
   59MOL0     H 7928  11.517   9.374   6.146  0.6544  2.5987 -1.5201
   59MOL0     H 7929  11.790   9.340   5.880  1.5318  0.0294  2.2233
   59MOL0     H 7930  11.746   9.493   5.790 -3.7873  2.0643  2.0312
   59MOL0     H 7931  11.937   9.458   6.018 -0.1244  0.1625  0.3477
   59MOL0     H 7932  11.969   9.527   5.857 -0.0834  4.1814 -2.0454
   59MOL0     H 7933  11.811   9.713   5.890 -1.3316 -1.3721 -0.6403
   59MOL0     H 7934  11.812   9.675   6.064  1.1830  1.8114 -0.2744
   59MOL0     H 7935  12.064   9.751   5.907  0.4525  1.5856  0.3050
   59MOL0     H 7936  12.061   9.705   6.072  0.0955 -1.3385 -0.9483
   59MOL0     H 7937  11.921   9.939   5.941  1.6899  0.8505 -1.1587
   59MOL0     H 7938  12.065   9.952   6.039 -2.0188  3.1034 -1.1442
   59MOL0     H 7939  11.804   9.869   6.173  0.1660 -1.5053  1.1508
   59MOL0     H 7940  11.972   9.892   6.240 -2.3478 -0.5453  2.1967
   59MOL0     H 7941  11.837  10.117   6.095  0.9530 -1.5297 -1.0524
   59MOL0     H 7942  11.996  10.098   6.184  0.1277  0.0476 -1.7731
   59MOL0     H 7943  11.725  10.059   6.316 -1.4711  1.7357  1.0790
   59MOL0     H 7944  11.878  10.089   6.395  0.6112 -3.2473 -0.6064
   59MOL0     H 7945  11.560   9.426   5.735 -0.3130 -2.3956 -1.0966
   59MOL0     H 7946  11.354   9.300   5.698 -1.0732 -0.8340  0.6526
   59MOL0     H 7947  11.039   8.972   5.916  0.1939 -1.5031  0.0756
   59MOL0     H 7948  10.826   8.855   5.865  0.7982 -0.2388  0.2209
   59MOL0     H 7949   9.778   8.652   4.661  1.7911  0.3663  1.4131
   59MOL0     H 7950   9.557   8.617   4.590  3.4503  0.4836 -2.6447
   59MOL0     H 7951   9.294   8.415   4.283  0.0400 -1.2135 -0.7984
   59MOL0     H 7952   9.072   8.395   4.205  1.2421  0.4719  0.1041
   59MOL0     H 7953   8.936   8.266   4.123 -1.2265  0.4266 -0.9886
   59MOL0     H 7954   8.811   8.380   4.180  2.1993  1.2066  2.6711
   59MOL0     H 7955   8.776   8.075   4.181 -1.2510 -1.0399 -2.1823
   59MOL0     H 7956   8.758   8.173   4.029 -0.8101  1.8217 -0.7091
   59MOL0     H 7957   8.590   8.291   4.088  1.1148 -3.1326 -3.1610
   59MOL0     H 7958   8.620   8.270   4.266 -3.3071 -0.5822  0.0432
   59MOL0     H 7959   8.502   8.054   4.078  0.7902 -0.6121  0.5096
   59MOL0     H 7960   8.513   8.044   4.254 -4.8599 -1.6046 -1.1208
   59MOL0     H 7961   8.164   8.276   4.213 -0.2999 -0.5078  1.0405
   59MOL0     H 7962   8.952   8.197   4.561 -0.3722  1.1434  0.8727
   59MOL0     H 7963   9.108   8.142   4.702 -1.0271  1.2923 -2.7524
   59MOL0     H 7964   9.286   8.174   4.691  0.0411 -1.2338 -0.8596
   59MOL0     H 7965   9.172   8.293   4.771  0.6991  0.2597 -0.5569
   60MOL0     O 7966   2.512   3.825   9.564  0.2772 -0.1586 -0.0924
   60MOL0     C 7967   2.473   3.898   9.657  0.1877  0.0796 -0.6778
   60MOL0     O 7968   2.515   4.022   9.678 -0.3888 -0.0930  0.9543
   60MOL0     C 7969   2.637   4.063   9.628 -1.2494 -1.0537 -0.2865
   60MOL0     C 7970   2.641   4.101   9.488 -0.6191  0.4183 -0.2245
   60MOL0     C 7971   2.759   4.148   9.432  0.2023 -0.2561  0.6717
   60MOL0     C 7972   2.878   4.157   9.502 -0.2253  0.0673 -0.1140
   60MOL0     O 7973   2.989   4.192   9.430 -0.1396 -0.3564  0.0313
   60MOL0     C 7974   3.067   4.307   9.476  0.4346 -0.5651  0.6640
   60MOL0     C 7975   3.177   4.322   9.369  0.4352  0.2999 -0.2942
   60MOL0     C 7976   3.144   4.400   9.243 -0.5888  0.5036  0.6722
   60MOL0     C 7977   3.245   4.375   9.123 -0.3727 -0.0410 -0.0357
   60MOL0     C 7978   3.243   4.457   8.995 -0.1271 -0.5163  0.6386
   60MOL0     C 7979   3.346   4.405   8.886  0.5329 -0.5476  0.1572
   60MOL0     C 7980   3.498   4.459   8.903  0.4295 -0.5110 -0.2352
   60MOL0     C 7981   3.569   4.461   8.772 -0.6685 -0.2924  0.9021
   60MOL0     N 7982   3.625   4.341   8.717 -0.4724 -0.5217  0.5431
   60MOL0     C 7983   3.695   4.251   8.789  0.3772  0.9537  0.5492
   60MOL0     C 7984   3.710   4.146   8.702  0.0588 -0.0353 -0.0961
   60MOL0     C 7985   3.801   4.028   8.715 -0.4346  0.0203  0.1490
   60MOL0     C 7986   3.948   4.056   8.702 -0.6996 -0.4801 -0.0353
   60MOL0     C 7987   3.967   4.132   8.577 -0.6972 -0.2465  0.4464
   60MOL0     C 7988   4.114   4.163   8.553 -0.2232 -0.0617 -0.2493
   60MOL0     O 7989   4.194   4.053   8.513  0.0026 -0.4944 -0.5717
   60MOL0     C 7990   4.324   4.068   8.471  0.5818  1.0261  0.4500
   60MOL0     C 7991   4.387   3.955   8.404 -0.1807 -0.2871 -0.3438
   60MOL0     C 7992   4.521   3.972   8.364  0.5558  0.7031 -0.3330
   60MOL0     C 7993   4.596   4.083   8.394  0.3865 -0.1194 -0.3083
   60MOL0     C 7994   4.734   4.096   8.352  0.2427 -0.9057  0.4343
   60MOL0     O 7995   4.797   4.212   8.389  0.1742 -0.4230 -0.1251
   60MOL0     C 7996   4.927   4.240   8.371 -0.7952  0.5071 -0.3256
   60MOL0     C 7997   4.971   4.369   8.348 -0.2793 -1.0003  0.2675
   60MOL0     C 7998   5.104   4.403   8.331  0.9530 -0.8143  0.5218
   60MOL0     C 7999   5.204   4.305   8.313  0.8851  0.5058 -0.8072
   60MOL0     O 8000   5.332   4.333   8.277 -0.1483  0.1607  0.6419
   60MOL0     C 8001   5.424   4.229   8.285  0.4461  0.7120 -0.2984
   60MOL0     C 8002   5.555   4.261   8.232  0.6992 -0.2509  0.1081
   60MOL0     C 8003   5.622   4.374   8.310 -0.4311 -0.8755 -0.1874
   60MOL0     C 8004   5.772   4.372   8.293 -0.2222  0.2665  0.5433
   60MOL0     C 8005   5.816   4.394   8.144 -0.4125  0.2022 -0.3001
   60MOL0     C 8006   5.979   4.403   8.117  0.5179  0.2907  0.3316
   60MOL0     C 8007   6.046   4.525   8.166 -0.3129  0.2585  0.1262
   60MOL0     C 8008   6.192   4.500   8.204 -0.1011 -0.0788  0.5433
   60MOL0    Cl 8009   6.238   4.663   8.276 -0.1756  0.3712  0.2258
   60MOL0     C 8010   5.156   4.174   8.340  0.0780  0.2900 -0.0705
   60MOL0     C 8011   5.026   4.143   8.380  0.5081 -0.2234  0.3258
   60MOL0     O 8012   4.783   4.005   8.292 -0.2174  0.4266  0.4129
   60MOL0     C 8013   4.526   4.197   8.438 -0.0297  0.3779 -0.1416
   60MOL0     C 8014   4.391   4.193   8.463 -0.0498 -0.0570  0.2617
   60MOL0     N 8015   3.649   4.181   8.585 -0.0245  0.1640 -0.1112
   60MOL0     N 8016   3.605   4.293   8.594  0.1223 -0.1517 -0.3825
   60MOL0     C 8017   2.883   4.133   9.643 -0.1779  0.0619  0.1720
   60MOL0     C 8018   2.763   4.085   9.701 -0.3568 -0.8426 -0.2904
   60MOL0     C 8019   2.364   3.849   9.741 -0.0350 -0.6001  0.6303
   60MOL0     C 8020   2.264   3.760   9.689  0.3622  0.5134 -0.3205
   60MOL0     C 8021   2.161   3.719   9.771 -0.4371  0.3641  0.6207
   60MOL0     C 8022   2.151   3.760   9.905 -0.2112 -0.4320  0.3504
   60MOL0     O 8023   2.051   3.739   9.997  0.3338  0.4050  1.0265
   60MOL0     C 8024   1.938   3.677   9.953 -0.0696  0.6115  0.1984
   60MOL0     C 8025   1.950   3.528   9.965  0.8582  1.0815  0.0165
   60MOL0     C 8026   1.978   3.484  10.107 -0.4701 -0.4054 -0.4066
   60MOL0     C 8027   2.004   3.335  10.135  0.7015 -1.1772 -0.2385
   60MOL0     C 8028   1.892   3.252  10.085 -0.4747  0.1786  0.0750
   60MOL0     C 8029   1.792   3.181  10.051 -0.1032 -0.8610  0.0472
   60MOL0     C 8030   2.261   3.833   9.952  0.3505  0.2922 -0.3893
   60MOL0     C 8031   2.365   3.875   9.878 -0.6266  0.1467 -0.4001
   60MOL0     C 8032   2.481   3.945   9.944  0.1707  0.8195  0.1163
   60MOL0     H 8033   2.545   4.100   9.439 -2.7928 -0.9853  3.5638
   60MOL0     H 8034   2.768   4.170   9.326  2.4126 -1.6791  0.4821
   60MOL0     H 8035   3.022   4.406   9.486 -1.7038 -1.0447 -2.7966
   60MOL0     H 8036   3.110   4.286   9.575  2.7590 -0.2513 -0.2262
   60MOL0     H 8037   3.215   4.223   9.344 -1.6228 -1.0075  1.4430
   60MOL0     H 8038   3.256   4.381   9.416 -0.0384 -0.4158  1.4939
   60MOL0     H 8039   3.132   4.507   9.264 -2.6590  0.4827 -0.2164
   60MOL0     H 8040   3.049   4.362   9.205  0.2982  0.6524 -1.8762
   60MOL0     H 8041   3.349   4.390   9.155 -0.2284  2.6485 -1.4607
   60MOL0     H 8042   3.241   4.269   9.097  0.1806 -0.1003  0.0926
   60MOL0     H 8043   3.147   4.435   8.949 -0.6808  0.6681  1.1634
   60MOL0     H 8044   3.249   4.565   9.015 -0.9160  0.0324 -1.7814
   60MOL0     H 8045   3.342   4.297   8.870  0.4782 -0.7979  1.7092
   60MOL0     H 8046   3.311   4.445   8.790 -1.5197  0.0940  1.1179
   60MOL0     H 8047   3.551   4.397   8.976  1.9003 -1.6297 -2.1738
   60MOL0     H 8048   3.501   4.564   8.934  2.2579 -0.4433 -0.5333
   60MOL0     H 8049   3.495   4.507   8.706 -1.5815 -0.4944  1.7511
   60MOL0     H 8050   3.655   4.529   8.773 -1.6323  1.3562 -4.0429
   60MOL0     H 8051   3.736   4.273   8.888  1.0415  3.2476 -0.1753
   60MOL0     H 8052   3.791   3.977   8.812  0.1207 -0.6848 -0.1596
   60MOL0     H 8053   3.761   3.964   8.636  1.1564 -0.1677 -0.5212
   60MOL0     H 8054   3.982   4.100   8.796  1.3801 -2.3304  0.1771
   60MOL0     H 8055   4.011   3.967   8.695 -0.2528 -0.1221 -0.7013
   60MOL0     H 8056   3.914   4.227   8.571  0.3686  0.3181 -0.4652
   60MOL0     H 8057   3.935   4.065   8.497  1.6641 -0.4008 -0.4603
   60MOL0     H 8058   4.143   4.210   8.647 -2.2081  2.1529 -0.6334
   60MOL0     H 8059   4.123   4.238   8.475 -1.3494  0.7119  0.3337
   60MOL0     H 8060   4.329   3.870   8.370  0.5823 -2.3551  3.0363
   60MOL0     H 8061   4.576   3.892   8.315  0.1219  1.1033 -1.5020
   60MOL0     H 8062   4.894   4.445   8.332  2.3491  2.0575  1.1650
   60MOL0     H 8063   5.119   4.505   8.298  0.3963 -0.8338  0.1923
   60MOL0     H 8064   5.442   4.192   8.387 -0.8089  4.0085  1.2552
   60MOL0     H 8065   5.405   4.155   8.206  1.6391  2.8385 -2.6939
   60MOL0     H 8066   5.619   4.173   8.218  0.5068 -0.6154  1.3929
   60MOL0     H 8067   5.544   4.299   8.130  2.9086  0.0068 -0.0915
   60MOL0     H 8068   5.577   4.464   8.267 -1.9275 -1.6000 -0.1969
   60MOL0     H 8069   5.596   4.379   8.417  0.0920  0.1296 -0.0911
   60MOL0     H 8070   5.817   4.282   8.337 -0.7796  1.1908  3.1114
   60MOL0     H 8071   5.811   4.459   8.346 -1.3401  0.7519  0.6013
   60MOL0     H 8072   5.764   4.486   8.115 -1.1956 -0.3333 -0.6356
   60MOL0     H 8073   5.769   4.311   8.091 -2.9765  0.9258  0.6820
   60MOL0     H 8074   6.021   4.318   8.172  0.3448 -0.4378 -0.6322
   60MOL0     H 8075   5.993   4.393   8.009  0.1715  0.5379  0.2625
   60MOL0     H 8076   5.998   4.555   8.259  2.1857 -0.9224  1.9090
   60MOL0     H 8077   6.035   4.616   8.106 -0.6758  0.0249 -0.1625
   60MOL0     H 8078   6.207   4.419   8.275  1.4756 -2.2002 -2.0360
   60MOL0     H 8079   6.263   4.476   8.125 -0.5582 -2.0855  0.6920
   60MOL0     H 8080   5.218   4.086   8.355 -2.0380 -1.7185 -2.1203
   60MOL0     H 8081   4.989   4.042   8.389  0.7511 -0.4868 -1.3489
   60MOL0     H 8082   4.566   4.298   8.447  2.5214 -0.6855  1.7606
   60MOL0     H 8083   4.344   4.290   8.475 -0.1119  0.5246 -3.5665
   60MOL0     H 8084   2.964   4.158   9.711 -0.5928 -0.7199  0.9875
   60MOL0     H 8085   2.750   4.051   9.803 -0.4132  2.3729  0.9094
   60MOL0     H 8086   2.267   3.717   9.589  0.4946 -3.4553  1.2243
   60MOL0     H 8087   2.089   3.661   9.714  1.2049 -1.1086 -0.0502
   60MOL0     H 8088   1.921   3.696   9.847  0.6439 -0.2899 -0.0969
   60MOL0     H 8089   1.848   3.714  10.004 -0.4265  2.2249 -1.5024
   60MOL0     H 8090   2.038   3.492   9.910  1.0730  2.0293 -0.2742
   60MOL0     H 8091   1.865   3.470   9.929  0.5495  0.9873  0.8724
   60MOL0     H 8092   1.903   3.522  10.177 -0.8392  0.5130 -1.2831
   60MOL0     H 8093   2.072   3.539  10.126 -0.9445  1.2336 -2.3977
   60MOL0     H 8094   2.101   3.308  10.094  1.4337 -1.7593  1.7287
   60MOL0     H 8095   2.007   3.312  10.242  3.9225  0.1646  0.0636
   60MOL0     H 8096   1.698   3.134  10.032  1.6593 -3.8666 -2.3244
   60MOL0     H 8097   2.265   3.866  10.055 -0.5527 -1.7391  0.3307
   60MOL0     H 8098   2.474   4.050   9.914 -1.4483  1.1820  1.6232
   60MOL0     H 8099   2.476   3.940  10.053  0.5155 -0.9721  0.0800
   60MOL0     H 8100   2.576   3.909   9.903 -0.7776 -1.2548 -0.3799
   61MOL0     O 8101   3.186   7.793   2.319  1.1230 -1.0932  0.5897
   61MOL0     C 8102   3.168   7.678   2.357  0.5809  0.2366 -0.1337
   61MOL0     O 8103   3.261   7.575   2.359  0.4214 -0.7468  0.2240
   61MOL0     C 8104   3.384   7.608   2.406  0.4896  0.1696  0.4753
   61MOL0     C 8105   3.433   7.726   2.463 -1.0992  0.2636 -0.8924
   61MOL0     C 8106   3.573   7.740   2.492 -0.2413 -0.2752 -0.0428
   61MOL0     C 8107   3.667   7.644   2.457 -0.3020  0.3964 -0.7662
   61MOL0     O 8108   3.797   7.678   2.468 -0.0426  0.1410  0.0808
   61MOL0     C 8109   3.900   7.576   2.457  0.5692 -0.6535  0.7546
   61MOL0     C 8110   4.033   7.643   2.457 -0.4015 -0.2773  0.1653
   61MOL0     C 8111   4.143   7.543   2.449 -0.3198  0.1555  0.3823
   61MOL0     C 8112   4.278   7.618   2.412 -0.1668 -0.0707  0.0424
   61MOL0     C 8113   4.302   7.639   2.269 -0.8948  0.2781 -0.1749
   61MOL0     C 8114   4.440   7.701   2.248 -0.7152 -0.0380  0.2520
   61MOL0     C 8115   4.557   7.602   2.251 -0.3963  0.7541 -0.0023
   61MOL0     C 8116   4.686   7.674   2.235 -0.5954 -0.2085 -0.6635
   61MOL0     N 8117   4.790   7.576   2.237 -0.6783  0.1328 -0.6327
   61MOL0     C 8118   4.878   7.572   2.342 -0.2522 -0.4779  0.1440
   61MOL0     C 8119   4.959   7.472   2.307  0.0662 -1.1401  0.6440
   61MOL0     C 8120   5.065   7.414   2.390 -1.3346  0.4346  0.1417
   61MOL0     C 8121   5.204   7.389   2.317  0.3009  0.5727  0.5434
   61MOL0     C 8122   5.297   7.314   2.405  0.9693 -0.4368  0.2271
   61MOL0     C 8123   5.432   7.279   2.346 -0.8770 -0.5909 -0.1426
   61MOL0     O 8124   5.527   7.240   2.450  0.0965 -0.2353 -0.2773
   61MOL0     C 8125   5.625   7.152   2.412 -0.6379  0.8455 -0.4340
   61MOL0     C 8126   5.653   7.095   2.287  0.4437  0.2255 -0.6317
   61MOL0     C 8127   5.748   7.005   2.275  0.2884  0.6021  0.1415
   61MOL0     C 8128   5.829   6.956   2.379 -1.2118 -0.1679 -0.3659
   61MOL0     C 8129   5.925   6.841   2.350  0.7394 -0.1548  0.1850
   61MOL0     O 8130   6.023   6.816   2.444  0.4978  0.1256 -0.0511
   61MOL0     C 8131   6.143   6.749   2.417  0.8516 -0.3770 -0.1001
   61MOL0     C 8132   6.196   6.731   2.290  0.2030  0.9555 -0.4153
   61MOL0     C 8133   6.318   6.660   2.281  0.7851  0.5329 -0.0408
   61MOL0     C 8134   6.375   6.595   2.396 -0.0008 -0.3285  0.5342
   61MOL0     O 8135   6.477   6.503   2.392  0.2306  1.0012 -0.2309
   61MOL0     C 8136   6.558   6.501   2.271  0.2579  0.4225  0.1828
   61MOL0     C 8137   6.678   6.408   2.291  0.3999 -0.3642  0.8514
   61MOL0     C 8138   6.674   6.280   2.370  0.4929 -0.1845 -0.0564
   61MOL0     C 8139   6.730   6.170   2.285 -0.5464  0.3834  0.2317
   61MOL0     C 8140   6.885   6.187   2.282 -1.0998  0.2589  0.0270
   61MOL0     C 8141   6.945   6.042   2.292  0.2215 -0.4274  0.0526
   61MOL0     C 8142   7.093   6.039   2.243  0.4394  0.5631  0.0188
   61MOL0     C 8143   7.189   6.152   2.302 -0.0096  0.5600 -0.2817
   61MOL0    Cl 8144   7.173   6.144   2.481 -0.0178  0.5589 -0.2975
   61MOL0     C 8145   6.327   6.631   2.518  0.9778 -0.9402  0.5943
   61MOL0     C 8146   6.214   6.705   2.532  0.0881  0.4452 -0.2521
   61MOL0     O 8147   5.915   6.778   2.242 -0.3134  0.6582 -0.7040
   61MOL0     C 8148   5.801   7.010   2.505 -0.2604  0.8452  0.8587
   61MOL0     C 8149   5.706   7.112   2.520 -0.0528  0.2804 -0.4022
   61MOL0     N 8150   4.939   7.436   2.174 -0.5384  0.1790  0.7577
   61MOL0     N 8151   4.830   7.488   2.135 -0.4079 -0.6198  0.7330
   61MOL0     C 8152   3.621   7.523   2.402 -0.6455  0.2309 -0.4800
   61MOL0     C 8153   3.480   7.504   2.392  0.8608  1.0012 -0.8146
   61MOL0     C 8154   3.021   7.639   2.365  0.2791  1.1513 -0.3112
   61MOL0     C 8155   2.979   7.541   2.277 -0.4181  0.1120  0.2977
   61MOL0     C 8156   2.847   7.502   2.265 -0.1621  0.2571  0.5336
   61MOL0     C 8157   2.759   7.571   2.348 -0.0642 -0.4797 -0.1634
   61MOL0     O 8158   2.628   7.555   2.338  0.3861  0.3038 -0.8012
   61MOL0     C 8159   2.551   7.666   2.300  0.2602  0.2192 -0.6797
   61MOL0     C 8160   2.426   7.669   2.380  0.8665  0.2160  0.6703
   61MOL0     C 8161   2.344   7.536   2.362 -0.4161 -0.1546  0.5314
   61MOL0     C 8162   2.214   7.558   2.431  0.3959 -0.8800 -0.7099
   61MOL0     C 8163   2.116   7.449   2.415  0.1371 -0.1414 -0.3749
   61MOL0     C 8164   2.027   7.361   2.405 -0.3691 -0.5133  0.5744
   61MOL0     C 8165   2.802   7.662   2.448  0.5868  1.0068  0.2883
   61MOL0     C 8166   2.932   7.693   2.454  0.4349 -0.3447  0.1062
   61MOL0     C 8167   2.974   7.794   2.563  0.5935 -0.8649 -0.0222
   61MOL0     H 8168   3.362   7.808   2.472 -2.1532 -0.2510 -3.6227
   61MOL0     H 8169   3.608   7.826   2.548 -1.7493 -1.2315  2.5062
   61MOL0     H 8170   3.901   7.520   2.551  0.3448 -0.2451  1.0014
   61MOL0     H 8171   3.887   7.507   2.373  0.9147 -1.9746  1.7438
   61MOL0     H 8172   4.044   7.690   2.556  0.8709 -2.2979  1.0577
   61MOL0     H 8173   4.032   7.718   2.378  0.4702  1.3363  1.6128
   61MOL0     H 8174   4.130   7.467   2.371  0.5070 -1.1517  1.4773
   61MOL0     H 8175   4.154   7.486   2.542  3.1795 -1.5791 -0.9025
   61MOL0     H 8176   4.285   7.705   2.478 -1.1387  1.6588 -2.0333
   61MOL0     H 8177   4.352   7.553   2.461 -0.6142 -2.0948 -1.8046
   61MOL0     H 8178   4.303   7.539   2.227  1.0461 -0.7335  2.0786
   61MOL0     H 8179   4.228   7.713   2.238 -0.6457  1.8626  2.6288
   61MOL0     H 8180   4.456   7.753   2.154  2.4522  1.1064  1.2843
   61MOL0     H 8181   4.461   7.785   2.316 -0.9868  0.5264 -0.3571
   61MOL0     H 8182   4.555   7.526   2.172  4.1162 -0.8608  1.1254
   61MOL0     H 8183   4.560   7.550   2.347  0.8783 -2.2566 -1.5216
   61MOL0     H 8184   4.678   7.720   2.136  0.6528  0.9048 -0.2767
   61MOL0     H 8185   4.695   7.748   2.315 -1.6626  0.7457 -1.3948
   61MOL0     H 8186   4.880   7.635   2.430 -1.3119  3.0014 -2.1068
   61MOL0     H 8187   5.084   7.472   2.481  2.1208 -2.0228  1.1809
   61MOL0     H 8188   5.012   7.325   2.426 -2.7389  0.9574 -0.5648
   61MOL0     H 8189   5.196   7.330   2.226  1.9532 -2.6905  2.3425
   61MOL0     H 8190   5.248   7.485   2.289  0.1021  0.4861 -0.0671
   61MOL0     H 8191   5.250   7.216   2.418  0.9383 -0.3153  1.1143
   61MOL0     H 8192   5.309   7.366   2.501 -0.4358  0.5617 -0.0947
   61MOL0     H 8193   5.476   7.368   2.298 -1.5089 -0.2268 -0.0587
   61MOL0     H 8194   5.415   7.200   2.273 -0.8480 -0.4190 -0.3350
   61MOL0     H 8195   5.594   7.132   2.204 -1.9026  1.8274  1.5963
   61MOL0     H 8196   5.765   6.974   2.173  1.1282  2.9966 -0.5108
   61MOL0     H 8197   6.146   6.774   2.203 -1.2773 -0.8690 -0.5335
   61MOL0     H 8198   6.357   6.638   2.182 -1.8179  0.2835 -1.1105
   61MOL0     H 8199   6.505   6.455   2.187  1.1335  0.9706 -0.7020
   61MOL0     H 8200   6.583   6.600   2.232  0.0578  0.0708 -0.8769
   61MOL0     H 8201   6.710   6.391   2.188  3.8718  1.9111  1.4011
   61MOL0     H 8202   6.752   6.474   2.337  0.5198  2.3415 -2.8166
   61MOL0     H 8203   6.730   6.285   2.464 -1.1701 -0.6508  1.0024
   61MOL0     H 8204   6.567   6.264   2.387  0.1288  2.0415  0.0531
   61MOL0     H 8205   6.681   6.183   2.188 -0.5718 -2.1596 -0.1576
   61MOL0     H 8206   6.711   6.078   2.341  1.0137 -0.7000 -0.9401
   61MOL0     H 8207   6.916   6.246   2.369 -1.8691 -0.6700  0.9566
   61MOL0     H 8208   6.909   6.241   2.190 -3.0190 -0.6369 -1.0645
   61MOL0     H 8209   6.931   6.033   2.400  0.4692 -1.2459  0.0185
   61MOL0     H 8210   6.886   5.973   2.231 -1.6268  1.0549  0.0310
   61MOL0     H 8211   7.105   6.056   2.136 -0.7957 -1.4710 -0.4886
   61MOL0     H 8212   7.131   5.941   2.273  0.8669  0.5414 -0.5749
   61MOL0     H 8213   7.289   6.131   2.262  0.2298  1.2209 -0.0465
   61MOL0     H 8214   7.157   6.248   2.261 -1.4822  0.9733  1.6636
   61MOL0     H 8215   6.370   6.576   2.602  2.2915 -3.6879 -1.7047
   61MOL0     H 8216   6.170   6.730   2.629 -0.8549  2.3026 -1.1137
   61MOL0     H 8217   5.856   6.982   2.594 -2.8977  1.1402  2.7165
   61MOL0     H 8218   5.683   7.163   2.613  1.3274  0.1638  0.0304
   61MOL0     H 8219   3.691   7.443   2.381  0.8381  1.1026  0.8834
   61MOL0     H 8220   3.445   7.409   2.352 -0.9175 -0.4396  3.5820
   61MOL0     H 8221   3.052   7.487   2.216  3.7444  2.4189  2.7635
   61MOL0     H 8222   2.822   7.447   2.175  0.5435  0.4276  0.2221
   61MOL0     H 8223   2.544   7.666   2.191 -0.4088 -0.9371 -0.6575
   61MOL0     H 8224   2.597   7.760   2.329  1.7108  0.1469 -2.6197
   61MOL0     H 8225   2.360   7.747   2.342 -0.2235 -0.3019  1.4343
   61MOL0     H 8226   2.446   7.681   2.487  2.6578 -0.5633  0.4536
   61MOL0     H 8227   2.386   7.441   2.395  1.4576 -0.4894 -2.4596
   61MOL0     H 8228   2.325   7.514   2.256 -0.2846 -0.3532  0.5489
   61MOL0     H 8229   2.228   7.583   2.537 -1.3185 -0.0541 -0.6418
   61MOL0     H 8230   2.156   7.646   2.399  0.1349 -0.6446  0.3547
   61MOL0     H 8231   1.952   7.286   2.414  0.0595 -1.0373 -0.1052
   61MOL0     H 8232   2.728   7.710   2.511 -0.4349 -0.5926  0.3776
   61MOL0     H 8233   3.082   7.786   2.584  1.1769  1.6688 -1.6542
   61MOL0     H 8234   2.941   7.892   2.529  2.6269 -0.6825 -1.6440
   61MOL0     H 8235   2.918   7.766   2.653 -0.2035 -1.2848 -0.6360
   62MOL0     O 8236   4.966   9.785   5.140  0.3046 -0.1142 -0.5162
   62MOL0     C 8237   4.992   9.726   5.245 -1.1752  0.1848 -0.2056
   62MOL0     O 8238   5.112   9.690   5.284 -0.5451 -0.4069  0.6768
   62MOL0     C 8239   5.222   9.732   5.219 -0.4155  0.0509  0.0963
   62MOL0     C 8240   5.331   9.643   5.230  0.3480 -0.0251 -0.3845
   62MOL0     C 8241   5.452   9.680   5.165  0.6358 -0.6397 -0.0420
   62MOL0     C 8242   5.462   9.799   5.085 -0.3132 -0.6512 -0.6571
   62MOL0     O 8243   5.582   9.805   5.023  0.0744  0.4606 -0.2964
   62MOL0     C 8244   5.603   9.906   4.915  0.5257  1.3419 -0.6299
   62MOL0     C 8245   5.670  10.030   4.977 -0.2961  0.0676 -0.8088
   62MOL0     C 8246   5.813   9.998   5.031  0.3107  0.9077  0.3595
   62MOL0     C 8247   5.932   9.978   4.929 -0.0214 -0.4800 -0.6918
   62MOL0     C 8248   6.059   9.946   5.006 -0.8804 -0.7502  0.6914
   62MOL0     C 8249   6.180   9.988   4.927 -0.1352  0.3475  0.2807
   62MOL0     C 8250   6.311   9.957   5.014 -0.2324  0.2131 -0.4740
   62MOL0     C 8251   6.339  10.053   5.131 -0.3524 -0.3222  0.2470
   62MOL0     N 8252   6.476  10.023   5.174  0.0109  0.3969 -0.2204
   62MOL0     C 8253   6.531   9.913   5.226  0.6193  0.3198 -0.2810
   62MOL0     C 8254   6.653   9.940   5.259 -0.2339  0.3025 -0.4105
   62MOL0     C 8255   6.742   9.853   5.340  0.0482 -0.0781 -0.1408
   62MOL0     C 8256   6.773   9.714   5.276  0.3617 -0.1815  0.3528
   62MOL0     C 8257   6.821   9.734   5.134 -0.5118 -0.2352  0.6005
   62MOL0     C 8258   6.875   9.599   5.064  0.4138 -0.5977 -0.4706
   62MOL0     O 8259   6.959   9.530   5.159 -0.2406 -0.4134 -0.1330
   62MOL0     C 8260   7.093   9.534   5.154 -0.5648  0.9082  0.5611
   62MOL0     C 8261   7.172   9.619   5.073 -0.5176 -0.3682  0.2442
   62MOL0     C 8262   7.310   9.603   5.081 -0.3780  0.3723  0.5927
   62MOL0     C 8263   7.377   9.497   5.153  0.1347 -0.0452 -0.3555
   62MOL0     C 8264   7.530   9.489   5.156 -0.1311 -0.1314  1.2836
   62MOL0     O 8265   7.596   9.566   5.060 -0.1715  0.1689 -1.1820
   62MOL0     C 8266   7.729   9.544   5.048 -0.7790  0.1278  0.3699
   62MOL0     C 8267   7.770   9.430   4.981 -0.6224 -0.5423 -0.5564
   62MOL0     C 8268   7.900   9.389   4.982  0.2007  1.1212 -0.8104
   62MOL0     C 8269   7.999   9.467   5.039 -0.1808  0.3119 -0.3675
   62MOL0     O 8270   8.125   9.425   5.061 -0.6333 -0.2672  0.5111
   62MOL0     C 8271   8.161   9.287   5.095 -0.1443 -0.0657  0.1202
   62MOL0     C 8272   8.215   9.209   4.979  0.0580 -0.4652  0.5085
   62MOL0     C 8273   8.340   9.256   4.918 -0.4467  0.5012  0.1327
   62MOL0     C 8274   8.462   9.256   5.009  0.8487  0.1648  0.2252
   62MOL0     C 8275   8.599   9.279   4.931  0.1097  0.7795 -1.0269
   62MOL0     C 8276   8.714   9.284   5.028 -0.6885  0.2572 -0.6979
   62MOL0     C 8277   8.849   9.298   4.950 -0.2039  0.3782  0.4640
   62MOL0     C 8278   8.967   9.319   5.043 -0.1346 -0.6550  1.4366
   62MOL0    Cl 8279   8.997   9.203   5.172  0.3822  0.6502 -0.5777
   62MOL0     C 8280   7.961   9.588   5.101  0.6788  0.5474 -0.5560
   62MOL0     C 8281   7.829   9.629   5.108  0.5783 -0.5589  0.1914
   62MOL0     O 8282   7.580   9.411   5.231 -0.3791 -0.1163  0.3988
   62MOL0     C 8283   7.296   9.414   5.229  1.1976 -0.0108 -1.2399
   62MOL0     C 8284   7.161   9.436   5.235  1.0070  1.7199  0.3803
   62MOL0     N 8285   6.680  10.072   5.216  0.0656  0.6545 -0.0814
   62MOL0     N 8286   6.577  10.108   5.155 -0.3346 -0.7579  0.2391
   62MOL0     C 8287   5.360   9.890   5.087  0.2876 -0.3715 -0.7427
   62MOL0     C 8288   5.244   9.857   5.158 -0.3551  0.0157  0.3188
   62MOL0     C 8289   4.884   9.675   5.329 -0.4844 -0.1783 -0.1085
   62MOL0     C 8290   4.910   9.565   5.409  0.5276  0.7780  0.1427
   62MOL0     C 8291   4.822   9.508   5.503  0.2494  0.5909 -0.1730
   62MOL0     C 8292   4.690   9.552   5.497 -0.2103  0.0158  0.4621
   62MOL0     O 8293   4.600   9.503   5.579  0.7924 -0.0428 -0.8801
   62MOL0     C 8294   4.546   9.592   5.681 -0.0921  0.6961  0.2071
   62MOL0     C 8295   4.398   9.621   5.652  0.4168  0.0221 -0.0497
   62MOL0     C 8296   4.330   9.661   5.789 -0.0106  0.5842 -0.0906
   62MOL0     C 8297   4.185   9.697   5.767 -0.4584 -0.0772  0.4770
   62MOL0     C 8298   4.157   9.809   5.676 -0.2409  0.1132 -0.1398
   62MOL0     C 8299   4.119   9.894   5.597 -0.2992  0.0766 -0.4156
   62MOL0     C 8300   4.661   9.667   5.416  0.3218  0.1572  0.3620
   62MOL0     C 8301   4.755   9.728   5.334  0.0162 -0.7646  1.0017
   62MOL0     C 8302   4.719   9.856   5.255 -0.0118  0.4791  0.8999
   62MOL0     H 8303   5.316   9.552   5.288 -0.3110 -0.0410 -0.5634
   62MOL0     H 8304   5.540   9.618   5.181  1.8925  1.4415  1.7884
   62MOL0     H 8305   5.664   9.847   4.845  0.2159  0.0995  0.1042
   62MOL0     H 8306   5.509   9.928   4.865 -0.1201 -1.1706 -0.6910
   62MOL0     H 8307   5.611  10.066   5.062  0.8152  0.0638 -0.0155
   62MOL0     H 8308   5.677  10.100   4.894 -0.8040 -0.2036 -1.0844
   62MOL0     H 8309   5.800   9.904   5.085 -2.6186  0.7366 -0.4896
   62MOL0     H 8310   5.836  10.074   5.107 -0.9127  0.3663  1.2964
   62MOL0     H 8311   5.907   9.894   4.863  1.0612 -1.1438 -0.2924
   62MOL0     H 8312   5.941  10.067   4.867 -0.4121 -0.4059 -0.6456
   62MOL0     H 8313   6.060  10.016   5.089  0.3174  0.5772 -0.3804
   62MOL0     H 8314   6.074   9.840   5.030  0.6329 -0.5139  0.9276
   62MOL0     H 8315   6.186   9.928   4.836 -1.2704  3.1573 -1.7743
   62MOL0     H 8316   6.169  10.092   4.894 -1.3668  0.3443  0.6334
   62MOL0     H 8317   6.402   9.959   4.953 -0.6460  1.2892 -1.0933
   62MOL0     H 8318   6.299   9.855   5.052 -0.6857  0.4251 -0.0241
   62MOL0     H 8319   6.328  10.157   5.098 -2.4637 -0.7517 -0.5519
   62MOL0     H 8320   6.275  10.036   5.219  0.9375 -0.5980  1.1605
   62MOL0     H 8321   6.473   9.823   5.248 -0.8021  1.0292 -0.9930
   62MOL0     H 8322   6.834   9.910   5.356 -1.2277  1.9148  0.4640
   62MOL0     H 8323   6.694   9.838   5.437  0.2236 -0.2677 -0.0825
   62MOL0     H 8324   6.845   9.657   5.337  1.6655  2.4320  1.4004
   62MOL0     H 8325   6.683   9.651   5.283  0.5226 -0.3150  1.5157
   62MOL0     H 8326   6.912   9.794   5.139  0.2890 -1.3726  0.0940
   62MOL0     H 8327   6.750   9.790   5.073  0.3244  1.2019  0.9235
   62MOL0     H 8328   6.918   9.612   4.964 -0.4580  0.8635 -0.6880
   62MOL0     H 8329   6.786   9.540   5.043  0.2961  0.2330 -2.5463
   62MOL0     H 8330   7.126   9.697   5.015  0.7613 -0.5395 -1.0642
   62MOL0     H 8331   7.368   9.672   5.019 -1.2258  1.6283  1.1529
   62MOL0     H 8332   7.691   9.369   4.938 -0.7444 -0.7616 -0.0272
   62MOL0     H 8333   7.922   9.293   4.936  0.5141  0.2347  1.0902
   62MOL0     H 8334   8.232   9.287   5.178  1.1762  0.1706 -0.9781
   62MOL0     H 8335   8.072   9.238   5.134 -0.8531  0.0839 -1.2377
   62MOL0     H 8336   8.215   9.105   5.013  3.5163 -0.9425 -0.5777
   62MOL0     H 8337   8.145   9.208   4.895  0.3140  1.0378  0.2629
   62MOL0     H 8338   8.347   9.187   4.834 -0.8036  3.6910 -2.7497
   62MOL0     H 8339   8.326   9.358   4.881 -3.5424 -0.5646 -2.0913
   62MOL0     H 8340   8.459   9.157   5.057 -0.5007 -1.2284 -2.4689
   62MOL0     H 8341   8.456   9.321   5.097  3.3450  1.2659 -0.3344
   62MOL0     H 8342   8.587   9.375   4.880 -0.5752  1.3613  0.1853
   62MOL0     H 8343   8.623   9.193   4.868  2.2501  0.0399  0.6689
   62MOL0     H 8344   8.696   9.366   5.098 -2.3741  0.3028 -1.1345
   62MOL0     H 8345   8.716   9.195   5.091  1.9536 -0.6030 -1.8585
   62MOL0     H 8346   8.837   9.386   4.886  1.6741  1.2022  1.1751
   62MOL0     H 8347   8.857   9.211   4.885 -0.6987  1.6323 -1.3584
   62MOL0     H 8348   9.060   9.318   4.985 -1.4329 -0.9438 -0.7505
   62MOL0     H 8349   8.959   9.423   5.077 -2.0566  1.1011 -3.4900
   62MOL0     H 8350   8.043   9.639   5.152  3.0639 -3.5808  0.2544
   62MOL0     H 8351   7.812   9.723   5.159 -2.4987 -1.5275  1.1580
   62MOL0     H 8352   7.338   9.337   5.294 -1.0441  2.0787  3.0694
   62MOL0     H 8353   7.104   9.367   5.296  3.4679 -1.8528 -0.9970
   62MOL0     H 8354   5.372   9.976   5.022  1.9593  0.5888  0.7446
   62MOL0     H 8355   5.162   9.927   5.145  1.0531  1.3663 -1.8816
   62MOL0     H 8356   5.006   9.514   5.404 -0.6959 -1.6866 -4.7977
   62MOL0     H 8357   4.830   9.421   5.567  0.5526  0.9258  0.2493
   62MOL0     H 8358   4.611   9.675   5.705 -1.4812  0.9447  3.6287
   62MOL0     H 8359   4.548   9.529   5.771 -2.0304  1.7250  1.0276
   62MOL0     H 8360   4.341   9.536   5.615  1.5003 -0.6904 -0.1414
   62MOL0     H 8361   4.395   9.705   5.581 -0.9434  0.1179  0.0964
   62MOL0     H 8362   4.378   9.748   5.835  1.1398  0.0211 -0.2032
   62MOL0     H 8363   4.342   9.577   5.858 -1.8619  0.6502  0.3827
   62MOL0     H 8364   4.134   9.610   5.724  0.2415  0.4384 -1.5336
   62MOL0     H 8365   4.129   9.715   5.859 -1.5529 -1.2345  0.0656
   62MOL0     H 8366   4.078   9.965   5.529 -1.5052 -1.4692 -1.3739
   62MOL0     H 8367   4.561   9.708   5.406  0.1132 -0.3024  0.5346
   62MOL0     H 8368   4.735   9.834   5.148 -0.3635  0.6204  0.8165
   62MOL0     H 8369   4.615   9.888   5.258  0.8740  3.8185 -0.2745
   62MOL0     H 8370   4.771   9.937   5.306 -0.7182  0.5737  1.4831
   63MOL0     O 8371   6.945   5.466  11.172  0.1294 -0.7432  0.3835
   63MOL0     C 8372   6.874   5.548  11.235  0.2439  0.2883 -0.2930
   63MOL0     O 8373   6.782   5.634  11.185 -0.3595 -0.6668 -0.5150
   63MOL0     C 8374   6.774   5.620  11.048 -0.1337  0.1218  0.6874
   63MOL0     C 8375   6.719   5.504  10.984  0.3061  0.3854  0.0382
   63MOL0     C 8376   6.705   5.505  10.842 -0.7961 -0.1374 -0.4366
   63MOL0     C 8377   6.736   5.607  10.764  0.2243  0.7552 -0.3759
   63MOL0     O 8378   6.708   5.588  10.631  0.7770  0.1445 -0.2656
   63MOL0     C 8379   6.781   5.667  10.542  0.0008 -0.4843 -0.5350
   63MOL0     C 8380   6.881   5.580  10.476 -0.3754  0.5082 -0.0258
   63MOL0     C 8381   6.999   5.535  10.566 -0.2212  0.0688  0.1221
   63MOL0     C 8382   7.094   5.653  10.607  0.1027 -0.0390  0.4072
   63MOL0     C 8383   7.209   5.598  10.684 -0.2287 -0.8912  0.4996
   63MOL0     C 8384   7.186   5.587  10.836  0.0367  0.2155  0.5595
   63MOL0     C 8385   7.298   5.541  10.931  0.2835 -0.2943  0.2419
   63MOL0     C 8386   7.268   5.572  11.087  1.1905 -0.1014  0.4873
   63MOL0     N 8387   7.345   5.488  11.178 -0.6076  0.1623  0.3702
   63MOL0     C 8388   7.364   5.351  11.163 -0.1912 -0.0627  0.0543
   63MOL0     C 8389   7.459   5.319  11.255 -0.1257 -0.1277 -1.3611
   63MOL0     C 8390   7.512   5.177  11.282  0.6721 -0.2722 -0.8313
   63MOL0     C 8391   7.564   5.157  11.425 -0.0616  0.4882 -0.7038
   63MOL0     C 8392   7.452   5.149  11.534 -0.6510  0.6960 -0.5619
   63MOL0     C 8393   7.498   5.179  11.673 -0.7551  0.2171  0.0481
   63MOL0     O 8394   7.394   5.180  11.772  0.6029 -0.2728 -0.0013
   63MOL0     C 8395   7.391   5.296  11.848  0.0282  0.4807  0.4481
   63MOL0     C 8396   7.275   5.366  11.829  0.0422  0.4962 -0.6291
   63MOL0     C 8397   7.263   5.490  11.882  0.2420  0.2192  0.1347
   63MOL0     C 8398   7.362   5.547  11.971  0.1429  0.0512 -0.6706
   63MOL0     C 8399   7.349   5.689  12.017 -0.5755 -0.1281 -0.4404
   63MOL0     O 8400   7.449   5.728  12.096  0.4331  0.1219  0.3037
   63MOL0     C 8401   7.442   5.849  12.160  0.4639 -0.4198 -0.0483
   63MOL0     C 8402   7.331   5.899  12.229 -0.1751 -0.4349  0.0192
   63MOL0     C 8403   7.340   6.029  12.294  0.9789 -0.3924 -0.3974
   63MOL0     C 8404   7.449   6.112  12.266 -0.2747 -0.1072  0.0617
   63MOL0     O 8405   7.443   6.245  12.310 -0.5399 -0.2047  0.4341
   63MOL0     C 8406   7.327   6.295  12.390 -0.6285 -0.0966  0.3022
   63MOL0     C 8407   7.355   6.450  12.419 -0.4632 -0.2672 -0.1472
   63MOL0     C 8408   7.450   6.460  12.534  0.3020  0.1894  0.5526
   63MOL0     C 8409   7.514   6.600  12.559 -0.3659 -0.4259  0.3755
   63MOL0     C 8410   7.601   6.617  12.685 -0.0474 -0.8752 -0.1898
   63MOL0     C 8411   7.661   6.756  12.705 -0.3220 -0.3989  0.1020
   63MOL0     C 8412   7.740   6.748  12.829  0.2774  0.4928 -0.2428
   63MOL0     C 8413   7.831   6.873  12.865 -0.4258  0.4658  0.0458
   63MOL0    Cl 8414   7.739   7.033  12.888 -0.2419 -0.3507  0.0651
   63MOL0     C 8415   7.558   6.062  12.198  0.3347 -0.0584  0.6225
   63MOL0     C 8416   7.555   5.930  12.146  1.0334  0.9935  0.6946
   63MOL0     O 8417   7.250   5.749  11.984  0.2804  0.2327  0.1316
   63MOL0     C 8418   7.475   5.462  11.991 -0.3836 -0.2432 -0.7268
   63MOL0     C 8419   7.493   5.338  11.932 -0.1316  0.4960  0.2071
   63MOL0     N 8420   7.495   5.444  11.316  0.5533  0.9113  0.5834
   63MOL0     N 8421   7.426   5.543  11.269  0.0453 -0.7609 -0.0010
   63MOL0     C 8422   6.778   5.727  10.827  0.0436 -0.6596 -0.6866
   63MOL0     C 8423   6.789   5.733  10.976  0.5399  0.1645  0.0406
   63MOL0     C 8424   6.857   5.544  11.382 -0.6776  0.3467  0.1771
   63MOL0     C 8425   6.730   5.574  11.431  0.4928 -0.6881 -0.2795
   63MOL0     C 8426   6.704   5.571  11.562  0.5332 -0.6784  0.4528
   63MOL0     C 8427   6.799   5.530  11.656 -0.1259 -0.2792 -0.2202
   63MOL0     O 8428   6.779   5.531  11.803  0.5814 -0.6439  0.0605
   63MOL0     C 8429   6.676   5.633  11.841 -0.0882  0.5702 -0.1937
   63MOL0     C 8430   6.543   5.569  11.852  0.5081  0.6302 -0.0430
   63MOL0     C 8431   6.546   5.489  11.980  0.8142  0.1857 -0.7648
   63MOL0     C 8432   6.420   5.397  11.977  0.0739 -0.0810 -0.2110
   63MOL0     C 8433   6.297   5.465  12.025 -0.4593 -0.5291  0.3328
   63MOL0     C 8434   6.190   5.522  12.036  0.8212 -0.8967 -0.6227
   63MOL0     C 8435   6.920   5.487  11.616  0.0260 -0.0092  0.8145
   63MOL0     C 8436   6.951   5.496  11.473 -0.2170  0.9917  0.1258
   63MOL0     C 8437   7.088   5.444  11.433  0.0810 -0.0776  0.6100
   63MOL0     H 8438   6.697   5.414  11.041  2.8747  0.9182  2.0724
   63MOL0     H 8439   6.663   5.416  10.796 -1.9616 -0.9911  2.1001
   63MOL0     H 8440   6.718   5.708  10.462  0.3283  0.5262 -0.2851
   63MOL0     H 8441   6.830   5.757  10.579  1.4625 -0.4412 -2.4432
   63MOL0     H 8442   6.914   5.630  10.385 -1.2159 -0.4459 -0.8922
   63MOL0     H 8443   6.829   5.488  10.444 -0.9010  1.2703 -1.4682
   63MOL0     H 8444   7.060   5.468  10.504 -1.4930  1.0767 -2.3586
   63MOL0     H 8445   6.960   5.479  10.651 -2.9093 -0.9599 -1.6369
   63MOL0     H 8446   7.113   5.721  10.523 -2.6500  0.1148 -0.1890
   63MOL0     H 8447   7.041   5.717  10.679 -0.9461  1.2330 -1.4137
   63MOL0     H 8448   7.241   5.500  10.647 -2.9128 -1.5607 -0.3166
   63MOL0     H 8449   7.291   5.668  10.667 -1.8348  1.6679  2.5394
   63MOL0     H 8450   7.148   5.684  10.870 -1.1114 -0.1470  0.3411
   63MOL0     H 8451   7.103   5.521  10.863  0.0991  0.1369  0.5584
   63MOL0     H 8452   7.396   5.581  10.905  0.1881 -0.2042  0.0212
   63MOL0     H 8453   7.310   5.433  10.916 -0.6131 -0.3049 -0.5268
   63MOL0     H 8454   7.267   5.680  11.106 -1.1979  0.1584 -0.7288
   63MOL0     H 8455   7.164   5.543  11.103  1.3963  0.0877  2.3409
   63MOL0     H 8456   7.321   5.283  11.090  0.5683  0.5126 -0.9579
   63MOL0     H 8457   7.424   5.112  11.277 -1.3986  2.2942 -0.2065
   63MOL0     H 8458   7.577   5.128  11.209 -1.2495 -2.5766 -1.1004
   63MOL0     H 8459   7.628   5.068  11.426 -0.5801  0.0277 -2.7800
   63MOL0     H 8460   7.628   5.243  11.451  1.6107 -1.1966  1.0286
   63MOL0     H 8461   7.414   5.046  11.531 -0.4590  0.6449 -1.3222
   63MOL0     H 8462   7.368   5.216  11.510  0.1080  2.9446  2.4865
   63MOL0     H 8463   7.548   5.275  11.666  0.6238  0.2699  5.9167
   63MOL0     H 8464   7.578   5.108  11.696 -0.5297  0.2187 -0.7138
   63MOL0     H 8465   7.181   5.338  11.784 -0.3512  2.1655 -0.9090
   63MOL0     H 8466   7.170   5.541  11.858  0.1029  0.6867  1.5341
   63MOL0     H 8467   7.237   5.846  12.232 -1.0495  0.7906  5.4484
   63MOL0     H 8468   7.262   6.051  12.367  0.0587 -1.0555 -1.1534
   63MOL0     H 8469   7.232   6.286  12.337 -1.2943  0.6797  1.3320
   63MOL0     H 8470   7.328   6.255  12.492  2.4494 -0.6241  0.1573
   63MOL0     H 8471   7.392   6.497  12.327 -3.3790 -0.8361 -1.7192
   63MOL0     H 8472   7.266   6.501  12.457 -0.1951  0.8304 -0.9303
   63MOL0     H 8473   7.397   6.430  12.625  3.5391 -1.1025  2.1829
   63MOL0     H 8474   7.528   6.385  12.516  0.1882  0.2984 -0.4317
   63MOL0     H 8475   7.436   6.676  12.563 -0.5098 -0.4602 -1.0789
   63MOL0     H 8476   7.581   6.624  12.475  0.5435 -1.9524  0.6258
   63MOL0     H 8477   7.689   6.552  12.675  0.1322 -0.6830  0.1621
   63MOL0     H 8478   7.544   6.599  12.776  1.2865  1.0370  1.1010
   63MOL0     H 8479   7.731   6.770  12.622 -0.3765  0.0020  0.1220
   63MOL0     H 8480   7.596   6.844  12.714  1.5954  1.0344  0.7629
   63MOL0     H 8481   7.809   6.663  12.829  2.6276  2.2785  0.6567
   63MOL0     H 8482   7.663   6.730  12.905  0.0249 -1.4098 -0.9111
   63MOL0     H 8483   7.892   6.844  12.952  1.9259  2.7812 -0.7250
   63MOL0     H 8484   7.907   6.892  12.789  3.0510 -1.1508  2.7745
   63MOL0     H 8485   7.645   6.126  12.191 -1.3926  2.5032  1.4139
   63MOL0     H 8486   7.643   5.881  12.106  0.6084  0.2961  0.6077
   63MOL0     H 8487   7.556   5.502  12.051 -2.8787  0.3887  2.5151
   63MOL0     H 8488   7.588   5.285  11.931  1.0180  2.4471 -0.2263
   63MOL0     H 8489   6.792   5.826  10.785 -1.0109  0.4309  1.3772
   63MOL0     H 8490   6.820   5.824  11.025  0.9346  2.8528 -4.6168
   63MOL0     H 8491   6.646   5.608  11.371  1.7895  0.9744 -1.2784
   63MOL0     H 8492   6.606   5.601  11.599  1.3231  0.9576  1.3186
   63MOL0     H 8493   6.663   5.710  11.764  1.0820  0.0289 -0.9593
   63MOL0     H 8494   6.702   5.684  11.934 -1.2479 -0.7861  0.9144
   63MOL0     H 8495   6.516   5.512  11.762 -0.0737 -0.0412  0.5426
   63MOL0     H 8496   6.464   5.642  11.871 -0.1685 -0.1200  0.1085
   63MOL0     H 8497   6.562   5.560  12.062  0.1958  0.4337 -0.8555
   63MOL0     H 8498   6.631   5.420  11.981  1.5977  1.0637  2.1202
   63MOL0     H 8499   6.403   5.360  11.876  1.9623  2.7505 -1.7118
   63MOL0     H 8500   6.446   5.321  12.051  4.4559  1.2525 -0.0738
   63MOL0     H 8501   6.099   5.577  12.043 -0.1663 -2.7057  2.2095
   63MOL0     H 8502   6.986   5.445  11.691  2.2706  0.8977 -0.5594
   63MOL0     H 8503   7.129   5.517  11.362  0.8494 -0.9923  0.0828
   63MOL0     H 8504   7.157   5.453  11.518  2.3914 -2.2983 -0.8982
   63MOL0     H 8505   7.097   5.345  11.388 -0.3475  0.7877 -1.5132
   64MOL0     O 8506   5.452   0.707   9.916  0.4508  0.6660 -0.5608
   64MOL0     C 8507   5.465   0.727  10.036  0.3734  0.1719  0.0398
   64MOL0     O 8508   5.579   0.766  10.099 -0.5295  0.1038 -0.1749
   64MOL0     C 8509   5.697   0.738  10.029  0.2848 -0.4363  0.3541
   64MOL0     C 8510   5.809   0.806  10.068 -0.5662  0.3710 -1.1602
   64MOL0     C 8511   5.928   0.799   9.999  0.2968  0.4014 -0.1168
   64MOL0     C 8512   5.954   0.707   9.901  0.6864 -0.4032  0.7371
   64MOL0     O 8513   6.069   0.694   9.816  0.5500  0.3109  0.1241
   64MOL0     C 8514   6.185   0.758   9.847  0.1751 -0.0095  0.4066
   64MOL0     C 8515   6.261   0.696   9.970 -0.1141  0.4127 -0.5324
   64MOL0     C 8516   6.412   0.722   9.970 -0.4789 -0.1103  0.7085
   64MOL0     C 8517   6.445   0.873   9.961 -0.3357 -0.4649 -0.6588
   64MOL0     C 8518   6.601   0.896   9.987  0.1699 -0.5295  0.6192
   64MOL0     C 8519   6.645   1.035   9.965  0.0456  0.0331  0.5498
   64MOL0     C 8520   6.791   1.057  10.003 -0.8585  0.1789  0.0555
   64MOL0     C 8521   6.843   1.201   9.993  0.4457  0.5568  0.1563
   64MOL0     N 8522   6.983   1.212  10.014  0.3482  0.0318  0.2646
   64MOL0     C 8523   7.075   1.177   9.919 -0.0784  0.7803  0.1117
   64MOL0     C 8524   7.186   1.224   9.975 -0.4667  0.3358 -0.3268
   64MOL0     C 8525   7.323   1.238   9.912  0.3755 -0.3100  0.3434
   64MOL0     C 8526   7.328   1.343   9.808  0.4154 -0.0233 -0.3920
   64MOL0     C 8527   7.324   1.487   9.853 -0.5124 -0.4034  0.1303
   64MOL0     C 8528   7.440   1.537   9.946  0.3536  0.1122  0.2346
   64MOL0     O 8529   7.565   1.497   9.895 -0.8254 -0.3169  0.3031
   64MOL0     C 8530   7.668   1.578   9.918 -0.3743  0.6928 -0.3379
   64MOL0     C 8531   7.778   1.530   9.843 -0.1108 -0.0108  1.2248
   64MOL0     C 8532   7.903   1.592   9.857  0.8794 -0.4199  0.0838
   64MOL0     C 8533   7.916   1.704   9.949 -0.3981 -0.5125  0.2588
   64MOL0     C 8534   8.049   1.780   9.969 -1.0251 -0.3423  0.0870
   64MOL0     O 8535   8.063   1.870  10.079  0.0821 -0.3608  0.3033
   64MOL0     C 8536   8.188   1.925  10.111 -0.7616 -0.7074  0.1807
   64MOL0     C 8537   8.212   2.060  10.133 -0.2977 -0.0438 -0.4751
   64MOL0     C 8538   8.336   2.116  10.159 -0.2730 -0.2121  0.0579
   64MOL0     C 8539   8.442   2.031  10.173  0.4566 -0.1563  0.1406
   64MOL0     O 8540   8.570   2.066  10.190 -0.1696  0.3849 -0.1967
   64MOL0     C 8541   8.624   2.190  10.158  0.9601 -0.9915  0.0794
   64MOL0     C 8542   8.777   2.190  10.162 -0.5545  0.1510 -0.3117
   64MOL0     C 8543   8.848   2.186  10.302 -0.5685 -0.4621 -0.3747
   64MOL0     C 8544   8.987   2.239  10.293  0.6916 -0.7712 -0.5339
   64MOL0     C 8545   9.080   2.191  10.408 -0.4499  0.4598 -0.0683
   64MOL0     C 8546   9.221   2.176  10.367 -0.0175 -1.0323  0.3587
   64MOL0     C 8547   9.289   2.315  10.318 -0.2467  0.3040  0.4737
   64MOL0     C 8548   9.439   2.328  10.355  0.3948  0.3154  0.4487
   64MOL0    Cl 8549   9.514   2.197  10.266 -0.1958  0.4123  0.3032
   64MOL0     C 8550   8.428   1.895  10.146 -0.3612  0.2338 -0.3644
   64MOL0     C 8551   8.303   1.845  10.109  0.1205  0.2161 -0.7318
   64MOL0     O 8552   8.142   1.743   9.897  0.1791  0.3673 -0.2999
   64MOL0     C 8553   7.807   1.745  10.027 -0.3235 -0.2557  0.0758
   64MOL0     C 8554   7.686   1.680  10.018  0.0223  0.2274 -0.5359
   64MOL0     N 8555   7.167   1.255  10.104 -0.3732 -1.0114 -0.1483
   64MOL0     N 8556   7.044   1.244  10.131  0.0551  0.1612  0.6341
   64MOL0     C 8557   5.847   0.630   9.863  0.1086  0.7441 -0.5501
   64MOL0     C 8558   5.724   0.641   9.927  0.2290 -0.8816 -0.6216
   64MOL0     C 8559   5.351   0.696  10.135  0.2657 -0.1896 -0.6095
   64MOL0     C 8560   5.385   0.702  10.276 -0.2262 -0.2487 -0.0613
   64MOL0     C 8561   5.295   0.675  10.378  0.8034 -0.5995  0.1491
   64MOL0     C 8562   5.159   0.650  10.343 -0.3438  0.0154  0.3588
   64MOL0     O 8563   5.058   0.641  10.440  0.2444  0.0704  0.2589
   64MOL0     C 8564   5.074   0.560  10.555  0.1758  0.4582  0.1694
   64MOL0     C 8565   5.066   0.406  10.504  0.8923  0.5201 -0.1589
   64MOL0     C 8566   4.922   0.370  10.471 -0.0087  0.3565  0.1420
   64MOL0     C 8567   4.904   0.228  10.451 -0.5275  0.2541  0.9998
   64MOL0     C 8568   4.774   0.185  10.418  0.3928  0.5809 -0.0185
   64MOL0     C 8569   4.657   0.148  10.378 -0.5480 -0.2042 -0.5935
   64MOL0     C 8570   5.121   0.651  10.206 -0.4156  0.5157  0.5288
   64MOL0     C 8571   5.214   0.669  10.107  0.5784  0.7619  0.7626
   64MOL0     C 8572   5.162   0.672   9.963 -0.6900 -0.2002  0.3745
   64MOL0     H 8573   5.801   0.878  10.149  0.1470 -2.2072  1.3548
   64MOL0     H 8574   6.006   0.874  10.012 -0.6917  1.5163 -0.4921
   64MOL0     H 8575   6.239   0.755   9.752 -1.8946  0.1978 -0.8147
   64MOL0     H 8576   6.168   0.865   9.867  0.0192 -0.5018  3.4535
   64MOL0     H 8577   6.248   0.588   9.963  1.5641  0.0316  1.4594
   64MOL0     H 8578   6.222   0.726  10.068  2.2522  2.6722 -0.1879
   64MOL0     H 8579   6.454   0.664   9.888  0.0709  2.9331 -1.3556
   64MOL0     H 8580   6.449   0.681  10.064  0.1534  0.8849  0.9156
   64MOL0     H 8581   6.409   0.921   9.870  1.2862  0.4214 -0.8750
   64MOL0     H 8582   6.392   0.918  10.046 -1.9240  1.0114 -2.3430
   64MOL0     H 8583   6.639   0.859  10.082 -0.3252  1.5735  1.6920
   64MOL0     H 8584   6.649   0.839   9.907 -1.2806  1.9720 -2.2751
   64MOL0     H 8585   6.642   1.058   9.858 -1.7433 -2.2211  0.0393
   64MOL0     H 8586   6.581   1.106  10.017  0.6064  0.4563  0.6664
   64MOL0     H 8587   6.855   0.999   9.936  1.8598  2.2162  0.7086
   64MOL0     H 8588   6.820   1.018  10.101  2.3694  0.5952 -0.6162
   64MOL0     H 8589   6.817   1.233   9.891  0.8206 -2.6985 -1.0591
   64MOL0     H 8590   6.782   1.257  10.065 -2.3377  1.8812 -2.9406
   64MOL0     H 8591   7.051   1.132   9.824 -1.8539  1.8973 -0.0204
   64MOL0     H 8592   7.395   1.258   9.992  0.8472  1.4678 -0.4780
   64MOL0     H 8593   7.342   1.141   9.865  1.6128 -0.7597  1.6953
   64MOL0     H 8594   7.421   1.328   9.752  0.7100  0.8191 -0.1362
   64MOL0     H 8595   7.240   1.327   9.745 -0.6802 -0.6417  1.2406
   64MOL0     H 8596   7.235   1.503   9.914 -0.4802  0.0581  0.0628
   64MOL0     H 8597   7.313   1.551   9.764 -1.0585  0.6471  0.9297
   64MOL0     H 8598   7.426   1.499  10.048 -0.7584  1.5443  0.6451
   64MOL0     H 8599   7.429   1.646   9.952  0.4463  0.1993 -0.9706
   64MOL0     H 8600   7.753   1.453   9.771  0.8335 -1.5559  2.5070
   64MOL0     H 8601   7.992   1.548   9.812 -0.1621 -2.8333  0.2079
   64MOL0     H 8602   8.119   2.117  10.130  0.8318  2.0510  1.7434
   64MOL0     H 8603   8.359   2.221  10.171  2.8808 -0.9412  1.2918
   64MOL0     H 8604   8.598   2.204  10.053  0.4762  0.2713  0.3523
   64MOL0     H 8605   8.580   2.263  10.227 -0.8521 -1.2473 -0.7361
   64MOL0     H 8606   8.804   2.103  10.102 -1.4030  0.5890 -1.3637
   64MOL0     H 8607   8.811   2.278  10.105 -0.0176  0.4763  0.5037
   64MOL0     H 8608   8.796   2.245  10.378  0.1169 -0.3702  0.0331
   64MOL0     H 8609   8.838   2.083  10.340  0.0896 -0.6676 -0.7490
   64MOL0     H 8610   8.975   2.348  10.284 -2.2450 -1.0573 -1.0565
   64MOL0     H 8611   9.038   2.204  10.203  1.6072 -0.8439  0.0014
   64MOL0     H 8612   9.044   2.092  10.436  0.7021 -0.3956 -1.4636
   64MOL0     H 8613   9.073   2.257  10.495 -3.6273 -1.6427  1.4435
   64MOL0     H 8614   9.277   2.117  10.441 -1.2738 -2.8093 -0.0579
   64MOL0     H 8615   9.223   2.116  10.276  4.6236  0.8211 -1.0358
   64MOL0     H 8616   9.241   2.389  10.382 -1.0468 -0.6000  0.9377
   64MOL0     H 8617   9.279   2.328  10.210  2.1145 -0.6449  0.0626
   64MOL0     H 8618   9.465   2.429  10.322  1.1931 -0.6790 -2.1411
   64MOL0     H 8619   9.439   2.318  10.464  2.5315 -0.0334  0.4602
   64MOL0     H 8620   8.514   1.828  10.147 -0.7301 -0.2399 -0.0533
   64MOL0     H 8621   8.292   1.738  10.093 -0.4164 -0.0560  1.1973
   64MOL0     H 8622   7.827   1.831  10.090  2.2865 -1.8390  1.5672
   64MOL0     H 8623   7.613   1.710  10.093  2.7768 -0.1867  2.5493
   64MOL0     H 8624   5.842   0.550   9.790 -0.4018 -0.6496  0.9718
   64MOL0     H 8625   5.648   0.570   9.895 -0.9513 -0.0949  0.3372
   64MOL0     H 8626   5.485   0.738  10.299 -0.4308  1.9322 -2.1193
   64MOL0     H 8627   5.334   0.688  10.479 -1.5078 -1.3818  1.2057
   64MOL0     H 8628   4.995   0.583  10.627  0.0017  1.4224 -0.3216
   64MOL0     H 8629   5.171   0.585  10.599  0.5711  1.1346 -1.0364
   64MOL0     H 8630   5.095   0.335  10.581  0.4801  2.0234  1.4492
   64MOL0     H 8631   5.127   0.381  10.417  0.2432 -3.4667  0.3691
   64MOL0     H 8632   4.888   0.419  10.380 -2.4013 -0.1767  0.6973
   64MOL0     H 8633   4.859   0.406  10.553 -0.8981  1.8540 -1.1585
   64MOL0     H 8634   4.977   0.194  10.377  0.6783  1.7537  1.4435
   64MOL0     H 8635   4.928   0.167  10.539 -1.5927 -2.9934 -0.8092
   64MOL0     H 8636   4.557   0.125  10.348 -1.7713 -1.0410  3.4856
   64MOL0     H 8637   5.015   0.646  10.186 -0.4011  0.9781  0.3150
   64MOL0     H 8638   5.199   0.759   9.909 -0.3206  0.6168  1.8801
   64MOL0     H 8639   5.205   0.587   9.909  1.2869  0.9074  0.1331
   64MOL0     H 8640   5.053   0.666   9.957 -0.5231 -2.0304 -2.5250
   65MOL0     O 8641   1.304   3.857   6.030  0.4399 -0.7059 -0.1063
   65MOL0     C 8642   1.214   3.815   5.953  0.8739 -0.0782  0.3024
   65MOL0     O 8643   1.233   3.781   5.826  0.1582 -0.3299 -0.7740
   65MOL0     C 8644   1.362   3.767   5.786 -0.0376  0.0853 -0.0928
   65MOL0     C 8645   1.443   3.653   5.819  0.2684 -0.8018 -0.3517
   65MOL0     C 8646   1.579   3.640   5.777  0.2978 -0.3089 -0.2628
   65MOL0     C 8647   1.630   3.745   5.702 -0.4101  1.2597 -0.7260
   65MOL0     O 8648   1.760   3.747   5.660 -0.0920 -0.3897  0.1749
   65MOL0     C 8649   1.835   3.625   5.645  0.1042  0.9767  0.4516
   65MOL0     C 8650   1.966   3.652   5.567  0.5110 -0.2385  0.3215
   65MOL0     C 8651   2.082   3.686   5.653 -0.6721  0.1942  0.0151
   65MOL0     C 8652   2.156   3.557   5.709  0.3169 -0.3004 -0.1216
   65MOL0     C 8653   2.274   3.596   5.792  0.2166  0.1984  0.3229
   65MOL0     C 8654   2.230   3.675   5.909 -1.1734 -0.3137  0.2087
   65MOL0     C 8655   2.351   3.666   6.020  0.2042  0.0097  0.8206
   65MOL0     C 8656   2.335   3.762   6.138  0.9798 -0.1606  0.6500
   65MOL0     N 8657   2.457   3.796   6.207  0.4794  0.4378  0.1050
   65MOL0     C 8658   2.540   3.888   6.143 -0.0876  0.6138 -0.8853
   65MOL0     C 8659   2.654   3.865   6.222  0.1597 -0.3813 -0.2481
   65MOL0     C 8660   2.767   3.953   6.196 -0.4800  0.5220 -0.3942
   65MOL0     C 8661   2.892   3.920   6.280  0.9789 -0.1347 -0.5228
   65MOL0     C 8662   3.008   3.995   6.227  0.4664  0.7775 -0.1874
   65MOL0     C 8663   3.150   3.958   6.291  1.3509 -0.2551 -0.0817
   65MOL0     O 8664   3.244   4.067   6.273 -0.0267  0.1333 -0.3121
   65MOL0     C 8665   3.372   4.054   6.307 -0.0262  0.6432 -0.7785
   65MOL0     C 8666   3.470   4.002   6.227  0.2495  0.0323 -0.3722
   65MOL0     C 8667   3.605   3.984   6.273  0.1294  0.5201 -0.1407
   65MOL0     C 8668   3.639   4.013   6.404 -0.3184 -0.7465  0.0126
   65MOL0     C 8669   3.772   4.015   6.455 -0.2632  0.3140  0.2808
   65MOL0     O 8670   3.789   4.015   6.593 -0.3033  0.5292  0.0742
   65MOL0     C 8671   3.912   3.969   6.633 -0.3310  1.2025 -0.3703
   65MOL0     C 8672   3.994   4.049   6.712 -0.3128  1.0050 -0.0714
   65MOL0     C 8673   4.119   4.008   6.762  0.1044 -0.1718 -0.1208
   65MOL0     C 8674   4.157   3.877   6.723 -0.0052 -0.4817  0.1103
   65MOL0     O 8675   4.284   3.830   6.759 -0.1461  0.7100 -1.0473
   65MOL0     C 8676   4.275   3.742   6.873  0.4403 -0.1660 -0.8950
   65MOL0     C 8677   4.325   3.822   6.998 -0.4347  0.1562  0.2960
   65MOL0     C 8678   4.476   3.861   6.982  0.6740  0.2446  0.1780
   65MOL0     C 8679   4.521   3.923   7.104  0.7669 -1.1157 -0.1531
   65MOL0     C 8680   4.673   3.945   7.110  0.8667 -0.9081  0.3183
   65MOL0     C 8681   4.745   3.815   7.136 -0.9433  0.6908 -0.3238
   65MOL0     C 8682   4.887   3.846   7.182  0.4660  0.0910  0.1997
   65MOL0     C 8683   4.966   3.922   7.083  0.0606 -0.4899  1.0214
   65MOL0    Cl 8684   4.990   3.813   6.937  0.1788 -0.2531  0.0913
   65MOL0     C 8685   4.075   3.791   6.649  0.1520  0.7058 -0.1938
   65MOL0     C 8686   3.951   3.838   6.601  0.0951  1.0159 -0.6462
   65MOL0     O 8687   3.861   4.015   6.366  0.2910  0.2311  0.3394
   65MOL0     C 8688   3.545   4.071   6.481  0.4862 -0.5209  0.6387
   65MOL0     C 8689   3.413   4.095   6.434  0.9535 -0.4803  0.3436
   65MOL0     N 8690   2.634   3.789   6.332 -0.8224  0.6625 -0.5318
   65MOL0     N 8691   2.509   3.748   6.324  0.5885 -0.2617  0.1305
   65MOL0     C 8692   1.553   3.853   5.664 -0.1693 -0.3078 -0.0287
   65MOL0     C 8693   1.420   3.862   5.700  0.1559  0.1710 -0.5100
   65MOL0     C 8694   1.075   3.806   6.004 -0.0201 -0.7767  0.5085
   65MOL0     C 8695   0.987   3.748   5.917  0.1909 -0.8322  0.2342
   65MOL0     C 8696   0.845   3.744   5.938  0.7186 -0.0731  0.2010
   65MOL0     C 8697   0.790   3.785   6.062 -0.5013  0.0246 -0.2904
   65MOL0     O 8698   0.656   3.793   6.081  0.0327  0.2830  0.9317
   65MOL0     C 8699   0.591   3.916   6.051  0.4706 -0.3870  0.1153
   65MOL0     C 8700   0.474   3.900   5.952  0.1967 -0.6674 -0.0332
   65MOL0     C 8701   0.402   3.765   5.966  0.6232  0.1094  0.9455
   65MOL0     C 8702   0.339   3.747   6.101 -0.7905  0.0512  0.2023
   65MOL0     C 8703   0.225   3.847   6.119 -0.4760  0.2002  0.0271
   65MOL0     C 8704   0.122   3.908   6.131  0.8296 -0.1849  0.2273
   65MOL0     C 8705   0.876   3.832   6.162 -0.3557  0.1290 -1.0613
   65MOL0     C 8706   1.014   3.849   6.131  0.9387 -0.4816 -1.0957
   65MOL0     C 8707   1.101   3.907   6.245 -0.2749  0.9123 -0.0013
   65MOL0     H 8708   1.395   3.575   5.877 -1.1111  1.8230  2.3357
   65MOL0     H 8709   1.634   3.551   5.805  0.2931 -0.2899 -0.1920
   65MOL0     H 8710   1.850   3.589   5.747 -2.2701 -0.8767  0.2233
   65MOL0     H 8711   1.792   3.548   5.581  2.7943 -0.0887 -0.2335
   65MOL0     H 8712   1.950   3.739   5.502  0.5309 -0.8428 -0.5051
   65MOL0     H 8713   1.999   3.561   5.517 -0.6618 -2.3867  3.2007
   65MOL0     H 8714   2.046   3.742   5.740 -2.2355 -0.0586 -0.4317
   65MOL0     H 8715   2.148   3.750   5.593 -0.6851 -1.5234 -1.9436
   65MOL0     H 8716   2.088   3.496   5.769  1.1767 -1.8779 -0.6876
   65MOL0     H 8717   2.181   3.493   5.624 -4.9089 -0.2486 -2.0563
   65MOL0     H 8718   2.323   3.501   5.815  1.0174  0.7447  0.9550
   65MOL0     H 8719   2.344   3.658   5.735  0.2484 -1.8634 -2.0334
   65MOL0     H 8720   2.210   3.777   5.875 -2.1322 -0.8097 -0.7843
   65MOL0     H 8721   2.134   3.643   5.953  0.4878 -0.2998  4.3573
   65MOL0     H 8722   2.446   3.684   5.969  1.8563 -0.8470  3.4420
   65MOL0     H 8723   2.343   3.568   6.069 -0.1535  0.6603  2.1004
   65MOL0     H 8724   2.286   3.854   6.105 -0.3246 -0.8521  0.5681
   65MOL0     H 8725   2.263   3.713   6.204 -0.5748  3.6623  2.0318
   65MOL0     H 8726   2.530   3.940   6.048  2.7937  0.2982 -1.4328
   65MOL0     H 8727   2.790   3.958   6.089  3.5523  1.6920  0.3768
   65MOL0     H 8728   2.735   4.055   6.219 -2.0927 -0.2676  1.1504
   65MOL0     H 8729   2.888   3.952   6.385  2.4746  0.5611 -0.6531
   65MOL0     H 8730   2.911   3.812   6.282  2.1715  0.0705  0.7371
   65MOL0     H 8731   2.989   4.101   6.243  0.6040  0.5491  1.7731
   65MOL0     H 8732   3.011   3.984   6.118 -0.7746  0.6141 -0.2214
   65MOL0     H 8733   3.180   3.864   6.243  0.0430 -0.7821  0.0895
   65MOL0     H 8734   3.145   3.933   6.397  1.5450  2.9273  0.7664
   65MOL0     H 8735   3.439   3.974   6.126 -2.6819  0.9299  0.1925
   65MOL0     H 8736   3.678   3.919   6.227 -0.1219  1.5954 -2.1551
   65MOL0     H 8737   3.971   4.153   6.736  0.6736  1.1446  0.3198
   65MOL0     H 8738   4.174   4.083   6.817  0.7030  0.1465 -1.1314
   65MOL0     H 8739   4.175   3.704   6.895 -0.1542  0.3458 -2.5760
   65MOL0     H 8740   4.347   3.661   6.860  0.4822 -0.1404 -0.8283
   65MOL0     H 8741   4.258   3.909   7.003 -1.5911 -0.5202 -1.8465
   65MOL0     H 8742   4.320   3.746   7.076 -0.8365 -1.1917 -1.0114
   65MOL0     H 8743   4.545   3.777   6.972  0.6341 -0.1751  2.8343
   65MOL0     H 8744   4.485   3.928   6.895  2.0664  0.1526  0.2281
   65MOL0     H 8745   4.486   3.859   7.185 -2.1259  1.1606  0.5432
   65MOL0     H 8746   4.466   4.017   7.116 -0.9519 -1.5622 -3.4219
   65MOL0     H 8747   4.689   4.015   7.192 -3.2398  2.5022 -1.4279
   65MOL0     H 8748   4.713   3.992   7.020 -0.9321 -0.4524 -0.2694
   65MOL0     H 8749   4.697   3.755   7.214  0.6608 -0.8999 -0.4932
   65MOL0     H 8750   4.742   3.758   7.043 -3.6101  0.3971 -0.1378
   65MOL0     H 8751   4.943   3.754   7.205  1.8502  0.5374 -1.2285
   65MOL0     H 8752   4.884   3.900   7.277 -1.3749 -0.7561  0.6644
   65MOL0     H 8753   4.925   4.020   7.055  2.0305 -0.3252 -1.7275
   65MOL0     H 8754   5.065   3.945   7.122 -0.0281 -0.4468  1.2202
   65MOL0     H 8755   4.116   3.693   6.625 -0.0087  0.5467  0.1797
   65MOL0     H 8756   3.882   3.773   6.548 -2.0423  3.9997 -1.7842
   65MOL0     H 8757   3.570   4.110   6.579 -0.9576 -2.1223  1.6960
   65MOL0     H 8758   3.348   4.158   6.494 -0.1589  2.6590 -3.7294
   65MOL0     H 8759   1.601   3.921   5.595 -1.1430 -1.0730 -1.5299
   65MOL0     H 8760   1.361   3.951   5.680 -1.2334 -0.2921  1.2308
   65MOL0     H 8761   1.018   3.703   5.823  0.4966 -0.4696  0.1566
   65MOL0     H 8762   0.768   3.714   5.868 -0.0442  0.1282  0.9248
   65MOL0     H 8763   0.655   4.001   6.024 -1.6978  1.1704 -0.4137
   65MOL0     H 8764   0.548   3.950   6.146 -0.3951 -0.4113 -0.2544
   65MOL0     H 8765   0.516   3.909   5.851 -2.6170 -0.8344 -1.3206
   65MOL0     H 8766   0.407   3.984   5.972  2.8187  1.5426 -0.1368
   65MOL0     H 8767   0.473   3.684   5.945  1.9119  1.6167 -0.8093
   65MOL0     H 8768   0.322   3.764   5.892  0.9827  0.1137  0.5467
   65MOL0     H 8769   0.298   3.645   6.093  0.6409 -0.4080 -2.7445
   65MOL0     H 8770   0.419   3.749   6.175 -1.3897 -0.3614  0.8801
   65MOL0     H 8771   0.032   3.966   6.134 -0.4526 -1.9699 -1.4850
   65MOL0     H 8772   0.831   3.864   6.255  1.7690 -1.4940  0.6378
   65MOL0     H 8773   1.170   3.988   6.222  0.0318  0.5269 -0.4481
   65MOL0     H 8774   1.049   3.930   6.338  0.7878 -1.5816  1.2909
   65MOL0     H 8775   1.156   3.817   6.271 -1.2510 -0.2067 -1.6328
   66MOL0     O 8776  10.263   1.888  10.459 -0.3070  0.2851 -0.6105
   66MOL0     C 8777  10.240   1.954  10.562 -0.3634 -0.8218  0.2905
   66MOL0     O 8778  10.336   1.983  10.651  0.4406  0.5532 -0.2056
   66MOL0     C 8779  10.456   1.920  10.640  0.3563 -0.2170 -0.0402
   66MOL0     C 8780  10.564   1.976  10.587  0.6420 -0.4034  0.7326
   66MOL0     C 8781  10.695   1.919  10.578 -0.2651 -0.2824 -0.2056
   66MOL0     C 8782  10.705   1.786  10.633 -0.1561  0.7026 -0.2294
   66MOL0     O 8783  10.815   1.696  10.619  0.1321 -0.1794  0.5122
   66MOL0     C 8784  10.930   1.748  10.548  0.4510 -0.8353 -1.0884
   66MOL0     C 8785  11.048   1.649  10.545 -0.4002 -0.1956 -0.3414
   66MOL0     C 8786  11.132   1.648  10.677  0.0254 -0.8485  0.2692
   66MOL0     C 8787  11.265   1.593  10.647 -0.7362 -0.6812  0.0843
   66MOL0     C 8788  11.335   1.576  10.782  0.2370  0.0222 -0.3515
   66MOL0     C 8789  11.467   1.517  10.760  0.2511 -0.0560  0.1778
   66MOL0     C 8790  11.552   1.516  10.885 -0.2505 -0.1918 -0.7994
   66MOL0     C 8791  11.513   1.411  10.994 -0.1038 -0.5900  0.1060
   66MOL0     N 8792  11.602   1.417  11.108  0.2486 -0.6395 -1.1427
   66MOL0     C 8793  11.691   1.324  11.148 -0.4099  0.5580  0.1818
   66MOL0     C 8794  11.744   1.360  11.265 -0.6834 -0.5673  0.1172
   66MOL0     C 8795  11.850   1.286  11.334  0.0036 -0.9179 -0.0522
   66MOL0     C 8796  11.972   1.251  11.246  0.2450  0.2536 -0.1891
   66MOL0     C 8797  12.016   1.360  11.152  0.6571 -0.3678  0.4258
   66MOL0     C 8798  12.053   1.492  11.210  0.4813  0.1129  0.6384
   66MOL0     O 8799  12.161   1.481  11.309  0.0679  0.0449  0.4348
   66MOL0     C 8800  12.289   1.451  11.267  0.2338 -0.7993 -0.3350
   66MOL0     C 8801  12.370   1.391  11.366  0.1912  0.0150  0.4590
   66MOL0     C 8802  12.505   1.366  11.343  0.5451 -0.3436  0.1481
   66MOL0     C 8803  12.570   1.394  11.214  0.3938 -0.7608 -0.0727
   66MOL0     C 8804  12.711   1.359  11.187  0.0778 -0.6763 -0.1508
   66MOL0     O 8805  12.780   1.300  11.293  0.4793  0.5345 -0.9763
   66MOL0     C 8806  12.919   1.294  11.289  0.2186 -0.4402  0.0885
   66MOL0     C 8807  12.989   1.211  11.381  0.0568  0.1659  0.1651
   66MOL0     C 8808  13.127   1.210  11.403 -0.0967  0.7511 -0.2903
   66MOL0     C 8809  13.213   1.291  11.333 -0.1965  0.1175  0.9384
   66MOL0     O 8810  13.350   1.268  11.363  0.1489  0.5173 -0.1420
   66MOL0     C 8811  13.443   1.366  11.332  0.3592  0.0715 -0.3066
   66MOL0     C 8812  13.586   1.334  11.392 -0.2132  0.7175 -0.2723
   66MOL0     C 8813  13.696   1.434  11.344  0.2068 -0.3691  0.6251
   66MOL0     C 8814  13.778   1.371  11.227 -0.3317 -0.1206  0.1522
   66MOL0     C 8815  13.898   1.460  11.192  0.0263  0.1141  0.5173
   66MOL0     C 8816  14.008   1.391  11.111  0.1590 -0.4851 -0.1522
   66MOL0     C 8817  14.100   1.312  11.211  0.4872 -0.8957 -0.2452
   66MOL0     C 8818  14.223   1.257  11.139  0.2070 -0.0722  0.3117
   66MOL0    Cl 8819  14.357   1.390  11.153 -0.5049 -0.1371  0.0171
   66MOL0     C 8820  13.151   1.381  11.243  0.3465  0.3115  0.9852
   66MOL0     C 8821  13.009   1.379  11.218 -0.3382  0.9630 -0.1208
   66MOL0     O 8822  12.760   1.380  11.071 -0.2127  0.4956  0.1611
   66MOL0     C 8823  12.487   1.467  11.127  0.0074 -0.6836 -0.1758
   66MOL0     C 8824  12.354   1.484  11.147  0.7944 -0.1128  0.0386
   66MOL0     N 8825  11.676   1.477  11.304 -0.1502  0.0201 -0.3383
   66MOL0     N 8826  11.593   1.511  11.207 -0.0244 -0.0946  0.5379
   66MOL0     C 8827  10.600   1.726  10.698  0.4474 -0.2628  0.4086
   66MOL0     C 8828  10.476   1.790  10.692 -0.6873  0.6952 -0.2167
   66MOL0     C 8829  10.102   1.995  10.580  0.2403  0.1847  0.1639
   66MOL0     C 8830  10.074   2.029  10.714  0.3115 -0.0404  0.0121
   66MOL0     C 8831   9.937   2.064  10.748 -0.5787  0.8908  0.0127
   66MOL0     C 8832   9.840   2.057  10.654  0.1002 -1.1701 -0.8814
   66MOL0     O 8833   9.718   2.093  10.697 -0.0135 -0.3517 -0.9387
   66MOL0     C 8834   9.600   2.080  10.614 -0.1536 -0.3916  0.0351
   66MOL0     C 8835   9.484   2.141  10.698 -0.4320 -0.2029  0.2737
   66MOL0     C 8836   9.479   2.072  10.836 -0.3985 -0.4385  0.1467
   66MOL0     C 8837   9.390   2.142  10.934 -0.0669  0.5847 -0.4845
   66MOL0     C 8838   9.260   2.190  10.894 -0.0130 -0.1767  0.8514
   66MOL0     C 8839   9.150   2.230  10.860  0.4761 -0.2030 -0.4170
   66MOL0     C 8840   9.866   2.026  10.525  0.0383 -0.1799 -0.1881
   66MOL0     C 8841   9.995   1.988  10.484  0.1474  0.1975 -0.1274
   66MOL0     C 8842  10.021   1.962  10.338 -0.0999 -0.0409  0.1449
   66MOL0     H 8843  10.567   2.078  10.549  1.9553  0.0476  1.9935
   66MOL0     H 8844  10.772   1.971  10.522  0.5883 -1.4937 -0.1941
   66MOL0     H 8845  10.911   1.774  10.444  0.4544  1.5414 -0.5390
   66MOL0     H 8846  10.968   1.834  10.603  2.1189 -0.3258 -2.9150
   66MOL0     H 8847  11.112   1.691  10.467  0.6167  2.7563  1.8811
   66MOL0     H 8848  11.010   1.550  10.520  0.1147 -0.1018 -1.5503
   66MOL0     H 8849  11.074   1.598  10.754 -1.6829 -0.3183 -0.6213
   66MOL0     H 8850  11.154   1.750  10.710  2.9822 -0.3999 -2.5259
   66MOL0     H 8851  11.253   1.497  10.597  1.8826 -0.9756 -0.0748
   66MOL0     H 8852  11.325   1.659  10.583 -2.2586  0.5296 -0.1649
   66MOL0     H 8853  11.339   1.667  10.842  0.3486 -0.5950  0.6158
   66MOL0     H 8854  11.278   1.504  10.843 -1.0974 -1.7528 -3.4753
   66MOL0     H 8855  11.452   1.414  10.728  1.9863 -0.6981  1.2918
   66MOL0     H 8856  11.525   1.564  10.680 -1.0538  0.6688 -0.3786
   66MOL0     H 8857  11.537   1.610  10.939  0.3933 -0.6255  0.1741
   66MOL0     H 8858  11.654   1.509  10.846  0.1275 -1.4398  0.3448
   66MOL0     H 8859  11.411   1.438  11.019  0.0135  0.2850 -0.3133
   66MOL0     H 8860  11.518   1.307  10.958 -3.9399 -1.4023  1.4603
   66MOL0     H 8861  11.719   1.238  11.088 -0.7094  0.0763  0.7190
   66MOL0     H 8862  11.875   1.344  11.423 -1.5134  3.3430 -2.1051
   66MOL0     H 8863  11.796   1.198  11.368  0.4145 -0.6722  1.3214
   66MOL0     H 8864  12.056   1.217  11.307  1.2611 -1.5713 -2.4550
   66MOL0     H 8865  11.942   1.166  11.185 -3.3037  1.2509 -0.0715
   66MOL0     H 8866  11.946   1.374  11.069  1.3937 -0.0248 -0.1534
   66MOL0     H 8867  12.106   1.332  11.097 -0.1803 -0.2369 -1.0709
   66MOL0     H 8868  11.964   1.532  11.259  1.7683  2.3693  1.2635
   66MOL0     H 8869  12.087   1.566  11.137  3.2730  1.1034  2.7718
   66MOL0     H 8870  12.312   1.367  11.454  1.9670  1.7839  2.2244
   66MOL0     H 8871  12.561   1.314  11.420  0.5258 -0.2326  0.2375
   66MOL0     H 8872  12.939   1.149  11.455 -0.3668 -2.2836 -2.0001
   66MOL0     H 8873  13.177   1.150  11.478 -1.3816 -1.9990 -1.4975
   66MOL0     H 8874  13.446   1.389  11.225  0.8461 -0.9702 -0.5253
   66MOL0     H 8875  13.405   1.463  11.367 -2.3150  0.1965 -3.0850
   66MOL0     H 8876  13.584   1.328  11.501 -0.6129 -0.7240 -0.3443
   66MOL0     H 8877  13.613   1.233  11.361  0.3532  0.0941  2.0944
   66MOL0     H 8878  13.668   1.533  11.306  0.3217 -0.6904 -0.3432
   66MOL0     H 8879  13.767   1.441  11.427  0.7684 -0.9702  0.2127
   66MOL0     H 8880  13.709   1.364  11.143 -1.0800 -0.6034  0.7961
   66MOL0     H 8881  13.813   1.269  11.249 -2.7310 -0.8415  0.9517
   66MOL0     H 8882  13.947   1.508  11.277  0.9027  2.6306 -1.3138
   66MOL0     H 8883  13.851   1.546  11.143 -1.0803 -0.1515  1.0666
   66MOL0     H 8884  13.967   1.329  11.031  0.9042  0.0496 -0.9623
   66MOL0     H 8885  14.066   1.475  11.072  1.6511 -0.3532  2.1729
   66MOL0     H 8886  14.040   1.230  11.249  1.0247 -0.4036  1.7895
   66MOL0     H 8887  14.126   1.373  11.298  2.5537 -0.8673 -0.8312
   66MOL0     H 8888  14.272   1.173  11.189 -0.4132  1.1335  3.1761
   66MOL0     H 8889  14.207   1.227  11.035 -2.4047  1.7487  0.0653
   66MOL0     H 8890  13.207   1.445  11.175 -0.4893 -0.4716 -0.4879
   66MOL0     H 8891  12.973   1.450  11.144 -1.1954 -1.5422 -2.2334
   66MOL0     H 8892  12.539   1.507  11.041  2.5455 -0.3962  1.4005
   66MOL0     H 8893  12.286   1.533  11.077  0.1293 -2.2141 -0.8799
   66MOL0     H 8894  10.615   1.635  10.755  1.9048  1.7239  3.4688
   66MOL0     H 8895  10.402   1.742  10.756  1.1061  1.1647  2.4003
   66MOL0     H 8896  10.142   2.046  10.796  0.0193 -2.9065  0.9498
   66MOL0     H 8897   9.915   2.087  10.852 -1.3876 -1.0639  0.3205
   66MOL0     H 8898   9.578   1.973  10.604  1.7274 -0.9529  1.3579
   66MOL0     H 8899   9.607   2.121  10.513 -0.4557 -0.3523  0.0274
   66MOL0     H 8900   9.398   2.121  10.633  1.4093  0.3549 -2.5140
   66MOL0     H 8901   9.504   2.248  10.707 -1.6673  0.3547 -2.4342
   66MOL0     H 8902   9.578   2.090  10.879  0.0584  0.9904 -1.3784
   66MOL0     H 8903   9.464   1.964  10.827  2.4921 -0.8808 -0.1688
   66MOL0     H 8904   9.371   2.069  11.013  0.8001 -2.2947 -2.7585
   66MOL0     H 8905   9.457   2.217  10.978  2.2428 -2.6952  2.1525
   66MOL0     H 8906   9.051   2.269  10.852  0.9400  1.4650  1.2212
   66MOL0     H 8907   9.784   2.012  10.455 -2.2125 -1.9573  2.5990
   66MOL0     H 8908  10.086   2.037  10.295  1.2995 -0.4391  1.4693
   66MOL0     H 8909  10.056   1.863  10.307 -0.8388 -0.2975  0.0984
   66MOL0     H 8910   9.926   1.963  10.284  0.1416 -6.1265 -1.1240
   67MOL0     O 8911   5.303   9.170   2.544 -0.2638  0.9692 -0.2366
   67MOL0     C 8912   5.306   9.287   2.510  0.4998 -0.3227  0.6716
   67MOL0     O 8913   5.420   9.357   2.498 -0.5952  0.0478 -0.9102
   67MOL0     C 8914   5.550   9.293   2.525 -0.1339 -0.1007  0.0397
   67MOL0     C 8915   5.589   9.168   2.486 -0.2767 -0.8004 -0.0592
   67MOL0     C 8916   5.725   9.124   2.505  0.2386  0.2515  0.0850
   67MOL0     C 8917   5.828   9.206   2.556  0.0596 -0.6278  0.3568
   67MOL0     O 8918   5.953   9.157   2.573 -0.4016  0.0099  0.2277
   67MOL0     C 8919   6.025   9.206   2.693 -0.2780  0.6579 -0.0416
   67MOL0     C 8920   6.124   9.092   2.730  0.6993 -0.8963 -1.4466
   67MOL0     C 8921   6.248   9.077   2.644  0.4884 -0.5511  0.2362
   67MOL0     C 8922   6.336   9.208   2.664 -0.7156  0.3035 -0.0646
   67MOL0     C 8923   6.459   9.208   2.573  0.3371 -0.2030 -1.2695
   67MOL0     C 8924   6.560   9.099   2.621  0.2835  0.2158 -0.2337
   67MOL0     C 8925   6.688   9.091   2.533  0.2976 -0.1503 -0.0481
   67MOL0     C 8926   6.661   9.045   2.380  0.3200 -0.8770 -0.2466
   67MOL0     N 8927   6.573   8.932   2.368 -0.8016  0.4724 -0.6673
   67MOL0     C 8928   6.437   8.955   2.343  0.0109 -0.4461 -0.5160
   67MOL0     C 8929   6.380   8.839   2.389  0.2583  0.7951  0.4025
   67MOL0     C 8930   6.227   8.811   2.393 -0.3976 -0.2589  0.8377
   67MOL0     C 8931   6.152   8.885   2.280  1.1340 -0.4810 -0.0184
   67MOL0     C 8932   6.002   8.851   2.286  0.0222  0.0749  0.7278
   67MOL0     C 8933   5.926   8.935   2.173 -0.3175  0.0440  0.4060
   67MOL0     O 8934   5.933   8.855   2.050  0.7233 -0.1790 -0.4129
   67MOL0     C 8935   5.837   8.877   1.957 -0.5047  0.1535  0.4645
   67MOL0     C 8936   5.812   8.769   1.871  0.6635  0.5167 -0.2640
   67MOL0     C 8937   5.732   8.776   1.760  0.3510 -0.5564  0.1396
   67MOL0     C 8938   5.655   8.901   1.730 -0.0112 -0.3031  0.4004
   67MOL0     C 8939   5.564   8.917   1.618  0.5469  0.1384  0.9987
   67MOL0     O 8940   5.487   9.024   1.613 -0.1571 -0.2854 -0.8944
   67MOL0     C 8941   5.395   9.043   1.517 -0.9284  0.0151 -0.0082
   67MOL0     C 8942   5.415   8.992   1.388  0.5495 -0.0419  0.1973
   67MOL0     C 8943   5.314   8.996   1.289  0.0507 -0.3661  0.3949
   67MOL0     C 8944   5.184   9.041   1.320  0.0188 -0.2024  0.4705
   67MOL0     O 8945   5.091   9.026   1.221  0.2377  1.2069 -0.0937
   67MOL0     C 8946   4.951   9.020   1.252 -0.3809 -0.5840  0.4882
   67MOL0     C 8947   4.868   9.008   1.126 -0.7234  0.2099  0.3195
   67MOL0     C 8948   4.719   9.045   1.150 -0.4412  0.0889  0.3405
   67MOL0     C 8949   4.640   9.026   1.020  0.1637  0.2108  0.3325
   67MOL0     C 8950   4.488   9.009   1.043 -0.4930  0.1374  0.0866
   67MOL0     C 8951   4.409   8.972   0.921 -0.6962  0.1855 -1.0150
   67MOL0     C 8952   4.260   8.952   0.938  0.0733 -0.0198 -1.4652
   67MOL0     C 8953   4.199   8.960   0.801  0.2303  0.6545  0.4196
   67MOL0    Cl 8954   4.019   8.949   0.809 -0.4759  0.0763 -0.0730
   67MOL0     C 8955   5.163   9.096   1.454  0.8023  0.8244  0.8668
   67MOL0     C 8956   5.269   9.099   1.546  0.2825  0.4308 -0.8242
   67MOL0     O 8957   5.566   8.820   1.547  0.3707  0.1159 -0.0975
   67MOL0     C 8958   5.674   9.006   1.823 -0.0405 -0.4360 -0.2064
   67MOL0     C 8959   5.762   8.995   1.931 -0.4642 -0.1503  0.5493
   67MOL0     N 8960   6.477   8.748   2.427  0.0836  0.3901  0.4176
   67MOL0     N 8961   6.587   8.802   2.409 -0.1820 -0.3755 -0.1583
   67MOL0     C 8962   5.786   9.335   2.598  0.1331  0.1935  0.3042
   67MOL0     C 8963   5.653   9.378   2.572 -0.2237  0.1174 -0.3679
   67MOL0     C 8964   5.172   9.358   2.502 -0.6156 -0.5482  0.7835
   67MOL0     C 8965   5.056   9.287   2.478 -0.3209  0.2168  0.4385
   67MOL0     C 8966   4.926   9.338   2.476  0.0284  0.6084 -0.1391
   67MOL0     C 8967   4.900   9.466   2.497 -0.3886  0.5066  0.3922
   67MOL0     O 8968   4.775   9.513   2.489  0.2486  0.1026 -0.6122
   67MOL0     C 8969   4.742   9.649   2.507 -0.4726 -0.4818  0.6214
   67MOL0     C 8970   4.594   9.677   2.462 -0.1491 -0.0610 -0.9909
   67MOL0     C 8971   4.576   9.621   2.324  0.0974 -0.0022  0.2875
   67MOL0     C 8972   4.433   9.644   2.271 -0.2368 -0.3773  0.6182
   67MOL0     C 8973   4.335   9.549   2.320 -0.0764 -0.0114 -0.0695
   67MOL0     C 8974   4.260   9.451   2.337  0.3110 -0.0834 -0.4326
   67MOL0     C 8975   5.010   9.550   2.525  0.4835  0.5982 -0.2526
   67MOL0     C 8976   5.141   9.495   2.525  0.2986  0.2975 -0.0756
   67MOL0     C 8977   5.249   9.589   2.564 -0.9445 -0.2755 -0.8133
   67MOL0     H 8978   5.524   9.091   2.446 -0.0283 -0.3856 -1.3208
   67MOL0     H 8979   5.747   9.020   2.481 -0.2456 -0.3523  2.0721
   67MOL0     H 8980   6.070   9.301   2.662 -2.4390  1.6845 -0.1908
   67MOL0     H 8981   5.946   9.218   2.768 -0.1349  1.0329  0.0497
   67MOL0     H 8982   6.070   8.997   2.734 -1.9083  0.4958 -1.2034
   67MOL0     H 8983   6.150   9.104   2.835 -1.6940 -0.7418 -0.8068
   67MOL0     H 8984   6.207   9.077   2.542 -2.6854  0.4303  1.4041
   67MOL0     H 8985   6.290   8.981   2.673 -3.5041 -1.8320  2.5095
   67MOL0     H 8986   6.281   9.301   2.645 -1.7949  0.3402  2.8379
   67MOL0     H 8987   6.369   9.210   2.768  1.5585 -1.6875 -0.6620
   67MOL0     H 8988   6.423   9.196   2.470 -0.6169 -2.2056 -0.7615
   67MOL0     H 8989   6.495   9.311   2.577  1.8134 -0.6983 -1.1575
   67MOL0     H 8990   6.595   9.117   2.723  0.0589 -1.4123  0.1658
   67MOL0     H 8991   6.513   9.001   2.635 -0.2221  0.5790  0.6463
   67MOL0     H 8992   6.771   9.035   2.575  2.4209  3.2201  0.6013
   67MOL0     H 8993   6.741   9.186   2.528 -1.0316  0.5959 -0.5627
   67MOL0     H 8994   6.622   9.124   2.315  0.5476 -0.3878  0.2098
   67MOL0     H 8995   6.758   9.016   2.339  0.1356 -2.8719  0.5847
   67MOL0     H 8996   6.393   9.042   2.294  1.0917 -0.3186 -1.2961
   67MOL0     H 8997   6.212   8.702   2.386 -0.3968 -0.1463 -1.7889
   67MOL0     H 8998   6.196   8.847   2.492  0.0839  0.6570  0.6651
   67MOL0     H 8999   6.166   8.993   2.290  3.5564 -0.3172 -3.4112
   67MOL0     H 9000   6.179   8.860   2.177 -0.4456 -0.9503 -0.3383
   67MOL0     H 9001   5.965   8.883   2.384  1.8830 -1.2413  1.9291
   67MOL0     H 9002   5.981   8.745   2.273  2.2725 -0.1721 -1.5826
   67MOL0     H 9003   5.969   9.035   2.159  2.2657 -1.0187  0.2247
   67MOL0     H 9004   5.820   8.952   2.195  0.1480  2.6683  0.8859
   67MOL0     H 9005   5.861   8.673   1.884 -1.8702 -0.4608  3.3092
   67MOL0     H 9006   5.725   8.688   1.697 -1.4798  0.5690 -1.3467
   67MOL0     H 9007   5.507   8.945   1.354  1.0403  2.2809 -2.0016
   67MOL0     H 9008   5.330   8.958   1.189  0.9564 -0.7043  0.6624
   67MOL0     H 9009   4.936   8.935   1.319 -1.0687 -1.2494 -0.4851
   67MOL0     H 9010   4.912   9.114   1.291 -1.2554  0.1331 -1.9592
   67MOL0     H 9011   4.910   9.088   1.065 -1.4138  0.5235  0.2422
   67MOL0     H 9012   4.895   8.918   1.071  1.0196 -0.3008  1.9024
   67MOL0     H 9013   4.680   8.977   1.227 -3.6710  0.7511 -0.5684
   67MOL0     H 9014   4.711   9.150   1.179 -0.8151 -0.7060  3.5832
   67MOL0     H 9015   4.671   8.937   0.965 -0.5860  1.5461 -2.4478
   67MOL0     H 9016   4.647   9.101   0.941 -0.6321  1.9878  1.8769
   67MOL0     H 9017   4.451   9.102   1.086  0.4431 -0.3368  2.0475
   67MOL0     H 9018   4.474   8.932   1.119  3.4801 -0.4046  0.4902
   67MOL0     H 9019   4.432   9.052   0.850 -0.5380  0.3239 -0.8107
   67MOL0     H 9020   4.449   8.876   0.887  2.7168  0.8285  0.7392
   67MOL0     H 9021   4.221   9.038   0.994  3.0967  2.0938 -2.3203
   67MOL0     H 9022   4.239   8.860   0.992  1.1486 -0.2639 -1.4430
   67MOL0     H 9023   4.237   9.051   0.754  0.2379 -0.1793 -1.2584
   67MOL0     H 9024   4.235   8.881   0.734  0.0129  1.8738 -1.1909
   67MOL0     H 9025   5.063   9.123   1.484 -0.2669  0.2218 -1.8905
   67MOL0     H 9026   5.250   9.149   1.640 -0.2642  0.7148 -1.0780
   67MOL0     H 9027   5.624   9.099   1.800  1.5531  0.2234 -1.2202
   67MOL0     H 9028   5.785   9.090   1.978 -0.5303  0.3188 -0.3344
   67MOL0     H 9029   5.861   9.407   2.629 -0.1620 -0.5306  2.9943
   67MOL0     H 9030   5.613   9.474   2.604 -2.4500 -1.3312  1.5322
   67MOL0     H 9031   5.066   9.179   2.478  0.7481  0.2469 -2.4510
   67MOL0     H 9032   4.852   9.260   2.457  1.2640 -0.4316 -0.8271
   67MOL0     H 9033   4.811   9.716   2.455 -0.2250 -2.6276 -2.0095
   67MOL0     H 9034   4.744   9.671   2.615 -0.2390 -0.3373  0.5883
   67MOL0     H 9035   4.583   9.785   2.463 -1.0947 -0.0111  3.4770
   67MOL0     H 9036   4.517   9.639   2.530  0.1600  1.3611  0.1883
   67MOL0     H 9037   4.597   9.513   2.322 -4.5286 -1.1468  1.5313
   67MOL0     H 9038   4.640   9.674   2.253 -2.0595  1.7977 -0.3994
   67MOL0     H 9039   4.395   9.743   2.298 -1.8497 -1.2887  1.9325
   67MOL0     H 9040   4.439   9.620   2.165 -1.3712 -1.5696  0.8019
   67MOL0     H 9041   4.197   9.371   2.372 -0.3005  1.1595  1.5161
   67MOL0     H 9042   4.991   9.653   2.551 -2.6912  0.3540 -1.1784
   67MOL0     H 9043   5.214   9.692   2.576 -2.7370 -0.7551 -1.5414
   67MOL0     H 9044   5.296   9.572   2.662  1.4067  1.2046 -1.6044
   67MOL0     H 9045   5.340   9.581   2.504  1.4184 -2.1971  2.6247
   68MOL0     O 9046   4.367   3.676   4.230  0.2634 -0.0138  0.2700
   68MOL0     C 9047   4.331   3.702   4.111 -0.7215  0.0352 -0.3988
   68MOL0     O 9048   4.413   3.762   4.014  0.1439  0.4043  0.3990
   68MOL0     C 9049   4.533   3.809   4.055 -0.3114 -0.0072  0.2131
   68MOL0     C 9050   4.564   3.945   4.050  0.2300  0.3831 -0.0002
   68MOL0     C 9051   4.687   4.004   4.091 -0.0312  0.4510 -0.2642
   68MOL0     C 9052   4.791   3.910   4.132  0.1168  0.9879  0.2943
   68MOL0     O 9053   4.916   3.940   4.174 -0.9077 -0.3241 -0.1503
   68MOL0     C 9054   4.914   4.019   4.292  0.2069  0.0915  0.6401
   68MOL0     C 9055   5.017   3.977   4.396 -0.6408 -0.2436 -0.3895
   68MOL0     C 9056   4.974   3.838   4.463  1.2462 -0.0729  0.2414
   68MOL0     C 9057   5.068   3.793   4.575  0.2131 -0.4221  0.5046
   68MOL0     C 9058   5.202   3.732   4.534 -0.0388 -0.4039 -0.9168
   68MOL0     C 9059   5.180   3.593   4.475 -0.0873  0.1601  0.1701
   68MOL0     C 9060   5.312   3.516   4.447  0.0204 -0.2746 -0.1916
   68MOL0     C 9061   5.280   3.374   4.408 -0.6395  0.4419 -0.7378
   68MOL0     N 9062   5.397   3.303   4.365  0.0548 -0.2515 -0.4012
   68MOL0     C 9063   5.481   3.317   4.251  0.0257 -0.4182  1.0638
   68MOL0     C 9064   5.593   3.253   4.277 -0.0225  0.2646 -1.0327
   68MOL0     C 9065   5.712   3.243   4.179 -0.6049  0.0319 -0.4125
   68MOL0     C 9066   5.751   3.381   4.137 -0.1468  1.0353 -0.4563
   68MOL0     C 9067   5.828   3.392   4.004  0.4243  0.3084  0.9228
   68MOL0     C 9068   5.957   3.307   3.988  0.3385 -0.1601  0.5284
   68MOL0     O 9069   6.050   3.329   4.087 -0.4727 -0.1546 -0.2959
   68MOL0     C 9070   6.176   3.275   4.074  0.1553 -0.2641 -0.0449
   68MOL0     C 9071   6.202   3.169   3.987 -0.2127 -1.1242 -0.2809
   68MOL0     C 9072   6.329   3.116   3.986  0.2362 -0.4380  0.6275
   68MOL0     C 9073   6.426   3.150   4.081  0.3176 -0.0029  0.7562
   68MOL0     C 9074   6.563   3.096   4.068 -0.3651 -0.5405 -0.2568
   68MOL0     O 9075   6.638   3.108   4.179 -0.9292  0.4340  0.4555
   68MOL0     C 9076   6.768   3.056   4.165  0.5779  0.1963  0.1502
   68MOL0     C 9077   6.859   3.099   4.059 -0.3881 -0.3887  0.6813
   68MOL0     C 9078   6.991   3.056   4.050  0.0385 -0.0094 -0.0084
   68MOL0     C 9079   7.034   2.960   4.154  1.1072 -0.0619  0.2800
   68MOL0     O 9080   7.162   2.930   4.142 -0.5755 -0.0053 -0.4062
   68MOL0     C 9081   7.220   2.853   4.243  0.1640 -0.1578  0.7771
   68MOL0     C 9082   7.374   2.847   4.220 -0.5003 -0.5648 -0.6751
   68MOL0     C 9083   7.439   2.766   4.331  0.6768  0.1048 -0.6584
   68MOL0     C 9084   7.590   2.751   4.296 -0.0503  0.0721 -0.6692
   68MOL0     C 9085   7.614   2.615   4.231  0.0873  0.2049 -0.0844
   68MOL0     C 9086   7.622   2.507   4.340 -1.1174  0.0816  0.5521
   68MOL0     C 9087   7.581   2.370   4.292  0.2624  0.6085  0.3561
   68MOL0     C 9088   7.588   2.273   4.407 -0.1851  0.3319 -0.2234
   68MOL0    Cl 9089   7.456   2.305   4.523  0.1778 -0.0040  0.1370
   68MOL0     C 9090   6.951   2.927   4.262  0.4379 -0.2483 -0.2966
   68MOL0     C 9091   6.820   2.977   4.268 -0.1601  1.1438 -0.0035
   68MOL0     O 9092   6.596   3.055   3.956 -0.0927  0.5144 -0.3054
   68MOL0     C 9093   6.394   3.243   4.176 -0.0518 -0.5255  0.1095
   68MOL0     C 9094   6.279   3.315   4.164  0.4890 -0.5452  0.1146
   68MOL0     N 9095   5.586   3.201   4.396  0.2246 -0.2989  0.5267
   68MOL0     N 9096   5.470   3.232   4.444 -0.3727 -0.1374  0.4935
   68MOL0     C 9097   4.762   3.769   4.132 -0.1283 -0.6575 -0.0789
   68MOL0     C 9098   4.634   3.723   4.100  0.0004  0.5985  0.4336
   68MOL0     C 9099   4.187   3.686   4.063  0.3251 -0.3110 -0.4872
   68MOL0     C 9100   4.144   3.768   3.953 -0.2311  0.6458 -0.3705
   68MOL0     C 9101   4.023   3.762   3.902  0.4723 -0.6049  0.1294
   68MOL0     C 9102   3.928   3.677   3.951  0.7712  0.6016  0.4234
   68MOL0     O 9103   3.801   3.673   3.892  0.1266 -0.2838  0.1056
   68MOL0     C 9104   3.741   3.539   3.870  0.1364 -0.1303  0.5649
   68MOL0     C 9105   3.596   3.545   3.834  0.9170 -0.1354 -0.1499
   68MOL0     C 9106   3.552   3.413   3.770  0.2306  0.5979 -0.2545
   68MOL0     C 9107   3.398   3.405   3.732 -0.6669 -0.1932 -0.0092
   68MOL0     C 9108   3.360   3.507   3.632  0.2724 -0.1556 -0.4106
   68MOL0     C 9109   3.343   3.599   3.559 -0.7881 -0.4923 -0.2062
   68MOL0     C 9110   3.960   3.597   4.061  0.4570 -1.0714 -1.3014
   68MOL0     C 9111   4.089   3.607   4.119  0.1479 -0.1462  0.3404
   68MOL0     C 9112   4.115   3.521   4.239 -0.0010  0.2196  0.3483
   68MOL0     H 9113   4.492   4.011   4.003  2.1564  2.0006 -0.8171
   68MOL0     H 9114   4.716   4.108   4.101  0.0366  0.3443  0.6888
   68MOL0     H 9115   4.929   4.121   4.255 -0.3302 -0.8532 -2.5240
   68MOL0     H 9116   4.818   4.010   4.344  0.3328 -0.5727  0.7709
   68MOL0     H 9117   5.015   4.058   4.469  0.7555 -1.0697  0.6169
   68MOL0     H 9118   5.116   3.978   4.348  0.5803  1.6519  1.9611
   68MOL0     H 9119   4.969   3.754   4.394 -0.6593 -1.2714  1.7169
   68MOL0     H 9120   4.873   3.849   4.504  1.5054  2.7236  0.3391
   68MOL0     H 9121   5.095   3.877   4.640  2.7138 -1.0708  0.4152
   68MOL0     H 9122   5.016   3.728   4.645  1.3073  1.3150  3.0759
   68MOL0     H 9123   5.253   3.800   4.465 -2.1634  2.5244  0.1799
   68MOL0     H 9124   5.256   3.723   4.629 -1.8786 -0.6946  0.1446
   68MOL0     H 9125   5.117   3.538   4.546 -0.6244  1.5968  0.8362
   68MOL0     H 9126   5.126   3.591   4.380 -1.6259 -1.0473  1.0329
   68MOL0     H 9127   5.371   3.512   4.539  0.4236  2.1730 -0.2965
   68MOL0     H 9128   5.370   3.562   4.367  1.3784  0.0858  0.9599
   68MOL0     H 9129   5.241   3.315   4.490  4.4345 -1.4644  0.6854
   68MOL0     H 9130   5.210   3.364   4.325 -0.3855  0.1462 -0.9170
   68MOL0     H 9131   5.457   3.370   4.159  1.5932  2.6387  2.2711
   68MOL0     H 9132   5.793   3.194   4.234 -2.4481 -0.1134  2.4185
   68MOL0     H 9133   5.685   3.181   4.093 -0.1091 -0.5371 -0.1630
   68MOL0     H 9134   5.664   3.448   4.137 -1.7580 -0.9553  0.2885
   68MOL0     H 9135   5.816   3.422   4.215  1.3974 -0.5415 -0.8615
   68MOL0     H 9136   5.852   3.497   3.983  1.2543 -0.1293 -0.4224
   68MOL0     H 9137   5.751   3.375   3.928  0.2432  0.7663  0.9965
   68MOL0     H 9138   6.001   3.343   3.895  0.6753  1.0577  1.1379
   68MOL0     H 9139   5.942   3.199   3.983 -0.9198  0.0377 -3.6315
   68MOL0     H 9140   6.127   3.143   3.913 -2.9893  1.5282  1.3438
   68MOL0     H 9141   6.352   3.049   3.904 -0.4962  0.0332  0.0272
   68MOL0     H 9142   6.826   3.171   3.985  0.7670  1.2243  1.6529
   68MOL0     H 9143   7.054   3.081   3.966  0.3541 -0.6849  0.0177
   68MOL0     H 9144   7.201   2.903   4.338  1.8496  0.0689  1.0308
   68MOL0     H 9145   7.176   2.754   4.232  0.0282  0.0727 -1.1525
   68MOL0     H 9146   7.380   2.805   4.119 -1.2240 -0.6743 -0.6775
   68MOL0     H 9147   7.418   2.945   4.201 -0.4656 -0.5057 -0.3056
   68MOL0     H 9148   7.435   2.810   4.431 -0.7360  0.1640 -0.7153
   68MOL0     H 9149   7.395   2.667   4.338 -0.3133  0.4595 -1.5254
   68MOL0     H 9150   7.656   2.773   4.380  2.0051  1.3082 -2.4864
   68MOL0     H 9151   7.624   2.827   4.225  0.7681 -1.0748 -1.5452
   68MOL0     H 9152   7.708   2.620   4.175  0.6233 -1.8183  0.5319
   68MOL0     H 9153   7.529   2.601   4.163 -0.8099  3.6417  0.1593
   68MOL0     H 9154   7.725   2.509   4.377 -0.2540  2.3647 -1.6914
   68MOL0     H 9155   7.566   2.532   4.431  0.2564  0.6364  1.2741
   68MOL0     H 9156   7.646   2.342   4.209  3.5954  0.5032  2.8128
   68MOL0     H 9157   7.481   2.369   4.247  1.3284  0.9991 -2.1904
   68MOL0     H 9158   7.565   2.170   4.377 -3.5649  0.6600  0.8076
   68MOL0     H 9159   7.687   2.276   4.452  0.0495 -1.0443 -0.5819
   68MOL0     H 9160   6.990   2.874   4.349  1.9651  1.1669 -0.0525
   68MOL0     H 9161   6.756   2.961   4.354  1.7891  0.6930  1.4496
   68MOL0     H 9162   6.467   3.275   4.250 -2.2345  2.0027  1.3043
   68MOL0     H 9163   6.252   3.393   4.234  1.1277  0.3210 -0.5868
   68MOL0     H 9164   4.841   3.698   4.157 -1.8165 -2.5579  0.1980
   68MOL0     H 9165   4.613   3.616   4.096  0.1421  0.5980 -0.9229
   68MOL0     H 9166   4.212   3.844   3.915  1.4364 -1.0778 -1.0232
   68MOL0     H 9167   4.009   3.821   3.812  2.8740 -2.4031 -1.5333
   68MOL0     H 9168   3.752   3.473   3.956 -0.8676  0.3532  1.0758
   68MOL0     H 9169   3.796   3.496   3.786  1.4518  0.8170  0.9031
   68MOL0     H 9170   3.570   3.629   3.769 -1.6147 -1.2732 -0.6940
   68MOL0     H 9171   3.538   3.572   3.922  2.3285  1.0886  0.4573
   68MOL0     H 9172   3.577   3.332   3.839  0.9629  0.1285 -1.0471
   68MOL0     H 9173   3.604   3.388   3.677  3.5388 -2.6723  2.1899
   68MOL0     H 9174   3.368   3.307   3.692  0.4960 -0.3203 -0.6212
   68MOL0     H 9175   3.347   3.425   3.826  1.2737 -0.8274  1.2412
   68MOL0     H 9176   3.368   3.685   3.499 -1.3876  1.8207  2.6133
   68MOL0     H 9177   3.884   3.538   4.112 -0.8846  1.4317 -0.2218
   68MOL0     H 9178   4.132   3.587   4.325  1.7403  0.8364 -0.4193
   68MOL0     H 9179   4.026   3.464   4.266  1.6777 -2.0810  1.3507
   68MOL0     H 9180   4.196   3.450   4.222 -1.0858 -1.2749  1.2418
   69MOL0     O 9181  10.466   8.622   3.957  0.1023  0.3958 -0.1815
   69MOL0     C 9182  10.435   8.731   3.901 -0.8091 -0.2692 -0.8602
   69MOL0     O 9183  10.520   8.811   3.844  0.1351  0.0000  0.4837
   69MOL0     C 9184  10.645   8.756   3.830 -0.0521 -0.5295  0.2171
   69MOL0     C 9185  10.677   8.710   3.703 -0.2646 -0.5337 -0.2282
   69MOL0     C 9186  10.812   8.657   3.679  0.4838  0.1180 -0.2487
   69MOL0     C 9187  10.900   8.651   3.786  0.3900 -0.2922 -0.0584
   69MOL0     O 9188  11.027   8.599   3.771 -0.5920 -0.4255 -0.7471
   69MOL0     C 9189  11.085   8.584   3.642 -0.2332  0.3625 -0.2460
   69MOL0     C 9190  11.164   8.699   3.601 -0.6093  0.2773 -1.0087
   69MOL0     C 9191  11.257   8.674   3.489  0.0940  0.2145  0.3772
   69MOL0     C 9192  11.344   8.800   3.439 -0.1281  1.0268 -1.0651
   69MOL0     C 9193  11.450   8.848   3.536  0.4650 -0.3663 -1.0046
   69MOL0     C 9194  11.517   8.979   3.485  0.1256 -0.7950 -0.2584
   69MOL0     C 9195  11.627   9.034   3.576 -0.2123 -0.0760 -0.5097
   69MOL0     C 9196  11.598   9.175   3.633  0.0627 -0.1395 -0.6251
   69MOL0     N 9197  11.724   9.215   3.703  0.0240 -0.3974  0.4370
   69MOL0     C 9198  11.729   9.232   3.841 -0.3572  0.0126 -0.8446
   69MOL0     C 9199  11.846   9.289   3.866  0.0231  0.0157  0.6663
   69MOL0     C 9200  11.903   9.311   4.005 -0.1191  0.3204 -0.1905
   69MOL0     C 9201  11.895   9.466   4.043 -0.1405  0.5362 -0.1494
   69MOL0     C 9202  11.909   9.497   4.192  0.3285  0.1711 -0.6456
   69MOL0     C 9203  12.047   9.485   4.254 -0.7890  0.9338  0.1845
   69MOL0     O 9204  12.134   9.584   4.191  0.2363  0.5687  0.4081
   69MOL0     C 9205  12.273   9.575   4.213  0.0782 -0.6310  1.1271
   69MOL0     C 9206  12.337   9.488   4.294  0.2195  0.3847  0.1630
   69MOL0     C 9207  12.480   9.489   4.311 -0.1526  0.6400  0.1223
   69MOL0     C 9208  12.558   9.586   4.243 -0.3734  0.6841  0.1041
   69MOL0     C 9209  12.708   9.585   4.271  0.1381 -1.0281  0.5860
   69MOL0     O 9210  12.780   9.622   4.163 -0.2164  0.0239 -0.8178
   69MOL0     C 9211  12.905   9.675   4.173 -0.3073 -0.1137  0.1738
   69MOL0     C 9212  12.968   9.702   4.049 -0.0405 -0.2803 -0.5175
   69MOL0     C 9213  13.108   9.740   4.038  0.3062  0.3822  0.0801
   69MOL0     C 9214  13.185   9.765   4.146  0.0052 -0.4464 -0.6997
   69MOL0     O 9215  13.315   9.817   4.130 -0.3465 -0.3448 -0.3592
   69MOL0     C 9216  13.393   9.824   4.253  0.9961 -0.7824 -0.3233
   69MOL0     C 9217  13.543   9.844   4.212 -0.4119 -0.0526 -0.1881
   69MOL0     C 9218  13.572   9.966   4.124  0.9584 -0.6641  1.0818
   69MOL0     C 9219  13.538  10.108   4.179 -0.1611  0.1401  0.7025
   69MOL0     C 9220  13.549  10.222   4.078 -0.2643  0.3307 -0.3593
   69MOL0     C 9221  13.506  10.358   4.156  0.2331 -0.1948 -0.4112
   69MOL0     C 9222  13.528  10.488   4.070  0.0113 -0.5493 -0.2735
   69MOL0     C 9223  13.668  10.521   4.017  0.6952  1.1252  0.5368
   69MOL0    Cl 9224  13.711  10.691   4.005 -0.1023 -0.7184 -0.3366
   69MOL0     C 9225  13.117   9.751   4.271 -0.3375  0.2384 -0.1365
   69MOL0     C 9226  12.988   9.702   4.291  0.3021  0.7154  0.7516
   69MOL0     O 9227  12.749   9.563   4.384 -0.3422  0.3508 -0.3024
   69MOL0     C 9228  12.490   9.661   4.140  0.2139  0.2649  0.0411
   69MOL0     C 9229  12.353   9.649   4.125  1.0709 -1.3209  0.0105
   69MOL0     N 9230  11.907   9.317   3.743  0.2320  0.1224 -0.6781
   69MOL0     N 9231  11.832   9.268   3.649  0.4143 -0.0219 -0.6552
   69MOL0     C 9232  10.865   8.711   3.909  0.2990  0.7328  0.0189
   69MOL0     C 9233  10.741   8.754   3.931 -0.1876  0.0338 -0.0129
   69MOL0     C 9234  10.286   8.761   3.870  0.1710  0.2642  0.1418
   69MOL0     C 9235  10.255   8.814   3.739 -0.4149  0.1035  0.6880
   69MOL0     C 9236  10.122   8.844   3.710  0.4660 -0.2704 -0.5708
   69MOL0     C 9237  10.018   8.808   3.795  1.1526  0.0227 -0.3682
   69MOL0     O 9238   9.890   8.833   3.771  0.4407  0.6065  0.2887
   69MOL0     C 9239   9.850   8.926   3.672 -0.2677 -0.4398  0.8550
   69MOL0     C 9240   9.694   8.903   3.665  0.2248 -1.1783  0.0528
   69MOL0     C 9241   9.617   9.018   3.591  0.7047  1.0035 -0.1257
   69MOL0     C 9242   9.465   8.987   3.599  0.5478  0.0400  0.7528
   69MOL0     C 9243   9.413   8.983   3.735 -0.0139  0.0015 -0.4260
   69MOL0     C 9244   9.371   8.988   3.850 -0.6176 -0.7350  0.4384
   69MOL0     C 9245  10.050   8.748   3.911 -0.7169 -0.3291 -0.2663
   69MOL0     C 9246  10.178   8.724   3.951  0.3558  0.1975 -0.0560
   69MOL0     C 9247  10.198   8.654   4.084  1.1880  0.0923 -0.2288
   69MOL0     H 9248  10.608   8.712   3.619  1.5426 -1.5195 -1.8055
   69MOL0     H 9249  10.819   8.616   3.579  0.2445 -0.0263 -0.2087
   69MOL0     H 9250  11.157   8.502   3.650 -0.9320 -0.1841  0.6631
   69MOL0     H 9251  11.013   8.569   3.561 -0.1769  1.5420 -0.5264
   69MOL0     H 9252  11.224   8.734   3.686  1.5916 -1.6728 -1.6467
   69MOL0     H 9253  11.096   8.775   3.563 -2.4609  0.1582  1.7582
   69MOL0     H 9254  11.191   8.643   3.407  0.1295  0.3320  0.3046
   69MOL0     H 9255  11.328   8.594   3.512 -0.9549 -0.1238  2.7174
   69MOL0     H 9256  11.393   8.764   3.348  1.7712 -0.1642  0.3592
   69MOL0     H 9257  11.268   8.873   3.409 -2.4791 -1.6826 -2.2401
   69MOL0     H 9258  11.400   8.885   3.625  0.2280  0.4121 -1.4479
   69MOL0     H 9259  11.517   8.765   3.563 -0.7524 -1.4011 -1.0433
   69MOL0     H 9260  11.553   8.949   3.386 -1.8174 -0.6312 -1.0568
   69MOL0     H 9261  11.431   9.046   3.472 -0.5202 -1.6215 -0.3066
   69MOL0     H 9262  11.722   9.025   3.524  1.3436 -1.0889  2.3280
   69MOL0     H 9263  11.639   8.970   3.664  0.4992 -1.8754 -1.8453
   69MOL0     H 9264  11.564   9.237   3.550 -0.2395 -1.1635 -1.2907
   69MOL0     H 9265  11.529   9.175   3.717  1.5654 -1.2658  0.6683
   69MOL0     H 9266  11.659   9.202   3.918  0.5056  1.9894  0.8069
   69MOL0     H 9267  11.841   9.242   4.063  0.2770 -3.2215 -3.5323
   69MOL0     H 9268  12.010   9.290   4.009 -0.3752 -0.8580  2.8794
   69MOL0     H 9269  11.976   9.512   3.984  1.0138 -2.5456 -1.1648
   69MOL0     H 9270  11.805   9.518   4.011 -0.8183 -1.0225 -0.8583
   69MOL0     H 9271  11.839   9.433   4.246  0.3743  1.1131  0.5737
   69MOL0     H 9272  11.893   9.604   4.206  1.9453  0.0414  4.1103
   69MOL0     H 9273  12.091   9.389   4.224 -0.5166  0.9965  0.3743
   69MOL0     H 9274  12.038   9.486   4.363 -1.3574 -0.2151  0.1569
   69MOL0     H 9275  12.279   9.410   4.343  0.3402 -0.5054 -1.0384
   69MOL0     H 9276  12.525   9.428   4.390 -0.9783 -1.2014 -0.7716
   69MOL0     H 9277  12.899   9.695   3.965  0.1511 -1.5896 -0.5993
   69MOL0     H 9278  13.147   9.756   3.938  1.5687  0.8957  0.6406
   69MOL0     H 9279  13.359   9.908   4.315 -0.0170 -2.1128  0.9826
   69MOL0     H 9280  13.386   9.732   4.311 -3.2744 -1.3616 -1.4308
   69MOL0     H 9281  13.608   9.841   4.300 -0.8559 -1.6711  0.1101
   69MOL0     H 9282  13.567   9.756   4.152  1.3679  1.9926 -2.7219
   69MOL0     H 9283  13.678   9.963   4.094  0.3593  1.5825 -1.7271
   69MOL0     H 9284  13.510   9.960   4.034  2.1239  0.0922  0.1955
   69MOL0     H 9285  13.628  10.126   4.239  1.1988 -2.9025 -0.2206
   69MOL0     H 9286  13.443  10.102   4.233 -1.9420 -2.1090 -2.3499
   69MOL0     H 9287  13.489  10.216   3.986  0.4248 -0.9162 -0.7496
   69MOL0     H 9288  13.654  10.231   4.049  0.0055 -0.5378  0.3236
   69MOL0     H 9289  13.407  10.357   4.202 -0.2737  0.1938 -1.4551
   69MOL0     H 9290  13.572  10.367   4.243 -1.2273  1.2090  0.5904
   69MOL0     H 9291  13.516  10.561   4.150  0.0287 -1.1815  0.3182
   69MOL0     H 9292  13.450  10.500   3.994 -1.2489  0.2306  1.1009
   69MOL0     H 9293  13.743  10.474   4.081 -1.3776 -1.7520  1.0196
   69MOL0     H 9294  13.693  10.462   3.928  2.0989 -0.3511  1.8325
   69MOL0     H 9295  13.169   9.787   4.359 -0.1923  0.3664 -0.2734
   69MOL0     H 9296  12.965   9.691   4.397  1.4875 -1.8746  0.8260
   69MOL0     H 9297  12.544   9.725   4.071  1.3196 -2.7103 -2.0745
   69MOL0     H 9298  12.297   9.708   4.053 -0.0290 -2.7392 -0.3407
   69MOL0     H 9299  10.933   8.696   3.993 -0.4255 -1.1631  0.3190
   69MOL0     H 9300  10.715   8.802   4.025  2.3801 -1.3361  1.4694
   69MOL0     H 9301  10.332   8.827   3.663 -1.9699 -1.7972 -1.3272
   69MOL0     H 9302  10.091   8.903   3.624 -1.5382 -1.3677 -0.6718
   69MOL0     H 9303   9.896   8.896   3.578  1.2968 -1.8166  2.0049
   69MOL0     H 9304   9.880   9.029   3.698  0.3602 -0.3560 -0.1454
   69MOL0     H 9305   9.659   8.892   3.768  1.6607 -0.7942  0.6129
   69MOL0     H 9306   9.682   8.810   3.608 -0.9444 -1.1897  0.2972
   69MOL0     H 9307   9.642   9.025   3.485 -5.2864  0.7992 -1.9560
   69MOL0     H 9308   9.642   9.114   3.636  0.5566  1.6349 -1.3524
   69MOL0     H 9309   9.420   9.074   3.550 -0.4076 -0.8099  0.0805
   69MOL0     H 9310   9.449   8.900   3.535  2.4167  1.3000 -1.6279
   69MOL0     H 9311   9.338   8.993   3.952 -1.0332 -1.2862  0.3371
   69MOL0     H 9312   9.969   8.719   3.977 -0.8408 -2.0098 -1.1027
   69MOL0     H 9313  10.269   8.571   4.080  0.7191 -0.5517  2.7506
   69MOL0     H 9314  10.229   8.723   4.163 -1.1015  1.5170 -0.4742
   69MOL0     H 9315  10.103   8.608   4.113  1.1195 -1.8793 -3.0962
   70MOL0     O 9316  10.272   0.290   4.214  0.2656  0.3640  0.4270
   70MOL0     C 9317  10.295   0.290   4.335 -0.1949 -0.0429 -0.5598
   70MOL0     O 9318  10.330   0.185   4.415 -0.0234  0.3755  0.5604
   70MOL0     C 9319  10.366   0.068   4.347 -0.3539 -0.2836 -0.3915
   70MOL0     C 9320  10.495   0.028   4.353 -0.4353 -0.6599 -0.1629
   70MOL0     C 9321  10.538  -0.085   4.293 -0.5133  0.2380 -0.4581
   70MOL0     C 9322  10.455  -0.162   4.209 -0.2847  0.2513 -0.8310
   70MOL0     O 9323  10.501  -0.269   4.151  0.3328  0.7030 -0.1436
   70MOL0     C 9324  10.446  -0.302   4.019  0.4141  0.1648  0.2671
   70MOL0     C 9325  10.528  -0.406   3.952  0.3097  0.5071 -0.4032
   70MOL0     C 9326  10.668  -0.363   3.903  0.4484 -0.2805  0.1354
   70MOL0     C 9327  10.741  -0.490   3.868 -0.2194 -0.2847  0.6551
   70MOL0     C 9328  10.869  -0.440   3.797  0.3716  0.0544 -0.2417
   70MOL0     C 9329  10.956  -0.559   3.759 -0.0818  0.0983  0.2099
   70MOL0     C 9330  11.095  -0.516   3.710  0.3350 -0.6185  0.7759
   70MOL0     C 9331  11.183  -0.631   3.646  0.1832  0.0980  0.4886
   70MOL0     N 9332  11.308  -0.587   3.578 -0.4032  0.2519  0.5994
   70MOL0     C 9333  11.390  -0.498   3.633 -0.4050  0.2137  0.4823
   70MOL0     C 9334  11.483  -0.484   3.539  0.2158  0.0424 -0.4934
   70MOL0     C 9335  11.595  -0.392   3.554 -0.2717 -0.9397 -0.0885
   70MOL0     C 9336  11.732  -0.457   3.567 -0.5563  0.1538  0.4746
   70MOL0     C 9337  11.850  -0.360   3.570  0.8268  0.0351 -0.5302
   70MOL0     C 9338  11.963  -0.440   3.640  0.1447 -0.0376  0.3792
   70MOL0     O 9339  12.085  -0.366   3.643  0.1053 -0.3122 -0.0294
   70MOL0     C 9340  12.199  -0.426   3.699 -0.2116  0.3234 -0.0664
   70MOL0     C 9341  12.315  -0.357   3.686 -0.4595  0.0571 -1.1499
   70MOL0     C 9342  12.440  -0.401   3.736  1.0586 -0.2461 -0.6631
   70MOL0     C 9343  12.441  -0.524   3.813 -1.2404 -1.2565  0.5645
   70MOL0     C 9344  12.566  -0.579   3.864 -0.4111  0.3553 -0.4844
   70MOL0     O 9345  12.678  -0.532   3.796  0.6016 -0.2906  0.1953
   70MOL0     C 9346  12.801  -0.574   3.837  0.0122 -1.2565  0.6188
   70MOL0     C 9347  12.893  -0.463   3.834  0.6254 -0.3451  0.2116
   70MOL0     C 9348  13.025  -0.480   3.870  1.0727  0.1411 -0.5303
   70MOL0     C 9349  13.075  -0.606   3.903 -0.6452  0.5065  0.2972
   70MOL0     O 9350  13.208  -0.627   3.932 -0.3402  0.3383  0.1578
   70MOL0     C 9351  13.317  -0.540   3.890  0.6704 -0.5939 -0.8642
   70MOL0     C 9352  13.342  -0.567   3.743 -0.2719  0.2296 -0.5285
   70MOL0     C 9353  13.430  -0.464   3.681 -0.4321 -0.4000  0.2466
   70MOL0     C 9354  13.573  -0.460   3.741  0.3007 -0.3146 -0.3289
   70MOL0     C 9355  13.637  -0.321   3.706 -0.6387  0.4056 -0.1747
   70MOL0     C 9356  13.774  -0.319   3.746  0.9760 -0.3205  0.4133
   70MOL0     C 9357  13.830  -0.183   3.748  0.2899 -0.2196 -0.1292
   70MOL0     C 9358  13.974  -0.160   3.779 -1.5284  0.2958  0.0830
   70MOL0    Cl 9359  14.099  -0.273   3.701  0.0598  0.1820  0.0843
   70MOL0     C 9360  12.980  -0.712   3.914  0.6739  0.3525 -0.0039
   70MOL0     C 9361  12.844  -0.696   3.875  0.9884  0.1401 -0.5480
   70MOL0     O 9362  12.563  -0.666   3.953 -0.5188  0.8531 -0.4248
   70MOL0     C 9363  12.324  -0.599   3.821 -0.0074  0.6830  0.0730
   70MOL0     C 9364  12.200  -0.550   3.767  0.2010  0.7672  0.8094
   70MOL0     N 9365  11.464  -0.564   3.430  0.1633 -0.1915 -0.5048
   70MOL0     N 9366  11.350  -0.623   3.450  0.0216  0.4150  0.1447
   70MOL0     C 9367  10.324  -0.120   4.199  0.2993  0.4770  0.7542
   70MOL0     C 9368  10.277  -0.010   4.274  0.3876 -0.3081 -0.4245
   70MOL0     C 9369  10.247   0.418   4.391  0.0750  0.4329 -0.3845
   70MOL0     C 9370  10.189   0.413   4.512  0.2739 -0.1160 -0.4516
   70MOL0     C 9371  10.128   0.516   4.575 -0.1936 -0.3431 -0.0058
   70MOL0     C 9372  10.123   0.637   4.515  0.2594 -0.1468 -0.7900
   70MOL0     O 9373  10.081   0.751   4.583  0.5578 -0.0767  0.1808
   70MOL0     C 9374  10.008   0.734   4.703 -0.5676 -0.8670 -0.6668
   70MOL0     C 9375   9.951   0.860   4.774 -1.1608 -0.1510 -0.4827
   70MOL0     C 9376   9.866   0.818   4.894 -0.2752 -0.4473 -0.4795
   70MOL0     C 9377   9.740   0.751   4.851  0.2448 -0.1258 -0.9507
   70MOL0     C 9378   9.626   0.784   4.938 -0.5938  0.0998 -0.6273
   70MOL0     C 9379   9.530   0.805   5.002  0.4748  0.6985 -0.2122
   70MOL0     C 9380  10.173   0.640   4.384 -0.5220 -0.2050  0.2313
   70MOL0     C 9381  10.243   0.543   4.321  0.4345 -0.0151 -1.1611
   70MOL0     C 9382  10.298   0.571   4.185  0.1239  0.3000  0.2556
   70MOL0     H 9383  10.563   0.086   4.415 -1.7496  1.1492 -0.3493
   70MOL0     H 9384  10.641  -0.112   4.309 -0.7666 -1.1592 -1.0383
   70MOL0     H 9385  10.346  -0.346   4.027  0.7148 -0.2966  1.6836
   70MOL0     H 9386  10.440  -0.216   3.951  2.4099 -0.5738 -0.9339
   70MOL0     H 9387  10.476  -0.437   3.861  2.0390  1.1743 -1.6737
   70MOL0     H 9388  10.522  -0.485   4.028  0.7867 -0.2178 -1.1042
   70MOL0     H 9389  10.721  -0.308   3.982  0.3810 -0.6726  0.4546
   70MOL0     H 9390  10.666  -0.284   3.827  2.2774 -1.2394 -0.9674
   70MOL0     H 9391  10.766  -0.536   3.965 -0.5753 -2.0124 -0.0311
   70MOL0     H 9392  10.687  -0.558   3.801  0.7671  1.8639 -2.5553
   70MOL0     H 9393  10.842  -0.375   3.713 -3.5419  1.4024  1.7942
   70MOL0     H 9394  10.928  -0.377   3.865  1.3894 -0.9112 -0.2020
   70MOL0     H 9395  10.969  -0.628   3.843 -2.9789 -0.4225  0.3319
   70MOL0     H 9396  10.911  -0.613   3.676  4.1899 -3.1281 -0.3870
   70MOL0     H 9397  11.155  -0.473   3.790  2.4300  0.9481 -1.4946
   70MOL0     H 9398  11.084  -0.430   3.643  0.1427  0.5476  2.2501
   70MOL0     H 9399  11.209  -0.708   3.719  1.9416 -1.4796 -1.6756
   70MOL0     H 9400  11.121  -0.673   3.567 -0.0280 -0.2416  0.8316
   70MOL0     H 9401  11.384  -0.460   3.734 -2.0450  1.0721  0.0950
   70MOL0     H 9402  11.592  -0.311   3.480 -0.5083 -1.2866 -0.4575
   70MOL0     H 9403  11.571  -0.326   3.638 -1.0653  0.9382 -1.7022
   70MOL0     H 9404  11.718  -0.511   3.662 -1.8520 -1.2083 -0.4504
   70MOL0     H 9405  11.750  -0.535   3.493  1.9599 -0.4537  1.6291
   70MOL0     H 9406  11.825  -0.265   3.619 -0.5400 -0.4628 -0.2154
   70MOL0     H 9407  11.881  -0.339   3.467  0.9375  0.3281 -0.4385
   70MOL0     H 9408  11.975  -0.534   3.586  2.0046 -0.8445  2.0684
   70MOL0     H 9409  11.925  -0.472   3.738 -2.4007 -0.8033 -0.7846
   70MOL0     H 9410  12.315  -0.264   3.630 -4.1384  0.2911 -0.9496
   70MOL0     H 9411  12.525  -0.334   3.726 -0.3610  2.2659  2.5128
   70MOL0     H 9412  12.860  -0.365   3.802  3.2975 -0.2251 -2.6492
   70MOL0     H 9413  13.086  -0.391   3.866 -1.5436  2.0317 -1.2843
   70MOL0     H 9414  13.289  -0.434   3.894  1.5015 -0.3365 -1.5725
   70MOL0     H 9415  13.403  -0.561   3.955  0.0531 -2.0052 -0.4767
   70MOL0     H 9416  13.388  -0.666   3.732 -0.3206  0.2537 -0.9321
   70MOL0     H 9417  13.249  -0.566   3.687 -0.0414 -0.1591 -0.9292
   70MOL0     H 9418  13.431  -0.482   3.573 -2.8323  5.2647 -1.0539
   70MOL0     H 9419  13.387  -0.365   3.699  0.1671 -0.0121 -0.4131
   70MOL0     H 9420  13.629  -0.546   3.704 -1.6544 -1.4097 -0.8990
   70MOL0     H 9421  13.550  -0.467   3.848 -1.0787 -2.0646 -0.6814
   70MOL0     H 9422  13.580  -0.241   3.755 -1.0767  0.4231 -0.7055
   70MOL0     H 9423  13.621  -0.292   3.602 -0.0091  3.5823  0.5040
   70MOL0     H 9424  13.787  -0.358   3.848  1.1240  0.5090  0.7246
   70MOL0     H 9425  13.834  -0.374   3.673 -0.4258 -1.7378  0.2821
   70MOL0     H 9426  13.775  -0.118   3.817  0.9494  0.2670 -0.0529
   70MOL0     H 9427  13.825  -0.144   3.646  2.9375  0.3872 -0.0883
   70MOL0     H 9428  13.990  -0.063   3.730  1.6847 -1.0240 -1.8449
   70MOL0     H 9429  14.010  -0.157   3.882  3.8205  0.5259 -1.4601
   70MOL0     H 9430  12.994  -0.812   3.953  2.4505  0.2578 -0.7787
   70MOL0     H 9431  12.775  -0.779   3.883  1.2678  0.0548  1.4999
   70MOL0     H 9432  12.325  -0.688   3.882 -1.7736 -0.0357 -0.8497
   70MOL0     H 9433  12.107  -0.606   3.765  1.5761 -1.6547 -0.9403
   70MOL0     H 9434  10.259  -0.182   4.138  1.7034 -1.1179  0.8336
   70MOL0     H 9435  10.172   0.017   4.287  0.7503  1.1034 -0.2561
   70MOL0     H 9436  10.188   0.322   4.572 -3.1543 -0.8101 -1.3465
   70MOL0     H 9437  10.099   0.502   4.679 -0.7622 -0.2583 -0.1468
   70MOL0     H 9438  10.071   0.672   4.767  0.9700 -0.4359 -1.7051
   70MOL0     H 9439   9.926   0.665   4.682 -0.3856 -1.3129  0.0578
   70MOL0     H 9440   9.889   0.916   4.704 -2.7159  0.1469  1.0476
   70MOL0     H 9441  10.037   0.921   4.804 -1.3522 -1.5747  3.6878
   70MOL0     H 9442   9.828   0.912   4.933 -2.1768 -0.2222 -2.6463
   70MOL0     H 9443   9.930   0.775   4.972  1.1264 -1.3068 -2.0271
   70MOL0     H 9444   9.698   0.765   4.751 -0.6213 -0.4957 -0.6536
   70MOL0     H 9445   9.766   0.645   4.861  0.3022  0.0945  2.0769
   70MOL0     H 9446   9.440   0.827   5.054 -0.1378  0.2569 -1.0492
   70MOL0     H 9447  10.161   0.729   4.324 -1.3890 -0.7471 -0.4276
   70MOL0     H 9448  10.347   0.668   4.175 -0.7766  0.8980  1.4374
   70MOL0     H 9449  10.386   0.510   4.162  1.0808  1.0552  1.7941
   70MOL0     H 9450  10.222   0.556   4.108 -0.6208  2.0154  0.6186
   71MOL0     O 9451   3.310   7.505   3.645 -0.1091  0.6154  0.6698
   71MOL0     C 9452   3.251   7.537   3.538 -0.9777  0.3535  0.2599
   71MOL0     O 9453   3.317   7.596   3.438 -0.2645 -0.1483  0.6745
   71MOL0     C 9454   3.455   7.584   3.413 -0.3109  0.3623  0.6170
   71MOL0     C 9455   3.511   7.668   3.323 -0.1773  0.7126 -0.2607
   71MOL0     C 9456   3.643   7.647   3.284  0.1115  0.0480  0.2085
   71MOL0     C 9457   3.719   7.542   3.339  0.1483 -0.1478 -0.0216
   71MOL0     O 9458   3.849   7.548   3.305  0.4228 -0.1299 -0.1857
   71MOL0     C 9459   3.921   7.428   3.309 -0.1014 -0.3914  0.7353
   71MOL0     C 9460   4.063   7.460   3.260 -0.0727  0.0375 -0.0462
   71MOL0     C 9461   4.148   7.543   3.360 -1.0586  0.6389 -0.6763
   71MOL0     C 9462   4.267   7.604   3.283 -0.6358 -0.1186  0.0829
   71MOL0     C 9463   4.381   7.656   3.374  0.1011  0.0495 -0.2740
   71MOL0     C 9464   4.473   7.760   3.315 -0.2386 -0.0686 -0.3557
   71MOL0     C 9465   4.566   7.709   3.213 -0.6986 -0.3207  0.0055
   71MOL0     C 9466   4.673   7.614   3.264 -0.0713  0.5163  0.5218
   71MOL0     N 9467   4.765   7.671   3.368 -0.2135  0.5815 -0.3948
   71MOL0     C 9468   4.882   7.740   3.344  1.0622 -0.0787 -0.3769
   71MOL0     C 9469   4.924   7.790   3.462  0.8804  1.0077 -0.3486
   71MOL0     C 9470   5.042   7.882   3.483 -0.2910  0.2681 -0.3570
   71MOL0     C 9471   5.167   7.805   3.531  0.6986  0.2936  0.7026
   71MOL0     C 9472   5.171   7.758   3.673 -0.3558  0.2013  0.6020
   71MOL0     C 9473   5.140   7.873   3.780 -0.3706  0.2372 -0.8285
   71MOL0     O 9474   5.215   7.985   3.737 -0.9538  0.6402  0.7829
   71MOL0     C 9475   5.354   7.979   3.767  0.1833  0.3132  0.4341
   71MOL0     C 9476   5.417   7.901   3.870 -0.0165  0.1087  0.4049
   71MOL0     C 9477   5.553   7.928   3.895 -0.6254  0.0057  0.3447
   71MOL0     C 9478   5.630   8.025   3.833 -0.5036  0.2100  0.4211
   71MOL0     C 9479   5.776   8.044   3.856  0.8539  0.3918 -0.4292
   71MOL0     O 9480   5.833   8.174   3.838 -0.4718  0.0648  0.1475
   71MOL0     C 9481   5.969   8.200   3.838  0.6588  0.2449 -0.3035
   71MOL0     C 9482   6.056   8.167   3.944  0.5345 -0.6462  0.0280
   71MOL0     C 9483   6.195   8.192   3.941 -0.2611  0.0602  0.1619
   71MOL0     C 9484   6.255   8.248   3.829 -0.1893 -0.0750 -0.1360
   71MOL0     O 9485   6.391   8.255   3.818  0.0607  0.2225  0.1582
   71MOL0     C 9486   6.445   8.334   3.709 -0.2179 -0.1928  0.6103
   71MOL0     C 9487   6.602   8.317   3.700 -0.4546  0.2583  0.3143
   71MOL0     C 9488   6.682   8.445   3.690  0.5147  0.2868  0.2111
   71MOL0     C 9489   6.835   8.436   3.698  0.0115 -0.0314  0.3429
   71MOL0     C 9490   6.891   8.576   3.675  0.0506  0.4531 -0.6937
   71MOL0     C 9491   7.050   8.583   3.645 -0.4178 -0.2937 -1.1154
   71MOL0     C 9492   7.136   8.573   3.781 -0.1307 -0.0907 -0.6516
   71MOL0     C 9493   7.283   8.594   3.760  0.3668  0.4138 -0.5878
   71MOL0    Cl 9494   7.356   8.491   3.633 -0.0452  0.3672  0.1524
   71MOL0     C 9495   6.164   8.284   3.718 -0.1734  0.2107  0.1356
   71MOL0     C 9496   6.029   8.266   3.730  0.4130  0.9475 -0.5340
   71MOL0     O 9497   5.836   7.942   3.895 -0.0758 -0.6407  0.4284
   71MOL0     C 9498   5.565   8.106   3.734  1.1753 -0.3078 -0.1388
   71MOL0     C 9499   5.432   8.071   3.695  0.8745  0.0848  0.6197
   71MOL0     N 9500   4.838   7.747   3.559 -0.4325 -0.4401  0.8428
   71MOL0     N 9501   4.750   7.671   3.507  0.7052  0.1188  0.3290
   71MOL0     C 9502   3.663   7.451   3.433 -0.1201 -0.7266  0.5218
   71MOL0     C 9503   3.529   7.469   3.464  0.0299 -0.0730  1.0739
   71MOL0     C 9504   3.100   7.516   3.540 -0.0286  0.4831  0.4125
   71MOL0     C 9505   3.040   7.458   3.657 -0.4456  0.6408  0.0008
   71MOL0     C 9506   2.906   7.437   3.655  0.8671  0.0864  0.3292
   71MOL0     C 9507   2.823   7.475   3.551 -0.5461  0.2243 -0.7791
   71MOL0     O 9508   2.690   7.442   3.574 -0.1593 -0.1859 -0.1522
   71MOL0     C 9509   2.600   7.440   3.460  0.3750 -0.1679 -0.2481
   71MOL0     C 9510   2.465   7.398   3.517 -0.4096 -0.3900 -0.1427
   71MOL0     C 9511   2.380   7.505   3.596 -0.5410 -0.3815  0.1742
   71MOL0     C 9512   2.256   7.429   3.646 -0.2482  0.2223  0.2402
   71MOL0     C 9513   2.158   7.518   3.698  0.2533 -0.4077 -0.9147
   71MOL0     C 9514   2.060   7.579   3.738 -0.3845  0.3682 -0.1092
   71MOL0     C 9515   2.878   7.544   3.446  0.0418 -0.0632 -0.6722
   71MOL0     C 9516   3.016   7.561   3.439  0.1591 -0.5129  0.0497
   71MOL0     C 9517   3.059   7.612   3.308  0.4995 -0.4842  0.0391
   71MOL0     H 9518   3.445   7.736   3.270  1.0156  1.5600 -0.6942
   71MOL0     H 9519   3.690   7.715   3.214  1.2734 -0.3840  0.5524
   71MOL0     H 9520   3.942   7.373   3.401  0.3864 -2.1754 -0.3705
   71MOL0     H 9521   3.869   7.350   3.252 -3.9159  0.6641  2.4451
   71MOL0     H 9522   4.066   7.500   3.158  1.0352 -0.4959 -0.2440
   71MOL0     H 9523   4.111   7.362   3.246  0.9635  0.8463 -2.7362
   71MOL0     H 9524   4.182   7.477   3.441 -1.3714  1.6270  0.2753
   71MOL0     H 9525   4.084   7.615   3.411 -2.0231 -1.7954  1.7858
   71MOL0     H 9526   4.305   7.521   3.222 -2.0515 -0.2380 -0.7049
   71MOL0     H 9527   4.226   7.687   3.225 -0.5413 -1.2686 -1.7198
   71MOL0     H 9528   4.342   7.706   3.463  0.3411 -1.8224  0.9481
   71MOL0     H 9529   4.434   7.575   3.427 -1.3837  0.7553  2.4729
   71MOL0     H 9530   4.412   7.840   3.272  2.3099  1.1207 -1.9617
   71MOL0     H 9531   4.525   7.796   3.405 -0.0704 -0.1155 -0.4343
   71MOL0     H 9532   4.615   7.789   3.156 -0.5225 -1.5088 -1.5982
   71MOL0     H 9533   4.508   7.652   3.140 -0.1342  0.3236 -0.9662
   71MOL0     H 9534   4.616   7.530   3.305 -0.9928  0.7437 -0.2502
   71MOL0     H 9535   4.729   7.572   3.180  2.8696  0.4097  2.3841
   71MOL0     H 9536   4.921   7.751   3.244 -3.1072 -1.3700 -2.3790
   71MOL0     H 9537   5.056   7.931   3.387  0.7689 -2.0437 -1.4713
   71MOL0     H 9538   5.024   7.954   3.563  0.2169 -1.7667  1.7016
   71MOL0     H 9539   5.177   7.718   3.466  0.7709 -1.2531  2.7102
   71MOL0     H 9540   5.248   7.875   3.504  0.8430  0.4700  1.5667
   71MOL0     H 9541   5.276   7.730   3.687 -1.5605 -3.0320  5.8152
   71MOL0     H 9542   5.104   7.672   3.685 -1.1540  0.5133 -1.3543
   71MOL0     H 9543   5.158   7.844   3.884  0.9361 -3.0484 -1.8491
   71MOL0     H 9544   5.034   7.898   3.784 -0.9408 -2.0767  0.3233
   71MOL0     H 9545   5.362   7.824   3.924  1.9312 -0.6230  1.4392
   71MOL0     H 9546   5.605   7.860   3.962 -2.5606 -0.5688  1.3345
   71MOL0     H 9547   6.010   8.132   4.036 -2.6156  0.0997 -1.1505
   71MOL0     H 9548   6.252   8.170   4.030 -0.1131  2.1807  0.6526
   71MOL0     H 9549   6.402   8.309   3.612 -0.1174  0.8317  0.2896
   71MOL0     H 9550   6.415   8.438   3.723 -0.2251  0.0262 -0.9165
   71MOL0     H 9551   6.638   8.269   3.792  3.2367  1.4860 -0.3092
   71MOL0     H 9552   6.632   8.260   3.612  1.0276  1.3026  0.1024
   71MOL0     H 9553   6.648   8.503   3.603 -1.3287  0.1119  0.7827
   71MOL0     H 9554   6.633   8.501   3.770 -2.1796 -2.2291  0.5009
   71MOL0     H 9555   6.877   8.360   3.632  1.3454  2.3907 -1.7644
   71MOL0     H 9556   6.863   8.404   3.799 -2.2183 -0.1226  0.9832
   71MOL0     H 9557   6.874   8.638   3.763 -0.5259  0.0630 -0.5259
   71MOL0     H 9558   6.839   8.624   3.592 -3.0290 -0.2397  0.6937
   71MOL0     H 9559   7.083   8.501   3.581  0.5508 -0.7032 -0.1013
   71MOL0     H 9560   7.074   8.679   3.598 -0.0422  0.4580  0.5384
   71MOL0     H 9561   7.109   8.476   3.823  0.8932  0.7513  2.1664
   71MOL0     H 9562   7.102   8.657   3.842  0.9524  1.9917 -2.7344
   71MOL0     H 9563   7.296   8.700   3.738  1.3495  0.2811 -0.6990
   71MOL0     H 9564   7.332   8.582   3.857 -1.5866 -0.1436  0.3671
   71MOL0     H 9565   6.193   8.327   3.623  0.3474 -0.1455  0.1310
   71MOL0     H 9566   5.963   8.278   3.645  0.1300  1.5323 -0.2389
   71MOL0     H 9567   5.616   8.181   3.674  2.0848 -1.7514 -1.2212
   71MOL0     H 9568   5.370   8.130   3.629 -2.0033 -2.2731  1.0040
   71MOL0     H 9569   3.715   7.373   3.488 -1.5771 -1.4612  0.9001
   71MOL0     H 9570   3.481   7.396   3.528 -0.8039 -0.4116  0.0996
   71MOL0     H 9571   3.102   7.436   3.743 -0.2367 -1.7269 -0.6719
   71MOL0     H 9572   2.849   7.387   3.732  0.5603  0.9813  0.6936
   71MOL0     H 9573   2.634   7.369   3.384 -0.9687 -1.0484 -0.0629
   71MOL0     H 9574   2.595   7.541   3.417  2.6308 -0.2714 -0.9019
   71MOL0     H 9575   2.462   7.302   3.569  0.8725 -0.4176 -0.1026
   71MOL0     H 9576   2.407   7.384   3.424  2.2443 -0.0639 -1.9434
   71MOL0     H 9577   2.358   7.593   3.535 -0.2950  0.0798  0.7451
   71MOL0     H 9578   2.440   7.544   3.679 -0.0960  1.5795 -1.0048
   71MOL0     H 9579   2.203   7.368   3.572 -0.0559 -1.4111  1.3872
   71MOL0     H 9580   2.274   7.361   3.730 -1.0678 -1.5384 -0.9413
   71MOL0     H 9581   1.999   7.665   3.761  0.9216  0.6999  2.4833
   71MOL0     H 9582   2.809   7.591   3.376  1.5914  1.9406 -0.9391
   71MOL0     H 9583   3.137   7.548   3.264 -1.8035 -0.1039 -5.4340
   71MOL0     H 9584   2.989   7.632   3.226  0.6239  0.7895  0.2160
   71MOL0     H 9585   3.108   7.709   3.325  0.0657 -0.4891  1.4583
   72MOL0     O 9586   6.454   3.773  11.101  0.0901  0.2955  0.3528
   72MOL0     C 9587   6.367   3.692  11.082 -0.0379  0.5004 -0.2039
   72MOL0     O 9588   6.368   3.562  11.129  0.5645 -0.0764 -0.2553
   72MOL0     C 9589   6.477   3.509  11.197  0.9515 -1.0834 -0.1061
   72MOL0     C 9590   6.453   3.391  11.274 -0.7008 -0.7642 -0.2041
   72MOL0     C 9591   6.552   3.324  11.346 -0.1485  0.2465 -0.3017
   72MOL0     C 9592   6.690   3.363  11.334 -0.8683 -0.2772  0.0638
   72MOL0     O 9593   6.801   3.296  11.384  0.0958 -0.6071 -0.2737
   72MOL0     C 9594   6.789   3.178  11.463  0.6008 -0.8453  0.6841
   72MOL0     C 9595   6.768   3.055  11.368 -0.9756 -0.3751 -0.2612
   72MOL0     C 9596   6.892   3.014  11.292 -0.3708  0.4284  0.4652
   72MOL0     C 9597   6.997   2.956  11.391  0.4603 -0.1097 -0.1945
   72MOL0     C 9598   7.096   2.859  11.310  0.4455  0.2989 -0.5134
   72MOL0     C 9599   7.184   2.779  11.410 -0.2920  0.3021 -0.1702
   72MOL0     C 9600   7.280   2.870  11.486 -0.3883  0.7585  0.0070
   72MOL0     C 9601   7.368   2.786  11.587 -0.8013 -0.3129 -0.0121
   72MOL0     N 9602   7.507   2.850  11.623 -0.1495  0.1007  0.1297
   72MOL0     C 9603   7.541   2.897  11.746  0.0020  0.0403 -0.8569
   72MOL0     C 9604   7.673   2.927  11.733  0.4514  0.0016 -0.2526
   72MOL0     C 9605   7.751   2.996  11.835 -0.3837 -1.0198  0.0138
   72MOL0     C 9606   7.752   3.146  11.815 -0.0408 -0.1119 -0.8789
   72MOL0     C 9607   7.798   3.222  11.940 -0.0833 -0.0643 -0.1944
   72MOL0     C 9608   7.951   3.228  11.943  0.3076  0.0660  0.8427
   72MOL0     O 9609   7.995   3.304  12.055 -0.1235 -0.5655 -0.1964
   72MOL0     C 9610   8.124   3.339  12.071 -0.3956 -0.4341 -0.0350
   72MOL0     C 9611   8.152   3.427  12.176  1.1565  0.2592 -0.4951
   72MOL0     C 9612   8.288   3.458  12.203  0.0151  0.8071 -0.0707
   72MOL0     C 9613   8.395   3.419  12.116  0.2795 -0.5557  0.0030
   72MOL0     C 9614   8.534   3.469  12.138  0.4933  0.7405 -0.8036
   72MOL0     O 9615   8.628   3.394  12.067 -0.4896 -0.3885  0.2681
   72MOL0     C 9616   8.759   3.415  12.079  0.1112 -0.2806 -0.4469
   72MOL0     C 9617   8.816   3.422  12.209 -1.0223  0.1906  0.4324
   72MOL0     C 9618   8.947   3.477  12.213  0.0674  0.1334  0.2483
   72MOL0     C 9619   9.012   3.532  12.103 -0.2166  0.6511  1.0001
   72MOL0     O 9620   9.145   3.575  12.124  1.2374  1.3954  0.2788
   72MOL0     C 9621   9.220   3.622  12.015 -0.2183 -0.1146 -0.3436
   72MOL0     C 9622   9.360   3.665  12.058  1.1133  0.0203 -0.0354
   72MOL0     C 9623   9.462   3.553  12.085 -0.2378 -0.1898  0.4332
   72MOL0     C 9624   9.600   3.612  12.101  0.0109  0.4596 -0.0543
   72MOL0     C 9625   9.713   3.510  12.104 -0.4717  0.1548  0.5568
   72MOL0     C 9626   9.856   3.578  12.112  0.2676  0.1066  0.0364
   72MOL0     C 9627   9.966   3.477  12.079  0.1067 -0.1200  0.1790
   72MOL0     C 9628  10.101   3.543  12.114 -0.5660 -0.2408 -0.0190
   72MOL0    Cl 9629  10.190   3.594  11.965 -0.0171 -0.0976 -0.7420
   72MOL0     C 9630   8.956   3.517  11.975  0.3887  0.2718  0.2605
   72MOL0     C 9631   8.825   3.471  11.965 -0.4211  0.7929 -0.0852
   72MOL0     O 9632   8.551   3.559  12.219 -0.0667 -0.5235 -0.5391
   72MOL0     C 9633   8.362   3.336  12.005 -0.4127 -1.3216  0.0049
   72MOL0     C 9634   8.233   3.293  11.983 -0.2353 -0.8522  0.0611
   72MOL0     N 9635   7.712   2.894  11.602 -0.2891  0.1385 -0.1626
   72MOL0     N 9636   7.617   2.844  11.540 -0.4696 -0.3018  0.2809
   72MOL0     C 9637   6.717   3.480  11.264 -0.0128  0.2578 -0.0944
   72MOL0     C 9638   6.614   3.552  11.196  0.4162 -0.4933 -0.2106
   72MOL0     C 9639   6.244   3.723  11.002 -0.3418  0.1096  0.2639
   72MOL0     C 9640   6.131   3.637  11.016 -0.8453 -0.0309 -0.2670
   72MOL0     C 9641   6.019   3.653  10.927 -1.0950  0.4368 -0.9981
   72MOL0     C 9642   6.019   3.757  10.832  0.5535  0.3622 -0.2628
   72MOL0     O 9643   5.917   3.781  10.743 -0.1936 -0.3026  0.5364
   72MOL0     C 9644   5.809   3.686  10.735 -0.8622 -0.9872 -0.2814
   72MOL0     C 9645   5.737   3.704  10.600 -0.5128  0.3359  0.1039
   72MOL0     C 9646   5.666   3.839  10.585  0.0813 -0.1986  0.1174
   72MOL0     C 9647   5.600   3.846  10.442 -0.1694 -0.0117 -0.3129
   72MOL0     C 9648   5.505   3.734  10.444 -0.1253 -0.0563  0.4820
   72MOL0     C 9649   5.415   3.648  10.443  0.3068  0.0969  0.8034
   72MOL0     C 9650   6.129   3.842  10.830 -0.1066 -0.3989 -0.4887
   72MOL0     C 9651   6.245   3.827  10.900  0.6044 -0.2542 -0.7075
   72MOL0     C 9652   6.356   3.922  10.878 -0.1230  0.1892  0.2180
   72MOL0     H 9653   6.355   3.345  11.278 -0.6710 -1.0044 -1.6124
   72MOL0     H 9654   6.526   3.229  11.391  0.7802  0.2678  0.3160
   72MOL0     H 9655   6.876   3.176  11.529  0.0381  0.3627  1.4996
   72MOL0     H 9656   6.700   3.186  11.526  0.4218  0.9666  0.2513
   72MOL0     H 9657   6.691   3.097  11.303 -1.6815  0.7280  1.2339
   72MOL0     H 9658   6.723   2.973  11.425 -3.3479  1.4329  0.6005
   72MOL0     H 9659   6.936   3.100  11.240 -1.0067  0.3003 -0.2938
   72MOL0     H 9660   6.873   2.938  11.216  4.0996  1.4247 -2.0458
   72MOL0     H 9661   7.052   3.033  11.444 -3.3488  1.8469  1.2797
   72MOL0     H 9662   6.939   2.902  11.467 -1.0514  0.7490 -0.6877
   72MOL0     H 9663   7.030   2.794  11.252 -2.1704  0.6846  1.8118
   72MOL0     H 9664   7.160   2.921  11.247  3.1658 -1.2561  0.5170
   72MOL0     H 9665   7.128   2.714  11.478 -0.8821  0.8713 -0.0983
   72MOL0     H 9666   7.230   2.704  11.345 -3.5229 -4.9035  2.7965
   72MOL0     H 9667   7.216   2.937  11.545  1.7237  0.9173  2.2480
   72MOL0     H 9668   7.343   2.934  11.423  1.0609 -1.7413 -1.2410
   72MOL0     H 9669   7.322   2.776  11.686 -0.2864 -1.4547  0.1300
   72MOL0     H 9670   7.382   2.691  11.534  2.1923  0.2392 -0.3811
   72MOL0     H 9671   7.495   2.901  11.843  0.1766 -2.7194 -0.5802
   72MOL0     H 9672   7.701   2.988  11.932 -1.7589  1.1864 -0.4264
   72MOL0     H 9673   7.852   2.954  11.839  1.4496  2.9424  0.8395
   72MOL0     H 9674   7.823   3.164  11.733  2.2062  4.3607  1.6699
   72MOL0     H 9675   7.653   3.182  11.785  0.0617 -1.7400 -3.4685
   72MOL0     H 9676   7.749   3.173  12.024  1.1119  0.0920  0.6200
   72MOL0     H 9677   7.761   3.325  11.932 -2.5200 -0.7006  1.7785
   72MOL0     H 9678   7.990   3.262  11.846  1.4295 -0.1224  1.2234
   72MOL0     H 9679   7.990   3.129  11.967 -1.5830 -0.7091  0.9238
   72MOL0     H 9680   8.075   3.462  12.243  3.5529  2.0741  1.4963
   72MOL0     H 9681   8.305   3.526  12.286 -1.2528  0.0522  0.8429
   72MOL0     H 9682   8.759   3.402  12.299  0.4411  2.1843  1.9029
   72MOL0     H 9683   8.991   3.468  12.312  0.7372  0.6337  0.0052
   72MOL0     H 9684   9.229   3.545  11.939 -0.7888  2.7979 -3.6292
   72MOL0     H 9685   9.166   3.709  11.975  0.0630  3.0550  5.1560
   72MOL0     H 9686   9.395   3.736  11.982 -3.3321  3.3428  0.5589
   72MOL0     H 9687   9.351   3.735  12.142 -0.5866  0.9606 -0.9408
   72MOL0     H 9688   9.430   3.495  12.172 -1.7428 -0.9085 -0.5558
   72MOL0     H 9689   9.461   3.475  12.007  5.2437 -1.9248  1.6902
   72MOL0     H 9690   9.606   3.676  12.190 -1.1699  1.2196 -0.4994
   72MOL0     H 9691   9.611   3.673  12.011 -1.3594 -0.3879 -0.8147
   72MOL0     H 9692   9.703   3.447  12.015  1.1290 -1.0851  1.2293
   72MOL0     H 9693   9.702   3.445  12.190 -0.4327 -0.2235  0.2775
   72MOL0     H 9694   9.855   3.660  12.040  2.7923  0.4022  0.2532
   72MOL0     H 9695   9.873   3.620  12.211  1.1355 -1.4645  0.6037
   72MOL0     H 9696   9.967   3.454  11.973 -0.2060 -0.4060  0.2359
   72MOL0     H 9697   9.950   3.393  12.147 -2.0181  0.1721  0.1144
   72MOL0     H 9698  10.087   3.636  12.169 -4.2446 -0.0706 -0.9865
   72MOL0     H 9699  10.166   3.480  12.175  0.2498  1.5102  1.0093
   72MOL0     H 9700   9.006   3.575  11.898 -1.0022  0.0784 -0.8565
   72MOL0     H 9701   8.761   3.479  11.878 -1.0735  0.2948  0.3363
   72MOL0     H 9702   8.445   3.305  11.942  0.7002  0.8790  0.3124
   72MOL0     H 9703   8.205   3.225  11.903  1.4417 -1.1292 -0.3486
   72MOL0     H 9704   6.824   3.502  11.260  0.2925 -0.6044  2.1420
   72MOL0     H 9705   6.648   3.638  11.139  0.3767 -1.8967 -2.5155
   72MOL0     H 9706   6.136   3.566  11.098 -3.6349 -0.0012  0.0163
   72MOL0     H 9707   5.931   3.590  10.938 -1.3651  1.0122  0.4971
   72MOL0     H 9708   5.743   3.690  10.822 -3.2613  2.0502 -2.0566
   72MOL0     H 9709   5.857   3.587  10.733  2.3021  0.4327 -1.1877
   72MOL0     H 9710   5.661   3.625  10.597  2.9275 -3.3277 -4.0952
   72MOL0     H 9711   5.806   3.686  10.517  0.3660 -2.2319  1.2911
   72MOL0     H 9712   5.742   3.916  10.603 -1.8861  1.5941  1.1237
   72MOL0     H 9713   5.598   3.866  10.666 -1.9667  0.0354 -1.6001
   72MOL0     H 9714   5.543   3.940  10.435 -0.5873 -0.1819  0.6268
   72MOL0     H 9715   5.673   3.842  10.362  0.7191 -2.1598  0.5455
   72MOL0     H 9716   5.347   3.565  10.450 -1.1508  0.8132 -2.8238
   72MOL0     H 9717   6.124   3.914  10.748 -1.4438  0.2529  0.1258
   72MOL0     H 9718   6.353   4.000  10.955 -1.8785 -0.0429  0.4080
   72MOL0     H 9719   6.449   3.864  10.878 -0.2539 -0.0571 -1.0952
   72MOL0     H 9720   6.344   3.975  10.783  2.2578  1.2132  0.4235
   73MOL0     O 9721   1.000   9.285   1.094 -1.1071 -0.4094  0.0337
   73MOL0     C 9722   0.938   9.186   1.080  0.3035  0.7262 -1.1197
   73MOL0     O 9723   0.987   9.060   1.064 -0.3111 -0.4417 -0.1462
   73MOL0     C 9724   1.110   9.032   1.019 -0.4063  0.7417  0.1463
   73MOL0     C 9725   1.160   8.909   1.053 -0.8748 -1.5168 -0.2846
   73MOL0     C 9726   1.290   8.862   1.015  0.3552 -1.0992 -0.6898
   73MOL0     C 9727   1.372   8.944   0.935  0.4788 -0.6242  0.3441
   73MOL0     O 9728   1.500   8.906   0.899  0.1981 -0.1640 -1.0499
   73MOL0     C 9729   1.538   8.764   0.905  1.0562 -0.1471 -0.2077
   73MOL0     C 9730   1.661   8.741   0.814  0.1641 -0.4841  0.3578
   73MOL0     C 9731   1.791   8.808   0.877 -0.3307  0.8231  0.5419
   73MOL0     C 9732   1.916   8.767   0.797  0.8765  0.4371  0.3973
   73MOL0     C 9733   2.043   8.821   0.852  0.3268 -0.2185  0.3718
   73MOL0     C 9734   2.158   8.789   0.766 -0.0273  0.8739  0.0000
   73MOL0     C 9735   2.289   8.857   0.811 -0.6161 -0.1054 -0.4936
   73MOL0     C 9736   2.406   8.822   0.715 -0.1016 -0.4163  0.4336
   73MOL0     N 9737   2.530   8.908   0.736 -0.3054 -0.3341 -0.3151
   73MOL0     C 9738   2.611   8.907   0.850  0.1131 -0.3224 -0.2165
   73MOL0     C 9739   2.729   8.967   0.813  0.7815  0.6049 -0.2415
   73MOL0     C 9740   2.849   8.969   0.905 -0.7333  0.0138  0.6190
   73MOL0     C 9741   2.947   8.854   0.886  0.0132 -0.0163  0.1694
   73MOL0     C 9742   2.978   8.823   0.738  0.4705 -0.3236 -0.2531
   73MOL0     C 9743   3.099   8.738   0.732 -0.0962  0.0299  0.5436
   73MOL0     O 9744   3.146   8.749   0.601  0.0858 -0.1736  0.3970
   73MOL0     C 9745   3.282   8.738   0.585  0.1994 -0.8738  0.0651
   73MOL0     C 9746   3.362   8.643   0.657 -0.8195  0.1819  0.1010
   73MOL0     C 9747   3.494   8.627   0.623 -0.8307  0.1126  0.4748
   73MOL0     C 9748   3.559   8.723   0.540 -0.1118 -0.7615  0.6776
   73MOL0     C 9749   3.706   8.733   0.525 -0.7524  0.3989 -0.0617
   73MOL0     O 9750   3.759   8.834   0.455 -0.0850  0.0193  0.3896
   73MOL0     C 9751   3.871   8.817   0.381 -0.6113 -0.4162 -0.1228
   73MOL0     C 9752   3.850   8.801   0.239  1.2205 -0.1942  0.7794
   73MOL0     C 9753   3.957   8.755   0.156 -0.2585  0.3231 -0.9990
   73MOL0     C 9754   4.081   8.735   0.217  0.2636  0.1870  0.5425
   73MOL0     O 9755   4.187   8.687   0.141 -0.4155  0.6166  0.4090
   73MOL0     C 9756   4.299   8.775   0.108 -0.8876  0.3512 -0.3496
   73MOL0     C 9757   4.433   8.711   0.143  0.0471  0.1992  0.2327
   73MOL0     C 9758   4.557   8.804   0.090  0.2795  0.0011  0.5099
   73MOL0     C 9759   4.687   8.736   0.123 -0.2245 -0.0004 -0.6083
   73MOL0     C 9760   4.820   8.812   0.093 -0.4729 -0.6142 -0.3727
   73MOL0     C 9761   4.841   8.830  -0.058 -0.2617  0.2471 -0.1287
   73MOL0     C 9762   4.948   8.934  -0.087 -0.0173 -0.3011  0.3820
   73MOL0     C 9763   5.090   8.884  -0.079  1.0184 -0.8119 -0.8660
   73MOL0    Cl 9764   5.205   9.021  -0.074 -0.0111  0.2980  0.2534
   73MOL0     C 9765   4.111   8.752   0.350  0.5076 -0.5384 -0.2671
   73MOL0     C 9766   4.006   8.790   0.430  0.1386 -0.2499 -0.9717
   73MOL0     O 9767   3.776   8.645   0.576 -0.0792 -0.5096  0.1146
   73MOL0     C 9768   3.480   8.827   0.473 -0.0644  0.7700  0.0558
   73MOL0     C 9769   3.342   8.825   0.491  0.4858 -0.1755 -0.3304
   73MOL0     N 9770   2.712   9.005   0.686  0.1693 -0.3206 -0.0734
   73MOL0     N 9771   2.597   8.974   0.643 -0.2674  0.0794  0.4202
   73MOL0     C 9772   1.325   9.071   0.906 -0.7163  0.1239  0.2871
   73MOL0     C 9773   1.197   9.119   0.943 -0.1421 -0.0661 -0.1333
   73MOL0     C 9774   0.795   9.205   1.090 -0.2124  0.0668 -1.0374
   73MOL0     C 9775   0.744   9.345   1.086  0.5458  0.2362 -0.1866
   73MOL0     C 9776   0.603   9.365   1.076  0.2994  0.0922 -0.5975
   73MOL0     C 9777   0.509   9.264   1.080  0.5856 -0.7758  0.5134
   73MOL0     O 9778   0.382   9.270   1.066 -0.1379 -0.5916  0.9077
   73MOL0     C 9779   0.315   9.398   1.094 -0.6406  0.2004 -0.6815
   73MOL0     C 9780   0.163   9.383   1.096 -0.9133 -0.7873  0.3806
   73MOL0     C 9781   0.100   9.524   1.094  0.0754  0.2150  0.8475
   73MOL0     C 9782  -0.054   9.510   1.118 -0.0854 -0.1491 -0.1658
   73MOL0     C 9783  -0.133   9.635   1.082 -0.2449 -0.3790  0.5092
   73MOL0     C 9784  -0.210   9.728   1.067  0.2023 -0.2501 -0.2273
   73MOL0     C 9785   0.553   9.129   1.096 -0.8035 -0.9761 -0.5356
   73MOL0     C 9786   0.693   9.101   1.087  0.0943 -1.4332  0.4716
   73MOL0     C 9787   0.732   8.956   1.077  0.0085  0.4378  0.1636
   73MOL0     H 9788   1.097   8.841   1.111 -1.1264 -1.1630 -0.1394
   73MOL0     H 9789   1.315   8.759   1.035  0.4134 -0.5626  2.6066
   73MOL0     H 9790   1.546   8.735   1.010 -0.5926 -0.4603 -0.1509
   73MOL0     H 9791   1.460   8.703   0.859  0.1905  0.2688  0.6665
   73MOL0     H 9792   1.651   8.783   0.713  3.5124 -1.1542 -0.3469
   73MOL0     H 9793   1.680   8.634   0.802  0.4462 -0.6668  2.1969
   73MOL0     H 9794   1.802   8.757   0.974 -1.4737  0.0874  0.3020
   73MOL0     H 9795   1.782   8.916   0.893 -0.7469  0.9143 -0.2418
   73MOL0     H 9796   1.925   8.658   0.810  3.2627  0.7218  1.7370
   73MOL0     H 9797   1.903   8.800   0.694 -0.6504  1.8082  0.9899
   73MOL0     H 9798   2.038   8.930   0.845 -0.0916 -0.2865 -0.4767
   73MOL0     H 9799   2.054   8.791   0.957 -0.6851 -2.4600 -0.1052
   73MOL0     H 9800   2.164   8.680   0.772 -1.6091  0.4519 -3.5959
   73MOL0     H 9801   2.132   8.811   0.662  0.9400 -0.0696 -0.4623
   73MOL0     H 9802   2.314   8.828   0.914 -0.1515  1.8988 -0.0026
   73MOL0     H 9803   2.269   8.964   0.797 -2.2688 -0.3790 -0.3768
   73MOL0     H 9804   2.431   8.715   0.720  3.9717  0.2745 -1.1116
   73MOL0     H 9805   2.359   8.837   0.617 -1.7450 -0.3437  1.1966
   73MOL0     H 9806   2.589   8.846   0.937 -2.6378 -3.1450 -2.6412
   73MOL0     H 9807   2.896   9.067   0.888  1.1838 -0.9976 -0.2401
   73MOL0     H 9808   2.832   8.973   1.013  2.7821  0.6722  1.2665
   73MOL0     H 9809   3.039   8.879   0.939 -0.8257 -1.8566  2.7160
   73MOL0     H 9810   2.904   8.763   0.930  4.1218 -2.4311 -0.3459
   73MOL0     H 9811   3.006   8.917   0.689  1.4730 -0.6209 -0.2710
   73MOL0     H 9812   2.886   8.781   0.698 -0.4113  0.8921  0.4378
   73MOL0     H 9813   3.079   8.633   0.755  0.5089 -1.3345 -4.1356
   73MOL0     H 9814   3.175   8.782   0.798  1.2443  1.2380 -1.6988
   73MOL0     H 9815   3.324   8.580   0.737  0.3586  0.1781  0.6895
   73MOL0     H 9816   3.557   8.560   0.680  2.1519  1.6764 -0.7757
   73MOL0     H 9817   3.750   8.821   0.201  0.5105 -2.1255  1.5234
   73MOL0     H 9818   3.944   8.741   0.049 -1.6014 -2.2591 -0.5769
   73MOL0     H 9819   4.306   8.790   0.000  0.4512 -0.3035 -0.3743
   73MOL0     H 9820   4.290   8.872   0.159  1.4553  1.7483 -2.3415
   73MOL0     H 9821   4.443   8.703   0.252  1.1555 -0.4806  0.0910
   73MOL0     H 9822   4.440   8.610   0.102 -0.5210 -0.6060  1.9849
   73MOL0     H 9823   4.550   8.821  -0.018  0.2532  0.5648  0.5932
   73MOL0     H 9824   4.556   8.907   0.129 -2.6539  0.6789 -1.0461
   73MOL0     H 9825   4.701   8.634   0.086  0.4855 -0.8719  1.8536
   73MOL0     H 9826   4.676   8.734   0.232 -1.4993  2.4046 -0.6335
   73MOL0     H 9827   4.913   8.768   0.129  1.0187  2.4909 -0.1526
   73MOL0     H 9828   4.826   8.907   0.146  1.7236  0.3417 -2.1767
   73MOL0     H 9829   4.864   8.734  -0.107 -1.0134  0.3234 -0.6526
   73MOL0     H 9830   4.749   8.860  -0.108 -0.5960 -0.7245 -0.1101
   73MOL0     H 9831   4.930   9.016  -0.017 -2.1787 -0.3787 -0.0227
   73MOL0     H 9832   4.933   8.970  -0.189  1.3267 -1.9316 -0.4460
   73MOL0     H 9833   5.117   8.828   0.011  3.3352  0.2413 -0.8171
   73MOL0     H 9834   5.106   8.811  -0.158 -1.8847 -1.1714 -1.2162
   73MOL0     H 9835   4.211   8.733   0.387 -0.5311 -1.8825  2.0348
   73MOL0     H 9836   4.030   8.790   0.536 -0.1332  0.1062 -0.9047
   73MOL0     H 9837   3.532   8.896   0.407  0.4248 -0.0876 -0.4682
   73MOL0     H 9838   3.280   8.902   0.445  1.2124  1.4354  1.2706
   73MOL0     H 9839   1.380   9.142   0.846 -0.9028  0.9661  1.0898
   73MOL0     H 9840   1.159   9.213   0.905 -3.2546 -0.8676  0.7088
   73MOL0     H 9841   0.807   9.432   1.075  0.2192  0.3468 -1.3660
   73MOL0     H 9842   0.577   9.470   1.066  2.8887  0.7651 -0.9312
   73MOL0     H 9843   0.349   9.474   1.024  2.1290  0.1693  0.4636
   73MOL0     H 9844   0.356   9.426   1.192  2.4588 -2.4496 -1.0215
   73MOL0     H 9845   0.144   9.339   1.195 -0.3830 -1.3411  0.2465
   73MOL0     H 9846   0.148   9.320   1.008  0.6056 -1.5619  0.6336
   73MOL0     H 9847   0.128   9.574   1.000  1.9395  1.6746  2.1097
   73MOL0     H 9848   0.150   9.586   1.169 -0.1292 -0.1800  1.3170
   73MOL0     H 9849  -0.095   9.420   1.069  0.4863 -0.5484  0.0767
   73MOL0     H 9850  -0.063   9.493   1.226  2.9991  2.2252  0.5889
   73MOL0     H 9851  -0.294   9.794   1.059  1.2311  0.9751 -1.3469
   73MOL0     H 9852   0.477   9.052   1.103  0.8542 -2.6030  0.3074
   73MOL0     H 9853   0.791   8.938   1.167 -0.9222 -2.0446  0.3473
   73MOL0     H 9854   0.646   8.891   1.093  1.3101 -1.9417 -1.7408
   73MOL0     H 9855   0.783   8.918   0.988  1.1917 -0.5177  1.2008
   74MOL0     O 9856   5.547  10.136   3.328 -0.5352 -0.2859 -0.0436
   74MOL0     C 9857   5.588  10.098   3.440  1.4794 -0.0831  0.7299
   74MOL0     O 9858   5.689  10.149   3.518  0.0358 -1.1034  0.3638
   74MOL0     C 9859   5.765  10.248   3.458  0.6999 -0.8334 -0.2450
   74MOL0     C 9860   5.900  10.232   3.447  0.0070  0.3953 -0.3682
   74MOL0     C 9861   5.978  10.332   3.387 -1.0043  0.7725  0.6169
   74MOL0     C 9862   5.924  10.449   3.351 -1.4569  0.6302 -0.4293
   74MOL0     O 9863   6.015  10.545   3.300 -0.2824  0.1106 -0.4877
   74MOL0     C 9864   5.970  10.604   3.181  0.2057  0.1673  0.8062
   74MOL0     C 9865   6.073  10.689   3.112  0.6230 -0.5181 -0.5414
   74MOL0     C 9866   6.106  10.808   3.203  0.0356  0.4093  0.1169
   74MOL0     C 9867   6.221  10.884   3.155 -0.3295  0.5784  0.6651
   74MOL0     C 9868   6.350  10.799   3.172 -0.3879 -0.5073 -0.4216
   74MOL0     C 9869   6.480  10.895   3.158 -0.0355  0.4120  0.4548
   74MOL0     C 9870   6.611  10.828   3.171 -0.4064  0.4920  0.2052
   74MOL0     C 9871   6.726  10.938   3.181  1.3543  0.0105 -0.1464
   74MOL0     N 9872   6.847  10.860   3.196  0.5542  1.1747 -0.7328
   74MOL0     C 9873   6.916  10.832   3.313  0.3653  0.0939  0.4143
   74MOL0     C 9874   7.038  10.778   3.256  0.1361 -0.4068 -1.1361
   74MOL0     C 9875   7.146  10.724   3.345 -0.7312 -0.3365 -0.2530
   74MOL0     C 9876   7.209  10.833   3.435  0.3733 -0.3114 -0.3260
   74MOL0     C 9877   7.310  10.921   3.365 -0.3786 -0.4137 -0.2417
   74MOL0     C 9878   7.457  10.867   3.377  0.1321  0.7001  0.3751
   74MOL0     O 9879   7.472  10.770   3.479 -1.1079  0.1878  0.2939
   74MOL0     C 9880   7.601  10.730   3.511  0.0911 -0.6923  0.0759
   74MOL0     C 9881   7.719  10.790   3.465 -0.5644  0.3153  0.5917
   74MOL0     C 9882   7.843  10.742   3.501  0.2115  0.2348 -0.2438
   74MOL0     C 9883   7.848  10.627   3.592 -0.1337 -0.4480  0.5161
   74MOL0     C 9884   7.978  10.584   3.642 -0.2309 -0.2547 -0.7269
   74MOL0     O 9885   8.081  10.652   3.603 -0.4317  0.3736 -0.1997
   74MOL0     C 9886   8.209  10.615   3.649  0.0617 -0.2264  0.2920
   74MOL0     C 9887   8.241  10.640   3.783  0.3489 -0.1788  0.1380
   74MOL0     C 9888   8.378  10.620   3.827 -0.1941  0.6341 -0.3767
   74MOL0     C 9889   8.477  10.590   3.739 -0.3436 -0.6360 -0.4287
   74MOL0     O 9890   8.606  10.577   3.793  0.1266 -0.2806  0.0001
   74MOL0     C 9891   8.715  10.662   3.761  0.9482 -0.2269 -1.0453
   74MOL0     C 9892   8.706  10.798   3.833 -0.1793  0.0276 -0.5116
   74MOL0     C 9893   8.847  10.855   3.818  0.5069  0.1277 -0.4424
   74MOL0     C 9894   8.922  10.893   3.947 -0.1187 -0.3307  0.6245
   74MOL0     C 9895   9.071  10.882   3.936 -1.2975  0.2510 -0.2600
   74MOL0     C 9896   9.136  10.938   4.066 -0.3531 -0.5740 -0.6312
   74MOL0     C 9897   9.287  10.915   4.055 -0.4492 -0.0757  0.2791
   74MOL0     C 9898   9.357  10.958   4.183 -0.0086  0.2886 -0.0116
   74MOL0    Cl 9899   9.296  10.883   4.333 -0.1429 -0.0265 -0.2460
   74MOL0     C 9900   8.453  10.596   3.604 -0.0358  0.2967  0.0468
   74MOL0     C 9901   8.318  10.594   3.560  0.8154  0.4068 -0.2466
   74MOL0     O 9902   7.978  10.482   3.703 -0.5604  0.5089  0.1774
   74MOL0     C 9903   7.731  10.566   3.642  1.3281 -0.4620 -0.3223
   74MOL0     C 9904   7.610  10.627   3.604 -0.1797  0.9960 -0.1559
   74MOL0     N 9905   7.027  10.770   3.117  0.7948  0.5350 -0.0942
   74MOL0     N 9906   6.916  10.820   3.088  0.9661  0.0519  0.6177
   74MOL0     C 9907   5.790  10.470   3.374 -0.4405 -0.0277  0.1291
   74MOL0     C 9908   5.705  10.358   3.411 -0.0799 -0.5312  0.3028
   74MOL0     C 9909   5.482  10.008   3.501  1.3369 -0.0156  0.2413
   74MOL0     C 9910   5.485  10.008   3.644  0.1792 -0.0679  0.4441
   74MOL0     C 9911   5.403   9.907   3.719  0.1239  0.0201  0.0012
   74MOL0     C 9912   5.322   9.813   3.651 -1.3162  0.7317  0.1369
   74MOL0     O 9913   5.266   9.719   3.733  0.0368 -0.3619 -0.2511
   74MOL0     C 9914   5.179   9.623   3.680  0.6704 -0.0506 -0.5505
   74MOL0     C 9915   5.039   9.683   3.664  0.5477 -0.1239  0.1373
   74MOL0     C 9916   4.942   9.561   3.675 -0.6422 -0.1887  0.2796
   74MOL0     C 9917   4.794   9.599   3.649  0.0235  0.5526  0.8246
   74MOL0     C 9918   4.769   9.622   3.508 -0.1942 -0.8574  0.1121
   74MOL0     C 9919   4.761   9.626   3.395 -1.7231  0.1564  0.2690
   74MOL0     C 9920   5.324   9.819   3.504  0.3534 -0.6007 -0.4330
   74MOL0     C 9921   5.404   9.914   3.431 -0.2565 -0.2016 -0.2186
   74MOL0     C 9922   5.435   9.878   3.285  0.5698 -0.6400 -0.1023
   74MOL0     H 9923   5.952  10.144   3.484 -0.6105  1.6244  4.0813
   74MOL0     H 9924   6.082  10.309   3.364 -2.4487 -2.5858 -4.1621
   74MOL0     H 9925   5.939  10.523   3.115  2.9684  0.0919 -0.5348
   74MOL0     H 9926   5.886  10.672   3.198 -0.2836 -0.1230 -0.3223
   74MOL0     H 9927   6.054  10.719   3.008  2.0467  0.3279 -0.5745
   74MOL0     H 9928   6.164  10.629   3.105  2.6378  2.1484  1.1978
   74MOL0     H 9929   6.125  10.779   3.307 -0.0724  1.5067  0.4523
   74MOL0     H 9930   6.019  10.875   3.201 -0.3954 -0.1565 -0.4399
   74MOL0     H 9931   6.214  10.917   3.050  3.6072  2.6788  0.8642
   74MOL0     H 9932   6.223  10.973   3.218  0.6288  1.1182 -0.0891
   74MOL0     H 9933   6.359  10.749   3.269 -0.5839  3.2865  1.7577
   74MOL0     H 9934   6.354  10.726   3.090 -0.8354  1.1360 -1.9641
   74MOL0     H 9935   6.470  10.935   3.056 -1.6451 -3.4021 -1.0843
   74MOL0     H 9936   6.470  10.983   3.222 -0.4719  0.7127 -0.0160
   74MOL0     H 9937   6.631  10.768   3.081 -2.8071  0.2656 -0.2423
   74MOL0     H 9938   6.616  10.765   3.260  0.2320  0.6926  0.3217
   74MOL0     H 9939   6.733  10.993   3.087  0.6805  1.1243  0.4366
   74MOL0     H 9940   6.711  11.004   3.267  2.0381  1.6484 -1.2399
   74MOL0     H 9941   6.884  10.857   3.414  2.4237  1.0430  0.8851
   74MOL0     H 9942   7.095  10.657   3.415 -0.2087  2.8120  3.5009
   74MOL0     H 9943   7.217  10.673   3.281 -0.5866 -0.7892  0.2629
   74MOL0     H 9944   7.132  10.901   3.473 -1.4299 -2.7378  0.6338
   74MOL0     H 9945   7.247  10.784   3.526 -0.0732  0.7596  0.4597
   74MOL0     H 9946   7.312  11.018   3.416  0.7325 -0.5864  0.0592
   74MOL0     H 9947   7.282  10.929   3.259 -0.1491 -1.1110 -0.3596
   74MOL0     H 9948   7.517  10.957   3.393  2.5667 -0.8315  0.4491
   74MOL0     H 9949   7.478  10.823   3.279 -0.1584 -0.1838  0.6957
   74MOL0     H 9950   7.716  10.873   3.395  1.6936 -0.9460 -1.1500
   74MOL0     H 9951   7.936  10.779   3.459  0.8981 -1.2766 -0.1389
   74MOL0     H 9952   8.166  10.679   3.850  1.4701  2.6336 -0.0950
   74MOL0     H 9953   8.415  10.638   3.928 -0.0156  0.9957 -0.5048
   74MOL0     H 9954   8.800  10.601   3.793 -0.2395 -1.6839 -0.5149
   74MOL0     H 9955   8.715  10.686   3.654  0.4616 -1.4780 -1.3422
   74MOL0     H 9956   8.640  10.872   3.788 -0.7986  0.5300  1.1412
   74MOL0     H 9957   8.667  10.795   3.936  0.2247  1.7796 -0.2762
   74MOL0     H 9958   8.913  10.790   3.760 -0.2745 -1.1620  0.0529
   74MOL0     H 9959   8.836  10.941   3.751 -2.4372  0.0086 -0.2390
   74MOL0     H 9960   8.891  10.821   4.024 -1.0365  0.3005  0.8553
   74MOL0     H 9961   8.886  10.994   3.970 -0.3111 -0.4686  0.9348
   74MOL0     H 9962   9.115  10.930   3.849 -0.7940 -0.0907 -0.2021
   74MOL0     H 9963   9.097  10.776   3.922 -1.9186  0.2041 -1.1431
   74MOL0     H 9964   9.122  11.042   4.096 -1.4891 -1.5013  2.4971
   74MOL0     H 9965   9.093  10.890   4.155 -0.6301  0.8282  0.0244
   74MOL0     H 9966   9.319  10.980   3.973 -0.1957 -0.4359  0.0929
   74MOL0     H 9967   9.311  10.812   4.026 -0.4510  0.3765 -1.4415
   74MOL0     H 9968   9.461  10.927   4.176 -0.7197 -2.3101 -0.0648
   74MOL0     H 9969   9.354  11.068   4.186  1.9803  0.3801  0.0623
   74MOL0     H 9970   8.532  10.596   3.530  0.4011  2.3346  0.4569
   74MOL0     H 9971   8.288  10.591   3.455  3.5301 -2.6950 -1.0854
   74MOL0     H 9972   7.741  10.479   3.705 -0.2704 -0.6667 -0.3338
   74MOL0     H 9973   7.514  10.589   3.638 -0.4541 -0.9447 -2.8197
   74MOL0     H 9974   5.735  10.562   3.354 -2.7357 -1.2847  0.3047
   74MOL0     H 9975   5.603  10.377   3.443 -0.1133  1.5232 -0.8501
   74MOL0     H 9976   5.552  10.069   3.704 -1.1782 -0.2855  2.2426
   74MOL0     H 9977   5.424   9.896   3.825  1.9260 -3.5268 -0.5922
   74MOL0     H 9978   5.168   9.545   3.756  1.8106 -0.9021 -1.2339
   74MOL0     H 9979   5.215   9.576   3.589  0.7132 -1.1165  0.0023
   74MOL0     H 9980   5.034   9.738   3.569 -0.7470 -1.9703 -0.9267
   74MOL0     H 9981   5.023   9.750   3.749  0.0161 -0.1191  0.0313
   74MOL0     H 9982   4.952   9.539   3.782 -0.3753  2.8544  0.9767
   74MOL0     H 9983   4.958   9.479   3.604 -1.6151  2.0353 -2.7007
   74MOL0     H 9984   4.736   9.515   3.688 -0.6576 -0.0431 -1.3187
   74MOL0     H 9985   4.769   9.687   3.709  1.2074  0.6161  1.2541
   74MOL0     H 9986   4.745   9.633   3.289 -0.9170  0.7638  0.1725
   74MOL0     H 9987   5.264   9.743   3.455  1.3897 -2.1883  0.6676
   74MOL0     H 9988   5.414   9.961   3.218 -1.1114 -1.1085 -0.1930
   74MOL0     H 9989   5.538   9.840   3.284 -0.0707 -2.5524 -2.1948
   74MOL0     H 9990   5.373   9.796   3.247 -0.6888 -0.4864  1.4968
   75MOL0     O 9991   0.629   8.113   9.099 -0.0837  0.0161 -0.2304
   75MOL0     C 9992   0.564   8.133   9.198 -0.2336  0.5596  0.5203
   75MOL0     O 9993   0.601   8.220   9.290 -0.1452 -0.5973  0.2529
   75MOL0     C 9994   0.737   8.251   9.298 -0.1085  0.0971 -0.6120
   75MOL0     C 9995   0.793   8.196   9.411  0.2181  0.7173 -0.1830
   75MOL0     C 9996   0.927   8.227   9.448  0.1578  1.3550  0.2986
   75MOL0     C 9997   1.006   8.297   9.356  0.0997 -0.1384  0.5467
   75MOL0     O 9998   1.134   8.331   9.384  0.1638 -0.0754 -0.8538
   75MOL0     C 9999   1.230   8.227   9.365  0.4663 -0.1683 -0.6047
   75MOL0     C10000   1.358   8.268   9.443  0.3464  0.6597 -0.3815
   75MOL0     C10001   1.456   8.159   9.469  0.0538 -0.4290 -0.3809
   75MOL0     C10002   1.590   8.219   9.500 -0.0832  0.0250 -0.5180
   75MOL0     C10003   1.704   8.122   9.513 -0.5881  0.3667  0.9322
   75MOL0     C10004   1.824   8.200   9.576 -0.5133  0.0572 -0.7010
   75MOL0     C10005   1.930   8.102   9.626  0.8203 -0.2787  0.3635
   75MOL0     C10006   2.013   8.051   9.505 -0.1302  0.6467 -0.1691
   75MOL0     N10007   2.142   7.980   9.558  0.1152 -0.0351  0.5689
   75MOL0     C10008   2.152   7.872   9.644  0.5644 -0.4384  0.1886
   75MOL0     C10009   2.282   7.849   9.674 -0.8802  0.4371 -0.4345
   75MOL0     C10010   2.329   7.724   9.746 -0.1699  0.5854  0.1146
   75MOL0     C10011   2.465   7.667   9.686 -0.3358 -0.1183  0.7373
   75MOL0     C10012   2.590   7.755   9.729  0.6369  0.5106 -0.4117
   75MOL0     C10013   2.726   7.690   9.708 -0.0263  0.4009  0.6470
   75MOL0     O10014   2.741   7.582   9.797  0.3203 -0.0610 -0.4701
   75MOL0     C10015   2.867   7.544   9.813 -0.3977 -0.7696 -0.3891
   75MOL0     C10016   2.971   7.574   9.736 -0.4215 -0.0773  0.1196
   75MOL0     C10017   3.104   7.534   9.763 -0.0657  0.2684 -0.9281
   75MOL0     C10018   3.133   7.475   9.887  0.7841  0.0825  0.0981
   75MOL0     C10019   3.280   7.459   9.924  0.6001  1.0192  0.8529
   75MOL0     O10020   3.305   7.434  10.057 -0.1063 -0.4842  0.3178
   75MOL0     C10021   3.427   7.403  10.106 -0.4292  0.4624 -0.0280
   75MOL0     C10022   3.431   7.308  10.203  0.5404  0.5650  0.1225
   75MOL0     C10023   3.556   7.262  10.255  0.0467 -0.5849 -0.6581
   75MOL0     C10024   3.680   7.317  10.205 -0.2941  0.1434 -0.1474
   75MOL0     O10025   3.808   7.278  10.245  0.8229 -0.6051 -0.1189
   75MOL0     C10026   3.812   7.150  10.313  0.2288  0.4932 -0.0157
   75MOL0     C10027   3.953   7.105  10.362  0.3759 -0.5572  0.4444
   75MOL0     C10028   4.045   7.039  10.257 -0.0918 -0.0388  0.4446
   75MOL0     C10029   4.067   7.132  10.140 -0.5039 -0.9953  0.3198
   75MOL0     C10030   4.143   7.075  10.028 -0.4254 -0.6293  0.2344
   75MOL0     C10031   4.296   7.081  10.044 -0.0566 -0.0207 -0.4137
   75MOL0     C10032   4.368   7.017   9.917 -0.7404  0.1375 -0.7526
   75MOL0     C10033   4.372   6.866   9.929  0.2834 -0.6751  0.2840
   75MOL0    Cl10034   4.476   6.816  10.058 -0.1991 -0.3952  0.1248
   75MOL0     C10035   3.671   7.420  10.111  0.1229 -0.1904 -0.4433
   75MOL0     C10036   3.548   7.462  10.066  1.1002 -0.8505 -0.2914
   75MOL0     O10037   3.361   7.461   9.835  0.0529 -0.1196 -0.2784
   75MOL0     C10038   3.018   7.445   9.982 -0.5440  0.8104 -0.0156
   75MOL0     C10039   2.892   7.474   9.937  0.6818 -0.1625 -0.2139
   75MOL0     N10040   2.359   7.954   9.612  0.0727  0.2077 -0.0869
   75MOL0     N10041   2.271   8.023   9.539 -1.0269  0.9105 -0.5561
   75MOL0     C10042   0.952   8.343   9.236  0.8556 -0.1269 -0.6525
   75MOL0     C10043   0.815   8.318   9.204 -0.6985 -0.3782 -0.3244
   75MOL0     C10044   0.427   8.077   9.207  0.0941  1.1026 -0.1442
   75MOL0     C10045   0.345   8.130   9.301 -0.4736 -0.8214 -0.5079
   75MOL0     C10046   0.211   8.083   9.315 -0.1358 -1.1060  0.7086
   75MOL0     C10047   0.164   7.977   9.232 -0.4243 -0.1039 -0.2932
   75MOL0     O10048   0.038   7.920   9.225  0.2553 -0.2297  0.0944
   75MOL0     C10049  -0.042   7.958   9.333  0.2159 -0.0314  0.2874
   75MOL0     C10050  -0.170   7.864   9.337 -0.1526  0.0016 -0.0194
   75MOL0     C10051  -0.276   7.905   9.233  0.3561  0.2209  0.2281
   75MOL0     C10052  -0.365   7.780   9.201 -0.3142 -0.1570 -0.4255
   75MOL0     C10053  -0.459   7.732   9.305  0.7764 -0.4006  1.0812
   75MOL0     C10054  -0.521   7.716   9.407 -0.0832 -0.1448  0.7697
   75MOL0     C10055   0.250   7.924   9.137 -0.3626 -0.1511 -0.4469
   75MOL0     C10056   0.376   7.977   9.119  0.5601  0.6643  0.2665
   75MOL0     C10057   0.444   7.910   8.992  0.6009 -0.0938 -0.6569
   75MOL0     H10058   0.727   8.148   9.482 -1.4618  2.6438 -0.3563
   75MOL0     H10059   0.965   8.199   9.545  0.0585 -0.2497 -0.0882
   75MOL0     H10060   1.184   8.134   9.399 -3.3559  0.8579 -2.4270
   75MOL0     H10061   1.261   8.209   9.261  0.0061 -0.1859 -0.7421
   75MOL0     H10062   1.319   8.303   9.539  0.1079 -1.0467  0.1851
   75MOL0     H10063   1.400   8.354   9.390  1.2919  1.6515  1.8409
   75MOL0     H10064   1.474   8.113   9.372  0.4339 -0.9244 -0.0798
   75MOL0     H10065   1.413   8.092   9.544 -2.4477  0.9151 -0.5283
   75MOL0     H10066   1.603   8.299   9.427 -0.7531  1.3501  0.7609
   75MOL0     H10067   1.584   8.281   9.590  2.0941  1.7988 -1.5012
   75MOL0     H10068   1.658   8.043   9.574 -3.6346  2.5977  1.7869
   75MOL0     H10069   1.734   8.082   9.416 -0.4394 -0.3544  1.2677
   75MOL0     H10070   1.878   8.273   9.515  4.0683 -0.2183  2.4515
   75MOL0     H10071   1.791   8.249   9.668  0.4967 -1.8456  0.7751
   75MOL0     H10072   1.879   8.021   9.680 -2.6375  1.0098 -0.6977
   75MOL0     H10073   1.983   8.171   9.692 -2.1990  4.3464 -1.5860
   75MOL0     H10074   1.952   7.977   9.453 -1.2973  0.8355  0.8818
   75MOL0     H10075   2.037   8.137   9.442 -1.5719  1.6002  0.5272
   75MOL0     H10076   2.064   7.815   9.671 -0.8596  2.4900  2.3255
   75MOL0     H10077   2.344   7.738   9.854  0.9507 -0.9104  0.1918
   75MOL0     H10078   2.258   7.643   9.730  2.9746 -2.0645 -1.9259
   75MOL0     H10079   2.481   7.567   9.726 -0.4857 -0.4239  0.0535
   75MOL0     H10080   2.458   7.671   9.577 -0.0520 -1.0007  0.6767
   75MOL0     H10081   2.584   7.786   9.834 -0.3534 -2.2728  0.4326
   75MOL0     H10082   2.577   7.848   9.672 -3.0871 -1.4749 -3.2375
   75MOL0     H10083   2.795   7.771   9.734 -2.1265  1.6496  2.7573
   75MOL0     H10084   2.736   7.652   9.606 -3.0621 -3.0677  1.4348
   75MOL0     H10085   2.957   7.633   9.646  1.2389  1.0613  0.5693
   75MOL0     H10086   3.182   7.556   9.691 -0.7624  0.0439 -1.7670
   75MOL0     H10087   3.342   7.268  10.250  0.7616  1.3925  1.3185
   75MOL0     H10088   3.555   7.205  10.348 -2.2826 -0.5075 -0.5655
   75MOL0     H10089   3.749   7.170  10.400  1.2738  1.5879  0.5075
   75MOL0     H10090   3.772   7.071  10.249  0.5663  0.1370  0.2084
   75MOL0     H10091   4.004   7.186  10.414  0.4759 -0.4865  0.2400
   75MOL0     H10092   3.925   7.030  10.436 -0.0170 -0.9545 -0.0910
   75MOL0     H10093   4.143   7.007  10.293  1.3454  1.2883 -1.9997
   75MOL0     H10094   3.993   6.957  10.207  1.4602 -0.3138 -0.8120
   75MOL0     H10095   4.107   7.225  10.180 -1.9133  0.0769 -0.6557
   75MOL0     H10096   3.971   7.163  10.096 -0.0157 -1.1455 -0.8866
   75MOL0     H10097   4.124   7.129   9.934  0.7675  1.1856  0.9695
   75MOL0     H10098   4.114   6.970  10.021 -3.2457  0.1917 -1.9454
   75MOL0     H10099   4.331   7.184  10.049  0.1037  0.1609 -3.4572
   75MOL0     H10100   4.324   7.032  10.138  0.7690 -2.1033 -1.6513
   75MOL0     H10101   4.469   7.059   9.906 -0.1050 -1.2450 -0.4190
   75MOL0     H10102   4.312   7.043   9.826 -1.5248  1.8854  0.1696
   75MOL0     H10103   4.273   6.824   9.951  0.4305 -1.0970  0.1366
   75MOL0     H10104   4.401   6.823   9.833  0.7155  1.7995 -0.7640
   75MOL0     H10105   3.752   7.483  10.074 -1.7244  2.1958 -0.7123
   75MOL0     H10106   3.548   7.539   9.990 -3.3085  2.0875  2.2030
   75MOL0     H10107   3.030   7.397  10.079 -3.1377  0.8413  0.4005
   75MOL0     H10108   2.811   7.471  10.009  1.9312  0.5160  1.2919
   75MOL0     H10109   1.022   8.393   9.170  0.5181  1.7437  0.3275
   75MOL0     H10110   0.775   8.347   9.107 -2.0381 -3.8969 -0.9678
   75MOL0     H10111   0.366   8.212   9.369 -3.4193  0.6664 -1.2220
   75MOL0     H10112   0.145   8.118   9.393  0.1257 -3.5412  2.1337
   75MOL0     H10113  -0.072   8.063   9.329  0.0025 -0.1119 -0.3543
   75MOL0     H10114   0.021   7.944   9.421  0.0781 -0.7159  0.2830
   75MOL0     H10115  -0.230   7.871   9.429  0.2411 -1.7485  0.4039
   75MOL0     H10116  -0.135   7.762   9.319  0.5893 -0.5595  3.6854
   75MOL0     H10117  -0.225   7.931   9.139 -1.2830  1.0358 -0.4676
   75MOL0     H10118  -0.345   7.982   9.266  0.9862  1.0868 -0.4194
   75MOL0     H10119  -0.429   7.800   9.115 -1.0845  0.3235  0.2536
   75MOL0     H10120  -0.301   7.700   9.161  2.3883  2.5059 -1.7987
   75MOL0     H10121  -0.597   7.724   9.482  0.2367  1.4433  0.9622
   75MOL0     H10122   0.211   7.843   9.077  0.6280 -0.3000 -0.9174
   75MOL0     H10123   0.426   7.803   9.006 -1.1540 -0.0882 -2.4999
   75MOL0     H10124   0.396   7.938   8.898  0.1783  1.0945 -0.1222
   75MOL0     H10125   0.552   7.923   8.985  0.3615  2.0412 -1.1036
   76MOL0     O10126   7.973   9.278   2.472 -0.1508 -0.0269 -0.4335
   76MOL0     C10127   7.933   9.240   2.361 -0.2803 -1.1217  0.1346
   76MOL0     O10128   8.012   9.219   2.255  0.4686  0.1097 -0.3514
   76MOL0     C10129   8.130   9.275   2.258 -0.1026 -0.3781 -0.5235
   76MOL0     C10130   8.252   9.198   2.255  0.1971  0.0269  0.0834
   76MOL0     C10131   8.376   9.258   2.246 -0.4494  0.3584  0.0273
   76MOL0     C10132   8.390   9.402   2.244  0.2306 -0.0161 -0.1089
   76MOL0     O10133   8.496   9.480   2.234  0.0502 -0.3335 -0.1629
   76MOL0     C10134   8.628   9.426   2.259 -0.8976  0.2126  0.2669
   76MOL0     C10135   8.731   9.532   2.242  0.5818 -0.2476  0.3544
   76MOL0     C10136   8.867   9.496   2.304  0.2699  0.0108 -0.0104
   76MOL0     C10137   8.944   9.623   2.334 -0.4707  0.0157 -0.6769
   76MOL0     C10138   9.098   9.589   2.367 -0.1031  0.0937  0.1477
   76MOL0     C10139   9.182   9.709   2.359  0.0751  0.7771 -0.2294
   76MOL0     C10140   9.321   9.664   2.412 -0.6276  0.3218  0.1224
   76MOL0     C10141   9.432   9.762   2.366  0.7078 -0.1910  0.9952
   76MOL0     N10142   9.557   9.741   2.436  0.5104 -0.6915 -0.9819
   76MOL0     C10143   9.596   9.793   2.558  0.0766 -0.9085 -0.3841
   76MOL0     C10144   9.719   9.749   2.584 -0.6545 -0.6002 -0.3450
   76MOL0     C10145   9.812   9.778   2.705 -0.0007  0.7579 -1.0943
   76MOL0     C10146   9.953   9.821   2.671 -0.5786  0.3108  0.7802
   76MOL0     C10147   9.965   9.954   2.592  0.5949 -0.2475 -0.3536
   76MOL0     C10148  10.109   9.975   2.539  0.5448 -0.2228 -0.6542
   76MOL0     O10149  10.211   9.959   2.638 -0.1576  0.0057  0.2287
   76MOL0     C10150  10.341   9.987   2.600  0.2025 -0.2681 -0.7142
   76MOL0     C10151  10.388  10.071   2.494 -0.5713 -0.1005  0.1612
   76MOL0     C10152  10.529  10.083   2.466  0.2952  0.3525  0.2888
   76MOL0     C10153  10.626  10.013   2.546 -0.0483 -0.4365  0.1355
   76MOL0     C10154  10.764  10.018   2.493 -0.3104 -0.0643 -0.2017
   76MOL0     O10155  10.776  10.090   2.379 -0.0505 -0.9835  0.3838
   76MOL0     C10156  10.899  10.129   2.340  0.3081  0.4558 -0.2271
   76MOL0     C10157  10.997  10.170   2.426  0.0884  0.0163  1.0767
   76MOL0     C10158  11.129  10.203   2.374 -0.0214  0.4468 -0.1758
   76MOL0     C10159  11.161  10.206   2.236 -0.0292  0.4597  0.0457
   76MOL0     O10160  11.279  10.256   2.198  0.5758 -0.3754 -0.5179
   76MOL0     C10161  11.334  10.208   2.079  0.5438 -0.4183 -0.6655
   76MOL0     C10162  11.475  10.267   2.057  0.2293  0.7351  0.5368
   76MOL0     C10163  11.594  10.211   2.136 -0.5206 -0.4750  0.1270
   76MOL0     C10164  11.720  10.229   2.042  0.3417  0.0556  2.0075
   76MOL0     C10165  11.856  10.196   2.112  0.4018 -0.0094  0.0912
   76MOL0     C10166  11.969  10.244   2.027  0.1505  0.4724  0.0564
   76MOL0     C10167  12.107  10.211   2.082  0.3747 -0.7416  0.5168
   76MOL0     C10168  12.162  10.296   2.197 -0.2095 -0.2963  0.6266
   76MOL0    Cl10169  12.330  10.271   2.249 -0.2479 -0.1728  0.2807
   76MOL0     C10170  11.060  10.164   2.149 -0.1285  0.6704  0.3374
   76MOL0     C10171  10.929  10.137   2.202  0.0442  0.2010 -0.6233
   76MOL0     O10172  10.853   9.966   2.562  0.1914 -0.1705  0.7537
   76MOL0     C10173  10.575   9.939   2.656  0.0038  0.1169 -1.2182
   76MOL0     C10174  10.434   9.922   2.676 -0.8033 -0.4064  0.0820
   76MOL0     N10175   9.762   9.683   2.465 -0.1327  0.5539 -0.3060
   76MOL0     N10176   9.666   9.677   2.386 -0.0426 -0.0304  0.6593
   76MOL0     C10177   8.273   9.476   2.242  0.0196 -0.0149  0.4066
   76MOL0     C10178   8.143   9.417   2.255  0.3199  0.3507  0.6545
   76MOL0     C10179   7.785   9.216   2.351  0.5657  0.0379 -0.3582
   76MOL0     C10180   7.734   9.226   2.217 -0.4574  0.1771 -0.4450
   76MOL0     C10181   7.602   9.236   2.188  0.6154 -0.0230 -0.7909
   76MOL0     C10182   7.507   9.237   2.288  0.1538  0.1784 -0.0320
   76MOL0     O10183   7.381   9.271   2.248  0.2248  0.1267 -0.4761
   76MOL0     C10184   7.270   9.289   2.336  0.1078  0.5343  0.1828
   76MOL0     C10185   7.179   9.168   2.326  0.0437  0.9373  0.5333
   76MOL0     C10186   7.245   9.047   2.385 -1.1797 -0.1529 -0.3764
   76MOL0     C10187   7.168   8.914   2.372  0.8434  0.0557  0.0047
   76MOL0     C10188   7.088   8.902   2.251 -0.7198  0.9105  0.5165
   76MOL0     C10189   7.021   8.897   2.148 -0.0538 -0.3503 -0.3161
   76MOL0     C10190   7.551   9.220   2.421 -0.1614  0.2772  0.0374
   76MOL0     C10191   7.690   9.205   2.454  0.3010 -0.5784 -0.9047
   76MOL0     C10192   7.720   9.190   2.601 -0.5114  0.4344  0.2033
   76MOL0     H10193   8.236   9.091   2.255  1.4790 -0.3940  5.0385
   76MOL0     H10194   8.466   9.199   2.240 -0.0249  1.0608 -0.9028
   76MOL0     H10195   8.627   9.379   2.357 -0.7455 -2.0240 -0.7369
   76MOL0     H10196   8.651   9.344   2.190  0.5928 -2.0820  3.2886
   76MOL0     H10197   8.689   9.621   2.290 -1.1364 -0.3439 -0.8784
   76MOL0     H10198   8.742   9.545   2.134  0.0354  0.1634  0.3429
   76MOL0     H10199   8.925   9.446   2.226  1.9407 -0.2422  1.3331
   76MOL0     H10200   8.852   9.425   2.386  0.0670 -1.1898 -1.0680
   76MOL0     H10201   8.946   9.684   2.243  1.5074 -1.1697 -1.4971
   76MOL0     H10202   8.899   9.686   2.411  0.0128 -1.9182  1.2893
   76MOL0     H10203   9.117   9.552   2.468  2.2772 -0.8577 -0.5642
   76MOL0     H10204   9.124   9.506   2.299 -3.1002 -1.2577  0.4723
   76MOL0     H10205   9.190   9.740   2.255 -0.5562 -1.5918 -1.0395
   76MOL0     H10206   9.140   9.782   2.429 -1.2673 -1.6674  1.6694
   76MOL0     H10207   9.346   9.563   2.379  1.2422  0.3409  1.3366
   76MOL0     H10208   9.317   9.669   2.521  0.4991 -2.6556  0.3861
   76MOL0     H10209   9.448   9.745   2.259  3.1057 -0.2186  1.3140
   76MOL0     H10210   9.399   9.865   2.387  1.3182  0.1152  0.4932
   76MOL0     H10211   9.528   9.857   2.612 -0.8908 -0.8794 -1.5887
   76MOL0     H10212   9.768   9.860   2.763 -0.1500 -0.5360  0.7061
   76MOL0     H10213   9.824   9.685   2.762  1.7747  1.2470 -0.5959
   76MOL0     H10214  10.012   9.831   2.763 -0.2476 -1.0252  0.7321
   76MOL0     H10215   9.991   9.748   2.599 -3.4522  1.9900 -2.7585
   76MOL0     H10216   9.956  10.042   2.656  2.4994 -0.3245  0.0809
   76MOL0     H10217   9.891   9.963   2.512  0.2916 -2.9449 -0.4744
   76MOL0     H10218  10.115  10.078   2.503 -2.8630  0.5089  0.5210
   76MOL0     H10219  10.119   9.901   2.459  0.4892  1.1575 -1.9868
   76MOL0     H10220  10.322  10.121   2.423  1.7508  0.2677 -1.8588
   76MOL0     H10221  10.562  10.144   2.382 -1.0156 -0.6262 -0.9916
   76MOL0     H10222  10.981  10.177   2.533 -0.4208 -2.8134  1.2611
   76MOL0     H10223  11.211  10.240   2.435  1.6147  1.6300 -2.9216
   76MOL0     H10224  11.345  10.100   2.089  0.6105 -0.2176  2.3678
   76MOL0     H10225  11.270  10.241   1.996  1.0655  3.4027  0.2696
   76MOL0     H10226  11.489  10.257   1.949 -2.4582 -2.5070  0.3219
   76MOL0     H10227  11.473  10.375   2.074 -0.3016  0.7671  0.3052
   76MOL0     H10228  11.606  10.277   2.223  0.5387  0.7897 -0.9594
   76MOL0     H10229  11.585  10.105   2.162  2.2835 -0.8430 -0.0911
   76MOL0     H10230  11.725  10.334   2.011  0.7272 -0.9487 -1.8355
   76MOL0     H10231  11.712  10.173   1.948  2.1423  1.6340  0.8333
   76MOL0     H10232  11.862  10.089   2.138  0.4946  0.0041  0.1258
   76MOL0     H10233  11.870  10.249   2.206  1.0883  0.8563 -0.4845
   76MOL0     H10234  11.953  10.197   1.929  1.2951  2.0155 -0.9246
   76MOL0     H10235  11.972  10.352   2.011  0.0291  0.2270 -1.9603
   76MOL0     H10236  12.172  10.229   1.995 -0.8853 -2.6166 -0.8923
   76MOL0     H10237  12.103  10.104   2.103 -3.1995 -0.5311  1.5343
   76MOL0     H10238  12.144  10.399   2.165 -1.0686 -0.1580  1.4868
   76MOL0     H10239  12.099  10.287   2.287  1.2930  1.2255  1.9073
   76MOL0     H10240  11.087  10.164   2.044 -0.2802  2.3859  0.2642
   76MOL0     H10241  10.855  10.112   2.126 -3.0759  1.8616  1.6157
   76MOL0     H10242  10.652   9.894   2.718 -0.5089 -0.2104 -0.8058
   76MOL0     H10243  10.395   9.864   2.759  0.9391 -1.1734  0.4129
   76MOL0     H10244   8.276   9.584   2.248  0.1210 -0.0153  0.3558
   76MOL0     H10245   8.050   9.472   2.247 -0.3592 -1.0328 -3.6576
   76MOL0     H10246   7.808   9.237   2.138  0.1842 -0.8306 -0.0029
   76MOL0     H10247   7.566   9.249   2.087  0.8769 -0.2091 -0.9067
   76MOL0     H10248   7.218   9.383   2.316  1.1120  0.6949 -2.0307
   76MOL0     H10249   7.299   9.302   2.440  0.4710  1.3375 -0.0080
   76MOL0     H10250   7.138   9.167   2.225 -1.6437  2.1073  1.1527
   76MOL0     H10251   7.085   9.189   2.379 -0.3856 -1.0986  0.6697
   76MOL0     H10252   7.259   9.053   2.494 -1.4884 -1.6626 -0.2365
   76MOL0     H10253   7.343   9.027   2.341 -0.0571  0.4364  1.6763
   76MOL0     H10254   7.231   8.826   2.388 -1.2947 -1.6299 -0.3729
   76MOL0     H10255   7.097   8.910   2.455  0.6475  2.6261  0.0448
   76MOL0     H10256   6.946   8.911   2.073  2.1897 -0.4999 -2.7094
   76MOL0     H10257   7.479   9.198   2.499  0.3389 -2.0334 -0.0644
   76MOL0     H10258   7.713   9.289   2.647  0.4420  0.6445 -0.0834
   76MOL0     H10259   7.653   9.123   2.655  1.8003 -1.2761  1.1257
   76MOL0     H10260   7.820   9.149   2.620 -0.8998 -0.4936  0.3069
   77MOL0     O10261   3.448   8.485   2.676  0.0805  0.0101 -0.0288
   77MOL0     C10262   3.449   8.379   2.742 -0.4734  0.3437  0.9289
   77MOL0     O10263   3.561   8.303   2.763 -0.1155  0.2207  0.2740
   77MOL0     C10264   3.681   8.346   2.712 -0.1318 -0.4016  0.2622
   77MOL0     C10265   3.693   8.394   2.581  0.3985  0.4411  0.7030
   77MOL0     C10266   3.819   8.419   2.540  0.6366 -0.0566  0.8356
   77MOL0     C10267   3.936   8.395   2.615 -0.2027 -0.5093 -0.1347
   77MOL0     O10268   4.064   8.407   2.571 -0.2040 -0.0693  0.2821
   77MOL0     C10269   4.087   8.503   2.467 -0.4046  0.4873 -0.4621
   77MOL0     C10270   4.115   8.418   2.346 -0.6840  0.2222  0.7585
   77MOL0     C10271   4.243   8.324   2.361 -0.2158 -0.2382 -0.4291
   77MOL0     C10272   4.295   8.275   2.224 -0.3552 -0.2091 -0.3033
   77MOL0     C10273   4.436   8.215   2.246 -0.0584  0.6902  0.3276
   77MOL0     C10274   4.485   8.168   2.112  0.0541 -0.1064  0.1371
   77MOL0     C10275   4.594   8.057   2.118  0.2782 -0.0202  0.1593
   77MOL0     C10276   4.709   8.092   2.214 -0.7290  0.9604  0.1073
   77MOL0     N10277   4.816   7.989   2.220  0.4635  0.0056  0.5881
   77MOL0     C10278   4.880   7.944   2.108  0.2903  0.0703  0.0838
   77MOL0     C10279   4.984   7.877   2.160 -0.9560  1.0503 -0.0045
   77MOL0     C10280   5.094   7.798   2.093 -0.6962 -0.4082 -0.4354
   77MOL0     C10281   5.223   7.778   2.190  0.3067 -0.0920 -0.3701
   77MOL0     C10282   5.327   7.715   2.102  0.0951  0.2065 -0.3169
   77MOL0     C10283   5.453   7.697   2.186  0.4883  0.3580  0.4143
   77MOL0     O10284   5.553   7.621   2.120  0.3810  0.1909 -0.2440
   77MOL0     C10285   5.646   7.573   2.205 -0.2145  0.0061 -0.3715
   77MOL0     C10286   5.716   7.462   2.164 -0.1993  0.9016 -0.1147
   77MOL0     C10287   5.824   7.406   2.230 -0.2260  0.2099  0.0478
   77MOL0     C10288   5.854   7.447   2.360  0.0270  0.7118  0.0410
   77MOL0     C10289   5.965   7.395   2.446 -0.1226  0.0207 -0.3773
   77MOL0     O10290   6.057   7.306   2.386 -0.0262 -0.6321  0.0899
   77MOL0     C10291   6.157   7.259   2.464  0.3096 -0.0019 -0.1066
   77MOL0     C10292   6.263   7.340   2.499 -0.6719  0.5117  0.1828
   77MOL0     C10293   6.374   7.300   2.575  0.3739  0.0721  0.2049
   77MOL0     C10294   6.379   7.164   2.615 -0.3721  0.1756 -0.3857
   77MOL0     O10295   6.489   7.102   2.683  0.4948 -0.9355 -0.2665
   77MOL0     C10296   6.572   7.176   2.783  0.3842  0.0274  0.3151
   77MOL0     C10297   6.671   7.073   2.829  0.4363  0.3958  0.2746
   77MOL0     C10298   6.619   6.967   2.929 -0.1937  1.1567 -0.6542
   77MOL0     C10299   6.630   6.821   2.863 -0.2147  0.1118 -0.1275
   77MOL0     C10300   6.603   6.718   2.970  0.2315 -1.1754  0.1460
   77MOL0     C10301   6.637   6.574   2.937 -0.9475 -0.5996 -0.4334
   77MOL0     C10302   6.544   6.521   2.828  0.3767  0.5516 -0.5079
   77MOL0     C10303   6.535   6.370   2.838 -0.4998  0.2656 -0.7899
   77MOL0    Cl10304   6.700   6.301   2.816 -0.3355  0.0491  0.3156
   77MOL0     C10305   6.276   7.077   2.573  0.4534 -0.3510  0.2648
   77MOL0     C10306   6.171   7.125   2.501  1.0349 -0.0870  0.1422
   77MOL0     O10307   5.964   7.432   2.565 -0.2934 -0.0433  0.8792
   77MOL0     C10308   5.769   7.546   2.413 -0.6151 -0.4858  0.7568
   77MOL0     C10309   5.679   7.620   2.334  0.0845  0.1061 -0.0588
   77MOL0     N10310   4.989   7.893   2.292  0.5300  0.1574 -0.3888
   77MOL0     N10311   4.887   7.957   2.333 -1.3204 -0.1687  0.6132
   77MOL0     C10312   3.921   8.346   2.747  0.9693  0.5179  0.3087
   77MOL0     C10313   3.789   8.319   2.789 -0.9604  0.7147 -0.6200
   77MOL0     C10314   3.331   8.311   2.786 -0.2502  0.1009  1.0070
   77MOL0     C10315   3.324   8.171   2.783  0.6527 -1.0259 -0.9564
   77MOL0     C10316   3.217   8.095   2.823 -0.1181  0.6979 -0.0745
   77MOL0     C10317   3.107   8.159   2.866 -0.1115 -0.0528 -0.1768
   77MOL0     O10318   3.002   8.104   2.932  0.2459 -0.3350  0.1741
   77MOL0     C10319   2.970   7.968   2.913  0.1398  0.5479  0.3501
   77MOL0     C10320   2.868   7.936   3.016 -0.1305 -0.5672  0.7848
   77MOL0     C10321   2.813   7.790   2.991 -0.0125 -0.0085  0.0588
   77MOL0     C10322   2.708   7.768   3.097 -0.0316 -0.8007  0.2177
   77MOL0     C10323   2.668   7.625   3.110 -0.2464 -0.6834 -0.0282
   77MOL0     C10324   2.637   7.509   3.109 -0.3522  0.3411  0.1478
   77MOL0     C10325   3.109   8.301   2.866 -0.6101  0.3991  0.9169
   77MOL0     C10326   3.219   8.380   2.827 -0.1803 -0.0305 -1.0823
   77MOL0     C10327   3.203   8.532   2.842 -0.2061  0.8490  0.2250
   77MOL0     H10328   3.612   8.397   2.510  0.9333 -1.8206 -0.0725
   77MOL0     H10329   3.811   8.430   2.432 -0.1272  0.2256  0.9137
   77MOL0     H10330   4.004   8.568   2.439  0.4658  1.3351 -1.1626
   77MOL0     H10331   4.171   8.569   2.491  1.6315 -2.5681  1.5835
   77MOL0     H10332   4.138   8.482   2.260  0.6509  1.4742  2.0090
   77MOL0     H10333   4.031   8.357   2.310  0.9111  0.8430 -4.9970
   77MOL0     H10334   4.220   8.244   2.433  2.9378 -0.4390  0.4996
   77MOL0     H10335   4.317   8.380   2.419 -0.3130 -0.8273  0.2937
   77MOL0     H10336   4.232   8.198   2.178 -0.0654 -1.1604  0.8591
   77MOL0     H10337   4.297   8.359   2.153 -2.3146  1.2491  1.2366
   77MOL0     H10338   4.500   8.286   2.298  0.4235 -1.3974  2.7920
   77MOL0     H10339   4.436   8.127   2.311 -0.5195  1.4259  1.3367
   77MOL0     H10340   4.397   8.128   2.061 -0.7068 -0.5300  1.7143
   77MOL0     H10341   4.523   8.256   2.059 -0.1109  0.0799  0.3259
   77MOL0     H10342   4.641   8.049   2.020 -1.2935 -0.8028 -0.5722
   77MOL0     H10343   4.542   7.964   2.140  2.5495 -1.4785 -0.2608
   77MOL0     H10344   4.761   8.184   2.186  0.3667  0.2449 -0.3180
   77MOL0     H10345   4.685   8.114   2.318  1.6691 -2.0377  1.4674
   77MOL0     H10346   4.852   7.959   2.004  0.0447  1.2842  0.3091
   77MOL0     H10347   5.052   7.707   2.049 -1.8901  0.0621 -0.3056
   77MOL0     H10348   5.129   7.864   2.013 -1.5937  1.1361  0.3963
   77MOL0     H10349   5.264   7.874   2.225  2.2050 -0.8982 -0.2482
   77MOL0     H10350   5.181   7.714   2.268 -0.9759  0.1230 -0.8580
   77MOL0     H10351   5.336   7.764   2.004  0.8509 -0.2752 -0.4975
   77MOL0     H10352   5.296   7.612   2.084  1.0035  0.0161 -0.8605
   77MOL0     H10353   5.426   7.639   2.275 -2.4708  1.1651  0.1662
   77MOL0     H10354   5.490   7.796   2.215  0.0106  1.6229 -2.9066
   77MOL0     H10355   5.690   7.424   2.065 -1.1948  1.0961  0.0703
   77MOL0     H10356   5.874   7.318   2.190 -1.5384  0.3175 -1.9429
   77MOL0     H10357   6.251   7.444   2.468  0.2073 -0.0976 -2.4845
   77MOL0     H10358   6.458   7.362   2.604 -0.4578  2.4222 -2.0001
   77MOL0     H10359   6.628   7.250   2.725 -1.2119  2.6087  1.8594
   77MOL0     H10360   6.518   7.228   2.863  2.2407  3.0567 -0.2289
   77MOL0     H10361   6.725   7.025   2.747 -2.0687 -2.0131 -0.1227
   77MOL0     H10362   6.747   7.142   2.867 -0.2139  1.2816  0.0113
   77MOL0     H10363   6.682   6.965   3.019 -0.4160  3.2745 -0.4017
   77MOL0     H10364   6.519   6.987   2.968  0.1356 -0.0669  0.9574
   77MOL0     H10365   6.736   6.811   2.836 -0.5746 -0.5597 -1.3476
   77MOL0     H10366   6.563   6.808   2.779 -1.4259 -1.9919  1.0785
   77MOL0     H10367   6.495   6.724   2.988  0.4559 -1.7179  1.9415
   77MOL0     H10368   6.658   6.740   3.063  0.2287  1.2235 -0.3547
   77MOL0     H10369   6.742   6.576   2.906 -0.4999  0.5059  1.0094
   77MOL0     H10370   6.637   6.517   3.031 -2.1029  1.7612  1.0969
   77MOL0     H10371   6.578   6.556   2.730 -0.2275 -0.9540 -1.2856
   77MOL0     H10372   6.439   6.551   2.833 -0.0130 -0.7830 -0.3861
   77MOL0     H10373   6.494   6.330   2.931  0.2744  0.2340 -0.4559
   77MOL0     H10374   6.480   6.340   2.748  1.5972 -0.6686 -1.8292
   77MOL0     H10375   6.296   6.973   2.598  2.9669  0.3767  1.5334
   77MOL0     H10376   6.103   7.048   2.467 -1.1505  0.5477  2.6849
   77MOL0     H10377   5.778   7.565   2.520  0.0166  1.4858  0.3954
   77MOL0     H10378   5.612   7.694   2.378 -1.1122 -0.4992 -0.8160
   77MOL0     H10379   4.014   8.317   2.794  2.1998 -2.0089 -3.2213
   77MOL0     H10380   3.777   8.271   2.886 -2.2065 -0.9693 -1.5613
   77MOL0     H10381   3.411   8.112   2.757 -0.1401 -1.8177 -1.8991
   77MOL0     H10382   3.233   7.988   2.817 -0.2064  0.6761  0.0822
   77MOL0     H10383   3.052   7.896   2.918 -2.2563 -2.2949  1.8581
   77MOL0     H10384   2.932   7.954   2.811  1.8180 -2.9363  0.0655
   77MOL0     H10385   2.782   8.004   3.016 -0.1138 -0.5441  0.6130
   77MOL0     H10386   2.912   7.934   3.116 -2.2788  1.3277  1.8334
   77MOL0     H10387   2.893   7.717   3.002  2.6521  2.9694  2.6010
   77MOL0     H10388   2.763   7.776   2.895  1.7618 -0.2591 -0.8755
   77MOL0     H10389   2.759   7.797   3.189 -0.6274  3.1392 -0.5424
   77MOL0     H10390   2.618   7.830   3.084 -0.4764 -1.3695  0.5184
   77MOL0     H10391   2.619   7.404   3.103 -1.7151  0.6333 -1.7306
   77MOL0     H10392   3.022   8.352   2.906 -1.0314  0.2478  0.2200
   77MOL0     H10393   3.188   8.579   2.745  2.3498  1.6048  0.1319
   77MOL0     H10394   3.114   8.551   2.904  1.1869 -2.9860  3.8930
   77MOL0     H10395   3.293   8.569   2.893  1.2060 -1.9330 -0.0554
   78MOL0     O10396   0.857   6.792   9.073  0.9115 -0.5883 -0.1572
   78MOL0     C10397   0.824   6.905   9.034  0.2840  1.0329 -0.5256
   78MOL0     O10398   0.905   6.992   8.974 -0.8399 -0.8758  0.2252
   78MOL0     C10399   1.036   6.956   8.984 -1.4102  0.3957 -0.7616
   78MOL0     C10400   1.118   6.959   8.874  0.2195  0.5692 -0.0158
   78MOL0     C10401   1.249   6.923   8.873 -0.2423  0.2782 -0.9483
   78MOL0     C10402   1.319   6.879   8.989  0.5712 -0.6461  0.3434
   78MOL0     O10403   1.444   6.823   8.975 -0.4500 -0.2810  0.0481
   78MOL0     C10404   1.492   6.748   9.090  0.2089  0.8348 -0.2979
   78MOL0     C10405   1.627   6.685   9.066 -0.2481  0.5569 -0.2670
   78MOL0     C10406   1.736   6.792   9.054 -0.0658 -0.0280 -0.1031
   78MOL0     C10407   1.797   6.829   9.194  0.2864  0.1245  0.7390
   78MOL0     C10408   1.932   6.768   9.218 -0.2264  0.8038 -0.1835
   78MOL0     C10409   1.975   6.786   9.365 -0.4211  0.1762 -0.0628
   78MOL0     C10410   2.121   6.741   9.386  0.7128  0.6020  0.4199
   78MOL0     C10411   2.206   6.820   9.492 -0.3329  0.3341 -0.0873
   78MOL0     N10412   2.249   6.952   9.444  0.2839 -0.3425  0.2712
   78MOL0     C10413   2.374   6.994   9.419  0.1969  0.3703 -0.5609
   78MOL0     C10414   2.377   7.124   9.419 -0.9879 -0.1917  0.5732
   78MOL0     C10415   2.495   7.218   9.410  0.2192 -0.2360  0.7507
   78MOL0     C10416   2.538   7.271   9.544  0.0246  0.3458 -0.2680
   78MOL0     C10417   2.636   7.393   9.524  0.4993  0.3620  0.8718
   78MOL0     C10418   2.763   7.354   9.455 -1.0751  0.2693 -0.7023
   78MOL0     O10419   2.824   7.255   9.544 -0.7418 -0.5993  0.3693
   78MOL0     C10420   2.961   7.241   9.547 -0.2105  0.2240  0.8070
   78MOL0     C10421   3.013   7.170   9.656 -0.8661 -0.0182 -0.7862
   78MOL0     C10422   3.152   7.162   9.676  0.1579  0.8105  0.2274
   78MOL0     C10423   3.242   7.222   9.584  0.4129 -0.4446 -0.1874
   78MOL0     C10424   3.394   7.215   9.609  0.4139 -0.5553  1.2939
   78MOL0     O10425   3.458   7.310   9.546  0.4149 -0.2630  0.1374
   78MOL0     C10426   3.588   7.312   9.570 -0.1587  0.3472 -0.1944
   78MOL0     C10427   3.667   7.310   9.456 -0.2460 -0.7555  0.4515
   78MOL0     C10428   3.808   7.320   9.473 -0.6202  0.9679 -0.8291
   78MOL0     C10429   3.867   7.321   9.605  0.4951 -0.1234 -0.6453
   78MOL0     O10430   4.000   7.304   9.628 -0.7926  0.0463  0.3051
   78MOL0     C10431   4.039   7.162   9.624 -0.4470  0.1152  0.3576
   78MOL0     C10432   4.149   7.142   9.519  0.0871 -0.4027  0.3929
   78MOL0     C10433   4.202   7.004   9.509  0.0611 -0.4279  0.1219
   78MOL0     C10434   4.299   6.985   9.386 -0.0814 -1.0097 -0.5633
   78MOL0     C10435   4.356   6.843   9.381 -0.8988 -0.4418  0.8767
   78MOL0     C10436   4.452   6.806   9.262  0.3448 -0.4935 -0.3235
   78MOL0     C10437   4.390   6.797   9.124 -0.4000  0.6170 -0.1073
   78MOL0     C10438   4.496   6.760   9.026 -1.3584  0.0473  0.3749
   78MOL0    Cl10439   4.459   6.802   8.856 -0.0002 -0.1528  0.2711
   78MOL0     C10440   3.783   7.315   9.715 -0.1223 -0.1161 -0.7019
   78MOL0     C10441   3.649   7.317   9.697  0.1233  0.1981  0.4415
   78MOL0     O10442   3.438   7.121   9.671  0.4961  0.3394 -0.0800
   78MOL0     C10443   3.188   7.286   9.472  0.4672  0.0873 -0.4911
   78MOL0     C10444   3.051   7.299   9.455 -0.2701  0.1948 -0.1423
   78MOL0     N10445   2.246   7.167   9.425  0.5926 -0.0954 -0.2111
   78MOL0     N10446   2.169   7.062   9.441  0.0081 -0.6553  0.1627
   78MOL0     C10447   1.240   6.901   9.107 -0.6701 -0.5345 -0.5426
   78MOL0     C10448   1.102   6.933   9.113 -0.0452 -0.1455 -0.1258
   78MOL0     C10449   0.681   6.939   9.023 -0.6643 -0.2748 -0.4496
   78MOL0     C10450   0.624   6.946   8.895  0.6684  0.8351  1.0712
   78MOL0     C10451   0.481   6.963   8.884 -0.2372  0.0930 -0.9764
   78MOL0     C10452   0.404   6.990   8.995 -0.3240 -0.6128 -1.3889
   78MOL0     O10453   0.271   6.989   8.972 -0.0467 -0.0976 -1.2997
   78MOL0     C10454   0.182   7.050   9.077  0.4626  0.4129  0.0827
   78MOL0     C10455   0.052   7.081   9.020  0.8189  0.2673  0.0820
   78MOL0     C10456  -0.042   6.964   8.987  0.0786  0.3505 -0.0197
   78MOL0     C10457  -0.180   7.008   8.940  0.1700 -0.0565  0.6239
   78MOL0     C10458  -0.275   6.898   8.930  0.3378  0.7893 -0.7894
   78MOL0     C10459  -0.348   6.800   8.914  0.3611  0.0676  0.4897
   78MOL0     C10460   0.473   7.006   9.126 -0.0551 -0.1611  0.2281
   78MOL0     C10461   0.608   6.964   9.143 -0.7632 -0.3015 -0.5084
   78MOL0     C10462   0.670   6.961   9.273  0.1254  0.4650 -0.0263
   78MOL0     H10463   1.070   6.979   8.779  0.8959  3.3433  0.1363
   78MOL0     H10464   1.307   6.912   8.782  2.7432 -1.4274  0.9794
   78MOL0     H10465   1.494   6.811   9.179 -0.3553 -0.7312  0.8907
   78MOL0     H10466   1.421   6.668   9.117 -0.6243  2.0432  1.2549
   78MOL0     H10467   1.615   6.630   8.972 -0.8390 -2.5871  1.5121
   78MOL0     H10468   1.639   6.615   9.149  1.2212 -1.2515 -1.9052
   78MOL0     H10469   1.690   6.875   8.999 -2.6264 -0.4185  1.2945
   78MOL0     H10470   1.816   6.742   8.998 -0.9308 -0.6119 -0.8511
   78MOL0     H10471   1.803   6.938   9.197 -1.7324  0.4315 -2.1577
   78MOL0     H10472   1.726   6.811   9.276  0.3602  4.6858  2.0902
   78MOL0     H10473   1.939   6.663   9.186 -0.5228  0.7014  0.0884
   78MOL0     H10474   2.002   6.816   9.148  1.8383 -2.4927 -0.6312
   78MOL0     H10475   1.967   6.890   9.397  3.6987  0.8306 -0.5471
   78MOL0     H10476   1.905   6.732   9.430  0.1061 -0.5337 -0.0776
   78MOL0     H10477   2.184   6.737   9.297 -0.1888  1.2333 -0.2598
   78MOL0     H10478   2.113   6.640   9.429  0.6779 -0.1259 -1.2348
   78MOL0     H10479   2.140   6.845   9.576 -2.5460  3.5270 -2.5168
   78MOL0     H10480   2.290   6.754   9.514  1.8711  2.2012 -2.3013
   78MOL0     H10481   2.460   6.929   9.415  1.5599  2.0002  0.7890
   78MOL0     H10482   2.585   7.183   9.357  0.1361  1.4145 -0.5592
   78MOL0     H10483   2.472   7.306   9.349 -0.4965 -1.0512 -0.1899
   78MOL0     H10484   2.448   7.298   9.600 -0.5246 -2.1556  0.1461
   78MOL0     H10485   2.588   7.188   9.594 -0.5531 -1.6253 -2.7982
   78MOL0     H10486   2.672   7.437   9.617 -1.2796 -0.1229  1.8346
   78MOL0     H10487   2.594   7.474   9.464 -2.1520 -2.3526 -1.2310
   78MOL0     H10488   2.829   7.441   9.450 -0.8964  0.1103 -1.2186
   78MOL0     H10489   2.743   7.311   9.357 -0.5108 -0.3507 -0.5580
   78MOL0     H10490   2.941   7.115   9.716  2.3375 -3.2272  0.4938
   78MOL0     H10491   3.177   7.097   9.759  1.4769  1.3564  0.2770
   78MOL0     H10492   3.620   7.317   9.358  2.2188  1.2116 -0.7137
   78MOL0     H10493   3.868   7.315   9.383  1.6382  0.3467  0.6344
   78MOL0     H10494   4.084   7.138   9.720  2.5818  1.2605 -0.6614
   78MOL0     H10495   3.962   7.088   9.601  1.7096 -2.1319 -0.1482
   78MOL0     H10496   4.111   7.164   9.420  1.7190 -1.7869 -0.6044
   78MOL0     H10497   4.236   7.204   9.543  0.9392 -1.1516 -0.6880
   78MOL0     H10498   4.235   6.973   9.609 -3.2191 -1.2856  1.0625
   78MOL0     H10499   4.116   6.938   9.495 -0.7995  0.3798  1.4178
   78MOL0     H10500   4.380   7.056   9.401  0.5957 -1.1424 -3.2302
   78MOL0     H10501   4.246   7.000   9.291 -0.0099  1.1575 -0.3222
   78MOL0     H10502   4.277   6.767   9.379  0.1110 -1.5126 -0.6177
   78MOL0     H10503   4.420   6.840   9.470  2.8407  0.2156 -1.5497
   78MOL0     H10504   4.541   6.870   9.257  0.2890 -0.3692  0.1923
   78MOL0     H10505   4.479   6.702   9.283 -2.6217 -1.6649 -1.6920
   78MOL0     H10506   4.336   6.890   9.102 -1.4804 -0.4382 -2.3097
   78MOL0     H10507   4.318   6.714   9.118  0.7552 -0.4130 -0.0451
   78MOL0     H10508   4.583   6.823   9.051  0.0658 -1.3895 -0.7336
   78MOL0     H10509   4.531   6.657   9.028  1.3778  0.7964 -1.8302
   78MOL0     H10510   3.812   7.304   9.818 -1.4430  0.6530 -0.2129
   78MOL0     H10511   3.579   7.309   9.779  1.2407 -2.2112  1.2301
   78MOL0     H10512   3.253   7.335   9.401  0.1581  1.5451  0.1896
   78MOL0     H10513   3.013   7.361   9.375  1.9691  2.3086  0.3157
   78MOL0     H10514   1.278   6.866   9.203 -2.9629 -1.0352  0.2320
   78MOL0     H10515   1.054   6.945   9.210 -0.9765  1.9398 -0.7796
   78MOL0     H10516   0.677   6.941   8.801  0.0900  3.1078  0.5510
   78MOL0     H10517   0.421   6.943   8.796  1.7701 -0.1121 -2.3839
   78MOL0     H10518   0.226   7.138   9.124 -1.3997  0.3538  2.0612
   78MOL0     H10519   0.157   6.980   9.157 -1.5484 -0.1702 -0.9658
   78MOL0     H10520   0.059   7.131   8.924  0.3921  2.3266  1.0748
   78MOL0     H10521  -0.004   7.144   9.091 -1.7138 -1.7523  0.0492
   78MOL0     H10522  -0.043   6.900   9.075  2.8415  0.3939  0.1287
   78MOL0     H10523   0.002   6.899   8.911 -1.2588  0.4475 -0.9147
   78MOL0     H10524  -0.223   7.086   9.003 -1.2831 -0.8390  0.6407
   78MOL0     H10525  -0.170   7.055   8.841  0.2031 -0.9104  0.2142
   78MOL0     H10526  -0.425   6.726   8.903  0.9592 -0.4527 -0.4028
   78MOL0     H10527   0.423   7.039   9.216  0.1673 -0.7450  0.5700
   78MOL0     H10528   0.594   6.960   9.352  0.8858  2.4268  0.7823
   78MOL0     H10529   0.740   6.878   9.285 -1.0907 -0.7761 -1.2138
   78MOL0     H10530   0.736   7.049   9.277 -0.0054  0.5117  1.8161
   79MOL0     O10531   6.362   7.703   8.519 -0.5892  0.4606 -0.0173
   79MOL0     C10532   6.356   7.753   8.625  0.6012 -0.3157 -0.3436
   79MOL0     O10533   6.240   7.826   8.668  0.0487  0.6149 -0.2608
   79MOL0     C10534   6.121   7.808   8.598  0.2271  0.0611 -0.5872
   79MOL0     C10535   6.069   7.903   8.510  0.8095  0.0234  0.3443
   79MOL0     C10536   5.948   7.882   8.442 -0.5568  0.0134 -0.0793
   79MOL0     C10537   5.866   7.771   8.469  0.0004 -0.4255 -0.2837
   79MOL0     O10538   5.747   7.756   8.413  0.5970 -0.0539  0.1612
   79MOL0     C10539   5.648   7.866   8.423  0.0349 -0.6142  0.3427
   79MOL0     C10540   5.500   7.837   8.431 -0.7220  0.2472 -0.2165
   79MOL0     C10541   5.455   7.730   8.331 -0.6965  0.7442  0.4136
   79MOL0     C10542   5.305   7.712   8.321 -0.2661 -0.0418 -0.2454
   79MOL0     C10543   5.282   7.568   8.275  0.0231  0.0716 -0.3056
   79MOL0     C10544   5.135   7.565   8.219 -0.3758  0.6399  0.1812
   79MOL0     C10545   5.084   7.424   8.198 -0.1175  0.5106 -0.2325
   79MOL0     C10546   4.930   7.422   8.214  0.0219  0.2610 -0.4075
   79MOL0     N10547   4.878   7.291   8.193  0.9153  1.2078  0.4517
   79MOL0     C10548   4.905   7.205   8.085 -0.8703 -0.5989 -0.6451
   79MOL0     C10549   4.810   7.106   8.098  0.4046 -0.2260  0.1842
   79MOL0     C10550   4.805   6.994   8.004 -0.6719  0.1329 -0.3760
   79MOL0     C10551   4.945   6.948   7.949  0.2371  0.2727  0.6143
   79MOL0     C10552   5.058   6.917   8.042  0.0959  0.2304 -0.0095
   79MOL0     C10553   5.025   6.806   8.142 -0.1832 -0.8391 -0.2733
   79MOL0     O10554   5.151   6.779   8.214 -0.2741  0.8209 -0.2256
   79MOL0     C10555   5.194   6.870   8.308 -0.1942  0.2371  0.3299
   79MOL0     C10556   5.318   6.857   8.364 -0.1522  0.9136 -0.7730
   79MOL0     C10557   5.382   6.939   8.460  0.0364  0.7190  0.2006
   79MOL0     C10558   5.312   7.060   8.498 -0.2129  0.8384 -0.0663
   79MOL0     C10559   5.362   7.154   8.602  0.4831 -0.2178  0.1144
   79MOL0     O10560   5.285   7.259   8.627 -0.8230  0.1681 -0.3624
   79MOL0     C10561   5.355   7.358   8.697  0.3333 -0.3503 -0.1682
   79MOL0     C10562   5.465   7.429   8.639 -0.5554 -0.6091  0.4051
   79MOL0     C10563   5.533   7.523   8.721  1.1925 -0.5030  0.3352
   79MOL0     C10564   5.486   7.552   8.849 -0.7740 -0.4316 -0.3581
   79MOL0     O10565   5.546   7.653   8.925  0.1818 -0.1873 -0.0539
   79MOL0     C10566   5.691   7.652   8.930 -0.1502 -0.4598 -0.0478
   79MOL0     C10567   5.738   7.742   9.044 -0.4896 -0.3426  0.1086
   79MOL0     C10568   5.895   7.728   9.061  1.1873 -0.1010  0.1281
   79MOL0     C10569   5.935   7.829   9.171  0.2175 -0.5215 -0.0240
   79MOL0     C10570   5.914   7.785   9.321 -0.4488 -0.2337  0.6342
   79MOL0     C10571   6.003   7.666   9.349  0.1863  0.3065  0.5206
   79MOL0     C10572   6.155   7.695   9.346  0.9864  0.2446  0.6519
   79MOL0     C10573   6.231   7.601   9.439  0.1468 -0.4870  0.2780
   79MOL0    Cl10574   6.196   7.425   9.422 -0.0103  0.4614 -0.0042
   79MOL0     C10575   5.373   7.490   8.898 -0.1338  0.0642  0.2752
   79MOL0     C10576   5.312   7.386   8.824 -0.6684 -0.8820 -0.2242
   79MOL0     O10577   5.471   7.124   8.657  0.6296 -0.3933  0.5164
   79MOL0     C10578   5.184   7.080   8.441  0.1349  0.1770  0.0696
   79MOL0     C10579   5.130   6.989   8.351 -0.3901  0.1422  0.0279
   79MOL0     N10580   4.732   7.121   8.210 -0.7210 -0.6005  0.5024
   79MOL0     N10581   4.761   7.242   8.251 -0.8610 -0.4570 -0.3019
   79MOL0     C10582   5.919   7.682   8.553 -0.0333 -0.1665  0.7437
   79MOL0     C10583   6.044   7.695   8.626  0.9723 -0.4228  0.5111
   79MOL0     C10584   6.476   7.750   8.699  0.5457 -0.1319 -0.3624
   79MOL0     C10585   6.520   7.628   8.762 -0.2528  0.0415  0.3005
   79MOL0     C10586   6.646   7.616   8.823  0.1244  0.4124 -0.4138
   79MOL0     C10587   6.734   7.727   8.828 -0.1006  0.4058  0.1131
   79MOL0     O10588   6.864   7.699   8.880  0.3010 -0.0219 -0.0945
   79MOL0     C10589   6.970   7.787   8.847  0.3455  0.2008  0.2953
   79MOL0     C10590   7.104   7.723   8.870 -0.5005 -0.1209  0.1930
   79MOL0     C10591   7.113   7.618   8.981  0.0231  0.1755  0.9166
   79MOL0     C10592   7.256   7.588   9.019 -0.8031  0.4859 -0.4139
   79MOL0     C10593   7.316   7.686   9.111  0.7700 -0.8676  0.1369
   79MOL0     C10594   7.364   7.769   9.188  0.0622 -1.0281 -0.6552
   79MOL0     C10595   6.694   7.846   8.767  0.5718 -0.3557 -1.1193
   79MOL0     C10596   6.570   7.858   8.691  0.8079  0.2569 -0.0270
   79MOL0     C10597   6.540   7.982   8.614  0.4172 -0.2056  1.0928
   79MOL0     H10598   6.130   7.991   8.490 -0.5918  1.4684  2.0587
   79MOL0     H10599   5.915   7.955   8.368 -0.3399 -0.1285 -0.3172
   79MOL0     H10600   5.683   7.928   8.506  3.5182  1.3428 -2.3019
   79MOL0     H10601   5.659   7.926   8.332  1.3086 -3.0740 -1.2587
   79MOL0     H10602   5.446   7.930   8.413  0.6817  0.9140 -1.1827
   79MOL0     H10603   5.478   7.812   8.536 -0.7897  1.5685  0.1097
   79MOL0     H10604   5.507   7.638   8.362  0.6613 -0.0410 -3.5840
   79MOL0     H10605   5.488   7.751   8.229 -1.3531  2.2798  0.5013
   79MOL0     H10606   5.256   7.745   8.412  1.0645  2.3912 -0.3230
   79MOL0     H10607   5.265   7.775   8.241 -3.2096 -1.4625 -0.0257
   79MOL0     H10608   5.360   7.548   8.201  2.3368 -0.5503  2.1276
   79MOL0     H10609   5.302   7.490   8.349 -1.2443 -0.5304 -0.5779
   79MOL0     H10610   5.071   7.624   8.286  0.0829  0.3092  0.9187
   79MOL0     H10611   5.136   7.626   8.128  0.9733 -0.0319 -0.2651
   79MOL0     H10612   5.135   7.364   8.275  0.4364 -0.6334 -1.4504
   79MOL0     H10613   5.129   7.387   8.106  2.4304 -0.4691  1.2779
   79MOL0     H10614   4.905   7.455   8.315  1.6370  0.2053  0.0484
   79MOL0     H10615   4.881   7.491   8.145 -1.4462 -1.3370 -1.0264
   79MOL0     H10616   4.987   7.217   8.016 -0.1792  1.2357  0.4238
   79MOL0     H10617   4.768   6.908   8.060  1.3277  0.1084  1.0125
   79MOL0     H10618   4.736   7.013   7.921  0.0460 -0.6157 -1.1655
   79MOL0     H10619   4.935   6.861   7.883  2.0272  0.2404  0.3326
   79MOL0     H10620   4.994   7.024   7.887 -0.2325  1.0699  1.1990
   79MOL0     H10621   5.083   7.011   8.091 -0.4511 -0.3160  1.3771
   79MOL0     H10622   5.149   6.880   7.993  0.4455 -0.9458  1.4565
   79MOL0     H10623   4.986   6.721   8.085  1.9652 -1.9153 -0.2304
   79MOL0     H10624   4.942   6.837   8.206 -0.4958  0.9132 -1.4414
   79MOL0     H10625   5.380   6.785   8.311 -3.3960 -2.1933 -0.7101
   79MOL0     H10626   5.481   6.910   8.491 -0.9173 -0.9858  1.8757
   79MOL0     H10627   5.497   7.402   8.539  1.8933 -1.6205  1.3850
   79MOL0     H10628   5.619   7.564   8.669 -0.7283  0.2866 -2.4425
   79MOL0     H10629   5.724   7.548   8.940 -1.8375 -1.0838 -0.6101
   79MOL0     H10630   5.738   7.680   8.836 -0.0373 -2.1430 -0.5366
   79MOL0     H10631   5.717   7.847   9.025 -2.1151 -0.6118  0.2528
   79MOL0     H10632   5.678   7.716   9.132 -1.2248 -1.2623 -0.6369
   79MOL0     H10633   5.931   7.626   9.078  1.6130 -0.2958 -1.6716
   79MOL0     H10634   5.935   7.767   8.967  0.3080  0.5275  0.0062
   79MOL0     H10635   5.879   7.923   9.163 -0.6767 -1.0252  0.2668
   79MOL0     H10636   6.041   7.859   9.163 -0.6004  2.6866 -0.3115
   79MOL0     H10637   5.810   7.764   9.346 -1.1892 -0.1731 -2.0783
   79MOL0     H10638   5.950   7.870   9.380 -0.2511  0.8823 -1.0277
   79MOL0     H10639   5.979   7.631   9.449  0.4703 -0.3136  0.3763
   79MOL0     H10640   5.987   7.580   9.283  1.4061 -0.3886  1.0871
   79MOL0     H10641   6.182   7.791   9.390  1.6054  0.3060  0.1527
   79MOL0     H10642   6.186   7.686   9.242 -2.5205 -3.0190 -0.3241
   79MOL0     H10643   6.336   7.629   9.434 -0.0603  0.3247  0.3630
   79MOL0     H10644   6.210   7.629   9.543  1.7077 -0.3853  0.5860
   79MOL0     H10645   5.325   7.522   8.990 -1.8377  1.1564 -0.9358
   79MOL0     H10646   5.233   7.335   8.879 -0.5089 -1.0161 -0.1176
   79MOL0     H10647   5.114   7.162   8.453  1.7460  1.8542 -1.2193
   79MOL0     H10648   5.033   7.021   8.315 -0.2852 -0.0909 -0.4796
   79MOL0     H10649   5.845   7.603   8.565 -0.7440  0.4915  0.7938
   79MOL0     H10650   6.077   7.617   8.694  0.8152 -0.0484  1.0224
   79MOL0     H10651   6.456   7.542   8.744 -0.6772 -0.6058  4.0459
   79MOL0     H10652   6.657   7.519   8.870 -0.2917 -0.4121 -1.9259
   79MOL0     H10653   6.969   7.874   8.913  1.3956  2.6661 -2.7326
   79MOL0     H10654   6.969   7.819   8.743 -1.8763  0.1771  0.2676
   79MOL0     H10655   7.168   7.807   8.898 -0.4316  0.0035 -0.3338
   79MOL0     H10656   7.143   7.687   8.775 -0.9155  1.6936 -0.7140
   79MOL0     H10657   7.070   7.525   8.942 -0.9584  0.2108  1.8691
   79MOL0     H10658   7.056   7.657   9.066 -1.0195  5.8037 -1.9182
   79MOL0     H10659   7.250   7.486   9.058 -5.5077 -0.7641 -3.5750
   79MOL0     H10660   7.313   7.586   8.926  1.7967  2.0860  1.0340
   79MOL0     H10661   7.399   7.852   9.246 -1.4166 -1.1660  0.5162
   79MOL0     H10662   6.759   7.932   8.782 -0.9034  0.6590 -0.3689
   79MOL0     H10663   6.621   8.055   8.616  0.9981 -0.5375 -2.6344
   79MOL0     H10664   6.520   7.963   8.508  0.6564 -3.5428  1.5523
   79MOL0     H10665   6.449   8.035   8.644  0.2603  0.1445  0.0585
   80MOL0     O10666  10.247   2.107   8.754 -0.2996  0.8333 -0.0009
   80MOL0     C10667  10.328   2.079   8.666  0.2655  0.2457 -0.6998
   80MOL0     O10668  10.317   1.965   8.583 -0.8051  0.7906  0.5696
   80MOL0     C10669  10.222   1.870   8.621  0.3784 -0.2321 -0.0579
   80MOL0     C10670  10.087   1.885   8.597  0.2756  0.0702  0.1802
   80MOL0     C10671   9.992   1.788   8.646  0.2033  1.0825  0.0683
   80MOL0     C10672  10.036   1.665   8.697  0.0450  0.5135 -0.2813
   80MOL0     O10673   9.957   1.561   8.725  0.3582 -0.6077  0.0911
   80MOL0     C10674   9.856   1.576   8.819 -1.0492  0.2742  0.6035
   80MOL0     C10675   9.727   1.519   8.764 -0.3257 -0.1225  0.1443
   80MOL0     C10676   9.674   1.610   8.648 -0.1547  0.6011  0.1027
   80MOL0     C10677   9.565   1.517   8.576 -0.1909 -0.1099 -0.7433
   80MOL0     C10678   9.425   1.553   8.618 -0.0064 -0.0469 -0.1071
   80MOL0     C10679   9.306   1.455   8.575 -0.1571  0.3388 -0.0659
   80MOL0     C10680   9.313   1.426   8.423  0.4268  0.1266 -0.7947
   80MOL0     C10681   9.306   1.554   8.333 -0.2173 -0.0599  0.0955
   80MOL0     N10682   9.181   1.635   8.345  0.5386 -0.1008  0.3394
   80MOL0     C10683   9.063   1.600   8.283 -0.3658 -0.8442  0.4430
   80MOL0     C10684   8.988   1.713   8.280 -0.1896 -0.9527 -0.8215
   80MOL0     C10685   8.859   1.704   8.208  0.4884 -0.2905  0.0387
   80MOL0     C10686   8.848   1.796   8.091  0.4775  0.6734 -0.6249
   80MOL0     C10687   8.960   1.773   7.988  0.1100  0.2227  0.1180
   80MOL0     C10688   8.948   1.627   7.928 -0.0852  0.8117  0.5855
   80MOL0     O10689   9.033   1.533   7.996 -0.4352  0.3299  0.1833
   80MOL0     C10690   9.168   1.530   7.956 -0.4969 -0.0033  0.2497
   80MOL0     C10691   9.242   1.633   7.895 -0.1654  0.4509  0.0276
   80MOL0     C10692   9.380   1.608   7.862  0.2370 -1.1556  0.1759
   80MOL0     C10693   9.441   1.480   7.891  0.4020  0.7190  0.0445
   80MOL0     C10694   9.587   1.466   7.870  1.3159 -0.2383  0.7382
   80MOL0     O10695   9.644   1.352   7.924  0.7099  0.5575  0.4194
   80MOL0     C10696   9.783   1.350   7.915  0.2126 -0.1394 -0.0977
   80MOL0     C10697   9.857   1.328   8.034 -0.6738  0.0793  0.3732
   80MOL0     C10698   9.990   1.312   8.029 -0.3573 -0.1708  0.4812
   80MOL0     C10699  10.066   1.315   7.908  0.0239  0.1443 -0.1319
   80MOL0     O10700  10.202   1.300   7.890 -0.1950  0.3953 -0.6944
   80MOL0     C10701  10.287   1.277   8.002  1.1411  0.6361  0.1177
   80MOL0     C10702  10.437   1.276   7.983  0.4483 -0.5084 -0.0399
   80MOL0     C10703  10.483   1.425   7.943  0.0899  0.3354  0.2847
   80MOL0     C10704  10.628   1.408   7.917 -0.1636  0.1458  0.3978
   80MOL0     C10705  10.694   1.546   7.909  0.3334  0.6839 -0.8740
   80MOL0     C10706  10.829   1.537   7.848  0.0058  0.6778 -0.2364
   80MOL0     C10707  10.900   1.670   7.827  0.7877  0.5796  0.2555
   80MOL0     C10708  11.030   1.672   7.751 -0.6165  0.1235  0.0481
   80MOL0    Cl10709  11.179   1.585   7.812  0.3720  0.2632 -0.1433
   80MOL0     C10710   9.997   1.334   7.782 -0.1515 -1.1353 -0.0660
   80MOL0     C10711   9.855   1.359   7.793  0.5503 -0.1390  0.1068
   80MOL0     O10712   9.644   1.570   7.829 -0.0535  0.0388 -0.8023
   80MOL0     C10713   9.365   1.385   7.945  0.8556 -0.1279  0.5806
   80MOL0     C10714   9.231   1.409   7.975 -0.8672  0.3695 -0.2605
   80MOL0     N10715   9.060   1.817   8.339 -0.3432  0.0950  0.0825
   80MOL0     N10716   9.172   1.769   8.376 -0.1452 -0.0302  0.0298
   80MOL0     C10717  10.179   1.651   8.706  0.5992 -0.4004 -0.2932
   80MOL0     C10718  10.273   1.749   8.664  0.3699  0.1942  0.7896
   80MOL0     C10719  10.444   2.171   8.636  0.2227  0.0527  0.3718
   80MOL0     C10720  10.519   2.139   8.525 -0.5029  0.6744  0.0522
   80MOL0     C10721  10.627   2.208   8.489  0.0594  0.3728  0.3868
   80MOL0     C10722  10.671   2.319   8.562  0.6762  0.7509  0.2735
   80MOL0     O10723  10.786   2.376   8.512  1.1169  0.1591  0.3349
   80MOL0     C10724  10.865   2.471   8.584 -0.4850  0.3945  0.1091
   80MOL0     C10725  10.974   2.530   8.480 -0.6098 -0.3605 -0.0742
   80MOL0     C10726  11.079   2.424   8.444  0.3145 -0.1687  0.3395
   80MOL0     C10727  11.210   2.487   8.400 -0.0888 -0.8433 -0.3028
   80MOL0     C10728  11.193   2.597   8.305 -0.2749 -0.1466 -0.2841
   80MOL0     C10729  11.192   2.683   8.218 -0.2987 -0.0616  0.5363
   80MOL0     C10730  10.599   2.354   8.680  0.0746 -0.1977  0.3832
   80MOL0     C10731  10.487   2.280   8.721  0.9025 -0.1180  1.0319
   80MOL0     C10732  10.420   2.304   8.854  0.0820  0.0066 -0.1074
   80MOL0     H10733  10.051   1.979   8.558 -1.1575 -1.1689 -1.6951
   80MOL0     H10734   9.886   1.809   8.636 -0.2020 -0.7117  0.2426
   80MOL0     H10735   9.876   1.518   8.910 -1.5556 -0.7630  0.0717
   80MOL0     H10736   9.843   1.681   8.848 -0.0670  0.0897  1.7986
   80MOL0     H10737   9.647   1.514   8.839  1.2129  1.8858  2.0154
   80MOL0     H10738   9.757   1.421   8.724 -2.2945 -0.9525  0.5681
   80MOL0     H10739   9.749   1.624   8.571  2.3279 -3.3683  1.4618
   80MOL0     H10740   9.631   1.703   8.687  0.5771  0.3499  1.6150
   80MOL0     H10741   9.580   1.541   8.470  0.7787  1.1829 -0.3399
   80MOL0     H10742   9.580   1.410   8.597 -2.9893 -1.2411 -3.6696
   80MOL0     H10743   9.419   1.544   8.727 -1.0495 -0.4814 -0.1821
   80MOL0     H10744   9.396   1.653   8.585 -2.6588 -0.0470  1.8294
   80MOL0     H10745   9.322   1.360   8.627  1.5175  0.7788  0.2712
   80MOL0     H10746   9.213   1.502   8.607 -1.5775 -1.4573 -1.3271
   80MOL0     H10747   9.218   1.379   8.398 -1.1022  2.1137  0.9182
   80MOL0     H10748   9.389   1.350   8.405  2.0264  1.4006  0.2856
   80MOL0     H10749   9.391   1.617   8.361 -0.2969  0.9112 -1.7174
   80MOL0     H10750   9.315   1.522   8.229 -0.8738 -3.7844  1.0495
   80MOL0     H10751   9.046   1.503   8.236  3.8183 -2.5405  1.9861
   80MOL0     H10752   8.841   1.601   8.176 -2.4663 -0.4137  1.7471
   80MOL0     H10753   8.791   1.732   8.288 -1.4145  0.8158 -1.8694
   80MOL0     H10754   8.749   1.790   8.046  0.1747  0.6515  0.0292
   80MOL0     H10755   8.861   1.900   8.121 -2.0283  1.0537 -0.6149
   80MOL0     H10756   9.061   1.782   8.028 -0.2857 -0.3228  1.2844
   80MOL0     H10757   8.947   1.842   7.904  3.4772 -0.7497 -1.3906
   80MOL0     H10758   8.984   1.633   7.825  0.0696 -1.8456  0.4033
   80MOL0     H10759   8.856   1.569   7.926  2.8697 -4.5379 -0.1582
   80MOL0     H10760   9.200   1.732   7.881  1.4963  1.1334 -0.2909
   80MOL0     H10761   9.438   1.694   7.833  1.0068 -2.6208 -3.0275
   80MOL0     H10762   9.798   1.301   8.120 -0.6638  5.2173  2.3726
   80MOL0     H10763  10.050   1.274   8.112  1.9149 -0.0973 -1.0417
   80MOL0     H10764  10.259   1.353   8.075  1.5185  1.6605 -0.7757
   80MOL0     H10765  10.258   1.178   8.038  0.0327  0.1342 -1.9594
   80MOL0     H10766  10.480   1.245   8.078 -2.0174 -0.4866  1.1666
   80MOL0     H10767  10.463   1.196   7.913  3.4254  0.1092  0.2166
   80MOL0     H10768  10.420   1.456   7.859 -1.0979 -1.2791  0.5157
   80MOL0     H10769  10.473   1.495   8.027  1.9788  0.6034  0.3150
   80MOL0     H10770  10.648   1.360   7.821  0.4779 -1.1995  1.1787
   80MOL0     H10771  10.673   1.345   7.994  0.6096 -1.4071 -1.2581
   80MOL0     H10772  10.716   1.595   8.005 -1.8026  0.1764 -0.0840
   80MOL0     H10773  10.629   1.614   7.854 -0.7506 -0.4748 -1.0640
   80MOL0     H10774  10.900   1.478   7.906  0.3485  2.7165  1.4930
   80MOL0     H10775  10.812   1.490   7.750 -3.7102 -3.9246  2.1666
   80MOL0     H10776  10.916   1.730   7.917 -0.8245  1.0091  0.2958
   80MOL0     H10777  10.823   1.723   7.770 -0.3743  1.3360  2.4033
   80MOL0     H10778  10.998   1.621   7.659 -1.1420 -0.8922  0.7773
   80MOL0     H10779  11.062   1.775   7.737  1.9278 -0.6685 -0.4711
   80MOL0     H10780  10.046   1.330   7.684 -0.4926  1.0558 -0.3669
   80MOL0     H10781   9.794   1.356   7.703  0.3970  0.7609  0.1715
   80MOL0     H10782   9.413   1.288   7.959 -0.1104 -1.0557 -1.9666
   80MOL0     H10783   9.167   1.334   8.021 -1.5756  2.6141  2.7178
   80MOL0     H10784  10.209   1.554   8.742  0.4688 -0.2789  0.1564
   80MOL0     H10785  10.381   1.743   8.674  0.5542  1.1955 -0.3854
   80MOL0     H10786  10.485   2.054   8.467 -0.3142  0.1377  0.7084
   80MOL0     H10787  10.686   2.178   8.403 -3.7431  1.4069 -2.8559
   80MOL0     H10788  10.917   2.423   8.667 -2.2161 -2.3686 -0.2754
   80MOL0     H10789  10.811   2.557   8.623  1.7011  1.6679  0.4642
   80MOL0     H10790  11.024   2.612   8.533 -1.0901 -0.9006  1.2663
   80MOL0     H10791  10.922   2.579   8.397 -0.7256 -0.4850 -0.0749
   80MOL0     H10792  11.037   2.358   8.367  2.3837  0.1810 -1.1879
   80MOL0     H10793  11.097   2.360   8.530  0.9246  0.0128  0.3520
   80MOL0     H10794  11.258   2.532   8.488 -1.3349  1.1711 -0.6009
   80MOL0     H10795  11.277   2.406   8.368  1.0701 -0.3370  0.7445
   80MOL0     H10796  11.195   2.752   8.136 -0.1352  0.1372  0.7089
   80MOL0     H10797  10.634   2.434   8.744  0.3217  0.9354 -1.1184
   80MOL0     H10798  10.407   2.218   8.920 -0.3631  1.2122  1.4457
   80MOL0     H10799  10.471   2.380   8.914 -2.2950  2.6740 -1.2565
   80MOL0     H10800  10.323   2.348   8.829  0.6500  1.2101 -0.2242
   81MOL0     O10801   8.835   9.599   0.004 -0.1681  0.1312  0.2558
   81MOL0     C10802   8.817   9.607  -0.110  1.0555  0.3403  0.1904
   81MOL0     O10803   8.922   9.642  -0.200  0.5312  0.3901  0.0840
   81MOL0     C10804   9.043   9.675  -0.158 -0.6204  0.4975  0.0203
   81MOL0     C10805   9.117   9.626  -0.046  0.4911  0.1319 -0.2305
   81MOL0     C10806   9.256   9.644  -0.046 -0.2155 -0.0139 -0.6644
   81MOL0     C10807   9.332   9.716  -0.141  0.4556  0.0871  0.0074
   81MOL0     O10808   9.465   9.731  -0.116  1.0348 -0.0514 -0.0346
   81MOL0     C10809   9.560   9.779  -0.212  0.1090 -0.2417 -0.1439
   81MOL0     C10810   9.698   9.750  -0.151 -0.4147  0.2234  0.6559
   81MOL0     C10811   9.817   9.803  -0.245 -0.5641  1.0489 -0.2109
   81MOL0     C10812   9.951   9.760  -0.184 -0.6397 -0.1907  0.6939
   81MOL0     C10813  10.072   9.811  -0.262 -0.3741 -0.7660  0.7144
   81MOL0     C10814  10.198   9.769  -0.190 -0.5045  1.0335  0.5092
   81MOL0     C10815  10.325   9.787  -0.277  0.0427  0.2013  0.4164
   81MOL0     C10816  10.445   9.721  -0.206 -0.8170  0.6517  0.4078
   81MOL0     N10817  10.565   9.748  -0.294 -0.2462  0.6093 -0.1660
   81MOL0     C10818  10.621   9.672  -0.397  0.5740  0.6919  0.0429
   81MOL0     C10819  10.712   9.756  -0.462  1.0982  0.4214  0.6315
   81MOL0     C10820  10.767   9.738  -0.600  0.3157  0.6562 -0.8129
   81MOL0     C10821  10.910   9.772  -0.600  0.8140  0.2078  0.0581
   81MOL0     C10822  10.964   9.753  -0.736 -0.7721 -0.4266 -0.0180
   81MOL0     C10823  11.112   9.792  -0.757 -0.5000 -0.0554 -0.6841
   81MOL0     O10824  11.142   9.793  -0.905 -0.8575 -0.7938  0.1173
   81MOL0     C10825  11.268   9.837  -0.938 -0.1769 -0.4442 -0.2279
   81MOL0     C10826  11.353   9.920  -0.862 -0.1228  0.2876  0.3369
   81MOL0     C10827  11.478   9.948  -0.910  0.7230 -0.3096 -0.7302
   81MOL0     C10828  11.527   9.883  -1.021 -0.2332 -0.0895  0.4767
   81MOL0     C10829  11.663   9.911  -1.071  0.0304 -0.3592 -0.2636
   81MOL0     O10830  11.734  10.014  -1.006  0.1574  0.3445 -0.1051
   81MOL0     C10831  11.863  10.045  -1.042 -0.4465  0.7617  0.3190
   81MOL0     C10832  11.900  10.178  -1.026 -0.2770 -0.3448 -0.1922
   81MOL0     C10833  12.035  10.216  -1.042 -0.5339  1.4106 -0.9499
   81MOL0     C10834  12.128  10.123  -1.075 -0.6124  0.1810  0.4654
   81MOL0     O10835  12.258  10.165  -1.091  0.6714 -0.0252 -0.5636
   81MOL0     C10836  12.307  10.132  -1.220 -0.2345  0.2973  0.2399
   81MOL0     C10837  12.459  10.111  -1.203  0.0073 -0.2722 -0.9280
   81MOL0     C10838  12.527  10.119  -1.344  0.2443  0.4105  0.1781
   81MOL0     C10839  12.665  10.067  -1.331 -0.1454  0.1271  0.2137
   81MOL0     C10840  12.749  10.111  -1.445 -0.2318 -0.3039 -0.3268
   81MOL0     C10841  12.896  10.067  -1.430 -0.0949 -0.2701  0.5526
   81MOL0     C10842  12.983  10.078  -1.564  0.7017 -0.4106 -0.0936
   81MOL0     C10843  13.137  10.072  -1.541  0.2614 -0.0194  0.2767
   81MOL0    Cl10844  13.160   9.898  -1.537 -0.1649 -0.6411  0.1527
   81MOL0     C10845  12.096   9.990  -1.084 -0.2737  0.4412  0.3919
   81MOL0     C10846  11.959   9.949  -1.069 -0.2935 -0.1905 -0.1318
   81MOL0     O10847  11.701   9.848  -1.171 -0.2905 -0.4441  0.5595
   81MOL0     C10848  11.439   9.809  -1.102 -0.0620  0.0708  0.3766
   81MOL0     C10849  11.310   9.790  -1.064  0.6071  0.0016  0.2128
   81MOL0     N10850  10.707   9.874  -0.393 -0.1685  0.1625  0.2110
   81MOL0     N10851  10.622   9.865  -0.299  0.3358 -0.3306  0.2023
   81MOL0     C10852   9.254   9.781  -0.237  0.2512  0.1547  0.1695
   81MOL0     C10853   9.118   9.756  -0.249  0.6254  0.4096  0.0979
   81MOL0     C10854   8.677   9.594  -0.167 -0.2557 -0.2592  0.0951
   81MOL0     C10855   8.656   9.617  -0.307  0.3503  0.0479 -0.2277
   81MOL0     C10856   8.525   9.603  -0.358  0.2721 -0.6807  0.2888
   81MOL0     C10857   8.419   9.562  -0.278  0.4546 -0.0681  0.0700
   81MOL0     O10858   8.290   9.539  -0.326 -0.7377  0.4929  0.1661
   81MOL0     C10859   8.268   9.430  -0.416  0.2234  0.0855 -0.0096
   81MOL0     C10860   8.261   9.453  -0.572 -0.8350 -0.3828 -0.0745
   81MOL0     C10861   8.160   9.551  -0.619 -0.0545 -0.9345 -0.2601
   81MOL0     C10862   8.138   9.566  -0.774  0.1109  0.4611 -0.1350
   81MOL0     C10863   8.083   9.440  -0.819 -0.3763  0.0046 -0.2392
   81MOL0     C10864   8.055   9.347  -0.885 -0.9115  0.4986  0.1314
   81MOL0     C10865   8.437   9.538  -0.142  0.5522  0.1182 -0.3037
   81MOL0     C10866   8.566   9.553  -0.089  0.2170 -1.0656 -0.0798
   81MOL0     C10867   8.575   9.528   0.059  0.7919  0.9590 -0.0455
   81MOL0     H10868   9.074   9.561   0.029  0.9997  0.9202  0.7746
   81MOL0     H10869   9.321   9.614   0.035 -1.8177 -2.2405 -0.1265
   81MOL0     H10870   9.557   9.722  -0.305 -0.3694 -2.1922  1.0041
   81MOL0     H10871   9.544   9.885  -0.235 -0.9477  0.0250  1.6051
   81MOL0     H10872   9.720   9.646  -0.126  0.4644 -0.0580 -1.1076
   81MOL0     H10873   9.713   9.802  -0.056  0.3333  1.4460 -0.0893
   81MOL0     H10874   9.808   9.912  -0.241  0.7344  1.1465  1.5452
   81MOL0     H10875   9.797   9.760  -0.344 -3.7160 -1.6363  1.4405
   81MOL0     H10876   9.967   9.790  -0.080  1.6068 -0.7911  0.5606
   81MOL0     H10877   9.956   9.652  -0.172  2.6343  0.0194  2.2684
   81MOL0     H10878  10.066   9.772  -0.364 -1.1196  0.8786  0.1151
   81MOL0     H10879  10.068   9.920  -0.263  0.6082 -0.7064  1.2482
   81MOL0     H10880  10.214   9.827  -0.099  4.0029  0.3705  0.3464
   81MOL0     H10881  10.185   9.668  -0.151  0.1086  0.9489  0.5093
   81MOL0     H10882  10.337   9.893  -0.300 -0.9863  0.6606  1.8208
   81MOL0     H10883  10.311   9.745  -0.377 -1.6580 -0.1024  0.7478
   81MOL0     H10884  10.462   9.761  -0.105 -1.1036 -0.8995  1.0895
   81MOL0     H10885  10.438   9.613  -0.196  0.7126  0.4751 -0.2039
   81MOL0     H10886  10.585   9.582  -0.447  2.0783 -0.5840  1.1474
   81MOL0     H10887  10.757   9.633  -0.631  1.0240  0.3468 -0.0413
   81MOL0     H10888  10.724   9.794  -0.684  2.9378 -0.8332 -3.3382
   81MOL0     H10889  10.911   9.877  -0.569 -2.0162  1.4242 -3.3278
   81MOL0     H10890  10.968   9.709  -0.533  0.7086 -0.4885 -0.4962
   81MOL0     H10891  10.910   9.808  -0.813  0.4981 -0.1844 -0.7517
   81MOL0     H10892  10.960   9.648  -0.767 -2.2264  0.6157 -3.9903
   81MOL0     H10893  11.166   9.724  -0.692  0.0535  1.3436  0.3733
   81MOL0     H10894  11.127   9.897  -0.730  0.2124 -0.5517  0.9234
   81MOL0     H10895  11.305   9.966  -0.777 -3.2892  2.3740 -2.3282
   81MOL0     H10896  11.547  10.017  -0.864  2.7086 -1.1700 -2.2487
   81MOL0     H10897  11.836  10.259  -0.991  2.2519  1.2417  1.1001
   81MOL0     H10898  12.063  10.319  -1.019 -0.3300  1.1276  0.1353
   81MOL0     H10899  12.272  10.038  -1.263  0.1059 -2.0474  4.5000
   81MOL0     H10900  12.285  10.211  -1.292 -2.2642 -0.2288  0.2389
   81MOL0     H10901  12.503  10.187  -1.137 -0.8629 -0.0429 -0.5872
   81MOL0     H10902  12.475  10.017  -1.149 -4.0274 -0.4416  0.3255
   81MOL0     H10903  12.464  10.056  -1.407 -0.9776 -0.0795  1.8174
   81MOL0     H10904  12.518  10.221  -1.384 -0.1046  0.0556 -0.6908
   81MOL0     H10905  12.669   9.959  -1.318  1.5698  0.0625 -0.5738
   81MOL0     H10906  12.702  10.105  -1.236  0.4339 -1.6710  0.7443
   81MOL0     H10907  12.747  10.220  -1.454 -0.3800 -0.3866 -1.4056
   81MOL0     H10908  12.709  10.069  -1.538  1.4504  1.3844 -1.8887
   81MOL0     H10909  12.943  10.138  -1.362  4.2989 -2.0186 -0.3589
   81MOL0     H10910  12.896   9.968  -1.384 -2.1248 -0.5606  0.0198
   81MOL0     H10911  12.948  10.172  -1.607 -0.6063  0.3224  2.3292
   81MOL0     H10912  12.957   9.993  -1.628  1.3784  1.5590 -3.1468
   81MOL0     H10913  13.190  10.116  -1.626  1.4764 -1.4989  0.2369
   81MOL0     H10914  13.164  10.124  -1.448  4.2752 -0.8133 -0.2503
   81MOL0     H10915  12.167   9.911  -1.106 -2.5005 -1.6675  0.3435
   81MOL0     H10916  11.925   9.846  -1.069 -3.4167  0.7518  0.5366
   81MOL0     H10917  11.464   9.762  -1.196  2.0209 -0.6761  1.2379
   81MOL0     H10918  11.236   9.735  -1.121  0.3248 -1.0391  1.5442
   81MOL0     H10919   9.303   9.855  -0.299 -1.2454  1.1639  0.1337
   81MOL0     H10920   9.061   9.797  -0.332 -1.3242  1.2928  1.7695
   81MOL0     H10921   8.731   9.641  -0.382  1.5509 -1.6585  0.3651
   81MOL0     H10922   8.514   9.609  -0.466  2.3758  0.7663  0.0829
   81MOL0     H10923   8.184   9.369  -0.383  1.2518 -0.7305  1.1433
   81MOL0     H10924   8.360   9.372  -0.412  0.3764 -0.1180 -3.3197
   81MOL0     H10925   8.244   9.356  -0.620  1.3908 -0.7840 -0.1568
   81MOL0     H10926   8.363   9.480  -0.601 -0.0859 -1.6522  1.2568
   81MOL0     H10927   8.193   9.644  -0.572 -1.0512  0.0550 -1.4614
   81MOL0     H10928   8.065   9.520  -0.575 -0.5313 -0.8903 -1.2356
   81MOL0     H10929   8.066   9.646  -0.795 -1.4485 -1.0729 -0.8550
   81MOL0     H10930   8.227   9.596  -0.831 -0.5082 -0.1273 -1.4566
   81MOL0     H10931   8.040   9.266  -0.953  0.5043 -0.2086  0.6309
   81MOL0     H10932   8.355   9.509  -0.078  1.9032  0.7465  1.8137
   81MOL0     H10933   8.487   9.482   0.103  0.4626  0.8268 -0.8401
   81MOL0     H10934   8.660   9.464   0.085  1.8261  2.1839 -0.3148
   81MOL0     H10935   8.588   9.618   0.121 -0.0756  2.3871 -1.8508
   82MOL0     O10936   6.200   3.072   0.652 -0.2522 -0.3025 -0.1223
   82MOL0     C10937   6.179   3.079   0.531 -0.4485 -0.8774  0.3877
   82MOL0     O10938   6.283   3.111   0.434  0.3248 -0.7391  0.2074
   82MOL0     C10939   6.418   3.123   0.466 -0.2527 -0.1145  0.0478
   82MOL0     C10940   6.488   3.245   0.435  0.3877 -0.1033 -0.5698
   82MOL0     C10941   6.619   3.258   0.475 -0.1965  0.1230  0.2648
   82MOL0     C10942   6.694   3.155   0.539 -0.0126  0.0199  0.3112
   82MOL0     O10943   6.828   3.164   0.568  0.1183 -0.4459 -0.1387
   82MOL0     C10944   6.878   3.274   0.635  0.0696  0.1360  0.0990
   82MOL0     C10945   7.034   3.282   0.621 -0.0074  0.3921  0.1770
   82MOL0     C10946   7.103   3.347   0.737 -0.8278 -0.3201  0.2373
   82MOL0     C10947   7.253   3.342   0.734  0.2598  0.2561  0.9024
   82MOL0     C10948   7.341   3.419   0.836 -0.3204 -0.5138 -0.2845
   82MOL0     C10949   7.493   3.410   0.780 -0.7080  0.0842 -0.1098
   82MOL0     C10950   7.594   3.471   0.876 -0.4475  0.6685 -0.2462
   82MOL0     C10951   7.615   3.392   1.001 -0.6106  0.3028 -0.2841
   82MOL0     N10952   7.686   3.462   1.106  0.6530 -0.0926 -0.6864
   82MOL0     C10953   7.816   3.460   1.120 -0.7810 -0.6910 -0.1000
   82MOL0     C10954   7.850   3.537   1.228  0.5244  1.2675  0.0037
   82MOL0     C10955   7.971   3.584   1.295 -0.7531  0.1280 -0.1411
   82MOL0     C10956   8.086   3.477   1.286  0.3037  0.3149  0.4818
   82MOL0     C10957   8.201   3.533   1.369 -0.9953  0.2711 -0.0685
   82MOL0     C10958   8.327   3.445   1.367  0.0269 -0.6938 -0.4368
   82MOL0     O10959   8.392   3.420   1.239 -0.0196 -0.1805  0.2238
   82MOL0     C10960   8.530   3.407   1.252  0.3872  0.6859 -0.1439
   82MOL0     C10961   8.605   3.520   1.273  0.1837 -0.0006  0.5001
   82MOL0     C10962   8.746   3.504   1.274  0.1179 -0.4121  0.2393
   82MOL0     C10963   8.800   3.370   1.266 -0.0081  0.0320  0.0048
   82MOL0     C10964   8.943   3.354   1.249 -0.7118 -0.1895 -0.4579
   82MOL0     O10965   9.020   3.462   1.286  0.3264  0.2722  0.2382
   82MOL0     C10966   9.155   3.445   1.302  0.2349 -0.0806 -0.2520
   82MOL0     C10967   9.239   3.509   1.207  0.4364 -0.5919 -0.5055
   82MOL0     C10968   9.371   3.530   1.231 -0.7274 -0.1974  0.0722
   82MOL0     C10969   9.420   3.497   1.353 -0.4533 -0.4063 -0.0580
   82MOL0     O10970   9.552   3.523   1.370  0.1879  0.0232  0.6239
   82MOL0     C10971   9.639   3.467   1.276 -0.2191  0.1267  0.2634
   82MOL0     C10972   9.691   3.578   1.182  0.9935 -0.2171 -0.5575
   82MOL0     C10973   9.767   3.697   1.255  0.6012 -0.2759 -0.4276
   82MOL0     C10974   9.915   3.665   1.268 -0.2516 -0.4857 -0.4754
   82MOL0     C10975   9.967   3.721   1.402 -0.1229  0.6185  0.3665
   82MOL0     C10976  10.121   3.742   1.395  0.4625  0.9175  0.3795
   82MOL0     C10977  10.164   3.841   1.503  0.2315  0.5733  0.2473
   82MOL0     C10978  10.315   3.844   1.520 -0.0196  0.5839  0.8106
   82MOL0    Cl10979  10.363   3.969   1.641  0.2758 -0.4085 -0.0056
   82MOL0     C10980   9.342   3.418   1.444  0.8451 -0.6198  0.0409
   82MOL0     C10981   9.206   3.403   1.423 -0.1266  0.2782  0.1745
   82MOL0     O10982   8.986   3.250   1.201  0.3408  0.0763  0.2035
   82MOL0     C10983   8.720   3.263   1.259  0.5199  0.3100 -0.9766
   82MOL0     C10984   8.583   3.280   1.252  0.3539  0.1369  0.0548
   82MOL0     N10985   7.730   3.597   1.267  0.4639 -0.0173 -0.0769
   82MOL0     N10986   7.629   3.546   1.200  0.0082  0.0972 -0.4104
   82MOL0     C10987   6.632   3.032   0.553  0.1964  0.5714 -0.7947
   82MOL0     C10988   6.495   3.022   0.515 -0.3897 -0.0579  0.4642
   82MOL0     C10989   6.038   3.062   0.486  0.0467  0.2136 -0.1412
   82MOL0     C10990   5.954   2.980   0.570  0.3403 -0.0021 -0.3883
   82MOL0     C10991   5.818   2.961   0.538 -0.2157 -0.0228  0.2228
   82MOL0     C10992   5.769   3.029   0.424  0.2499 -0.1972 -1.2738
   82MOL0     O10993   5.643   3.027   0.370 -0.1742  0.3300 -0.6564
   82MOL0     C10994   5.544   2.936   0.414  0.0247 -0.3431  0.3542
   82MOL0     C10995   5.477   2.985   0.537  0.7437 -0.9271 -0.6414
   82MOL0     C10996   5.346   2.897   0.563 -0.0067  0.3189  0.6310
   82MOL0     C10997   5.234   2.919   0.460  0.0801  0.0247 -0.0082
   82MOL0     C10998   5.104   2.873   0.507  0.8282  0.0368 -0.0063
   82MOL0     C10999   4.989   2.835   0.519  0.8488 -0.3995  0.1374
   82MOL0     C11000   5.846   3.112   0.342 -0.0238  0.2840 -0.2020
   82MOL0     C11001   5.979   3.120   0.368  0.1757  1.0480  0.4840
   82MOL0     C11002   6.053   3.208   0.279  0.7462  0.3642  0.7225
   82MOL0     H11003   6.444   3.327   0.378  1.2588  1.2739  0.6695
   82MOL0     H11004   6.662   3.358   0.470 -3.1863  1.4928 -0.4563
   82MOL0     H11005   6.826   3.368   0.616 -0.0806 -0.1022 -0.7132
   82MOL0     H11006   6.856   3.256   0.741  0.2979 -2.7417 -0.2590
   82MOL0     H11007   7.062   3.312   0.519  2.9244 -0.1898  0.7269
   82MOL0     H11008   7.068   3.178   0.625 -1.2206 -0.0184  0.3677
   82MOL0     H11009   7.071   3.304   0.832  0.0258  0.1011  0.7224
   82MOL0     H11010   7.073   3.452   0.737 -2.2554 -0.6541 -1.9244
   82MOL0     H11011   7.288   3.238   0.728  1.3577  0.6576  0.0196
   82MOL0     H11012   7.280   3.375   0.633 -0.3844 -3.1056 -0.5258
   82MOL0     H11013   7.313   3.524   0.851 -1.6923 -1.3640  5.4306
   82MOL0     H11014   7.326   3.375   0.935 -1.1913 -2.8808 -1.3927
   82MOL0     H11015   7.524   3.307   0.763 -0.1522 -0.1531  2.0965
   82MOL0     H11016   7.499   3.470   0.689  4.2288 -0.0658 -0.1190
   82MOL0     H11017   7.572   3.575   0.902  0.8404  0.3112  2.6282
   82MOL0     H11018   7.693   3.474   0.830  0.6945  1.1859  2.1047
   82MOL0     H11019   7.523   3.363   1.053 -0.0846 -0.5096  0.2151
   82MOL0     H11020   7.671   3.298   0.991  0.5896  0.8223  1.1157
   82MOL0     H11021   7.872   3.405   1.045  0.9404  1.3340 -0.3595
   82MOL0     H11022   7.995   3.675   1.239  1.2104  0.1895  0.7043
   82MOL0     H11023   7.944   3.617   1.395 -1.3170  0.5428 -0.4288
   82MOL0     H11024   8.053   3.380   1.324  1.2634 -0.2694 -0.1232
   82MOL0     H11025   8.118   3.458   1.183 -0.6478  2.2470 -0.2146
   82MOL0     H11026   8.168   3.547   1.472  0.8896  0.4778  0.5416
   82MOL0     H11027   8.236   3.632   1.341  3.6415 -1.7546 -2.5638
   82MOL0     H11028   8.298   3.350   1.411 -1.1223 -0.0214  0.3044
   82MOL0     H11029   8.393   3.479   1.447 -0.1615 -0.9839 -0.1561
   82MOL0     H11030   8.558   3.618   1.274  0.7344  0.2679  0.9851
   82MOL0     H11031   8.802   3.596   1.283 -1.5463  0.8802 -1.6525
   82MOL0     H11032   9.193   3.537   1.113  0.6886 -0.1268 -0.4914
   82MOL0     H11033   9.420   3.595   1.160 -2.3326 -1.0917 -1.9422
   82MOL0     H11034   9.720   3.422   1.335  0.4190 -0.8370 -1.2720
   82MOL0     H11035   9.590   3.389   1.217 -0.6461  0.3009  0.3794
   82MOL0     H11036   9.755   3.528   1.109 -0.8287 -0.3145 -2.1625
   82MOL0     H11037   9.616   3.634   1.126  0.4459  0.0050  0.3724
   82MOL0     H11038   9.756   3.789   1.198  2.2831  1.3713  1.7393
   82MOL0     H11039   9.729   3.716   1.356  3.0522  1.6353  0.2192
   82MOL0     H11040   9.977   3.692   1.182 -0.5684 -0.6475 -0.7567
   82MOL0     H11041   9.923   3.556   1.276  0.1509 -0.3397  1.3585
   82MOL0     H11042   9.935   3.666   1.491 -2.0777  0.1479 -0.5748
   82MOL0     H11043   9.926   3.821   1.414  0.3425  0.7716  0.6939
   82MOL0     H11044  10.176   3.648   1.393 -0.0654  0.6118 -0.8213
   82MOL0     H11045  10.152   3.795   1.304  1.6641 -0.6070 -0.1359
   82MOL0     H11046  10.114   3.801   1.591  1.0157 -1.1166 -0.0431
   82MOL0     H11047  10.121   3.940   1.485 -1.4489 -0.3078 -0.8546
   82MOL0     H11048  10.348   3.744   1.549 -1.4226  0.2539  1.3913
   82MOL0     H11049  10.358   3.873   1.423 -2.3616  0.7574 -0.2673
   82MOL0     H11050   9.389   3.402   1.540 -0.3288  1.5955  1.0580
   82MOL0     H11051   9.135   3.375   1.499  1.6440 -0.4191  1.6457
   82MOL0     H11052   8.748   3.159   1.262 -0.1683  0.0900 -1.9168
   82MOL0     H11053   8.509   3.200   1.256  0.0586  0.2546 -1.8361
   82MOL0     H11054   6.677   2.947   0.603  1.4697  0.8389 -1.4454
   82MOL0     H11055   6.433   2.933   0.516 -2.4023  1.2829  1.1209
   82MOL0     H11056   5.974   2.925   0.661  2.4311 -1.0358 -1.4040
   82MOL0     H11057   5.751   2.903   0.601  0.4225 -0.8083  0.1994
   82MOL0     H11058   5.582   2.835   0.432 -0.9042 -0.8985 -0.6602
   82MOL0     H11059   5.460   2.931   0.344 -0.5482  1.8837  0.8253
   82MOL0     H11060   5.442   3.087   0.522 -5.5018 -2.8021 -1.5309
   82MOL0     H11061   5.543   2.975   0.624  1.3258  0.3515 -0.9107
   82MOL0     H11062   5.305   2.929   0.660 -0.3500  0.8364  0.3142
   82MOL0     H11063   5.366   2.789   0.565 -2.1174 -0.1104  1.0413
   82MOL0     H11064   5.226   3.028   0.446  0.9745  0.2664  1.1928
   82MOL0     H11065   5.259   2.863   0.369 -0.7350 -0.8229  0.2841
   82MOL0     H11066   4.888   2.802   0.512  0.8551 -0.3103 -0.4242
   82MOL0     H11067   5.806   3.157   0.252  0.5344 -0.7291 -0.9929
   82MOL0     H11068   6.086   3.298   0.332  0.5674 -0.0131  1.4874
   82MOL0     H11069   6.138   3.159   0.229 -0.8100  0.8553 -2.6855
   82MOL0     H11070   5.991   3.232   0.192 -2.2164  0.8947  2.8611
   83MOL0     O11071   7.444   6.073   3.837  0.3555 -0.1151  0.4327
   83MOL0     C11072   7.365   5.984   3.805  0.2384  0.2467 -0.4380
   83MOL0     O11073   7.367   5.855   3.854  0.1291 -0.3393 -0.0507
   83MOL0     C11074   7.483   5.806   3.909  0.8443 -0.3095  1.2438
   83MOL0     C11075   7.555   5.717   3.836 -0.0174 -0.1484 -0.7035
   83MOL0     C11076   7.666   5.651   3.897 -0.5345  0.3059 -0.3314
   83MOL0     C11077   7.701   5.671   4.025 -0.5630 -0.6931  0.0846
   83MOL0     O11078   7.819   5.611   4.067 -0.0746 -0.5057 -0.3841
   83MOL0     C11079   7.910   5.698   4.134 -0.6815  0.4355 -0.4862
   83MOL0     C11080   8.057   5.641   4.130 -0.0535  0.1328 -0.0686
   83MOL0     C11081   8.114   5.601   3.986 -0.3717 -0.0527 -0.2828
   83MOL0     C11082   8.253   5.547   4.006 -0.6491  0.3581 -1.3326
   83MOL0     C11083   8.286   5.493   3.871 -0.0885 -0.1434  0.5322
   83MOL0     C11084   8.431   5.444   3.852 -0.3604  0.6108  0.2561
   83MOL0     C11085   8.439   5.371   3.720  0.0283 -0.3526 -0.6489
   83MOL0     C11086   8.553   5.263   3.711 -0.6090  0.2759  0.5885
   83MOL0     N11087   8.684   5.327   3.730  0.1241  0.7636 -0.1222
   83MOL0     C11088   8.801   5.271   3.780  0.3101 -0.9228  0.6985
   83MOL0     C11089   8.897   5.345   3.733  0.5740 -0.5244 -0.0995
   83MOL0     C11090   9.043   5.333   3.762 -0.4342  0.1617  0.8428
   83MOL0     C11091   9.088   5.381   3.905  0.1556 -0.3890 -0.0760
   83MOL0     C11092   9.246   5.367   3.895  0.6571 -1.5315 -0.2110
   83MOL0     C11093   9.309   5.393   4.034  0.0141 -0.5370  0.9453
   83MOL0     O11094   9.444   5.435   4.001  0.2367  0.6779 -0.6371
   83MOL0     C11095   9.520   5.514   4.098  0.1190 -0.2024  0.6040
   83MOL0     C11096   9.653   5.542   4.057 -0.0629  0.4295  0.5448
   83MOL0     C11097   9.741   5.599   4.155  0.2967 -0.1541  0.5789
   83MOL0     C11098   9.709   5.635   4.285  0.1571 -0.0353 -0.2215
   83MOL0     C11099   9.813   5.675   4.379  0.3461 -0.1859 -0.6801
   83MOL0     O11100   9.941   5.684   4.320 -0.5495  0.1796  0.2288
   83MOL0     C11101  10.046   5.765   4.365 -0.4562  0.2727  0.1751
   83MOL0     C11102  10.098   5.754   4.494  0.3580 -0.3168 -0.4630
   83MOL0     C11103  10.188   5.845   4.552 -0.0843  0.0787  0.1290
   83MOL0     C11104  10.234   5.953   4.474  0.4663  0.0960  0.6189
   83MOL0     O11105  10.317   6.056   4.528 -0.1152  0.2034 -0.3150
   83MOL0     C11106  10.421   6.015   4.617  0.0326 -0.2337 -0.3266
   83MOL0     C11107  10.523   5.913   4.558 -0.2940  0.1596 -0.6120
   83MOL0     C11108  10.623   5.870   4.660  0.4731  0.0878  0.2538
   83MOL0     C11109  10.587   5.735   4.740  0.7428  0.0123 -0.3857
   83MOL0     C11110  10.681   5.707   4.854 -0.5271  0.5929  0.1169
   83MOL0     C11111  10.621   5.593   4.944 -0.5087  0.3527  0.4837
   83MOL0     C11112  10.499   5.647   5.018 -0.7420 -0.1036 -0.5132
   83MOL0     C11113  10.459   5.558   5.127 -0.3032 -0.2679  0.6275
   83MOL0    Cl11114  10.300   5.596   5.198 -0.3557 -0.2054  0.3324
   83MOL0     C11115  10.194   5.953   4.342 -0.2213 -0.6578 -0.0101
   83MOL0     C11116  10.106   5.864   4.295 -0.0959  0.0970 -0.1949
   83MOL0     O11117   9.785   5.702   4.495 -0.2339  0.3805 -0.7241
   83MOL0     C11118   9.571   5.616   4.315  0.2106 -0.6708  0.1670
   83MOL0     C11119   9.481   5.560   4.222  0.0660  0.2614 -0.1304
   83MOL0     N11120   8.834   5.449   3.665 -0.9482  0.1193  0.9095
   83MOL0     N11121   8.708   5.444   3.666 -0.0097 -0.6058  0.5038
   83MOL0     C11122   7.634   5.765   4.098 -0.0629  0.3592 -0.4719
   83MOL0     C11123   7.525   5.830   4.042  0.5608 -0.7570 -0.1854
   83MOL0     C11124   7.254   6.025   3.710 -0.6174 -0.0973 -0.4375
   83MOL0     C11125   7.228   6.168   3.697 -0.3347  1.1841 -0.5436
   83MOL0     C11126   7.112   6.204   3.630 -0.0857 -0.3729  0.4141
   83MOL0     C11127   7.036   6.114   3.556  0.4542  0.1647 -0.2310
   83MOL0     O11128   6.930   6.145   3.465 -0.3056  0.3253 -0.1337
   83MOL0     C11129   6.876   6.286   3.467  0.8307 -0.4527 -0.7561
   83MOL0     C11130   6.914   6.350   3.335  0.4135  0.0546 -0.2773
   83MOL0     C11131   6.792   6.428   3.274 -0.3022 -0.4280  0.1498
   83MOL0     C11132   6.735   6.541   3.362 -0.4311  0.1063 -0.5373
   83MOL0     C11133   6.600   6.585   3.307 -0.1530 -0.4528  0.4579
   83MOL0     C11134   6.483   6.592   3.282  0.4094 -0.2554  0.2198
   83MOL0     C11135   7.069   5.981   3.561 -0.5289  0.1281 -0.4855
   83MOL0     C11136   7.185   5.929   3.630  0.1189 -0.3150 -0.3822
   83MOL0     C11137   7.214   5.782   3.630 -0.5051 -0.1703  0.2299
   83MOL0     H11138   7.527   5.686   3.736 -1.5721 -0.6116 -0.1610
   83MOL0     H11139   7.720   5.578   3.838  0.3804  1.1156 -0.5091
   83MOL0     H11140   7.918   5.790   4.077  0.9044  1.9922  2.0434
   83MOL0     H11141   7.881   5.722   4.237  0.2260  1.0841 -0.3723
   83MOL0     H11142   8.062   5.551   4.192 -0.7898 -1.9088 -2.7438
   83MOL0     H11143   8.120   5.715   4.180 -1.6239  0.9263  0.8192
   83MOL0     H11144   8.122   5.680   3.911 -0.0408  0.2418  0.0598
   83MOL0     H11145   8.047   5.527   3.940 -0.1855  0.5454 -1.5577
   83MOL0     H11146   8.327   5.617   4.046 -0.2135  0.1510 -1.7636
   83MOL0     H11147   8.270   5.468   4.080  0.3724  1.4747 -0.3345
   83MOL0     H11148   8.223   5.409   3.840 -0.1689 -1.1869  3.2416
   83MOL0     H11149   8.272   5.568   3.793 -1.4604  0.3678  1.2512
   83MOL0     H11150   8.491   5.535   3.846  1.3174 -0.4084  0.7946
   83MOL0     H11151   8.474   5.380   3.930  0.7519  0.8380 -0.1457
   83MOL0     H11152   8.442   5.456   3.652  1.2856  0.1272 -0.0263
   83MOL0     H11153   8.341   5.325   3.701 -0.0962  0.5510 -2.3428
   83MOL0     H11154   8.539   5.189   3.790  1.4938  1.7607  2.5072
   83MOL0     H11155   8.546   5.220   3.611 -1.1280  1.1248  0.2432
   83MOL0     H11156   8.803   5.175   3.830 -5.9658 -2.0653 -0.3706
   83MOL0     H11157   9.069   5.230   3.734  1.6922  1.4055 -2.4060
   83MOL0     H11158   9.106   5.386   3.690 -1.0949  2.0776  1.6294
   83MOL0     H11159   9.069   5.488   3.922 -1.9641 -0.8026  0.4237
   83MOL0     H11160   9.040   5.320   3.982 -2.1458 -0.4907 -1.4978
   83MOL0     H11161   9.277   5.451   3.832 -2.7195  0.5567  0.6138
   83MOL0     H11162   9.283   5.274   3.853  2.2855 -0.8187 -0.4223
   83MOL0     H11163   9.314   5.307   4.101 -0.4545 -0.3435  1.2265
   83MOL0     H11164   9.253   5.471   4.085  2.7524  1.3078  1.3543
   83MOL0     H11165   9.690   5.503   3.962 -1.0767  1.2969 -0.2297
   83MOL0     H11166   9.844   5.599   4.121  0.8781 -0.2679  2.2536
   83MOL0     H11167  10.053   5.673   4.550  1.6573  0.7637  2.3349
   83MOL0     H11168  10.206   5.836   4.659  1.2032 -4.2616 -0.2516
   83MOL0     H11169  10.480   6.096   4.660  0.0772 -0.6825  0.4919
   83MOL0     H11170  10.373   5.968   4.703  1.3353 -0.5518  0.2657
   83MOL0     H11171  10.477   5.820   4.525  2.4224 -0.6622 -2.4159
   83MOL0     H11172  10.573   5.952   4.468  1.6735  0.8506  0.7067
   83MOL0     H11173  10.717   5.852   4.607 -0.1834  0.7340 -1.1761
   83MOL0     H11174  10.652   5.948   4.731  5.7729  1.0193 -2.4220
   83MOL0     H11175  10.586   5.651   4.670 -0.7505 -1.8381  1.7071
   83MOL0     H11176  10.484   5.755   4.771  0.6145 -0.4942 -0.4829
   83MOL0     H11177  10.692   5.797   4.915  0.6300  0.7343 -0.2778
   83MOL0     H11178  10.780   5.672   4.823 -1.1013  0.7001 -1.9947
   83MOL0     H11179  10.595   5.508   4.880  2.4665 -0.7674  0.6061
   83MOL0     H11180  10.707   5.552   4.998  0.4344  0.7543 -0.6599
   83MOL0     H11181  10.413   5.639   4.951 -1.4604 -4.5759  0.6047
   83MOL0     H11182  10.527   5.746   5.055  0.3432 -1.0367  1.3212
   83MOL0     H11183  10.463   5.451   5.104  0.3972 -0.4136  1.3858
   83MOL0     H11184  10.540   5.563   5.200  0.5746 -2.3978 -0.1161
   83MOL0     H11185  10.227   6.039   4.284 -3.5274 -0.5894 -2.0677
   83MOL0     H11186  10.067   5.877   4.194  1.5877  0.5812 -0.8096
   83MOL0     H11187   9.534   5.635   4.415 -0.5548 -0.1364 -0.2024
   83MOL0     H11188   9.381   5.536   4.256 -0.6070 -1.5533 -3.0740
   83MOL0     H11189   7.662   5.772   4.203  0.0731  0.3552 -0.5079
   83MOL0     H11190   7.474   5.913   4.091  1.2673 -1.2666  1.4698
   83MOL0     H11191   7.302   6.239   3.734  2.1345 -1.1713 -0.6100
   83MOL0     H11192   7.096   6.311   3.624 -0.3337 -0.3169  1.7336
   83MOL0     H11193   6.908   6.337   3.558 -4.2937 -1.3508  1.8694
   83MOL0     H11194   6.768   6.270   3.472  0.3951  1.7312 -1.9389
   83MOL0     H11195   6.938   6.266   3.269  0.1180 -0.3425  0.1044
   83MOL0     H11196   6.994   6.422   3.351  1.4682 -1.2632  0.5750
   83MOL0     H11197   6.711   6.358   3.250 -0.8159  0.5394 -1.0721
   83MOL0     H11198   6.833   6.472   3.182 -2.1673 -4.5711 -2.9885
   83MOL0     H11199   6.700   6.505   3.459 -3.0415  1.1559 -1.0029
   83MOL0     H11200   6.800   6.629   3.373 -2.2517  1.6902 -1.6706
   83MOL0     H11201   6.379   6.595   3.256 -0.5313 -3.6224  2.8215
   83MOL0     H11202   7.008   5.919   3.496  0.5439  0.8920 -2.2949
   83MOL0     H11203   7.211   5.742   3.732  1.2817 -0.3518  0.2410
   83MOL0     H11204   7.144   5.728   3.566  1.7913 -2.5304 -0.4327
   83MOL0     H11205   7.311   5.767   3.582  0.1207  2.0350  0.7048
   84MOL0     O11206   6.554  10.173   0.032 -0.2587 -0.2372 -0.6359
   84MOL0     C11207   6.437  10.216   0.012 -0.3731 -0.3921  0.8755
   84MOL0     O11208   6.336  10.256   0.104 -0.0410  0.6105 -0.2660
   84MOL0     C11209   6.369  10.249   0.237 -0.2909  0.9750  0.0550
   84MOL0     C11210   6.294  10.166   0.317  1.3935  1.0728 -0.1302
   84MOL0     C11211   6.328  10.154   0.450  0.7325  0.1137 -0.0316
   84MOL0     C11212   6.441  10.230   0.508  0.6105 -0.4182 -0.0389
   84MOL0     O11213   6.484  10.216   0.640 -0.0505  0.9539  0.3647
   84MOL0     C11214   6.370  10.189   0.732  0.1555 -1.1302 -0.5254
   84MOL0     C11215   6.379  10.286   0.863  0.7068  0.6839  0.5113
   84MOL0     C11216   6.478  10.225   0.955 -0.3667  0.1609 -0.3392
   84MOL0     C11217   6.488  10.301   1.088  0.7007  0.3120  0.5754
   84MOL0     C11218   6.610  10.266   1.180  0.6704  0.0316 -0.3662
   84MOL0     C11219   6.740  10.333   1.134 -0.2723  0.1613 -0.2907
   84MOL0     C11220   6.851  10.312   1.235 -0.2331  0.2856 -0.2229
   84MOL0     C11221   6.990  10.343   1.177 -0.2388  0.7366 -0.2819
   84MOL0     N11222   7.102  10.293   1.263  0.1165 -0.3690 -0.3133
   84MOL0     C11223   7.173  10.359   1.357 -0.8493  0.2673  0.0196
   84MOL0     C11224   7.275  10.279   1.388  0.5069 -0.3485 -0.2546
   84MOL0     C11225   7.389  10.332   1.472 -1.3344  0.2920 -0.1102
   84MOL0     C11226   7.529  10.278   1.446 -0.3005 -0.1733 -0.1265
   84MOL0     C11227   7.577  10.356   1.319 -0.2173 -0.6934  0.4310
   84MOL0     C11228   7.698  10.284   1.268 -0.0077 -0.6033 -0.2338
   84MOL0     O11229   7.790  10.296   1.381 -0.2245 -0.2373  0.4513
   84MOL0     C11230   7.916  10.261   1.354 -0.2804  0.5600 -0.2741
   84MOL0     C11231   7.963  10.196   1.237  0.1352 -0.2463  0.1485
   84MOL0     C11232   8.090  10.150   1.214  0.2244 -0.3770 -0.3909
   84MOL0     C11233   8.190  10.180   1.306  0.1031 -0.9491  0.5004
   84MOL0     C11234   8.332  10.142   1.291 -0.2536 -0.0425  0.7377
   84MOL0     O11235   8.417  10.187   1.383 -0.0405  0.3096 -0.2599
   84MOL0     C11236   8.551  10.153   1.364  0.7256 -0.4973  0.2497
   84MOL0     C11237   8.633  10.236   1.293  0.3173  0.1581 -0.0222
   84MOL0     C11238   8.773  10.220   1.285 -0.4244  0.2969  0.2275
   84MOL0     C11239   8.830  10.130   1.368  0.3388 -0.4772  0.4142
   84MOL0     O11240   8.970  10.132   1.371 -0.2864  0.5067 -0.2392
   84MOL0     C11241   9.044  10.026   1.421 -0.5111 -0.4137  0.1915
   84MOL0     C11242   9.191  10.040   1.377  0.0328 -0.4061  0.3150
   84MOL0     C11243   9.263   9.916   1.422 -0.1124  0.2172  0.4130
   84MOL0     C11244   9.410   9.937   1.378 -0.5412 -0.3367 -0.0607
   84MOL0     C11245   9.494   9.817   1.427 -0.0014  0.0813 -0.2567
   84MOL0     C11246   9.494   9.787   1.583 -0.0060  0.8267 -0.3963
   84MOL0     C11247   9.629   9.735   1.638 -0.3333 -0.1968 -0.2613
   84MOL0     C11248   9.677   9.598   1.584 -0.2335 -0.0765  0.1357
   84MOL0    Cl11249   9.556   9.486   1.665 -0.5434 -0.2372 -0.0350
   84MOL0     C11250   8.742  10.038   1.439 -0.2337 -0.1492  0.2442
   84MOL0     C11251   8.609  10.056   1.429 -0.2063 -0.2196  0.2800
   84MOL0     O11252   8.361  10.070   1.202  0.0931 -0.6429  0.2574
   84MOL0     C11253   8.152  10.244   1.425 -0.3493 -0.1365 -0.2605
   84MOL0     C11254   8.026  10.291   1.446  0.9103  0.6961  0.9791
   84MOL0     N11255   7.259  10.158   1.322  0.3988 -0.2723 -0.0021
   84MOL0     N11256   7.160  10.172   1.238  0.1924  0.1142  0.1320
   84MOL0     C11257   6.512  10.312   0.419 -0.2946 -0.1432  0.7940
   84MOL0     C11258   6.475  10.319   0.288  0.6070 -1.1512  0.3511
   84MOL0     C11259   6.396  10.235  -0.131 -0.2424  0.0422  0.3718
   84MOL0     C11260   6.314  10.340  -0.166  0.5270  0.9230  0.2320
   84MOL0     C11261   6.254  10.362  -0.296 -0.1001 -0.0609 -0.4009
   84MOL0     C11262   6.309  10.287  -0.403  0.8282 -0.4433 -0.3911
   84MOL0     O11263   6.298  10.316  -0.538 -0.0962  0.2569 -0.1873
   84MOL0     C11264   6.177  10.380  -0.584  0.1087  0.8224  0.8596
   84MOL0     C11265   6.156  10.355  -0.735  0.2002 -0.9344  0.0852
   84MOL0     C11266   6.115  10.216  -0.774  0.5104 -0.0652  0.8569
   84MOL0     C11267   6.111  10.206  -0.926  0.3944  0.4979 -1.2303
   84MOL0     C11268   5.993  10.267  -0.983  0.0104  0.1292 -0.7542
   84MOL0     C11269   5.879  10.287  -1.019 -0.2732 -0.4991  0.3634
   84MOL0     C11270   6.396  10.181  -0.368 -0.1871 -0.1031  0.9479
   84MOL0     C11271   6.438  10.149  -0.236 -0.9050  0.0991  0.7255
   84MOL0     C11272   6.513  10.016  -0.209  0.0543 -1.0256  1.3370
   84MOL0     H11273   6.205  10.116   0.279  0.5796 -1.1735  4.1153
   84MOL0     H11274   6.260  10.088   0.502  2.7726 -1.2299  1.0799
   84MOL0     H11275   6.276  10.216   0.681  0.5986 -0.0093 -0.7773
   84MOL0     H11276   6.358  10.084   0.763  1.2615 -2.1238 -3.1999
   84MOL0     H11277   6.279  10.275   0.907 -0.3434  2.2487 -1.2701
   84MOL0     H11278   6.398  10.389   0.833 -2.6822  1.2164 -0.2530
   84MOL0     H11279   6.581  10.240   0.920 -0.0831 -1.2729 -0.1993
   84MOL0     H11280   6.462  10.119   0.976 -1.1007  0.4942  0.8278
   84MOL0     H11281   6.492  10.410   1.075  1.1592 -0.0121 -2.6812
   84MOL0     H11282   6.398  10.270   1.144  0.1279 -0.7355 -0.8606
   84MOL0     H11283   6.590  10.297   1.283 -0.7893 -0.3582 -0.5156
   84MOL0     H11284   6.615  10.157   1.179 -2.8546 -0.2438 -1.3716
   84MOL0     H11285   6.767  10.276   1.045  0.0316 -1.2236  0.6563
   84MOL0     H11286   6.725  10.440   1.116 -0.1271  0.1641 -0.3937
   84MOL0     H11287   6.853  10.209   1.275  2.3152  0.0533 -0.8064
   84MOL0     H11288   6.837  10.380   1.319  2.3262  0.9949 -0.3137
   84MOL0     H11289   6.996  10.293   1.080  2.7968  0.3808 -0.0198
   84MOL0     H11290   7.016  10.449   1.172  2.6762  0.1763  0.9122
   84MOL0     H11291   7.161  10.462   1.386  0.8509  0.0341  1.7535
   84MOL0     H11292   7.401  10.440   1.460 -0.4356  0.2354  0.2299
   84MOL0     H11293   7.373  10.315   1.579 -0.3316  0.1018  0.0129
   84MOL0     H11294   7.597  10.293   1.530  0.2228 -2.7108 -0.0223
   84MOL0     H11295   7.542  10.170   1.442 -1.0144 -0.2702 -0.0471
   84MOL0     H11296   7.595  10.463   1.336 -1.7490 -0.2684 -0.3811
   84MOL0     H11297   7.491  10.364   1.251 -1.3070  1.9134  1.9512
   84MOL0     H11298   7.739  10.323   1.174 -0.4165  0.4315  0.0026
   84MOL0     H11299   7.671  10.182   1.243  0.0292 -0.6949  0.0922
   84MOL0     H11300   7.894  10.181   1.155  2.0991  0.1468 -1.6773
   84MOL0     H11301   8.119  10.095   1.125 -2.4724  0.1674 -1.7262
   84MOL0     H11302   8.582  10.307   1.228  0.0875  0.4407  0.4657
   84MOL0     H11303   8.837  10.279   1.220 -0.6337 -0.3815 -0.6212
   84MOL0     H11304   9.024  10.025   1.529  0.2184 -0.1038  0.3354
   84MOL0     H11305   9.017   9.929   1.378  3.1795 -1.6129  0.2318
   84MOL0     H11306   9.181  10.053   1.269 -0.2145 -2.1909  0.1033
   84MOL0     H11307   9.231  10.135   1.414 -0.2700  0.3367 -1.1904
   84MOL0     H11308   9.256   9.908   1.531  3.4502 -2.0583  0.6285
   84MOL0     H11309   9.217   9.824   1.388  1.7402 -0.7245  0.3059
   84MOL0     H11310   9.456  10.028   1.417 -1.1385  0.5422 -1.3514
   84MOL0     H11311   9.413   9.949   1.270 -1.2801  0.0602 -0.0454
   84MOL0     H11312   9.596   9.831   1.390  0.2425 -0.2392  0.2917
   84MOL0     H11313   9.450   9.728   1.380  0.7166 -0.2575 -0.2956
   84MOL0     H11314   9.466   9.879   1.634  1.2891 -0.0145  1.9542
   84MOL0     H11315   9.413   9.716   1.605  0.7942 -0.0858 -0.3200
   84MOL0     H11316   9.629   9.733   1.748  2.9297  3.1532 -0.0242
   84MOL0     H11317   9.703   9.813   1.617  0.0051 -0.3277  0.4238
   84MOL0     H11318   9.681   9.604   1.475 -4.8166  1.0957 -0.2016
   84MOL0     H11319   9.772   9.575   1.632 -1.4390 -1.1185  2.1296
   84MOL0     H11320   8.785   9.960   1.501  1.2896 -2.1097 -3.0176
   84MOL0     H11321   8.538   9.996   1.485 -0.0630 -0.8039 -0.1621
   84MOL0     H11322   8.221  10.261   1.507  0.1726 -0.2157 -0.6756
   84MOL0     H11323   8.011  10.351   1.535 -1.9033 -1.4041  2.0672
   84MOL0     H11324   6.601  10.367   0.450  1.8163 -2.2245 -1.1650
   84MOL0     H11325   6.519  10.388   0.216  1.0857  0.4108  2.0728
   84MOL0     H11326   6.281  10.400  -0.082  0.4306  0.2222  0.6985
   84MOL0     H11327   6.192  10.449  -0.314 -0.5552 -0.2439  0.2539
   84MOL0     H11328   6.179  10.488  -0.565  3.9094  0.7929  1.5345
   84MOL0     H11329   6.093  10.329  -0.536 -0.5635  0.5074 -0.6058
   84MOL0     H11330   6.253  10.381  -0.779 -0.1575 -1.2922 -0.9225
   84MOL0     H11331   6.089  10.425  -0.784  1.8379  0.5848 -0.0910
   84MOL0     H11332   6.014  10.190  -0.742 -0.1407 -0.8618 -1.5870
   84MOL0     H11333   6.176  10.133  -0.739 -0.6799 -0.8812  1.0691
   84MOL0     H11334   6.201  10.260  -0.958  0.7048  2.2450  2.1049
   84MOL0     H11335   6.126  10.100  -0.946 -0.7654 -0.1959  1.2563
   84MOL0     H11336   5.777  10.304  -1.045 -0.4672  2.4572  2.4519
   84MOL0     H11337   6.429  10.119  -0.451 -0.8023 -0.5120  1.0057
   84MOL0     H11338   6.465   9.956  -0.131 -1.5395 -1.2831  0.1913
   84MOL0     H11339   6.512   9.969  -0.308 -1.6839  3.1066 -0.8353
   84MOL0     H11340   6.610  10.059  -0.182 -1.2972  1.0630  3.2234
   85MOL0     O11341   4.628   2.320   8.388 -0.5084  0.1036 -0.0799
   85MOL0     C11342   4.620   2.399   8.290 -0.3010  0.1420  0.1994
   85MOL0     O11343   4.706   2.505   8.264 -0.2015  0.1530  0.1788
   85MOL0     C11344   4.790   2.547   8.364 -0.1972  0.2581  0.3597
   85MOL0     C11345   4.925   2.570   8.345 -0.1652 -0.3405  0.2997
   85MOL0     C11346   5.007   2.620   8.444 -0.2182  0.2751 -0.3683
   85MOL0     C11347   4.951   2.649   8.567 -0.9162 -0.3214 -1.3947
   85MOL0     O11348   5.036   2.674   8.678 -1.0150  0.0940  0.4584
   85MOL0     C11349   5.164   2.734   8.658  0.1280 -0.0968 -0.0859
   85MOL0     C11350   5.219   2.768   8.794 -0.5120  0.3346  0.2169
   85MOL0     C11351   5.298   2.901   8.798 -0.5594  0.0653 -0.1336
   85MOL0     C11352   5.444   2.902   8.758  0.5744  0.1464  0.3807
   85MOL0     C11353   5.512   3.035   8.805 -0.2315 -0.2422 -0.1661
   85MOL0     C11354   5.664   3.037   8.792  0.4464  0.0099 -0.5158
   85MOL0     C11355   5.732   2.966   8.906  0.6623  0.3091  0.3219
   85MOL0     C11356   5.846   3.044   8.970  0.1426  0.8503  0.7477
   85MOL0     N11357   5.969   3.066   8.885  0.2449  0.4306  0.8879
   85MOL0     C11358   5.982   3.139   8.767  0.7319 -0.1177 -0.7804
   85MOL0     C11359   6.107   3.106   8.721  0.4755 -0.9814 -0.2239
   85MOL0     C11360   6.171   3.146   8.595 -0.0525 -0.4682  0.0148
   85MOL0     C11361   6.251   3.277   8.621 -0.7227 -0.4990  0.0220
   85MOL0     C11362   6.328   3.320   8.496  0.7071  0.3506  0.2805
   85MOL0     C11363   6.453   3.242   8.472 -0.7103 -0.0330 -0.2666
   85MOL0     O11364   6.561   3.293   8.551 -0.0565 -0.0703 -0.2230
   85MOL0     C11365   6.691   3.276   8.520  0.4144 -0.9694 -0.1295
   85MOL0     C11366   6.788   3.288   8.623 -0.2139 -1.1176  1.1141
   85MOL0     C11367   6.928   3.273   8.594  0.6480  0.4917  0.1606
   85MOL0     C11368   6.972   3.238   8.464  0.7924 -0.0663 -0.7777
   85MOL0     C11369   7.111   3.248   8.422 -0.4362 -0.1384 -0.2439
   85MOL0     O11370   7.203   3.258   8.528 -0.3045 -0.1686 -0.1953
   85MOL0     C11371   7.333   3.221   8.504 -0.1613 -0.2045 -0.3515
   85MOL0     C11372   7.377   3.136   8.406  0.6588 -0.0181  0.5946
   85MOL0     C11373   7.513   3.122   8.380 -0.3836  0.7123 -0.6351
   85MOL0     C11374   7.618   3.191   8.451  0.3664  0.0338  0.1375
   85MOL0     O11375   7.751   3.173   8.405 -0.3175 -0.3417 -0.1377
   85MOL0     C11376   7.856   3.226   8.489 -0.2096  0.5532  0.7437
   85MOL0     C11377   7.992   3.216   8.429  0.0232  0.1386 -0.7835
   85MOL0     C11378   8.039   3.074   8.393 -0.6059 -0.0849  0.1021
   85MOL0     C11379   8.168   3.069   8.304  0.2974 -1.4029  0.1038
   85MOL0     C11380   8.286   3.050   8.400 -0.5571  0.3614  1.4050
   85MOL0     C11381   8.417   3.041   8.317 -0.6031 -0.0591 -0.5052
   85MOL0     C11382   8.537   3.005   8.415  0.8745  0.0525 -0.3597
   85MOL0     C11383   8.653   2.986   8.328  0.4143  0.3326  0.5696
   85MOL0    Cl11384   8.629   2.846   8.216  0.2347 -0.3278  0.1267
   85MOL0     C11385   7.572   3.280   8.542 -0.1837  0.1083 -0.8323
   85MOL0     C11386   7.436   3.295   8.573 -0.4645 -0.3550  0.6784
   85MOL0     O11387   7.136   3.264   8.300 -0.3576  0.5315 -0.4987
   85MOL0     C11388   6.875   3.218   8.367 -0.1232 -0.0636 -0.4193
   85MOL0     C11389   6.739   3.227   8.397 -0.4037  0.2635  1.0236
   85MOL0     N11390   6.161   3.025   8.816 -0.9499  0.3047  0.3516
   85MOL0     N11391   6.083   2.999   8.910 -0.1082 -0.2502 -0.8029
   85MOL0     C11392   4.818   2.620   8.595  0.8622 -0.1751  0.2625
   85MOL0     C11393   4.738   2.572   8.492  0.4610 -0.0833  0.1248
   85MOL0     C11394   4.514   2.361   8.188 -0.5120  0.0736 -0.2499
   85MOL0     C11395   4.387   2.362   8.241 -0.3727 -0.7435 -1.1482
   85MOL0     C11396   4.281   2.319   8.165 -0.0584 -0.3081  1.1279
   85MOL0     C11397   4.305   2.250   8.039  1.3769  0.3783 -0.0212
   85MOL0     O11398   4.212   2.174   7.971  0.0396  0.3041  0.7016
   85MOL0     C11399   4.098   2.151   8.048 -0.1723 -0.3994  0.2852
   85MOL0     C11400   4.012   2.051   7.969 -0.1375 -0.9637 -0.3029
   85MOL0     C11401   3.880   2.009   8.033  0.2165 -1.0288  0.7519
   85MOL0     C11402   3.783   1.938   7.945 -0.0720 -0.7629  0.1907
   85MOL0     C11403   3.673   1.895   8.028  0.5124  0.3563  0.3111
   85MOL0     C11404   3.575   1.865   8.086 -0.0034 -0.7336  0.1107
   85MOL0     C11405   4.443   2.252   7.993  0.5812  0.1389  0.0559
   85MOL0     C11406   4.550   2.316   8.063 -0.3638  0.1012 -0.1694
   85MOL0     C11407   4.696   2.306   8.028 -0.8604 -0.5624  0.1644
   85MOL0     H11408   4.976   2.557   8.251 -2.1283  1.7478 -1.1848
   85MOL0     H11409   5.112   2.637   8.427  0.7337 -0.7589  3.5634
   85MOL0     H11410   5.233   2.664   8.609 -0.0611  0.9132 -1.8801
   85MOL0     H11411   5.150   2.821   8.594 -1.6888 -1.4454 -1.6383
   85MOL0     H11412   5.280   2.685   8.829 -0.4338  0.4677  0.3984
   85MOL0     H11413   5.134   2.773   8.863 -1.5391 -1.3135 -0.8500
   85MOL0     H11414   5.315   2.922   8.903  0.1236 -1.0482 -0.0075
   85MOL0     H11415   5.245   2.979   8.743 -1.5073 -0.8507 -0.5661
   85MOL0     H11416   5.488   2.811   8.800 -0.0564  0.7572  2.4827
   85MOL0     H11417   5.438   2.892   8.649  2.4704  0.3423  0.2143
   85MOL0     H11418   5.471   3.112   8.739  0.6915 -0.1579 -0.6653
   85MOL0     H11419   5.482   3.066   8.905  1.7869  0.9398  0.1298
   85MOL0     H11420   5.690   2.983   8.701 -1.4610 -2.2620  0.1787
   85MOL0     H11421   5.702   3.139   8.792  1.3745 -0.3273 -0.5700
   85MOL0     H11422   5.772   2.874   8.861 -1.9285 -0.9121  0.2954
   85MOL0     H11423   5.660   2.937   8.983 -1.6246  2.3565 -0.8943
   85MOL0     H11424   5.809   3.142   9.002  0.9140  2.1837 -2.0819
   85MOL0     H11425   5.870   2.990   9.062  1.4487 -1.7973 -1.0058
   85MOL0     H11426   5.900   3.190   8.718  0.9137 -0.2835 -1.2645
   85MOL0     H11427   6.237   3.070   8.552  1.7033  1.2484 -0.5012
   85MOL0     H11428   6.092   3.169   8.523 -0.9143 -1.1507  0.7289
   85MOL0     H11429   6.176   3.354   8.637 -1.3345 -0.8450 -1.0884
   85MOL0     H11430   6.317   3.264   8.707 -3.9831  1.5964  3.1169
   85MOL0     H11431   6.350   3.426   8.482 -0.6042  0.5180 -0.7573
   85MOL0     H11432   6.260   3.298   8.413  0.9587 -0.9184  0.3983
   85MOL0     H11433   6.484   3.245   8.368 -1.6326 -1.5565 -0.6227
   85MOL0     H11434   6.441   3.137   8.502  0.0836  0.3013  1.3286
   85MOL0     H11435   6.735   3.303   8.717 -2.2011  0.1223 -0.1397
   85MOL0     H11436   6.998   3.298   8.673  1.3959 -1.3211  0.1013
   85MOL0     H11437   7.304   3.083   8.345  0.8899 -0.2782  0.5437
   85MOL0     H11438   7.534   3.043   8.308 -2.4821 -1.2319  0.7253
   85MOL0     H11439   7.837   3.332   8.509 -1.7085  0.2597  1.0202
   85MOL0     H11440   7.856   3.172   8.584 -0.6791  3.2234  2.3555
   85MOL0     H11441   7.985   3.279   8.340 -1.3147  1.4242  0.1845
   85MOL0     H11442   8.065   3.259   8.498  0.0060 -1.3649  0.2242
   85MOL0     H11443   8.057   3.021   8.487  1.0637  3.2341  1.8103
   85MOL0     H11444   7.952   3.033   8.339 -2.2016  1.0350  1.7165
   85MOL0     H11445   8.176   3.164   8.250 -2.6468  0.4535  2.6250
   85MOL0     H11446   8.161   2.984   8.235 -1.8101 -0.3902 -1.0400
   85MOL0     H11447   8.270   2.952   8.445  2.5484 -0.7688  0.3141
   85MOL0     H11448   8.308   3.135   8.466  0.6196  1.3171 -0.1274
   85MOL0     H11449   8.397   2.962   8.243  1.3196 -0.9109 -0.1601
   85MOL0     H11450   8.437   3.137   8.270  0.4450 -0.7757 -1.5986
   85MOL0     H11451   8.516   2.915   8.474 -1.9273  0.4206 -0.6712
   85MOL0     H11452   8.557   3.086   8.485  2.0983  0.7882 -1.5078
   85MOL0     H11453   8.681   3.070   8.264  1.7781  0.5950  1.4678
   85MOL0     H11454   8.744   2.954   8.379  1.0883 -1.4614 -1.5887
   85MOL0     H11455   7.638   3.356   8.582 -1.5534  1.1479 -0.4480
   85MOL0     H11456   7.413   3.379   8.638  1.4291  0.1252  0.8123
   85MOL0     H11457   6.899   3.198   8.263 -1.0092 -0.0803 -0.6371
   85MOL0     H11458   6.664   3.223   8.318  0.8902  1.4528 -0.3459
   85MOL0     H11459   4.783   2.652   8.692  2.2166  0.5768  0.5307
   85MOL0     H11460   4.632   2.551   8.506  0.3757 -0.0845 -0.4715
   85MOL0     H11461   4.367   2.388   8.344 -1.3938 -1.9837 -1.0173
   85MOL0     H11462   4.182   2.337   8.207 -1.4078 -1.4339 -1.3145
   85MOL0     H11463   4.046   2.245   8.069 -0.6167 -0.1220 -1.7912
   85MOL0     H11464   4.118   2.103   8.145  0.5264  0.1529  0.4198
   85MOL0     H11465   4.069   1.959   7.959  1.4191 -0.5758  3.3620
   85MOL0     H11466   3.988   2.103   7.876 -1.3856 -0.6776  0.1484
   85MOL0     H11467   3.831   2.100   8.068 -0.0649 -1.4456  1.4529
   85MOL0     H11468   3.908   1.955   8.124 -0.0864  0.2162  1.5918
   85MOL0     H11469   3.754   2.004   7.863 -0.4647 -2.1617 -0.8470
   85MOL0     H11470   3.828   1.847   7.903 -0.8438 -0.7223 -0.7793
   85MOL0     H11471   3.480   1.841   8.128 -0.0870 -0.7106 -0.0640
   85MOL0     H11472   4.461   2.198   7.900 -1.9259 -0.7263  0.0007
   85MOL0     H11473   4.721   2.410   8.002  0.7939 -0.8993  0.3189
   85MOL0     H11474   4.768   2.280   8.106 -1.6864 -0.8990  0.8177
   85MOL0     H11475   4.726   2.252   7.938  2.8209 -0.6779  1.3165
   86MOL0     O11476   2.137   2.205   7.721 -1.0391 -0.0042 -0.7396
   86MOL0     C11477   2.117   2.125   7.814  0.5810 -0.0916  0.1940
   86MOL0     O11478   2.225   2.055   7.872  0.0148 -0.8550  0.2001
   86MOL0     C11479   2.348   2.074   7.805  0.0678 -0.0277  0.7054
   86MOL0     C11480   2.379   1.993   7.689  0.0498  1.2138  0.2493
   86MOL0     C11481   2.504   2.003   7.625  1.0807  0.1750  0.2638
   86MOL0     C11482   2.594   2.099   7.671  0.0846  0.2216  1.2637
   86MOL0     O11483   2.719   2.107   7.620 -0.1478  0.1862  0.4365
   86MOL0     C11484   2.833   2.121   7.703 -0.1364 -0.2161 -0.8310
   86MOL0     C11485   2.953   2.078   7.613  0.1199 -0.4774 -0.2279
   86MOL0     C11486   3.085   2.096   7.681 -0.3643  0.3421  0.1238
   86MOL0     C11487   3.205   2.047   7.590  0.0068 -1.0303 -0.4823
   86MOL0     C11488   3.334   2.096   7.656  0.3376 -0.2307  0.7699
   86MOL0     C11489   3.462   2.029   7.605 -0.2488  0.4083  0.3280
   86MOL0     C11490   3.531   2.095   7.484 -0.4521 -0.4229  0.4530
   86MOL0     C11491   3.641   2.008   7.428  0.3046  0.2926 -0.5078
   86MOL0     N11492   3.770   2.034   7.497  0.6655  0.1535 -0.3104
   86MOL0     C11493   3.855   2.134   7.461 -0.1021 -0.0475 -0.1236
   86MOL0     C11494   3.964   2.115   7.549  0.2067 -0.2284 -0.0568
   86MOL0     C11495   4.080   2.197   7.569 -0.0778 -0.1826 -0.5884
   86MOL0     C11496   4.217   2.127   7.577  0.6601 -0.4796  0.2413
   86MOL0     C11497   4.331   2.221   7.588 -0.0233 -0.0757  0.3920
   86MOL0     C11498   4.465   2.136   7.600 -0.4021 -0.7881 -0.0940
   86MOL0     O11499   4.574   2.232   7.612 -0.2019  0.4378  0.6329
   86MOL0     C11500   4.698   2.188   7.668 -0.0859 -1.4051  0.2941
   86MOL0     C11501   4.797   2.289   7.664 -0.1283 -0.3193 -0.5265
   86MOL0     C11502   4.935   2.260   7.706 -0.3487 -0.3586  0.8300
   86MOL0     C11503   4.975   2.126   7.738 -0.4339 -0.0369  0.4661
   86MOL0     C11504   5.111   2.096   7.758 -0.1792  0.5571  0.3953
   86MOL0     O11505   5.200   2.188   7.710  0.1193 -0.2759  0.1999
   86MOL0     C11506   5.326   2.178   7.762  0.3024 -0.1447 -0.0012
   86MOL0     C11507   5.373   2.256   7.864 -0.0704  1.2460  0.0272
   86MOL0     C11508   5.503   2.243   7.907  0.0962 -0.2652 -0.2908
   86MOL0     C11509   5.593   2.158   7.846  0.9402 -0.3567  0.6948
   86MOL0     O11510   5.722   2.145   7.883 -0.3607  0.2663  0.4657
   86MOL0     C11511   5.767   2.190   8.010  0.4661 -0.1225  0.8319
   86MOL0     C11512   5.905   2.132   8.050 -0.0833  0.0917  0.4474
   86MOL0     C11513   6.023   2.190   7.980  0.9091 -0.2021  0.0902
   86MOL0     C11514   6.154   2.114   7.994  0.5045  0.6836  0.1694
   86MOL0     C11515   6.244   2.171   7.885  0.1413  0.5775  0.3827
   86MOL0     C11516   6.384   2.097   7.897  0.2052  0.1901 -0.5594
   86MOL0     C11517   6.479   2.148   7.783 -0.0615 -0.1304  0.3355
   86MOL0     C11518   6.600   2.055   7.796 -0.1144  0.0143 -0.4016
   86MOL0    Cl11519   6.728   2.122   7.708  0.1187 -0.2294  0.2984
   86MOL0     C11520   5.555   2.083   7.743  0.9723 -0.0793  0.8438
   86MOL0     C11521   5.421   2.090   7.701 -0.6655  0.5800 -0.5988
   86MOL0     O11522   5.145   1.996   7.825  0.5797 -0.0573 -0.1530
   86MOL0     C11523   4.873   2.029   7.727  0.2429 -0.9932 -1.0317
   86MOL0     C11524   4.739   2.057   7.706  0.3773  0.2605 -0.4238
   86MOL0     N11525   3.936   2.006   7.630 -0.9181 -0.4022  0.2855
   86MOL0     N11526   3.828   1.949   7.588 -0.0618 -0.0767 -0.0644
   86MOL0     C11527   2.558   2.186   7.776  0.1978  1.3591  0.9110
   86MOL0     C11528   2.438   2.172   7.845  0.4246  0.0823  0.6170
   86MOL0     C11529   1.975   2.103   7.849 -0.3335  0.5896 -0.2755
   86MOL0     C11530   1.946   2.101   7.982  0.4510 -0.2282  0.3073
   86MOL0     C11531   1.813   2.096   8.024 -0.0973  0.4502  0.3474
   86MOL0     C11532   1.709   2.094   7.924 -0.1267 -0.2145 -0.1941
   86MOL0     O11533   1.571   2.080   7.948 -0.2842  0.5342  0.4635
   86MOL0     C11534   1.529   2.047   8.076  0.2910  0.4783  0.1137
   86MOL0     C11535   1.383   2.002   8.066 -0.3935 -0.0893 -1.2019
   86MOL0     C11536   1.304   2.123   8.007  0.9278 -1.3295 -0.6612
   86MOL0     C11537   1.156   2.083   8.004  0.6189 -0.0763 -0.0784
   86MOL0     C11538   1.098   2.066   8.147  0.0618  0.0236  0.0467
   86MOL0     C11539   1.047   2.063   8.253  0.7311  0.2760  0.0588
   86MOL0     C11540   1.744   2.089   7.793 -0.1465 -0.1102 -0.1615
   86MOL0     C11541   1.871   2.082   7.751  0.1224  0.7203 -0.9221
   86MOL0     C11542   1.889   2.034   7.616  0.0997  1.1196 -0.2494
   86MOL0     H11543   2.305   1.932   7.638 -0.7862  0.5697  2.1699
   86MOL0     H11544   2.536   1.942   7.541  2.0963  3.4488 -1.9072
   86MOL0     H11545   2.848   2.225   7.733 -2.0580 -0.3196  0.6860
   86MOL0     H11546   2.830   2.066   7.797  1.0884  1.5716  0.3071
   86MOL0     H11547   2.942   2.132   7.519 -0.2037 -1.2052 -0.6135
   86MOL0     H11548   2.943   1.971   7.593  0.3335 -0.3706 -0.9223
   86MOL0     H11549   3.065   2.030   7.766 -1.2925 -1.7695 -1.6276
   86MOL0     H11550   3.095   2.195   7.726  1.2432 -1.1311  3.3329
   86MOL0     H11551   3.193   1.939   7.575 -0.6879 -1.0490  0.1648
   86MOL0     H11552   3.182   2.096   7.495 -3.4311 -0.5349  0.4451
   86MOL0     H11553   3.352   2.202   7.638 -1.2308  0.0486  0.7242
   86MOL0     H11554   3.334   2.078   7.764 -1.3139  0.5817  0.9263
   86MOL0     H11555   3.531   2.013   7.688 -1.4577 -2.1494  0.9268
   86MOL0     H11556   3.429   1.930   7.574 -0.8743  0.2401  1.4889
   86MOL0     H11557   3.566   2.196   7.506 -0.9426  0.2159 -1.4996
   86MOL0     H11558   3.459   2.105   7.403  1.2957 -2.2717 -1.4252
   86MOL0     H11559   3.614   1.902   7.423  0.4758  0.2876 -1.9465
   86MOL0     H11560   3.659   2.040   7.325  3.0298 -2.9414 -1.2173
   86MOL0     H11561   3.839   2.207   7.382 -0.0671 -2.5559 -2.5980
   86MOL0     H11562   4.082   2.255   7.476 -1.3482 -0.8179 -1.0307
   86MOL0     H11563   4.059   2.256   7.659 -2.3632 -1.0468 -0.4982
   86MOL0     H11564   4.216   2.051   7.655  3.0534 -2.0020 -1.0838
   86MOL0     H11565   4.223   2.061   7.489 -1.4287  1.2425 -1.3155
   86MOL0     H11566   4.327   2.295   7.668  4.6316  0.3054  0.5200
   86MOL0     H11567   4.330   2.279   7.495 -3.4264  2.0277  1.5537
   86MOL0     H11568   4.479   2.081   7.507  2.0794  0.0237 -0.2824
   86MOL0     H11569   4.459   2.067   7.685 -0.6227 -1.3771 -0.5850
   86MOL0     H11570   4.757   2.384   7.631 -0.1496 -0.3671 -0.6427
   86MOL0     H11571   5.015   2.333   7.700  2.0008 -2.8258  0.1398
   86MOL0     H11572   5.302   2.329   7.902 -0.5781  0.8169 -0.0724
   86MOL0     H11573   5.539   2.313   7.983  0.9415 -1.0019  0.0013
   86MOL0     H11574   5.768   2.299   8.014 -1.2101  0.0382 -1.2440
   86MOL0     H11575   5.697   2.154   8.087 -0.1690 -1.2942 -0.2492
   86MOL0     H11576   5.920   2.149   8.157  0.0412 -0.7296  0.5626
   86MOL0     H11577   5.896   2.023   8.048 -2.3751  0.2256  0.2124
   86MOL0     H11578   5.996   2.207   7.875  1.2770  5.6771  0.6479
   86MOL0     H11579   6.042   2.290   8.020  3.7412 -1.0879  1.1846
   86MOL0     H11580   6.131   2.008   7.979  2.6366 -0.0518  1.6323
   86MOL0     H11581   6.195   2.114   8.096  0.3747 -0.4007  0.2370
   86MOL0     H11582   6.254   2.280   7.887  0.2542  0.6110 -1.0770
   86MOL0     H11583   6.197   2.157   7.787  0.8733 -0.7490  0.2061
   86MOL0     H11584   6.423   2.126   7.995 -0.6767  2.0916 -0.7108
   86MOL0     H11585   6.369   1.989   7.895  3.7586 -0.3966 -0.3248
   86MOL0     H11586   6.514   2.251   7.791  4.5345 -1.3947 -0.6072
   86MOL0     H11587   6.434   2.146   7.683 -1.4876 -2.4673  0.9349
   86MOL0     H11588   6.631   2.053   7.901  0.7860  1.2301 -0.6194
   86MOL0     H11589   6.567   1.957   7.760 -1.3663  0.8958 -1.7569
   86MOL0     H11590   5.622   2.015   7.692 -1.0581 -0.2068 -1.8739
   86MOL0     H11591   5.393   2.027   7.616 -0.2691 -1.3980  0.6644
   86MOL0     H11592   4.891   1.925   7.751  2.2267 -0.2284  1.3287
   86MOL0     H11593   4.663   1.980   7.710 -0.1487  0.8415  1.9932
   86MOL0     H11594   2.632   2.259   7.807  1.0253  1.6454 -1.5500
   86MOL0     H11595   2.406   2.239   7.925 -0.4589  3.2589 -2.1448
   86MOL0     H11596   2.019   2.118   8.060  1.5773 -1.4574 -0.4315
   86MOL0     H11597   1.784   2.112   8.127  0.3702  3.3721  0.1228
   86MOL0     H11598   1.528   2.138   8.135  0.2991  1.4422 -1.3106
   86MOL0     H11599   1.590   1.967   8.118 -0.4575 -0.7549 -1.0553
   86MOL0     H11600   1.349   1.979   8.168 -1.5818 -0.1919 -1.6057
   86MOL0     H11601   1.366   1.917   8.000  4.1453 -1.1347 -1.3158
   86MOL0     H11602   1.332   2.147   7.904 -0.1961  2.3827 -0.2671
   86MOL0     H11603   1.313   2.216   8.064 -1.4585 -1.0856 -0.5951
   86MOL0     H11604   1.104   2.159   7.946  2.2718  0.8596 -0.4147
   86MOL0     H11605   1.132   2.000   7.938  0.5143 -0.4293  0.3980
   86MOL0     H11606   1.005   2.068   8.352  1.1492  3.3318  0.1960
   86MOL0     H11607   1.670   2.096   7.714  2.1732  0.6095 -2.4315
   86MOL0     H11608   1.795   2.006   7.567  0.9602 -1.2000 -0.7201
   86MOL0     H11609   1.945   2.107   7.556  0.0785  0.2195 -1.3867
   86MOL0     H11610   1.962   1.953   7.620 -0.4678  0.6636  2.3134
   87MOL0     O11611   2.750  10.018   8.549 -0.6559  0.0250  0.3304
   87MOL0     C11612   2.640  10.015   8.490  0.4499 -0.7450  0.0889
   87MOL0     O11613   2.612  10.088   8.386  0.4233 -0.2465  0.4607
   87MOL0     C11614   2.719  10.126   8.310 -0.8888  0.0139 -0.9712
   87MOL0     C11615   2.770  10.252   8.323  0.3561 -0.0139  0.0490
   87MOL0     C11616   2.886  10.286   8.254 -0.3660 -0.2310 -0.4741
   87MOL0     C11617   2.950  10.189   8.180  0.2211  0.1144  0.7103
   87MOL0     O11618   3.064  10.204   8.107  0.1450 -0.2854 -0.1652
   87MOL0     C11619   3.183  10.237   8.183  0.3614 -0.0195 -0.5140
   87MOL0     C11620   3.293  10.143   8.132  0.5667 -0.6006 -0.1897
   87MOL0     C11621   3.331  10.179   7.986 -0.5875  0.3231 -0.1808
   87MOL0     C11622   3.454  10.094   7.946  0.7962  0.8428  0.5950
   87MOL0     C11623   3.417   9.945   7.927  0.6607  0.3095 -0.2488
   87MOL0     C11624   3.521   9.861   7.857  0.0025 -0.3007 -0.7131
   87MOL0     C11625   3.650   9.854   7.931 -1.7009 -0.0210 -0.0321
   87MOL0     C11626   3.764   9.872   7.834  0.3689 -0.4611 -0.2865
   87MOL0     N11627   3.884   9.879   7.922 -0.2046  0.0625  0.0033
   87MOL0     C11628   3.948   9.773   7.968  0.7246 -0.1641 -0.6361
   87MOL0     C11629   4.049   9.838   8.042 -0.1782 -0.5980  0.4592
   87MOL0     C11630   4.156   9.769   8.120 -0.1331 -0.7897  0.4864
   87MOL0     C11631   4.291   9.835   8.101  0.6152 -0.4813  0.4344
   87MOL0     C11632   4.335   9.848   7.954 -0.3703 -0.9181 -0.2020
   87MOL0     C11633   4.481   9.907   7.938  0.2563 -0.1198 -0.3165
   87MOL0     O11634   4.524   9.889   7.804 -0.6306  0.0707 -1.2701
   87MOL0     C11635   4.650   9.922   7.773  0.6766 -0.2288  0.3828
   87MOL0     C11636   4.735   9.981   7.862  0.5258  0.0554 -0.7061
   87MOL0     C11637   4.859  10.021   7.816 -0.7297  0.4538 -0.4917
   87MOL0     C11638   4.898  10.022   7.683  0.0712 -0.3135  0.0478
   87MOL0     C11639   5.032  10.065   7.629  0.1151 -0.9158  0.2595
   87MOL0     O11640   5.057  10.015   7.505  0.1364 -0.2533  0.0772
   87MOL0     C11641   5.182  10.015   7.463 -0.0111 -0.0017  0.1176
   87MOL0     C11642   5.290   9.971   7.536 -0.0788 -0.6054 -0.2831
   87MOL0     C11643   5.419   9.990   7.487 -0.5820  0.7039  0.1737
   87MOL0     C11644   5.446  10.046   7.365 -0.7645  0.8669 -0.6606
   87MOL0     O11645   5.576  10.061   7.313  0.3402  0.5078 -0.7743
   87MOL0     C11646   5.612  10.153   7.204  0.7306  0.2474  0.0040
   87MOL0     C11647   5.628  10.069   7.068  0.6029  0.1930  0.4180
   87MOL0     C11648   5.616  10.146   6.935  0.7177 -0.1483  0.1333
   87MOL0     C11649   5.661  10.052   6.821  0.5927  0.0803 -0.3268
   87MOL0     C11650   5.619  10.112   6.680 -0.8393 -0.1447 -0.6799
   87MOL0     C11651   5.670  10.250   6.639 -0.2331 -0.5157  0.4888
   87MOL0     C11652   5.819  10.259   6.662  0.1316 -0.5430  0.2903
   87MOL0     C11653   5.872  10.381   6.592  0.0800 -0.1590  0.8216
   87MOL0    Cl11654   6.051  10.385   6.605  0.0452  0.2941  0.5275
   87MOL0     C11655   5.332  10.086   7.289 -0.6907 -0.1440  0.0166
   87MOL0     C11656   5.204  10.070   7.339 -0.0204  0.2555 -0.2744
   87MOL0     O11657   5.107  10.139   7.698 -0.1131 -0.7207 -0.1190
   87MOL0     C11658   4.803   9.961   7.595 -0.6182 -0.2877  0.9677
   87MOL0     C11659   4.679   9.916   7.638  0.1091 -0.4582 -0.1893
   87MOL0     N11660   4.037   9.971   8.035  0.4711 -0.2778  0.0903
   87MOL0     N11661   3.933   9.999   7.962 -0.2460  0.6582 -0.3242
   87MOL0     C11662   2.889  10.059   8.158  0.1607  0.2395 -0.7508
   87MOL0     C11663   2.781  10.024   8.236  0.7173  0.1714  0.1270
   87MOL0     C11664   2.522   9.937   8.544  0.0497 -0.5264  0.3541
   87MOL0     C11665   2.391   9.956   8.490  0.0394 -0.0707  0.0521
   87MOL0     C11666   2.275   9.893   8.531  0.0101 -0.2459  0.2636
   87MOL0     C11667   2.286   9.792   8.630  0.0640 -0.8043  0.2318
   87MOL0     O11668   2.187   9.712   8.669  0.4837  0.2566  0.5263
   87MOL0     C11669   2.050   9.736   8.629 -1.2068 -0.7081  0.0833
   87MOL0     C11670   1.968   9.646   8.716 -0.0783 -0.1066  0.1693
   87MOL0     C11671   1.816   9.679   8.702 -0.2273 -0.3933 -0.3300
   87MOL0     C11672   1.722   9.596   8.786 -0.4999  0.2698 -0.5681
   87MOL0     C11673   1.732   9.625   8.928 -0.9478  0.0144 -0.0765
   87MOL0     C11674   1.755   9.669   9.040 -0.8617 -0.1028 -0.8109
   87MOL0     C11675   2.413   9.770   8.691 -1.1935  0.2343  0.2287
   87MOL0     C11676   2.530   9.842   8.651  0.1923 -0.4474  0.0418
   87MOL0     C11677   2.658   9.806   8.727 -0.2443 -0.2461  0.6598
   87MOL0     H11678   2.725  10.327   8.387 -0.6872 -0.7023  0.1383
   87MOL0     H11679   2.924  10.387   8.257 -0.7975 -0.0039 -1.8878
   87MOL0     H11680   3.209  10.343   8.180 -1.0873  0.3830  0.3613
   87MOL0     H11681   3.167  10.222   8.290  1.6408  0.0386 -0.2976
   87MOL0     H11682   3.259  10.039   8.131  1.1049 -0.7805 -0.9743
   87MOL0     H11683   3.381  10.154   8.196  0.2515  4.1089 -0.2250
   87MOL0     H11684   3.360  10.284   7.982  2.4581 -0.3608  1.0978
   87MOL0     H11685   3.244  10.154   7.925  0.4711 -0.0626 -1.5721
   87MOL0     H11686   3.496  10.134   7.853  1.5290 -2.0765 -0.4478
   87MOL0     H11687   3.533  10.099   8.021  0.4777 -0.5139  1.0480
   87MOL0     H11688   3.396   9.902   8.025 -1.4630  0.4707 -0.5988
   87MOL0     H11689   3.315   9.933   7.892  0.7449 -1.7430  0.0771
   87MOL0     H11690   3.488   9.757   7.850 -1.8028  0.0530  1.5401
   87MOL0     H11691   3.538   9.893   7.754 -2.6387  0.9284 -0.8343
   87MOL0     H11692   3.661   9.762   7.989  0.6495  0.4989  0.4388
   87MOL0     H11693   3.666   9.922   8.015 -0.2407 -1.9838  1.3483
   87MOL0     H11694   3.777   9.800   7.753  2.2047 -0.0507 -0.3950
   87MOL0     H11695   3.750   9.966   7.781  3.5150  0.3995  0.2081
   87MOL0     H11696   3.923   9.671   7.941 -0.8384 -0.7989  2.7585
   87MOL0     H11697   4.128   9.778   8.225 -0.0927 -0.1295  0.4454
   87MOL0     H11698   4.157   9.662   8.097  2.8667 -1.1955  1.9743
   87MOL0     H11699   4.284   9.935   8.145 -1.8416 -0.3347 -0.1873
   87MOL0     H11700   4.369   9.783   8.159  1.6459  0.6752  0.1358
   87MOL0     H11701   4.269   9.922   7.908  0.7622 -0.1134 -0.5852
   87MOL0     H11702   4.327   9.753   7.900  2.9104 -1.4262  0.0017
   87MOL0     H11703   4.543   9.846   8.005 -0.3705 -0.5842 -0.1457
   87MOL0     H11704   4.488  10.015   7.955  2.4375 -0.0505 -1.2626
   87MOL0     H11705   4.701   9.999   7.963 -0.7319 -2.0832 -0.6846
   87MOL0     H11706   4.928  10.059   7.892 -2.4362 -0.5316  1.6530
   87MOL0     H11707   5.276   9.942   7.640  2.5057 -0.4609  0.1659
   87MOL0     H11708   5.490   9.945   7.556  0.4193 -3.0040 -2.8998
   87MOL0     H11709   5.538  10.232   7.188  0.3415 -0.1471 -0.1798
   87MOL0     H11710   5.710  10.196   7.227  1.0910 -0.4999 -0.0925
   87MOL0     H11711   5.718  10.007   7.068 -1.1479 -2.5412 -1.4623
   87MOL0     H11712   5.549   9.996   7.050  1.0977 -0.2939  0.2074
   87MOL0     H11713   5.512  10.174   6.919  0.6268 -0.8301 -0.5399
   87MOL0     H11714   5.666  10.243   6.940 -2.3746  1.5324  0.4023
   87MOL0     H11715   5.607   9.957   6.831 -0.7867  0.8597 -0.1713
   87MOL0     H11716   5.767  10.027   6.831  0.9920  0.9301 -1.9878
   87MOL0     H11717   5.510  10.109   6.672 -1.0386 -0.3847  1.5279
   87MOL0     H11718   5.655  10.042   6.604  0.3488  1.1948 -1.4170
   87MOL0     H11719   5.647  10.269   6.534  0.2329  2.7132  0.8735
   87MOL0     H11720   5.614  10.330   6.690 -1.5345 -0.0341 -1.5906
   87MOL0     H11721   5.866  10.173   6.613  0.4645 -0.6188  0.7310
   87MOL0     H11722   5.848  10.260   6.768 -1.1288 -0.9119  0.6534
   87MOL0     H11723   5.852  10.387   6.485  4.0318 -5.7906 -0.6741
   87MOL0     H11724   5.839  10.474   6.640  0.8652  1.1155 -0.9896
   87MOL0     H11725   5.341  10.138   7.194 -1.9816  0.6916  0.3330
   87MOL0     H11726   5.119  10.084   7.272  0.7493 -0.6818 -1.4941
   87MOL0     H11727   4.832   9.972   7.491 -0.1987  3.3444  1.3445
   87MOL0     H11728   4.602   9.902   7.563  0.2615 -0.9950 -0.2524
   87MOL0     H11729   2.952   9.994   8.098 -2.6737 -2.0328 -1.5493
   87MOL0     H11730   2.753   9.919   8.232 -1.2377  0.6874 -1.8667
   87MOL0     H11731   2.371  10.032   8.416 -1.4301  1.3509  1.8112
   87MOL0     H11732   2.186   9.914   8.473  1.2010 -0.1057 -1.6025
   87MOL0     H11733   2.040   9.713   8.523  0.8705  1.1108 -0.5831
   87MOL0     H11734   2.027   9.841   8.651 -0.3328 -0.6201  0.6474
   87MOL0     H11735   1.994   9.665   8.820 -0.4342 -1.6343  0.5542
   87MOL0     H11736   1.991   9.541   8.699 -1.1340 -0.4212  0.6011
   87MOL0     H11737   1.781   9.656   8.601 -3.2848 -0.1670  0.5742
   87MOL0     H11738   1.804   9.786   8.716 -0.8211  0.3868 -4.9859
   87MOL0     H11739   1.619   9.623   8.758 -0.7625  0.8301  0.8356
   87MOL0     H11740   1.732   9.489   8.766  0.8259  0.1657  0.5229
   87MOL0     H11741   1.769   9.686   9.145  0.7769  0.2779 -1.0576
   87MOL0     H11742   2.430   9.698   8.770  0.3323 -0.0603 -0.3294
   87MOL0     H11743   2.728   9.788   8.644 -2.4307  0.6418 -1.5244
   87MOL0     H11744   2.678   9.893   8.789 -0.9784 -0.0650  0.6569
   87MOL0     H11745   2.639   9.723   8.796 -0.6381 -1.8267 -1.2205
   88MOL0     O11746   4.549   0.251   6.647 -0.3413 -0.2114  0.4939
   88MOL0     C11747   4.519   0.373   6.646  0.2165 -0.5595  0.3693
   88MOL0     O11748   4.598   0.477   6.675  0.4088 -0.4826 -0.5168
   88MOL0     C11749   4.718   0.445   6.734 -0.8272  0.5751  0.2665
   88MOL0     C11750   4.837   0.476   6.668  0.6532 -0.4353  0.9355
   88MOL0     C11751   4.956   0.444   6.724 -0.1256  1.0673 -0.1139
   88MOL0     C11752   4.960   0.387   6.844 -0.9562  0.1234 -0.8069
   88MOL0     O11753   5.089   0.360   6.893  0.2055 -0.2205 -0.0617
   88MOL0     C11754   5.118   0.325   7.030 -0.7283 -0.0235 -1.1114
   88MOL0     C11755   5.127   0.463   7.111 -0.7357  0.8476 -0.0133
   88MOL0     C11756   5.248   0.557   7.059  0.7154  0.1263  0.4808
   88MOL0     C11757   5.369   0.557   7.147  0.4395 -1.2595  0.5063
   88MOL0     C11758   5.484   0.622   7.076 -0.6011  0.5889 -0.9901
   88MOL0     C11759   5.604   0.619   7.163  0.1817 -0.9046 -0.1291
   88MOL0     C11760   5.709   0.706   7.092  0.6413 -0.0681 -0.5693
   88MOL0     C11761   5.838   0.714   7.179  0.1262 -0.4174  0.1503
   88MOL0     N11762   5.924   0.823   7.119  0.2703 -0.7301 -0.4210
   88MOL0     C11763   5.975   0.933   7.176 -0.0709  0.8288 -1.5716
   88MOL0     C11764   6.064   0.987   7.090  0.3482 -0.6007  0.4967
   88MOL0     C11765   6.147   1.104   7.106 -0.5190 -0.3107  0.3710
   88MOL0     C11766   6.286   1.071   7.182  0.7501 -1.3024  0.0618
   88MOL0     C11767   6.369   0.975   7.100  1.5117 -0.4170  1.0930
   88MOL0     C11768   6.512   0.961   7.152  0.5114  0.0662 -0.2205
   88MOL0     O11769   6.588   0.934   7.033 -0.6483  0.1861  0.3540
   88MOL0     C11770   6.724   0.953   7.043 -0.1191 -0.6650  0.5510
   88MOL0     C11771   6.804   0.953   7.161 -1.1849  0.5993  0.8017
   88MOL0     C11772   6.946   0.970   7.156 -0.3753  0.3199  0.1904
   88MOL0     C11773   7.010   1.000   7.033  0.7641  0.3945  0.2847
   88MOL0     C11774   7.153   1.025   7.032 -0.5228 -0.4092 -0.3835
   88MOL0     O11775   7.220   1.014   7.149  0.3419 -0.0375 -0.0127
   88MOL0     C11776   7.351   1.022   7.147 -0.0355  0.2039  1.0697
   88MOL0     C11777   7.417   1.143   7.173 -0.2088  0.1368  0.3335
   88MOL0     C11778   7.554   1.144   7.171  0.0149 -0.4843 -0.1147
   88MOL0     C11779   7.631   1.051   7.120  0.6895  0.2969 -0.3658
   88MOL0     O11780   7.764   1.081   7.128 -0.5216  0.5760  0.1895
   88MOL0     C11781   7.862   0.980   7.074  0.4297 -0.3431  0.5386
   88MOL0     C11782   8.009   1.047   7.040  0.2868 -0.1375  0.1066
   88MOL0     C11783   8.102   1.050   7.163  0.0484 -0.7355  0.3539
   88MOL0     C11784   8.213   1.158   7.155  0.9341 -0.0251 -0.2355
   88MOL0     C11785   8.304   1.143   7.268  0.6861 -0.0849 -0.3385
   88MOL0     C11786   8.392   1.280   7.272 -0.6782  0.0915 -0.0193
   88MOL0     C11787   8.487   1.260   7.392 -0.1692  0.0701  0.8273
   88MOL0     C11788   8.551   1.385   7.435 -0.4230  0.2742 -0.5934
   88MOL0    Cl11789   8.701   1.415   7.355  0.7172 -0.5475  0.0490
   88MOL0     C11790   7.564   0.931   7.073 -0.5626  0.6587 -1.4785
   88MOL0     C11791   7.424   0.919   7.095 -0.2514  0.3840  0.6722
   88MOL0     O11792   7.210   1.050   6.926  0.5656  0.7166 -0.6254
   88MOL0     C11793   6.929   1.005   6.914 -1.5776  0.5473  0.4500
   88MOL0     C11794   6.792   0.985   6.916  0.1328  1.4375 -0.0630
   88MOL0     N11795   6.068   0.903   6.982  0.5962  0.3541 -0.1752
   88MOL0     N11796   5.983   0.803   6.999 -0.2594 -0.1546  0.0578
   88MOL0     C11797   4.845   0.359   6.919  0.4031 -0.6647  0.5675
   88MOL0     C11798   4.719   0.384   6.857 -0.0799  0.4086  0.2767
   88MOL0     C11799   4.382   0.403   6.603  1.2836 -0.4637 -0.5700
   88MOL0     C11800   4.351   0.539   6.586  0.3849  0.0177 -0.7481
   88MOL0     C11801   4.224   0.587   6.571 -0.0166 -0.3221  0.6349
   88MOL0     C11802   4.121   0.501   6.563 -0.0764 -0.6433  0.0802
   88MOL0     O11803   3.995   0.538   6.537 -0.3709  0.1705  0.5098
   88MOL0     C11804   3.969   0.679   6.511  0.1189  0.5033  0.6347
   88MOL0     C11805   3.818   0.693   6.524 -0.2536  0.5400  0.1400
   88MOL0     C11806   3.767   0.840   6.501 -0.2467 -0.0689  0.0650
   88MOL0     C11807   3.768   0.865   6.351  0.0952 -0.0538 -0.2552
   88MOL0     C11808   3.662   0.970   6.331 -0.3286  0.1766  0.0540
   88MOL0     C11809   3.570   1.042   6.316  0.1524 -0.6217  0.6025
   88MOL0     C11810   4.145   0.366   6.565  0.5888 -0.7314 -1.1054
   88MOL0     C11811   4.272   0.307   6.589 -0.1887 -0.6695  0.4793
   88MOL0     C11812   4.286   0.158   6.607 -0.5578 -0.1870 -0.2563
   88MOL0     H11813   4.826   0.510   6.566 -1.3418 -3.3338  0.0356
   88MOL0     H11814   5.051   0.452   6.672  0.0068  2.6226  0.3114
   88MOL0     H11815   5.041   0.254   7.060  0.4759 -0.1674  2.0149
   88MOL0     H11816   5.215   0.276   7.042 -0.3960  0.8131 -0.1829
   88MOL0     H11817   5.126   0.429   7.215 -1.6766 -2.0134 -0.8645
   88MOL0     H11818   5.041   0.528   7.092  0.0408  1.3754 -1.9554
   88MOL0     H11819   5.209   0.659   7.049  0.4047  0.0578  0.9696
   88MOL0     H11820   5.267   0.527   6.956 -4.0988 -0.8183 -0.3612
   88MOL0     H11821   5.347   0.621   7.233  2.3939  1.4214 -0.8667
   88MOL0     H11822   5.396   0.454   7.172  1.7982 -1.1197 -0.3338
   88MOL0     H11823   5.504   0.567   6.983  1.3166 -1.2194  0.3842
   88MOL0     H11824   5.455   0.726   7.058  0.8857  1.4073  0.9693
   88MOL0     H11825   5.577   0.658   7.262  1.5243 -0.4118  0.0551
   88MOL0     H11826   5.634   0.516   7.179  1.1618 -0.3512  2.0485
   88MOL0     H11827   5.670   0.807   7.084 -1.0307 -0.4972  1.3541
   88MOL0     H11828   5.740   0.664   6.995  0.4312  0.2934 -0.7917
   88MOL0     H11829   5.806   0.746   7.279  1.9587 -3.3789  1.8350
   88MOL0     H11830   5.891   0.619   7.177  0.1068 -0.5075  2.0372
   88MOL0     H11831   5.941   0.972   7.271  1.4375 -1.1329 -0.1480
   88MOL0     H11832   6.178   1.129   7.004  1.4696 -0.7640  0.8226
   88MOL0     H11833   6.096   1.197   7.134  3.6322  2.2208  0.4021
   88MOL0     H11834   6.352   1.158   7.176 -1.0954  0.1412 -0.2418
   88MOL0     H11835   6.262   1.037   7.283  0.6954  2.2098  1.3437
   88MOL0     H11836   6.369   1.015   6.998 -0.9279 -0.6666  0.9375
   88MOL0     H11837   6.322   0.877   7.096 -1.3746  0.8904  0.3611
   88MOL0     H11838   6.519   0.882   7.227  2.3887  0.4958  0.1131
   88MOL0     H11839   6.539   1.063   7.183  1.0641  0.4396 -1.8444
   88MOL0     H11840   6.764   0.927   7.258  1.0189 -0.7740  1.4115
   88MOL0     H11841   7.009   0.944   7.240 -0.7105  2.3687  1.1334
   88MOL0     H11842   7.378   1.227   7.229 -0.3101 -0.3525  1.0174
   88MOL0     H11843   7.599   1.238   7.202  0.1071 -1.3329  2.5717
   88MOL0     H11844   7.881   0.896   7.142  1.5788 -0.3753  0.2055
   88MOL0     H11845   7.828   0.938   6.979  2.1137  0.5672 -0.5130
   88MOL0     H11846   8.064   0.979   6.976  2.6831  1.3255  0.5025
   88MOL0     H11847   7.996   1.144   6.991  0.4580 -0.5126 -0.6885
   88MOL0     H11848   8.032   1.065   7.246 -1.2215 -0.8606 -0.6711
   88MOL0     H11849   8.142   0.949   7.177  1.0992 -0.8988 -2.9732
   88MOL0     H11850   8.180   1.261   7.145 -0.1524 -0.1240  1.8421
   88MOL0     H11851   8.261   1.127   7.061 -0.0533 -2.9039  0.1031
   88MOL0     H11852   8.354   1.046   7.276  0.6414 -0.1428 -0.7703
   88MOL0     H11853   8.238   1.146   7.355 -0.7169  2.4338 -1.3775
   88MOL0     H11854   8.453   1.282   7.181 -0.5351 -4.0981 -0.2041
   88MOL0     H11855   8.329   1.367   7.290 -1.9899 -0.7959 -0.1986
   88MOL0     H11856   8.568   1.194   7.360 -0.0296  1.0603 -1.0287
   88MOL0     H11857   8.444   1.212   7.480  1.0019 -3.3579 -0.3199
   88MOL0     H11858   8.481   1.469   7.430  0.3622  0.8991 -1.1691
   88MOL0     H11859   8.573   1.375   7.542 -2.3425  2.1682  0.0542
   88MOL0     H11860   7.626   0.859   7.020  2.0559  1.9385 -0.3803
   88MOL0     H11861   7.376   0.829   7.057  0.4922 -0.4050  1.5725
   88MOL0     H11862   6.989   1.026   6.826 -1.1789 -1.5970  0.1441
   88MOL0     H11863   6.730   0.985   6.828  0.4018  1.0117 -0.2572
   88MOL0     H11864   4.852   0.315   7.018  2.6234 -0.3663  0.5928
   88MOL0     H11865   4.631   0.353   6.912 -0.1156 -0.6841 -0.3626
   88MOL0     H11866   4.417   0.624   6.600 -1.2791  1.7291 -2.6332
   88MOL0     H11867   4.210   0.694   6.566  1.5961 -0.1050  0.0103
   88MOL0     H11868   4.011   0.708   6.415  1.8501 -0.2285  1.1430
   88MOL0     H11869   4.009   0.746   6.588 -4.0571  2.4796  1.3899
   88MOL0     H11870   3.783   0.665   6.624 -0.6628  0.3790 -0.0479
   88MOL0     H11871   3.780   0.621   6.452 -0.2457 -0.2174  0.8736
   88MOL0     H11872   3.842   0.909   6.541  2.3693 -1.6996 -1.7295
   88MOL0     H11873   3.668   0.851   6.547 -0.8842  2.0143 -1.6868
   88MOL0     H11874   3.865   0.902   6.315  0.1831  1.8360  1.7598
   88MOL0     H11875   3.738   0.784   6.283 -0.0957 -0.5459  0.4067
   88MOL0     H11876   3.481   1.096   6.289 -0.4429 -2.0149 -0.3607
   88MOL0     H11877   4.054   0.307   6.563  1.1427 -1.7795  1.6515
   88MOL0     H11878   4.367   0.132   6.539 -2.1277 -0.6657 -2.0361
   88MOL0     H11879   4.312   0.128   6.709  1.1234  0.7832 -0.3654
   88MOL0     H11880   4.192   0.109   6.581 -1.1124  0.0693  1.1470
   89MOL0     O11881   3.120   3.669   0.009  0.2211 -0.5817  0.2438
   89MOL0     C11882   3.064   3.696   0.111 -0.3118 -0.1834  0.0435
   89MOL0     O11883   3.116   3.760   0.214 -0.7550 -0.5541  0.1150
   89MOL0     C11884   3.250   3.796   0.200  0.8085  0.8757  0.2897
   89MOL0     C11885   3.354   3.713   0.167  0.8870  0.0417 -0.3958
   89MOL0     C11886   3.485   3.766   0.160  0.9914  0.5422  0.2078
   89MOL0     C11887   3.511   3.904   0.193  0.2436 -0.4318 -0.2125
   89MOL0     O11888   3.638   3.956   0.190 -0.3161  0.0297 -0.0006
   89MOL0     C11889   3.685   3.965   0.054 -0.9822 -1.2185  0.6438
   89MOL0     C11890   3.806   4.072   0.047  0.7876  0.3715 -0.3798
   89MOL0     C11891   3.868   4.098  -0.085  0.2497  0.8651  0.7857
   89MOL0     C11892   3.925   3.968  -0.148 -0.1983 -0.2558 -0.1888
   89MOL0     C11893   4.073   3.991  -0.200  0.7604  0.0223  0.3044
   89MOL0     C11894   4.180   4.000  -0.085  1.4211 -0.2659 -0.2878
   89MOL0     C11895   4.311   4.021  -0.155  0.1333 -0.0785 -0.0880
   89MOL0     C11896   4.333   4.153  -0.217  0.5267  0.3773 -0.5971
   89MOL0     N11897   4.450   4.139  -0.311  0.4738 -0.5025 -0.4540
   89MOL0     C11898   4.446   4.092  -0.438 -0.5953 -0.5012 -0.2087
   89MOL0     C11899   4.577   4.061  -0.473  0.3019  0.4408  0.6251
   89MOL0     C11900   4.625   3.982  -0.591  0.5074 -0.3975  0.4212
   89MOL0     C11901   4.547   3.849  -0.608 -0.2379  0.1210 -0.6044
   89MOL0     C11902   4.603   3.752  -0.711  0.3079 -0.6591 -0.3165
   89MOL0     C11903   4.504   3.649  -0.749 -0.2727 -0.2697  0.7018
   89MOL0     O11904   4.391   3.713  -0.823 -0.1929 -0.4544  0.6028
   89MOL0     C11905   4.402   3.710  -0.962  0.0932  0.1430  0.6311
   89MOL0     C11906   4.515   3.687  -1.039  0.1808  0.2370 -0.5518
   89MOL0     C11907   4.507   3.674  -1.173 -0.3508 -0.2177 -0.2747
   89MOL0     C11908   4.386   3.704  -1.235 -0.9381 -0.9420  1.1551
   89MOL0     C11909   4.379   3.689  -1.384 -0.0615  0.6895  0.6341
   89MOL0     O11910   4.502   3.653  -1.452 -0.3189 -0.5357 -0.0756
   89MOL0     C11911   4.494   3.614  -1.579  0.5962 -0.4278 -0.0829
   89MOL0     C11912   4.415   3.506  -1.618 -0.0772 -0.2996 -0.5335
   89MOL0     C11913   4.423   3.467  -1.755  0.6945 -0.3616  0.4044
   89MOL0     C11914   4.499   3.540  -1.854  0.3906 -0.3795 -0.4842
   89MOL0     O11915   4.510   3.490  -1.976  0.8619  0.0413 -0.2744
   89MOL0     C11916   4.423   3.386  -2.025 -0.1141  0.5503 -1.0434
   89MOL0     C11917   4.455   3.336  -2.169 -0.2559 -0.0292  1.0335
   89MOL0     C11918   4.556   3.210  -2.171  0.1713  1.0064  0.2472
   89MOL0     C11919   4.618   3.170  -2.300  0.1689 -0.5880  0.5503
   89MOL0     C11920   4.720   3.285  -2.346  0.5500  0.5330 -0.0604
   89MOL0     C11921   4.740   3.285  -2.493  0.7752  0.7338  0.3145
   89MOL0     C11922   4.851   3.380  -2.528  0.3263 -0.8512 -0.0534
   89MOL0     C11923   4.900   3.371  -2.673 -0.9131 -0.9088 -0.1360
   89MOL0    Cl11924   5.022   3.494  -2.702 -0.1107 -0.2536 -0.4598
   89MOL0     C11925   4.579   3.640  -1.806  0.1855 -0.2582  0.3219
   89MOL0     C11926   4.566   3.690  -1.680 -0.9023  0.2155 -0.0686
   89MOL0     O11927   4.275   3.718  -1.445 -0.3255  0.5105  0.6981
   89MOL0     C11928   4.272   3.738  -1.165  0.1035  0.1829  0.0348
   89MOL0     C11929   4.279   3.739  -1.028  0.3493  0.1788 -0.6209
   89MOL0     N11930   4.653   4.099  -0.363 -0.2816  0.0048 -0.3384
   89MOL0     N11931   4.582   4.152  -0.272 -0.4188 -0.2639  0.7648
   89MOL0     C11932   3.402   3.981   0.242  0.6845 -0.1053 -0.0647
   89MOL0     C11933   3.276   3.931   0.245  0.4129  0.7067 -0.3016
   89MOL0     C11934   2.937   3.631   0.147  0.8798  0.0435  0.1335
   89MOL0     C11935   2.880   3.655   0.275 -0.6629  0.0495 -0.0031
   89MOL0     C11936   2.764   3.595   0.319 -0.0804 -0.8001 -0.0433
   89MOL0     C11937   2.687   3.521   0.231  0.2316 -0.1242  0.2581
   89MOL0     O11938   2.571   3.447   0.276 -0.7119 -0.3974  0.3772
   89MOL0     C11939   2.532   3.454   0.412 -0.9740 -0.0563 -0.8178
   89MOL0     C11940   2.411   3.351   0.428 -0.0671 -0.0299  0.0347
   89MOL0     C11941   2.397   3.309   0.569 -0.1939 -0.2568 -0.3351
   89MOL0     C11942   2.303   3.190   0.592 -0.0513 -1.4015  0.2244
   89MOL0     C11943   2.176   3.203   0.514 -0.1770  0.5732  0.1122
   89MOL0     C11944   2.079   3.239   0.460 -0.1677 -0.2689  0.0790
   89MOL0     C11945   2.730   3.507   0.100 -0.4888 -0.1201  0.4611
   89MOL0     C11946   2.858   3.562   0.059  0.0017  0.2938  0.2563
   89MOL0     C11947   2.905   3.523  -0.084  0.6047 -0.0630  0.0409
   89MOL0     H11948   3.348   3.607   0.142  4.8782  0.1290 -2.6100
   89MOL0     H11949   3.559   3.691   0.136 -1.9100 -2.5622  0.2226
   89MOL0     H11950   3.716   3.865   0.021  2.2481  0.0787 -0.8005
   89MOL0     H11951   3.602   3.992  -0.012 -0.7759 -2.1760 -0.0202
   89MOL0     H11952   3.879   4.051   0.127 -0.7474  0.1183  0.9991
   89MOL0     H11953   3.750   4.159   0.083  1.7282  0.2992  1.3796
   89MOL0     H11954   3.948   4.170  -0.069  0.1532  1.5773 -1.6409
   89MOL0     H11955   3.794   4.142  -0.153  0.7928  0.9539  0.2510
   89MOL0     H11956   3.915   3.887  -0.076 -3.4576 -0.8229 -1.1217
   89MOL0     H11957   3.854   3.947  -0.229 -1.7925 -0.8772  1.3159
   89MOL0     H11958   4.097   3.914  -0.274 -0.4985  1.9935 -2.3378
   89MOL0     H11959   4.071   4.089  -0.249 -0.0678  0.2360  0.7449
   89MOL0     H11960   4.167   4.081  -0.012  0.3378 -1.9964  1.5561
   89MOL0     H11961   4.183   3.905  -0.031  0.0154 -0.8147 -1.1241
   89MOL0     H11962   4.316   3.945  -0.234  0.3731 -2.2601  1.8929
   89MOL0     H11963   4.398   4.007  -0.090 -0.7052 -0.5997  0.9637
   89MOL0     H11964   4.249   4.191  -0.275  0.5484 -2.1957 -2.5075
   89MOL0     H11965   4.354   4.229  -0.142  2.1299 -0.6554  0.0469
   89MOL0     H11966   4.361   4.045  -0.486 -1.2343  1.2629 -0.9023
   89MOL0     H11967   4.622   4.044  -0.682  0.8597 -1.9032 -0.6587
   89MOL0     H11968   4.731   3.954  -0.585  1.6676  2.1015 -3.7612
   89MOL0     H11969   4.542   3.801  -0.510 -1.5020  2.0496  0.3444
   89MOL0     H11970   4.446   3.882  -0.636 -1.0510 -0.0881  1.8310
   89MOL0     H11971   4.696   3.704  -0.678 -0.9093 -1.2855  2.4783
   89MOL0     H11972   4.634   3.819  -0.791 -0.1353  0.2141  0.2258
   89MOL0     H11973   4.470   3.596  -0.660  2.2417  0.2754  2.0680
   89MOL0     H11974   4.545   3.577  -0.821  0.8546 -0.2351  1.2960
   89MOL0     H11975   4.613   3.665  -0.997 -0.1361 -1.9017 -0.8440
   89MOL0     H11976   4.594   3.655  -1.235 -0.6855  0.4998 -0.9813
   89MOL0     H11977   4.356   3.436  -1.559  0.2121 -0.6557 -0.6630
   89MOL0     H11978   4.368   3.378  -1.785 -0.6080  0.8419 -0.9493
   89MOL0     H11979   4.422   3.292  -1.970 -0.7752  0.6455 -0.8868
   89MOL0     H11980   4.323   3.430  -2.028 -0.4953  0.4909  3.5117
   89MOL0     H11981   4.366   3.302  -2.224  1.5196 -0.5085 -1.7137
   89MOL0     H11982   4.498   3.421  -2.222 -1.5595 -0.2364 -0.4458
   89MOL0     H11983   4.628   3.227  -2.090 -0.8376 -1.5786  1.8169
   89MOL0     H11984   4.506   3.123  -2.126 -0.0973  1.7138  1.3759
   89MOL0     H11985   4.539   3.151  -2.374  1.0844  2.5943 -1.4442
   89MOL0     H11986   4.673   3.075  -2.304 -0.4654 -0.9206 -1.8537
   89MOL0     H11987   4.813   3.271  -2.289  1.1027 -5.0261 -1.7585
   89MOL0     H11988   4.689   3.386  -2.317  1.5140  0.2101  2.3845
   89MOL0     H11989   4.764   3.186  -2.535  1.1814  1.3916 -1.0514
   89MOL0     H11990   4.652   3.321  -2.546  1.1853 -0.4745 -1.2713
   89MOL0     H11991   4.939   3.361  -2.466  0.5621  2.6016  0.8857
   89MOL0     H11992   4.818   3.483  -2.511  0.6319 -0.8149  0.3325
   89MOL0     H11993   4.937   3.270  -2.691  0.7770 -0.5676  1.1873
   89MOL0     H11994   4.819   3.396  -2.743 -0.8626  0.1957  0.1829
   89MOL0     H11995   4.639   3.696  -1.877 -1.4482  0.2640 -0.7132
   89MOL0     H11996   4.620   3.778  -1.648  0.2051 -0.1439 -0.8860
   89MOL0     H11997   4.185   3.774  -1.218  1.8937  1.8138 -1.9641
   89MOL0     H11998   4.196   3.765  -0.962 -1.6173 -2.3868 -1.8922
   89MOL0     H11999   3.424   4.082   0.276  0.1762  0.0940 -0.3284
   89MOL0     H12000   3.192   3.986   0.287 -0.9968 -1.3879 -0.2266
   89MOL0     H12001   2.934   3.719   0.344  0.6097 -1.3476  0.3477
   89MOL0     H12002   2.726   3.607   0.420  0.0552  1.3593 -0.2057
   89MOL0     H12003   2.493   3.551   0.444 -1.0174 -0.5053  0.5725
   89MOL0     H12004   2.615   3.421   0.475 -3.8681 -2.6576  2.0059
   89MOL0     H12005   2.437   3.271   0.359  1.7919 -0.1317  0.7995
   89MOL0     H12006   2.325   3.406   0.390 -2.2495 -3.5473 -0.5708
   89MOL0     H12007   2.353   3.390   0.628 -2.3489 -1.3184 -0.3659
   89MOL0     H12008   2.497   3.282   0.603  0.4449  3.2582  0.9471
   89MOL0     H12009   2.362   3.103   0.563  0.6566 -0.5456 -0.9887
   89MOL0     H12010   2.287   3.182   0.699  1.8521  1.6517  0.8612
   89MOL0     H12011   1.988   3.273   0.414 -0.2273  0.3978  0.6600
   89MOL0     H12012   2.669   3.449   0.031 -1.8246  0.6900  0.9436
   89MOL0     H12013   2.812   3.494  -0.134  1.4030 -2.2254 -0.3077
   89MOL0     H12014   2.952   3.597  -0.149 -1.1090  0.4929 -0.6266
   89MOL0     H12015   2.981   3.446  -0.071  1.3727  0.2908 -2.0605
   90MOL0     O12016   4.249   6.713   5.441 -0.3268 -0.4376 -0.4257
   90MOL0     C12017   4.179   6.780   5.513  0.7426 -0.4194 -1.0269
   90MOL0     O12018   4.231   6.870   5.607 -0.0824  0.4230 -0.5223
   90MOL0     C12019   4.367   6.885   5.617 -0.2483 -0.5389 -0.9212
   90MOL0     C12020   4.409   7.019   5.624 -0.1951 -0.6423  0.3803
   90MOL0     C12021   4.544   7.057   5.632 -0.5257  0.0756  0.0792
   90MOL0     C12022   4.640   6.954   5.621  0.0216  0.3681  0.6615
   90MOL0     O12023   4.778   6.964   5.615  0.2559  0.1859 -0.6896
   90MOL0     C12024   4.853   7.085   5.625 -0.4088  0.2224 -0.0380
   90MOL0     C12025   4.995   7.026   5.631  0.1908 -0.1069 -0.3553
   90MOL0     C12026   5.055   6.940   5.517  0.5020 -0.5518  0.6882
   90MOL0     C12027   5.193   6.995   5.489  0.6609 -0.0627  0.5660
   90MOL0     C12028   5.300   6.966   5.598  0.1886  0.1751 -0.1267
   90MOL0     C12029   5.442   7.010   5.560 -0.6812  0.2442 -0.7927
   90MOL0     C12030   5.545   6.999   5.675 -0.2357 -0.2951 -0.0138
   90MOL0     C12031   5.684   7.038   5.622  0.4244 -0.1115 -0.2809
   90MOL0     N12032   5.778   7.057   5.729  0.2345 -1.4307  0.3409
   90MOL0     C12033   5.858   6.958   5.773 -0.7908  0.1645 -0.1380
   90MOL0     C12034   5.950   7.023   5.853  0.4039 -0.1570 -0.5705
   90MOL0     C12035   6.057   6.947   5.927  0.9531  0.3267 -0.3006
   90MOL0     C12036   6.200   7.003   5.902 -0.0977 -0.7202 -0.1333
   90MOL0     C12037   6.306   6.920   5.977 -0.2151  0.1863  0.0876
   90MOL0     C12038   6.452   6.976   5.935 -0.4390  0.8206  0.4593
   90MOL0     O12039   6.549   6.905   6.021 -0.0577 -0.1412 -0.2340
   90MOL0     C12040   6.678   6.941   6.006  0.4869  0.5399  0.3724
   90MOL0     C12041   6.771   6.895   6.097  0.4291  0.5225 -0.7142
   90MOL0     C12042   6.901   6.922   6.089 -0.6002  0.2854  0.1563
   90MOL0     C12043   6.960   7.001   5.986  0.7141  0.1572  0.9627
   90MOL0     C12044   7.104   7.038   5.981  0.2440  0.1074 -0.1309
   90MOL0     O12045   7.177   6.998   6.087  0.1981  0.7102  0.5011
   90MOL0     C12046   7.303   7.024   6.112 -0.9088  0.3899 -0.6299
   90MOL0     C12047   7.399   7.088   6.029  0.0577  0.4152 -0.5241
   90MOL0     C12048   7.530   7.090   6.073 -0.3074 -0.1905 -1.2963
   90MOL0     C12049   7.576   7.054   6.206  0.0320 -0.7749  0.7366
   90MOL0     O12050   7.710   7.067   6.259  0.2570 -0.0475 -0.0166
   90MOL0     C12051   7.814   7.085   6.159 -0.5112  0.5459  0.0024
   90MOL0     C12052   7.953   7.058   6.213  0.0785 -0.3550  0.0594
   90MOL0     C12053   7.989   7.157   6.323  0.4692  0.4897 -0.5369
   90MOL0     C12054   8.131   7.145   6.367 -0.7365 -0.0694 -0.3801
   90MOL0     C12055   8.158   7.232   6.498  0.5242  0.6294  0.1159
   90MOL0     C12056   8.308   7.233   6.526  0.1511  1.1519 -0.2362
   90MOL0     C12057   8.387   7.101   6.535  0.0349  0.0913 -0.0338
   90MOL0     C12058   8.533   7.115   6.584  1.0610 -0.2434  0.8649
   90MOL0    Cl12059   8.529   7.147   6.760 -0.5948 -0.2653  0.0039
   90MOL0     C12060   7.476   6.999   6.283  0.8368 -0.2563 -0.4135
   90MOL0     C12061   7.344   6.987   6.238  0.3920 -0.2408 -0.5255
   90MOL0     O12062   7.151   7.091   5.879  0.4633 -0.2644  0.5550
   90MOL0     C12063   6.870   7.050   5.886 -0.0687  0.6466 -0.4922
   90MOL0     C12064   6.735   7.016   5.904 -1.1611  0.5186  0.3954
   90MOL0     N12065   5.928   7.154   5.851  0.0806  0.0509  0.4685
   90MOL0     N12066   5.830   7.177   5.769 -0.2784  0.3664  1.2636
   90MOL0     C12067   4.602   6.819   5.611  1.0282 -0.3965 -1.1597
   90MOL0     C12068   4.467   6.781   5.620 -0.1307 -0.0764  1.3903
   90MOL0     C12069   4.029   6.768   5.516 -0.1390  0.2406  0.1185
   90MOL0     C12070   3.955   6.870   5.573 -0.3223 -0.0165 -1.4179
   90MOL0     C12071   3.815   6.859   5.605 -0.5631  0.2109  0.0215
   90MOL0     C12072   3.752   6.736   5.570  0.4586  0.5026 -0.4608
   90MOL0     O12073   3.622   6.705   5.620  0.5759 -0.3183 -0.0342
   90MOL0     C12074   3.522   6.653   5.520 -0.0214 -0.5681  0.0567
   90MOL0     C12075   3.489   6.748   5.406  0.2281 -0.1978 -0.2857
   90MOL0     C12076   3.386   6.682   5.301 -0.3066 -0.7512  0.3174
   90MOL0     C12077   3.388   6.767   5.167  0.0524  0.9241 -0.6782
   90MOL0     C12078   3.347   6.902   5.196  0.1422  0.0908 -0.1562
   90MOL0     C12079   3.312   7.017   5.187  0.3427  0.3185  0.3619
   90MOL0     C12080   3.821   6.642   5.492 -0.1377  0.0859  0.1444
   90MOL0     C12081   3.961   6.658   5.458  0.0720 -0.9448  0.9710
   90MOL0     C12082   4.032   6.548   5.380 -0.0381  0.4725 -0.2898
   90MOL0     H12083   4.333   7.095   5.612  1.3926  0.8858 -0.4582
   90MOL0     H12084   4.566   7.163   5.619  1.6665 -0.3183  0.2254
   90MOL0     H12085   4.849   7.151   5.538 -2.2022  3.2678  2.1593
   90MOL0     H12086   4.830   7.132   5.721  1.8745  0.4831  0.4381
   90MOL0     H12087   5.013   6.968   5.722  0.7877  1.7275  0.7638
   90MOL0     H12088   5.063   7.112   5.634  1.7315 -1.2856  0.1238
   90MOL0     H12089   4.996   6.945   5.425  1.7422  0.0457 -0.0947
   90MOL0     H12090   5.060   6.835   5.546  2.5893 -0.6284  0.1684
   90MOL0     H12091   5.222   6.958   5.390 -0.3531  2.9071 -0.9685
   90MOL0     H12092   5.183   7.103   5.472 -3.0070 -0.3914 -0.1266
   90MOL0     H12093   5.268   7.015   5.691  0.1210  0.0387 -0.0777
   90MOL0     H12094   5.301   6.862   5.632  1.5769  0.6932  1.5601
   90MOL0     H12095   5.475   6.943   5.480 -2.1954  0.5943 -1.7436
   90MOL0     H12096   5.443   7.117   5.540  3.2982  0.6700  0.6366
   90MOL0     H12097   5.539   6.897   5.714 -0.5640 -0.2159  0.1510
   90MOL0     H12098   5.516   7.061   5.761 -2.0010 -2.6621  1.2097
   90MOL0     H12099   5.727   6.965   5.553  3.3750  2.4531 -1.3911
   90MOL0     H12100   5.669   7.129   5.563  0.6203 -0.1357 -0.3700
   90MOL0     H12101   5.845   6.851   5.764  0.7052  0.0092 -0.7488
   90MOL0     H12102   6.045   6.947   6.036  1.1447 -1.7032 -0.2247
   90MOL0     H12103   6.057   6.841   5.898  1.1140 -0.3611  1.9731
   90MOL0     H12104   6.212   6.998   5.793  2.5095 -2.0936  0.1295
   90MOL0     H12105   6.217   7.107   5.932  2.0074 -1.0859  0.0850
   90MOL0     H12106   6.292   6.815   5.949  0.1557  0.2631 -0.4164
   90MOL0     H12107   6.290   6.943   6.082 -1.9911 -0.5118 -0.0096
   90MOL0     H12108   6.455   7.081   5.964  1.9688  0.3784  2.1148
   90MOL0     H12109   6.478   6.965   5.829  1.5736  0.1375  0.9691
   90MOL0     H12110   6.732   6.833   6.177 -3.4859  0.5311 -2.3857
   90MOL0     H12111   6.947   6.892   6.183 -1.4138 -1.0380  0.1485
   90MOL0     H12112   7.363   7.127   5.935 -2.2863  2.6803  1.1773
   90MOL0     H12113   7.602   7.150   6.018  0.3978  1.8058  1.5791
   90MOL0     H12114   7.802   7.018   6.073  2.0201  2.2715 -1.8252
   90MOL0     H12115   7.807   7.185   6.114 -1.7831 -1.2085 -4.3034
   90MOL0     H12116   7.955   6.956   6.253 -0.2467 -1.2637 -2.0880
   90MOL0     H12117   8.031   7.073   6.137  1.2713  3.0625  1.7380
   90MOL0     H12118   7.973   7.260   6.288  0.7058  0.1638 -1.6243
   90MOL0     H12119   7.914   7.137   6.399  1.6418  0.6610  0.7078
   90MOL0     H12120   8.194   7.183   6.286  1.0328 -1.7283  0.1427
   90MOL0     H12121   8.149   7.038   6.382 -0.0746  0.2032  0.8577
   90MOL0     H12122   8.119   7.177   6.585  0.5857  0.5375  0.0855
   90MOL0     H12123   8.108   7.329   6.494 -1.9026 -0.5250  0.3224
   90MOL0     H12124   8.353   7.281   6.438  0.5776 -2.7368 -2.3975
   90MOL0     H12125   8.320   7.289   6.619 -0.0665  1.4533 -0.3876
   90MOL0     H12126   8.397   7.053   6.438  1.3930  0.5465 -0.1284
   90MOL0     H12127   8.340   7.033   6.608 -0.6094 -1.1619 -1.5550
   90MOL0     H12128   8.582   7.021   6.558 -2.1017 -0.7679 -4.8784
   90MOL0     H12129   8.581   7.194   6.524 -0.3955 -0.7161 -1.0397
   90MOL0     H12130   7.498   6.967   6.384 -2.6034 -2.2453 -0.1421
   90MOL0     H12131   7.280   6.935   6.309  1.3597 -1.4148 -0.4844
   90MOL0     H12132   6.898   7.111   5.801  0.9158 -2.2175 -2.3560
   90MOL0     H12133   6.672   7.074   5.838 -0.6395  2.0145  1.1676
   90MOL0     H12134   4.679   6.743   5.605  1.5651  0.2043 -2.2633
   90MOL0     H12135   4.440   6.676   5.623  2.0734 -0.8525 -1.4620
   90MOL0     H12136   4.007   6.957   5.612 -0.4906 -0.5208 -0.0055
   90MOL0     H12137   3.763   6.937   5.660 -0.7465  0.3000 -0.2771
   90MOL0     H12138   3.436   6.613   5.575 -0.1454 -0.6396 -0.1863
   90MOL0     H12139   3.561   6.566   5.466 -1.8087 -0.6201 -1.2576
   90MOL0     H12140   3.585   6.760   5.354  1.4259 -1.3439  1.5379
   90MOL0     H12141   3.452   6.843   5.446  0.6106  0.1086 -0.6591
   90MOL0     H12142   3.283   6.674   5.337 -1.8164  3.1774 -2.5025
   90MOL0     H12143   3.426   6.584   5.274 -1.0568 -1.2047  0.8286
   90MOL0     H12144   3.492   6.755   5.134 -0.1558 -1.1839 -0.7285
   90MOL0     H12145   3.320   6.726   5.092 -0.0345 -0.4675  0.1282
   90MOL0     H12146   3.294   7.123   5.190 -1.9150  0.1571 -2.5127
   90MOL0     H12147   3.769   6.550   5.466  0.4158  0.1605 -1.2845
   90MOL0     H12148   3.972   6.457   5.364 -0.5130  0.4969  1.1830
   90MOL0     H12149   4.068   6.579   5.281 -0.0437  0.3992 -0.3153
   90MOL0     H12150   4.122   6.519   5.434 -0.5314 -1.4792 -0.4268
   91MOL0     O12151   8.827   1.769   1.103  0.6724 -0.1482 -0.3807
   91MOL0     C12152   8.785   1.702   1.195 -0.0012 -0.0146 -0.5300
   91MOL0     O12153   8.859   1.597   1.259 -0.0929  0.2344 -0.1481
   91MOL0     C12154   8.994   1.592   1.253 -0.1365  0.1620 -0.2434
   91MOL0     C12155   9.062   1.485   1.188  0.0071 -0.5019 -0.0689
   91MOL0     C12156   9.204   1.480   1.177  0.7055 -0.4452 -0.3239
   91MOL0     C12157   9.273   1.582   1.240  0.2802  0.2607 -0.9130
   91MOL0     O12158   9.413   1.569   1.241  0.0533 -0.2239  0.3630
   91MOL0     C12159   9.487   1.686   1.249 -0.9279 -0.8294 -0.6643
   91MOL0     C12160   9.629   1.645   1.224  0.2794  0.6297 -0.1577
   91MOL0     C12161   9.729   1.748   1.237  0.0213 -0.1436 -0.3158
   91MOL0     C12162   9.868   1.697   1.224 -0.8607 -0.0829 -0.1978
   91MOL0     C12163   9.982   1.803   1.260  0.3654  0.4603 -0.0374
   91MOL0     C12164   9.957   1.945   1.211  0.0662 -0.0875  0.1632
   91MOL0     C12165   9.981   1.944   1.056 -0.1389 -0.0542 -0.3157
   91MOL0     C12166   9.958   2.088   0.998  0.4815 -0.2786  0.5467
   91MOL0     N12167   9.833   2.154   1.046 -0.2639  0.0411 -0.5382
   91MOL0     C12168   9.710   2.104   1.034 -0.3785  0.2231 -0.9632
   91MOL0     C12169   9.632   2.190   1.102 -0.4452 -0.0620  0.0066
   91MOL0     C12170   9.475   2.182   1.115  0.4758 -0.0372  0.6640
   91MOL0     C12171   9.396   2.239   1.000 -1.3949 -0.3363  0.3077
   91MOL0     C12172   9.256   2.267   1.039 -0.4543 -0.4000  0.4907
   91MOL0     C12173   9.240   2.378   1.140  0.5698  0.4025 -0.6645
   91MOL0     O12174   9.136   2.472   1.102 -0.9949 -1.2257  0.5961
   91MOL0     C12175   8.998   2.449   1.087 -0.5781  0.4297 -0.5434
   91MOL0     C12176   8.938   2.329   1.132 -0.5505 -0.2701 -0.6782
   91MOL0     C12177   8.799   2.300   1.129 -1.0959 -0.4191  0.4452
   91MOL0     C12178   8.719   2.410   1.092  0.1860  0.4602 -0.7201
   91MOL0     C12179   8.572   2.393   1.107 -0.0550 -0.6266  0.3094
   91MOL0     O12180   8.504   2.493   1.045 -0.2568 -0.4907 -0.5937
   91MOL0     C12181   8.368   2.504   1.056 -0.1684  0.1767  0.1770
   91MOL0     C12182   8.319   2.615   1.124  0.9258  0.0642 -0.3401
   91MOL0     C12183   8.180   2.635   1.139 -0.2345 -0.3567 -0.2165
   91MOL0     C12184   8.087   2.550   1.075  0.7421 -0.0082  0.3576
   91MOL0     O12185   7.954   2.556   1.083  0.1068  0.6005  0.1145
   91MOL0     C12186   7.897   2.668   1.158  0.0462  0.5873  0.6998
   91MOL0     C12187   7.748   2.673   1.151 -0.6556  0.2854  0.8368
   91MOL0     C12188   7.695   2.534   1.168  0.3861  0.9309  0.3409
   91MOL0     C12189   7.544   2.562   1.175 -0.9589  0.6216 -0.2936
   91MOL0     C12190   7.457   2.428   1.177  0.0648  0.1308  0.3508
   91MOL0     C12191   7.463   2.356   1.315  0.4867 -0.1386 -0.8971
   91MOL0     C12192   7.360   2.240   1.329  0.5851 -0.3366  1.0962
   91MOL0     C12193   7.217   2.282   1.370  0.0624  0.3587  0.4307
   91MOL0    Cl12194   7.181   2.298   1.544  0.1163 -0.3228  0.2189
   91MOL0     C12195   8.136   2.439   1.003  0.0240  0.4295  0.2156
   91MOL0     C12196   8.280   2.411   1.000  0.9659 -0.8559  0.8369
   91MOL0     O12197   8.520   2.298   1.162 -0.6335  0.3592 -0.3826
   91MOL0     C12198   8.775   2.534   1.043 -0.1675 -0.1906  0.3127
   91MOL0     C12199   8.910   2.548   1.043 -0.6557 -0.5079  0.8103
   91MOL0     N12200   9.712   2.293   1.159 -0.1518 -0.1596 -0.0342
   91MOL0     N12201   9.836   2.267   1.126 -0.8849 -0.5494  0.3665
   91MOL0     C12202   9.214   1.682   1.319  0.0368 -0.3631  0.4558
   91MOL0     C12203   9.072   1.681   1.323 -0.6256  0.3934 -1.0214
   91MOL0     C12204   8.635   1.692   1.211  0.5355  0.8218  0.9236
   91MOL0     C12205   8.588   1.562   1.245 -0.8480  0.1620 -1.1554
   91MOL0     C12206   8.449   1.551   1.271 -0.5739  0.4575 -0.6840
   91MOL0     C12207   8.357   1.645   1.248 -0.2422 -0.6527  0.3945
   91MOL0     O12208   8.223   1.619   1.270  0.0152  0.0363  0.6702
   91MOL0     C12209   8.124   1.719   1.221 -0.4833  0.4803  0.1852
   91MOL0     C12210   7.998   1.637   1.233 -0.0458  0.4278  0.0814
   91MOL0     C12211   7.886   1.736   1.239 -0.2896  0.3615 -0.2157
   91MOL0     C12212   7.752   1.663   1.268  0.6642 -0.0841 -0.2832
   91MOL0     C12213   7.746   1.584   1.388  1.0289  0.2889 -0.2318
   91MOL0     C12214   7.718   1.520   1.489 -0.0864 -0.1302  0.4615
   91MOL0     C12215   8.403   1.769   1.201  0.5156  0.3229  0.3154
   91MOL0     C12216   8.541   1.799   1.194 -0.1313 -0.0303  0.2116
   91MOL0     C12217   8.581   1.944   1.170  0.8108  0.3822  0.3010
   91MOL0     H12218   8.999   1.411   1.139 -0.5933 -0.3165  0.4194
   91MOL0     H12219   9.268   1.407   1.128  2.9070  0.8288  0.5125
   91MOL0     H12220   9.457   1.762   1.176 -0.4637  0.2254  0.2257
   91MOL0     H12221   9.482   1.727   1.350  0.2438 -0.0582 -0.9107
   91MOL0     H12222   9.628   1.591   1.129 -1.3143 -1.7893  1.1235
   91MOL0     H12223   9.651   1.571   1.302 -1.2160  0.1077 -0.2043
   91MOL0     H12224   9.719   1.798   1.334  0.1964 -0.8994  0.0985
   91MOL0     H12225   9.713   1.819   1.155 -1.8507 -1.8350 -1.4852
   91MOL0     H12226   9.885   1.611   1.290 -0.8008  0.9934  1.2255
   91MOL0     H12227   9.888   1.666   1.120  2.6718  1.5089 -0.1516
   91MOL0     H12228   9.987   1.815   1.368  2.4765  1.5743 -0.2006
   91MOL0     H12229  10.082   1.765   1.239  0.6449 -0.4868  2.6748
   91MOL0     H12230   9.855   1.978   1.234  0.2250 -0.9744  2.2756
   91MOL0     H12231  10.024   2.015   1.262  2.1374 -1.8891  0.0473
   91MOL0     H12232   9.902   1.883   1.013 -1.4140  0.1246  1.6329
   91MOL0     H12233  10.077   1.910   1.017 -1.1922  0.0668 -3.2161
   91MOL0     H12234  10.044   2.151   1.022 -0.7310  2.1819 -1.1496
   91MOL0     H12235   9.957   2.074   0.890 -0.2115  1.8526  0.2246
   91MOL0     H12236   9.681   2.027   0.964  0.4082 -0.8566 -0.1343
   91MOL0     H12237   9.449   2.076   1.122  2.9233 -0.9010 -1.5733
   91MOL0     H12238   9.444   2.228   1.209 -1.9226  1.8923 -0.9370
   91MOL0     H12239   9.437   2.330   0.956 -1.7303 -1.0468 -1.6007
   91MOL0     H12240   9.400   2.163   0.921  0.1282 -0.1341  0.1626
   91MOL0     H12241   9.211   2.178   1.085 -0.1240  0.3399  2.3731
   91MOL0     H12242   9.207   2.297   0.946 -0.5398  0.4916  0.8090
   91MOL0     H12243   9.329   2.441   1.128  0.0403  1.5488  1.0535
   91MOL0     H12244   9.239   2.339   1.242  0.4588 -1.6212 -1.3918
   91MOL0     H12245   9.005   2.256   1.177 -1.5289 -0.1920  0.9642
   91MOL0     H12246   8.749   2.213   1.170 -2.0320  0.4395  1.1689
   91MOL0     H12247   8.392   2.680   1.170  2.8704  0.1398 -3.2463
   91MOL0     H12248   8.155   2.725   1.193  1.7358  1.8202 -2.6936
   91MOL0     H12249   7.917   2.655   1.265  1.4831 -3.2121  0.1099
   91MOL0     H12250   7.930   2.769   1.134 -3.1601  1.5626 -0.1084
   91MOL0     H12251   7.720   2.746   1.227  0.2201  2.8474 -1.1544
   91MOL0     H12252   7.723   2.718   1.054  0.3103  0.2192  0.5552
   91MOL0     H12253   7.727   2.467   1.088 -1.1803  1.5430 -0.8540
   91MOL0     H12254   7.733   2.492   1.262  2.0309  3.1824  0.7485
   91MOL0     H12255   7.512   2.613   1.084 -0.3296 -0.2651 -1.0345
   91MOL0     H12256   7.517   2.632   1.255 -2.5517  0.2569 -0.4801
   91MOL0     H12257   7.495   2.363   1.097 -1.1191 -1.4446  1.0224
   91MOL0     H12258   7.358   2.450   1.136  1.9143  1.2411 -4.1262
   91MOL0     H12259   7.568   2.326   1.329  0.6817  0.9637  0.1274
   91MOL0     H12260   7.446   2.436   1.388  3.7285  1.8261 -2.0820
   91MOL0     H12261   7.393   2.159   1.395 -0.1828 -0.6310  1.1331
   91MOL0     H12262   7.350   2.193   1.231 -1.1031 -1.2720  1.6816
   91MOL0     H12263   7.194   2.379   1.325 -1.9424  1.3156  3.2255
   91MOL0     H12264   7.150   2.204   1.333 -1.0289  0.3241  2.3499
   91MOL0     H12265   8.077   2.363   0.952  1.0569 -0.5904  0.4890
   91MOL0     H12266   8.317   2.325   0.947  0.9860 -1.6658  2.1344
   91MOL0     H12267   8.712   2.619   1.020  0.3351  0.9786  2.8725
   91MOL0     H12268   8.950   2.646   1.017  1.4993 -0.8710  2.4586
   91MOL0     H12269   9.277   1.751   1.374  2.1247 -0.0562 -2.0798
   91MOL0     H12270   9.020   1.761   1.374 -0.3154  1.1813 -1.9113
   91MOL0     H12271   8.650   1.473   1.252  2.2636  2.1693 -0.9809
   91MOL0     H12272   8.416   1.455   1.311  0.3649 -0.0150 -1.0244
   91MOL0     H12273   8.141   1.738   1.114  2.2832 -3.6869 -0.3583
   91MOL0     H12274   8.120   1.806   1.286  0.4727  0.2395  0.5898
   91MOL0     H12275   8.001   1.581   1.327 -0.1199 -2.7053 -1.6491
   91MOL0     H12276   7.990   1.566   1.151  1.6015 -1.4812  1.4781
   91MOL0     H12277   7.879   1.790   1.144 -1.9272 -0.1781 -0.4349
   91MOL0     H12278   7.904   1.805   1.322 -0.0416 -0.0833  0.1033
   91MOL0     H12279   7.669   1.732   1.282  0.4537  0.1765 -2.5118
   91MOL0     H12280   7.728   1.603   1.180 -0.8218 -0.3318  0.2723
   91MOL0     H12281   7.702   1.458   1.574  1.1897 -0.7481  0.2772
   91MOL0     H12282   8.327   1.843   1.179 -0.4029  0.2403  2.9217
   91MOL0     H12283   8.512   1.997   1.236 -0.6433 -1.0783  0.0238
   91MOL0     H12284   8.686   1.963   1.196  0.9575 -0.4180  0.3434
   91MOL0     H12285   8.558   1.968   1.066 -1.5982  1.6514  1.0750
   92MOL0     O12286   6.566   4.010   5.251 -0.6268  0.2691  0.2204
   92MOL0     C12287   6.625   3.961   5.349  0.8167 -0.5726  1.0471
   92MOL0     O12288   6.757   3.958   5.365 -0.9538  0.4956 -0.0565
   92MOL0     C12289   6.856   3.985   5.271 -0.0262  0.1977 -0.6346
   92MOL0     C12290   6.852   4.014   5.138  0.6656 -0.7632 -0.1417
   92MOL0     C12291   6.967   4.046   5.067 -0.3917  0.1602  0.6762
   92MOL0     C12292   7.090   4.041   5.135  0.2525  1.2425  0.4613
   92MOL0     O12293   7.203   4.072   5.061  0.4122  0.6065  0.3377
   92MOL0     C12294   7.330   4.105   5.112 -0.4459  0.3256  0.5307
   92MOL0     C12295   7.404   4.163   4.991 -0.8496 -0.7195 -0.2618
   92MOL0     C12296   7.552   4.194   5.028  0.8179 -0.9964  0.0004
   92MOL0     C12297   7.629   4.070   4.986  0.4883 -0.5284 -0.6690
   92MOL0     C12298   7.789   4.070   5.022  0.2418 -0.2546  0.3790
   92MOL0     C12299   7.853   3.941   4.982  0.2669  0.0885  0.3113
   92MOL0     C12300   7.995   3.938   5.040 -0.8685  0.0444  0.2792
   92MOL0     C12301   8.062   3.802   4.990 -0.4277  0.2582 -0.3341
   92MOL0     N12302   8.195   3.801   5.035 -0.3659  0.0110 -0.4573
   92MOL0     C12303   8.245   3.727   5.139  0.4814 -0.0854  0.1191
   92MOL0     C12304   8.378   3.749   5.119 -0.9042 -0.2359 -0.5768
   92MOL0     C12305   8.482   3.670   5.202  0.1780 -0.8417 -0.6738
   92MOL0     C12306   8.622   3.720   5.185  0.3776 -0.1472 -0.0268
   92MOL0     C12307   8.720   3.623   5.243 -0.5877  0.9337 -0.4504
   92MOL0     C12308   8.867   3.652   5.211  0.9490  0.0803  0.0562
   92MOL0     O12309   8.952   3.577   5.296  0.0716  0.0175  0.3097
   92MOL0     C12310   9.087   3.593   5.269  0.6372 -0.0606  0.5652
   92MOL0     C12311   9.166   3.524   5.357 -0.0707  0.3873 -0.1443
   92MOL0     C12312   9.303   3.528   5.348 -0.3127 -0.1471  0.4091
   92MOL0     C12313   9.371   3.611   5.248 -0.0151 -0.2246 -0.5296
   92MOL0     C12314   9.522   3.618   5.228  0.2564 -0.0777  0.6182
   92MOL0     O12315   9.594   3.533   5.311  0.2743 -1.4187  0.1613
   92MOL0     C12316   9.731   3.527   5.307  0.1525 -0.0334  0.2434
   92MOL0     C12317   9.781   3.410   5.375 -0.5262 -0.6089 -0.1823
   92MOL0     C12318   9.919   3.382   5.375  0.2868 -0.1499 -0.5707
   92MOL0     C12319  10.010   3.478   5.328  1.2263  0.4943  0.6469
   92MOL0     O12320  10.143   3.464   5.363 -0.0700 -0.2451 -0.0809
   92MOL0     C12321  10.171   3.556   5.472 -1.3759  0.0984 -0.5902
   92MOL0     C12322  10.316   3.523   5.532  0.1444 -0.2298  0.8033
   92MOL0     C12323  10.426   3.565   5.437 -0.6982 -0.7296  0.0238
   92MOL0     C12324  10.565   3.579   5.509 -0.1185  0.1694  0.8547
   92MOL0     C12325  10.661   3.667   5.422  0.5623 -0.0975  0.6787
   92MOL0     C12326  10.809   3.669   5.469  0.5296 -0.1977  0.0558
   92MOL0     C12327  10.890   3.783   5.411  0.4723 -0.5889 -0.1176
   92MOL0     C12328  10.877   3.788   5.253  0.2056  0.4966  0.4320
   92MOL0    Cl12329  10.946   3.935   5.190 -0.3335 -0.2712 -0.0862
   92MOL0     C12330   9.957   3.583   5.244  0.0315 -0.1192  0.0567
   92MOL0     C12331   9.822   3.609   5.242  0.2216  0.0099 -1.0358
   92MOL0     O12332   9.566   3.692   5.137 -0.1928  0.1858 -0.2644
   92MOL0     C12333   9.286   3.681   5.156 -1.1582 -0.3238  0.1185
   92MOL0     C12334   9.150   3.684   5.170  0.1768  0.1327  0.0116
   92MOL0     N12335   8.408   3.838   5.015  0.4135  1.7062  0.8894
   92MOL0     N12336   8.294   3.866   4.967 -0.5310  0.2982 -1.2231
   92MOL0     C12337   7.098   4.003   5.270  0.3075  0.1158  0.1318
   92MOL0     C12338   6.979   3.981   5.334 -0.8912  0.2558  0.0015
   92MOL0     C12339   6.542   3.901   5.448  0.0211 -0.2127  0.5315
   92MOL0     C12340   6.421   3.834   5.401 -0.0093 -1.2200  0.5141
   92MOL0     C12341   6.345   3.757   5.494 -0.5110 -1.1324 -0.0115
   92MOL0     C12342   6.384   3.734   5.619 -0.7396 -0.1395 -0.0519
   92MOL0     O12343   6.310   3.648   5.701  0.0130  0.1561 -0.5127
   92MOL0     C12344   6.191   3.691   5.757 -0.0432 -0.1997 -0.0845
   92MOL0     C12345   6.076   3.719   5.663  0.0607  0.5750  0.0028
   92MOL0     C12346   6.018   3.589   5.589 -0.4886  0.3610 -0.0186
   92MOL0     C12347   5.881   3.615   5.518  0.8329  0.2676 -0.3505
   92MOL0     C12348   5.779   3.582   5.608  1.0948  0.7162 -0.2701
   92MOL0     C12349   5.703   3.547   5.691 -0.7850 -1.1004  0.3558
   92MOL0     C12350   6.499   3.795   5.666 -0.0996  0.3178 -0.3144
   92MOL0     C12351   6.585   3.879   5.583 -0.1835 -0.2069  0.2531
   92MOL0     C12352   6.702   3.948   5.654 -0.0752  0.2578 -0.1329
   92MOL0     H12353   6.757   4.017   5.087  0.4585 -0.7515  0.2408
   92MOL0     H12354   6.966   4.074   4.962 -2.1011  1.4036  0.9817
   92MOL0     H12355   7.322   4.193   5.176 -0.6480 -0.3794  1.4931
   92MOL0     H12356   7.376   4.022   5.166 -1.1353  0.5288  1.4476
   92MOL0     H12357   7.355   4.259   4.969 -1.2925 -0.8567  0.1061
   92MOL0     H12358   7.395   4.093   4.908  4.0138 -0.7400 -1.0388
   92MOL0     H12359   7.553   4.211   5.136  1.8926 -0.8731 -0.0211
   92MOL0     H12360   7.589   4.285   4.980  4.3921 -2.0614  0.4213
   92MOL0     H12361   7.585   3.984   5.039  0.4841 -0.5036 -0.6328
   92MOL0     H12362   7.615   4.054   4.879 -0.7027  0.2689 -0.6465
   92MOL0     H12363   7.835   4.160   4.980 -1.4577  2.2463  3.4290
   92MOL0     H12364   7.798   4.078   5.131 -0.4234  0.2872  0.4060
   92MOL0     H12365   7.797   3.849   4.999  0.9586 -1.4230 -4.0709
   92MOL0     H12366   7.870   3.943   4.873  3.0963  1.5376  0.6808
   92MOL0     H12367   7.979   3.947   5.148 -1.4145  2.6027  0.0567
   92MOL0     H12368   8.051   4.022   4.996  0.0298 -0.8417 -0.2983
   92MOL0     H12369   8.004   3.718   5.028  1.2997 -1.5658 -1.5547
   92MOL0     H12370   8.073   3.805   4.881  2.1400  2.6127 -0.1368
   92MOL0     H12371   8.196   3.654   5.203  1.2887  0.4424  1.3951
   92MOL0     H12372   8.451   3.669   5.307  0.7278  3.0569 -0.3408
   92MOL0     H12373   8.482   3.568   5.162  2.5698 -0.6346 -1.3561
   92MOL0     H12374   8.658   3.738   5.083 -1.4143 -0.1990 -0.6928
   92MOL0     H12375   8.634   3.816   5.237  1.9810 -0.3663  0.0745
   92MOL0     H12376   8.704   3.525   5.197 -0.2089  0.5835  0.1577
   92MOL0     H12377   8.722   3.615   5.352 -1.0227 -2.9794 -0.6004
   92MOL0     H12378   8.885   3.760   5.223  1.8171 -0.0112 -0.3664
   92MOL0     H12379   8.888   3.637   5.105 -2.4137 -0.0755 -0.7005
   92MOL0     H12380   9.124   3.458   5.433  1.3067 -0.3191  0.0460
   92MOL0     H12381   9.362   3.472   5.419  1.8269  0.0375 -1.1348
   92MOL0     H12382   9.723   3.336   5.430  1.4445 -2.3058 -0.2606
   92MOL0     H12383   9.968   3.295   5.418  0.8384  1.5774  2.5587
   92MOL0     H12384  10.172   3.660   5.440  0.0544 -0.1948 -1.5900
   92MOL0     H12385  10.101   3.542   5.555 -0.4749 -1.9699 -0.1210
   92MOL0     H12386  10.330   3.580   5.624  4.1292  0.6971 -0.2131
   92MOL0     H12387  10.320   3.416   5.557 -0.9922 -0.5573 -0.2977
   92MOL0     H12388  10.429   3.500   5.350  0.7293 -0.1411 -0.4008
   92MOL0     H12389  10.408   3.664   5.397  1.6292 -0.8285 -1.4534
   92MOL0     H12390  10.599   3.475   5.511 -1.5703 -0.3731 -0.4889
   92MOL0     H12391  10.559   3.611   5.613  0.5394  0.0314  0.9398
   92MOL0     H12392  10.625   3.770   5.416 -0.4574 -0.5308 -1.8729
   92MOL0     H12393  10.655   3.621   5.323  1.5100 -1.7311  1.3243
   92MOL0     H12394  10.805   3.679   5.577 -0.2743  1.3881 -0.0866
   92MOL0     H12395  10.856   3.574   5.443 -0.0244 -0.2296 -0.8708
   92MOL0     H12396  10.996   3.773   5.438  0.8428  0.6282 -1.0531
   92MOL0     H12397  10.853   3.874   5.459  3.3752  0.9601 -0.6261
   92MOL0     H12398  10.921   3.700   5.204  0.3110  0.1527  1.1363
   92MOL0     H12399  10.777   3.798   5.211  0.4182 -0.7909 -0.4421
   92MOL0     H12400  10.016   3.658   5.193  0.2917 -1.5461 -1.8597
   92MOL0     H12401   9.792   3.698   5.186 -0.6288 -0.3856 -1.2231
   92MOL0     H12402   9.326   3.733   5.069  0.8777 -0.0407  1.1623
   92MOL0     H12403   9.083   3.733   5.099 -2.8324 -2.9961  0.3890
   92MOL0     H12404   7.195   4.007   5.318 -0.0593 -2.1943  1.2053
   92MOL0     H12405   6.991   3.967   5.441 -1.2783 -0.2184 -0.0148
   92MOL0     H12406   6.394   3.828   5.296  0.4188 -1.3929  0.4096
   92MOL0     H12407   6.255   3.705   5.462 -2.0433  0.9306  0.7463
   92MOL0     H12408   6.214   3.771   5.828  0.4782  2.2975 -2.8799
   92MOL0     H12409   6.158   3.607   5.820  0.5858  0.9819  1.9359
   92MOL0     H12410   6.107   3.789   5.586  0.6945  0.1716 -0.1195
   92MOL0     H12411   6.005   3.769   5.729 -0.9747 -2.3204  1.2383
   92MOL0     H12412   6.006   3.502   5.653  2.2636 -1.5759 -1.9144
   92MOL0     H12413   6.084   3.563   5.505 -2.7638  0.0133 -1.8147
   92MOL0     H12414   5.874   3.720   5.490 -0.5706  0.1951 -0.3601
   92MOL0     H12415   5.882   3.556   5.426  1.9314 -0.0318 -0.1620
   92MOL0     H12416   5.624   3.506   5.750 -0.2221 -1.5646  0.8045
   92MOL0     H12417   6.526   3.778   5.770 -0.5103 -1.5601 -0.4728
   92MOL0     H12418   6.694   3.949   5.763 -0.9515 -0.9550 -0.1593
   92MOL0     H12419   6.792   3.890   5.631  0.5511  1.2112 -0.1203
   92MOL0     H12420   6.710   4.050   5.615  0.4457  1.3030  2.5316
   93MOL0     O12421   3.531   6.624   4.743  0.1761  0.2576  0.2331
   93MOL0     C12422   3.419   6.592   4.699  0.9872 -0.4269 -0.3540
   93MOL0     O12423   3.393   6.489   4.611  0.0621  0.4525  0.3252
   93MOL0     C12424   3.494   6.428   4.538 -0.9115  1.0149 -0.0073
   93MOL0     C12425   3.452   6.380   4.419 -0.1630 -0.2951  0.5125
   93MOL0     C12426   3.531   6.297   4.338  0.0816 -0.1034  0.0984
   93MOL0     C12427   3.655   6.247   4.398  0.7879 -0.1817 -0.8121
   93MOL0     O12428   3.740   6.173   4.320 -0.0426  0.0970 -0.3464
   93MOL0     C12429   3.826   6.079   4.396 -0.2062 -0.2423 -0.5548
   93MOL0     C12430   3.972   6.124   4.407 -0.6018 -0.2637  1.5043
   93MOL0     C12431   4.045   6.141   4.261  0.4396  0.2680  0.7423
   93MOL0     C12432   4.050   6.008   4.174 -0.1209  1.0154  0.1222
   93MOL0     C12433   4.149   6.028   4.064  0.0355 -0.2419 -0.1612
   93MOL0     C12434   4.166   5.900   3.982  0.5783  0.0267 -0.1377
   93MOL0     C12435   4.288   5.905   3.894  0.2206  0.0707  0.1291
   93MOL0     C12436   4.294   5.792   3.790  0.1433 -0.1222  0.4496
   93MOL0     N12437   4.407   5.814   3.696  0.2444  0.0796 -0.2984
   93MOL0     C12438   4.408   5.902   3.590 -0.3508  0.2898 -1.6391
   93MOL0     C12439   4.531   5.883   3.527  0.2611 -0.1232 -0.0988
   93MOL0     C12440   4.578   5.940   3.397  0.2959 -1.0295  0.2035
   93MOL0     C12441   4.618   6.082   3.428 -0.4946 -0.6235 -0.2490
   93MOL0     C12442   4.676   6.157   3.317  0.3593 -0.4272  0.6080
   93MOL0     C12443   4.674   6.312   3.341  0.3866 -0.2147 -0.4541
   93MOL0     O12444   4.789   6.384   3.277 -0.8147  0.1825 -0.3217
   93MOL0     C12445   4.915   6.341   3.305 -0.5439  0.3525 -0.2938
   93MOL0     C12446   4.954   6.256   3.408  0.2010  1.0372  0.1579
   93MOL0     C12447   5.085   6.198   3.414 -0.0298  0.6529 -0.6211
   93MOL0     C12448   5.182   6.245   3.319  0.6567 -0.0041 -0.0106
   93MOL0     C12449   5.329   6.200   3.330  0.3341  0.5428  0.7800
   93MOL0     O12450   5.428   6.246   3.243  0.2218  0.2339 -0.5640
   93MOL0     C12451   5.566   6.233   3.256  0.8754  0.4294  0.0466
   93MOL0     C12452   5.632   6.208   3.377  0.2041 -0.0859 -0.3058
   93MOL0     C12453   5.769   6.220   3.384 -0.0016  0.1860  0.0166
   93MOL0     C12454   5.841   6.253   3.278 -0.5079  0.0012  0.1918
   93MOL0     O12455   5.981   6.255   3.306  0.6923 -0.5171  0.6741
   93MOL0     C12456   6.057   6.311   3.197  0.1630 -0.1753  0.1916
   93MOL0     C12457   6.208   6.322   3.218  0.1247 -1.1097 -0.2352
   93MOL0     C12458   6.256   6.175   3.230  0.4289 -0.5856 -0.0102
   93MOL0     C12459   6.407   6.170   3.204  0.3276  0.4838  0.1029
   93MOL0     C12460   6.448   6.037   3.260 -1.3488  0.4576 -1.2691
   93MOL0     C12461   6.600   5.997   3.255  1.3794 -0.3618  0.0935
   93MOL0     C12462   6.661   5.989   3.118 -0.8293  0.7618  0.3651
   93MOL0     C12463   6.801   5.921   3.121  0.4773  0.2938  0.3659
   93MOL0    Cl12464   6.920   5.999   3.219 -0.1187 -0.0531  0.1042
   93MOL0     C12465   5.778   6.268   3.152 -0.1343 -0.2938  0.4314
   93MOL0     C12466   5.642   6.259   3.142  0.5441 -0.0398 -0.4241
   93MOL0     O12467   5.350   6.125   3.427 -0.5509 -0.8647 -0.7557
   93MOL0     C12468   5.134   6.327   3.210  0.3009 -0.2614  0.3892
   93MOL0     C12469   5.006   6.378   3.209  1.0418 -0.3409 -0.6650
   93MOL0     N12470   4.600   5.789   3.603 -0.6144 -0.3279  0.6330
   93MOL0     N12471   4.530   5.758   3.708 -0.2398 -0.5197 -0.8061
   93MOL0     C12472   3.690   6.294   4.528 -0.4026  0.4001 -0.0190
   93MOL0     C12473   3.617   6.390   4.589 -0.1577  0.1978 -0.2327
   93MOL0     C12474   3.303   6.677   4.742 -0.1191  0.0610 -0.4946
   93MOL0     C12475   3.174   6.616   4.721 -0.0220 -0.1207  0.9250
   93MOL0     C12476   3.063   6.690   4.763  0.3382 -0.1649  0.3337
   93MOL0     C12477   3.068   6.813   4.818  0.3360  0.5590 -0.3197
   93MOL0     O12478   2.942   6.857   4.855  0.5880 -0.6970  0.1714
   93MOL0     C12479   2.940   6.937   4.978  0.2132 -1.0894 -0.6530
   93MOL0     C12480   2.791   6.960   5.027 -0.5608 -0.3710  0.2984
   93MOL0     C12481   2.771   6.942   5.182  0.9883 -0.0068  0.3059
   93MOL0     C12482   2.626   6.987   5.231 -0.1795  0.4910  0.1097
   93MOL0     C12483   2.573   6.901   5.335 -0.0630 -0.1837  0.3950
   93MOL0     C12484   2.537   6.836   5.429 -0.4612  0.9381  0.0257
   93MOL0     C12485   3.186   6.878   4.822 -0.3570  0.1467 -0.4354
   93MOL0     C12486   3.308   6.811   4.790  1.2525 -0.2974 -0.4348
   93MOL0     C12487   3.431   6.894   4.799 -0.5169  0.0009 -0.1052
   93MOL0     H12488   3.353   6.406   4.384  0.9483  0.4904 -2.3799
   93MOL0     H12489   3.489   6.252   4.249 -0.7905  1.1852 -0.1678
   93MOL0     H12490   3.777   6.058   4.491 -1.0825 -1.4823 -1.2603
   93MOL0     H12491   3.833   5.988   4.336 -2.1721 -0.1790 -0.9502
   93MOL0     H12492   4.037   6.059   4.467  1.1061  0.6388  0.6945
   93MOL0     H12493   3.982   6.219   4.459  2.1485  0.6040 -0.4208
   93MOL0     H12494   4.150   6.170   4.276  1.6970 -1.7598 -2.9144
   93MOL0     H12495   3.990   6.212   4.200  1.0994  1.3077  1.3288
   93MOL0     H12496   4.089   5.933   4.243  1.5505  2.3857  0.7509
   93MOL0     H12497   3.951   5.989   4.131 -0.0718 -0.3502  0.5648
   93MOL0     H12498   4.107   6.100   3.993  2.5144  1.6729  0.1639
   93MOL0     H12499   4.247   6.067   4.094 -0.0921  1.2324 -1.4905
   93MOL0     H12500   4.181   5.814   4.049 -1.4043 -0.5536 -0.3806
   93MOL0     H12501   4.078   5.876   3.922  1.4865 -1.5343 -0.9120
   93MOL0     H12502   4.380   5.915   3.953 -1.8751  0.1310  3.6326
   93MOL0     H12503   4.285   5.994   3.831 -0.3599  0.6361  0.9356
   93MOL0     H12504   4.300   5.695   3.840 -1.2544 -0.5427 -0.1622
   93MOL0     H12505   4.204   5.785   3.728 -0.0909  1.6761  0.5335
   93MOL0     H12506   4.326   5.963   3.553 -1.5129 -0.4496 -0.3723
   93MOL0     H12507   4.668   5.889   3.364  1.2141  0.2064  0.7137
   93MOL0     H12508   4.496   5.932   3.325 -1.5308  0.0425  2.0539
   93MOL0     H12509   4.534   6.134   3.475 -0.0352 -0.9759  1.0072
   93MOL0     H12510   4.693   6.073   3.507  0.8407  0.2847 -1.3543
   93MOL0     H12511   4.608   6.137   3.233  0.6490  0.8440  0.0465
   93MOL0     H12512   4.770   6.113   3.284  0.9449  1.0593  0.2383
   93MOL0     H12513   4.675   6.348   3.444 -0.0931  2.2124 -1.2394
   93MOL0     H12514   4.585   6.353   3.294 -1.1124 -0.9709  1.5958
   93MOL0     H12515   4.881   6.225   3.483 -1.7172 -1.3582 -2.4562
   93MOL0     H12516   5.120   6.138   3.497  1.9664  0.6436 -1.4175
   93MOL0     H12517   5.577   6.171   3.463  1.9301 -1.6722  0.1566
   93MOL0     H12518   5.817   6.189   3.477 -0.7793 -0.8722  0.0799
   93MOL0     H12519   6.040   6.255   3.105 -2.7335  0.0010  0.5327
   93MOL0     H12520   6.021   6.415   3.200 -2.5240 -1.0227  0.0997
   93MOL0     H12521   6.263   6.365   3.134  0.3402 -2.0802 -0.6050
   93MOL0     H12522   6.222   6.378   3.311  1.2271 -1.1542 -0.3598
   93MOL0     H12523   6.233   6.135   3.329  0.5491  2.3691  1.3112
   93MOL0     H12524   6.204   6.114   3.156 -1.5750  1.4021 -0.3533
   93MOL0     H12525   6.453   6.256   3.253 -3.5547  2.5457  0.5436
   93MOL0     H12526   6.440   6.174   3.100 -0.6719 -2.6635 -0.4553
   93MOL0     H12527   6.395   5.969   3.193 -1.5019 -0.0208 -0.6715
   93MOL0     H12528   6.414   6.020   3.362  0.5664 -1.4230 -0.8799
   93MOL0     H12529   6.656   6.070   3.315 -0.6100 -0.2262  1.9261
   93MOL0     H12530   6.618   5.893   3.286 -0.4117 -0.9059 -0.5817
   93MOL0     H12531   6.668   6.088   3.072 -2.5243  2.2718  3.1424
   93MOL0     H12532   6.599   5.926   3.053 -0.4531 -2.0106  2.4912
   93MOL0     H12533   6.794   5.822   3.167 -0.9755  1.3519  2.5783
   93MOL0     H12534   6.845   5.909   3.022  0.7874  0.4884  0.4783
   93MOL0     H12535   5.820   6.308   3.061 -0.9857  2.8178  1.2932
   93MOL0     H12536   5.590   6.278   3.048  1.1002  1.1354 -0.5097
   93MOL0     H12537   5.198   6.365   3.132 -0.5452  0.3397 -0.0256
   93MOL0     H12538   4.962   6.444   3.134 -4.8775  0.6962  3.1136
   93MOL0     H12539   3.782   6.264   4.578 -0.4457 -0.2383 -0.3147
   93MOL0     H12540   3.652   6.424   4.686 -0.2377  0.3067 -0.2416
   93MOL0     H12541   3.164   6.521   4.670 -1.6267 -0.5017  1.8847
   93MOL0     H12542   2.966   6.642   4.755  2.3864 -4.4195 -2.8915
   93MOL0     H12543   2.980   7.037   4.960  0.0460 -0.5887  1.4480
   93MOL0     H12544   2.992   6.896   5.065  1.4992  1.2886 -0.2220
   93MOL0     H12545   2.725   6.905   4.959  0.0545  2.5125 -2.9559
   93MOL0     H12546   2.774   7.062   4.989  4.0972  0.2453 -0.6812
   93MOL0     H12547   2.858   6.986   5.232  1.5027 -2.3511  1.6032
   93MOL0     H12548   2.795   6.840   5.212  1.8530 -0.2231 -0.9981
   93MOL0     H12549   2.620   7.094   5.251 -0.5676  0.9983 -2.3445
   93MOL0     H12550   2.560   6.982   5.144 -0.1312 -0.3875  0.1130
   93MOL0     H12551   2.506   6.769   5.507  1.3860  0.0515  0.0738
   93MOL0     H12552   3.189   6.986   4.832  1.4507  0.4172 -3.0113
   93MOL0     H12553   3.496   6.861   4.880 -1.9911 -1.1592  0.6454
   93MOL0     H12554   3.477   6.877   4.701 -2.5186  1.0520 -1.3072
   93MOL0     H12555   3.422   7.003   4.803  1.2012  0.1268  1.2788
   94MOL0     O12556   0.618   2.466   4.598  1.0641 -0.6329  0.8141
   94MOL0     C12557   0.550   2.492   4.497  0.1753 -0.5561  0.2784
   94MOL0     O12558   0.591   2.558   4.381 -0.6864 -0.0608 -0.2018
   94MOL0     C12559   0.714   2.622   4.373 -0.3157 -0.4248  0.0112
   94MOL0     C12560   0.767   2.638   4.248 -0.5667  0.4588  0.5199
   94MOL0     C12561   0.887   2.715   4.224  0.6965  0.0029  0.3668
   94MOL0     C12562   0.938   2.782   4.329  0.0173 -0.5784 -0.7642
   94MOL0     O12563   1.042   2.861   4.324 -0.6604 -0.8784 -0.6429
   94MOL0     C12564   1.176   2.804   4.291 -0.4559 -0.0725 -0.5308
   94MOL0     C12565   1.289   2.901   4.339  0.4020 -0.8477 -0.6085
   94MOL0     C12566   1.424   2.880   4.284 -0.6607  0.0111 -0.0011
   94MOL0     C12567   1.519   2.769   4.332  0.4728  0.4034  0.3016
   94MOL0     C12568   1.624   2.770   4.228  0.0305 -0.4189  0.0116
   94MOL0     C12569   1.751   2.684   4.266 -0.1771  0.2944  0.1275
   94MOL0     C12570   1.834   2.653   4.134  0.3534 -1.1058 -0.2359
   94MOL0     C12571   1.963   2.592   4.173 -0.3847  0.0400  0.1347
   94MOL0     N12572   2.066   2.592   4.061 -0.7549 -0.4772 -0.0278
   94MOL0     C12573   2.151   2.703   4.048 -0.2201  0.9135  0.1900
   94MOL0     C12574   2.249   2.651   3.969  0.4310  0.3403 -0.4191
   94MOL0     C12575   2.373   2.714   3.912  0.0614  0.2274  1.4473
   94MOL0     C12576   2.498   2.682   3.998  0.2142  0.2971 -0.0439
   94MOL0     C12577   2.535   2.534   4.011  0.2888 -0.2930  0.1439
   94MOL0     C12578   2.555   2.479   3.876  0.1104  0.2531  0.2194
   94MOL0     O12579   2.643   2.564   3.799 -0.0782 -0.0627 -0.0401
   94MOL0     C12580   2.778   2.569   3.831 -0.8166  0.1403  0.0210
   94MOL0     C12581   2.838   2.457   3.875 -0.0904 -0.3032  0.4282
   94MOL0     C12582   2.974   2.463   3.890 -0.0840 -0.0828 -0.6168
   94MOL0     C12583   3.052   2.585   3.890 -0.4064  0.1773  0.7374
   94MOL0     C12584   3.194   2.587   3.920  0.4713  0.6678 -0.2239
   94MOL0     O12585   3.264   2.700   3.881  0.5866  0.2954  0.4106
   94MOL0     C12586   3.390   2.702   3.934 -0.0755  0.0238  0.0572
   94MOL0     C12587   3.493   2.753   3.852  0.1270 -0.3202 -0.2446
   94MOL0     C12588   3.629   2.764   3.895 -0.1951 -0.3569 -0.1052
   94MOL0     C12589   3.664   2.734   4.021 -0.8711  0.4355  0.5429
   94MOL0     O12590   3.789   2.771   4.062 -0.2588 -0.4973 -0.3420
   94MOL0     C12591   3.811   2.785   4.203  0.0387  0.1341 -0.4944
   94MOL0     C12592   3.954   2.837   4.223  0.0587  0.6771 -0.3188
   94MOL0     C12593   4.062   2.764   4.148 -0.0126 -0.1560  0.5879
   94MOL0     C12594   4.202   2.826   4.179  0.2500  0.6042  0.1068
   94MOL0     C12595   4.318   2.775   4.083 -0.0342  0.2190 -0.7242
   94MOL0     C12596   4.454   2.833   4.122  0.3389 -0.6318 -0.1709
   94MOL0     C12597   4.563   2.791   4.023  0.0195  0.5674 -0.2722
   94MOL0     C12598   4.704   2.841   4.051  0.2913 -0.0835  0.5060
   94MOL0    Cl12599   4.746   2.983   3.953  0.5534 -0.2057 -0.0810
   94MOL0     C12600   3.565   2.683   4.109  0.0227 -0.0000  0.8892
   94MOL0     C12601   3.434   2.677   4.066  1.1059  0.8780 -0.6226
   94MOL0     O12602   3.238   2.489   3.974 -0.3306  0.2277  0.5770
   94MOL0     C12603   2.991   2.694   3.833  0.3112  0.0095  0.5456
   94MOL0     C12604   2.862   2.683   3.803  0.3193  0.1925  0.2273
   94MOL0     N12605   2.215   2.520   3.939 -0.6200 -0.2663  0.7419
   94MOL0     N12606   2.100   2.486   3.981  0.1717  0.0554 -0.2046
   94MOL0     C12607   0.875   2.777   4.452 -0.0044  0.0646  0.5583
   94MOL0     C12608   0.773   2.690   4.476  0.8486  0.0283  0.4450
   94MOL0     C12609   0.421   2.423   4.488 -0.2390 -0.0764  0.4056
   94MOL0     C12610   0.387   2.313   4.570 -0.1062  0.5331 -0.8066
   94MOL0     C12611   0.263   2.254   4.572  0.0846  0.1337  0.4393
   94MOL0     C12612   0.161   2.288   4.472 -0.3068  0.1119 -0.1149
   94MOL0     O12613   0.053   2.204   4.464  0.2594  0.2593  0.5047
   94MOL0     C12614  -0.031   2.214   4.346  0.6357  0.0186 -0.1912
   94MOL0     C12615  -0.132   2.099   4.332  1.4991  0.2308 -0.5849
   94MOL0     C12616  -0.068   1.964   4.341  0.1042  0.0711  0.3282
   94MOL0     C12617  -0.163   1.841   4.351  0.1893 -0.0262  0.3790
   94MOL0     C12618  -0.249   1.841   4.231  0.1469 -0.4128 -0.1863
   94MOL0     C12619  -0.309   1.816   4.125 -0.1062 -0.0347 -0.6994
   94MOL0     C12620   0.197   2.393   4.382  0.2502 -0.6297 -0.5215
   94MOL0     C12621   0.316   2.466   4.400  0.9041 -0.1613 -0.1113
   94MOL0     C12622   0.328   2.582   4.309  0.1981  0.4888  0.7453
   94MOL0     H12623   0.711   2.584   4.172  0.8484 -1.2175  0.5988
   94MOL0     H12624   0.932   2.721   4.125  1.0813 -2.5110  0.3432
   94MOL0     H12625   1.194   2.702   4.326  1.0787  0.5286  0.5233
   94MOL0     H12626   1.179   2.794   4.182 -1.1750 -2.0339 -0.4106
   94MOL0     H12627   1.301   2.907   4.448  2.7251  4.9352 -0.8040
   94MOL0     H12628   1.254   3.003   4.320  2.0210 -0.3802 -1.2353
   94MOL0     H12629   1.477   2.969   4.321  2.2428 -1.8305  0.6008
   94MOL0     H12630   1.419   2.884   4.175 -1.5635  0.4572  0.0439
   94MOL0     H12631   1.552   2.781   4.435 -2.0521 -0.8663  1.3510
   94MOL0     H12632   1.463   2.675   4.329 -1.8420  1.7065  0.1849
   94MOL0     H12633   1.573   2.724   4.141  1.2650 -0.9606 -0.4460
   94MOL0     H12634   1.657   2.867   4.191 -0.7517  1.1821  3.2429
   94MOL0     H12635   1.811   2.736   4.340 -0.0771  1.0753 -0.4852
   94MOL0     H12636   1.707   2.591   4.304 -1.0572 -0.1129 -1.7579
   94MOL0     H12637   1.858   2.748   4.086  0.1364  0.1548  2.0101
   94MOL0     H12638   1.785   2.597   4.054  2.2252  0.7881 -2.8965
   94MOL0     H12639   2.003   2.644   4.262 -0.1270 -1.2526  0.7941
   94MOL0     H12640   1.953   2.489   4.208  0.9925  0.2617  1.2944
   94MOL0     H12641   2.141   2.799   4.096 -1.5154 -0.2958  2.4856
   94MOL0     H12642   2.383   2.695   3.805 -0.0835  0.8415  1.3177
   94MOL0     H12643   2.373   2.823   3.917 -1.0264  0.3409 -0.1514
   94MOL0     H12644   2.579   2.738   3.951  1.0886 -1.9691 -1.3868
   94MOL0     H12645   2.494   2.719   4.101 -1.3002  1.3394 -0.4494
   94MOL0     H12646   2.458   2.483   4.070 -1.5192  2.0340 -0.0399
   94MOL0     H12647   2.629   2.520   4.065 -0.0699  2.8978  1.8333
   94MOL0     H12648   2.458   2.461   3.828 -0.3651  0.0139  1.2459
   94MOL0     H12649   2.598   2.380   3.893 -2.6240 -0.6700  2.5816
   94MOL0     H12650   2.802   2.356   3.887  2.1678 -1.1186  0.8757
   94MOL0     H12651   3.021   2.368   3.913  0.0398  0.1182 -0.0189
   94MOL0     H12652   3.469   2.778   3.750  1.4401  2.7328  0.0851
   94MOL0     H12653   3.702   2.807   3.827 -4.3580 -0.5931 -5.4501
   94MOL0     H12654   3.730   2.845   4.246 -0.9774 -0.3927 -1.6164
   94MOL0     H12655   3.797   2.689   4.254 -2.6613  1.1598  0.9278
   94MOL0     H12656   3.946   2.943   4.195 -1.4898  0.6846  0.0963
   94MOL0     H12657   3.981   2.836   4.329  0.7915 -0.2768 -0.4997
   94MOL0     H12658   4.057   2.660   4.179 -1.0458  0.3501  2.2403
   94MOL0     H12659   4.039   2.770   4.041  1.2712 -0.9699  0.2437
   94MOL0     H12660   4.229   2.791   4.279 -0.7599  0.3567  0.3039
   94MOL0     H12661   4.203   2.935   4.185 -0.8176  0.5295  2.7048
   94MOL0     H12662   4.300   2.811   3.981  1.9599  1.9003 -0.5557
   94MOL0     H12663   4.311   2.667   4.072  1.3113  0.2936 -3.0983
   94MOL0     H12664   4.448   2.942   4.114  0.8660 -0.7311 -3.0918
   94MOL0     H12665   4.478   2.794   4.221  0.6481  0.1294  0.0680
   94MOL0     H12666   4.536   2.822   3.922 -0.5911 -1.7094 -0.8574
   94MOL0     H12667   4.569   2.682   4.024 -1.5397  0.4638 -0.0922
   94MOL0     H12668   4.718   2.870   4.156  1.7541  2.2787 -0.2676
   94MOL0     H12669   4.776   2.761   4.032  2.3643  1.5923  0.8953
   94MOL0     H12670   3.600   2.649   4.207  0.5676 -1.4687  0.2206
   94MOL0     H12671   3.366   2.636   4.140  0.9168  2.6669  0.2467
   94MOL0     H12672   3.041   2.788   3.810 -1.9457  0.1084 -6.1596
   94MOL0     H12673   2.803   2.758   3.751 -1.5379 -0.9646  0.5809
   94MOL0     H12674   0.917   2.831   4.536 -1.9598  1.1230  0.9222
   94MOL0     H12675   0.722   2.689   4.572  0.7030 -0.4442  0.3685
   94MOL0     H12676   0.468   2.273   4.631 -0.1708  1.7242  0.0870
   94MOL0     H12677   0.237   2.166   4.630 -1.7017 -0.7614 -1.5733
   94MOL0     H12678   0.028   2.225   4.254  2.2575  0.3503  0.8393
   94MOL0     H12679  -0.089   2.306   4.359 -0.3128 -0.2363 -2.2631
   94MOL0     H12680  -0.197   2.111   4.245 -1.7563  2.0084  1.8555
   94MOL0     H12681  -0.197   2.107   4.420  1.8124  1.3407 -0.4341
   94MOL0     H12682   0.007   1.954   4.421  0.2847  0.8209  0.2633
   94MOL0     H12683  -0.007   1.950   4.251 -3.0523  1.4415 -2.2273
   94MOL0     H12684  -0.101   1.752   4.352 -1.1653 -1.0886 -2.3457
   94MOL0     H12685  -0.220   1.843   4.445  1.4552 -2.2044  1.2649
   94MOL0     H12686  -0.365   1.776   4.043 -1.8172  0.4287  0.1883
   94MOL0     H12687   0.135   2.418   4.296 -0.4602  2.0087  0.6248
   94MOL0     H12688   0.349   2.677   4.359  4.0625  0.7325 -0.9492
   94MOL0     H12689   0.406   2.559   4.236 -1.8326  2.1326 -2.1176
   94MOL0     H12690   0.236   2.599   4.252 -0.1619 -2.3439  0.3170
   95MOL0     O12691   3.100   9.652  10.034 -0.1498  0.4922  0.1228
   95MOL0     C12692   3.112   9.761   9.981 -0.8096 -0.6430 -0.3103
   95MOL0     O12693   3.173   9.791   9.865 -0.2843 -0.1087  0.1454
   95MOL0     C12694   3.242   9.689   9.804  0.3745  0.1871 -0.3129
   95MOL0     C12695   3.374   9.665   9.842 -0.7308  0.0873  0.2883
   95MOL0     C12696   3.447   9.549   9.797  0.2581 -0.6671  0.1388
   95MOL0     C12697   3.389   9.460   9.707 -0.6240  0.2783 -0.1262
   95MOL0     O12698   3.471   9.358   9.660 -0.1590  0.6659  0.8493
   95MOL0     C12699   3.433   9.282   9.543  0.1954 -0.7483  0.3689
   95MOL0     C12700   3.520   9.161   9.519 -0.3339  0.2218 -0.2118
   95MOL0     C12701   3.666   9.196   9.484 -0.2334 -0.1821  0.0483
   95MOL0     C12702   3.756   9.109   9.555 -0.7414  0.2759  0.2018
   95MOL0     C12703   3.902   9.133   9.494 -1.2055  0.2972  0.1740
   95MOL0     C12704   3.977   9.218   9.592 -0.5089  0.3236 -0.7763
   95MOL0     C12705   4.130   9.238   9.561 -0.2499 -0.1154  0.2357
   95MOL0     C12706   4.215   9.132   9.629  0.5835 -0.4990 -0.7028
   95MOL0     N12707   4.353   9.143   9.582 -0.4026  1.3457 -0.1666
   95MOL0     C12708   4.448   9.236   9.613  0.2102 -0.3219 -0.9938
   95MOL0     C12709   4.562   9.191   9.555  0.4304  0.3221 -0.0818
   95MOL0     C12710   4.699   9.259   9.561 -0.0052  0.8386 -0.0139
   95MOL0     C12711   4.751   9.302   9.421 -0.2400  0.2171 -0.5263
   95MOL0     C12712   4.695   9.435   9.376 -0.2507  1.0271 -0.2027
   95MOL0     C12713   4.547   9.427   9.342 -0.0904  0.1345 -0.6214
   95MOL0     O12714   4.537   9.550   9.268  0.0360  0.4302  0.7197
   95MOL0     C12715   4.424   9.596   9.206 -0.4684  0.6515  0.1660
   95MOL0     C12716   4.443   9.696   9.116  0.4003 -0.0355  0.3980
   95MOL0     C12717   4.344   9.740   9.026 -1.0387 -0.0259  0.2759
   95MOL0     C12718   4.212   9.691   9.036 -0.2898 -0.1825 -0.3588
   95MOL0     C12719   4.108   9.746   8.947  0.3587  0.3483 -0.1513
   95MOL0     O12720   3.973   9.715   8.975  0.2326 -0.3031  0.6167
   95MOL0     C12721   3.866   9.752   8.896 -0.5282 -0.2767  0.3033
   95MOL0     C12722   3.861   9.809   8.771 -0.2918 -0.3345  0.5600
   95MOL0     C12723   3.754   9.826   8.685 -0.0945 -0.2242 -0.7284
   95MOL0     C12724   3.632   9.779   8.725 -0.0227 -0.1729  0.5506
   95MOL0     O12725   3.517   9.805   8.650 -0.1813 -0.0051 -0.3376
   95MOL0     C12726   3.435   9.916   8.697  0.0361 -0.0384 -0.0317
   95MOL0     C12727   3.364   9.971   8.580 -0.3134 -0.9672  0.6120
   95MOL0     C12728   3.243   9.881   8.554 -0.8985  0.6809  0.6101
   95MOL0     C12729   3.188   9.911   8.411 -0.2493 -0.7540  0.5326
   95MOL0     C12730   3.054   9.842   8.359 -0.6232 -0.7135 -0.1598
   95MOL0     C12731   3.057   9.692   8.352  0.4472 -1.0703 -0.3406
   95MOL0     C12732   3.032   9.602   8.471 -0.5887 -0.2564 -0.3956
   95MOL0     C12733   2.911   9.638   8.552 -0.7658 -0.3931  0.9956
   95MOL0    Cl12734   2.865   9.534   8.684  0.0333  0.3889 -0.0368
   95MOL0     C12735   3.627   9.709   8.851  0.5363 -0.9517  0.5269
   95MOL0     C12736   3.739   9.704   8.939 -0.1869  0.0831  0.5992
   95MOL0     O12737   4.146   9.819   8.857 -0.6222  0.2878  0.0723
   95MOL0     C12738   4.188   9.591   9.136 -0.1965 -0.0129 -0.7061
   95MOL0     C12739   4.292   9.541   9.217 -0.3571 -0.5561 -0.2113
   95MOL0     N12740   4.532   9.077   9.485 -1.0822 -0.2031 -0.6323
   95MOL0     N12741   4.406   9.048   9.501 -0.2056 -0.2260 -0.7034
   95MOL0     C12742   3.255   9.481   9.671  0.2286 -0.4061 -0.5037
   95MOL0     C12743   3.177   9.592   9.723  0.2171 -0.2784 -0.1797
   95MOL0     C12744   3.034   9.870  10.041  1.0182  0.0282  0.3351
   95MOL0     C12745   3.030   9.879  10.180 -0.0064  0.4202  0.8089
   95MOL0     C12746   2.933   9.953  10.238 -0.3068 -0.8273  0.5009
   95MOL0     C12747   2.861  10.049  10.172 -0.2661  0.5657 -0.2661
   95MOL0     O12748   2.789  10.139  10.251  0.0318  0.4356  0.0069
   95MOL0     C12749   2.756  10.265  10.218 -0.0880 -0.3859  0.1850
   95MOL0     C12750   2.637  10.315  10.293 -0.2120 -0.0022 -0.0455
   95MOL0     C12751   2.522  10.207  10.296 -0.7180 -0.3146  0.6479
   95MOL0     C12752   2.401  10.238  10.386  0.1905  0.0862  0.2053
   95MOL0     C12753   2.307  10.127  10.379  0.1837 -0.0451 -0.2327
   95MOL0     C12754   2.231  10.029  10.378  0.0657 -0.1683 -0.1917
   95MOL0     C12755   2.877  10.060  10.037  0.3996  0.3016 -0.0040
   95MOL0     C12756   2.956   9.962   9.966  0.1432  0.6099  0.2044
   95MOL0     C12757   2.970   9.995   9.815  0.7567  0.5250 -0.1009
   95MOL0     H12758   3.418   9.748   9.898  0.6439  1.0131 -2.0343
   95MOL0     H12759   3.546   9.530   9.837  1.0774 -2.2738 -2.4129
   95MOL0     H12760   3.330   9.250   9.562  0.6009 -2.2600  0.1559
   95MOL0     H12761   3.434   9.339   9.450 -0.2680 -0.9426  0.2402
   95MOL0     H12762   3.481   9.097   9.440  0.5817  1.1970 -1.4916
   95MOL0     H12763   3.515   9.101   9.611 -4.8545  1.7075  0.7639
   95MOL0     H12764   3.690   9.298   9.516  2.7551 -0.6834 -0.2764
   95MOL0     H12765   3.667   9.187   9.375 -1.9053 -0.4407  0.0262
   95MOL0     H12766   3.765   9.125   9.663  2.2298 -1.8205  0.3871
   95MOL0     H12767   3.729   9.007   9.527 -0.6670  0.4065 -0.3610
   95MOL0     H12768   3.964   9.042   9.491 -0.7141  0.6588 -1.7994
   95MOL0     H12769   3.891   9.172   9.393  2.0648 -1.0935 -0.8439
   95MOL0     H12770   3.922   9.312   9.586 -1.1028  0.0189 -0.2160
   95MOL0     H12771   3.962   9.167   9.688 -1.7528 -0.1130 -1.1765
   95MOL0     H12772   4.166   9.334   9.601  0.6569 -0.8393  1.2096
   95MOL0     H12773   4.149   9.238   9.453 -0.3714 -0.8292  0.2099
   95MOL0     H12774   4.210   9.137   9.738  0.9662  1.9199 -0.7564
   95MOL0     H12775   4.176   9.030   9.615  1.1194 -1.5777  3.9743
   95MOL0     H12776   4.451   9.323   9.678  5.0000  0.2555 -1.6536
   95MOL0     H12777   4.689   9.352   9.617 -1.2410  1.1296 -0.6698
   95MOL0     H12778   4.766   9.180   9.595 -2.0473 -1.4456 -0.9274
   95MOL0     H12779   4.860   9.300   9.416 -0.1253 -1.8451  1.3268
   95MOL0     H12780   4.721   9.228   9.346  1.2313 -1.7663  0.7306
   95MOL0     H12781   4.754   9.468   9.290  1.2527 -0.1769  0.3205
   95MOL0     H12782   4.708   9.515   9.450 -2.2497 -0.3773  1.8215
   95MOL0     H12783   4.490   9.442   9.435 -1.0995 -0.4685 -1.1288
   95MOL0     H12784   4.526   9.331   9.293  0.2598 -1.5898  2.3531
   95MOL0     H12785   4.541   9.739   9.097 -1.1237  3.7611  0.2125
   95MOL0     H12786   4.378   9.808   8.948 -2.0273  0.5060  0.2902
   95MOL0     H12787   3.952   9.861   8.744 -1.2304  1.8350  1.3763
   95MOL0     H12788   3.749   9.882   8.593  0.6813  1.0661 -0.0175
   95MOL0     H12789   3.363   9.877   8.770 -1.2926 -1.4292 -1.9708
   95MOL0     H12790   3.489   9.997   8.746 -2.0767  1.0848  0.5943
   95MOL0     H12791   3.334  10.075   8.596 -0.3037 -0.5962 -1.4487
   95MOL0     H12792   3.416   9.963   8.484 -0.0512 -1.2932  0.7805
   95MOL0     H12793   3.281   9.779   8.553 -1.4900  0.3900  2.9600
   95MOL0     H12794   3.172   9.889   8.637  0.3054  0.5726  1.6710
   95MOL0     H12795   3.258   9.878   8.334  3.0575  1.4761  2.3470
   95MOL0     H12796   3.180  10.020   8.408  0.1825 -0.6708  1.7864
   95MOL0     H12797   3.041   9.875   8.256  3.3723  0.0632 -0.5489
   95MOL0     H12798   2.973   9.882   8.421  1.8775  3.0512  1.0606
   95MOL0     H12799   2.985   9.651   8.281 -0.7683  3.0041 -1.7238
   95MOL0     H12800   3.154   9.670   8.306  0.4268 -0.5584 -0.6301
   95MOL0     H12801   3.126   9.598   8.528 -0.9007 -0.2404  0.1259
   95MOL0     H12802   3.004   9.505   8.430 -0.8854  0.2476 -1.3977
   95MOL0     H12803   2.938   9.737   8.589 -2.2326  0.7580 -0.8425
   95MOL0     H12804   2.826   9.636   8.483 -0.3064 -2.3950  0.4054
   95MOL0     H12805   3.532   9.661   8.871 -1.0879  0.8000 -2.3648
   95MOL0     H12806   3.723   9.644   9.029 -1.5477 -1.5196 -0.6460
   95MOL0     H12807   4.089   9.549   9.146 -0.2286 -0.3577 -2.2205
   95MOL0     H12808   4.272   9.461   9.288  0.8238 -0.1431  0.6318
   95MOL0     H12809   3.204   9.417   9.600 -0.0179 -0.9268  0.1302
   95MOL0     H12810   3.069   9.602   9.714  0.0483 -2.0635 -0.7085
   95MOL0     H12811   3.079   9.803  10.240 -2.1069 -0.5480  1.4007
   95MOL0     H12812   2.914   9.939  10.344 -2.6673  0.7845  0.3804
   95MOL0     H12813   2.720  10.269  10.115 -0.7823 -4.9150  0.0193
   95MOL0     H12814   2.844  10.329  10.228  0.6535 -0.8896 -2.4390
   95MOL0     H12815   2.604  10.410  10.250  1.4903 -0.2955 -2.1770
   95MOL0     H12816   2.658  10.341  10.397 -1.2819 -2.8041  0.9722
   95MOL0     H12817   2.557  10.108  10.326 -2.1762 -0.6247  1.4430
   95MOL0     H12818   2.486  10.187  10.194 -0.9233  0.5322  0.5430
   95MOL0     H12819   2.437  10.242  10.489  0.0268  2.0340  0.2236
   95MOL0     H12820   2.355  10.334  10.358 -4.5779 -2.3098 -1.2376
   95MOL0     H12821   2.183   9.934  10.364  3.0373 -1.6878 -0.8347
   95MOL0     H12822   2.839  10.141   9.976  2.8714  1.4839 -0.1162
   95MOL0     H12823   2.945  10.100   9.794  0.6664  0.6590  0.6368
   95MOL0     H12824   3.078   9.993   9.794  0.3571  0.7851 -2.4257
   95MOL0     H12825   2.912   9.922   9.757 -0.6338  1.7334 -0.2935
   96MOL0     O12826   3.685   4.128   1.311 -0.5285 -0.4692  0.1582
   96MOL0     C12827   3.633   4.097   1.414  0.3017  0.1320  0.1639
   96MOL0     O12828   3.627   4.170   1.527 -0.0019 -0.3945  0.4770
   96MOL0     C12829   3.667   4.311   1.522  0.3421  0.8399 -0.3083
   96MOL0     C12830   3.581   4.401   1.573 -0.8314 -0.6317 -0.2099
   96MOL0     C12831   3.598   4.541   1.556 -0.8853 -0.2556 -0.5094
   96MOL0     C12832   3.718   4.590   1.494  0.9574  0.2099  0.6113
   96MOL0     O12833   3.732   4.727   1.478 -1.0287  0.2248  0.3444
   96MOL0     C12834   3.864   4.773   1.445 -0.1295  0.7388 -0.0626
   96MOL0     C12835   3.909   4.764   1.299  0.2146 -1.3547 -0.0514
   96MOL0     C12836   3.790   4.768   1.203 -0.0389 -0.9199 -0.4335
   96MOL0     C12837   3.712   4.903   1.198  0.2596 -0.6777  1.1200
   96MOL0     C12838   3.613   4.912   1.078 -0.0993  0.4780 -0.5445
   96MOL0     C12839   3.514   4.801   1.054  0.7401 -0.0857 -0.5215
   96MOL0     C12840   3.410   4.854   0.951  0.3228 -0.7417 -0.4207
   96MOL0     C12841   3.462   4.911   0.816 -0.4852 -0.6484 -0.1475
   96MOL0     N12842   3.568   4.830   0.759  0.2996  0.6242  0.2447
   96MOL0     C12843   3.558   4.699   0.738 -0.6328  0.4360 -0.4703
   96MOL0     C12844   3.660   4.672   0.657  0.3287  0.2221  0.1424
   96MOL0     C12845   3.694   4.541   0.586  0.5765  0.0948 -0.1296
   96MOL0     C12846   3.643   4.526   0.443 -0.8853  0.1736  0.2151
   96MOL0     C12847   3.701   4.411   0.372 -0.1007 -0.9865  0.7447
   96MOL0     C12848   3.848   4.417   0.317  0.3381 -0.0999  0.3466
   96MOL0     O12849   3.944   4.393   0.422  0.4616  0.3890 -0.3538
   96MOL0     C12850   4.078   4.375   0.389 -0.8585  0.1423 -0.6342
   96MOL0     C12851   4.171   4.374   0.490 -0.6698  0.2563 -0.4633
   96MOL0     C12852   4.301   4.383   0.460 -0.9940  0.1249 -0.3839
   96MOL0     C12853   4.355   4.367   0.334 -0.2141  0.5920  0.5551
   96MOL0     C12854   4.506   4.373   0.312  0.1547  0.7797 -0.6196
   96MOL0     O12855   4.549   4.360   0.186 -0.3439  0.2344  0.0476
   96MOL0     C12856   4.682   4.391   0.146 -0.4832  0.2863  0.1927
   96MOL0     C12857   4.717   4.342   0.014 -0.4880  0.3930  0.0081
   96MOL0     C12858   4.838   4.369  -0.043  0.0776  0.1603 -0.3543
   96MOL0     C12859   4.926   4.452   0.023  0.2833  0.4548 -1.0830
   96MOL0     O12860   5.036   4.489  -0.048 -0.0244  0.2897 -0.0270
   96MOL0     C12861   5.148   4.550   0.026 -0.2422 -0.4868 -0.5514
   96MOL0     C12862   5.272   4.546  -0.077 -0.4188  0.0228 -0.3699
   96MOL0     C12863   5.292   4.404  -0.148  0.0756 -0.7432 -0.3689
   96MOL0     C12864   5.447   4.373  -0.162  0.5977  0.0719 -0.6563
   96MOL0     C12865   5.470   4.260  -0.254  0.2786  0.8333 -0.1315
   96MOL0     C12866   5.620   4.223  -0.270 -0.8692 -0.4998 -0.5080
   96MOL0     C12867   5.640   4.095  -0.346 -0.5809 -0.1537  0.2101
   96MOL0     C12868   5.777   4.082  -0.414 -0.1153  0.3551 -1.5191
   96MOL0    Cl12869   5.901   4.029  -0.289  0.1771  0.1744 -0.0932
   96MOL0     C12870   4.899   4.504   0.154 -0.3195 -0.4982  0.4595
   96MOL0     C12871   4.778   4.478   0.201 -0.1858 -0.2354 -0.3998
   96MOL0     O12872   4.583   4.392   0.405 -0.0189 -0.8011 -0.2001
   96MOL0     C12873   4.257   4.349   0.229 -0.1806  0.5718 -0.1104
   96MOL0     C12874   4.123   4.369   0.253  0.3517  0.7013  0.2241
   96MOL0     N12875   3.737   4.783   0.637  1.0575  0.1751 -0.6906
   96MOL0     N12876   3.682   4.873   0.702 -0.4098 -0.1071  0.6536
   96MOL0     C12877   3.812   4.490   1.444  0.4961 -0.8633  0.6182
   96MOL0     C12878   3.786   4.360   1.465  1.0215  0.2814  0.6094
   96MOL0     C12879   3.541   3.982   1.415  0.3388 -0.2216 -0.5267
   96MOL0     C12880   3.410   4.008   1.459  0.2926  0.1959 -0.4012
   96MOL0     C12881   3.314   3.917   1.434 -0.2006  0.0713 -0.1326
   96MOL0     C12882   3.339   3.789   1.387  0.3673  0.1643 -0.3837
   96MOL0     O12883   3.241   3.694   1.370 -0.2138  0.2321 -0.2069
   96MOL0     C12884   3.119   3.722   1.444 -1.0233  0.1339 -0.6822
   96MOL0     C12885   3.038   3.593   1.435  0.4436 -0.4655  0.3687
   96MOL0     C12886   2.897   3.609   1.500 -0.6634  0.3435 -0.7218
   96MOL0     C12887   2.813   3.476   1.485 -0.0575 -0.1385  0.7657
   96MOL0     C12888   2.876   3.365   1.558 -0.3368  0.2409  0.1108
   96MOL0     C12889   2.934   3.286   1.630  0.1968  0.0215 -0.2805
   96MOL0     C12890   3.473   3.761   1.350  0.4288 -0.4171  0.5953
   96MOL0     C12891   3.573   3.864   1.354  0.4091  0.6335 -0.0322
   96MOL0     C12892   3.708   3.830   1.293  0.6287  0.2645  0.9106
   96MOL0     H12893   3.512   4.352   1.641  1.2611 -2.0877  0.9574
   96MOL0     H12894   3.533   4.618   1.598 -0.4996  0.2498 -0.8310
   96MOL0     H12895   3.847   4.877   1.472 -2.1892  0.2070  0.8585
   96MOL0     H12896   3.944   4.741   1.513 -1.3927 -0.2837  1.0053
   96MOL0     H12897   3.971   4.674   1.289  0.0720 -1.7641  2.1846
   96MOL0     H12898   3.968   4.855   1.284 -1.5049  0.1987  2.0243
   96MOL0     H12899   3.718   4.687   1.220  0.0316 -1.3770 -2.0999
   96MOL0     H12900   3.827   4.752   1.101  0.3988 -0.6833 -0.3105
   96MOL0     H12901   3.654   4.908   1.290  0.6364 -2.0261  1.4587
   96MOL0     H12902   3.784   4.985   1.184 -0.8318  0.1971  0.4705
   96MOL0     H12903   3.558   5.005   1.092  0.5594  0.7804  0.1151
   96MOL0     H12904   3.676   4.923   0.989  1.5818  0.4638  0.5993
   96MOL0     H12905   3.561   4.709   1.019 -0.0419 -0.4338 -0.6708
   96MOL0     H12906   3.460   4.778   1.146  1.4729  0.8284  0.1599
   96MOL0     H12907   3.356   4.935   1.000 -0.0631 -1.8114  0.9789
   96MOL0     H12908   3.329   4.781   0.939 -2.0468  1.3348  1.7412
   96MOL0     H12909   3.383   4.921   0.740  2.2749 -1.2458 -3.3113
   96MOL0     H12910   3.501   5.008   0.846 -1.2501 -0.9777  2.1234
   96MOL0     H12911   3.487   4.626   0.775  1.1640 -0.4576  1.4481
   96MOL0     H12912   3.802   4.527   0.591  1.2397  2.2964 -4.1189
   96MOL0     H12913   3.656   4.455   0.642  2.3446  0.3697  1.5776
   96MOL0     H12914   3.534   4.522   0.444 -0.9065 -1.6830 -1.4923
   96MOL0     H12915   3.654   4.614   0.380 -2.3354  0.8613  0.8871
   96MOL0     H12916   3.646   4.388   0.281  0.4448 -0.3834  0.2500
   96MOL0     H12917   3.707   4.329   0.444  0.4706  0.6273  2.6395
   96MOL0     H12918   3.867   4.520   0.284  1.3582  1.6283  5.3196
   96MOL0     H12919   3.868   4.340   0.242 -0.7895  0.7537 -0.8753
   96MOL0     H12920   4.138   4.387   0.593  0.2101 -0.0062 -0.1359
   96MOL0     H12921   4.364   4.397   0.548 -2.6724  0.4546  0.8012
   96MOL0     H12922   4.656   4.272  -0.043 -0.9143  2.3089 -1.9935
   96MOL0     H12923   4.865   4.334  -0.142  0.7377  1.0699 -0.5132
   96MOL0     H12924   5.135   4.657   0.047  1.3323 -0.5196  0.7799
   96MOL0     H12925   5.159   4.491   0.117  1.0105  2.6749  1.5438
   96MOL0     H12926   5.262   4.620  -0.157  2.1231  2.0934  1.0823
   96MOL0     H12927   5.366   4.570  -0.028  1.0395 -0.2220 -2.8914
   96MOL0     H12928   5.257   4.323  -0.083 -0.9062 -0.9877 -1.1849
   96MOL0     H12929   5.241   4.392  -0.244  2.6178 -1.8157 -1.6977
   96MOL0     H12930   5.491   4.349  -0.066  0.9241 -0.2421 -0.8835
   96MOL0     H12931   5.496   4.456  -0.214 -0.1164  0.4416 -0.7529
   96MOL0     H12932   5.430   4.287  -0.353 -0.0600  0.6807 -0.0393
   96MOL0     H12933   5.422   4.172  -0.211 -0.7381  1.3704 -0.1148
   96MOL0     H12934   5.669   4.302  -0.329 -0.7866 -1.5373 -1.8635
   96MOL0     H12935   5.677   4.221  -0.177  1.9905 -2.7587 -2.1566
   96MOL0     H12936   5.560   4.096  -0.420 -2.1144  1.2473  1.7918
   96MOL0     H12937   5.624   4.008  -0.281 -2.0018 -1.9093 -2.3364
   96MOL0     H12938   5.772   3.997  -0.482 -0.8380 -0.1561 -0.8457
   96MOL0     H12939   5.799   4.170  -0.474 -0.4521  1.1366 -0.5164
   96MOL0     H12940   4.960   4.563   0.222  0.2406 -1.1473  0.5287
   96MOL0     H12941   4.758   4.533   0.293 -0.6914 -1.2057  0.0827
   96MOL0     H12942   4.286   4.332   0.126  1.6532 -0.4116  0.5126
   96MOL0     H12943   4.052   4.368   0.171 -0.6724 -1.5014  1.0441
   96MOL0     H12944   3.896   4.510   1.378 -0.4789  0.5053 -0.2584
   96MOL0     H12945   3.853   4.291   1.415 -0.8442 -0.7727 -0.5465
   96MOL0     H12946   3.367   4.101   1.495  0.9596  0.2115  0.3782
   96MOL0     H12947   3.213   3.948   1.460 -0.3307 -0.2600 -0.2300
   96MOL0     H12948   3.066   3.804   1.394 -0.0910  0.6783 -0.7991
   96MOL0     H12949   3.129   3.752   1.549 -0.6375 -2.6652  0.1753
   96MOL0     H12950   3.100   3.518   1.485 -0.4065 -1.0373  0.5976
   96MOL0     H12951   3.020   3.555   1.334  3.5484  3.5453 -1.9718
   96MOL0     H12952   2.844   3.687   1.444 -4.0019  0.6486  2.5497
   96MOL0     H12953   2.897   3.638   1.605 -1.1605 -2.3139  0.0706
   96MOL0     H12954   2.712   3.503   1.519 -0.9723 -1.4209 -0.8199
   96MOL0     H12955   2.797   3.443   1.382  0.4752 -0.3253  0.7415
   96MOL0     H12956   2.983   3.215   1.693 -2.1253  0.1249  1.7975
   96MOL0     H12957   3.490   3.670   1.294  1.1936  0.5847 -0.8589
   96MOL0     H12958   3.787   3.880   1.351 -0.1807  2.1325  0.4694
   96MOL0     H12959   3.732   3.725   1.310 -0.6287 -0.6094 -2.0880
   96MOL0     H12960   3.718   3.845   1.186  0.9758  0.7281  1.0039
   97MOL0     O12961   1.828   8.503   5.701  0.1716  0.3396  0.6647
   97MOL0     C12962   1.755   8.420   5.647  0.5928  0.0113  0.6164
   97MOL0     O12963   1.795   8.312   5.579 -0.0253  0.2148 -0.3668
   97MOL0     C12964   1.925   8.303   5.566  0.5470 -0.5135  0.0764
   97MOL0     C12965   2.006   8.267   5.684  0.4537 -0.1488 -0.6339
   97MOL0     C12966   2.141   8.237   5.679 -0.2368 -0.4208  0.1741
   97MOL0     C12967   2.205   8.249   5.556 -0.3173 -0.3550  0.0632
   97MOL0     O12968   2.343   8.219   5.559  0.7290  0.2674  0.0535
   97MOL0     C12969   2.415   8.215   5.441 -0.5443  0.8634  1.1423
   97MOL0     C12970   2.567   8.202   5.452 -0.3373 -0.0355 -0.2711
   97MOL0     C12971   2.629   8.339   5.475 -0.1475 -0.6323 -0.8324
   97MOL0     C12972   2.776   8.338   5.543  0.0678 -0.2556 -0.6301
   97MOL0     C12973   2.880   8.288   5.450  0.4830 -0.2530  1.3704
   97MOL0     C12974   2.919   8.395   5.342  0.7893 -0.3576  0.5097
   97MOL0     C12975   3.069   8.408   5.322  0.2696 -0.2239  0.0252
   97MOL0     C12976   3.122   8.315   5.218 -0.5122  0.0959 -0.0055
   97MOL0     N12977   3.271   8.321   5.236  0.3837  0.0324  0.3893
   97MOL0     C12978   3.353   8.428   5.204  0.8544 -0.3819 -0.4426
   97MOL0     C12979   3.481   8.386   5.237 -0.0184 -0.4315 -0.2071
   97MOL0     C12980   3.603   8.462   5.227 -0.3042  0.1337 -0.8417
   97MOL0     C12981   3.647   8.479   5.078 -0.2763 -0.2639 -0.3482
   97MOL0     C12982   3.675   8.340   5.006  0.2489  0.0201 -0.2418
   97MOL0     C12983   3.765   8.242   5.081  0.3227  0.2903 -0.9279
   97MOL0     O12984   3.901   8.300   5.095  1.3436 -0.1645  0.0365
   97MOL0     C12985   4.016   8.241   5.063 -0.1334  0.4321  0.4581
   97MOL0     C12986   4.033   8.106   5.043 -0.3963  0.8454 -0.3864
   97MOL0     C12987   4.157   8.054   5.015 -0.0484  0.2345  0.2039
   97MOL0     C12988   4.267   8.134   5.012 -0.3769 -1.9553 -0.2072
   97MOL0     C12989   4.402   8.078   4.994  0.0599  0.2303 -0.5222
   97MOL0     O12990   4.503   8.162   4.958  0.1522  0.2810 -0.3503
   97MOL0     C12991   4.630   8.126   4.966 -0.8005  0.1229 -0.1356
   97MOL0     C12992   4.684   8.028   4.887 -0.6034 -0.1773 -0.3056
   97MOL0     C12993   4.821   8.001   4.884  0.7305  0.0141  0.0682
   97MOL0     C12994   4.904   8.064   4.974 -0.2361 -0.4885  0.3927
   97MOL0     O12995   5.034   8.030   4.959 -0.0042  0.7540 -0.6404
   97MOL0     C12996   5.137   8.087   5.040  0.5952  0.3041  0.4734
   97MOL0     C12997   5.275   8.020   5.015  1.0390 -0.6550  0.5972
   97MOL0     C12998   5.391   8.126   5.040 -0.0846 -0.0703  0.2662
   97MOL0     C12999   5.520   8.045   5.024 -0.6775  0.2991 -0.2269
   97MOL0     C13000   5.627   8.148   4.989  0.5181  0.7987 -0.4182
   97MOL0     C13001   5.773   8.095   4.982 -0.0367  0.4833  0.9744
   97MOL0     C13002   5.821   8.033   5.115 -0.1221 -0.0145  0.0560
   97MOL0     C13003   5.951   7.954   5.100 -0.0899 -0.3397 -0.2760
   97MOL0    Cl13004   6.068   8.066   5.039 -0.0710 -0.3764  0.0395
   97MOL0     C13005   4.851   8.159   5.059 -0.6713  0.2123 -0.2209
   97MOL0     C13006   4.718   8.201   5.051  0.2538  0.0042 -0.2140
   97MOL0     O13007   4.410   7.955   4.999  0.2921  0.0332 -0.6156
   97MOL0     C13008   4.251   8.276   5.022 -0.4285  0.4739  0.2720
   97MOL0     C13009   4.127   8.327   5.054 -0.9037  1.3435  0.6623
   97MOL0     N13010   3.468   8.257   5.291  0.1564 -0.1584  0.4227
   97MOL0     N13011   3.344   8.222   5.283  0.1992  0.1757 -0.2181
   97MOL0     C13012   2.134   8.283   5.442  0.0478 -0.3388 -0.9990
   97MOL0     C13013   1.999   8.314   5.445 -0.1579 -0.1296 -0.5721
   97MOL0     C13014   1.611   8.431   5.671 -0.5718  0.4124 -0.4989
   97MOL0     C13015   1.534   8.311   5.659  1.0674  0.6302  0.0026
   97MOL0     C13016   1.394   8.303   5.689 -0.6658  0.1662  0.1616
   97MOL0     C13017   1.328   8.426   5.726 -0.8943  1.1577  0.7581
   97MOL0     O13018   1.204   8.406   5.766  0.1122 -0.0369 -0.7223
   97MOL0     C13019   1.141   8.462   5.877 -0.4094  0.3470  1.0630
   97MOL0     C13020   1.192   8.393   6.006 -0.2321 -0.4180 -0.8949
   97MOL0     C13021   1.088   8.393   6.115 -0.0697 -0.1667 -0.2796
   97MOL0     C13022   1.145   8.348   6.254 -0.0819  0.4426 -0.2063
   97MOL0     C13023   1.049   8.360   6.366 -1.0439  0.2303  0.5468
   97MOL0     C13024   0.968   8.366   6.455  0.4143  0.6920 -1.2062
   97MOL0     C13025   1.400   8.546   5.733 -0.2023  0.6755  0.0670
   97MOL0     C13026   1.543   8.550   5.708 -0.2028  0.2434  0.2540
   97MOL0     C13027   1.601   8.689   5.710 -0.3493 -0.4203 -0.5310
   97MOL0     H13028   1.952   8.261   5.778  1.5588 -2.8338 -0.0739
   97MOL0     H13029   2.187   8.205   5.772 -1.2016  1.0457  1.2050
   97MOL0     H13030   2.383   8.123   5.391  2.3001 -0.0498  0.7927
   97MOL0     H13031   2.390   8.292   5.367 -1.9490 -0.3048  0.3429
   97MOL0     H13032   2.608   8.162   5.359  1.7539 -0.3342  0.7333
   97MOL0     H13033   2.592   8.133   5.534  1.0579 -0.0657 -0.6975
   97MOL0     H13034   2.563   8.399   5.538 -2.0187 -0.3059 -2.9594
   97MOL0     H13035   2.632   8.382   5.374  1.8793 -0.6054 -0.8020
   97MOL0     H13036   2.797   8.435   5.589  0.5905 -0.0340 -1.3088
   97MOL0     H13037   2.770   8.274   5.631 -0.9376  1.9875  1.0375
   97MOL0     H13038   2.963   8.273   5.520  0.3872  0.7046  1.6912
   97MOL0     H13039   2.846   8.192   5.408  1.2490  0.1810 -0.3504
   97MOL0     H13040   2.864   8.381   5.248 -1.7308  1.3509  1.6240
   97MOL0     H13041   2.883   8.490   5.384 -0.8441 -0.3854 -0.7043
   97MOL0     H13042   3.126   8.406   5.416 -1.0173  3.0240  0.9844
   97MOL0     H13043   3.085   8.509   5.285  0.2527 -0.4827 -0.7119
   97MOL0     H13044   3.095   8.215   5.252 -1.0562  0.1425 -0.2935
   97MOL0     H13045   3.093   8.332   5.114  1.4070  1.5873 -0.3581
   97MOL0     H13046   3.329   8.530   5.175 -0.4558 -0.7906 -0.8463
   97MOL0     H13047   3.582   8.560   5.272  0.4295  0.7582 -1.8137
   97MOL0     H13048   3.692   8.421   5.274 -0.0994 -0.0521 -1.3916
   97MOL0     H13049   3.568   8.541   5.034  3.3474  3.8564 -1.7906
   97MOL0     H13050   3.738   8.539   5.068 -0.1759 -0.6457 -2.0306
   97MOL0     H13051   3.727   8.372   4.915 -2.0863  1.3008 -1.2074
   97MOL0     H13052   3.584   8.296   4.963  2.2303 -0.8037 -4.0771
   97MOL0     H13053   3.763   8.141   5.039 -1.3210 -1.0222  2.0100
   97MOL0     H13054   3.743   8.221   5.186  0.3170 -2.4277 -1.4045
   97MOL0     H13055   3.946   8.041   5.044 -0.3704  0.7173 -2.1218
   97MOL0     H13056   4.158   7.945   5.012 -1.3401 -0.0894  4.4206
   97MOL0     H13057   4.610   7.967   4.836 -3.7305  2.7802  0.3422
   97MOL0     H13058   4.852   7.913   4.830 -2.3264 -0.3949 -1.1765
   97MOL0     H13059   5.146   8.189   5.002  0.8200  0.6260  1.3791
   97MOL0     H13060   5.111   8.092   5.146  0.2281 -0.0837  0.4022
   97MOL0     H13061   5.275   7.936   5.086 -0.8266 -1.3032 -0.0948
   97MOL0     H13062   5.264   7.987   4.911  1.1609 -3.6652  1.4245
   97MOL0     H13063   5.392   8.201   4.961 -1.7671 -3.1410 -2.9875
   97MOL0     H13064   5.388   8.167   5.142  2.7234 -0.6699  0.6537
   97MOL0     H13065   5.511   7.984   4.934  2.2557  0.0862 -0.4823
   97MOL0     H13066   5.546   7.987   5.112  0.1801 -4.0516 -3.0353
   97MOL0     H13067   5.619   8.230   5.062 -2.2717  1.1591 -1.0107
   97MOL0     H13068   5.607   8.194   4.892 -1.4175 -0.3852 -0.6425
   97MOL0     H13069   5.793   8.033   4.894  2.6005  3.4948 -0.7620
   97MOL0     H13070   5.844   8.178   4.977 -1.2530  1.5716  1.2062
   97MOL0     H13071   5.756   7.960   5.165  1.6066 -0.6880  1.4482
   97MOL0     H13072   5.832   8.118   5.183  0.3180  2.1263 -2.5244
   97MOL0     H13073   5.987   7.917   5.197  0.8027 -0.7064 -0.7408
   97MOL0     H13074   5.940   7.875   5.026  0.6022  0.1986 -0.9627
   97MOL0     H13075   4.910   8.207   5.136 -1.0161  0.6626 -0.2343
   97MOL0     H13076   4.688   8.284   5.114  1.6423 -0.9754  1.8556
   97MOL0     H13077   4.337   8.343   5.028 -0.3714  0.4924 -0.7372
   97MOL0     H13078   4.096   8.428   5.078 -4.9038 -0.3507  3.7494
   97MOL0     H13079   2.186   8.295   5.348  0.7760  0.2529 -0.5359
   97MOL0     H13080   1.952   8.343   5.351 -0.4395 -0.7597 -0.6321
   97MOL0     H13081   1.576   8.216   5.626 -0.3035  0.1261 -0.3435
   97MOL0     H13082   1.338   8.211   5.684 -0.2877 -0.0269 -0.6212
   97MOL0     H13083   1.036   8.443   5.853  0.1256  1.0795 -2.4944
   97MOL0     H13084   1.168   8.568   5.887  2.4888 -0.0013 -1.4778
   97MOL0     H13085   1.272   8.445   6.061 -1.4739  0.0726  0.5333
   97MOL0     H13086   1.227   8.293   5.978 -2.9405 -2.0910  1.2019
   97MOL0     H13087   0.999   8.335   6.089  0.8612 -1.2447 -1.1663
   97MOL0     H13088   1.051   8.495   6.134  0.8351 -0.1779  1.7936
   97MOL0     H13089   1.161   8.240   6.240 -0.1348  0.7086 -2.7399
   97MOL0     H13090   1.243   8.393   6.276 -0.9002  0.8374  3.3075
   97MOL0     H13091   0.902   8.351   6.537  1.1260 -1.3782 -0.9465
   97MOL0     H13092   1.354   8.642   5.753  1.1279  1.4351 -0.4196
   97MOL0     H13093   1.532   8.774   5.711  0.5170  0.3031 -0.5264
   97MOL0     H13094   1.667   8.683   5.797 -1.8818 -2.1621  0.5845
   97MOL0     H13095   1.657   8.709   5.618 -0.3606  1.2440 -0.1982
   98MOL0     O13096  10.234   1.363   2.714  0.5119 -0.2260 -0.1195
   98MOL0     C13097  10.264   1.338   2.592  0.4069 -0.0069 -0.8189
   98MOL0     O13098  10.190   1.252   2.512  0.0048 -0.5720 -0.3079
   98MOL0     C13099  10.084   1.179   2.568 -0.6083 -0.4110  0.0637
   98MOL0     C13100   9.954   1.214   2.532  0.7261 -0.4465  0.6963
   98MOL0     C13101   9.850   1.141   2.590 -0.4727 -0.0450 -0.1902
   98MOL0     C13102   9.862   1.047   2.693 -0.5596 -0.3776 -0.3720
   98MOL0     O13103   9.755   0.988   2.751  0.1972  0.4877 -0.2327
   98MOL0     C13104   9.631   1.050   2.759  0.6420 -0.0171  0.0456
   98MOL0     C13105   9.533   0.981   2.677  0.4203  0.8618 -0.3477
   98MOL0     C13106   9.389   1.014   2.713  0.1636  0.1029 -0.5435
   98MOL0     C13107   9.292   1.003   2.587 -1.0465  0.4909  0.1435
   98MOL0     C13108   9.151   1.025   2.634 -0.2700 -0.1294 -0.4531
   98MOL0     C13109   9.040   1.008   2.522  0.9762 -0.2878 -0.4439
   98MOL0     C13110   8.892   1.028   2.576  0.3847 -0.3235 -0.4251
   98MOL0     C13111   8.806   0.902   2.623 -0.1625  0.6660  0.2566
   98MOL0     N13112   8.681   0.943   2.686 -0.7532  0.6763 -0.7612
   98MOL0     C13113   8.562   0.960   2.619 -0.3693 -0.8343 -0.8220
   98MOL0     C13114   8.473   0.998   2.709 -1.1494  0.1368  0.3323
   98MOL0     C13115   8.329   1.030   2.678 -0.6017 -0.9059 -0.4384
   98MOL0     C13116   8.311   1.171   2.632 -0.0296 -0.5166 -0.4898
   98MOL0     C13117   8.347   1.277   2.733 -0.4359 -0.1004 -0.3713
   98MOL0     C13118   8.341   1.421   2.671 -0.7234  0.2663 -0.2736
   98MOL0     O13119   8.440   1.443   2.571  0.1154 -0.9354  0.2052
   98MOL0     C13120   8.568   1.454   2.624 -0.6209 -0.0255 -0.1548
   98MOL0     C13121   8.610   1.528   2.736  0.1754 -0.7407  0.4505
   98MOL0     C13122   8.748   1.546   2.764 -0.3586 -0.0932 -0.0027
   98MOL0     C13123   8.847   1.478   2.684  0.1329  0.0807 -0.0204
   98MOL0     C13124   8.985   1.500   2.706  0.2896  0.4739  0.2168
   98MOL0     O13125   9.064   1.488   2.598  0.0400 -0.5308  0.2365
   98MOL0     C13126   9.204   1.485   2.625 -0.0702  0.2750 -0.1408
   98MOL0     C13127   9.280   1.377   2.579 -0.0937 -0.1583 -0.1982
   98MOL0     C13128   9.420   1.370   2.590 -0.0446  0.0901  0.0821
   98MOL0     C13129   9.486   1.478   2.645  0.6244  0.4239 -0.2375
   98MOL0     O13130   9.624   1.467   2.643  0.0307  0.8075  0.4829
   98MOL0     C13131   9.707   1.564   2.707  0.7305  0.5793  0.6612
   98MOL0     C13132   9.846   1.539   2.645  0.1116 -0.2359  0.0883
   98MOL0     C13133   9.940   1.652   2.685 -0.8898  0.1576  0.9023
   98MOL0     C13134  10.086   1.637   2.629  0.2410 -0.0251 -0.0065
   98MOL0     C13135  10.078   1.660   2.478 -0.5984 -0.1522 -0.4652
   98MOL0     C13136  10.211   1.707   2.423  0.0016 -0.8568  0.1382
   98MOL0     C13137  10.197   1.791   2.294 -0.7630  0.1684 -0.1926
   98MOL0     C13138  10.323   1.789   2.213 -0.0243 -0.4712 -0.0659
   98MOL0    Cl13139  10.319   1.937   2.109  0.0608 -0.2878 -0.1106
   98MOL0     C13140   9.416   1.590   2.693  0.3944 -0.0884  0.1770
   98MOL0     C13141   9.275   1.594   2.688 -0.4677  0.1104  0.1254
   98MOL0     O13142   9.010   1.537   2.820  0.2609 -0.2426 -0.2137
   98MOL0     C13143   8.800   1.399   2.582 -0.4031  0.5677 -0.8314
   98MOL0     C13144   8.666   1.375   2.559  0.4905 -0.2481 -0.5025
   98MOL0     N13145   8.528   0.980   2.837 -0.1363 -0.1387 -0.0547
   98MOL0     N13146   8.651   0.938   2.817  0.2253 -0.3238  0.2774
   98MOL0     C13147   9.991   1.013   2.729  0.2198  0.1958 -0.3242
   98MOL0     C13148  10.101   1.078   2.666  0.4812 -0.4974  0.1852
   98MOL0     C13149  10.369   1.410   2.523 -0.8022 -0.0365 -0.6847
   98MOL0     C13150  10.396   1.387   2.390  0.1668  0.2906 -0.2659
   98MOL0     C13151  10.505   1.435   2.325 -0.6656 -0.9449  0.0740
   98MOL0     C13152  10.600   1.521   2.393 -0.0863 -0.7051  0.2684
   98MOL0     O13153  10.696   1.596   2.333 -0.9048  0.4429 -0.3177
   98MOL0     C13154  10.743   1.576   2.200 -0.6668  0.4056 -0.2117
   98MOL0     C13155  10.847   1.681   2.170  0.0777 -0.4109  0.1295
   98MOL0     C13156  10.790   1.823   2.162  0.0043  0.3283  0.0400
   98MOL0     C13157  10.725   1.856   2.023 -0.5036 -0.6407  0.7406
   98MOL0     C13158  10.689   2.002   2.001 -0.7101  0.0388 -0.3860
   98MOL0     C13159  10.679   2.122   1.981  0.4224  0.9096  0.0684
   98MOL0     C13160  10.576   1.558   2.518 -0.1704 -0.1166  0.4543
   98MOL0     C13161  10.463   1.500   2.582  1.0112 -0.3233 -0.6077
   98MOL0     C13162  10.446   1.535   2.725  0.0501  0.5572 -0.2506
   98MOL0     H13163   9.926   1.292   2.462 -1.3505 -2.6791 -1.1623
   98MOL0     H13164   9.751   1.183   2.576 -0.4737  0.5077  1.2950
   98MOL0     H13165   9.600   1.038   2.863 -0.3484 -0.7847 -0.3273
   98MOL0     H13166   9.626   1.157   2.737 -0.6551  0.5080  2.5633
   98MOL0     H13167   9.541   0.872   2.690 -2.3036  0.4606 -1.3313
   98MOL0     H13168   9.553   1.006   2.573 -0.2959 -1.7113 -1.1771
   98MOL0     H13169   9.380   1.109   2.766 -1.8909  0.7959 -1.9720
   98MOL0     H13170   9.364   0.929   2.776  0.8854  0.0201 -0.3594
   98MOL0     H13171   9.336   1.069   2.513 -1.0280 -0.1241 -0.4005
   98MOL0     H13172   9.291   0.906   2.537 -1.3805  1.8029 -2.6075
   98MOL0     H13173   9.138   0.947   2.710  0.8296 -1.3760 -1.5020
   98MOL0     H13174   9.138   1.122   2.684 -0.6100 -0.2819 -0.2399
   98MOL0     H13175   9.059   1.085   2.447  1.3646 -1.1159 -1.2141
   98MOL0     H13176   9.043   0.908   2.477 -0.3469  0.1090 -1.4588
   98MOL0     H13177   8.828   1.078   2.503 -1.7886  1.3707  2.4437
   98MOL0     H13178   8.907   1.089   2.666 -2.4813 -2.1282  1.4334
   98MOL0     H13179   8.785   0.851   2.528  0.2943  2.1826 -0.6919
   98MOL0     H13180   8.864   0.833   2.685 -1.3763 -1.1476 -0.5299
   98MOL0     H13181   8.544   0.951   2.513 -2.3516  1.3917 -0.7475
   98MOL0     H13182   8.291   0.960   2.603 -0.6726  1.5665 -2.8830
   98MOL0     H13183   8.275   1.013   2.771  0.4735  0.5807  0.5088
   98MOL0     H13184   8.360   1.190   2.537  2.0072  0.1526  0.6390
   98MOL0     H13185   8.206   1.184   2.605 -0.2908 -5.6747 -3.2953
   98MOL0     H13186   8.449   1.262   2.769 -0.0157  0.2571 -1.3628
   98MOL0     H13187   8.272   1.272   2.812 -1.1101  2.5953 -0.7357
   98MOL0     H13188   8.344   1.494   2.753  0.4633  0.4810 -0.4888
   98MOL0     H13189   8.239   1.418   2.633 -0.4510 -0.5983 -0.9940
   98MOL0     H13190   8.544   1.586   2.801  1.4732  2.3461 -0.7647
   98MOL0     H13191   8.773   1.602   2.853 -0.4634  0.7703 -0.4991
   98MOL0     H13192   9.216   1.303   2.533 -0.2610  1.2893 -2.4788
   98MOL0     H13193   9.479   1.284   2.562 -1.8898 -1.8822  1.8524
   98MOL0     H13194   9.676   1.668   2.687 -0.3537 -0.2119 -2.3830
   98MOL0     H13195   9.711   1.549   2.815 -0.6318 -0.2167  0.6319
   98MOL0     H13196   9.891   1.446   2.681  0.5562  0.1058  0.4335
   98MOL0     H13197   9.846   1.545   2.536  1.4542 -3.0159 -0.1494
   98MOL0     H13198   9.901   1.743   2.639  0.5936  0.1571 -0.4523
   98MOL0     H13199   9.946   1.648   2.794  1.6219 -1.5080  0.7951
   98MOL0     H13200  10.129   1.539   2.650  0.1109 -0.0386  0.1978
   98MOL0     H13201  10.155   1.712   2.670  1.5035 -0.6343 -0.9390
   98MOL0     H13202  10.010   1.744   2.461 -0.1855  0.9929  2.7774
   98MOL0     H13203  10.035   1.570   2.434  0.1603 -1.4489  1.3144
   98MOL0     H13204  10.255   1.766   2.504  0.7124 -1.8545  0.4967
   98MOL0     H13205  10.271   1.620   2.398  1.1051  0.5033 -2.3365
   98MOL0     H13206  10.183   1.897   2.316  3.7807  0.4337  2.5787
   98MOL0     H13207  10.116   1.752   2.232  0.7259  1.2485 -3.0098
   98MOL0     H13208  10.409   1.806   2.278  1.9993 -1.7556 -2.2183
   98MOL0     H13209  10.336   1.697   2.155 -3.3119  0.7587 -3.1287
   98MOL0     H13210   9.466   1.675   2.739 -1.7985 -0.0430  2.6838
   98MOL0     H13211   9.236   1.686   2.731  0.7460  0.0800  1.3967
   98MOL0     H13212   8.874   1.338   2.531  2.4954  0.5175  3.0120
   98MOL0     H13213   8.625   1.311   2.482 -1.0451 -0.3970  0.3932
   98MOL0     H13214  10.010   0.937   2.804  0.0132 -0.2230 -0.6931
   98MOL0     H13215  10.198   1.050   2.706  1.4499 -0.2666 -1.9032
   98MOL0     H13216  10.335   1.328   2.323 -0.2264  0.6649 -0.2415
   98MOL0     H13217  10.506   1.416   2.218  1.2621 -1.7508  0.1925
   98MOL0     H13218  10.659   1.585   2.130 -0.2137  0.0768 -0.7985
   98MOL0     H13219  10.775   1.471   2.202 -0.0038  0.6113  0.6773
   98MOL0     H13220  10.879   1.651   2.070 -0.3700 -0.9992  0.1587
   98MOL0     H13221  10.932   1.681   2.239 -0.5475 -1.0916  0.9198
   98MOL0     H13222  10.865   1.896   2.193 -0.5421  0.8624  0.1270
   98MOL0     H13223  10.723   1.832   2.248  0.3616  1.8732  0.1867
   98MOL0     H13224  10.796   1.839   1.942 -2.0314  0.3390 -0.8551
   98MOL0     H13225  10.643   1.783   2.022  1.1105 -2.5532  1.2674
   98MOL0     H13226  10.676   2.226   1.955  2.0162  0.8165 -0.6290
   98MOL0     H13227  10.644   1.634   2.556  0.0126 -0.3707  0.6388
   98MOL0     H13228  10.347   1.580   2.734  0.3699  0.8009  3.8620
   98MOL0     H13229  10.441   1.446   2.788  0.0275 -0.0322 -1.0720
   98MOL0     H13230  10.518   1.609   2.762 -1.0649  0.6759  1.8684
   99MOL0     O13231   5.747   2.080   9.739  0.7365  0.1199  0.1298
   99MOL0     C13232   5.675   2.177   9.717 -0.7566 -0.4608  0.1385
   99MOL0     O13233   5.733   2.297   9.668 -0.3025 -0.0730  0.2209
   99MOL0     C13234   5.870   2.309   9.665 -0.1277 -0.1941 -0.2831
   99MOL0     C13235   5.938   2.393   9.751 -0.2667 -0.1318 -0.3736
   99MOL0     C13236   6.075   2.409   9.742  0.1213 -0.3204 -0.4159
   99MOL0     C13237   6.145   2.344   9.643  0.2482 -0.8179  0.1924
   99MOL0     O13238   6.278   2.371   9.640  0.3390 -0.6121 -0.0832
   99MOL0     C13239   6.356   2.346   9.519  0.2547  0.0307 -0.1704
   99MOL0     C13240   6.497   2.408   9.547  0.2402 -0.2369 -0.2032
   99MOL0     C13241   6.581   2.345   9.438  0.0305 -0.1536 -0.7444
   99MOL0     C13242   6.724   2.405   9.437 -0.8701 -0.1149  0.4409
   99MOL0     C13243   6.813   2.360   9.539 -0.5115  0.5440 -0.1891
   99MOL0     C13244   6.956   2.414   9.544 -0.2638  0.2782 -0.3217
   99MOL0     C13245   7.036   2.329   9.644 -0.2186 -0.9418 -0.8301
   99MOL0     C13246   7.179   2.382   9.661  0.0192 -0.1843  0.6269
   99MOL0     N13247   7.252   2.362   9.534 -0.4755 -1.3374  0.0343
   99MOL0     C13248   7.297   2.461   9.453 -0.5746 -0.3959  0.9362
   99MOL0     C13249   7.367   2.396   9.345  0.4485 -0.7123  0.7258
   99MOL0     C13250   7.419   2.461   9.218  0.4112 -0.2595  0.9757
   99MOL0     C13251   7.568   2.502   9.225 -0.1612 -1.0924  1.0993
   99MOL0     C13252   7.626   2.534   9.087 -0.4841  1.0264 -0.0339
   99MOL0     C13253   7.768   2.595   9.098 -0.1596  0.0661 -0.0315
   99MOL0     O13254   7.866   2.510   9.159 -0.0651 -0.8675  0.0559
   99MOL0     C13255   7.990   2.565   9.169  0.7257  0.0114 -0.3956
   99MOL0     C13256   8.041   2.666   9.094 -0.0914 -0.3592 -0.1384
   99MOL0     C13257   8.173   2.701   9.101 -0.7769 -0.6453 -0.1519
   99MOL0     C13258   8.260   2.641   9.196  0.7290  0.1009 -0.1884
   99MOL0     C13259   8.397   2.697   9.210  0.1847  0.7344 -0.2943
   99MOL0     O13260   8.481   2.616   9.284  0.1710 -0.2657 -0.7285
   99MOL0     C13261   8.620   2.641   9.309  0.5984 -0.4779  0.2245
   99MOL0     C13262   8.696   2.755   9.282 -0.2953 -0.4960 -0.2816
   99MOL0     C13263   8.837   2.757   9.322  0.5225 -0.1828  0.0566
   99MOL0     C13264   8.900   2.647   9.381  0.4067  0.6580 -0.4309
   99MOL0     O13265   9.031   2.654   9.411 -0.1711  0.1104 -0.4449
   99MOL0     C13266   9.085   2.778   9.449 -0.9432 -0.6252 -0.0093
   99MOL0     C13267   9.220   2.769   9.524 -0.0998 -0.3131  0.4534
   99MOL0     C13268   9.327   2.683   9.455 -0.1865  0.4167  0.0598
   99MOL0     C13269   9.448   2.691   9.532  0.4845  0.2361  0.3286
   99MOL0     C13270   9.560   2.600   9.490 -0.2432 -0.0803 -0.1864
   99MOL0     C13271   9.697   2.624   9.553  0.0630  0.1561 -0.5670
   99MOL0     C13272   9.791   2.511   9.519 -0.3514  1.1271  0.3660
   99MOL0     C13273   9.914   2.520   9.611 -0.2268 -0.6204  0.2862
   99MOL0    Cl13274   9.881   2.482   9.775  0.1845  0.0610 -0.3750
   99MOL0     C13275   8.823   2.533   9.407 -0.0900  0.0238  0.0136
   99MOL0     C13276   8.689   2.529   9.371 -0.5868  0.9307  0.5106
   99MOL0     O13277   8.432   2.806   9.163 -0.5871  0.1359  0.4009
   99MOL0     C13278   8.213   2.540   9.270 -0.2872  0.5120  0.5209
   99MOL0     C13279   8.075   2.497   9.253  0.0591  0.8696 -0.0432
   99MOL0     N13280   7.371   2.260   9.372 -1.0018 -0.6946  0.7488
   99MOL0     N13281   7.303   2.245   9.488 -0.1972  0.1184  0.3531
   99MOL0     C13282   6.076   2.275   9.544 -0.5857 -1.1138  0.5399
   99MOL0     C13283   5.938   2.253   9.554  0.5385  0.0570  0.1381
   99MOL0     C13284   5.527   2.169   9.730  0.4188  0.0692  0.2236
   99MOL0     C13285   5.474   2.045   9.707  0.1240 -0.6385  0.4577
   99MOL0     C13286   5.336   2.030   9.693 -0.2690 -0.4897 -0.0007
   99MOL0     C13287   5.245   2.136   9.703 -0.0454  0.7322 -0.2251
   99MOL0     O13288   5.110   2.129   9.692 -0.1104 -0.1854 -0.1632
   99MOL0     C13289   5.046   2.000   9.691  0.1315  1.2332 -0.1860
   99MOL0     C13290   4.892   2.003   9.677  0.7910  0.3747 -0.1965
   99MOL0     C13291   4.832   2.114   9.772  0.0813 -0.4623 -0.0081
   99MOL0     C13292   4.682   2.097   9.787  0.1778 -0.6332 -0.3613
   99MOL0     C13293   4.658   2.022   9.914 -0.8340  0.1521  0.0135
   99MOL0     C13294   4.649   1.955  10.012 -0.4926  0.5268 -0.2398
   99MOL0     C13295   5.300   2.259   9.729 -0.1921 -0.6615 -0.5646
   99MOL0     C13296   5.441   2.283   9.748  0.4214  0.3782  0.2617
   99MOL0     C13297   5.484   2.424   9.777  0.3073 -0.1828 -0.5867
   99MOL0     H13298   5.889   2.435   9.839 -1.8026 -2.8275  0.1682
   99MOL0     H13299   6.133   2.468   9.814 -2.6486  1.1877  0.7334
   99MOL0     H13300   6.371   2.238   9.507  1.8857  0.3116 -1.0223
   99MOL0     H13301   6.314   2.381   9.424 -3.3641 -1.3844  0.7797
   99MOL0     H13302   6.537   2.403   9.649 -1.1376  1.3058  0.4593
   99MOL0     H13303   6.486   2.516   9.537  1.7298  0.1239  1.5595
   99MOL0     H13304   6.542   2.362   9.337 -2.1177 -3.8858 -0.7179
   99MOL0     H13305   6.590   2.236   9.446  0.7862 -0.2149 -2.1104
   99MOL0     H13306   6.771   2.389   9.340 -2.4026  0.2912 -0.3998
   99MOL0     H13307   6.710   2.510   9.464 -0.3312 -0.4189  2.0489
   99MOL0     H13308   6.767   2.371   9.638 -1.2804 -2.2970 -0.1430
   99MOL0     H13309   6.822   2.251   9.537  1.8023  0.6183  1.8038
   99MOL0     H13310   6.998   2.417   9.443  0.8115  0.2459  0.1183
   99MOL0     H13311   6.952   2.520   9.571  0.5039  1.0032 -2.7966
   99MOL0     H13312   7.039   2.221   9.627 -0.5338 -1.2215  0.7044
   99MOL0     H13313   6.982   2.344   9.739  0.4282  0.8832 -0.7120
   99MOL0     H13314   7.178   2.488   9.686 -0.4331  0.1791 -0.7933
   99MOL0     H13315   7.238   2.332   9.738 -1.4043 -0.1949  1.7471
   99MOL0     H13316   7.268   2.566   9.452 -3.0097 -1.0087 -0.4888
   99MOL0     H13317   7.396   2.403   9.127 -1.5544  1.4451  0.3282
   99MOL0     H13318   7.371   2.558   9.206 -0.3192 -0.5642  1.3266
   99MOL0     H13319   7.581   2.583   9.297  2.6083 -0.1965 -0.2583
   99MOL0     H13320   7.623   2.415   9.262  1.8696 -0.7382 -0.8514
   99MOL0     H13321   7.557   2.600   9.033 -1.0363  0.5811  0.1121
   99MOL0     H13322   7.629   2.444   9.025 -0.1745 -0.1030  1.5588
   99MOL0     H13323   7.769   2.684   9.161 -1.6315 -0.9862  1.5924
   99MOL0     H13324   7.787   2.609   8.992 -2.9305  0.7201 -0.5319
   99MOL0     H13325   7.983   2.719   9.019  0.8252  0.2891 -0.4163
   99MOL0     H13326   8.217   2.777   9.038  0.1725 -2.1386 -1.3463
   99MOL0     H13327   8.649   2.843   9.241  0.9098 -0.5172 -1.7856
   99MOL0     H13328   8.883   2.853   9.300  0.0990 -0.2788 -1.3128
   99MOL0     H13329   9.108   2.828   9.355 -0.7973 -2.2579 -0.8868
   99MOL0     H13330   9.013   2.836   9.508  0.3093  0.9518  0.0291
   99MOL0     H13331   9.266   2.867   9.543 -2.8360  1.1412  0.0666
   99MOL0     H13332   9.192   2.724   9.620  0.5106  0.3554  0.9549
   99MOL0     H13333   9.289   2.581   9.441 -0.3684  0.2574  1.6139
   99MOL0     H13334   9.330   2.726   9.354 -0.3036  2.0273  0.7135
   99MOL0     H13335   9.418   2.677   9.636  1.3787  3.9312  1.2416
   99MOL0     H13336   9.479   2.796   9.535 -1.5346  0.8486  1.3402
   99MOL0     H13337   9.565   2.608   9.381  0.0974 -2.6384 -0.4186
   99MOL0     H13338   9.527   2.499   9.518  0.4401  0.1310  1.4826
   99MOL0     H13339   9.735   2.720   9.514 -1.7897  1.4704  0.6926
   99MOL0     H13340   9.692   2.637   9.662 -0.2314 -0.8124 -0.4553
   99MOL0     H13341   9.823   2.512   9.414  0.3532  0.7107  0.5722
   99MOL0     H13342   9.750   2.410   9.523  1.9611  0.1348  0.4803
   99MOL0     H13343   9.996   2.453   9.583 -0.9473 -1.1424 -0.6361
   99MOL0     H13344   9.958   2.620   9.606 -0.6267 -0.4468  0.1729
   99MOL0     H13345   8.874   2.452   9.458  0.8864 -0.4919 -1.7030
   99MOL0     H13346   8.623   2.445   9.389 -1.3685  1.5900  0.8165
   99MOL0     H13347   8.277   2.484   9.337 -0.4195 -1.0945 -0.6224
   99MOL0     H13348   8.036   2.412   9.309  0.9561  0.2648 -0.3236
   99MOL0     H13349   6.128   2.226   9.463  0.0790 -2.8102  1.9314
   99MOL0     H13350   5.879   2.200   9.479  1.1925 -2.9943  1.5926
   99MOL0     H13351   5.541   1.962   9.687 -0.4133 -0.4730 -2.4513
   99MOL0     H13352   5.310   1.927   9.667 -0.0010 -1.0311  1.7944
   99MOL0     H13353   5.067   1.953   9.787  0.3240  4.4982  1.5112
   99MOL0     H13354   5.077   1.929   9.614 -3.1941 -3.4523  2.2721
   99MOL0     H13355   4.853   1.903   9.699  1.3078 -0.3270 -2.2569
   99MOL0     H13356   4.866   2.029   9.574  1.0086 -0.7461 -0.5534
   99MOL0     H13357   4.850   2.212   9.727 -1.8998  0.5345  1.2238
   99MOL0     H13358   4.887   2.122   9.865 -0.2194  1.0917  0.0530
   99MOL0     H13359   4.633   2.192   9.809  2.1016 -0.3891  3.8716
   99MOL0     H13360   4.645   2.050   9.696  4.1512 -2.0453 -1.4714
   99MOL0     H13361   4.652   1.903  10.106 -0.6386  2.7946  1.0683
   99MOL0     H13362   5.228   2.339   9.741  1.4330  0.7256  0.3386
   99MOL0     H13363   5.549   2.454   9.695  0.4059 -0.6352 -0.6754
   99MOL0     H13364   5.399   2.491   9.786 -0.1687 -0.4598 -2.6496
   99MOL0     H13365   5.538   2.432   9.872 -0.3529  0.3038 -0.2493
  100MOL0     O13366  10.772   9.399   8.124 -0.2982 -0.6521  0.5546
  100MOL0     C13367  10.722   9.500   8.152 -0.0481  0.9356  0.2276
  100MOL0     O13368  10.788   9.604   8.214  0.3247  0.2956 -0.5129
  100MOL0     C13369  10.908   9.565   8.268  0.1860  0.5487  0.4105
  100MOL0     C13370  10.931   9.581   8.402  0.4419 -0.0662  0.1222
  100MOL0     C13371  11.052   9.539   8.455 -0.4283 -0.2938 -0.7529
  100MOL0     C13372  11.155   9.488   8.378 -0.0273  0.8590  0.2135
  100MOL0     O13373  11.279   9.461   8.435  0.2077  0.2894 -0.2028
  100MOL0     C13374  11.387   9.537   8.370 -0.1357  0.8505 -0.0847
  100MOL0     C13375  11.521   9.516   8.452 -0.1527  0.5428 -0.7990
  100MOL0     C13376  11.647   9.561   8.377 -0.6720  0.2985 -0.1623
  100MOL0     C13377  11.772   9.592   8.457  0.8231 -0.0272  0.9061
  100MOL0     C13378  11.825   9.464   8.533 -0.1791  0.1239  0.0103
  100MOL0     C13379  11.959   9.498   8.584  0.0327  0.2526 -0.5107
  100MOL0     C13380  12.025   9.394   8.679  0.2036  0.1296  0.1410
  100MOL0     C13381  12.148   9.457   8.742  0.8175 -0.3914 -0.0733
  100MOL0     N13382  12.262   9.469   8.657 -0.0063  0.3217  1.3770
  100MOL0     C13383  12.330   9.359   8.603 -0.0294  0.1987  0.1428
  100MOL0     C13384  12.421   9.418   8.514 -0.0925  0.2689 -0.2073
  100MOL0     C13385  12.518   9.342   8.425 -0.9413 -0.4842 -0.1298
  100MOL0     C13386  12.662   9.315   8.498 -0.0683 -0.7391 -0.0948
  100MOL0     C13387  12.765   9.261   8.396  0.2515  1.0797  0.2115
  100MOL0     C13388  12.895   9.225   8.473 -0.5078 -0.5895 -0.0195
  100MOL0     O13389  12.955   9.353   8.515  1.1335  0.4676  0.3808
  100MOL0     C13390  13.066   9.390   8.443 -0.2734 -0.1876 -1.0530
  100MOL0     C13391  13.188   9.364   8.499 -0.0682 -0.1038 -0.6201
  100MOL0     C13392  13.302   9.413   8.442 -0.8431 -0.3581  0.7769
  100MOL0     C13393  13.300   9.477   8.312 -0.1189  0.6921 -0.7520
  100MOL0     C13394  13.425   9.533   8.261 -0.4997 -0.2547  0.7174
  100MOL0     O13395  13.539   9.465   8.278  0.4807  0.0241  0.1656
  100MOL0     C13396  13.649   9.527   8.228 -0.1815  0.3520 -0.2688
  100MOL0     C13397  13.711   9.626   8.302 -0.8620  0.0693 -0.3869
  100MOL0     C13398  13.838   9.671   8.259  0.1691  0.0840 -0.2804
  100MOL0     C13399  13.900   9.619   8.143  0.2656  0.8491  0.0762
  100MOL0     O13400  14.027   9.667   8.110  0.2994 -0.4951  0.6684
  100MOL0     C13401  14.073   9.639   7.980 -0.0360  0.1390  0.3100
  100MOL0     C13402  14.182   9.738   7.945  0.3507 -0.7508 -0.1820
  100MOL0     C13403  14.235   9.697   7.810  0.6016  0.1038 -0.2946
  100MOL0     C13404  14.385   9.726   7.778  0.0727 -1.1628  0.1325
  100MOL0     C13405  14.428   9.666   7.646  0.2705 -0.3304  0.9294
  100MOL0     C13406  14.579   9.705   7.610  0.0894 -0.2973 -0.2864
  100MOL0     C13407  14.625   9.621   7.487 -0.7813 -0.8378  0.2377
  100MOL0     C13408  14.748   9.684   7.433 -0.3064 -0.3101 -0.0138
  100MOL0    Cl13409  14.876   9.651   7.538  0.4005 -0.1055 -0.4815
  100MOL0     C13410  13.833   9.518   8.072  0.0009 -0.6425 -0.2189
  100MOL0     C13411  13.708   9.483   8.108 -0.5890  0.5160 -0.5328
  100MOL0     O13412  13.417   9.647   8.215  0.1490  0.0002  0.3787
  100MOL0     C13413  13.175   9.490   8.244  0.0627  0.6202 -0.3883
  100MOL0     C13414  13.064   9.439   8.312  0.6878 -0.4296  0.0795
  100MOL0     N13415  12.407   9.552   8.526  0.2365 -0.1091 -0.2176
  100MOL0     N13416  12.317   9.583   8.607  0.0366 -0.4712  0.0798
  100MOL0     C13417  11.134   9.485   8.230  0.2300  0.2972 -1.0671
  100MOL0     C13418  11.016   9.528   8.184  0.5511  0.9253 -0.4865
  100MOL0     C13419  10.582   9.531   8.110 -0.5640  0.8136 -0.4333
  100MOL0     C13420  10.540   9.505   7.980  0.2515 -0.1599 -0.6392
  100MOL0     C13421  10.409   9.531   7.948  0.4608  0.5813  0.2304
  100MOL0     C13422  10.315   9.575   8.048 -0.2204  0.1781  0.5079
  100MOL0     O13423  10.188   9.595   8.007  0.7013 -0.2377  0.4352
  100MOL0     C13424  10.090   9.663   8.089 -0.3222 -0.6335  0.1801
  100MOL0     C13425   9.975   9.719   8.005  1.1096  0.1561  1.2996
  100MOL0     C13426   9.908   9.612   7.917 -0.7340 -0.3327 -0.2069
  100MOL0     C13427   9.813   9.673   7.811  0.2834  0.4311  0.5368
  100MOL0     C13428   9.738   9.560   7.754  0.1049  0.1405  0.2546
  100MOL0     C13429   9.690   9.465   7.691  0.2113  0.1081 -0.3864
  100MOL0     C13430  10.363   9.601   8.176  0.5002  0.4905  0.6849
  100MOL0     C13431  10.494   9.577   8.213 -0.4640  0.0266  0.1773
  100MOL0     C13432  10.532   9.591   8.354  0.3629 -0.3404  0.3736
  100MOL0     H13433  10.860   9.620   8.474  1.7288  0.7305  1.0101
  100MOL0     H13434  11.071   9.558   8.561  3.0609  2.4328 -1.6604
  100MOL0     H13435  11.409   9.513   8.265  0.1429  1.2243 -0.1141
  100MOL0     H13436  11.353   9.640   8.362  3.2483  1.9713 -2.2104
  100MOL0     H13437  11.535   9.407   8.461 -1.8538  0.2519 -1.3405
  100MOL0     H13438  11.500   9.556   8.552 -3.1326  1.1981 -1.6009
  100MOL0     H13439  11.624   9.652   8.321  2.7466  1.5269  0.1698
  100MOL0     H13440  11.669   9.492   8.296  0.6753  1.1955 -0.5923
  100MOL0     H13441  11.832   9.638   8.378 -3.5437  4.1111 -0.4847
  100MOL0     H13442  11.747   9.671   8.528  2.6684  1.2646  0.1699
  100MOL0     H13443  11.765   9.434   8.619  0.4275 -0.9745  0.0600
  100MOL0     H13444  11.834   9.375   8.471  1.0614  0.9195 -0.9950
  100MOL0     H13445  12.036   9.512   8.507  1.5474 -1.3729  0.6236
  100MOL0     H13446  11.949   9.596   8.632 -1.5817 -0.5836  0.9420
  100MOL0     H13447  12.071   9.312   8.623  0.1634  0.3782 -0.2544
  100MOL0     H13448  11.955   9.353   8.753  1.0777 -1.1912  0.2908
  100MOL0     H13449  12.120   9.548   8.796 -1.8769 -1.3500  0.3004
  100MOL0     H13450  12.175   9.383   8.818  3.0246  0.0936 -0.3247
  100MOL0     H13451  12.309   9.255   8.628 -0.2182  0.8007  2.7902
  100MOL0     H13452  12.487   9.238   8.407 -2.1424 -0.1128 -0.2816
  100MOL0     H13453  12.553   9.405   8.343 -0.0889  1.5812  1.7358
  100MOL0     H13454  12.693   9.411   8.540  1.0064 -0.2305 -1.9322
  100MOL0     H13455  12.648   9.242   8.578 -0.5880 -1.5889 -0.9347
  100MOL0     H13456  12.782   9.335   8.318 -2.0577  1.6419  0.1850
  100MOL0     H13457  12.724   9.166   8.360  1.5668 -0.6022  2.8684
  100MOL0     H13458  12.959   9.179   8.396 -3.2872 -1.9709 -1.6560
  100MOL0     H13459  12.878   9.161   8.560 -0.5853 -1.2923 -0.5392
  100MOL0     H13460  13.190   9.314   8.595  0.1778 -1.0812 -1.1180
  100MOL0     H13461  13.395   9.392   8.495  0.5949  1.3861 -0.9374
  100MOL0     H13462  13.665   9.646   8.398 -0.2210 -0.7552  0.1098
  100MOL0     H13463  13.875   9.758   8.313 -1.2852 -1.1705  2.9594
  100MOL0     H13464  14.104   9.535   7.969 -3.3588 -0.9505  0.2703
  100MOL0     H13465  13.992   9.667   7.911  0.7370  0.3151 -0.5476
  100MOL0     H13466  14.143   9.840   7.949  3.2292  0.4195  1.4914
  100MOL0     H13467  14.259   9.728   8.022  2.3553 -2.3277 -2.2304
  100MOL0     H13468  14.220   9.588   7.809 -2.3772  0.4284 -1.2892
  100MOL0     H13469  14.173   9.735   7.729 -3.3171  0.1604  2.4018
  100MOL0     H13470  14.460   9.683   7.845  0.2260 -0.6609  0.2888
  100MOL0     H13471  14.396   9.835   7.770  0.8860 -1.1953  0.7359
  100MOL0     H13472  14.357   9.704   7.571 -0.3522 -0.5147  1.4156
  100MOL0     H13473  14.402   9.561   7.657 -0.5217 -0.0714  1.7355
  100MOL0     H13474  14.582   9.813   7.590 -0.8446  0.4920  3.1669
  100MOL0     H13475  14.653   9.686   7.688  2.2417  1.6793 -1.7236
  100MOL0     H13476  14.543   9.612   7.414 -0.6013  1.1828 -0.2807
  100MOL0     H13477  14.647   9.516   7.509  0.3838 -0.2431  2.0553
  100MOL0     H13478  14.767   9.635   7.337 -0.4115  1.6124 -1.0741
  100MOL0     H13479  14.731   9.791   7.416 -0.2537  0.4050  3.6188
  100MOL0     H13480  13.854   9.479   7.973 -0.1256  1.0705 -0.9563
  100MOL0     H13481  13.656   9.413   8.043  1.7055  0.6180 -2.6513
  100MOL0     H13482  13.158   9.537   8.148 -2.2006  1.0958  0.1848
  100MOL0     H13483  12.970   9.444   8.258  0.2171 -1.8777  0.7179
  100MOL0     H13484  11.216   9.458   8.166  0.0702 -0.6258 -0.8990
  100MOL0     H13485  10.998   9.534   8.077 -1.8023  3.4170 -0.0710
  100MOL0     H13486  10.614   9.469   7.909  0.3550 -1.0469 -0.0978
  100MOL0     H13487  10.370   9.514   7.848  0.1288 -1.9628  0.7090
  100MOL0     H13488  10.140   9.747   8.139  1.1804 -0.9841 -0.6653
  100MOL0     H13489  10.056   9.595   8.167  0.1287 -1.3191 -0.2193
  100MOL0     H13490  10.005   9.802   7.940 -0.0065  0.0840  0.6648
  100MOL0     H13491   9.905   9.763   8.077  2.3853  0.3259  2.4885
  100MOL0     H13492   9.856   9.541   7.982 -1.7829 -2.3335 -3.0393
  100MOL0     H13493   9.989   9.557   7.868  0.0477  1.0562 -0.5403
  100MOL0     H13494   9.729   9.734   7.845 -0.9893  1.4985 -3.9587
  100MOL0     H13495   9.864   9.730   7.733 -1.1180  0.1083 -0.6507
  100MOL0     H13496   9.641   9.389   7.634 -1.4417  0.8335  0.0154
  100MOL0     H13497  10.299   9.642   8.254  0.2165 -0.7282  1.1237
  100MOL0     H13498  10.598   9.676   8.374 -1.5969  1.3900 -0.1167
  100MOL0     H13499  10.443   9.605   8.417 -1.7849 -0.6527 -2.4057
  100MOL0     H13500  10.580   9.498   8.387  0.4209 -1.2151 -2.0146
  101MOL0     O13501   7.676   5.221   9.597 -1.1205  0.6546  0.2458
  101MOL0     C13502   7.617   5.315   9.635  0.5559  0.3084  0.6749
  101MOL0     O13503   7.649   5.404   9.738  0.1731 -1.0953  0.5271
  101MOL0     C13504   7.771   5.403   9.796  0.2023  0.3338  1.4806
  101MOL0     C13505   7.771   5.444   9.923 -0.2412 -0.0018 -0.0931
  101MOL0     C13506   7.889   5.443  10.004 -0.1358 -0.3302  0.0038
  101MOL0     C13507   8.004   5.400   9.944 -0.1655  0.6739  0.3906
  101MOL0     O13508   8.117   5.404  10.025  0.1339  0.0013  0.3036
  101MOL0     C13509   8.248   5.392   9.968  0.1564  1.0219  0.9649
  101MOL0     C13510   8.352   5.389  10.079 -0.2886 -0.0526 -0.1856
  101MOL0     C13511   8.494   5.357  10.029 -0.2439  0.2153 -0.3735
  101MOL0     C13512   8.592   5.310  10.133 -0.6073  0.1311 -0.1346
  101MOL0     C13513   8.725   5.258  10.078 -0.2793  0.0633  0.4994
  101MOL0     C13514   8.816   5.211  10.193 -0.2792 -0.0481  0.3621
  101MOL0     C13515   8.946   5.145  10.141 -0.2952  0.1879  0.2212
  101MOL0     C13516   9.040   5.094  10.244 -0.0916 -0.0200 -0.6776
  101MOL0     N13517   9.130   5.200  10.305  0.3546  0.3435 -0.5984
  101MOL0     C13518   9.244   5.235  10.234 -0.3717  0.3662 -0.1434
  101MOL0     C13519   9.300   5.332  10.313  0.4638  0.8475 -0.0009
  101MOL0     C13520   9.445   5.384  10.302  0.1756  0.4433  0.4554
  101MOL0     C13521   9.527   5.393  10.430 -0.0439  0.0707  0.1421
  101MOL0     C13522   9.664   5.465  10.393 -0.6536 -0.2030 -0.0257
  101MOL0     C13523   9.745   5.470  10.526 -0.2094  0.5478 -0.5619
  101MOL0     O13524   9.887   5.478  10.499 -0.3393 -0.6130  0.4490
  101MOL0     C13525   9.944   5.599  10.498  0.2042  0.2609  0.9168
  101MOL0     C13526  10.083   5.593  10.484  0.7505  0.5374 -0.4521
  101MOL0     C13527  10.155   5.709  10.482 -0.8506  0.5829  0.3861
  101MOL0     C13528  10.090   5.840  10.468  0.2581  0.4337  0.9147
  101MOL0     C13529  10.171   5.960  10.456 -0.2456  0.4583 -0.0579
  101MOL0     O13530  10.305   5.937  10.448 -0.3462  0.3850  0.4607
  101MOL0     C13531  10.412   6.029  10.458 -0.5592 -0.1967  0.0840
  101MOL0     C13532  10.398   6.165  10.485  0.0892  0.0811 -0.7258
  101MOL0     C13533  10.508   6.241  10.496 -0.6459 -1.1497 -0.1500
  101MOL0     C13534  10.638   6.193  10.473 -1.2363  0.6674  0.1547
  101MOL0     O13535  10.750   6.280  10.460 -0.0767  0.5516  0.2762
  101MOL0     C13536  10.734   6.420  10.503 -0.8502 -0.0874  0.5753
  101MOL0     C13537  10.871   6.489  10.526 -0.0309  0.5951  0.1686
  101MOL0     C13538  10.974   6.395  10.605  0.3275 -0.4874 -0.2405
  101MOL0     C13539  11.112   6.470  10.620 -0.0586  0.3697  0.0909
  101MOL0     C13540  11.216   6.380  10.691 -0.1373  0.2082 -0.0141
  101MOL0     C13541  11.349   6.452  10.722 -0.3355 -0.7183 -0.0524
  101MOL0     C13542  11.408   6.509  10.588 -0.4426  0.6870  0.1211
  101MOL0     C13543  11.549   6.549  10.611  0.1018 -0.2765 -0.7176
  101MOL0    Cl13544  11.628   6.614  10.468  0.8584 -0.0385  0.3289
  101MOL0     C13545  10.658   6.056  10.441 -0.0240  0.0960  0.1677
  101MOL0     C13546  10.544   5.977  10.430  0.0485 -0.9104 -0.2055
  101MOL0     O13547  10.115   6.065  10.444 -0.8693 -0.0923 -0.1416
  101MOL0     C13548   9.956   5.844  10.471 -0.3877 -0.0200  0.6839
  101MOL0     C13549   9.879   5.722  10.501  0.5198  0.2498  0.0426
  101MOL0     N13550   9.210   5.358  10.412  0.4092 -0.0535  0.1179
  101MOL0     N13551   9.107   5.283  10.413 -0.4104  1.0933 -0.3890
  101MOL0     C13552   8.009   5.364   9.809 -0.3773  0.1082 -0.5152
  101MOL0     C13553   7.893   5.368   9.742 -0.9473 -0.1892  1.3016
  101MOL0     C13554   7.488   5.330   9.573  0.3726  0.6662 -0.0273
  101MOL0     C13555   7.464   5.279   9.441 -0.1971  0.1972 -0.0607
  101MOL0     C13556   7.353   5.300   9.364 -0.1281 -0.2379 -0.5193
  101MOL0     C13557   7.241   5.354   9.427 -0.2969  0.1801 -0.7365
  101MOL0     O13558   7.110   5.355   9.383 -0.8071  0.1928 -0.6077
  101MOL0     C13559   7.077   5.290   9.265 -0.6930  0.3708  0.7650
  101MOL0     C13560   7.086   5.401   9.158  0.4501  0.1371 -0.4617
  101MOL0     C13561   7.046   5.354   9.024  0.6561 -0.2941 -0.1753
  101MOL0     C13562   7.120   5.237   8.959 -0.4025  0.4033 -0.4957
  101MOL0     C13563   7.255   5.279   8.943 -0.0733  0.1118  0.3492
  101MOL0     C13564   7.374   5.290   8.949 -0.1992 -0.5951  0.6830
  101MOL0     C13565   7.266   5.412   9.556  1.2126 -0.3946 -0.7944
  101MOL0     C13566   7.382   5.397   9.635 -0.5995  0.3160 -0.0215
  101MOL0     C13567   7.366   5.442   9.780  1.0143  0.0732  0.0843
  101MOL0     H13568   7.676   5.482   9.961  0.3695  1.0585  0.4200
  101MOL0     H13569   7.897   5.476  10.107 -0.7010  4.0271 -1.1366
  101MOL0     H13570   8.261   5.300   9.910  3.1321  1.2068  1.2095
  101MOL0     H13571   8.260   5.479   9.903 -0.8122  0.6569  0.2682
  101MOL0     H13572   8.337   5.321  10.163  0.4381 -0.2214 -0.1860
  101MOL0     H13573   8.356   5.489  10.123  2.4023 -0.7040  1.2344
  101MOL0     H13574   8.529   5.455   9.993 -0.7293  1.0620  1.3543
  101MOL0     H13575   8.483   5.286   9.947 -0.4770 -0.6121  0.3600
  101MOL0     H13576   8.617   5.393  10.200  2.9937 -1.8992  1.3065
  101MOL0     H13577   8.550   5.232  10.197  2.2638 -1.1185  0.3806
  101MOL0     H13578   8.710   5.173  10.011  2.2494 -0.7258  0.8469
  101MOL0     H13579   8.780   5.338  10.027  1.7523 -0.5274  1.6569
  101MOL0     H13580   8.848   5.302  10.244  1.6053 -0.2088 -0.4544
  101MOL0     H13581   8.757   5.155  10.266 -1.3901 -0.9685 -1.1761
  101MOL0     H13582   9.001   5.224  10.090  1.9677 -1.9772 -0.9091
  101MOL0     H13583   8.916   5.061  10.077 -1.3634 -0.2813  1.3043
  101MOL0     H13584   8.985   5.054  10.329  1.3700  2.6492  1.7295
  101MOL0     H13585   9.106   5.015  10.207  0.6537 -0.6548  1.8116
  101MOL0     H13586   9.290   5.191  10.146  2.5154 -1.9255  2.2878
  101MOL0     H13587   9.498   5.316  10.235 -1.1395 -1.5017  1.2614
  101MOL0     H13588   9.439   5.486  10.265 -3.4833 -0.0781 -0.7566
  101MOL0     H13589   9.477   5.451  10.508 -0.5618 -1.6421  1.1193
  101MOL0     H13590   9.557   5.294  10.466  0.2900 -0.7973 -2.2840
  101MOL0     H13591   9.648   5.565  10.351 -0.9018  0.0231  0.5901
  101MOL0     H13592   9.720   5.398  10.327  0.3837  0.6537 -0.0417
  101MOL0     H13593   9.734   5.380  10.586 -1.3370 -0.5304 -2.2874
  101MOL0     H13594   9.715   5.553  10.591 -2.3387  0.0553 -0.8417
  101MOL0     H13595  10.133   5.499  10.468  0.3323  0.4382 -1.2481
  101MOL0     H13596  10.262   5.704  10.495 -0.8729  0.3075  0.4615
  101MOL0     H13597  10.305   6.216  10.509  0.4052 -0.8977  3.0976
  101MOL0     H13598  10.497   6.348  10.510 -1.6747 -1.4304  1.4883
  101MOL0     H13599  10.683   6.483  10.430  1.9887  0.6600 -0.9437
  101MOL0     H13600  10.686   6.425  10.601 -0.7255 -2.7262  0.8352
  101MOL0     H13601  10.892   6.524  10.424 -0.8678  1.4699  0.2813
  101MOL0     H13602  10.855   6.577  10.589  2.6885  3.6475 -2.9578
  101MOL0     H13603  10.935   6.372  10.705  2.1422  0.9213  0.8658
  101MOL0     H13604  11.002   6.304  10.551 -1.3209 -2.6406  2.2833
  101MOL0     H13605  11.095   6.557  10.683 -0.4080  0.8060 -0.5928
  101MOL0     H13606  11.143   6.493  10.517 -0.4449 -0.5941 -0.2510
  101MOL0     H13607  11.230   6.286  10.637  0.4119  0.0512  0.3962
  101MOL0     H13608  11.169   6.352  10.785  0.8180 -0.1754  0.3562
  101MOL0     H13609  11.325   6.538  10.786  3.8823  1.5334 -1.1174
  101MOL0     H13610  11.414   6.391  10.785  0.1624  1.4127  1.6209
  101MOL0     H13611  11.347   6.596  10.560  0.5131  1.4872  0.4321
  101MOL0     H13612  11.405   6.430  10.513  2.0333 -0.0004  0.6396
  101MOL0     H13613  11.555   6.617  10.696 -0.6699 -1.3731  0.2515
  101MOL0     H13614  11.603   6.460  10.644 -0.5818 -0.4568 -0.0569
  101MOL0     H13615  10.754   6.011  10.417 -0.4958 -0.1622 -1.3416
  101MOL0     H13616  10.559   5.881  10.382  2.4623 -1.1460  0.8304
  101MOL0     H13617   9.910   5.940  10.449 -0.5245 -0.6700 -2.2633
  101MOL0     H13618   9.770   5.722  10.501  0.3924 -3.2116  0.9902
  101MOL0     H13619   8.101   5.339   9.758 -0.5996  0.7213 -1.2200
  101MOL0     H13620   7.895   5.334   9.639  1.5739 -3.1360  2.1650
  101MOL0     H13621   7.548   5.228   9.394 -0.9320 -1.7660  0.6154
  101MOL0     H13622   7.366   5.260   9.264 -0.7250  0.1300 -0.7477
  101MOL0     H13623   6.974   5.253   9.268 -0.6803  0.3797  1.3354
  101MOL0     H13624   7.144   5.208   9.236  0.7972  1.5005  0.8892
  101MOL0     H13625   7.187   5.442   9.163  1.7810 -2.7664 -1.5447
  101MOL0     H13626   7.012   5.477   9.185 -0.2919 -0.8069  0.2568
  101MOL0     H13627   7.032   5.441   8.959 -0.0959 -0.7526 -0.6342
  101MOL0     H13628   6.946   5.317   9.047  0.8381 -0.2159  0.7976
  101MOL0     H13629   7.123   5.136   9.002  0.0607 -0.0012 -1.4285
  101MOL0     H13630   7.069   5.225   8.863 -1.5022 -0.7672  0.2102
  101MOL0     H13631   7.480   5.303   8.951 -0.2485 -0.2560  2.0826
  101MOL0     H13632   7.175   5.449   9.602  1.7305 -0.3694  0.2322
  101MOL0     H13633   7.407   5.542   9.796 -1.8181  1.3211  0.0051
  101MOL0     H13634   7.261   5.445   9.808  0.5177  0.8976 -1.7154
  101MOL0     H13635   7.411   5.366   9.844  0.3452 -0.0537  0.4024
  102MOL0     O13636  10.237   8.798   8.985 -0.0918 -0.4867  0.2616
  102MOL0     C13637  10.179   8.719   9.060 -0.9278 -0.5790  0.4853
  102MOL0     O13638  10.210   8.590   9.067  0.1155  0.3803 -0.2907
  102MOL0     C13639  10.267   8.533   8.956 -0.8606 -0.1688  1.1250
  102MOL0     C13640  10.205   8.545   8.828  0.1812  0.2520  0.5334
  102MOL0     C13641  10.255   8.474   8.716  0.1971 -0.2748  1.1526
  102MOL0     C13642  10.359   8.385   8.731  0.1762  0.6828 -0.1532
  102MOL0     O13643  10.399   8.310   8.622 -0.3896 -0.1107 -0.0880
  102MOL0     C13644  10.525   8.238   8.622 -0.3550 -0.1409 -1.0408
  102MOL0     C13645  10.649   8.336   8.624  0.2532 -0.7844  0.4303
  102MOL0     C13646  10.791   8.268   8.599 -0.8133 -0.6792 -0.5754
  102MOL0     C13647  10.877   8.354   8.501 -0.3941  0.3749 -0.0252
  102MOL0     C13648  11.008   8.285   8.460  0.1780 -0.8266  0.0533
  102MOL0     C13649  11.111   8.251   8.566 -0.2208  0.1235 -1.0553
  102MOL0     C13650  11.233   8.181   8.510 -0.2798  0.0790  0.2547
  102MOL0     C13651  11.344   8.166   8.623  0.6028  0.2661 -0.2721
  102MOL0     N13652  11.473   8.131   8.558 -0.0283  0.3049 -0.7283
  102MOL0     C13653  11.572   8.211   8.512 -0.8957 -0.0711 -0.0161
  102MOL0     C13654  11.638   8.140   8.415  0.0753  0.4253  0.6956
  102MOL0     C13655  11.756   8.187   8.336  0.3425  0.4046 -0.0254
  102MOL0     C13656  11.890   8.126   8.372  0.3887 -0.0873 -0.1731
  102MOL0     C13657  12.002   8.165   8.277  0.7753 -0.1130  0.4583
  102MOL0     C13658  12.130   8.110   8.329 -0.3941 -0.4370  0.2171
  102MOL0     O13659  12.240   8.143   8.240  0.0165 -0.3299 -0.4110
  102MOL0     C13660  12.369   8.133   8.285 -0.1178 -0.9152 -0.4256
  102MOL0     C13661  12.469   8.164   8.191 -0.0024 -0.6448 -0.0484
  102MOL0     C13662  12.596   8.180   8.233  0.7000  0.4015 -0.1068
  102MOL0     C13663  12.639   8.144   8.365  0.5778  0.6059  0.7514
  102MOL0     C13664  12.775   8.182   8.404  0.1556 -0.4168  0.6190
  102MOL0     O13665  12.798   8.205   8.545 -0.2546  0.1631  0.3094
  102MOL0     C13666  12.928   8.210   8.578  0.5749  0.3967 -0.2272
  102MOL0     C13667  13.003   8.092   8.593 -0.1924  0.9122 -0.3196
  102MOL0     C13668  13.136   8.104   8.637  0.5707 -0.4918 -0.1251
  102MOL0     C13669  13.200   8.228   8.668  0.3295  0.6759 -0.3064
  102MOL0     O13670  13.325   8.223   8.722 -0.6027  0.1787 -0.4522
  102MOL0     C13671  13.399   8.345   8.690 -0.2598 -0.0983 -0.3743
  102MOL0     C13672  13.536   8.322   8.759 -0.0329 -0.0210  0.1762
  102MOL0     C13673  13.523   8.302   8.912 -0.5585 -0.5144 -1.1776
  102MOL0     C13674  13.662   8.278   8.981  0.6259 -1.2344 -0.3144
  102MOL0     C13675  13.658   8.266   9.137  0.6762  0.7991  0.0698
  102MOL0     C13676  13.794   8.208   9.179 -0.3887 -0.2210  0.0596
  102MOL0     C13677  13.788   8.194   9.335  0.5921 -0.8740  0.5531
  102MOL0     C13678  13.928   8.152   9.386  0.5716  0.2871 -0.5432
  102MOL0    Cl13679  14.040   8.300   9.388 -0.2983  0.6634 -0.0716
  102MOL0     C13680  13.123   8.345   8.639 -1.1733  0.2272 -0.3391
  102MOL0     C13681  12.988   8.330   8.595 -0.5569  0.2528 -0.5396
  102MOL0     O13682  12.858   8.162   8.314  0.0350  0.0935  0.2113
  102MOL0     C13683  12.540   8.105   8.452 -0.1936 -0.5220  0.1820
  102MOL0     C13684  12.410   8.103   8.416 -0.1544 -0.5660 -0.0430
  102MOL0     N13685  11.574   8.018   8.400  0.0244  0.5905  0.7871
  102MOL0     N13686  11.480   8.015   8.484 -0.0930 -0.1170  0.2519
  102MOL0     C13687  10.424   8.370   8.856 -0.7938 -0.0719  0.0191
  102MOL0     C13688  10.374   8.445   8.963 -0.1116 -0.3485 -0.7026
  102MOL0     C13689  10.071   8.765   9.147  0.0628 -0.2379  0.9745
  102MOL0     C13690  10.060   8.710   9.274 -0.0130 -0.1929  0.1663
  102MOL0     C13691   9.956   8.760   9.353 -0.1806 -0.4154  0.1545
  102MOL0     C13692   9.874   8.862   9.313  0.0704  0.0755  0.2271
  102MOL0     O13693   9.780   8.930   9.391  0.0017  0.6813 -0.4420
  102MOL0     C13694   9.812   8.970   9.525  0.0284  0.0321  0.0095
  102MOL0     C13695   9.853   9.114   9.534  0.9741  0.6546 -0.2141
  102MOL0     C13696   9.975   9.145   9.438 -0.1117 -1.1129 -0.0403
  102MOL0     C13697  10.009   9.301   9.434  0.4984 -0.2517  0.3046
  102MOL0     C13698   9.900   9.378   9.372 -0.7565  0.6123  0.4786
  102MOL0     C13699   9.822   9.449   9.307  0.8418  0.0747  1.1102
  102MOL0     C13700   9.869   8.889   9.179  0.5859 -0.0517 -0.8315
  102MOL0     C13701   9.968   8.848   9.094 -0.5507  0.6448  0.3075
  102MOL0     C13702   9.951   8.883   8.947  0.2053  0.0402 -0.1509
  102MOL0     H13703  10.117   8.606   8.812  1.2496  1.4581 -1.1672
  102MOL0     H13704  10.204   8.472   8.620  1.8506  1.4585  0.1694
  102MOL0     H13705  10.516   8.168   8.706 -1.2251  1.4650  0.2621
  102MOL0     H13706  10.538   8.170   8.537 -0.4229 -2.2428  0.5373
  102MOL0     H13707  10.648   8.395   8.717  0.1453  1.6471 -1.0395
  102MOL0     H13708  10.638   8.412   8.547 -1.6478 -0.7562  0.6883
  102MOL0     H13709  10.780   8.168   8.556  1.7706 -0.6530 -1.4758
  102MOL0     H13710  10.837   8.244   8.696 -1.6482 -2.1448 -0.5053
  102MOL0     H13711  10.814   8.366   8.412 -0.1658  2.6127  0.0569
  102MOL0     H13712  10.896   8.451   8.549  4.2036 -1.2496  1.9904
  102MOL0     H13713  10.988   8.196   8.401  1.2138 -1.7135  0.9834
  102MOL0     H13714  11.055   8.353   8.388 -1.7676 -2.0480 -2.5163
  102MOL0     H13715  11.150   8.345   8.605  1.0648 -0.3622 -1.1231
  102MOL0     H13716  11.064   8.192   8.646  0.5357  0.6180 -0.2266
  102MOL0     H13717  11.272   8.242   8.428 -2.4408 -0.9876 -1.6863
  102MOL0     H13718  11.201   8.085   8.469  1.3032 -0.1536 -0.5095
  102MOL0     H13719  11.350   8.251   8.692 -1.0073  1.7652 -1.8802
  102MOL0     H13720  11.312   8.080   8.683 -1.3465  0.1460 -1.4103
  102MOL0     H13721  11.594   8.315   8.534  2.0789 -0.3181 -1.3748
  102MOL0     H13722  11.717   8.145   8.244 -0.0844 -0.5539  0.5843
  102MOL0     H13723  11.760   8.294   8.313  0.3968  0.4706  0.2791
  102MOL0     H13724  11.920   8.138   8.476 -0.8314 -1.3263  0.3537
  102MOL0     H13725  11.891   8.017   8.364  1.9103 -0.0018 -1.6917
  102MOL0     H13726  12.000   8.274   8.263 -3.0798 -0.4183 -3.9759
  102MOL0     H13727  11.991   8.120   8.178  0.9109 -0.3695  0.5603
  102MOL0     H13728  12.137   8.001   8.325  3.8145 -0.4275  2.3544
  102MOL0     H13729  12.151   8.131   8.434 -1.8711 -1.3847  0.7473
  102MOL0     H13730  12.447   8.190   8.088  2.6683 -1.1224 -0.8151
  102MOL0     H13731  12.670   8.220   8.165  0.0227 -1.2872 -1.9507
  102MOL0     H13732  12.956   7.996   8.580  1.1812 -0.1859  2.0739
  102MOL0     H13733  13.180   8.009   8.663 -3.2187 -2.1207  1.0046
  102MOL0     H13734  13.401   8.359   8.582 -0.0495  1.1727 -0.2221
  102MOL0     H13735  13.359   8.426   8.752  1.5020 -0.0780  0.8167
  102MOL0     H13736  13.591   8.236   8.719  0.2079 -0.5359  1.5781
  102MOL0     H13737  13.583   8.420   8.742 -3.6089  1.9675  0.7611
  102MOL0     H13738  13.475   8.389   8.957 -0.8290 -0.2718 -1.9402
  102MOL0     H13739  13.463   8.211   8.922 -2.3780  0.5831 -1.7644
  102MOL0     H13740  13.741   8.353   8.967  1.2125 -0.9755  3.4671
  102MOL0     H13741  13.702   8.188   8.934  1.3134 -0.0005 -2.2307
  102MOL0     H13742  13.577   8.197   9.161 -2.9663  3.7383 -2.6223
  102MOL0     H13743  13.635   8.353   9.200  0.1652 -1.5276  3.3840
  102MOL0     H13744  13.817   8.112   9.131 -0.2089 -0.4092  0.5190
  102MOL0     H13745  13.869   8.285   9.160 -0.7455  0.0318 -0.3460
  102MOL0     H13746  13.718   8.114   9.361  0.1969 -0.8595 -0.4104
  102MOL0     H13747  13.747   8.290   9.369 -0.8587 -0.9699 -0.7857
  102MOL0     H13748  13.920   8.097   9.481 -1.0120 -0.5490 -1.1126
  102MOL0     H13749  13.974   8.079   9.320  0.6462 -0.3648  0.2112
  102MOL0     H13750  13.153   8.447   8.661 -0.9385 -0.0981  0.8810
  102MOL0     H13751  12.927   8.418   8.576  0.6999  1.0155 -1.2119
  102MOL0     H13752  12.556   8.083   8.557 -0.3050  1.6412  0.6929
  102MOL0     H13753  12.340   8.070   8.493 -2.3345 -3.3094 -2.9096
  102MOL0     H13754  10.502   8.299   8.881  0.4167  0.9682 -0.6609
  102MOL0     H13755  10.410   8.423   9.063  0.6453  2.3013 -0.3217
  102MOL0     H13756  10.126   8.631   9.310  1.7054  0.9989 -0.2447
  102MOL0     H13757   9.932   8.728   9.454  1.2654 -3.4685 -0.3738
  102MOL0     H13758   9.902   8.923   9.566 -1.0276  0.3766  2.9841
  102MOL0     H13759   9.723   8.951   9.585 -0.3496 -2.1707 -1.1535
  102MOL0     H13760   9.876   9.133   9.639  1.3632 -0.0535 -0.1665
  102MOL0     H13761   9.761   9.171   9.520  0.3312  0.1834  1.7770
  102MOL0     H13762   9.953   9.124   9.333 -2.1929  0.0669  0.0951
  102MOL0     H13763  10.070   9.105   9.473  1.7678  2.2075 -0.9526
  102MOL0     H13764  10.044   9.347   9.527  0.4757  1.6649 -0.5801
  102MOL0     H13765  10.093   9.319   9.366  0.0617  2.1815  0.3038
  102MOL0     H13766   9.750   9.507   9.253 -0.5355 -0.6121  2.1404
  102MOL0     H13767   9.801   8.959   9.132  2.1855  0.1910 -2.9488
  102MOL0     H13768   9.857   8.937   8.933 -0.6090 -1.1693  0.5365
  102MOL0     H13769  10.031   8.956   8.926 -0.9112  1.7883  1.3362
  102MOL0     H13770   9.957   8.795   8.883 -1.7598  0.1784 -0.5703
  103MOL0     O13771   5.583   3.958   1.766 -0.2154  0.2206  0.3820
  103MOL0     C13772   5.496   4.001   1.697  0.0212  0.1215  0.0819
  103MOL0     O13773   5.479   3.965   1.565  0.6099 -0.0493 -0.2464
  103MOL0     C13774   5.554   3.860   1.504 -0.0526  0.3486  0.0433
  103MOL0     C13775   5.682   3.890   1.471  0.2701  0.2839 -0.0861
  103MOL0     C13776   5.761   3.791   1.405 -0.8704 -0.3781 -0.4616
  103MOL0     C13777   5.707   3.673   1.375  0.3011  0.4553  0.3952
  103MOL0     O13778   5.790   3.577   1.322 -0.4744 -0.0038 -0.0189
  103MOL0     C13779   5.778   3.448   1.386 -0.3428 -0.9298  0.1961
  103MOL0     C13780   5.883   3.353   1.325  0.5849 -0.0597  0.1604
  103MOL0     C13781   6.019   3.372   1.369 -0.4746 -0.2677 -0.0169
  103MOL0     C13782   6.100   3.269   1.287 -0.3471  0.0363 -0.7810
  103MOL0     C13783   6.251   3.297   1.312 -0.6248 -0.3952  0.1674
  103MOL0     C13784   6.328   3.170   1.288 -0.5763  0.2498  0.4335
  103MOL0     C13785   6.482   3.195   1.284  0.5652 -0.2515 -0.1923
  103MOL0     C13786   6.567   3.078   1.329 -0.2219  0.2466  0.4026
  103MOL0     N13787   6.699   3.120   1.358  0.1720  0.2048 -0.2438
  103MOL0     C13788   6.794   3.165   1.273 -0.6295 -0.2055  0.1798
  103MOL0     C13789   6.894   3.213   1.352 -0.8100  1.2126 -0.3509
  103MOL0     C13790   7.008   3.285   1.284 -1.3584  0.1139 -0.0730
  103MOL0     C13791   7.147   3.245   1.340 -0.9849  0.9609  0.0279
  103MOL0     C13792   7.249   3.352   1.302 -0.3719 -0.8300  0.1733
  103MOL0     C13793   7.381   3.341   1.386 -0.3878  0.3034  0.0633
  103MOL0     O13794   7.431   3.207   1.380 -0.1749  0.3440 -0.6057
  103MOL0     C13795   7.564   3.184   1.409  0.7086  0.0253  0.4428
  103MOL0     C13796   7.656   3.279   1.462 -0.9313  0.1099 -0.8386
  103MOL0     C13797   7.788   3.230   1.472 -0.2981  0.0675  0.3777
  103MOL0     C13798   7.835   3.106   1.419  0.1257  1.0110 -0.1724
  103MOL0     C13799   7.985   3.074   1.428  0.9186  0.5455  0.6036
  103MOL0     O13800   8.032   2.945   1.380  0.3354 -0.8332 -0.4917
  103MOL0     C13801   8.165   2.923   1.393 -0.8206  0.1554 -0.3483
  103MOL0     C13802   8.245   2.963   1.288  0.5681  0.5783  0.4056
  103MOL0     C13803   8.380   2.955   1.298 -0.3891 -0.6339  0.5517
  103MOL0     C13804   8.444   2.916   1.417  0.0871  0.7973  0.8730
  103MOL0     O13805   8.586   2.917   1.426  0.0370  0.3757  0.1290
  103MOL0     C13806   8.654   2.879   1.310  0.2213  0.0268 -0.3605
  103MOL0     C13807   8.807   2.844   1.332  0.7156 -0.0174 -0.1235
  103MOL0     C13808   8.890   2.948   1.401  0.0741  0.0701 -0.4961
  103MOL0     C13809   9.033   2.931   1.361 -1.1128 -0.4976  1.1568
  103MOL0     C13810   9.134   3.003   1.448  0.0341 -1.3079 -0.4849
  103MOL0     C13811   9.281   2.991   1.413 -0.0106  0.4298 -0.3888
  103MOL0     C13812   9.300   3.061   1.275  0.1321  0.5465  0.3267
  103MOL0     C13813   9.448   3.101   1.245  0.8848 -0.2870  0.8780
  103MOL0    Cl13814   9.433   3.162   1.068  0.1104  0.4697  0.1293
  103MOL0     C13815   8.369   2.881   1.530 -1.0258 -0.0499  1.0540
  103MOL0     C13816   8.230   2.895   1.519  0.6449  0.4723  0.6239
  103MOL0     O13817   8.049   3.162   1.471 -0.4146  0.1695 -0.0412
  103MOL0     C13818   7.740   3.016   1.376 -0.6620 -0.3746 -0.1795
  103MOL0     C13819   7.599   3.060   1.373 -0.4298  0.3740  0.6287
  103MOL0     N13820   6.855   3.209   1.488  0.5792  1.0173 -0.1891
  103MOL0     N13821   6.737   3.151   1.480  0.2436 -0.3696 -0.5152
  103MOL0     C13822   5.571   3.651   1.396  0.1439 -0.2102  0.4343
  103MOL0     C13823   5.492   3.744   1.463  0.4803 -0.2828 -0.4618
  103MOL0     C13824   5.408   4.108   1.747  0.7355  0.2385 -0.2117
  103MOL0     C13825   5.464   4.191   1.841 -0.5043 -0.2336  1.0107
  103MOL0     C13826   5.399   4.275   1.927  0.4512  0.6541 -0.2152
  103MOL0     C13827   5.263   4.286   1.902  0.5347 -0.3399  0.3821
  103MOL0     O13828   5.196   4.367   1.987 -0.2119  0.8658  0.0736
  103MOL0     C13829   5.066   4.407   1.956 -0.6129  1.5124 -0.3240
  103MOL0     C13830   5.026   4.504   2.057 -0.0830  0.4029  0.3865
  103MOL0     C13831   4.881   4.553   2.018  0.9311 -0.0664 -0.2108
  103MOL0     C13832   4.861   4.678   2.109 -0.0348  0.0319 -0.2382
  103MOL0     C13833   4.727   4.726   2.111 -0.9591  0.0808 -0.1978
  103MOL0     C13834   4.614   4.771   2.110  0.2532  0.5354 -0.0645
  103MOL0     C13835   5.203   4.221   1.791  0.2986  0.2948  0.5892
  103MOL0     C13836   5.269   4.120   1.727 -0.3086  0.6965  0.0829
  103MOL0     C13837   5.202   4.033   1.619 -0.2445 -0.0082  0.2387
  103MOL0     H13838   5.723   3.987   1.495  2.4584 -0.4895 -0.4676
  103MOL0     H13839   5.868   3.803   1.388 -0.1972 -2.6474  1.6782
  103MOL0     H13840   5.795   3.471   1.491 -2.2163  2.5848 -0.1251
  103MOL0     H13841   5.683   3.397   1.368 -0.0881 -0.7775 -1.7936
  103MOL0     H13842   5.870   3.355   1.216  0.1818  1.7751  0.1977
  103MOL0     H13843   5.855   3.253   1.359 -2.9904  1.1856  1.3832
  103MOL0     H13844   6.024   3.339   1.473  1.7353 -4.7512 -1.2865
  103MOL0     H13845   6.052   3.476   1.358  1.3743 -0.5576  2.1484
  103MOL0     H13846   6.075   3.169   1.322  1.7415  0.2305  1.5288
  103MOL0     H13847   6.088   3.284   1.179  1.3735  2.2374 -0.7457
  103MOL0     H13848   6.279   3.378   1.244  3.9322 -3.1376 -1.7807
  103MOL0     H13849   6.261   3.320   1.418 -1.8245 -1.9601  0.6643
  103MOL0     H13850   6.293   3.096   1.361 -3.2901  2.5369  1.6151
  103MOL0     H13851   6.312   3.125   1.190  1.0784 -0.3505  0.4046
  103MOL0     H13852   6.520   3.275   1.348  3.4452 -1.9497  0.4139
  103MOL0     H13853   6.525   3.217   1.186  3.0519  0.1530  0.9128
  103MOL0     H13854   6.525   3.023   1.413 -0.2944  2.3967  1.8610
  103MOL0     H13855   6.571   3.012   1.242  0.5253  2.0486 -1.0069
  103MOL0     H13856   6.799   3.176   1.165 -3.5185 -0.0582 -0.0072
  103MOL0     H13857   7.017   3.273   1.176  2.1965 -1.9356  0.3035
  103MOL0     H13858   6.988   3.389   1.310 -3.0905 -0.4333  0.9487
  103MOL0     H13859   7.145   3.238   1.449  2.6586 -0.2983  0.1285
  103MOL0     H13860   7.177   3.155   1.286 -0.0899  3.0006 -3.2066
  103MOL0     H13861   7.213   3.452   1.329  2.8570  0.6547 -0.4831
  103MOL0     H13862   7.273   3.354   1.195  0.2334  3.3040  0.2352
  103MOL0     H13863   7.373   3.363   1.493  0.0232  0.9644 -0.0406
  103MOL0     H13864   7.459   3.411   1.355  2.1654 -0.6498  3.6592
  103MOL0     H13865   7.629   3.379   1.495 -0.2976  0.5780 -1.6983
  103MOL0     H13866   7.859   3.300   1.513 -1.0858  0.0530  1.8402
  103MOL0     H13867   8.195   3.009   1.204 -0.8118  0.2097  0.9945
  103MOL0     H13868   8.442   3.006   1.225  0.9142  1.4106  2.9091
  103MOL0     H13869   8.606   2.793   1.261  0.5957 -0.0796 -0.5473
  103MOL0     H13870   8.646   2.950   1.227  0.1207  0.6123  0.1460
  103MOL0     H13871   8.797   2.751   1.389 -1.1640 -0.3345 -0.8982
  103MOL0     H13872   8.845   2.815   1.233 -1.5729 -0.3346 -0.9777
  103MOL0     H13873   8.857   3.049   1.377  0.7107  0.5274  0.4706
  103MOL0     H13874   8.872   2.940   1.509 -1.4133  2.9616 -0.4374
  103MOL0     H13875   9.035   2.978   1.262  0.1962 -0.6474  1.0845
  103MOL0     H13876   9.057   2.825   1.350  1.0538  0.1076 -0.7278
  103MOL0     H13877   9.117   2.973   1.551 -1.8936  0.5056 -0.1763
  103MOL0     H13878   9.110   3.110   1.442  2.0087 -0.8713 -1.3297
  103MOL0     H13879   9.347   3.034   1.489  0.9050 -0.0804 -0.8631
  103MOL0     H13880   9.314   2.886   1.410 -1.4066 -0.1202  1.6391
  103MOL0     H13881   9.244   3.155   1.276 -2.2460 -0.7876 -0.2223
  103MOL0     H13882   9.262   2.999   1.194 -2.1596 -0.0725  1.7730
  103MOL0     H13883   9.489   3.172   1.317 -0.3657  0.8936  0.4794
  103MOL0     H13884   9.521   3.020   1.249  2.3947  1.0718  3.9853
  103MOL0     H13885   8.417   2.861   1.625  0.5796 -0.5983  0.1658
  103MOL0     H13886   8.160   2.878   1.600 -1.3085 -0.7248 -1.2042
  103MOL0     H13887   7.775   2.923   1.333  1.4901  0.7318 -0.9500
  103MOL0     H13888   7.518   2.993   1.347  0.0328 -0.6277  1.6890
  103MOL0     H13889   5.540   3.549   1.377 -0.4404 -0.4798  2.5352
  103MOL0     H13890   5.384   3.737   1.475  0.1659  2.7318 -0.5603
  103MOL0     H13891   5.566   4.163   1.865 -0.3372  0.1824  0.7945
  103MOL0     H13892   5.447   4.340   2.000 -0.7328  0.7785  0.4858
  103MOL0     H13893   5.005   4.317   1.954  1.2639  0.0432  2.1483
  103MOL0     H13894   5.076   4.452   1.857  3.1479  0.1657 -0.7314
  103MOL0     H13895   5.108   4.576   2.055  1.1150 -0.9398 -0.6471
  103MOL0     H13896   5.024   4.451   2.153 -0.8143 -1.6923 -0.7214
  103MOL0     H13897   4.794   4.487   2.016 -0.1530  1.3371 -1.4957
  103MOL0     H13898   4.887   4.595   1.918  0.4267  0.9560  0.1702
  103MOL0     H13899   4.892   4.654   2.212  4.7567 -0.0112 -1.4462
  103MOL0     H13900   4.925   4.759   2.073 -3.1082  1.4910 -2.8821
  103MOL0     H13901   4.516   4.812   2.120  0.2510  0.1643  1.7405
  103MOL0     H13902   5.104   4.235   1.749  0.5559 -1.1025 -0.5735
  103MOL0     H13903   5.093   4.033   1.625 -0.2789 -3.2814  1.8510
  103MOL0     H13904   5.227   4.077   1.522 -0.8396 -2.9075 -1.3493
  103MOL0     H13905   5.235   3.929   1.627  0.2982  0.0278 -1.1969
  104MOL0     O13906   2.052   5.014   7.945  0.3072  0.7376 -0.5035
  104MOL0     C13907   2.006   4.986   7.832 -0.6523 -0.1909  1.1144
  104MOL0     O13908   2.087   4.964   7.721  0.0662 -0.2515 -0.4587
  104MOL0     C13909   2.214   4.908   7.728  0.1184 -0.5458 -0.1128
  104MOL0     C13910   2.310   4.962   7.647 -0.3298 -0.2418 -0.0938
  104MOL0     C13911   2.442   4.916   7.641  0.4249 -0.0749  0.7999
  104MOL0     C13912   2.481   4.812   7.727  0.1910  0.6195  0.1751
  104MOL0     O13913   2.614   4.788   7.723 -0.6583 -0.0966 -0.6515
  104MOL0     C13914   2.688   4.740   7.840  0.2266 -0.1713 -0.4677
  104MOL0     C13915   2.748   4.852   7.922 -0.7621 -0.4590  0.3222
  104MOL0     C13916   2.840   4.939   7.828  0.4382  0.6442  0.0537
  104MOL0     C13917   2.967   4.860   7.797  0.8935  0.0892 -0.0944
  104MOL0     C13918   3.068   4.946   7.729  0.5071 -0.5135 -0.5328
  104MOL0     C13919   3.021   4.971   7.590 -0.4798  0.6473 -0.3919
  104MOL0     C13920   3.134   5.048   7.507  0.8856 -0.1568  0.3314
  104MOL0     C13921   3.251   4.953   7.465  0.0540 -0.1518 -0.4388
  104MOL0     N13922   3.340   5.023   7.372  0.3140 -1.1590  0.3575
  104MOL0     C13923   3.298   5.063   7.249 -0.4276 -0.5313 -0.1801
  104MOL0     C13924   3.405   5.133   7.204 -0.1358 -0.9910 -0.1578
  104MOL0     C13925   3.398   5.194   7.069  0.1579 -0.3171  0.0139
  104MOL0     C13926   3.428   5.339   7.065 -0.3251  0.3283  0.5459
  104MOL0     C13927   3.449   5.400   6.923  0.7253  0.4960  0.2733
  104MOL0     C13928   3.315   5.389   6.831 -0.6626  0.7178 -0.2264
  104MOL0     O13929   3.222   5.488   6.878  0.0716 -0.4310 -0.6445
  104MOL0     C13930   3.083   5.479   6.871 -0.5674  0.2075 -0.2472
  104MOL0     C13931   3.014   5.383   6.797 -0.0519  0.3223  0.1415
  104MOL0     C13932   2.876   5.368   6.800 -0.8981  0.0725 -0.1656
  104MOL0     C13933   2.798   5.458   6.863  0.9752 -0.5412 -0.4596
  104MOL0     C13934   2.653   5.442   6.859 -0.0187  0.2678 -0.3572
  104MOL0     O13935   2.600   5.368   6.761 -0.0901 -0.1596 -0.0940
  104MOL0     C13936   2.470   5.340   6.747  0.5450  0.1991 -0.1111
  104MOL0     C13937   2.401   5.384   6.629  0.8749 -0.4710  0.0603
  104MOL0     C13938   2.269   5.336   6.607 -0.4331 -0.1302  0.2246
  104MOL0     C13939   2.203   5.260   6.698  0.2715 -0.3129  1.0315
  104MOL0     O13940   2.084   5.208   6.663  0.5960  0.0623 -0.2128
  104MOL0     C13941   1.978   5.262   6.742 -0.0842 -0.2437  0.1720
  104MOL0     C13942   1.945   5.402   6.691 -0.5051 -1.0268  0.0353
  104MOL0     C13943   1.824   5.470   6.765 -0.2787  0.4271 -0.8243
  104MOL0     C13944   1.827   5.489   6.920 -0.1488 -0.4186 -0.1241
  104MOL0     C13945   1.685   5.558   6.950 -0.5090  0.7439 -0.5401
  104MOL0     C13946   1.663   5.594   7.093  0.1081 -1.0507 -0.8996
  104MOL0     C13947   1.534   5.683   7.109  0.6223  0.3255  0.3608
  104MOL0     C13948   1.509   5.737   7.248 -0.5762 -0.7524 -0.3099
  104MOL0    Cl13949   1.437   5.898   7.238  0.0890  0.0873 -0.1684
  104MOL0     C13950   2.271   5.223   6.818  0.5057  0.2998  0.2584
  104MOL0     C13951   2.401   5.258   6.840 -0.1619  0.1673 -0.2256
  104MOL0     O13952   2.590   5.491   6.948  0.0596  0.4416 -0.6858
  104MOL0     C13953   2.854   5.559   6.942  0.4563 -0.0041 -0.3051
  104MOL0     C13954   2.998   5.560   6.957 -0.8290  0.5582  0.1524
  104MOL0     N13955   3.515   5.115   7.289  0.3960  0.3270  1.2728
  104MOL0     N13956   3.466   5.065   7.394 -0.1493 -0.4652 -0.4565
  104MOL0     C13957   2.387   4.763   7.820 -0.5701 -0.7142  1.4521
  104MOL0     C13958   2.254   4.809   7.816  0.1761 -0.0897 -0.4428
  104MOL0     C13959   1.861   5.000   7.809 -0.0490  0.4124 -0.3561
  104MOL0     C13960   1.771   5.002   7.928  0.7956 -0.2099 -0.5936
  104MOL0     C13961   1.629   5.007   7.916 -0.5915 -0.3151 -0.2728
  104MOL0     C13962   1.574   5.004   7.791  0.3459 -0.4406  0.4989
  104MOL0     O13963   1.435   5.009   7.776 -0.3893 -0.0020 -1.0221
  104MOL0     C13964   1.379   4.899   7.854 -0.4513  0.3701 -0.7533
  104MOL0     C13965   1.245   4.869   7.799  0.0672  0.6091 -0.2349
  104MOL0     C13966   1.181   4.771   7.887 -0.5073 -0.1370  0.9458
  104MOL0     C13967   1.031   4.799   7.902 -0.9406  0.5634 -0.0937
  104MOL0     C13968   0.965   4.702   7.990  0.2082 -0.2729  0.6415
  104MOL0     C13969   0.914   4.615   8.050 -0.6020  1.0413 -0.6364
  104MOL0     C13970   1.652   5.022   7.679  0.3150 -0.7456 -0.4959
  104MOL0     C13971   1.793   5.015   7.687  0.6214 -0.2864 -0.8737
  104MOL0     C13972   1.866   5.026   7.550 -0.3099 -0.0513 -0.5328
  104MOL0     H13973   2.264   5.043   7.591 -0.2804  0.8174  1.3329
  104MOL0     H13974   2.506   4.965   7.569  0.6349  1.4064  1.9584
  104MOL0     H13975   2.631   4.677   7.908  2.3208 -0.4842  1.0941
  104MOL0     H13976   2.762   4.670   7.801  0.2622 -0.1743 -0.3951
  104MOL0     H13977   2.808   4.798   7.996  0.1711 -2.8847 -2.0244
  104MOL0     H13978   2.672   4.922   7.958 -0.2823  0.9223 -1.2308
  104MOL0     H13979   2.875   5.020   7.892 -1.2120 -0.3081  2.3313
  104MOL0     H13980   2.787   4.980   7.742  2.9180  1.4635 -1.1515
  104MOL0     H13981   3.011   4.821   7.889  0.4265  0.8373  0.4531
  104MOL0     H13982   2.948   4.771   7.735 -0.8265  0.0159  0.4737
  104MOL0     H13983   3.070   5.040   7.785 -3.0495 -0.0955 -0.8471
  104MOL0     H13984   3.169   4.905   7.736  1.0280  0.4509 -1.7294
  104MOL0     H13985   3.022   4.871   7.544 -1.6517  1.3632 -2.0885
  104MOL0     H13986   2.920   5.010   7.578 -0.1714  1.4545 -0.3814
  104MOL0     H13987   3.188   5.131   7.554 -0.3997  0.7829  0.1975
  104MOL0     H13988   3.089   5.083   7.414 -1.3454 -0.2546  1.2985
  104MOL0     H13989   3.315   4.918   7.547  2.1457  2.5680 -0.7692
  104MOL0     H13990   3.204   4.865   7.420 -0.9302 -0.2558  0.7453
  104MOL0     H13991   3.201   5.051   7.202 -0.4619  0.4462 -0.3928
  104MOL0     H13992   3.462   5.138   7.000  3.4042  1.2571  1.5262
  104MOL0     H13993   3.295   5.182   7.033 -0.6095  2.1829  1.1441
  104MOL0     H13994   3.356   5.390   7.128 -0.0195  1.0139  0.3541
  104MOL0     H13995   3.525   5.334   7.116 -0.0525 -3.1220 -0.0793
  104MOL0     H13996   3.522   5.337   6.871 -0.9392 -0.7624 -0.6463
  104MOL0     H13997   3.486   5.503   6.924  2.4546  0.1456 -4.2081
  104MOL0     H13998   3.270   5.291   6.853 -0.5937  0.3586 -1.5931
  104MOL0     H13999   3.337   5.398   6.724 -2.3731 -0.2441 -0.7044
  104MOL0     H14000   3.070   5.314   6.735 -0.0453 -0.7236  1.2743
  104MOL0     H14001   2.850   5.280   6.742  0.2927 -1.9779  2.2320
  104MOL0     H14002   2.453   5.433   6.548 -0.4766 -0.1627 -0.6450
  104MOL0     H14003   2.219   5.357   6.513 -2.5762 -0.2686  1.2870
  104MOL0     H14004   1.887   5.206   6.718  0.4759  0.2137 -3.8588
  104MOL0     H14005   1.998   5.258   6.849  1.9334 -3.7652 -0.1781
  104MOL0     H14006   2.039   5.456   6.711 -1.5680  1.3532 -0.9659
  104MOL0     H14007   1.928   5.415   6.584  0.1542  2.5212  0.2123
  104MOL0     H14008   1.807   5.572   6.730 -0.4014  1.7713  2.7177
  104MOL0     H14009   1.736   5.409   6.743 -0.3996  0.4639 -0.4418
  104MOL0     H14010   1.915   5.548   6.945  1.3611 -2.5333 -0.1436
  104MOL0     H14011   1.822   5.392   6.971 -3.0750 -1.3058 -1.7957
  104MOL0     H14012   1.602   5.493   6.922  0.1729 -0.0615 -0.7552
  104MOL0     H14013   1.670   5.649   6.892 -0.4467  1.2732  0.2528
  104MOL0     H14014   1.656   5.512   7.165  2.2480 -0.3687  0.1804
  104MOL0     H14015   1.757   5.637   7.131 -1.1827 -0.2175  1.6137
  104MOL0     H14016   1.452   5.615   7.084  2.1669 -2.2116  1.8294
  104MOL0     H14017   1.536   5.762   7.033 -1.2979  0.4225  0.3468
  104MOL0     H14018   1.445   5.667   7.303  0.1833 -3.5268 -2.7225
  104MOL0     H14019   1.601   5.736   7.309 -1.4448  0.3681  1.0785
  104MOL0     H14020   2.229   5.151   6.888  2.7677 -0.5084  0.8651
  104MOL0     H14021   2.457   5.231   6.929 -0.1674  0.0821 -0.2479
  104MOL0     H14022   2.802   5.619   7.016 -0.6835 -0.2100 -0.9215
  104MOL0     H14023   3.047   5.625   7.029  0.9822 -1.0675  0.4594
  104MOL0     H14024   2.419   4.683   7.886  0.6806 -1.2236  0.2831
  104MOL0     H14025   2.176   4.763   7.875  1.1513  0.4656  1.3576
  104MOL0     H14026   1.815   5.001   8.027  0.1910 -1.4234 -0.3273
  104MOL0     H14027   1.561   4.989   7.998  0.1761 -1.4335  0.1507
  104MOL0     H14028   1.362   4.937   7.956 -0.1920 -1.4163 -0.0157
  104MOL0     H14029   1.447   4.813   7.855  2.3262  2.4053 -1.5656
  104MOL0     H14030   1.260   4.816   7.705  4.1176  0.8445  0.1006
  104MOL0     H14031   1.189   4.963   7.792  0.4912  0.8935  0.0875
  104MOL0     H14032   1.234   4.769   7.983 -2.1758  1.7022  1.9625
  104MOL0     H14033   1.192   4.675   7.835  0.9615  2.1889 -3.5855
  104MOL0     H14034   1.029   4.901   7.943  2.7899  1.1691 -1.0612
  104MOL0     H14035   0.992   4.799   7.800  3.5558 -0.7723 -2.0297
  104MOL0     H14036   0.872   4.534   8.106 -1.7013  1.1032 -1.3504
  104MOL0     H14037   1.600   5.026   7.583 -2.2095  0.1332  0.8010
  104MOL0     H14038   1.956   5.088   7.546  1.7065 -2.7046  0.5159
  104MOL0     H14039   1.896   4.923   7.532 -1.9802 -0.5788 -0.5021
  104MOL0     H14040   1.803   5.051   7.463  0.4591  0.6450 -0.9007
  105MOL0     O14041   6.745   1.824   1.541  0.4451  0.0983  0.6570
  105MOL0     C14042   6.695   1.871   1.642 -0.1916 -0.1890 -0.7062
  105MOL0     O14043   6.760   1.944   1.736  1.1638  0.4791  0.3892
  105MOL0     C14044   6.899   1.942   1.738 -0.3938  0.1468 -0.8285
  105MOL0     C14045   6.972   1.992   1.633 -0.3160 -0.8884  1.1192
  105MOL0     C14046   7.118   1.990   1.630  0.1457 -0.2969  0.1336
  105MOL0     C14047   7.182   1.909   1.729  0.5038 -0.6680  0.7804
  105MOL0     O14048   7.319   1.902   1.745 -0.1209  0.2831  0.1675
  105MOL0     C14049   7.399   1.940   1.632  0.3104  0.0527  0.4241
  105MOL0     C14050   7.534   1.877   1.624 -0.7542  0.0901  0.1823
  105MOL0     C14051   7.614   1.898   1.748  0.0577 -0.1592 -0.2561
  105MOL0     C14052   7.743   1.815   1.750  0.3795  0.7861 -1.3109
  105MOL0     C14053   7.851   1.872   1.659 -0.1741  0.6078 -0.5654
  105MOL0     C14054   7.973   1.777   1.638  0.2094 -0.1533 -0.6620
  105MOL0     C14055   8.034   1.714   1.759 -0.0529  0.6137  0.5222
  105MOL0     C14056   8.105   1.819   1.853  0.3410  0.4239  0.3345
  105MOL0     N14057   8.184   1.759   1.962 -0.5002  0.1212  0.2528
  105MOL0     C14058   8.314   1.720   1.954 -0.1353 -0.1904 -0.4944
  105MOL0     C14059   8.342   1.680   2.088 -0.3846 -0.2058  0.0365
  105MOL0     C14060   8.472   1.620   2.138  0.1029 -0.9347  0.8245
  105MOL0     C14061   8.603   1.698   2.112  0.3732 -0.4218 -0.5170
  105MOL0     C14062   8.710   1.645   2.196 -0.1576  0.6612 -0.1705
  105MOL0     C14063   8.844   1.725   2.173  0.7024 -0.4454 -0.5327
  105MOL0     O14064   8.945   1.674   2.262 -0.0580  0.3657 -0.2314
  105MOL0     C14065   9.064   1.742   2.278  0.0509 -0.8334 -0.1502
  105MOL0     C14066   9.089   1.873   2.239  0.1877 -0.4390 -0.3567
  105MOL0     C14067   9.210   1.932   2.263 -0.4691  0.0979  0.0034
  105MOL0     C14068   9.313   1.861   2.331 -0.3570 -0.1625  0.5384
  105MOL0     C14069   9.440   1.928   2.360  0.5315 -0.1322  1.0565
  105MOL0     O14070   9.505   1.888   2.472 -0.5397 -0.1759 -0.0467
  105MOL0     C14071   9.627   1.942   2.504 -0.5738 -0.2899  0.3129
  105MOL0     C14072   9.634   2.027   2.617  0.3389 -0.4243 -0.4093
  105MOL0     C14073   9.761   2.088   2.636  0.0285 -0.1215 -0.8457
  105MOL0     C14074   9.878   2.069   2.560  0.2524  0.4672  1.1861
  105MOL0     O14075   9.993   2.133   2.601  0.4494  0.3895 -0.5692
  105MOL0     C14076  10.105   2.091   2.530 -0.0806 -0.3869 -0.4450
  105MOL0     C14077  10.217   2.176   2.596  0.5348  0.4477 -0.2930
  105MOL0     C14078  10.350   2.141   2.545 -0.6528 -0.3649  0.0961
  105MOL0     C14079  10.416   2.032   2.632 -0.6782  0.5960  0.0060
  105MOL0     C14080  10.540   1.972   2.573 -0.7530 -0.0452  0.4568
  105MOL0     C14081  10.662   2.072   2.600 -0.8418  0.6365  0.2971
  105MOL0     C14082  10.790   2.041   2.512  0.4101 -0.9572  0.2902
  105MOL0     C14083  10.868   2.166   2.481  0.0623 -0.9904  0.4257
  105MOL0    Cl14084  11.035   2.099   2.431 -0.1047  0.2590 -0.0247
  105MOL0     C14085   9.863   1.990   2.444  0.1459 -0.2666  0.3521
  105MOL0     C14086   9.736   1.933   2.413 -0.6452 -0.3947 -0.7999
  105MOL0     O14087   9.483   2.013   2.280 -0.5712  0.2591  0.4210
  105MOL0     C14088   9.286   1.731   2.379  0.1130 -1.6110 -0.8954
  105MOL0     C14089   9.164   1.681   2.354  1.0542 -0.4486  0.6003
  105MOL0     N14090   8.230   1.691   2.166 -0.1228  0.4677 -0.1091
  105MOL0     N14091   8.136   1.738   2.086 -0.2729 -0.4985 -0.4433
  105MOL0     C14092   7.104   1.854   1.829 -0.5519 -0.3291 -0.5672
  105MOL0     C14093   6.967   1.861   1.835 -0.1213  0.8315  0.8775
  105MOL0     C14094   6.549   1.873   1.650  0.1161  0.1391 -0.9246
  105MOL0     C14095   6.488   1.987   1.719  0.0479 -0.0165 -0.1794
  105MOL0     C14096   6.352   1.994   1.753  0.5601  0.7994  0.7200
  105MOL0     C14097   6.269   1.891   1.699  0.7769 -0.2591 -0.1756
  105MOL0     O14098   6.135   1.910   1.720 -0.1619 -0.4765 -0.4864
  105MOL0     C14099   6.042   1.804   1.692  0.4360 -0.0512 -0.2334
  105MOL0     C14100   5.897   1.848   1.703 -0.3810 -0.3077 -0.0289
  105MOL0     C14101   5.860   1.948   1.586  0.4756  0.7364  0.7276
  105MOL0     C14102   5.887   1.893   1.452 -0.1180  0.1303  0.5551
  105MOL0     C14103   5.861   1.752   1.424  1.1469  0.0692 -0.1373
  105MOL0     C14104   5.863   1.636   1.387 -0.4230  0.2975 -0.8445
  105MOL0     C14105   6.324   1.777   1.631  0.3233 -0.7138  0.5096
  105MOL0     C14106   6.463   1.769   1.603 -0.0277 -0.1388 -0.8310
  105MOL0     C14107   6.511   1.634   1.559  0.1785  0.1114 -0.3717
  105MOL0     H14108   6.925   2.060   1.562  0.2657 -0.3552  1.2303
  105MOL0     H14109   7.168   2.035   1.544  2.5574 -1.4395  0.8444
  105MOL0     H14110   7.352   1.898   1.543 -0.5443 -1.3080  1.4895
  105MOL0     H14111   7.413   2.049   1.635 -1.2279  0.2563  0.9469
  105MOL0     H14112   7.580   1.914   1.531  1.1154 -3.2109 -0.3471
  105MOL0     H14113   7.527   1.769   1.610 -0.3315  0.3321 -2.4989
  105MOL0     H14114   7.562   1.880   1.843  2.0351 -0.2184  0.8643
  105MOL0     H14115   7.645   2.003   1.754 -0.7608  0.0695  0.2559
  105MOL0     H14116   7.768   1.796   1.855  0.8252  1.8828 -1.1998
  105MOL0     H14117   7.724   1.714   1.712  0.5151  0.2330  0.0410
  105MOL0     H14118   7.818   1.893   1.556 -0.8811 -1.2664 -0.7559
  105MOL0     H14119   7.887   1.968   1.698  1.3638 -0.3857  0.5972
  105MOL0     H14120   7.937   1.703   1.566 -3.9174  1.4600 -0.5408
  105MOL0     H14121   8.052   1.834   1.588  0.4403  0.8065  0.7496
  105MOL0     H14122   8.121   1.656   1.725  1.1377  2.2173  0.6760
  105MOL0     H14123   7.962   1.648   1.808  0.8152 -2.0711 -1.5794
  105MOL0     H14124   8.168   1.876   1.785 -1.0764  1.4853 -0.1484
  105MOL0     H14125   8.018   1.876   1.889 -1.0513  0.7303 -3.1172
  105MOL0     H14126   8.380   1.712   1.868 -1.1122 -2.2519 -1.1068
  105MOL0     H14127   8.448   1.608   2.244 -1.0945 -1.1328  0.5381
  105MOL0     H14128   8.483   1.518   2.100 -0.3829 -0.5674 -0.3418
  105MOL0     H14129   8.616   1.676   2.006 -2.9042 -1.1656 -0.8898
  105MOL0     H14130   8.596   1.806   2.126  0.8956 -0.4380 -0.1205
  105MOL0     H14131   8.731   1.540   2.173 -0.1968  0.1736  1.8919
  105MOL0     H14132   8.679   1.638   2.300 -0.0505  1.2961 -0.0953
  105MOL0     H14133   8.816   1.829   2.193 -0.4404 -0.6466 -0.9980
  105MOL0     H14134   8.877   1.726   2.069  0.0811  1.0497 -0.7324
  105MOL0     H14135   9.026   1.943   2.184  0.1710  0.8170  1.1901
  105MOL0     H14136   9.220   2.034   2.226 -1.6252  1.1425  2.2981
  105MOL0     H14137   9.558   2.042   2.693  0.3055 -2.0069 -0.0921
  105MOL0     H14138   9.766   2.141   2.731 -1.8173  0.5510 -1.0827
  105MOL0     H14139  10.133   1.988   2.554 -0.0944 -0.1689  0.5493
  105MOL0     H14140  10.112   2.120   2.425 -0.8558  0.6900 -0.2176
  105MOL0     H14141  10.198   2.283   2.584 -0.6894  0.2265 -0.5433
  105MOL0     H14142  10.212   2.142   2.700 -1.7277 -0.0233 -0.5042
  105MOL0     H14143  10.348   2.109   2.440 -0.4440  0.5292 -0.1916
  105MOL0     H14144  10.418   2.227   2.545 -1.1561  0.0401  0.4643
  105MOL0     H14145  10.348   1.946   2.634 -0.8276  0.7291  0.9714
  105MOL0     H14146  10.431   2.078   2.730 -1.3542  1.0403 -0.0938
  105MOL0     H14147  10.521   1.968   2.465 -1.6964  1.0219  0.5699
  105MOL0     H14148  10.564   1.873   2.613  2.7507 -0.1160 -1.3751
  105MOL0     H14149  10.623   2.172   2.577 -3.4616 -1.1888 -4.7089
  105MOL0     H14150  10.696   2.070   2.704 -0.3037  2.0671  0.1710
  105MOL0     H14151  10.758   1.994   2.419 -3.3609  0.6799  0.5998
  105MOL0     H14152  10.847   1.966   2.569 -0.7369 -1.6099  0.6161
  105MOL0     H14153  10.827   2.222   2.397  2.5545 -1.1790 -1.0149
  105MOL0     H14154  10.879   2.224   2.574 -0.9901 -1.4234  0.8309
  105MOL0     H14155   9.946   1.969   2.377  1.0429 -1.3824  1.7672
  105MOL0     H14156   9.729   1.874   2.322 -1.5812 -0.3969 -0.7297
  105MOL0     H14157   9.356   1.675   2.440  0.7753  1.4550  1.4197
  105MOL0     H14158   9.148   1.577   2.382  1.4449 -1.4030 -2.3513
  105MOL0     H14159   7.158   1.805   1.909  0.9703  0.4767 -1.0660
  105MOL0     H14160   6.904   1.817   1.911  1.0555  0.3328  1.5961
  105MOL0     H14161   6.554   2.063   1.761  0.0912  0.2484 -0.7208
  105MOL0     H14162   6.299   2.068   1.812 -2.0549  0.8432 -1.4808
  105MOL0     H14163   6.046   1.724   1.767  3.0055 -0.3892 -0.6336
  105MOL0     H14164   6.060   1.768   1.590 -2.7669  2.5534 -1.9036
  105MOL0     H14165   5.872   1.893   1.799  0.4152 -3.3854  1.7497
  105MOL0     H14166   5.823   1.768   1.697 -0.5380 -0.1643 -0.0080
  105MOL0     H14167   5.911   2.044   1.594  1.3917  0.5390 -1.9152
  105MOL0     H14168   5.750   1.949   1.593  0.5567  0.6817  2.4221
  105MOL0     H14169   5.833   1.949   1.375 -1.0338 -2.1919 -0.5952
  105MOL0     H14170   5.993   1.907   1.430 -0.2184  2.5611  1.3254
  105MOL0     H14171   5.866   1.535   1.351 -0.5837  0.1949 -0.5718
  105MOL0     H14172   6.281   1.689   1.585  1.4349 -1.2607  0.4869
  105MOL0     H14173   6.444   1.552   1.589  2.1011 -0.6099  2.3060
  105MOL0     H14174   6.542   1.629   1.455  0.7228 -2.9592 -0.1667
  105MOL0     H14175   6.600   1.624   1.622 -0.0730  1.9799  0.3554
  106MOL0     O14176   9.036   0.560   0.475  0.2193 -0.1353  0.3931
  106MOL0     C14177   8.977   0.667   0.467 -0.3128 -0.9720 -0.0821
  106MOL0     O14178   9.037   0.789   0.451 -0.5054  0.1225 -0.2995
  106MOL0     C14179   9.170   0.799   0.445 -0.4191  0.2078  0.0142
  106MOL0     C14180   9.245   0.760   0.335  0.3127  0.3675 -0.0194
  106MOL0     C14181   9.384   0.756   0.328 -0.5022 -0.1744 -0.6277
  106MOL0     C14182   9.460   0.811   0.434 -0.8044 -1.0848 -0.2935
  106MOL0     O14183   9.601   0.812   0.447 -0.1105 -0.6134  0.8193
  106MOL0     C14184   9.682   0.788   0.321 -0.1287  0.0970 -0.3807
  106MOL0     C14185   9.799   0.885   0.342 -0.4510  0.6503 -0.1119
  106MOL0     C14186   9.904   0.854   0.454  0.0909 -0.5602 -0.0924
  106MOL0     C14187   9.980   0.725   0.417 -0.0012  0.2498  0.3163
  106MOL0     C14188  10.103   0.710   0.499  0.2435 -0.0749  0.5066
  106MOL0     C14189  10.186   0.592   0.453  0.2843  0.3266  0.6339
  106MOL0     C14190  10.301   0.571   0.547 -0.5008 -0.7392 -0.9195
  106MOL0     C14191  10.384   0.459   0.499 -0.0444 -0.1037 -0.6817
  106MOL0     N14192  10.482   0.423   0.602  0.8182 -0.2547 -0.0650
  106MOL0     C14193  10.612   0.412   0.570  0.5565 -0.1181  0.4562
  106MOL0     C14194  10.669   0.364   0.679  0.8032 -0.0451 -0.1864
  106MOL0     C14195  10.811   0.322   0.714  0.0497 -1.4021  0.0020
  106MOL0     C14196  10.916   0.366   0.609 -0.3349 -0.1070  0.2662
  106MOL0     C14197  11.051   0.309   0.637  0.0147  0.5118 -0.0615
  106MOL0     C14198  11.162   0.409   0.590 -0.2745  0.8048  0.0253
  106MOL0     O14199  11.293   0.348   0.598  0.1447  0.6514  0.7971
  106MOL0     C14200  11.403   0.427   0.599 -0.2312 -0.5248  0.1918
  106MOL0     C14201  11.526   0.353   0.617  0.0390 -0.5301  0.8666
  106MOL0     C14202  11.652   0.424   0.628 -0.3106 -0.3049 -0.4139
  106MOL0     C14203  11.661   0.562   0.605  0.3907  0.1778 -0.2285
  106MOL0     C14204  11.784   0.633   0.593  0.0876  0.6637 -0.1751
  106MOL0     O14205  11.897   0.560   0.621 -0.1479 -0.0329  0.2011
  106MOL0     C14206  12.025   0.613   0.625  0.0801 -0.2501  0.6563
  106MOL0     C14207  12.137   0.528   0.640  0.3499 -0.0665 -1.1105
  106MOL0     C14208  12.270   0.573   0.654 -0.3005  0.0167 -0.1117
  106MOL0     C14209  12.299   0.707   0.642  0.7364  0.6583  1.0815
  106MOL0     O14210  12.432   0.747   0.653  0.3061 -0.2759 -0.2682
  106MOL0     C14211  12.467   0.886   0.644  0.1484 -0.3471 -0.9380
  106MOL0     C14212  12.616   0.902   0.687 -0.3121  0.8319 -0.0617
  106MOL0     C14213  12.704   0.824   0.593  0.6141 -0.3891  0.2061
  106MOL0     C14214  12.847   0.865   0.634 -0.2941 -0.4822  0.5101
  106MOL0     C14215  12.944   0.795   0.540 -0.4393 -0.1227 -0.0363
  106MOL0     C14216  13.087   0.805   0.593  0.5901 -0.1800  0.8817
  106MOL0     C14217  13.194   0.746   0.493  0.5199 -0.1838 -0.7167
  106MOL0     C14218  13.267   0.842   0.408 -0.1837 -0.0492  0.1759
  106MOL0    Cl14219  13.153   0.931   0.314 -0.3625 -0.3011  0.5127
  106MOL0     C14220  12.191   0.790   0.617 -0.4682 -0.1313 -0.7101
  106MOL0     C14221  12.060   0.751   0.613 -0.1731 -0.1335  0.3084
  106MOL0     O14222  11.782   0.747   0.544  0.2035  0.0524 -0.3419
  106MOL0     C14223  11.542   0.624   0.572  0.4067  1.2015  0.1690
  106MOL0     C14224  11.418   0.564   0.575  0.9361 -0.0576  0.4052
  106MOL0     N14225  10.569   0.343   0.776 -0.5032  1.0256 -0.1136
  106MOL0     N14226  10.458   0.379   0.723 -0.6565  0.7854 -0.7600
  106MOL0     C14227   9.388   0.863   0.540  0.1852 -0.1120 -1.1009
  106MOL0     C14228   9.243   0.844   0.557  0.3368  0.5844  1.0093
  106MOL0     C14229   8.827   0.659   0.488  1.0525 -0.3691  0.4390
  106MOL0     C14230   8.772   0.535   0.495  0.3403 -0.2145  0.9163
  106MOL0     C14231   8.633   0.518   0.512 -0.8304 -0.0711  0.7779
  106MOL0     C14232   8.546   0.628   0.514 -0.2261  0.5049 -0.2914
  106MOL0     O14233   8.413   0.596   0.536 -0.0127  1.1454 -0.1671
  106MOL0     C14234   8.306   0.684   0.511 -0.7080  0.5751  0.7784
  106MOL0     C14235   8.282   0.767   0.633  0.4889 -0.1793 -0.3858
  106MOL0     C14236   8.167   0.869   0.600 -0.5817  0.9037  0.4365
  106MOL0     C14237   8.135   0.952   0.728  0.8910 -0.1969 -0.0131
  106MOL0     C14238   8.243   1.039   0.777 -0.0316  0.1311  0.3616
  106MOL0     C14239   8.338   1.111   0.814  0.6957  0.6498  0.3629
  106MOL0     C14240   8.596   0.756   0.492 -0.2422 -0.9639  0.0822
  106MOL0     C14241   8.735   0.771   0.483 -0.0703 -0.5777 -0.4035
  106MOL0     C14242   8.774   0.919   0.484 -0.0993  0.8135  0.7003
  106MOL0     H14243   9.198   0.719   0.247  1.0681  0.1089 -0.3153
  106MOL0     H14244   9.434   0.708   0.245  2.3045 -0.4722  1.1252
  106MOL0     H14245   9.714   0.684   0.317  1.7837  0.6520 -0.3716
  106MOL0     H14246   9.626   0.812   0.229 -0.5209  1.8650  0.2762
  106MOL0     H14247   9.770   0.987   0.366  2.0760  0.8936  2.4671
  106MOL0     H14248   9.857   0.896   0.251  0.7561  0.3172  0.5963
  106MOL0     H14249   9.852   0.845   0.550  2.2119 -1.4003  1.0510
  106MOL0     H14250   9.976   0.936   0.465 -0.7074 -0.1856  4.2599
  106MOL0     H14251   9.924   0.631   0.417  2.3656 -1.2753 -1.3166
  106MOL0     H14252  10.012   0.735   0.312  1.2353 -1.9843  0.4200
  106MOL0     H14253  10.165   0.798   0.479  0.5865 -0.6278 -0.9771
  106MOL0     H14254  10.083   0.706   0.606 -0.2532 -1.6086  0.3837
  106MOL0     H14255  10.121   0.504   0.455 -1.6350  1.5414 -1.7427
  106MOL0     H14256  10.229   0.608   0.354  2.1846  1.8859  1.6367
  106MOL0     H14257  10.258   0.555   0.647 -0.8652  0.2067 -0.9110
  106MOL0     H14258  10.359   0.664   0.546 -0.8645 -0.4848  0.2023
  106MOL0     H14259  10.311   0.378   0.487 -0.4162  0.2740 -0.9720
  106MOL0     H14260  10.439   0.487   0.408  2.8027  0.5131  1.0981
  106MOL0     H14261  10.659   0.430   0.474  0.3583 -1.1595  0.1464
  106MOL0     H14262  10.844   0.363   0.810  2.0102 -0.4378 -1.0412
  106MOL0     H14263  10.815   0.213   0.720 -0.0419 -1.4593 -0.8724
  106MOL0     H14264  10.889   0.327   0.510  2.7921  2.2845 -1.7391
  106MOL0     H14265  10.930   0.474   0.610  0.7608 -0.1659  3.7605
  106MOL0     H14266  11.057   0.218   0.576 -1.9357 -0.1276  0.6141
  106MOL0     H14267  11.073   0.286   0.741  0.6760 -1.5191 -0.6084
  106MOL0     H14268  11.152   0.496   0.656 -4.9573  1.4411 -1.1249
  106MOL0     H14269  11.139   0.442   0.487  0.4806  0.5956 -0.2130
  106MOL0     H14270  11.526   0.247   0.639  1.3204 -0.6603  0.3455
  106MOL0     H14271  11.733   0.353   0.644 -1.9428 -1.6533  3.0649
  106MOL0     H14272  12.108   0.423   0.644  0.6324 -0.2390 -2.7972
  106MOL0     H14273  12.343   0.494   0.669 -2.0403 -2.0475 -1.8789
  106MOL0     H14274  12.456   0.915   0.539 -0.9339  1.2569 -0.4250
  106MOL0     H14275  12.403   0.948   0.708  1.5397  2.3948 -2.0055
  106MOL0     H14276  12.647   1.006   0.682 -0.8618  0.9669 -0.7787
  106MOL0     H14277  12.621   0.862   0.789  0.1703 -0.5820 -0.6106
  106MOL0     H14278  12.681   0.717   0.594 -1.8528  0.0805  0.1863
  106MOL0     H14279  12.685   0.850   0.489 -2.5031  2.0054  1.2438
  106MOL0     H14280  12.869   0.833   0.736  1.7787  1.7571  0.8459
  106MOL0     H14281  12.866   0.972   0.632  3.1618 -0.9653  1.0590
  106MOL0     H14282  12.939   0.845   0.443 -1.5760 -1.8616 -0.9137
  106MOL0     H14283  12.917   0.689   0.535  0.1643 -0.3369  0.8016
  106MOL0     H14284  13.106   0.912   0.606 -1.1038  0.3450 -0.6233
  106MOL0     H14285  13.096   0.756   0.690 -1.2750  0.1116  1.2333
  106MOL0     H14286  13.144   0.668   0.436 -0.2561  1.6502 -2.6895
  106MOL0     H14287  13.270   0.701   0.557  1.6339 -0.0222 -1.8975
  106MOL0     H14288  13.320   0.926   0.454 -0.3632  0.7037 -0.9779
  106MOL0     H14289  13.334   0.783   0.345  1.3402  1.0015  0.7366
  106MOL0     H14290  12.227   0.891   0.604  1.1806 -0.6140 -0.2325
  106MOL0     H14291  11.987   0.831   0.605  0.2466  0.1243 -1.2314
  106MOL0     H14292  11.538   0.723   0.528  0.0525  0.7773 -0.7973
  106MOL0     H14293  11.323   0.612   0.551 -0.1880 -0.5289  3.4878
  106MOL0     H14294   9.438   0.899   0.629 -0.9206 -1.6140  0.1730
  106MOL0     H14295   9.188   0.873   0.646 -1.7545  0.6067 -0.2239
  106MOL0     H14296   8.826   0.442   0.492 -0.3693 -0.6386  1.0648
  106MOL0     H14297   8.591   0.418   0.522 -0.8870 -0.1254  0.0522
  106MOL0     H14298   8.217   0.626   0.483 -2.1749  1.6356  2.9677
  106MOL0     H14299   8.327   0.734   0.416 -1.5542 -0.2923  0.1109
  106MOL0     H14300   8.376   0.804   0.674 -0.2721  0.2296  1.0522
  106MOL0     H14301   8.242   0.699   0.709 -0.0724 -0.7138 -1.1356
  106MOL0     H14302   8.085   0.801   0.573 -0.1498 -0.8015  3.0701
  106MOL0     H14303   8.194   0.938   0.520  0.1415  1.5439  1.2115
  106MOL0     H14304   8.056   1.023   0.699  3.1445  2.5650  0.1210
  106MOL0     H14305   8.098   0.879   0.801  1.0342 -0.3008 -0.0440
  106MOL0     H14306   8.408   1.177   0.861  0.4838 -0.0560  1.6949
  106MOL0     H14307   8.535   0.845   0.487  1.1802  0.0507  0.2457
  106MOL0     H14308   8.691   0.988   0.504 -0.4751  0.5398  0.1125
  106MOL0     H14309   8.854   0.933   0.557  1.2086 -2.3923  0.0206
  106MOL0     H14310   8.820   0.950   0.389  1.4452  3.0735  2.0770
  107MOL0     O14311   1.582   1.337   0.456 -0.3649  1.2310  0.1456
  107MOL0     C14312   1.636   1.433   0.398  0.1358  0.2806  0.8615
  107MOL0     O14313   1.767   1.444   0.368  0.2296 -0.0897  0.0072
  107MOL0     C14314   1.856   1.373   0.449  0.3062  0.1018  0.4354
  107MOL0     C14315   1.972   1.356   0.397 -0.4449  1.2401  0.7444
  107MOL0     C14316   2.079   1.298   0.467  0.6925  0.3607  0.6309
  107MOL0     C14317   2.061   1.251   0.599 -0.8797  0.2599  0.8839
  107MOL0     O14318   2.170   1.184   0.661 -0.2766 -0.3707  0.2978
  107MOL0     C14319   2.165   1.130   0.804  0.1245 -0.2444  1.0236
  107MOL0     C14320   2.285   1.186   0.887 -0.1702 -0.1209  0.1094
  107MOL0     C14321   2.415   1.136   0.835 -0.4324 -0.4180  0.3206
  107MOL0     C14322   2.523   1.135   0.940 -0.5883 -0.2965  0.5555
  107MOL0     C14323   2.656   1.096   0.881 -0.3274  0.3164 -0.5001
  107MOL0     C14324   2.731   1.202   0.804  0.6746  0.0844  0.1089
  107MOL0     C14325   2.883   1.187   0.836 -0.4709 -0.3255  0.1749
  107MOL0     C14326   2.966   1.278   0.734  0.3656  0.2570 -1.4052
  107MOL0     N14327   3.104   1.239   0.738 -0.4486 -1.1132  0.1597
  107MOL0     C14328   3.157   1.116   0.718  0.4116  0.0186  0.1318
  107MOL0     C14329   3.290   1.131   0.718 -0.2615  0.4581  0.0081
  107MOL0     C14330   3.385   1.013   0.707 -0.0236 -1.1589  0.6581
  107MOL0     C14331   3.363   0.894   0.795 -0.0807 -0.2687  0.6199
  107MOL0     C14332   3.363   0.930   0.942  0.8733  0.3537  0.4657
  107MOL0     C14333   3.504   0.921   0.993 -0.5061  0.6958 -0.3147
  107MOL0     O14334   3.613   0.956   0.908 -0.3355  0.0882 -0.1253
  107MOL0     C14335   3.739   0.926   0.960  0.3500 -0.1851  0.2224
  107MOL0     C14336   3.770   0.912   1.092  0.5458  0.3823  0.3528
  107MOL0     C14337   3.903   0.900   1.132  0.7884 -0.6553  0.5987
  107MOL0     C14338   4.009   0.892   1.040  0.4983 -0.4499  0.5990
  107MOL0     C14339   4.152   0.885   1.085  0.0649 -0.9565  0.3233
  107MOL0     O14340   4.189   0.936   1.216 -0.0918  0.6427  0.0739
  107MOL0     C14341   4.324   0.934   1.248  0.5409  0.4075 -0.1521
  107MOL0     C14342   4.425   0.968   1.160 -0.3471 -0.4437 -0.4307
  107MOL0     C14343   4.559   0.978   1.204 -0.2591  0.6297 -0.2688
  107MOL0     C14344   4.588   0.942   1.336 -0.1303  0.5391  0.3046
  107MOL0     O14345   4.715   0.953   1.395  0.2284 -0.2397 -0.4056
  107MOL0     C14346   4.823   0.965   1.302 -0.4322  0.4829 -1.0581
  107MOL0     C14347   4.959   0.948   1.379 -0.3100  0.2886 -0.6592
  107MOL0     C14348   5.081   0.923   1.284 -0.5317  0.4937 -0.1086
  107MOL0     C14349   5.218   0.910   1.356  0.3715 -0.4917  0.0587
  107MOL0     C14350   5.317   0.840   1.256  0.7158  0.3729 -0.2143
  107MOL0     C14351   5.468   0.861   1.281  0.0431 -0.4673  0.3094
  107MOL0     C14352   5.518   0.785   1.413  0.6659  0.4467  0.4922
  107MOL0     C14353   5.604   0.880   1.492  0.6773  0.3130 -0.1133
  107MOL0    Cl14354   5.739   0.929   1.389 -0.4710  0.2465 -0.1146
  107MOL0     C14355   4.487   0.913   1.430 -1.2360  0.2875 -0.0754
  107MOL0     C14356   4.355   0.917   1.386  0.5515 -0.8481  0.7492
  107MOL0     O14357   4.224   0.842   1.000  0.2568  0.1336 -0.6414
  107MOL0     C14358   3.972   0.914   0.900  0.3634 -0.7404 -0.4771
  107MOL0     C14359   3.838   0.928   0.869 -0.3885 -0.4728  0.0767
  107MOL0     N14360   3.323   1.259   0.758 -0.4224 -0.3381 -0.0285
  107MOL0     N14361   3.211   1.326   0.769  0.7279  0.1667 -0.3133
  107MOL0     C14362   1.935   1.277   0.664  0.3319  0.0168 -0.1912
  107MOL0     C14363   1.841   1.351   0.588  0.3634 -0.3058 -1.1392
  107MOL0     C14364   1.542   1.538   0.341  0.0279  0.2943 -0.9420
  107MOL0     C14365   1.583   1.600   0.223 -0.7709 -0.8214 -1.0826
  107MOL0     C14366   1.503   1.673   0.149  0.3779 -0.0668 -0.4042
  107MOL0     C14367   1.385   1.712   0.208 -0.1009 -1.1688 -0.5837
  107MOL0     O14368   1.314   1.812   0.143 -0.2143  0.5349 -1.3000
  107MOL0     C14369   1.185   1.762   0.098 -0.1211 -0.5638  0.4238
  107MOL0     C14370   1.078   1.852   0.163 -0.5357  0.0835  0.2976
  107MOL0     C14371   0.934   1.828   0.102 -0.5861  0.8149 -0.0184
  107MOL0     C14372   0.828   1.934   0.130 -0.5784  0.0097  0.2060
  107MOL0     C14373   0.699   1.871   0.100  0.3634  0.8199  0.3418
  107MOL0     C14374   0.596   1.816   0.069 -0.4129 -0.5195 -0.1578
  107MOL0     C14375   1.340   1.667   0.334  0.1095  0.0136  0.0537
  107MOL0     C14376   1.422   1.574   0.406 -0.3867  0.4497  0.4399
  107MOL0     C14377   1.355   1.498   0.519  0.4582 -0.3475  0.4732
  107MOL0     H14378   1.991   1.392   0.296  1.5785  0.9683  0.9845
  107MOL0     H14379   2.172   1.288   0.412  1.2791 -0.1974  1.7094
  107MOL0     H14380   2.070   1.162   0.849 -0.2600 -1.5271  1.1552
  107MOL0     H14381   2.171   1.021   0.804 -0.7379 -0.4228 -2.8966
  107MOL0     H14382   2.267   1.154   0.990  2.3400  0.8955  0.9526
  107MOL0     H14383   2.286   1.295   0.887  3.0586 -0.0507 -0.2276
  107MOL0     H14384   2.448   1.189   0.745 -0.0570  0.3053  0.8707
  107MOL0     H14385   2.394   1.032   0.807  0.1131  0.0158 -1.9282
  107MOL0     H14386   2.524   1.227   0.999 -2.2027 -0.1577  0.3907
  107MOL0     H14387   2.514   1.057   1.016 -1.6928 -0.0424  0.6938
  107MOL0     H14388   2.709   1.068   0.973  0.2136  1.6659 -0.3875
  107MOL0     H14389   2.636   1.010   0.817  1.4265 -1.0141  0.6364
  107MOL0     H14390   2.707   1.190   0.698 -1.1239  1.0001  0.3734
  107MOL0     H14391   2.702   1.306   0.824 -0.3677  0.3239 -2.2330
  107MOL0     H14392   2.913   1.083   0.816 -2.3986 -1.0985  1.0439
  107MOL0     H14393   2.911   1.215   0.938  1.1963 -0.3088 -0.2641
  107MOL0     H14394   2.922   1.283   0.634 -1.8156  1.6723 -0.4503
  107MOL0     H14395   2.969   1.377   0.780  0.3291 -1.2148  1.9975
  107MOL0     H14396   3.100   1.028   0.690 -3.9606  2.3575  0.7762
  107MOL0     H14397   3.382   0.984   0.602 -2.8801  0.3292  0.2237
  107MOL0     H14398   3.486   1.051   0.723 -1.3675  3.2277  0.0229
  107MOL0     H14399   3.264   0.860   0.764  0.3208  0.5146 -1.7110
  107MOL0     H14400   3.442   0.821   0.772 -0.4785 -0.6235  0.3465
  107MOL0     H14401   3.298   0.861   0.996  2.4325 -0.4793  1.3559
  107MOL0     H14402   3.324   1.031   0.959  2.5197  0.7213  2.4419
  107MOL0     H14403   3.514   0.816   1.022  1.6037  0.9765  0.1322
  107MOL0     H14404   3.524   0.976   1.086 -0.2177  0.1419 -0.0427
  107MOL0     H14405   3.695   0.910   1.170 -0.0727 -0.0466 -0.2465
  107MOL0     H14406   3.926   0.902   1.238  2.9016  0.8883  0.1877
  107MOL0     H14407   4.414   1.001   1.057  1.7183  1.2680 -0.1737
  107MOL0     H14408   4.638   1.007   1.135 -0.7601 -3.7574 -3.1453
  107MOL0     H14409   4.824   0.880   1.233 -0.4718 -1.1351  0.8212
  107MOL0     H14410   4.825   1.064   1.257  2.1929  1.3178  0.7027
  107MOL0     H14411   4.984   1.042   1.428  1.6503  0.7255 -2.2993
  107MOL0     H14412   4.955   0.871   1.456  0.4568 -0.1084 -1.0020
  107MOL0     H14413   5.059   0.823   1.246 -1.1012  0.2499  0.8357
  107MOL0     H14414   5.083   0.985   1.194  0.0893 -1.0874 -1.2374
  107MOL0     H14415   5.218   0.852   1.449 -0.1083  1.3581  1.2773
  107MOL0     H14416   5.248   1.014   1.376 -0.7393  0.1161 -1.2738
  107MOL0     H14417   5.294   0.866   1.152 -0.9802  1.4577  0.3809
  107MOL0     H14418   5.302   0.732   1.258  1.5103  0.1854 -2.0066
  107MOL0     H14419   5.519   0.818   1.195  1.9359  1.8508  0.1670
  107MOL0     H14420   5.491   0.968   1.281  2.2376 -0.8553  1.9494
  107MOL0     H14421   5.571   0.692   1.392  2.0138  0.9887  1.3858
  107MOL0     H14422   5.430   0.761   1.474  0.4224  0.4626  0.1475
  107MOL0     H14423   5.542   0.964   1.524  0.4091 -0.4098  1.3348
  107MOL0     H14424   5.649   0.834   1.580 -1.1389  0.7363  1.0842
  107MOL0     H14425   4.517   0.889   1.531 -5.2898  0.0325  1.2734
  107MOL0     H14426   4.262   0.910   1.440  0.2290  0.1379  0.3496
  107MOL0     H14427   4.053   0.921   0.828 -1.3600 -0.9945 -2.5283
  107MOL0     H14428   3.817   0.946   0.764 -0.2338 -0.8730 -0.0265
  107MOL0     H14429   1.920   1.248   0.768  0.8505  0.0606 -0.1008
  107MOL0     H14430   1.754   1.379   0.647  0.3838  0.9905 -1.6800
  107MOL0     H14431   1.681   1.585   0.179 -0.0465  3.9384 -1.6693
  107MOL0     H14432   1.535   1.713   0.053 -3.2398 -0.0232 -1.7689
  107MOL0     H14433   1.168   1.657   0.122  1.1091 -0.1509  3.6048
  107MOL0     H14434   1.181   1.781  -0.010 -0.1598 -0.0133  0.5211
  107MOL0     H14435   1.102   1.957   0.146  0.4961 -0.2787 -0.5348
  107MOL0     H14436   1.076   1.838   0.272 -1.0635  0.9884  0.4175
  107MOL0     H14437   0.886   1.744   0.153 -1.4468  1.8198  0.8734
  107MOL0     H14438   0.945   1.812  -0.006 -1.5772 -0.9576  0.1055
  107MOL0     H14439   0.832   1.949   0.238  3.0395 -1.0106  0.3393
  107MOL0     H14440   0.842   2.030   0.081 -0.9502  0.4409  0.9295
  107MOL0     H14441   0.502   1.770   0.045 -0.2335 -0.2629 -1.4043
  107MOL0     H14442   1.242   1.684   0.377 -1.1561 -1.1986 -2.1748
  107MOL0     H14443   1.339   1.392   0.497  3.1857 -0.7434  0.0378
  107MOL0     H14444   1.424   1.505   0.604 -0.1351  1.0596  0.8653
  107MOL0     H14445   1.260   1.544   0.548 -0.7065 -1.6273 -1.1479
  108MOL0     O14446   2.625   7.605   1.838  0.5955  0.1430 -0.8007
  108MOL0     C14447   2.560   7.686   1.905  0.9131  0.2743  0.6289
  108MOL0     O14448   2.609   7.810   1.948 -0.4033  0.3109  0.7647
  108MOL0     C14449   2.740   7.830   1.936 -0.0815 -0.2081  0.2741
  108MOL0     C14450   2.792   7.915   1.830 -0.8012  0.3165  0.1025
  108MOL0     C14451   2.933   7.916   1.811  0.4033 -0.0445 -0.5725
  108MOL0     C14452   3.015   7.844   1.899 -0.7410 -0.4394 -0.4541
  108MOL0     O14453   3.151   7.857   1.874  0.1285  0.3572  0.2251
  108MOL0     C14454   3.250   7.851   1.967 -0.1117  0.9314  0.3616
  108MOL0     C14455   3.375   7.905   1.895  0.4116 -0.2937  0.2955
  108MOL0     C14456   3.500   7.879   1.970 -0.1586 -0.6381  0.2665
  108MOL0     C14457   3.531   7.733   2.003  0.2380  0.0183  0.6524
  108MOL0     C14458   3.673   7.716   2.043  0.6434  0.1213  0.3362
  108MOL0     C14459   3.756   7.654   1.932 -0.3932 -0.3885 -0.0532
  108MOL0     C14460   3.914   7.666   1.961  0.0819 -0.5620  0.4379
  108MOL0     C14461   3.977   7.575   2.065  0.2266  0.2811 -0.3496
  108MOL0     N14462   3.922   7.439   2.043 -0.5840  0.5386 -0.1934
  108MOL0     C14463   3.984   7.346   1.961  0.4355 -0.8462 -0.4727
  108MOL0     C14464   3.927   7.232   2.004 -0.9413 -0.0410  0.4212
  108MOL0     C14465   3.970   7.099   1.964  0.4657  0.5401  0.3672
  108MOL0     C14466   4.093   7.044   2.046 -1.3114 -0.5183  0.0397
  108MOL0     C14467   4.206   7.150   2.064 -0.2451 -0.0292  0.1571
  108MOL0     C14468   4.314   7.072   2.128 -0.2137  0.3678 -0.9385
  108MOL0     O14469   4.437   7.146   2.143  0.2622  0.0769  0.3446
  108MOL0     C14470   4.560   7.083   2.163  0.0112  0.0859 -0.6966
  108MOL0     C14471   4.672   7.163   2.175  0.2413  0.0091 -0.2635
  108MOL0     C14472   4.795   7.105   2.189 -0.3417  0.2144  0.1354
  108MOL0     C14473   4.817   6.965   2.186  0.3540  0.4755  0.0943
  108MOL0     C14474   4.949   6.905   2.206  0.0268 -0.4551 -0.4177
  108MOL0     O14475   5.050   6.996   2.205 -0.3884  0.7527  0.6076
  108MOL0     C14476   5.175   6.954   2.226  0.5854  0.9223 -1.1026
  108MOL0     C14477   5.250   6.916   2.112 -0.2807 -0.4841  0.0620
  108MOL0     C14478   5.376   6.859   2.121  0.1162  0.4211  0.3844
  108MOL0     C14479   5.430   6.827   2.251  0.5193  0.3178 -0.0138
  108MOL0     O14480   5.551   6.767   2.261  0.4398 -0.6988 -0.1772
  108MOL0     C14481   5.560   6.644   2.191  0.0888  0.9674 -0.4904
  108MOL0     C14482   5.649   6.544   2.260  0.0362  0.9699  0.1695
  108MOL0     C14483   5.735   6.458   2.170  0.0482 -0.9939 -0.1328
  108MOL0     C14484   5.847   6.393   2.240  0.5323 -0.8391 -0.4798
  108MOL0     C14485   5.937   6.315   2.144 -0.8440 -0.0212  0.1389
  108MOL0     C14486   6.056   6.236   2.204  0.7444 -0.7791  0.4274
  108MOL0     C14487   6.101   6.140   2.100  0.0330 -0.2475 -0.2392
  108MOL0     C14488   6.181   6.027   2.152 -0.8973  1.1692 -0.2600
  108MOL0    Cl14489   6.341   6.088   2.201  0.0344  0.1460 -0.1814
  108MOL0     C14490   5.359   6.879   2.362 -0.9023  0.2604  0.0265
  108MOL0     C14491   5.234   6.949   2.349  0.6539 -0.4758  0.6601
  108MOL0     O14492   4.961   6.787   2.233 -0.3276  0.1478  0.1377
  108MOL0     C14493   4.700   6.884   2.176  0.2609 -0.3210 -0.2504
  108MOL0     C14494   4.575   6.945   2.174 -0.2974  0.0636  0.5712
  108MOL0     N14495   3.828   7.258   2.103  0.9572  0.1939  0.6751
  108MOL0     N14496   3.837   7.382   2.126  0.0448  0.2614  0.3675
  108MOL0     C14497   2.964   7.770   2.003 -0.0243 -0.2832  0.2167
  108MOL0     C14498   2.830   7.758   2.023  0.1573 -0.0884 -0.3455
  108MOL0     C14499   2.422   7.658   1.959  0.2407  0.8106  0.2459
  108MOL0     C14500   2.342   7.767   1.985 -0.3113  0.3971 -0.5148
  108MOL0     C14501   2.209   7.758   2.040 -0.6896  0.2134 -0.4527
  108MOL0     C14502   2.153   7.632   2.060  0.3494  0.1035  0.1437
  108MOL0     O14503   2.027   7.628   2.109 -0.7267  0.7751 -0.0601
  108MOL0     C14504   1.955   7.510   2.088 -0.3790 -0.1014 -0.1495
  108MOL0     C14505   1.824   7.530   2.166 -0.6619  0.5303 -0.0752
  108MOL0     C14506   1.733   7.614   2.069 -0.1898 -0.1583 -0.3518
  108MOL0     C14507   1.583   7.627   2.123  0.4522  0.6038 -0.6852
  108MOL0     C14508   1.519   7.495   2.149  0.2660  0.6116 -0.0397
  108MOL0     C14509   1.459   7.394   2.180  0.4232 -0.7575 -0.2886
  108MOL0     C14510   2.233   7.519   2.007  0.2133  0.4773 -0.1241
  108MOL0     C14511   2.368   7.527   1.966 -0.3963  0.5873 -0.9535
  108MOL0     C14512   2.441   7.409   1.922 -0.2355  0.1601 -0.0901
  108MOL0     H14513   2.731   7.981   1.769  0.2297  0.0062 -1.3366
  108MOL0     H14514   2.967   7.989   1.739 -2.3886  1.2496 -0.6925
  108MOL0     H14515   3.222   7.908   2.056  0.1171  2.6999 -0.6442
  108MOL0     H14516   3.253   7.747   1.999 -1.5176  0.3344 -1.2749
  108MOL0     H14517   3.377   8.014   1.884  0.6890 -0.3253  0.0410
  108MOL0     H14518   3.384   7.856   1.797  2.2831  0.5792 -0.0124
  108MOL0     H14519   3.513   7.953   2.050  1.3950 -0.0727 -0.4663
  108MOL0     H14520   3.579   7.912   1.902  0.2206  2.7798  2.1649
  108MOL0     H14521   3.455   7.707   2.077 -0.9128 -0.6238 -0.7213
  108MOL0     H14522   3.515   7.670   1.915 -1.4714  1.2231  0.0471
  108MOL0     H14523   3.716   7.812   2.074 -1.3155  0.4870  2.0678
  108MOL0     H14524   3.679   7.654   2.132 -0.7050 -0.9814 -0.2996
  108MOL0     H14525   3.729   7.550   1.911 -0.8693  0.2885 -3.4488
  108MOL0     H14526   3.749   7.702   1.834  0.6353 -5.5670 -3.0412
  108MOL0     H14527   3.930   7.771   1.990  0.3642 -0.5979  0.4122
  108MOL0     H14528   3.955   7.642   1.863  0.1989 -1.1026  0.6193
  108MOL0     H14529   4.086   7.581   2.060  0.1695  3.7483 -0.1118
  108MOL0     H14530   3.951   7.619   2.162  1.9103 -0.0401  0.2855
  108MOL0     H14531   4.065   7.348   1.889 -0.4103  0.5210 -1.4499
  108MOL0     H14532   3.890   7.028   1.985  1.1539 -0.6275 -0.8363
  108MOL0     H14533   3.991   7.099   1.857  1.0399  0.1008  0.4763
  108MOL0     H14534   4.056   7.010   2.144 -0.1553 -0.3260  0.5683
  108MOL0     H14535   4.126   6.957   1.989  1.3049 -2.3130  3.8228
  108MOL0     H14536   4.175   7.231   2.130  0.0129 -2.4779  3.5543
  108MOL0     H14537   4.241   7.182   1.965  2.5810 -2.3950  0.2388
  108MOL0     H14538   4.338   6.979   2.076  0.1583  0.0473 -0.1960
  108MOL0     H14539   4.284   7.055   2.232  1.3260  3.5896  0.1655
  108MOL0     H14540   4.657   7.271   2.171 -1.3525 -0.1642  0.3614
  108MOL0     H14541   4.875   7.178   2.201 -2.2676  2.2308  1.5110
  108MOL0     H14542   5.207   6.922   2.012  0.0749 -1.2822 -0.1437
  108MOL0     H14543   5.436   6.834   2.034 -0.1890 -1.0111  0.5525
  108MOL0     H14544   5.464   6.592   2.185  0.8593 -0.5133 -0.3530
  108MOL0     H14545   5.592   6.669   2.089 -0.5515  0.2864 -0.8639
  108MOL0     H14546   5.716   6.605   2.321  1.6064  0.8530 -1.3552
  108MOL0     H14547   5.592   6.484   2.331 -0.3908  3.2003  1.8228
  108MOL0     H14548   5.672   6.378   2.128 -2.3673  2.0287 -2.7694
  108MOL0     H14549   5.765   6.516   2.082 -1.2714 -4.5707 -3.2456
  108MOL0     H14550   5.811   6.326   2.319 -1.0073  0.5960  0.0890
  108MOL0     H14551   5.903   6.474   2.287  1.7023 -0.6111 -2.1711
  108MOL0     H14552   5.979   6.391   2.077  0.4526  0.7749  1.7780
  108MOL0     H14553   5.869   6.247   2.093 -4.0501  1.4774  2.1072
  108MOL0     H14554   6.134   6.301   2.244  0.3670 -0.4094  0.5634
  108MOL0     H14555   6.027   6.175   2.290 -0.1309  0.0055  0.7052
  108MOL0     H14556   6.159   6.190   2.022 -1.5349 -0.4856 -1.6111
  108MOL0     H14557   6.018   6.094   2.046  0.3314 -0.7608 -0.2665
  108MOL0     H14558   6.128   5.966   2.225 -0.2614  0.8452 -0.0611
  108MOL0     H14559   6.186   5.960   2.066  2.4169  1.8813 -0.7643
  108MOL0     H14560   5.394   6.847   2.460  0.5023  1.7652  0.0640
  108MOL0     H14561   5.178   6.981   2.437 -0.2210  1.2641 -0.4937
  108MOL0     H14562   4.711   6.776   2.175  4.1325 -0.0596 -0.8343
  108MOL0     H14563   4.486   6.885   2.164  0.9510 -1.6131 -1.3329
  108MOL0     H14564   3.031   7.711   2.066 -2.9053 -1.1757  2.7075
  108MOL0     H14565   2.782   7.692   2.095 -2.4569  0.5820 -1.3466
  108MOL0     H14566   2.374   7.871   1.974  0.8695  0.1868  0.7184
  108MOL0     H14567   2.147   7.847   2.051 -0.5451  0.5049 -1.8191
  108MOL0     H14568   2.002   7.427   2.140 -0.8795  0.8581  1.9789
  108MOL0     H14569   1.938   7.482   1.984  1.1617  1.9995 -1.0381
  108MOL0     H14570   1.845   7.570   2.265 -0.2927 -0.2764  0.1797
  108MOL0     H14571   1.771   7.435   2.174 -1.4077  0.9366 -0.0988
  108MOL0     H14572   1.736   7.559   1.975 -0.3916  2.0650 -1.7257
  108MOL0     H14573   1.778   7.710   2.044  3.7708 -1.6141  0.3743
  108MOL0     H14574   1.575   7.696   2.208  0.2639  0.0018 -0.2044
  108MOL0     H14575   1.528   7.677   2.044 -1.6775  0.2649  0.5139
  108MOL0     H14576   1.397   7.311   2.208  0.3269  0.0254  2.0849
  108MOL0     H14577   2.192   7.419   1.997  0.5896  0.5046 -2.3981
  108MOL0     H14578   2.459   7.410   1.814 -0.3944  0.8776 -0.1137
  108MOL0     H14579   2.536   7.401   1.975  0.3590  0.9943 -0.9788
  108MOL0     H14580   2.388   7.314   1.935 -0.5942  0.0383 -2.0353
  109MOL0     O14581   0.984   9.930  11.157 -0.0191 -0.8571  0.1936
  109MOL0     C14582   1.018   9.911  11.274 -0.5523 -0.3386  0.3538
  109MOL0     O14583   1.144   9.885  11.311 -0.3701  0.3322  0.1814
  109MOL0     C14584   1.242   9.902  11.225  0.4039 -0.4457  1.0656
  109MOL0     C14585   1.332  10.017  11.246  0.3496  0.4400 -0.3901
  109MOL0     C14586   1.436  10.036  11.161 -0.8772  0.2138 -0.6513
  109MOL0     C14587   1.462   9.943  11.056  1.3273 -0.4382 -0.3430
  109MOL0     O14588   1.572   9.979  10.987 -0.7113 -0.3950 -0.1129
  109MOL0     C14589   1.597   9.916  10.861 -0.1431  0.2542  0.4058
  109MOL0     C14590   1.682  10.013  10.780 -0.9600 -0.0792 -0.1616
  109MOL0     C14591   1.833  10.012  10.835  0.0216 -0.4551  0.0630
  109MOL0     C14592   1.924  10.075  10.735 -0.1245 -0.2634  0.0080
  109MOL0     C14593   1.893  10.225  10.716  0.5670  0.1844  0.2644
  109MOL0     C14594   2.017  10.292  10.650 -0.4848  0.1416 -0.9023
  109MOL0     C14595   1.992  10.438  10.617 -0.3907 -0.6295  0.6342
  109MOL0     C14596   1.966  10.525  10.732 -1.0578 -0.0334  0.0366
  109MOL0     N14597   1.985  10.670  10.703 -0.2174 -0.8846  1.0449
  109MOL0     C14598   2.096  10.728  10.646  0.6419 -0.0597  0.5863
  109MOL0     C14599   2.072  10.864  10.646  0.0157  1.3059  0.7503
  109MOL0     C14600   2.172  10.961  10.596 -0.0803  0.2713  0.2580
  109MOL0     C14601   2.232  11.054  10.698  1.0955  0.6542 -0.0522
  109MOL0     C14602   2.316  10.999  10.814  0.0944  1.0734  0.0392
  109MOL0     C14603   2.430  10.902  10.773 -0.2130  0.4836 -0.1101
  109MOL0     O14604   2.515  10.974  10.683  0.2523  0.8088  0.3522
  109MOL0     C14605   2.642  10.935  10.667 -1.0030 -0.0055 -0.5851
  109MOL0     C14606   2.728  11.022  10.597  0.0197  0.4858  0.5487
  109MOL0     C14607   2.865  10.986  10.573 -0.0359  0.1011  0.5872
  109MOL0     C14608   2.916  10.864  10.614  0.6448 -0.4145  0.0119
  109MOL0     C14609   3.054  10.818  10.589 -0.5211  0.4570 -0.2608
  109MOL0     O14610   3.083  10.689  10.619  0.0490 -0.5378  0.0429
  109MOL0     C14611   3.197  10.633  10.577  0.4161 -1.1416  0.3666
  109MOL0     C14612   3.242  10.622  10.444  0.0006 -0.6303 -0.0909
  109MOL0     C14613   3.372  10.566  10.420  0.2276  0.6727 -0.1516
  109MOL0     C14614   3.449  10.512  10.524 -0.2188 -0.6090 -0.5638
  109MOL0     O14615   3.569  10.436  10.495  0.6332 -0.4082 -0.2721
  109MOL0     C14616   3.597  10.381  10.367 -0.5977 -0.2267 -0.7754
  109MOL0     C14617   3.699  10.272  10.386  0.2643 -0.1460  0.2541
  109MOL0     C14618   3.839  10.317  10.380 -0.0857 -0.8304 -0.3844
  109MOL0     C14619   3.887  10.438  10.455 -0.4485  0.1935  1.0456
  109MOL0     C14620   4.041  10.454  10.433 -0.8282  0.3719 -0.5762
  109MOL0     C14621   4.072  10.514  10.292 -0.1433 -0.6024 -0.4678
  109MOL0     C14622   4.203  10.589  10.275 -0.8151 -0.5303 -0.0101
  109MOL0     C14623   4.271  10.570  10.146 -0.5076 -0.3713  0.5233
  109MOL0    Cl14624   4.405  10.686  10.135 -0.1635 -0.0252  0.1334
  109MOL0     C14625   3.393  10.519  10.652 -0.4296  0.4272 -0.6388
  109MOL0     C14626   3.272  10.587  10.685 -0.0051 -0.5717 -0.5250
  109MOL0     O14627   3.137  10.897  10.541  0.1697  0.0186 -0.4382
  109MOL0     C14628   2.827  10.773  10.664  0.6641 -0.4925 -0.4170
  109MOL0     C14629   2.696  10.808  10.704  0.4913  0.7530  0.2416
  109MOL0     N14630   1.953  10.882  10.704  0.0196  0.1278  0.8284
  109MOL0     N14631   1.895  10.771  10.737  0.2329 -1.2107  0.4702
  109MOL0     C14632   1.380   9.830  11.037 -0.7167  0.1247  0.0348
  109MOL0     C14633   1.274   9.804  11.127 -0.4655 -0.0065  1.3502
  109MOL0     C14634   0.920   9.890  11.390  0.5048  0.0637 -1.3289
  109MOL0     C14635   0.969   9.839  11.510 -0.3961  0.3356 -0.4927
  109MOL0     C14636   0.886   9.810  11.618 -0.2263 -0.2529  0.6073
  109MOL0     C14637   0.749   9.830  11.606  0.0261  0.2453 -0.8005
  109MOL0     O14638   0.659   9.780  11.695 -0.0729  0.5818 -0.3579
  109MOL0     C14639   0.722   9.752  11.824  0.4561  0.6384 -0.8531
  109MOL0     C14640   0.776   9.878  11.895  0.2319  0.3631  0.2036
  109MOL0     C14641   0.668   9.978  11.924  0.1346  0.0657  0.0855
  109MOL0     C14642   0.730  10.094  12.006  0.0103 -0.2846  0.1112
  109MOL0     C14643   0.620  10.173  12.065  0.0140  0.7779  0.5244
  109MOL0     C14644   0.532  10.223  12.124 -0.0692  0.1384  0.7664
  109MOL0     C14645   0.695   9.879  11.492 -0.2427 -0.1547 -0.2017
  109MOL0     C14646   0.780   9.918  11.387  0.3467 -0.8564  0.2937
  109MOL0     C14647   0.711   9.996  11.269  0.2661 -0.5876  0.1349
  109MOL0     H14648   1.311  10.090  11.324 -1.3904  1.2846 -1.6002
  109MOL0     H14649   1.518  10.105  11.178  1.0475 -1.6550 -1.7809
  109MOL0     H14650   1.640   9.816  10.872  1.6235  1.0851  1.5000
  109MOL0     H14651   1.498   9.904  10.815  0.9679 -2.1325 -1.5264
  109MOL0     H14652   1.643  10.115  10.791 -2.4697 -0.7204  0.7649
  109MOL0     H14653   1.679   9.980  10.675 -0.7535 -2.3538  0.4945
  109MOL0     H14654   1.862   9.908  10.852 -1.8297 -0.9735  0.2022
  109MOL0     H14655   1.841  10.070  10.927 -0.9236 -2.9815  1.8285
  109MOL0     H14656   2.023  10.066  10.780  0.9111 -1.8095 -2.3777
  109MOL0     H14657   1.920  10.017  10.642  1.2252 -0.9148  0.3363
  109MOL0     H14658   1.798  10.232  10.661  0.6932 -0.9763 -0.1125
  109MOL0     H14659   1.871  10.282  10.808  1.8106  1.5987 -0.2746
  109MOL0     H14660   2.108  10.274  10.709 -1.9285  0.5097  1.5965
  109MOL0     H14661   2.030  10.242  10.554  0.7999  1.0819 -1.2487
  109MOL0     H14662   1.908  10.444  10.548  0.6760 -1.4489 -0.8051
  109MOL0     H14663   2.083  10.472  10.566  0.5017 -1.1821  1.7879
  109MOL0     H14664   1.862  10.505  10.758 -1.3721  1.5005  0.0663
  109MOL0     H14665   2.027  10.501  10.820  0.6719 -2.7715 -1.7767
  109MOL0     H14666   2.191  10.679  10.628  1.1532  1.0788  0.0127
  109MOL0     H14667   2.257  10.906  10.554 -0.1678 -1.7454  2.5271
  109MOL0     H14668   2.126  11.026  10.521  0.4113  0.3789  0.0409
  109MOL0     H14669   2.296  11.130  10.653  2.3567  0.7286  1.7334
  109MOL0     H14670   2.155  11.113  10.748  0.5335 -2.0686  2.5860
  109MOL0     H14671   2.246  10.958  10.888  1.0640  0.3415  0.5761
  109MOL0     H14672   2.369  11.080  10.866  0.4761  1.7401 -1.3348
  109MOL0     H14673   2.391  10.816  10.718 -2.4583  1.1390  0.3506
  109MOL0     H14674   2.481  10.873  10.865  0.7181  1.5338 -0.2759
  109MOL0     H14675   2.702  11.119  10.556  0.1738 -0.7182 -2.7452
  109MOL0     H14676   2.946  11.046  10.533  1.0347 -1.5117  0.2375
  109MOL0     H14677   3.185  10.661  10.360 -0.1715  1.9946  1.1679
  109MOL0     H14678   3.412  10.561  10.319 -0.1432  0.4288 -0.2883
  109MOL0     H14679   3.504  10.330  10.340 -1.9001  0.5586  1.8664
  109MOL0     H14680   3.634  10.458  10.299 -1.2049  1.5317  0.7992
  109MOL0     H14681   3.674  10.220  10.479  3.0703 -1.4286  0.3771
  109MOL0     H14682   3.692  10.193  10.312 -0.2808  0.7274 -0.6444
  109MOL0     H14683   3.906  10.235  10.407  0.1463  0.1607  2.3792
  109MOL0     H14684   3.866  10.318  10.274 -2.0595 -1.6552 -0.9305
  109MOL0     H14685   3.888  10.422  10.563  3.0093  0.1664  1.1217
  109MOL0     H14686   3.821  10.525  10.444 -1.7775 -0.7583  1.2412
  109MOL0     H14687   4.087  10.355  10.431  0.8578  1.0471  1.3292
  109MOL0     H14688   4.084  10.520  10.510  1.8695 -0.9994 -0.7918
  109MOL0     H14689   4.069  10.437  10.215  3.6817  0.7943 -2.2618
  109MOL0     H14690   3.989  10.584  10.279 -0.0358 -0.0483  1.5720
  109MOL0     H14691   4.276  10.580  10.356  0.8799 -0.4376 -1.4551
  109MOL0     H14692   4.181  10.695  10.259  0.1556 -0.6274 -2.4063
  109MOL0     H14693   4.308  10.468  10.139 -1.8724 -0.9463  1.3673
  109MOL0     H14694   4.204  10.603  10.066  0.0208 -2.1275 -0.6870
  109MOL0     H14695   3.454  10.468  10.726  0.1229 -0.4310 -1.6580
  109MOL0     H14696   3.226  10.593  10.783 -0.4477 -1.0159 -0.7015
  109MOL0     H14697   2.859  10.673  10.693 -0.2803 -0.8130 -0.4243
  109MOL0     H14698   2.636  10.732  10.751 -0.1648  1.8119  1.1819
  109MOL0     H14699   1.408   9.772  10.949  1.1079 -1.0806  1.3220
  109MOL0     H14700   1.216   9.713  11.110  0.6947 -1.5056  4.5959
  109MOL0     H14701   1.074   9.816  11.526 -0.5409 -0.2971 -0.3942
  109MOL0     H14702   0.947   9.773  11.701  0.8582 -1.6206 -0.7492
  109MOL0     H14703   0.806   9.684  11.812  1.6479  1.9954 -0.5215
  109MOL0     H14704   0.649   9.699  11.886 -0.2526  0.2916 -1.9489
  109MOL0     H14705   0.847   9.934  11.833 -0.2855  1.8145  0.8906
  109MOL0     H14706   0.836   9.848  11.981  3.2926  3.6473 -0.5388
  109MOL0     H14707   0.594   9.926  11.987 -2.3340  4.1262  0.9120
  109MOL0     H14708   0.629  10.017  11.830  0.9441 -1.4692 -0.9211
  109MOL0     H14709   0.799  10.050  12.079  0.3611 -3.1054 -1.7729
  109MOL0     H14710   0.789  10.157  11.938 -1.3169  2.4952  1.3598
  109MOL0     H14711   0.449  10.269  12.174 -0.6512  2.1780 -1.8733
  109MOL0     H14712   0.587   9.886  11.495 -0.1763  2.5123 -1.4036
  109MOL0     H14713   0.777  10.082  11.257 -0.1313  0.1558  2.5558
  109MOL0     H14714   0.691   9.937  11.179 -0.6845 -0.0585 -0.0152
  109MOL0     H14715   0.612  10.034  11.298 -1.3856 -3.0163 -1.9151
  110MOL0     O14716   4.870   0.718   2.534 -0.4095  0.4942 -0.6050
  110MOL0     C14717   4.801   0.614   2.530  0.9324 -0.7839  0.3262
  110MOL0     O14718   4.848   0.492   2.528 -0.2113 -0.0811  0.2059
  110MOL0     C14719   4.977   0.462   2.575 -0.5498 -0.2646  1.4839
  110MOL0     C14720   5.070   0.429   2.477 -0.0482 -0.5292 -0.0819
  110MOL0     C14721   5.201   0.415   2.517  0.4090  0.5267 -0.3856
  110MOL0     C14722   5.243   0.432   2.644  0.4081  0.4813 -0.5330
  110MOL0     O14723   5.380   0.418   2.669 -0.0009  0.3242 -0.0820
  110MOL0     C14724   5.419   0.408   2.807 -0.8456 -0.5055 -0.0685
  110MOL0     C14725   5.562   0.341   2.818  0.0834  0.0114 -0.4578
  110MOL0     C14726   5.682   0.402   2.741  0.4021 -0.1331 -0.3121
  110MOL0     C14727   5.800   0.311   2.730  1.0055 -0.6528 -0.2236
  110MOL0     C14728   5.918   0.386   2.668 -0.1365  0.7820  0.0356
  110MOL0     C14729   6.011   0.467   2.765  0.8801 -1.3603  0.9827
  110MOL0     C14730   6.085   0.369   2.858 -1.1208 -0.3898 -0.2814
  110MOL0     C14731   6.170   0.445   2.971  0.2297  0.1571 -0.5461
  110MOL0     N14732   6.314   0.444   2.937  0.3914  0.2959 -0.5200
  110MOL0     C14733   6.397   0.540   2.982 -0.0461  0.5821  0.4900
  110MOL0     C14734   6.519   0.489   2.964 -0.7222 -0.4917 -0.1829
  110MOL0     C14735   6.637   0.552   3.029  0.8682 -0.1123  0.4026
  110MOL0     C14736   6.685   0.473   3.139 -0.1968  0.0902 -0.6195
  110MOL0     C14737   6.798   0.545   3.228  0.7981  0.4365 -0.5243
  110MOL0     C14738   6.861   0.436   3.315 -0.2000 -0.4708 -0.0854
  110MOL0     O14739   6.939   0.486   3.435  0.4276  0.5893  0.9114
  110MOL0     C14740   7.074   0.524   3.412 -0.8751  0.3572  0.2976
  110MOL0     C14741   7.147   0.563   3.519 -0.4341  0.5819 -0.5891
  110MOL0     C14742   7.287   0.582   3.509 -0.1407 -0.7452  0.1990
  110MOL0     C14743   7.349   0.591   3.382  0.2816 -0.1182  0.4675
  110MOL0     C14744   7.488   0.617   3.356 -0.5194  0.0601 -0.7320
  110MOL0     O14745   7.570   0.594   3.467 -0.1450  0.6824 -0.6656
  110MOL0     C14746   7.703   0.575   3.455  0.0903 -0.7194 -0.1977
  110MOL0     C14747   7.771   0.532   3.332 -0.4106 -0.6840 -0.1329
  110MOL0     C14748   7.906   0.510   3.333  0.2690  0.5113  0.5838
  110MOL0     C14749   7.976   0.528   3.445  0.0625 -0.5802 -0.6474
  110MOL0     O14750   8.111   0.498   3.445 -0.2150  0.0587 -0.2519
  110MOL0     C14751   8.200   0.607   3.403  0.5941  0.5539 -0.1957
  110MOL0     C14752   8.341   0.570   3.377 -0.1590  0.2128 -0.5131
  110MOL0     C14753   8.353   0.444   3.285 -0.4758  0.3538  0.6945
  110MOL0     C14754   8.484   0.364   3.303  0.5712  0.0861  0.3183
  110MOL0     C14755   8.478   0.244   3.204  0.7087  0.6100 -0.0398
  110MOL0     C14756   8.579   0.134   3.236 -0.6201  0.1506  0.7307
  110MOL0     C14757   8.556   0.035   3.112 -0.9280 -0.5383 -0.4585
  110MOL0     C14758   8.639  -0.095   3.140  0.6164 -0.1301  0.4948
  110MOL0    Cl14759   8.819  -0.069   3.151 -0.4517  0.0511 -0.1034
  110MOL0     C14760   7.915   0.555   3.571 -0.5275  0.7560  0.7901
  110MOL0     C14761   7.779   0.582   3.577  0.5989 -0.8210 -0.1243
  110MOL0     O14762   7.526   0.647   3.249  0.4522 -0.2118 -0.2724
  110MOL0     C14763   7.265   0.568   3.270 -0.9450  0.6735 -0.5875
  110MOL0     C14764   7.136   0.523   3.284  0.5650 -0.0036 -0.3952
  110MOL0     N14765   6.508   0.359   2.918  0.5783  0.1065  0.6049
  110MOL0     N14766   6.382   0.330   2.900 -0.2822 -0.2166 -1.1507
  110MOL0     C14767   5.151   0.475   2.738  0.7387  0.6282 -0.4702
  110MOL0     C14768   5.013   0.478   2.709  0.2388 -0.3964 -0.0535
  110MOL0     C14769   4.646   0.630   2.543  0.7311  0.1867 -0.3447
  110MOL0     C14770   4.590   0.752   2.560 -0.3876 -0.1355 -0.0245
  110MOL0     C14771   4.449   0.768   2.572 -0.4781 -0.1965  0.0475
  110MOL0     C14772   4.360   0.668   2.552  0.2766  0.7359 -0.1712
  110MOL0     O14773   4.220   0.702   2.547 -0.0009  0.2677 -0.1473
  110MOL0     C14774   4.149   0.635   2.442  0.0322 -0.2860 -0.2647
  110MOL0     C14775   4.011   0.608   2.505  0.3655 -0.2242 -0.3452
  110MOL0     C14776   4.014   0.508   2.627 -0.5623  0.7398  1.0886
  110MOL0     C14777   3.875   0.497   2.690 -0.8763  0.1809 -1.2512
  110MOL0     C14778   3.778   0.436   2.598  0.6373 -0.0202  0.1025
  110MOL0     C14779   3.686   0.398   2.527  0.6092 -0.4108 -0.3781
  110MOL0     C14780   4.418   0.543   2.539 -0.6152  1.0859 -0.1287
  110MOL0     C14781   4.558   0.518   2.530  0.7749 -0.7596 -0.2050
  110MOL0     C14782   4.594   0.368   2.516 -0.2700 -0.1481 -0.0687
  110MOL0     H14783   5.045   0.427   2.371  1.9618 -2.3170 -0.5910
  110MOL0     H14784   5.272   0.397   2.437 -0.0147 -0.2163 -0.6097
  110MOL0     H14785   5.424   0.509   2.849  0.1494 -0.6577  0.1891
  110MOL0     H14786   5.350   0.351   2.870  0.0958 -1.1874  0.3564
  110MOL0     H14787   5.553   0.238   2.780  0.0202  0.2051 -0.9852
  110MOL0     H14788   5.584   0.335   2.925  0.2918 -0.5427 -0.5259
  110MOL0     H14789   5.709   0.492   2.797  1.6652 -2.3510  2.9331
  110MOL0     H14790   5.649   0.427   2.639 -0.6831  1.7217  0.4364
  110MOL0     H14791   5.827   0.271   2.828 -0.7980  0.8267  0.9424
  110MOL0     H14792   5.782   0.218   2.676  2.3999 -0.0852 -1.7484
  110MOL0     H14793   5.985   0.305   2.638  1.0548  1.2168  1.4305
  110MOL0     H14794   5.879   0.433   2.577  3.2177  1.1981 -1.3368
  110MOL0     H14795   6.085   0.514   2.700 -0.0135 -1.8352 -0.4123
  110MOL0     H14796   5.970   0.553   2.819  3.7593  0.2021  0.8471
  110MOL0     H14797   6.140   0.289   2.807 -1.1495 -0.5868 -0.0084
  110MOL0     H14798   6.008   0.315   2.915 -0.0012  0.3785  2.0612
  110MOL0     H14799   6.127   0.545   2.977  0.2300  0.1704 -0.7426
  110MOL0     H14800   6.167   0.395   3.068  1.6122  1.2293  0.0725
  110MOL0     H14801   6.369   0.638   3.019  0.9573  1.1101 -0.1051
  110MOL0     H14802   6.720   0.565   2.959  0.0093 -1.1035 -0.8407
  110MOL0     H14803   6.598   0.644   3.073  1.3931 -1.2571  3.5144
  110MOL0     H14804   6.605   0.451   3.210  1.1484  0.2826  1.0400
  110MOL0     H14805   6.712   0.374   3.102  2.0072  0.1051  0.7186
  110MOL0     H14806   6.758   0.625   3.291  1.3778 -0.5931  1.2233
  110MOL0     H14807   6.877   0.586   3.164  2.7352 -2.0157  0.1006
  110MOL0     H14808   6.924   0.362   3.265 -0.5570 -1.6723  1.1543
  110MOL0     H14809   6.780   0.370   3.349  0.2923  0.2455  2.7533
  110MOL0     H14810   7.119   0.574   3.623  3.9260  1.2918  0.7438
  110MOL0     H14811   7.338   0.598   3.603  0.9292  0.1400 -0.5079
  110MOL0     H14812   7.725   0.536   3.234  0.8825  4.2511 -0.8371
  110MOL0     H14813   7.961   0.468   3.250  0.9085  0.8937  0.8042
  110MOL0     H14814   8.151   0.646   3.313 -0.3722 -2.8369 -1.3077
  110MOL0     H14815   8.206   0.691   3.472  3.8905 -1.2093  1.9296
  110MOL0     H14816   8.386   0.654   3.323  1.1040 -0.0642  0.0783
  110MOL0     H14817   8.400   0.543   3.465 -0.4835 -3.3866 -1.2600
  110MOL0     H14818   8.268   0.379   3.304  0.0493 -1.0529 -1.3956
  110MOL0     H14819   8.343   0.467   3.179  0.6001 -0.7497  0.3239
  110MOL0     H14820   8.493   0.336   3.409 -1.3642  2.1503  1.1053
  110MOL0     H14821   8.569   0.432   3.289  0.6834 -0.2345 -0.6106
  110MOL0     H14822   8.506   0.290   3.109  1.3259 -2.2128 -1.3243
  110MOL0     H14823   8.383   0.193   3.189  2.5758 -2.8767 -0.8808
  110MOL0     H14824   8.678   0.178   3.224 -0.8512  0.4061 -0.3452
  110MOL0     H14825   8.564   0.093   3.336  1.0626  0.2947  1.0589
  110MOL0     H14826   8.595   0.086   3.024  0.3395  2.6625  1.7747
  110MOL0     H14827   8.451   0.018   3.086 -0.9363  0.6151 -1.2524
  110MOL0     H14828   8.599  -0.157   3.221 -1.9952  0.1636 -0.4469
  110MOL0     H14829   8.632  -0.153   3.048  0.1629  2.7576 -1.4079
  110MOL0     H14830   7.975   0.577   3.659  1.6593  2.1787 -0.9448
  110MOL0     H14831   7.742   0.601   3.677 -0.6866  1.1238 -0.9256
  110MOL0     H14832   7.316   0.571   3.175  3.4339 -0.8123  1.4479
  110MOL0     H14833   7.079   0.490   3.199 -0.2635  2.1054 -0.7250
  110MOL0     H14834   5.176   0.490   2.843  0.8739  3.5572 -0.8235
  110MOL0     H14835   4.938   0.519   2.776  0.2589  0.9430 -0.8060
  110MOL0     H14836   4.651   0.840   2.579  3.1752 -2.3749 -0.3100
  110MOL0     H14837   4.408   0.868   2.575 -0.2650  0.0054 -2.1900
  110MOL0     H14838   4.194   0.543   2.405  2.2441  0.5202  0.2723
  110MOL0     H14839   4.129   0.700   2.356  2.1617  0.5596 -0.1760
  110MOL0     H14840   3.960   0.564   2.419  0.6844  1.5893 -1.4917
  110MOL0     H14841   3.958   0.699   2.534  0.2801 -0.2988 -0.2650
  110MOL0     H14842   4.090   0.550   2.693  0.4335  0.1557  0.3498
  110MOL0     H14843   4.047   0.408   2.598  2.5058  1.7858  0.5808
  110MOL0     H14844   3.890   0.438   2.781 -0.7806 -0.5624 -1.7391
  110MOL0     H14845   3.840   0.594   2.728 -0.5876 -0.3685  0.4876
  110MOL0     H14846   3.597   0.361   2.481 -0.7821  1.7923  0.3960
  110MOL0     H14847   4.348   0.459   2.535  2.6606 -1.8577 -0.8349
  110MOL0     H14848   4.502   0.308   2.517  0.5045 -1.5231  3.1231
  110MOL0     H14849   4.663   0.343   2.435 -1.6540 -2.1452 -0.7121
  110MOL0     H14850   4.642   0.342   2.611 -1.7541 -0.5567  0.6033
  111MOL0     O14851   5.493   0.945  11.147  0.2059 -0.4359  0.4830
  111MOL0     C14852   5.499   0.849  11.226  1.0867 -0.2002 -0.1455
  111MOL0     O14853   5.594   0.753  11.234  0.2944  0.4860  0.0365
  111MOL0     C14854   5.710   0.789  11.170 -0.7167  0.5024  0.3677
  111MOL0     C14855   5.815   0.869  11.229 -0.2135  0.1280  0.6406
  111MOL0     C14856   5.922   0.917  11.153 -1.2242 -0.6912 -0.0853
  111MOL0     C14857   5.932   0.879  11.013  0.0804  1.4734 -0.5725
  111MOL0     O14858   6.035   0.924  10.932 -0.4739  0.0599  0.0390
  111MOL0     C14859   6.053   1.068  10.935  0.0945 -0.8289  0.3310
  111MOL0     C14860   6.162   1.102  10.832 -0.5084  0.2113 -0.4920
  111MOL0     C14861   6.296   1.044  10.883  0.2692  1.0072  0.8231
  111MOL0     C14862   6.399   1.151  10.917  0.4122 -0.2105  0.5161
  111MOL0     C14863   6.525   1.068  10.979  0.1840 -0.3420  0.4175
  111MOL0     C14864   6.626   1.156  11.051 -0.8039 -0.1460 -0.0171
  111MOL0     C14865   6.693   1.256  10.951 -1.2443 -0.3158 -0.0966
  111MOL0     C14866   6.816   1.332  11.013  0.0765 -0.5456 -0.5618
  111MOL0     N14867   6.829   1.463  10.946 -0.1576  0.5235 -0.6624
  111MOL0     C14868   6.877   1.485  10.821 -0.2165  0.8815  0.1039
  111MOL0     C14869   6.871   1.624  10.801  0.3825  0.0829  0.1563
  111MOL0     C14870   6.901   1.709  10.681 -0.0194  0.5388 -0.0480
  111MOL0     C14871   7.044   1.763  10.675  0.0777 -0.8703  0.5020
  111MOL0     C14872   7.156   1.664  10.680 -0.1492 -0.4735  0.4995
  111MOL0     C14873   7.299   1.732  10.686  0.8121 -0.7917 -0.2806
  111MOL0     O14874   7.385   1.639  10.746 -0.0228  0.8454  0.4116
  111MOL0     C14875   7.509   1.688  10.775  0.0816  0.2035 -0.0928
  111MOL0     C14876   7.590   1.621  10.869 -0.3665  0.3437 -0.1756
  111MOL0     C14877   7.720   1.661  10.882  0.2398  0.0824 -0.1753
  111MOL0     C14878   7.776   1.775  10.810 -1.3980  0.2569 -0.3422
  111MOL0     C14879   7.914   1.821  10.841 -0.2919 -0.6993  0.1468
  111MOL0     O14880   7.976   1.757  10.945  0.0391  0.1960  0.4053
  111MOL0     C14881   8.094   1.814  10.986  0.3074  0.6643 -0.0298
  111MOL0     C14882   8.200   1.730  10.954 -0.5013 -0.5036 -0.9602
  111MOL0     C14883   8.332   1.767  10.994  0.1051  1.1186  0.0159
  111MOL0     C14884   8.362   1.884  11.071  0.3223 -0.6825  0.1517
  111MOL0     O14885   8.491   1.922  11.092  0.1033 -0.4876  0.0471
  111MOL0     C14886   8.518   2.020  11.195  0.5951  0.1827  0.2464
  111MOL0     C14887   8.667   2.018  11.211  0.0570 -0.1122 -0.7994
  111MOL0     C14888   8.702   2.131  11.323 -0.1128  0.9416  0.1817
  111MOL0     C14889   8.847   2.163  11.326 -0.0676 -0.4345 -0.6232
  111MOL0     C14890   8.879   2.279  11.434  0.2391  0.0796 -0.7016
  111MOL0     C14891   9.024   2.277  11.474 -0.8458 -0.1118  0.3840
  111MOL0     C14892   9.120   2.334  11.368  0.1807 -0.0538  0.3624
  111MOL0     C14893   9.219   2.443  11.426  0.6780 -0.0546 -0.5185
  111MOL0    Cl14894   9.111   2.592  11.461  0.0910  0.3029  0.1030
  111MOL0     C14895   8.247   1.966  11.097  0.6185 -0.3122  0.0241
  111MOL0     C14896   8.116   1.939  11.047  0.1652 -0.3170 -0.4433
  111MOL0     O14897   7.958   1.919  10.781  0.6913 -0.4236 -0.5407
  111MOL0     C14898   7.688   1.843  10.728 -0.5121  0.2369  0.2751
  111MOL0     C14899   7.560   1.803  10.706 -0.1559 -0.2389 -0.1914
  111MOL0     N14900   6.829   1.677  10.920  0.2340  0.6686  0.6995
  111MOL0     N14901   6.806   1.581  11.002  0.2893 -0.4648 -0.2270
  111MOL0     C14902   5.836   0.782  10.957 -0.5129  0.8963  0.3451
  111MOL0     C14903   5.735   0.737  11.044  0.2921  0.0719  0.6915
  111MOL0     C14904   5.378   0.821  11.306  0.0932 -0.2150 -0.3507
  111MOL0     C14905   5.337   0.685  11.321  1.0809 -0.8929  0.2762
  111MOL0     C14906   5.214   0.657  11.390 -0.2859 -0.6878 -0.3023
  111MOL0     C14907   5.131   0.760  11.435  0.2369  0.1174  1.2199
  111MOL0     O14908   5.013   0.743  11.497 -0.3124  0.5036  0.5203
  111MOL0     C14909   4.933   0.622  11.491  0.6147 -0.3960 -0.6113
  111MOL0     C14910   4.846   0.619  11.368  0.1677  0.2662  1.1869
  111MOL0     C14911   4.747   0.737  11.363 -0.2267  0.6329 -0.2210
  111MOL0     C14912   4.645   0.734  11.248 -0.7399  0.8610 -0.0545
  111MOL0     C14913   4.557   0.625  11.285  0.4757  0.2626  0.1363
  111MOL0     C14914   4.484   0.542  11.336  0.6718 -0.3640 -0.1272
  111MOL0     C14915   5.179   0.890  11.413  0.1571  0.3827 -0.0258
  111MOL0     C14916   5.298   0.924  11.357 -0.5038 -0.0794 -0.5541
  111MOL0     C14917   5.332   1.067  11.361  1.5924  0.0187 -0.6048
  111MOL0     H14918   5.806   0.896  11.334  0.8352  1.0990  0.5118
  111MOL0     H14919   5.993   0.985  11.198 -1.3395  0.1952 -1.1789
  111MOL0     H14920   5.964   1.126  10.908 -0.2409 -0.7924  1.4675
  111MOL0     H14921   6.091   1.102  11.032 -1.9947  0.7983  0.6395
  111MOL0     H14922   6.174   1.209  10.817 -2.2499  0.1414 -3.0799
  111MOL0     H14923   6.132   1.053  10.739  1.2556 -0.4218 -0.7643
  111MOL0     H14924   6.337   0.981  10.803 -3.3869 -0.9921  0.3065
  111MOL0     H14925   6.282   0.973  10.965 -3.8608 -2.1281 -2.1194
  111MOL0     H14926   6.428   1.206  10.827  0.9452  3.0069  2.5087
  111MOL0     H14927   6.358   1.224  10.987 -2.9514  0.1135 -1.5792
  111MOL0     H14928   6.483   1.011  11.062  2.0614 -1.6520  0.4985
  111MOL0     H14929   6.566   1.010  10.896  1.7597 -1.3178  1.8297
  111MOL0     H14930   6.571   1.203  11.132  1.7335  2.8089  0.1605
  111MOL0     H14931   6.700   1.082  11.083 -0.4361 -0.2063 -0.9693
  111MOL0     H14932   6.620   1.332  10.924 -0.7355  0.4817  0.7274
  111MOL0     H14933   6.719   1.206  10.857 -3.4015  3.1028 -2.7836
  111MOL0     H14934   6.802   1.346  11.120  1.7881  3.0853 -0.6713
  111MOL0     H14935   6.913   1.285  10.998  0.5405 -0.2433  1.2829
  111MOL0     H14936   6.897   1.416  10.739 -2.3917 -1.3569  1.3235
  111MOL0     H14937   6.885   1.644  10.595 -0.8321  0.1049  0.4146
  111MOL0     H14938   6.837   1.798  10.677 -0.3187  0.2618 -2.9294
  111MOL0     H14939   7.059   1.827  10.588  0.1513 -0.6111  0.7021
  111MOL0     H14940   7.046   1.839  10.754  0.0116 -2.5312  2.1970
  111MOL0     H14941   7.157   1.600  10.592  2.8197 -1.6615  1.2615
  111MOL0     H14942   7.141   1.604  10.771 -1.8016 -1.4374 -0.3569
  111MOL0     H14943   7.302   1.829  10.736  2.7908 -0.4143 -1.0292
  111MOL0     H14944   7.321   1.748  10.580  2.0717 -1.7829 -0.1833
  111MOL0     H14945   7.546   1.535  10.921 -0.1929  0.8033  0.7516
  111MOL0     H14946   7.791   1.612  10.948 -0.2411  0.8841  0.9508
  111MOL0     H14947   8.188   1.634  10.906 -1.9968 -0.2863 -1.0698
  111MOL0     H14948   8.417   1.702  10.971 -0.9531 -0.3337  0.0677
  111MOL0     H14949   8.480   2.118  11.167  0.8774  0.2839  0.2196
  111MOL0     H14950   8.473   1.988  11.290 -0.9199 -3.3103 -1.4677
  111MOL0     H14951   8.704   1.924  11.253 -0.3419  0.8902  2.0040
  111MOL0     H14952   8.718   2.037  11.116 -0.4696 -0.2001 -1.1036
  111MOL0     H14953   8.646   2.218  11.289 -1.7655 -0.7922 -1.8115
  111MOL0     H14954   8.658   2.110  11.421 -0.6288  2.1651  0.2289
  111MOL0     H14955   8.885   2.204  11.231  3.2424  0.0084  0.7633
  111MOL0     H14956   8.898   2.067  11.339 -0.8980 -0.9376 -0.9989
  111MOL0     H14957   8.814   2.275  11.522 -1.0351  1.5559 -1.5451
  111MOL0     H14958   8.858   2.369  11.376  1.4071 -0.9896 -2.9340
  111MOL0     H14959   9.035   2.334  11.566 -0.6467  1.4411 -0.5583
  111MOL0     H14960   9.058   2.174  11.493 -0.4271  0.2410  1.6384
  111MOL0     H14961   9.068   2.388  11.288 -1.0652 -0.5198  0.8333
  111MOL0     H14962   9.176   2.248  11.328  0.7042  0.6196 -0.3760
  111MOL0     H14963   9.278   2.401  11.509 -0.0276 -2.2416 -1.0518
  111MOL0     H14964   9.287   2.456  11.342 -1.2819  0.3392 -2.1269
  111MOL0     H14965   8.249   2.060  11.150  1.3204  1.0656 -2.3179
  111MOL0     H14966   8.035   2.010  11.056  0.2819 -0.2903  0.4594
  111MOL0     H14967   7.711   1.929  10.665  0.6985  0.4464  0.9767
  111MOL0     H14968   7.506   1.858  10.629 -2.0334  0.9328  1.8555
  111MOL0     H14969   5.844   0.741  10.857 -2.2975 -0.3036  0.6449
  111MOL0     H14970   5.659   0.671  11.003 -0.9058 -0.8273  4.0968
  111MOL0     H14971   5.394   0.604  11.278  0.5496 -0.2617 -1.7240
  111MOL0     H14972   5.179   0.556  11.411  2.1590 -1.6597 -0.6058
  111MOL0     H14973   4.859   0.621  11.572 -0.4596  0.3512 -1.5532
  111MOL0     H14974   4.997   0.533  11.497 -3.3909 -3.4561  3.2366
  111MOL0     H14975   4.797   0.523  11.352 -1.0347  1.3335 -2.6707
  111MOL0     H14976   4.916   0.630  11.285 -2.4617  1.5949 -1.0312
  111MOL0     H14977   4.814   0.823  11.348  2.8196 -1.4373  0.5513
  111MOL0     H14978   4.704   0.761  11.460  2.9177  1.2092  1.1767
  111MOL0     H14979   4.576   0.819  11.251 -1.6778  0.0927  0.7788
  111MOL0     H14980   4.689   0.721  11.149 -1.0514 -0.8307  0.0081
  111MOL0     H14981   4.390   0.497  11.359  0.4446  0.2163  0.0953
  111MOL0     H14982   5.107   0.966  11.440 -2.8562 -1.1966 -3.0262
  111MOL0     H14983   5.332   1.096  11.467  2.1472  0.0372 -0.6081
  111MOL0     H14984   5.437   1.079  11.336  1.2722  1.8510 -1.2006
  111MOL0     H14985   5.260   1.125  11.304  0.7820 -1.7202 -1.4339
  112MOL0     O14986   2.549   9.516   1.877  0.5392 -0.2929  0.4350
  112MOL0     C14987   2.529   9.388   1.869 -0.1046  0.0655  0.5253
  112MOL0     O14988   2.620   9.289   1.866  0.3012  0.2461 -0.2577
  112MOL0     C14989   2.756   9.319   1.858 -0.5059  0.4224 -0.2838
  112MOL0     C14990   2.826   9.434   1.900  0.3843 -0.6461  0.2679
  112MOL0     C14991   2.966   9.455   1.883  0.0934  0.2191  0.2520
  112MOL0     C14992   3.036   9.357   1.812 -0.1277  0.5341  0.0073
  112MOL0     O14993   3.169   9.358   1.794 -0.3251 -0.1916 -0.0163
  112MOL0     C14994   3.229   9.494   1.772  0.5854 -0.3408  0.5483
  112MOL0     C14995   3.379   9.484   1.783 -0.3257 -0.1206 -0.3872
  112MOL0     C14996   3.427   9.469   1.932 -0.0947 -0.2158 -0.0954
  112MOL0     C14997   3.576   9.463   1.928 -0.3501  0.2768  0.1109
  112MOL0     C14998   3.626   9.477   2.076  0.2049 -0.9152  0.3805
  112MOL0     C14999   3.773   9.464   2.109 -0.0598  0.0504 -0.6185
  112MOL0     C15000   3.828   9.333   2.071 -0.0039 -0.1096  0.1005
  112MOL0     C15001   3.940   9.313   2.168 -0.4707 -0.2368  0.2389
  112MOL0     N15002   4.041   9.212   2.111  0.1528  0.1487 -0.7487
  112MOL0     C15003   4.016   9.105   2.037 -0.0446  0.7394 -0.3380
  112MOL0     C15004   4.135   9.061   1.990 -0.1409  0.5559  0.4341
  112MOL0     C15005   4.157   8.942   1.902 -0.4651  0.0726  0.7220
  112MOL0     C15006   4.081   8.822   1.960 -0.0087  1.0316  0.3735
  112MOL0     C15007   4.136   8.779   2.101  0.0429  0.2535 -0.3003
  112MOL0     C15008   4.287   8.751   2.098  0.7801 -0.1119  0.0213
  112MOL0     O15009   4.335   8.713   2.224 -0.1767  0.0998 -0.1649
  112MOL0     C15010   4.463   8.666   2.229  0.2542 -0.5121  0.1829
  112MOL0     C15011   4.494   8.602   2.349  1.1344 -0.4607  1.1327
  112MOL0     C15012   4.621   8.546   2.368  0.1261  0.5446 -1.2706
  112MOL0     C15013   4.718   8.551   2.270  0.5091  0.3211  0.3164
  112MOL0     C15014   4.861   8.515   2.298 -0.0884  0.7153  0.5124
  112MOL0     O15015   4.952   8.515   2.201  0.0388  0.2325  0.0957
  112MOL0     C15016   5.064   8.447   2.209  0.0947 -0.5160 -0.1888
  112MOL0     C15017   5.168   8.518   2.148  0.0531  0.2054  0.5004
  112MOL0     C15018   5.299   8.465   2.141  0.9570  0.4083 -0.5184
  112MOL0     C15019   5.317   8.336   2.190 -0.7537  0.0472  0.8453
  112MOL0     O15020   5.452   8.292   2.192 -0.0297  0.2456  0.1448
  112MOL0     C15021   5.494   8.183   2.281 -0.2555  0.0283  0.3257
  112MOL0     C15022   5.645   8.177   2.284 -0.2243  0.4214 -0.1720
  112MOL0     C15023   5.690   8.051   2.362 -1.1171  0.2566  0.9439
  112MOL0     C15024   5.845   8.037   2.371 -0.2108  0.0258  0.6052
  112MOL0     C15025   5.879   7.930   2.473 -0.4876 -0.3553 -0.2727
  112MOL0     C15026   6.035   7.908   2.480  0.2060  0.4424  0.2047
  112MOL0     C15027   6.065   7.787   2.561 -0.5588  0.7037 -0.6976
  112MOL0     C15028   6.215   7.762   2.589 -0.0213 -0.7447  0.0852
  112MOL0    Cl15029   6.305   7.733   2.441 -0.1904 -0.3774 -0.2501
  112MOL0     C15030   5.212   8.255   2.236  0.3541 -0.1454  0.7122
  112MOL0     C15031   5.090   8.317   2.253 -0.5786 -0.2024  0.2747
  112MOL0     O15032   4.878   8.467   2.409  0.5497  0.2050  0.5186
  112MOL0     C15033   4.686   8.594   2.139  0.5156  0.1123 -1.1597
  112MOL0     C15034   4.562   8.660   2.123  0.5044  0.1420  0.1129
  112MOL0     N15035   4.231   9.151   2.027 -0.1786  0.0589  0.4232
  112MOL0     N15036   4.177   9.235   2.105  0.1842 -0.1407  0.2967
  112MOL0     C15037   2.965   9.248   1.762 -0.6034 -0.4458 -0.2858
  112MOL0     C15038   2.841   9.217   1.795  0.4332 -0.6994  0.1709
  112MOL0     C15039   2.387   9.345   1.871  0.1564  0.0624 -0.2358
  112MOL0     C15040   2.348   9.212   1.856 -0.6967  0.5088  0.0658
  112MOL0     C15041   2.226   9.168   1.863  0.2434 -0.4611  0.4909
  112MOL0     C15042   2.119   9.254   1.879  0.2353  0.2223 -0.0291
  112MOL0     O15043   1.995   9.197   1.889 -0.3041 -0.0508  0.3617
  112MOL0     C15044   1.898   9.244   1.788  0.9867  0.5927  0.5876
  112MOL0     C15045   1.789   9.140   1.774 -0.2203 -0.1170 -0.3348
  112MOL0     C15046   1.706   9.122   1.901  0.6192 -0.6778 -0.0535
  112MOL0     C15047   1.566   9.055   1.883  0.5553 -0.4034 -0.2909
  112MOL0     C15048   1.574   8.934   1.804  0.2900 -0.0605  0.2671
  112MOL0     C15049   1.590   8.841   1.725 -0.3321 -0.2263 -0.0601
  112MOL0     C15050   2.148   9.389   1.878  0.0532  0.2382 -0.0260
  112MOL0     C15051   2.276   9.441   1.879  0.5175 -0.6218  0.5837
  112MOL0     C15052   2.280   9.588   1.894 -0.4798 -1.1556  0.6091
  112MOL0     H15053   2.776   9.507   1.963  0.8096 -1.7938  1.9665
  112MOL0     H15054   3.016   9.544   1.918  1.2414 -0.4441  0.3539
  112MOL0     H15055   3.200   9.528   1.672  0.7164 -0.9926  0.2832
  112MOL0     H15056   3.190   9.563   1.848 -3.7339 -3.0327  1.0506
  112MOL0     H15057   3.426   9.574   1.744  1.2138  0.3535  2.3008
  112MOL0     H15058   3.407   9.403   1.715 -0.6887 -0.5153 -0.0807
  112MOL0     H15059   3.391   9.376   1.976 -2.2792 -0.8032 -2.8111
  112MOL0     H15060   3.394   9.557   1.987 -1.1164 -0.0332 -0.9793
  112MOL0     H15061   3.604   9.368   1.881  1.1377  0.4972  0.4902
  112MOL0     H15062   3.620   9.543   1.867  0.8210  0.3007  0.9489
  112MOL0     H15063   3.592   9.576   2.108  2.8890  0.1718  0.1286
  112MOL0     H15064   3.577   9.401   2.138  3.7095 -2.8074  1.0887
  112MOL0     H15065   3.833   9.542   2.061  0.6179  0.8886  1.4753
  112MOL0     H15066   3.783   9.469   2.218  1.8890 -0.2921 -0.7367
  112MOL0     H15067   3.869   9.342   1.970 -2.0143 -0.8367 -0.8273
  112MOL0     H15068   3.754   9.253   2.069  1.3568 -1.6339  3.3758
  112MOL0     H15069   3.995   9.407   2.182 -0.3485 -0.3748  0.7022
  112MOL0     H15070   3.892   9.273   2.258  0.0775 -1.7041 -0.1049
  112MOL0     H15071   3.926   9.044   2.038  1.9358 -2.4896 -1.7286
  112MOL0     H15072   4.116   8.975   1.806  0.9655  3.2791  1.0867
  112MOL0     H15073   4.263   8.921   1.886 -0.4490  1.9140 -2.2709
  112MOL0     H15074   3.975   8.850   1.962 -0.1666  0.5744 -0.8130
  112MOL0     H15075   4.086   8.739   1.889 -0.5621 -2.4399  4.0315
  112MOL0     H15076   4.079   8.694   2.139  2.7706 -0.0127  3.9079
  112MOL0     H15077   4.114   8.870   2.158 -0.4808  0.4704 -0.8425
  112MOL0     H15078   4.333   8.847   2.071  0.0517  0.2322 -0.0328
  112MOL0     H15079   4.309   8.675   2.023  0.9008 -0.5303  0.4820
  112MOL0     H15080   4.415   8.611   2.422  1.5757  0.0379  1.5553
  112MOL0     H15081   4.655   8.493   2.456  2.2713  0.3097 -2.1772
  112MOL0     H15082   5.141   8.611   2.097  0.0389 -0.2075 -0.2578
  112MOL0     H15083   5.371   8.523   2.083  2.6234 -1.2453 -0.1921
  112MOL0     H15084   5.455   8.189   2.383  2.2762 -1.1837  1.4652
  112MOL0     H15085   5.452   8.094   2.234 -1.4421 -0.0451  1.4361
  112MOL0     H15086   5.699   8.183   2.189  2.7005  1.9413  1.4161
  112MOL0     H15087   5.679   8.263   2.343 -2.2212 -0.2301  2.0798
  112MOL0     H15088   5.652   8.063   2.464 -0.3104  0.7412  1.2009
  112MOL0     H15089   5.647   7.959   2.322  1.0642  0.4324 -2.1144
  112MOL0     H15090   5.898   8.132   2.387 -1.7337  1.2053 -0.9769
  112MOL0     H15091   5.873   8.005   2.270 -1.1433  3.0702 -0.7254
  112MOL0     H15092   5.829   7.836   2.448  1.6311 -1.3302 -1.0396
  112MOL0     H15093   5.844   7.958   2.573 -0.5384 -0.1597 -0.3438
  112MOL0     H15094   6.079   7.893   2.381  1.0790 -1.7057  0.8584
  112MOL0     H15095   6.077   7.991   2.538 -0.5220 -0.6503  2.4343
  112MOL0     H15096   6.024   7.696   2.517 -3.3958  0.6075  1.8285
  112MOL0     H15097   6.010   7.784   2.655  0.2088 -1.0206 -0.2492
  112MOL0     H15098   6.251   7.849   2.645 -0.5903 -1.2603  1.2966
  112MOL0     H15099   6.236   7.683   2.662  2.2764 -0.7325 -0.4866
  112MOL0     H15100   5.232   8.152   2.264 -3.0858 -0.3682  2.8392
  112MOL0     H15101   5.014   8.251   2.293 -2.3695  0.8213 -1.2802
  112MOL0     H15102   4.756   8.603   2.057  0.6026 -2.1135 -1.3844
  112MOL0     H15103   4.547   8.700   2.023  1.1934 -2.3730 -1.0917
  112MOL0     H15104   3.025   9.178   1.705  1.2512 -1.3741  2.6214
  112MOL0     H15105   2.812   9.122   1.750  1.1637 -0.6479 -0.4351
  112MOL0     H15106   2.432   9.144   1.846 -0.4787  0.3736  2.2921
  112MOL0     H15107   2.213   9.061   1.848 -0.0154 -0.1042 -2.4191
  112MOL0     H15108   1.943   9.262   1.690  3.0322 -1.7681  1.0167
  112MOL0     H15109   1.853   9.339   1.819  1.0007  1.5177 -1.9764
  112MOL0     H15110   1.831   9.048   1.731 -1.2373  0.0530 -1.7253
  112MOL0     H15111   1.723   9.170   1.693 -1.5224 -2.1368 -0.0985
  112MOL0     H15112   1.682   9.218   1.946  0.3289 -0.9136  0.3011
  112MOL0     H15113   1.774   9.070   1.969  1.6295  0.8165  0.1027
  112MOL0     H15114   1.530   9.039   1.985 -1.6625 -1.0626 -1.1305
  112MOL0     H15115   1.493   9.127   1.846 -1.2188 -1.4433  1.0068
  112MOL0     H15116   1.620   8.768   1.653  0.2711 -0.7121  0.6727
  112MOL0     H15117   2.058   9.450   1.879 -1.8724 -2.3983 -0.6085
  112MOL0     H15118   2.177   9.624   1.906 -0.9898 -3.2037  3.3610
  112MOL0     H15119   2.340   9.624   1.978 -0.2783  1.3185 -0.5147
  112MOL0     H15120   2.324   9.635   1.806  0.2596  1.6351  2.3434
  113MOL0     O15121   5.207  10.184   7.023 -0.6135 -0.4617  0.2396
  113MOL0     C15122   5.143  10.272   6.962 -0.2181 -0.0031 -0.0523
  113MOL0     O15123   5.185  10.395   6.927 -0.0583 -0.2153 -0.2186
  113MOL0     C15124   5.317  10.440   6.952  0.1737 -0.2068 -0.0262
  113MOL0     C15125   5.375  10.443   7.079 -0.1009 -0.0230 -0.0489
  113MOL0     C15126   5.509  10.482   7.093 -0.2110  0.0822 -0.4715
  113MOL0     C15127   5.587  10.529   6.978 -0.2636  0.9031 -0.0576
  113MOL0     O15128   5.710  10.577   6.982  0.2068  0.0493 -0.0893
  113MOL0     C15129   5.800  10.540   7.085 -0.2573 -0.9009 -0.6395
  113MOL0     C15130   5.951  10.556   7.047  0.5130  0.5620  0.4416
  113MOL0     C15131   6.053  10.545   7.168  0.3890  0.1474 -0.0674
  113MOL0     C15132   6.069  10.678   7.243 -0.0083  0.2642 -1.0531
  113MOL0     C15133   6.161  10.656   7.362 -0.0757 -0.0624 -0.3499
  113MOL0     C15134   6.311  10.647   7.331 -0.2328 -0.1777 -0.9296
  113MOL0     C15135   6.387  10.625   7.476  0.7591 -0.4524  0.2458
  113MOL0     C15136   6.539  10.617   7.445  0.1683  0.4100 -0.3287
  113MOL0     N15137   6.628  10.607   7.561  0.2943 -0.2477 -0.1347
  113MOL0     C15138   6.762  10.615   7.556  0.2295  0.5380  0.4141
  113MOL0     C15139   6.803  10.607   7.687 -0.4066 -0.5811  0.0468
  113MOL0     C15140   6.937  10.639   7.736  0.0512  0.0072 -1.2211
  113MOL0     C15141   7.061  10.617   7.641 -0.4989 -0.8643 -0.1333
  113MOL0     C15142   7.096  10.472   7.639  0.6602  0.0112 -0.1403
  113MOL0     C15143   7.228  10.456   7.573  0.0105 -0.1821  0.4617
  113MOL0     O15144   7.327  10.508   7.659  0.1565  0.7988 -0.1883
  113MOL0     C15145   7.466  10.491   7.634  0.4692  0.8248 -0.0408
  113MOL0     C15146   7.534  10.507   7.507  1.1952  0.2965  0.0720
  113MOL0     C15147   7.671  10.480   7.497 -0.1888 -0.5484 -0.8010
  113MOL0     C15148   7.744  10.424   7.606  0.5695  0.3058  0.0007
  113MOL0     C15149   7.887  10.392   7.580 -0.5900  0.2896  0.5476
  113MOL0     O15150   7.942  10.447   7.467 -0.2680 -0.3229 -0.2309
  113MOL0     C15151   8.078  10.438   7.452  0.5781  0.4879  0.4197
  113MOL0     C15152   8.126  10.394   7.332  0.7929  0.5408  0.2014
  113MOL0     C15153   8.259  10.390   7.304 -0.5684 -0.0289 -0.3697
  113MOL0     C15154   8.351  10.427   7.404 -0.1104  0.9193 -1.1174
  113MOL0     O15155   8.487  10.445   7.377 -0.7756 -0.5150 -0.2182
  113MOL0     C15156   8.505  10.520   7.259 -0.6870 -0.1503 -0.3383
  113MOL0     C15157   8.624  10.617   7.288 -0.0727 -0.5221 -0.0404
  113MOL0     C15158   8.758  10.553   7.312 -0.4380  0.4214 -0.0530
  113MOL0     C15159   8.871  10.645   7.260  0.0210  0.3169 -0.2978
  113MOL0     C15160   9.009  10.602   7.314 -0.0682 -0.4595  0.4816
  113MOL0     C15161   9.120  10.687   7.254 -0.0758  0.5777  0.3858
  113MOL0     C15162   9.118  10.824   7.318 -0.2981  0.0280  0.1752
  113MOL0     C15163   9.237  10.900   7.278 -0.2329 -0.7661  1.0296
  113MOL0    Cl15164   9.382  10.839   7.349 -0.0604 -0.2882 -0.2125
  113MOL0     C15165   8.308  10.458   7.529  0.3882  1.2971  0.6847
  113MOL0     C15166   8.168  10.467   7.559  0.5358  0.6326  1.0339
  113MOL0     O15167   7.938  10.315   7.659 -0.5118  0.1413 -0.3849
  113MOL0     C15168   7.678  10.400   7.727 -0.5572 -0.8540 -0.4872
  113MOL0     C15169   7.539  10.430   7.739  0.1559  0.5299  0.3015
  113MOL0     N15170   6.689  10.596   7.774 -0.4734  0.4101 -1.0117
  113MOL0     N15171   6.586  10.599   7.695  0.1376 -0.5966  0.6085
  113MOL0     C15172   5.527  10.530   6.851  1.0355  0.1029  0.1860
  113MOL0     C15173   5.389  10.482   6.842 -0.8333  0.1187  0.7215
  113MOL0     C15174   5.002  10.235   6.925 -0.4126  0.5004  0.8174
  113MOL0     C15175   4.947  10.136   7.006  0.9300  0.3795 -0.2123
  113MOL0     C15176   4.812  10.086   6.987 -0.5475 -0.3995  0.0557
  113MOL0     C15177   4.741  10.145   6.885 -0.1266 -0.6987 -0.0121
  113MOL0     O15178   4.609  10.113   6.878  0.2166  0.0270  0.4205
  113MOL0     C15179   4.570  10.035   6.760  0.1190 -0.8452  0.4919
  113MOL0     C15180   4.482  10.137   6.693 -0.9313 -0.0313 -0.4056
  113MOL0     C15181   4.421  10.079   6.567 -0.4004  0.4645  0.2730
  113MOL0     C15182   4.333  10.175   6.487 -0.5458 -0.8564  0.1552
  113MOL0     C15183   4.199  10.175   6.542 -0.1117 -0.8195 -0.5041
  113MOL0     C15184   4.094  10.175   6.604  0.3233 -0.5082  1.0973
  113MOL0     C15185   4.802  10.244   6.799 -0.1414  0.3429 -0.4989
  113MOL0     C15186   4.928  10.295   6.820 -0.2673  1.4612  0.5258
  113MOL0     C15187   4.988  10.384   6.714 -0.6443  0.9669  0.2735
  113MOL0     H15188   5.317  10.419   7.168  1.7001  1.1539  1.5077
  113MOL0     H15189   5.564  10.480   7.187  1.7586 -1.7822 -1.5562
  113MOL0     H15190   5.770  10.601   7.171 -0.4965  0.6127 -1.7627
  113MOL0     H15191   5.780  10.435   7.113 -0.4722 -0.6284  0.2843
  113MOL0     H15192   5.954  10.657   7.005 -0.9092  0.2556 -0.4577
  113MOL0     H15193   5.982  10.486   6.969 -0.1048 -0.8412  1.4077
  113MOL0     H15194   6.145  10.512   7.121  0.9172  0.3583  0.8020
  113MOL0     H15195   6.012  10.468   7.234 -1.2537  0.4226 -0.7114
  113MOL0     H15196   6.100  10.754   7.171 -0.9603  2.0183  0.3223
  113MOL0     H15197   5.972  10.705   7.285  0.9681  0.4448  1.2365
  113MOL0     H15198   6.154  10.746   7.424  0.0425 -0.8993  0.9353
  113MOL0     H15199   6.130  10.574   7.428 -0.4926  0.0267 -0.4339
  113MOL0     H15200   6.341  10.580   7.250  1.9504 -1.6351  0.9471
  113MOL0     H15201   6.347  10.744   7.296 -0.4140  0.2651  0.0628
  113MOL0     H15202   6.348  10.535   7.525  1.3628 -1.8850 -1.7495
  113MOL0     H15203   6.367  10.707   7.545  0.1893 -0.0918 -0.3389
  113MOL0     H15204   6.556  10.528   7.384  0.2689  0.4754 -0.3966
  113MOL0     H15205   6.563  10.707   7.389  0.4811  1.1890  1.0041
  113MOL0     H15206   6.822  10.645   7.471 -0.6291  0.2740 -0.3121
  113MOL0     H15207   6.941  10.744   7.766  1.3074 -0.0045 -1.2767
  113MOL0     H15208   6.958  10.586   7.829  2.4977  0.1374 -1.6249
  113MOL0     H15209   7.041  10.651   7.539  3.4715 -0.2081 -0.8852
  113MOL0     H15210   7.145  10.682   7.670  0.2803 -0.3959 -3.0290
  113MOL0     H15211   7.011  10.422   7.592 -0.6415  1.3414  0.7265
  113MOL0     H15212   7.111  10.428   7.739 -1.4475  2.2320  1.2651
  113MOL0     H15213   7.234  10.499   7.472 -0.3134 -0.2551  0.4105
  113MOL0     H15214   7.262  10.352   7.570  1.8451  0.3694  0.3645
  113MOL0     H15215   7.485  10.547   7.418 -0.8272 -1.1694  0.4521
  113MOL0     H15216   7.715  10.507   7.401  0.3938 -1.5276 -0.8237
  113MOL0     H15217   8.060  10.385   7.246 -2.4426  0.7179  2.4990
  113MOL0     H15218   8.295  10.366   7.204  1.3379  0.6269  0.1096
  113MOL0     H15219   8.529  10.450   7.178 -2.4375 -1.5630  0.2718
  113MOL0     H15220   8.417  10.582   7.240 -1.3759 -0.7925  0.6500
  113MOL0     H15221   8.629  10.672   7.194  1.7616 -2.9925 -1.5114
  113MOL0     H15222   8.591  10.674   7.375  1.5821  1.2382 -0.4815
  113MOL0     H15223   8.760  10.549   7.422 -1.2633 -0.4529 -0.0477
  113MOL0     H15224   8.764  10.455   7.263 -2.8366  0.7262 -1.1157
  113MOL0     H15225   8.843  10.741   7.305 -1.4843 -0.3085  0.1237
  113MOL0     H15226   8.861  10.659   7.152 -1.3264  1.1089 -0.0950
  113MOL0     H15227   9.023  10.498   7.283 -0.1521 -0.4167  0.3025
  113MOL0     H15228   9.013  10.608   7.423  1.3772  0.5909  0.4078
  113MOL0     H15229   9.217  10.643   7.276 -0.0760  0.4340  0.1110
  113MOL0     H15230   9.114  10.691   7.145  1.2796 -0.0608  0.2673
  113MOL0     H15231   9.113  10.826   7.428 -2.1325 -1.6432  0.1957
  113MOL0     H15232   9.033  10.877   7.273  1.2771  2.5744  0.0236
  113MOL0     H15233   9.246  10.908   7.170 -0.0001 -0.9172  1.0373
  113MOL0     H15234   9.226  11.001   7.318 -0.3527  0.9289 -2.9151
  113MOL0     H15235   8.377  10.483   7.609  1.9957  0.9438 -0.5325
  113MOL0     H15236   8.123  10.503   7.651 -0.8875  0.9594  0.2453
  113MOL0     H15237   7.724  10.360   7.817  0.4288 -0.9169 -1.0125
  113MOL0     H15238   7.492  10.409   7.835  0.3650  1.0145  0.5106
  113MOL0     H15239   5.585  10.575   6.771  0.0139  1.9022  0.4078
  113MOL0     H15240   5.356  10.476   6.739  0.5497 -3.1907  0.3232
  113MOL0     H15241   4.995  10.090   7.092 -0.1219  0.0937  0.2369
  113MOL0     H15242   4.779  10.013   7.060 -0.1360 -1.7672 -1.0992
  113MOL0     H15243   4.517   9.945   6.791  0.1570 -0.9494  0.2562
  113MOL0     H15244   4.651  10.002   6.694 -0.4341  1.0512 -1.2419
  113MOL0     H15245   4.539  10.226   6.664 -1.2128 -0.4349 -2.3464
  113MOL0     H15246   4.405  10.173   6.762 -1.7268  2.7813 -2.5354
  113MOL0     H15247   4.366   9.989   6.593  1.3457 -0.7376 -0.0117
  113MOL0     H15248   4.504  10.051   6.501  0.2435  1.8243  0.4698
  113MOL0     H15249   4.377  10.274   6.503  1.6164 -1.9116  1.1597
  113MOL0     H15250   4.329  10.151   6.380 -2.9615  1.6501 -0.4212
  113MOL0     H15251   3.998  10.181   6.650 -0.1607  0.0796  0.0420
  113MOL0     H15252   4.741  10.289   6.721 -4.0287  1.2022  2.7141
  113MOL0     H15253   4.917  10.405   6.633 -1.8490 -1.3113  0.6448
  113MOL0     H15254   5.022  10.474   6.765  2.8440 -0.0754  0.0385
  113MOL0     H15255   5.075  10.340   6.665 -1.1933  3.0476 -2.8884
  114MOL0     O15256   6.250   5.749   3.281 -0.9628  0.3095  0.0102
  114MOL0     C15257   6.163   5.674   3.235 -0.3185 -0.6123 -0.6629
  114MOL0     O15258   6.179   5.571   3.144  0.3336 -0.1467  0.1339
  114MOL0     C15259   6.300   5.539   3.082 -0.1140 -0.1010  0.4834
  114MOL0     C15260   6.321   5.414   3.024  0.1191 -0.4052  0.8141
  114MOL0     C15261   6.438   5.373   2.967  0.0451 -0.4248  0.1753
  114MOL0     C15262   6.541   5.461   2.949  0.2495 -0.8522  0.3757
  114MOL0     O15263   6.662   5.420   2.895  0.2860  0.2288 -0.0973
  114MOL0     C15264   6.771   5.402   2.994 -0.2377 -0.1816  0.0160
  114MOL0     C15265   6.863   5.521   3.021 -0.3279 -0.3826  0.0236
  114MOL0     C15266   6.973   5.500   3.122 -0.7432 -0.5079 -0.4087
  114MOL0     C15267   7.059   5.632   3.135 -0.4852  0.1911  1.0261
  114MOL0     C15268   7.194   5.588   3.195  0.0944  0.7251  0.8975
  114MOL0     C15269   7.283   5.706   3.212 -0.3288  0.4113  0.0448
  114MOL0     C15270   7.431   5.654   3.240  0.0460  0.0958  0.0758
  114MOL0     C15271   7.517   5.780   3.237  0.2811  0.0748  0.7488
  114MOL0     N15272   7.655   5.752   3.295 -0.5759  0.1871 -0.3528
  114MOL0     C15273   7.687   5.701   3.417  0.4938  0.2304 -0.5142
  114MOL0     C15274   7.823   5.691   3.424  0.4692 -1.5239  0.4248
  114MOL0     C15275   7.904   5.639   3.539  0.2393 -0.5886  0.7422
  114MOL0     C15276   8.054   5.673   3.536  0.3934  0.4266  0.0270
  114MOL0     C15277   8.093   5.816   3.558  1.0134 -0.1673 -0.2286
  114MOL0     C15278   8.239   5.860   3.544  0.2200  0.6339 -0.9965
  114MOL0     O15279   8.265   5.996   3.593  0.2504 -0.8479  0.1002
  114MOL0     C15280   8.388   6.048   3.590  0.4508  0.1164  0.2189
  114MOL0     C15281   8.406   6.170   3.644 -0.6373 -0.1883 -0.1124
  114MOL0     C15282   8.534   6.227   3.657 -0.6571  0.7939  0.0887
  114MOL0     C15283   8.645   6.150   3.619  0.0291 -0.6392  0.1744
  114MOL0     C15284   8.784   6.201   3.645 -0.0960  0.8116  0.2580
  114MOL0     O15285   8.878   6.128   3.581  0.6033 -0.1640  0.1012
  114MOL0     C15286   9.011   6.159   3.581  0.3518 -0.3434  0.4724
  114MOL0     C15287   9.085   6.051   3.526  1.3346 -0.4971  0.8151
  114MOL0     C15288   9.221   6.057   3.521 -0.6901 -0.1670  0.7577
  114MOL0     C15289   9.295   6.163   3.585  0.3131  0.5109  0.0395
  114MOL0     O15290   9.425   6.185   3.586  0.2741  0.0051  0.2480
  114MOL0     C15291   9.512   6.081   3.640  0.2719 -0.5227  0.1121
  114MOL0     C15292   9.656   6.120   3.639 -0.1745 -0.3644  0.3958
  114MOL0     C15293   9.739   6.017   3.716  0.3584 -0.0288 -0.9096
  114MOL0     C15294   9.878   6.074   3.766 -0.0903  0.4142 -0.5930
  114MOL0     C15295   9.968   5.976   3.835 -0.5988  0.5687 -0.4698
  114MOL0     C15296  10.106   6.033   3.855  0.6697 -0.0412  0.0439
  114MOL0     C15297  10.202   5.934   3.916 -0.3216  0.1623  0.1979
  114MOL0     C15298  10.324   6.007   3.962  0.2992 -0.8087 -0.0663
  114MOL0    Cl15299  10.455   5.881   3.998  0.1031 -0.1118 -0.5314
  114MOL0     C15300   9.210   6.271   3.633  0.2354  0.4921 -1.1819
  114MOL0     C15301   9.068   6.271   3.629 -0.7891 -0.0574  0.4386
  114MOL0     O15302   8.796   6.301   3.718  0.1699  0.1894 -0.5125
  114MOL0     C15303   8.626   6.025   3.554  0.0447  0.6994 -0.1686
  114MOL0     C15304   8.499   5.971   3.546  0.2776  0.1809 -0.3582
  114MOL0     N15305   7.869   5.749   3.310 -0.0099  0.1795  0.3687
  114MOL0     N15306   7.773   5.786   3.233  0.0561  0.5802 -0.5544
  114MOL0     C15307   6.523   5.593   2.997  0.3343  0.2581 -0.4224
  114MOL0     C15308   6.407   5.632   3.061  0.3158 -0.0661  0.2471
  114MOL0     C15309   6.023   5.687   3.295  0.0700  0.0817  0.6838
  114MOL0     C15310   5.941   5.573   3.297 -0.3929  0.1232 -0.1781
  114MOL0     C15311   5.822   5.564   3.368  0.2722  0.6585  0.8225
  114MOL0     C15312   5.764   5.672   3.439 -0.9197 -0.6460 -1.1144
  114MOL0     O15313   5.642   5.674   3.504 -0.2177 -0.1909  0.3978
  114MOL0     C15314   5.556   5.563   3.504  0.3016  0.6630  0.5335
  114MOL0     C15315   5.435   5.598   3.592  0.2890  0.2786 -0.6137
  114MOL0     C15316   5.339   5.707   3.548 -0.4929  0.2452  0.9154
  114MOL0     C15317   5.210   5.693   3.628  0.5806 -0.1350  0.4885
  114MOL0     C15318   5.121   5.797   3.585  0.5000  0.2798 -0.3223
  114MOL0     C15319   5.038   5.870   3.538 -0.4822  0.1035  0.2433
  114MOL0     C15320   5.840   5.790   3.423 -0.0591  0.1449 -0.1436
  114MOL0     C15321   5.964   5.804   3.355  0.6904 -0.0216  0.1332
  114MOL0     C15322   6.032   5.937   3.349  0.5895 -0.4545  0.5275
  114MOL0     H15323   6.228   5.358   3.019 -0.8911  1.2019  0.6014
  114MOL0     H15324   6.444   5.267   2.948  0.5136 -0.5412  0.9660
  114MOL0     H15325   6.728   5.382   3.093  2.6707 -1.2919  1.1577
  114MOL0     H15326   6.839   5.320   2.971  1.6865  0.0997  3.9290
  114MOL0     H15327   6.818   5.620   3.033  0.7714 -0.0341  1.5999
  114MOL0     H15328   6.930   5.521   2.934  3.1177 -0.1564  2.4830
  114MOL0     H15329   7.035   5.421   3.078  2.8977  2.2945 -0.8323
  114MOL0     H15330   6.930   5.466   3.216 -2.4886  0.3253 -0.8656
  114MOL0     H15331   7.087   5.677   3.039  2.7047  1.7114  2.5029
  114MOL0     H15332   7.005   5.700   3.201 -2.2255  0.6669 -0.7930
  114MOL0     H15333   7.177   5.539   3.292 -3.7846 -1.6668 -0.7479
  114MOL0     H15334   7.240   5.518   3.126 -1.2008  0.4873  0.2367
  114MOL0     H15335   7.290   5.780   3.131  0.8068  0.5976  0.2911
  114MOL0     H15336   7.263   5.753   3.308 -1.6938 -2.4577  1.2745
  114MOL0     H15337   7.464   5.580   3.167 -0.2735  0.9467 -0.9600
  114MOL0     H15338   7.433   5.608   3.339 -2.0450  0.1540  0.1890
  114MOL0     H15339   7.526   5.818   3.135 -0.8153  0.2651  0.7060
  114MOL0     H15340   7.464   5.849   3.304 -1.1103  0.5640 -0.7841
  114MOL0     H15341   7.622   5.660   3.494  1.8810 -0.8508  0.1177
  114MOL0     H15342   7.859   5.677   3.631  0.9499  1.8320  0.1544
  114MOL0     H15343   7.903   5.530   3.545  1.1645 -0.5201  2.8921
  114MOL0     H15344   8.096   5.609   3.614  1.7900  0.6524 -0.5071
  114MOL0     H15345   8.091   5.640   3.439 -1.6507 -0.5703 -0.4476
  114MOL0     H15346   8.082   5.823   3.667  0.3519  2.1782 -0.3933
  114MOL0     H15347   8.031   5.883   3.498  1.9589  0.6794 -0.2857
  114MOL0     H15348   8.275   5.842   3.443  2.3815 -0.6300 -0.0590
  114MOL0     H15349   8.294   5.793   3.611 -0.4238 -1.0114 -2.0590
  114MOL0     H15350   8.328   6.229   3.690  1.1224  2.3994 -0.2602
  114MOL0     H15351   8.547   6.330   3.688 -0.9885  1.9917 -3.2718
  114MOL0     H15352   9.020   5.974   3.485  1.2541  0.5423 -1.1364
  114MOL0     H15353   9.280   5.977   3.478 -0.8008  0.6420 -0.9888
  114MOL0     H15354   9.477   6.045   3.737  1.3135 -0.5582  0.4935
  114MOL0     H15355   9.499   5.989   3.583 -1.0486  0.0338 -0.5080
  114MOL0     H15356   9.687   6.125   3.535  2.6267  0.2572  1.1817
  114MOL0     H15357   9.657   6.217   3.689  0.8815  0.1501 -0.5844
  114MOL0     H15358   9.688   5.992   3.810  4.7806 -2.2368  1.1962
  114MOL0     H15359   9.758   5.926   3.660  1.0814 -1.5777  1.6675
  114MOL0     H15360   9.862   6.163   3.828  3.7408  2.3807 -2.0600
  114MOL0     H15361   9.924   6.118   3.676 -0.8383  0.4785 -0.9547
  114MOL0     H15362   9.977   5.886   3.774  0.5370  0.3980 -0.0776
  114MOL0     H15363   9.929   5.942   3.931  1.5385 -5.2612 -1.2846
  114MOL0     H15364  10.137   6.063   3.754  2.5812 -2.9905 -0.3906
  114MOL0     H15365  10.098   6.123   3.916 -2.1190  1.5586 -2.3823
  114MOL0     H15366  10.230   5.858   3.842  1.0916  1.0759 -0.2350
  114MOL0     H15367  10.159   5.879   4.001  0.7535 -0.2999  0.4610
  114MOL0     H15368  10.365   6.078   3.890 -1.8588 -0.8474 -1.4170
  114MOL0     H15369  10.295   6.061   4.053  1.1542 -0.6457  0.1221
  114MOL0     H15370   9.271   6.350   3.675 -0.2060 -0.2490  1.0153
  114MOL0     H15371   9.014   6.357   3.669 -0.1663  0.5959 -0.0828
  114MOL0     H15372   8.709   5.972   3.509  0.6055  0.0954  1.5118
  114MOL0     H15373   8.484   5.877   3.494 -0.6906 -0.3744  0.8585
  114MOL0     H15374   6.610   5.658   3.000  0.8116 -0.3964  0.9162
  114MOL0     H15375   6.400   5.734   3.099 -1.7776  0.2729 -0.9190
  114MOL0     H15376   5.985   5.482   3.258 -0.1254  0.9017 -1.7757
  114MOL0     H15377   5.763   5.473   3.360  0.6809  0.4493  0.0701
  114MOL0     H15378   5.607   5.478   3.552  0.5022  0.6841  0.3586
  114MOL0     H15379   5.523   5.544   3.402  0.5004  0.1930  0.5535
  114MOL0     H15380   5.457   5.622   3.696 -2.4115  1.3726 -0.2104
  114MOL0     H15381   5.371   5.509   3.591 -1.1586  1.1497  2.6788
  114MOL0     H15382   5.329   5.692   3.440  3.4988 -0.7895  0.5342
  114MOL0     H15383   5.392   5.802   3.560  0.7920 -0.3387  0.1437
  114MOL0     H15384   5.165   5.595   3.609 -1.9921  1.5236 -3.2113
  114MOL0     H15385   5.232   5.707   3.734  1.4072 -2.5416  0.6849
  114MOL0     H15386   4.961   5.934   3.500 -2.1296  0.0307  3.1617
  114MOL0     H15387   5.788   5.871   3.473  0.6983  0.5147  0.0712
  114MOL0     H15388   6.031   5.971   3.245 -1.7774 -1.1283  0.2707
  114MOL0     H15389   5.981   6.013   3.409  3.5640  0.9012  1.5592
  114MOL0     H15390   6.127   5.933   3.403  0.1809  0.7550  1.3722
  115MOL0     O15391   2.216   0.711  10.214  0.5083 -0.0609 -0.3151
  115MOL0     C15392   2.286   0.812  10.220  0.8399  0.5657  0.2608
  115MOL0     O15393   2.248   0.939  10.197  0.0592  0.3975  0.1534
  115MOL0     C15394   2.117   0.980  10.176  0.4654  0.2001 -0.0263
  115MOL0     C15395   1.997   0.907  10.167 -0.1767 -0.4690  0.1133
  115MOL0     C15396   1.878   0.975  10.134  0.2250  1.2204  0.4084
  115MOL0     C15397   1.868   1.111  10.121 -0.5327 -1.5587 -0.0381
  115MOL0     O15398   1.745   1.165  10.106  0.3697 -0.2559 -0.0249
  115MOL0     C15399   1.723   1.299  10.053  0.3576  0.4592  0.5185
  115MOL0     C15400   1.587   1.313   9.991  0.2193  1.1782 -0.3773
  115MOL0     C15401   1.471   1.331  10.096  0.3374  0.3900  0.0205
  115MOL0     C15402   1.334   1.314  10.020 -0.0503  0.5000 -0.3242
  115MOL0     C15403   1.242   1.226  10.097  1.0524 -0.2199 -0.7928
  115MOL0     C15404   1.108   1.222  10.034 -0.2325 -0.4340 -0.2224
  115MOL0     C15405   1.003   1.153  10.118  0.3068  0.1904  0.5157
  115MOL0     C15406   0.854   1.151  10.065  0.7664  0.7306  0.0144
  115MOL0     N15407   0.798   1.282  10.039  0.2822 -0.9537  0.1882
  115MOL0     C15408   0.678   1.296   9.968 -0.0842 -0.0928  0.6202
  115MOL0     C15409   0.663   1.431   9.941 -1.1734  0.7100  0.5782
  115MOL0     C15410   0.563   1.496   9.839  0.3125  0.0931 -0.7248
  115MOL0     C15411   0.620   1.503   9.696  0.1381  0.4078  0.4482
  115MOL0     C15412   0.712   1.623   9.666 -0.6391  0.9088  0.6401
  115MOL0     C15413   0.864   1.596   9.695  0.5267  0.1446 -0.1813
  115MOL0     O15414   0.918   1.491   9.633  0.3950  0.4531  0.2823
  115MOL0     C15415   1.047   1.518   9.584  0.3952  1.0358  0.2456
  115MOL0     C15416   1.081   1.618   9.494 -0.4502 -0.0534 -0.0521
  115MOL0     C15417   1.215   1.642   9.455  0.8849  0.6546 -1.0203
  115MOL0     C15418   1.322   1.581   9.521 -0.5170  0.0563 -0.0724
  115MOL0     C15419   1.469   1.621   9.501 -0.3363  0.0308  0.1653
  115MOL0     O15420   1.555   1.569   9.598  0.3215  0.1431 -0.2604
  115MOL0     C15421   1.690   1.573   9.575  0.5422  0.0892 -0.2794
  115MOL0     C15422   1.770   1.465   9.603  0.2643  0.5465 -0.2351
  115MOL0     C15423   1.910   1.475   9.581 -0.0479  0.5022  0.3446
  115MOL0     C15424   1.971   1.596   9.545  0.4812  0.3062  0.4357
  115MOL0     O15425   2.107   1.620   9.534  0.6726 -0.3973  0.3074
  115MOL0     C15426   2.188   1.532   9.620  0.3511  0.6253  0.2063
  115MOL0     C15427   2.334   1.595   9.606  0.5728  0.2417 -0.6893
  115MOL0     C15428   2.447   1.525   9.689  1.0558 -0.0426 -0.5240
  115MOL0     C15429   2.577   1.608   9.687 -0.6690  0.3849 -0.1616
  115MOL0     C15430   2.680   1.562   9.804  0.3825 -0.1541 -0.0087
  115MOL0     C15431   2.817   1.570   9.759  0.6432  0.4309  0.5170
  115MOL0     C15432   2.907   1.523   9.877 -0.0270 -1.5567  1.0258
  115MOL0     C15433   3.051   1.560   9.847  0.6062 -0.3485 -0.0363
  115MOL0    Cl15434   3.114   1.464   9.711 -0.3649 -0.1335 -0.1453
  115MOL0     C15435   1.890   1.699   9.516  0.6067  0.1473 -0.4999
  115MOL0     C15436   1.753   1.688   9.540 -0.9801 -0.8564 -0.7047
  115MOL0     O15437   1.499   1.668   9.393  0.3996  0.2316  0.2569
  115MOL0     C15438   1.285   1.481   9.617  0.8378 -0.0875 -0.4334
  115MOL0     C15439   1.156   1.443   9.635  0.0239  0.5201 -0.1534
  115MOL0     N15440   0.763   1.497  10.020  0.0845  0.7403  0.7049
  115MOL0     N15441   0.841   1.405  10.076  0.4524  0.0030  0.6504
  115MOL0     C15442   1.980   1.188  10.152 -0.6213 -0.0514 -0.2863
  115MOL0     C15443   2.103   1.125  10.180 -0.6236  1.5913  0.0275
  115MOL0     C15444   2.436   0.793  10.244 -0.2174  0.4897  0.7954
  115MOL0     C15445   2.532   0.895  10.203 -0.3737 -0.2180 -0.6028
  115MOL0     C15446   2.672   0.886  10.225  0.3886  0.7290  0.1122
  115MOL0     C15447   2.720   0.769  10.292  0.8404 -0.1306 -0.3763
  115MOL0     O15448   2.848   0.730  10.322  0.5423 -0.1440  0.2635
  115MOL0     C15449   2.938   0.839  10.331  0.0145 -0.2974  0.0387
  115MOL0     C15450   3.070   0.793  10.373 -0.3846 -0.0782 -0.7314
  115MOL0     C15451   3.066   0.767  10.522  0.0505  0.1144 -0.1649
  115MOL0     C15452   3.205   0.708  10.571  0.5904  0.0829  0.0241
  115MOL0     C15453   3.221   0.694  10.717  0.3514 -0.2877  0.1770
  115MOL0     C15454   3.199   0.678  10.835  1.1161 -0.0278  0.0330
  115MOL0     C15455   2.624   0.664  10.325 -0.5484  0.1412 -0.2270
  115MOL0     C15456   2.488   0.666  10.296 -0.4006 -0.7839 -0.4959
  115MOL0     C15457   2.403   0.551  10.342 -0.1368 -0.3592 -0.3956
  115MOL0     H15458   1.995   0.798  10.173  2.5363 -0.5288  1.9922
  115MOL0     H15459   1.784   0.924  10.116  0.2035  1.4818 -0.2401
  115MOL0     H15460   1.724   1.366  10.139  0.3691 -0.4850  1.2667
  115MOL0     H15461   1.806   1.327   9.987 -0.8683  1.7665 -0.5517
  115MOL0     H15462   1.579   1.217   9.940  0.7375 -0.1414  1.8906
  115MOL0     H15463   1.587   1.397   9.921 -2.3011  2.9943  1.5852
  115MOL0     H15464   1.471   1.431  10.140  0.0910 -0.0246  0.9929
  115MOL0     H15465   1.467   1.251  10.171 -1.2067  1.1370  0.7911
  115MOL0     H15466   1.283   1.410  10.006 -0.9102  0.0124 -0.5722
  115MOL0     H15467   1.350   1.268   9.922 -2.7822  1.0925 -1.1510
  115MOL0     H15468   1.294   1.130  10.101  1.2566 -0.0613  1.6644
  115MOL0     H15469   1.243   1.257  10.202  0.9149 -0.8113 -0.6153
  115MOL0     H15470   1.064   1.321  10.019 -1.6064 -0.1369  4.1902
  115MOL0     H15471   1.112   1.167   9.940 -1.9981 -1.8259  0.4640
  115MOL0     H15472   1.011   1.184  10.223  2.7475  0.9044  0.1673
  115MOL0     H15473   1.035   1.048  10.129 -0.1689  0.0709  0.8202
  115MOL0     H15474   0.839   1.093   9.973 -0.6251  3.6802 -1.7653
  115MOL0     H15475   0.786   1.102  10.135  0.9417 -1.2154 -1.0926
  115MOL0     H15476   0.619   1.219   9.920 -0.2829  0.4824 -0.0688
  115MOL0     H15477   0.466   1.445   9.840 -0.9375  2.3468 -0.4915
  115MOL0     H15478   0.538   1.595   9.879 -0.8611 -0.1045 -0.9334
  115MOL0     H15479   0.657   1.405   9.667  0.1245  0.3032  0.7819
  115MOL0     H15480   0.529   1.509   9.636 -1.1615 -0.3593  2.2645
  115MOL0     H15481   0.678   1.704   9.731 -1.5735  1.0843 -0.0353
  115MOL0     H15482   0.697   1.654   9.562 -1.6072 -0.6047  0.2880
  115MOL0     H15483   0.880   1.583   9.803  1.1680  2.2760  0.0306
  115MOL0     H15484   0.917   1.690   9.674 -0.1280  0.9580  1.5517
  115MOL0     H15485   1.005   1.681   9.449 -0.4968 -0.0303  0.0576
  115MOL0     H15486   1.239   1.720   9.384 -2.1966  1.0512 -1.7788
  115MOL0     H15487   1.730   1.367   9.625  0.5065  0.0523 -1.8602
  115MOL0     H15488   1.967   1.384   9.596  0.6716  0.8300 -0.3021
  115MOL0     H15489   2.155   1.525   9.724 -1.6891 -0.0618 -0.4466
  115MOL0     H15490   2.185   1.428   9.585 -2.0642 -0.2217  2.5843
  115MOL0     H15491   2.375   1.591   9.505 -0.0253 -0.4216 -0.9102
  115MOL0     H15492   2.316   1.699   9.636 -2.3019 -0.2271 -0.5176
  115MOL0     H15493   2.409   1.515   9.791 -2.5508 -1.2032 -1.8401
  115MOL0     H15494   2.459   1.423   9.653 -3.0803 -1.4162  1.3814
  115MOL0     H15495   2.558   1.715   9.704  2.6668  1.1906 -0.6537
  115MOL0     H15496   2.620   1.602   9.587 -2.9192  1.0443 -1.2179
  115MOL0     H15497   2.655   1.458   9.827  1.4976 -1.1343 -2.8550
  115MOL0     H15498   2.666   1.629   9.890  0.4160  0.7523 -0.6925
  115MOL0     H15499   2.820   1.507   9.669  2.2242 -0.2218  0.9919
  115MOL0     H15500   2.835   1.675   9.735  1.7161 -0.1012 -1.2367
  115MOL0     H15501   2.911   1.417   9.905  4.0084 -1.0796  2.8925
  115MOL0     H15502   2.882   1.573   9.971  1.0354 -1.0353  1.0451
  115MOL0     H15503   3.060   1.669   9.847 -0.8803 -0.0892  3.2824
  115MOL0     H15504   3.103   1.522   9.936  0.7614 -0.4401 -0.1670
  115MOL0     H15505   1.935   1.791   9.481  0.3220  0.3437 -0.3461
  115MOL0     H15506   1.692   1.774   9.512  0.6734 -0.0627 -2.0434
  115MOL0     H15507   1.362   1.434   9.679  0.8448 -0.7225 -0.9128
  115MOL0     H15508   1.137   1.360   9.701  2.2379 -0.2878 -0.4713
  115MOL0     H15509   1.972   1.296  10.150 -2.6931 -0.1808 -0.6065
  115MOL0     H15510   2.196   1.181  10.185  1.6267 -1.9651  1.6562
  115MOL0     H15511   2.501   0.993  10.168  1.2149 -0.1325 -1.8678
  115MOL0     H15512   2.737   0.966  10.193 -0.4528  2.0037  1.4690
  115MOL0     H15513   2.897   0.920  10.393 -2.6151 -0.9042 -0.7587
  115MOL0     H15514   2.952   0.882  10.231 -0.2399  1.1036  0.5767
  115MOL0     H15515   3.139   0.875  10.349  1.1019 -0.8421  0.7314
  115MOL0     H15516   3.091   0.695  10.329  1.0719 -0.5332  0.8706
  115MOL0     H15517   2.981   0.701  10.539  0.4259 -1.0028 -2.2609
  115MOL0     H15518   3.060   0.856  10.584  0.0006 -0.7409  1.0893
  115MOL0     H15519   3.232   0.611  10.529 -0.2467  0.3997 -1.3022
  115MOL0     H15520   3.285   0.776  10.540  2.4039 -2.3645 -1.0711
  115MOL0     H15521   3.156   0.649  10.929  1.8180  1.1109  0.7224
  115MOL0     H15522   2.661   0.573  10.370 -0.9317 -0.2786 -0.7459
  115MOL0     H15523   2.464   0.474  10.391 -1.4678 -2.3019 -1.6633
  115MOL0     H15524   2.327   0.583  10.415  1.3083 -0.0447  1.0363
  115MOL0     H15525   2.361   0.503  10.253 -0.5701  0.1627 -0.4796
  116MOL0     O15526   6.364  11.065   5.701  0.2292  0.2191  0.2045
  116MOL0     C15527   6.362  10.949   5.745 -0.0584  0.0563  0.4146
  116MOL0     O15528   6.478  10.884   5.782 -0.4955 -0.3865  0.3662
  116MOL0     C15529   6.591  10.957   5.810  0.8860 -1.2043 -0.1513
  116MOL0     C15530   6.578  11.068   5.895 -0.1332  0.1719  0.4040
  116MOL0     C15531   6.690  11.152   5.920 -0.3454 -0.3477 -0.4019
  116MOL0     C15532   6.819  11.121   5.877 -0.7315  0.1836 -0.1408
  116MOL0     O15533   6.920  11.197   5.916  0.0967 -0.0822  0.0942
  116MOL0     C15534   7.047  11.148   5.899 -0.4371  0.1476 -0.0816
  116MOL0     C15535   7.139  11.271   5.925  0.0364 -0.1706 -0.7131
  116MOL0     C15536   7.117  11.382   5.824  0.3231  1.2285  0.4154
  116MOL0     C15537   7.228  11.486   5.806 -0.6384  0.5483  0.2537
  116MOL0     C15538   7.353  11.420   5.740  0.5115  0.9472  0.2425
  116MOL0     C15539   7.465  11.523   5.744  0.4853 -0.0164  0.1681
  116MOL0     C15540   7.605  11.480   5.697  0.2848 -0.5053 -0.3496
  116MOL0     C15541   7.691  11.408   5.801 -0.0060 -0.4008  0.2668
  116MOL0     N15542   7.698  11.486   5.919 -0.1507  0.2222  0.0299
  116MOL0     C15543   7.810  11.559   5.960  0.1679 -0.0029 -0.1321
  116MOL0     C15544   7.783  11.618   6.079  0.7461  0.3790  0.1095
  116MOL0     C15545   7.876  11.680   6.172  0.0039 -0.5379 -0.0845
  116MOL0     C15546   7.874  11.840   6.166 -0.8939 -0.1540 -0.0960
  116MOL0     C15547   7.928  11.902   6.292  0.5095 -0.1918  0.0592
  116MOL0     C15548   8.038  12.007   6.270  0.4613  0.5713 -0.0066
  116MOL0     O15549   8.155  11.951   6.220 -0.2644 -0.1621 -0.6772
  116MOL0     C15550   8.277  11.978   6.279 -0.8665  0.3552  1.0876
  116MOL0     C15551   8.309  12.108   6.337  0.1343 -0.0638  0.3625
  116MOL0     C15552   8.442  12.115   6.392 -0.1718  0.2895 -1.2311
  116MOL0     C15553   8.533  12.005   6.399 -0.3163  0.7293  0.4646
  116MOL0     C15554   8.670  12.013   6.459 -0.9291 -0.0926 -0.6075
  116MOL0     O15555   8.747  11.902   6.474 -0.2085 -0.8460  0.3270
  116MOL0     C15556   8.858  11.894   6.558 -0.2601 -0.4882  1.1050
  116MOL0     C15557   8.976  11.944   6.511  0.3310 -0.6958  1.2151
  116MOL0     C15558   9.084  11.943   6.602 -0.9804 -0.0415  0.5018
  116MOL0     C15559   9.076  11.898   6.732  0.8188 -0.0709 -1.1980
  116MOL0     O15560   9.182  11.875   6.815  0.6983  0.0967  0.3548
  116MOL0     C15561   9.302  11.948   6.781 -0.6947  0.6854 -0.3112
  116MOL0     C15562   9.411  11.855   6.713 -0.1040  0.4093  0.1672
  116MOL0     C15563   9.542  11.926   6.675 -0.8381 -1.2931  0.1646
  116MOL0     C15564   9.650  11.826   6.619 -0.2380  0.4827 -0.4002
  116MOL0     C15565   9.792  11.889   6.633 -0.0544  0.5816 -0.6669
  116MOL0     C15566   9.899  11.791   6.580  0.4246  0.3046 -0.2549
  116MOL0     C15567  10.030  11.868   6.571 -0.3432 -0.0369  0.7008
  116MOL0     C15568  10.152  11.762   6.559 -0.0563 -0.6566 -0.9051
  116MOL0    Cl15569  10.126  11.632   6.445  0.4671 -0.0945  0.1936
  116MOL0     C15570   8.946  11.854   6.774 -0.0100 -0.6608 -0.0434
  116MOL0     C15571   8.841  11.852   6.683 -0.4421  0.8646 -0.3089
  116MOL0     O15572   8.708  12.125   6.499 -0.1321  0.3558  0.3954
  116MOL0     C15573   8.490  11.893   6.337 -0.1719 -0.5395 -0.3028
  116MOL0     C15574   8.374  11.883   6.267 -0.5469  0.2068 -1.0561
  116MOL0     N15575   7.652  11.580   6.119 -0.4433 -0.0231 -0.2754
  116MOL0     N15576   7.607  11.504   6.019  0.2417  0.4026  0.1807
  116MOL0     C15577   6.830  11.002   5.798  0.4789 -0.3842 -0.6829
  116MOL0     C15578   6.717  10.920   5.768 -0.5785 -0.5062 -0.5814
  116MOL0     C15579   6.224  10.885   5.764  0.5240  0.2007  0.0175
  116MOL0     C15580   6.112  10.948   5.708 -1.2926 -0.4876 -0.2148
  116MOL0     C15581   5.993  10.881   5.710  0.2440  0.5784  0.2210
  116MOL0     C15582   5.979  10.753   5.752  1.0454  0.4728  0.3471
  116MOL0     O15583   5.871  10.675   5.730 -0.0345 -0.5474  0.8883
  116MOL0     C15584   5.839  10.664   5.584 -0.0340  0.1059  0.4731
  116MOL0     C15585   5.755  10.540   5.563 -0.1958 -0.1372 -0.2911
  116MOL0     C15586   5.604  10.572   5.603  0.0315 -0.5200 -1.0861
  116MOL0     C15587   5.516  10.447   5.572  0.2290  0.5856 -0.1150
  116MOL0     C15588   5.384  10.447   5.627  0.0111 -0.0501 -0.0540
  116MOL0     C15589   5.273  10.466   5.649  0.1721 -1.1718 -0.9719
  116MOL0     C15590   6.083  10.696   5.818 -0.9761 -0.4777 -0.2010
  116MOL0     C15591   6.204  10.770   5.833 -0.0079  0.6232  0.1303
  116MOL0     C15592   6.309  10.688   5.888 -0.3767  0.2298 -0.1134
  116MOL0     H15593   6.484  11.098   5.939 -0.0912  2.0943 -0.6908
  116MOL0     H15594   6.671  11.226   5.998  2.1137 -0.4087  0.3390
  116MOL0     H15595   7.070  11.066   5.968 -0.1029  0.3257  0.0221
  116MOL0     H15596   7.065  11.121   5.795  2.3734 -1.1488  0.6255
  116MOL0     H15597   7.239  11.226   5.912 -0.4622 -1.2029 -1.0831
  116MOL0     H15598   7.119  11.312   6.024 -1.0853 -1.6471 -0.2866
  116MOL0     H15599   7.027  11.432   5.861 -0.7340 -0.0000 -0.3616
  116MOL0     H15600   7.092  11.344   5.724 -0.3467  1.0367  0.6506
  116MOL0     H15601   7.190  11.566   5.743  1.2890  2.4917  1.4319
  116MOL0     H15602   7.248  11.530   5.904  0.3050 -1.1364  0.8715
  116MOL0     H15603   7.393  11.334   5.795 -2.7159 -0.7239  0.2645
  116MOL0     H15604   7.328  11.392   5.637  0.0164  4.1094 -0.5940
  116MOL0     H15605   7.430  11.612   5.692 -2.9436 -0.7630  0.9737
  116MOL0     H15606   7.466  11.568   5.844  1.0830  2.3022 -0.8283
  116MOL0     H15607   7.659  11.568   5.662  0.8297 -0.7845 -0.2223
  116MOL0     H15608   7.590  11.410   5.614  1.7393 -4.3826  2.3734
  116MOL0     H15609   7.653  11.310   5.830 -0.2925 -0.4484 -0.2594
  116MOL0     H15610   7.794  11.391   5.768  0.1983 -1.9501  1.5691
  116MOL0     H15611   7.906  11.540   5.913  0.2803 -0.6170  0.3217
  116MOL0     H15612   7.840  11.650   6.271 -2.9590  1.3601 -0.4648
  116MOL0     H15613   7.974  11.633   6.159  0.0016 -0.8873  1.0654
  116MOL0     H15614   7.922  11.871   6.073 -4.2491 -2.0057 -2.6550
  116MOL0     H15615   7.775  11.879   6.139  0.7147  2.8078 -2.3276
  116MOL0     H15616   7.964  11.831   6.367 -2.7893 -2.4414 -0.3039
  116MOL0     H15617   7.853  11.963   6.342  0.4256 -0.5002  0.3119
  116MOL0     H15618   8.063  12.067   6.358  1.4366 -0.2975  0.3211
  116MOL0     H15619   8.011  12.073   6.187  2.0349  0.0136 -1.0007
  116MOL0     H15620   8.242  12.194   6.334 -0.7255 -0.7404 -1.2023
  116MOL0     H15621   8.478  12.214   6.418 -1.7665  1.4043 -2.9407
  116MOL0     H15622   8.980  11.983   6.410  0.0193 -1.3513  0.9458
  116MOL0     H15623   9.181  11.957   6.555 -0.8056  0.2485  0.9388
  116MOL0     H15624   9.292  12.035   6.715 -0.8961  0.1254 -1.0245
  116MOL0     H15625   9.340  11.984   6.877  1.4370 -1.3063 -0.3266
  116MOL0     H15626   9.437  11.776   6.784 -2.3672 -1.1714 -0.6774
  116MOL0     H15627   9.373  11.804   6.624  1.1997 -0.3869  0.0328
  116MOL0     H15628   9.521  12.000   6.598 -1.3384 -1.1567  0.4252
  116MOL0     H15629   9.580  11.979   6.764 -0.3361 -0.8032 -0.3342
  116MOL0     H15630   9.629  11.788   6.518 -0.1186  0.5936 -0.4677
  116MOL0     H15631   9.654  11.735   6.679  0.3533  0.9395  0.2614
  116MOL0     H15632   9.816  11.907   6.739 -0.1609  0.4948 -0.6284
  116MOL0     H15633   9.800  11.986   6.583 -2.1778  3.5960  4.0675
  116MOL0     H15634   9.915  11.707   6.648  0.1093 -1.3704 -2.1571
  116MOL0     H15635   9.866  11.754   6.482  0.5455 -0.6869  0.0733
  116MOL0     H15636  10.057  11.915   6.666  0.2162  0.4518  0.3057
  116MOL0     H15637  10.028  11.925   6.478 -2.7856 -3.9186 -1.9143
  116MOL0     H15638  10.238  11.825   6.532 -0.4774  0.3955  0.1364
  116MOL0     H15639  10.178  11.720   6.657 -1.7561 -0.3278 -0.2918
  116MOL0     H15640   8.945  11.812   6.875  0.6318  0.7254  0.5576
  116MOL0     H15641   8.744  11.811   6.711  0.9985 -2.8492 -0.2397
  116MOL0     H15642   8.550  11.804   6.344  1.0244  0.3122  0.6552
  116MOL0     H15643   8.351  11.789   6.219 -1.1705  0.4186 -1.1849
  116MOL0     H15644   6.922  10.959   5.761  0.7721  0.9560 -1.6128
  116MOL0     H15645   6.739  10.833   5.707  3.9811  1.3531 -1.9601
  116MOL0     H15646   6.111  11.040   5.651  1.3118 -1.7665 -2.6147
  116MOL0     H15647   5.906  10.923   5.660  0.1006  0.0679  0.0414
  116MOL0     H15648   5.926  10.655   5.517 -2.1453 -0.8042 -2.3843
  116MOL0     H15649   5.791  10.753   5.544 -0.0533  0.1124  0.5107
  116MOL0     H15650   5.788  10.457   5.626 -1.6336 -2.4043 -2.3246
  116MOL0     H15651   5.768  10.505   5.460  1.0456  1.5257 -0.7301
  116MOL0     H15652   5.571  10.664   5.553  0.1221  0.0484 -0.1308
  116MOL0     H15653   5.599  10.595   5.709 -0.9510  1.4103 -1.5095
  116MOL0     H15654   5.511  10.443   5.463  0.6931  0.0431 -0.1226
  116MOL0     H15655   5.571  10.360   5.609 -1.1596 -1.4533 -2.5030
  116MOL0     H15656   5.171  10.464   5.682  0.9247 -0.6900  1.6165
  116MOL0     H15657   6.072  10.595   5.857  0.4303 -0.4976  0.1924
  116MOL0     H15658   6.370  10.745   5.958 -4.3771  0.7341  3.3667
  116MOL0     H15659   6.272  10.605   5.949 -2.6314  1.6086  0.5180
  116MOL0     H15660   6.360  10.648   5.800  1.5287  1.6963  0.2647
  117MOL0     O15661  10.992  10.449   8.822 -0.2841  0.2449  0.0553
  117MOL0     C15662  10.907  10.360   8.825 -0.3910 -0.1083  0.2063
  117MOL0     O15663  10.934  10.222   8.838 -0.0638  0.1932 -0.0552
  117MOL0     C15664  11.062  10.186   8.877  0.8690  0.4435 -0.5670
  117MOL0     C15665  11.075  10.150   9.011  0.5437 -0.5313  0.2430
  117MOL0     C15666  11.193  10.082   9.047  0.5194 -0.1533  0.1490
  117MOL0     C15667  11.303  10.067   8.962  0.2153 -0.4225 -1.4588
  117MOL0     O15668  11.430  10.017   8.987 -0.1603  0.1766 -0.4231
  117MOL0     C15669  11.484  10.031   9.120  0.0146 -0.7525  0.3684
  117MOL0     C15670  11.613   9.957   9.133  0.2297  0.3019  0.8140
  117MOL0     C15671  11.713   9.967   9.015  0.1635  0.9366 -0.1901
  117MOL0     C15672  11.849   9.925   9.082  0.6753  0.1883  0.0020
  117MOL0     C15673  11.952   9.882   8.982  0.2948 -0.1746  1.0564
  117MOL0     C15674  12.062   9.822   9.064  0.2335  0.2936  0.1309
  117MOL0     C15675  12.181   9.796   8.983  0.1521  0.7483  0.2012
  117MOL0     C15676  12.289   9.718   9.065  0.3908  0.3930  0.5350
  117MOL0     N15677  12.421   9.737   9.004  0.2412 -0.4357  0.2007
  117MOL0     C15678  12.467   9.665   8.896  0.2480  0.0903 -0.3058
  117MOL0     C15679  12.574   9.742   8.857  0.1658 -0.1178 -0.0425
  117MOL0     C15680  12.660   9.730   8.739 -0.2495 -0.1099 -0.8230
  117MOL0     C15681  12.621   9.836   8.636 -0.0062 -0.0813  1.1332
  117MOL0     C15682  12.677   9.801   8.497  0.0065 -0.5257  0.1380
  117MOL0     C15683  12.827   9.761   8.474  0.0356  0.3853 -0.5153
  117MOL0     O15684  12.907   9.868   8.530 -0.2309 -0.3894 -0.6929
  117MOL0     C15685  13.022   9.908   8.462  0.1272 -0.1097 -0.7113
  117MOL0     C15686  13.104   9.832   8.373  0.4016  0.1660 -0.3262
  117MOL0     C15687  13.214   9.892   8.311 -0.1072 -0.1729 -0.7058
  117MOL0     C15688  13.256  10.026   8.334 -0.2026  0.8383  0.7185
  117MOL0     C15689  13.381  10.077   8.265  0.4233 -1.7341 -0.6472
  117MOL0     O15690  13.461   9.984   8.214  0.4643 -0.2963 -0.1931
  117MOL0     C15691  13.565  10.007   8.128  0.3380 -0.0973 -0.5688
  117MOL0     C15692  13.630  10.131   8.099  0.1226  0.0272  0.4482
  117MOL0     C15693  13.737  10.132   8.016 -0.2194 -0.0135  0.0309
  117MOL0     C15694  13.792  10.024   7.959 -0.6473  0.6174  0.9961
  117MOL0     O15695  13.914  10.012   7.902 -0.5290  0.2061 -0.0543
  117MOL0     C15696  13.977  10.125   7.843 -1.3590 -0.9047  0.0290
  117MOL0     C15697  14.108  10.077   7.798 -0.5603 -0.1554 -0.5811
  117MOL0     C15698  14.188  10.170   7.720 -1.1149  0.0551  0.7823
  117MOL0     C15699  14.301  10.109   7.643 -0.6963 -0.6874 -0.4972
  117MOL0     C15700  14.384  10.213   7.557 -0.0402  0.6449 -0.2203
  117MOL0     C15701  14.508  10.160   7.499  0.8284  0.3904  0.1711
  117MOL0     C15702  14.599  10.259   7.431  0.7906 -0.5633 -0.6485
  117MOL0     C15703  14.721  10.187   7.377  0.0747 -0.1614  0.4596
  117MOL0    Cl15704  14.823  10.093   7.486  0.1560  0.5375  0.5061
  117MOL0     C15705  13.734   9.900   7.995 -0.2510 -0.0915 -0.1194
  117MOL0     C15706  13.622   9.890   8.075  0.4286 -0.6362 -0.0026
  117MOL0     O15707  13.390  10.200   8.259 -0.7004 -0.3821 -0.1227
  117MOL0     C15708  13.176  10.101   8.420 -0.4603 -1.1294 -0.3990
  117MOL0     C15709  13.067  10.039   8.485  0.0404  0.7387 -0.2622
  117MOL0     N15710  12.608   9.843   8.948  0.2725 -0.1033  0.5944
  117MOL0     N15711  12.519   9.824   9.041  0.1643  0.1723  1.1778
  117MOL0     C15712  11.288  10.113   8.842 -0.1196  0.7089  0.1834
  117MOL0     C15713  11.165  10.163   8.799  0.3855  0.2220  0.2035
  117MOL0     C15714  10.766  10.393   8.795  0.2994  0.6718 -0.1167
  117MOL0     C15715  10.685  10.289   8.741  0.4276  0.3121 -0.4606
  117MOL0     C15716  10.554  10.312   8.697 -0.5381  0.3518  0.2989
  117MOL0     C15717  10.491  10.439   8.711  0.4938  0.1186 -0.6752
  117MOL0     O15718  10.353  10.456   8.670 -0.0143  0.4031  0.5119
  117MOL0     C15719  10.302  10.587   8.677  0.4442  0.0349 -1.1459
  117MOL0     C15720  10.268  10.612   8.827  0.9220 -0.5646 -0.1367
  117MOL0     C15721  10.145  10.526   8.865 -0.1566 -0.0442 -0.2125
  117MOL0     C15722  10.090  10.545   9.000 -0.0572  0.1469  0.0483
  117MOL0     C15723  10.056  10.682   9.030  0.0954 -0.7673  0.5917
  117MOL0     C15724  10.020  10.799   9.050  0.2370  0.0776 -0.0005
  117MOL0     C15725  10.571  10.540   8.769 -0.1595  0.3233 -0.1299
  117MOL0     C15726  10.705  10.520   8.804 -0.0518 -0.7216  0.4570
  117MOL0     C15727  10.783  10.636   8.849 -0.3332 -0.7339 -0.0215
  117MOL0     H15728  10.981  10.153   9.064  0.5810  1.7515  0.3049
  117MOL0     H15729  11.194  10.060   9.153 -0.5219 -0.7070  0.0655
  117MOL0     H15730  11.501  10.136   9.144 -0.4083 -0.5618 -0.1622
  117MOL0     H15731  11.405   9.997   9.187 -0.6721  2.0352  1.1018
  117MOL0     H15732  11.594   9.851   9.152 -1.4328  0.7227  1.7416
  117MOL0     H15733  11.652   9.991   9.230  0.8863  0.4494  0.5018
  117MOL0     H15734  11.724  10.069   8.978 -0.8957  1.7803  1.6845
  117MOL0     H15735  11.701   9.901   8.929  0.4361  2.1221 -1.1638
  117MOL0     H15736  11.884  10.005   9.147 -0.4003  1.0822 -0.4857
  117MOL0     H15737  11.828   9.835   9.140  2.9679 -2.2334 -2.5960
  117MOL0     H15738  11.916   9.811   8.907 -1.5382  0.4811  1.2766
  117MOL0     H15739  11.985   9.974   8.933 -2.8945  0.9521  0.7672
  117MOL0     H15740  12.087   9.880   9.153 -0.0943 -0.6438  0.8537
  117MOL0     H15741  12.023   9.723   9.090 -0.7966  0.5789 -0.2726
  117MOL0     H15742  12.221   9.891   8.947  0.2125  1.3571  1.7987
  117MOL0     H15743  12.162   9.731   8.898 -0.5275  1.2218 -0.0158
  117MOL0     H15744  12.288   9.762   9.165 -1.4433  1.1123  0.2310
  117MOL0     H15745  12.259   9.613   9.054  1.2606  0.3816 -3.2526
  117MOL0     H15746  12.436   9.573   8.847  2.3663 -1.2764  0.7843
  117MOL0     H15747  12.763   9.757   8.763  0.2632 -2.1554 -0.5017
  117MOL0     H15748  12.663   9.625   8.707  0.3752 -1.4848  3.0760
  117MOL0     H15749  12.512   9.838   8.625  0.0838 -2.1729 -1.1626
  117MOL0     H15750  12.651   9.936   8.669 -2.8136  1.2694  0.0029
  117MOL0     H15751  12.660   9.886   8.430  0.4571 -1.5287 -1.3085
  117MOL0     H15752  12.632   9.709   8.460  0.6688 -2.3250  3.4939
  117MOL0     H15753  12.848   9.748   8.368 -0.6465  1.1457 -0.7546
  117MOL0     H15754  12.854   9.664   8.516 -0.0274  0.4693 -0.2761
  117MOL0     H15755  13.074   9.730   8.352 -1.6905  0.8197 -0.7353
  117MOL0     H15756  13.277   9.824   8.255  2.3768 -1.4930  3.2464
  117MOL0     H15757  13.596  10.229   8.131 -4.5396 -0.5931 -1.7462
  117MOL0     H15758  13.793  10.222   7.993 -0.7076  0.7353  1.6308
  117MOL0     H15759  13.917  10.152   7.755  0.7909  1.3229 -0.8602
  117MOL0     H15760  13.987  10.205   7.918  1.2605 -0.3109 -0.8745
  117MOL0     H15761  14.176  10.059   7.881 -0.3991  1.8549 -0.2149
  117MOL0     H15762  14.092   9.990   7.734  0.6592  0.6580 -2.0339
  117MOL0     H15763  14.132  10.215   7.637  3.2176  2.6000 -1.1625
  117MOL0     H15764  14.233  10.254   7.775  2.6060  0.9468 -3.0485
  117MOL0     H15765  14.263  10.028   7.579 -3.1662  0.6666 -0.8926
  117MOL0     H15766  14.372  10.068   7.715 -0.7809 -0.1983 -0.1260
  117MOL0     H15767  14.403  10.290   7.633  1.0036 -0.9500  1.2123
  117MOL0     H15768  14.319  10.249   7.477  1.5198 -1.3426 -2.5434
  117MOL0     H15769  14.570  10.108   7.572 -0.5385  0.1642  1.2209
  117MOL0     H15770  14.491  10.075   7.433  0.5414  1.4438 -1.1463
  117MOL0     H15771  14.630  10.332   7.506 -1.9045 -3.0151  3.2192
  117MOL0     H15772  14.536  10.305   7.354 -1.8127 -0.9341  1.1253
  117MOL0     H15773  14.691  10.128   7.290  0.4762  0.6688 -0.2544
  117MOL0     H15774  14.789  10.261   7.333 -0.8088  0.1031 -0.5059
  117MOL0     H15775  13.777   9.815   7.943 -2.1559  0.4930 -2.8830
  117MOL0     H15776  13.586   9.789   8.089 -1.7211  0.0884 -0.0273
  117MOL0     H15777  13.209  10.201   8.446 -0.5762 -1.1190 -0.2900
  117MOL0     H15778  13.007  10.088   8.561  1.3227 -0.0075  1.2961
  117MOL0     H15779  11.359  10.097   8.761 -0.0830 -1.1262  0.5314
  117MOL0     H15780  11.152  10.183   8.693  0.6538  0.8487  0.2806
  117MOL0     H15781  10.725  10.189   8.723  0.9797  0.5490 -0.5745
  117MOL0     H15782  10.503  10.231   8.646 -0.1077  0.3228 -0.0855
  117MOL0     H15783  10.215  10.604   8.612 -1.6460  2.3328  1.9097
  117MOL0     H15784  10.381  10.656   8.646  3.2163 -3.1128 -1.6224
  117MOL0     H15785  10.239  10.717   8.823  1.1701 -0.5089 -0.7106
  117MOL0     H15786  10.347  10.595   8.902 -0.5676  0.0014  1.6181
  117MOL0     H15787  10.176  10.421   8.859 -0.3887 -0.3907  3.1406
  117MOL0     H15788  10.060  10.547   8.800 -1.4173  0.0277  1.4182
  117MOL0     H15789   9.995  10.491   8.991 -0.7351  1.5231 -1.6171
  117MOL0     H15790  10.149  10.496   9.078 -0.9443 -2.9941 -1.1177
  117MOL0     H15791   9.976  10.895   9.065  2.0008  1.2464 -1.8461
  117MOL0     H15792  10.534  10.642   8.769  1.7105  1.0550  1.4913
  117MOL0     H15793  10.858  10.662   8.774 -1.6823  0.6176 -0.9649
  117MOL0     H15794  10.723  10.727   8.856 -0.7613 -0.8824 -1.4491
  117MOL0     H15795  10.827  10.614   8.946 -0.0134  0.6447  0.1725
  118MOL0     O15796   6.459   3.097   9.390  0.0123 -0.2298  0.0081
  118MOL0     C15797   6.459   2.983   9.441 -0.1563 -0.1511  0.7054
  118MOL0     O15798   6.558   2.939   9.529  0.1448 -0.4485  0.3540
  118MOL0     C15799   6.652   3.034   9.565 -0.3067  0.4255  0.0870
  118MOL0     C15800   6.782   3.032   9.516 -0.2302  0.2458 -0.3575
  118MOL0     C15801   6.881   3.111   9.572 -0.2538 -0.2013  0.3266
  118MOL0     C15802   6.848   3.216   9.656 -0.3516  0.9634 -1.0010
  118MOL0     O15803   6.954   3.285   9.702 -0.2512 -0.6531  0.1943
  118MOL0     C15804   6.934   3.369   9.816 -0.2515  1.3759  0.3886
  118MOL0     C15805   7.066   3.400   9.867  0.0071 -0.5322  0.4328
  118MOL0     C15806   7.076   3.489   9.994  0.0059 -0.2354  1.2823
  118MOL0     C15807   7.231   3.498  10.017  0.7139 -1.1578 -0.1234
  118MOL0     C15808   7.255   3.609  10.131  0.1014 -0.6419 -0.3840
  118MOL0     C15809   7.402   3.615  10.149 -0.5451 -0.6161 -0.0319
  118MOL0     C15810   7.445   3.710  10.251 -0.0531 -0.2633  0.1545
  118MOL0     C15811   7.565   3.654  10.332  0.5667 -0.3955  0.0807
  118MOL0     N15812   7.617   3.753  10.430 -0.2140  0.3500 -0.7662
  118MOL0     C15813   7.745   3.740  10.475 -0.0918 -0.4023 -0.9069
  118MOL0     C15814   7.741   3.822  10.588 -0.9900  0.8029  0.0094
  118MOL0     C15815   7.845   3.843  10.691 -0.1110 -0.2059 -0.6245
  118MOL0     C15816   7.979   3.891  10.629  1.4546  0.2047  0.2595
  118MOL0     C15817   8.086   3.936  10.731 -0.2043 -0.0448 -0.3132
  118MOL0     C15818   8.210   3.974  10.648 -0.2131 -0.4516  0.4269
  118MOL0     O15819   8.275   3.851  10.593 -0.4225 -0.5675  0.5821
  118MOL0     C15820   8.384   3.795  10.657  0.3824  0.1863 -0.1454
  118MOL0     C15821   8.423   3.823  10.792 -0.8968 -0.0373  0.2647
  118MOL0     C15822   8.551   3.793  10.843  0.6799  0.4538  0.7226
  118MOL0     C15823   8.641   3.719  10.763 -0.0468  0.0281 -0.7706
  118MOL0     C15824   8.776   3.692  10.820  0.5477 -0.7560  0.1493
  118MOL0     O15825   8.853   3.609  10.744 -0.0063  0.0817  0.4672
  118MOL0     C15826   8.981   3.573  10.778  0.4081 -1.0267 -0.4687
  118MOL0     C15827   9.064   3.631  10.878  0.2919  0.1650  0.6535
  118MOL0     C15828   9.197   3.582  10.905  0.1073 -0.2212 -0.2781
  118MOL0     C15829   9.252   3.479  10.823  0.1023  0.2491  0.0947
  118MOL0     O15830   9.379   3.438  10.847  0.8897  0.2156  0.5094
  118MOL0     C15831   9.449   3.364  10.742 -0.6215  0.0094  0.0027
  118MOL0     C15832   9.595   3.371  10.792  0.1671 -0.9370  0.5263
  118MOL0     C15833   9.687   3.275  10.712 -0.9573 -0.0958  0.4519
  118MOL0     C15834   9.830   3.273  10.783 -0.1485  0.1313 -0.5258
  118MOL0     C15835   9.935   3.193  10.704  0.0418  0.1573  0.6560
  118MOL0     C15836  10.065   3.166  10.774  0.1045  0.4339  0.3994
  118MOL0     C15837  10.168   3.138  10.667  0.0906 -0.2767 -0.1797
  118MOL0     C15838  10.311   3.137  10.724 -0.2647  0.4845 -0.2179
  118MOL0    Cl15839  10.336   3.001  10.831  0.2546 -0.2395  0.3241
  118MOL0     C15840   9.172   3.426  10.713 -0.1307 -0.0308 -0.8318
  118MOL0     C15841   9.041   3.474  10.687  0.6225 -0.3786 -0.4982
  118MOL0     O15842   8.813   3.757  10.919 -0.4059  0.3776  0.3025
  118MOL0     C15843   8.592   3.672  10.642 -1.2946  0.2811  0.7196
  118MOL0     C15844   8.467   3.711  10.586  0.6344  0.4212  0.1265
  118MOL0     N15845   7.618   3.878  10.597  0.4222 -0.0037 -0.3336
  118MOL0     N15846   7.546   3.850  10.499  0.1620 -0.2557  0.0364
  118MOL0     C15847   6.711   3.224   9.710  0.5107 -0.4690  0.1032
  118MOL0     C15848   6.616   3.130   9.659  0.4792 -0.1828  0.9385
  118MOL0     C15849   6.344   2.895   9.415  0.6864  0.3285  0.2877
  118MOL0     C15850   6.312   2.792   9.507  1.2994  0.4009 -0.1553
  118MOL0     C15851   6.199   2.709   9.489  0.5982  0.0248 -0.2363
  118MOL0     C15852   6.112   2.725   9.380 -0.6899  0.1795 -0.0564
  118MOL0     O15853   6.000   2.645   9.386 -0.1067 -0.4453  0.5520
  118MOL0     C15854   5.960   2.581   9.268  0.3057  0.0020  0.5742
  118MOL0     C15855   5.823   2.524   9.275 -0.0251 -0.4162 -0.0359
  118MOL0     C15856   5.721   2.643   9.287 -0.0723  0.1742  0.0130
  118MOL0     C15857   5.581   2.578   9.256 -0.2571  0.6281  0.5943
  118MOL0     C15858   5.555   2.462   9.343 -1.0280  0.3977  0.2019
  118MOL0     C15859   5.560   2.363   9.416  0.9431  0.2851  0.5667
  118MOL0     C15860   6.140   2.827   9.290 -0.2798 -0.6291 -0.4033
  118MOL0     C15861   6.264   2.898   9.302 -0.1271 -0.8243 -0.3548
  118MOL0     C15862   6.298   2.994   9.186  0.0739  0.8216 -1.1733
  118MOL0     H15863   6.808   2.957   9.442 -0.4541  0.4119 -0.6024
  118MOL0     H15864   6.986   3.100   9.545 -0.6038  1.1295 -1.8138
  118MOL0     H15865   6.893   3.465   9.785 -0.6211  1.2548  0.4933
  118MOL0     H15866   6.870   3.322   9.892 -1.7124  0.8511 -1.1172
  118MOL0     H15867   7.121   3.453   9.789  1.9896 -0.1170  2.0452
  118MOL0     H15868   7.111   3.306   9.899  0.3736 -0.0485  1.3944
  118MOL0     H15869   7.025   3.427  10.069 -0.6031 -1.7069 -0.2890
  118MOL0     H15870   7.021   3.583   9.976  0.1729 -0.2288  0.7843
  118MOL0     H15871   7.274   3.401  10.042  1.8810 -1.6349 -3.3844
  118MOL0     H15872   7.279   3.537   9.926  0.2624 -0.8900 -0.2487
  118MOL0     H15873   7.220   3.706  10.096 -0.7726 -0.7883  0.0535
  118MOL0     H15874   7.194   3.568  10.212 -2.8429 -1.5595 -2.8839
  118MOL0     H15875   7.444   3.520  10.183  0.7372  1.2339  4.2635
  118MOL0     H15876   7.432   3.651  10.050 -2.6140 -2.7802 -1.5566
  118MOL0     H15877   7.362   3.724  10.320 -1.8179 -1.1862 -1.6627
  118MOL0     H15878   7.485   3.801  10.206  2.0440 -0.0689  2.2341
  118MOL0     H15879   7.529   3.561  10.377 -1.8110  0.2742 -0.2600
  118MOL0     H15880   7.643   3.621  10.264 -0.9394 -0.3143 -1.7637
  118MOL0     H15881   7.824   3.671  10.448  0.5478 -0.3864  0.8301
  118MOL0     H15882   7.800   3.898  10.774 -2.0438  2.6401 -3.3085
  118MOL0     H15883   7.876   3.746  10.729  0.2105  1.1032  2.7503
  118MOL0     H15884   8.006   3.805  10.567 -0.2598  0.5792 -1.0853
  118MOL0     H15885   7.962   3.978  10.565 -1.5206  1.1821  2.1359
  118MOL0     H15886   8.101   3.858  10.806 -3.7237 -0.6951 -0.1321
  118MOL0     H15887   8.046   4.020  10.788  0.1352  1.1571 -1.8076
  118MOL0     H15888   8.282   4.025  10.713 -0.4347 -1.5866  1.5877
  118MOL0     H15889   8.197   4.043  10.563  3.0200 -1.0957 -0.7495
  118MOL0     H15890   8.357   3.888  10.849 -3.3461 -0.5690 -1.7578
  118MOL0     H15891   8.581   3.843  10.934  0.7396  2.8418 -0.5215
  118MOL0     H15892   9.036   3.717  10.938  1.7629  1.2470 -0.1257
  118MOL0     H15893   9.252   3.627  10.987 -2.5218 -0.1008  1.5358
  118MOL0     H15894   9.418   3.259  10.733  1.9480 -0.8787  0.6872
  118MOL0     H15895   9.445   3.415  10.645  1.7304  1.7099  0.7298
  118MOL0     H15896   9.632   3.474  10.784  2.3742 -1.7870 -1.3081
  118MOL0     H15897   9.599   3.341  10.897  0.6874 -0.9077  0.5199
  118MOL0     H15898   9.654   3.171  10.724 -1.0263 -0.3927 -1.8680
  118MOL0     H15899   9.685   3.306  10.607  0.6730 -3.0054 -0.5646
  118MOL0     H15900   9.816   3.225  10.881  3.1447 -0.3206 -0.1494
  118MOL0     H15901   9.861   3.377  10.787 -3.5827  1.2842 -0.8840
  118MOL0     H15902   9.941   3.247  10.609  0.0408  0.4144  0.8017
  118MOL0     H15903   9.896   3.092  10.686  3.4542 -1.4310  1.4683
  118MOL0     H15904  10.103   3.255  10.824 -0.9759  0.6597  0.8568
  118MOL0     H15905  10.063   3.083  10.844  0.8830 -1.4554 -1.6850
  118MOL0     H15906  10.174   3.208  10.583  0.0702 -0.5392 -0.4021
  118MOL0     H15907  10.162   3.035  10.630 -1.0082 -0.1898 -0.2742
  118MOL0     H15908  10.377   3.124  10.637 -0.3757 -0.9988 -0.1040
  118MOL0     H15909  10.348   3.231  10.766  0.6879  2.0282 -4.0194
  118MOL0     H15910   9.206   3.343  10.652  0.1169 -0.2290 -0.4298
  118MOL0     H15911   8.992   3.424  10.604 -0.5634 -2.7117  1.4658
  118MOL0     H15912   8.642   3.600  10.578 -4.1160 -1.8998  0.8033
  118MOL0     H15913   8.431   3.676  10.490  0.6622 -0.1136  0.3083
  118MOL0     H15914   6.682   3.299   9.782  4.9804  1.5251  0.1274
  118MOL0     H15915   6.514   3.127   9.697 -0.4025  0.8583 -1.1627
  118MOL0     H15916   6.362   2.796   9.603  2.0895  0.8433 -0.5761
  118MOL0     H15917   6.173   2.627   9.556  3.4657  0.0046  0.9653
  118MOL0     H15918   6.031   2.502   9.241  3.2582  2.1726  1.4199
  118MOL0     H15919   5.958   2.660   9.192 -1.5906  0.6726  1.2739
  118MOL0     H15920   5.821   2.448   9.354  1.8505 -1.3445 -0.8119
  118MOL0     H15921   5.809   2.484   9.174  0.2439  1.2242 -0.7580
  118MOL0     H15922   5.735   2.733   9.227  1.6688  2.1538  3.0804
  118MOL0     H15923   5.729   2.680   9.390  0.0718 -0.2007  0.1383
  118MOL0     H15924   5.503   2.654   9.267  0.6894  1.7244 -0.0330
  118MOL0     H15925   5.589   2.548   9.152 -1.4736  0.5084  0.5277
  118MOL0     H15926   5.559   2.279   9.482 -2.5835 -1.4059 -1.4088
  118MOL0     H15927   6.074   2.849   9.206 -2.4078 -0.6790  1.1905
  118MOL0     H15928   6.237   2.957   9.104 -1.4253 -0.2277  0.3373
  118MOL0     H15929   6.257   3.094   9.205 -2.0596 -0.0297 -1.0366
  118MOL0     H15930   6.401   2.985   9.150 -0.3063  0.5816 -2.2332
  119MOL0     O15931  10.708   1.461   4.123  0.3829  0.0327  0.0459
  119MOL0     C15932  10.660   1.492   4.229  0.1766  0.9815 -0.3338
  119MOL0     O15933  10.531   1.529   4.254 -0.6723  0.3734 -0.5402
  119MOL0     C15934  10.430   1.508   4.167  0.3918  1.0609  0.1341
  119MOL0     C15935  10.424   1.405   4.070 -0.6414 -0.9134 -0.3893
  119MOL0     C15936  10.320   1.410   3.971  0.2894 -0.6217  0.3770
  119MOL0     C15937  10.216   1.499   3.983 -0.4701  0.4699 -0.0245
  119MOL0     O15938  10.127   1.493   3.877 -0.3061  0.2926  0.1182
  119MOL0     C15939  10.013   1.582   3.866 -0.0202  0.5547  0.8066
  119MOL0     C15940   9.970   1.592   3.716 -0.7065 -0.1641 -0.7495
  119MOL0     C15941  10.095   1.645   3.636  0.2063 -0.3466  0.2347
  119MOL0     C15942  10.212   1.551   3.606 -0.8464 -0.1681 -1.1497
  119MOL0     C15943  10.302   1.618   3.503  0.1209 -0.2979  0.3466
  119MOL0     C15944  10.431   1.535   3.497  0.1789  0.4378 -0.6780
  119MOL0     C15945  10.519   1.580   3.385 -0.4629 -0.5507 -0.0004
  119MOL0     C15946  10.566   1.722   3.382 -0.0069  0.1854 -0.0833
  119MOL0     N15947  10.678   1.743   3.282  0.1224  0.2463 -0.6115
  119MOL0     C15948  10.666   1.748   3.146  0.5823  0.0190  0.0448
  119MOL0     C15949  10.789   1.761   3.100 -0.2898 -0.3427  0.1605
  119MOL0     C15950  10.821   1.791   2.953  0.1441  0.1197 -1.0087
  119MOL0     C15951  10.956   1.859   2.921 -0.7599 -0.6018 -0.2402
  119MOL0     C15952  10.957   2.003   2.978 -0.0692 -0.2036 -0.0204
  119MOL0     C15953  11.091   2.066   2.973  0.4746 -0.6624 -1.1755
  119MOL0     O15954  11.133   2.106   2.839 -0.5534  0.2646 -0.2702
  119MOL0     C15955  11.268   2.126   2.821  0.2530 -0.7730 -0.7312
  119MOL0     C15956  11.310   2.109   2.689 -0.4750  0.1036  0.0672
  119MOL0     C15957  11.442   2.119   2.651 -0.3020 -0.0075 -1.1836
  119MOL0     C15958  11.540   2.141   2.749 -0.1070  0.3795 -0.2433
  119MOL0     C15959  11.684   2.140   2.716 -0.0068 -0.4603  0.0130
  119MOL0     O15960  11.773   2.167   2.809  0.4937  0.3166 -0.1290
  119MOL0     C15961  11.900   2.201   2.764 -0.1966  0.2670 -0.0274
  119MOL0     C15962  11.933   2.327   2.725  0.4142 -0.7830 -0.1112
  119MOL0     C15963  12.071   2.350   2.704  0.0051 -0.2792 -0.1399
  119MOL0     C15964  12.168   2.251   2.712 -0.3884 -0.0349  0.7821
  119MOL0     O15965  12.302   2.272   2.692 -0.5903 -0.8800  1.1187
  119MOL0     C15966  12.356   2.403   2.656 -0.9049 -0.3728 -0.5947
  119MOL0     C15967  12.362   2.426   2.513 -0.0250 -0.0910 -0.3440
  119MOL0     C15968  12.437   2.555   2.481  0.7171 -0.0450 -0.6870
  119MOL0     C15969  12.488   2.555   2.331  0.9344 -0.3553  0.0217
  119MOL0     C15970  12.619   2.630   2.311 -0.8429 -0.2593 -0.2055
  119MOL0     C15971  12.653   2.624   2.163  0.0785 -0.4330 -0.0257
  119MOL0     C15972  12.707   2.490   2.114 -1.0503 -0.2607  0.1730
  119MOL0     C15973  12.769   2.493   1.973 -0.3697 -0.2319  0.0606
  119MOL0    Cl15974  12.848   2.338   1.955  0.1084  0.2341  0.2134
  119MOL0     C15975  12.124   2.120   2.728  0.1000  0.4141  0.6804
  119MOL0     C15976  11.984   2.095   2.759  0.1147  0.7695  0.0941
  119MOL0     O15977  11.707   2.112   2.599 -0.1074  0.1727 -0.4014
  119MOL0     C15978  11.499   2.168   2.881  0.1651 -0.5542 -0.2180
  119MOL0     C15979  11.365   2.156   2.924  0.0484 -0.5722  0.5701
  119MOL0     N15980  10.877   1.738   3.208 -0.3605  0.0677  0.5058
  119MOL0     N15981  10.803   1.731   3.318 -0.5920  0.8208 -0.1446
  119MOL0     C15982  10.217   1.595   4.080 -0.4224 -1.5936 -0.3405
  119MOL0     C15983  10.329   1.604   4.170 -0.2343  0.0937  1.0712
  119MOL0     C15984  10.750   1.492   4.348 -0.5654 -0.5052  0.5087
  119MOL0     C15985  10.893   1.494   4.319  0.7609 -0.4388 -0.8798
  119MOL0     C15986  10.986   1.498   4.426  0.5694  0.0277 -0.5844
  119MOL0     C15987  10.935   1.488   4.555  0.1879  1.1071  1.1803
  119MOL0     O15988  11.012   1.497   4.668 -0.0624  0.4125 -0.3322
  119MOL0     C15989  11.154   1.487   4.666  0.5690  0.1797 -0.0436
  119MOL0     C15990  11.227   1.619   4.655  0.3327 -0.8235  0.0159
  119MOL0     C15991  11.374   1.610   4.653 -0.1689 -0.2449 -0.1671
  119MOL0     C15992  11.463   1.731   4.610 -0.5829  0.3317  0.6465
  119MOL0     C15993  11.421   1.855   4.675 -0.5724  1.0951  0.0777
  119MOL0     C15994  11.380   1.954   4.732 -0.0792 -0.2834  0.3141
  119MOL0     C15995  10.803   1.463   4.578  0.7003 -0.7966 -0.1430
  119MOL0     C15996  10.705   1.472   4.475  0.3832  0.0488  0.5109
  119MOL0     C15997  10.563   1.440   4.520 -0.2852  0.3596  0.0465
  119MOL0     H15998  10.506   1.334   4.075  0.1145 -0.0210  0.5451
  119MOL0     H15999  10.322   1.348   3.882  3.4044  0.5308 -0.5031
  119MOL0     H16000   9.923   1.560   3.923 -1.9758  2.2078 -1.4288
  119MOL0     H16001  10.048   1.681   3.894  0.3075  1.0148 -1.0756
  119MOL0     H16002   9.898   1.673   3.705  0.5587  1.0841 -0.1711
  119MOL0     H16003   9.943   1.499   3.666  3.0757 -3.1391  2.0935
  119MOL0     H16004  10.137   1.741   3.668 -0.7801  0.1119  0.1827
  119MOL0     H16005  10.057   1.668   3.536  0.3605  0.4856  0.3549
  119MOL0     H16006  10.271   1.525   3.694 -0.4922 -1.9379 -1.8700
  119MOL0     H16007  10.181   1.456   3.563  3.7664 -2.2358 -0.4509
  119MOL0     H16008  10.242   1.622   3.412  1.5308 -0.0799 -0.6076
  119MOL0     H16009  10.332   1.720   3.530  1.9599 -0.7142  0.0305
  119MOL0     H16010  10.485   1.534   3.593 -1.1637 -1.1792  0.1269
  119MOL0     H16011  10.402   1.430   3.487  1.1647 -0.0695  1.1894
  119MOL0     H16012  10.467   1.569   3.290 -4.6329 -0.3591  2.0259
  119MOL0     H16013  10.613   1.524   3.394  1.5801  2.6805  0.3983
  119MOL0     H16014  10.484   1.794   3.372 -2.9617 -2.7760  0.8515
  119MOL0     H16015  10.603   1.752   3.480 -0.0527  1.1497 -0.3522
  119MOL0     H16016  10.572   1.744   3.092  0.6481 -0.9620 -0.0208
  119MOL0     H16017  10.834   1.695   2.902  1.8201  0.9592 -2.2670
  119MOL0     H16018  10.745   1.854   2.905  1.1521  1.1688 -1.2701
  119MOL0     H16019  11.043   1.806   2.961  0.2451 -2.1736 -4.0552
  119MOL0     H16020  10.973   1.852   2.814 -0.5048 -5.1901 -0.0939
  119MOL0     H16021  10.924   2.004   3.082 -1.1159 -1.5183 -0.3054
  119MOL0     H16022  10.896   2.070   2.916  0.7581  1.2071  0.6379
  119MOL0     H16023  11.158   1.986   3.007 -0.8754 -1.4022 -0.1769
  119MOL0     H16024  11.092   2.142   3.052 -0.7373 -1.2228 -0.5967
  119MOL0     H16025  11.228   2.084   2.622 -1.3265 -1.3993  1.5888
  119MOL0     H16026  11.468   2.081   2.552 -0.1899 -1.1278 -0.7430
  119MOL0     H16027  11.865   2.412   2.721 -2.8013 -2.8021  3.8812
  119MOL0     H16028  12.099   2.451   2.676  1.0697  0.2019  2.3828
  119MOL0     H16029  12.312   2.483   2.716  2.9069 -1.0245  3.5797
  119MOL0     H16030  12.458   2.410   2.694 -1.4203 -1.7163  1.1812
  119MOL0     H16031  12.413   2.342   2.466  0.9614  0.7172 -0.7651
  119MOL0     H16032  12.263   2.431   2.468  0.2509 -2.1665 -1.2627
  119MOL0     H16033  12.371   2.640   2.496 -0.9985 -0.5788 -4.0442
  119MOL0     H16034  12.515   2.551   2.557 -0.1202 -2.2814  0.1361
  119MOL0     H16035  12.411   2.600   2.268  1.8956 -0.1284 -1.0181
  119MOL0     H16036  12.500   2.452   2.297 -1.8033 -1.3269  1.6624
  119MOL0     H16037  12.696   2.593   2.380 -1.9133  3.0654  3.1230
  119MOL0     H16038  12.607   2.732   2.347  0.9217 -0.6663  1.7518
  119MOL0     H16039  12.560   2.653   2.113 -0.5164  0.0394  1.3195
  119MOL0     H16040  12.738   2.692   2.154  1.6365 -2.1788  0.7629
  119MOL0     H16041  12.628   2.414   2.121 -2.0003  0.7971  1.3014
  119MOL0     H16042  12.782   2.458   2.186  2.0063  4.5097 -0.4450
  119MOL0     H16043  12.684   2.511   1.907 -0.8064 -3.7483 -0.5603
  119MOL0     H16044  12.850   2.566   1.970 -1.0881  0.6162  0.8178
  119MOL0     H16045  12.198   2.042   2.715  0.5505  0.3164  3.2989
  119MOL0     H16046  11.951   1.994   2.782 -1.8783  1.4657  0.5871
  119MOL0     H16047  11.569   2.195   2.959 -0.0151  2.5869 -0.9891
  119MOL0     H16048  11.339   2.168   3.029  3.0743  2.2673  1.1661
  119MOL0     H16049  10.134   1.664   4.092  0.0683 -1.0582  0.0470
  119MOL0     H16050  10.332   1.682   4.246  1.3859 -0.1665  1.3121
  119MOL0     H16051  10.927   1.486   4.216  1.6499  3.6469 -1.0913
  119MOL0     H16052  11.090   1.496   4.395  0.0581  1.4932 -2.6699
  119MOL0     H16053  11.176   1.413   4.588 -3.5712  0.6309 -1.9250
  119MOL0     H16054  11.176   1.437   4.761  0.9092  0.2065 -0.1065
  119MOL0     H16055  11.197   1.691   4.732 -1.1560  1.2822 -2.3771
  119MOL0     H16056  11.202   1.673   4.563  1.8881  1.5640  0.8881
  119MOL0     H16057  11.406   1.522   4.595  0.3352 -1.1122  1.3555
  119MOL0     H16058  11.400   1.583   4.756  2.4200  0.6733 -0.4952
  119MOL0     H16059  11.568   1.710   4.633 -0.1719  1.7302  0.1626
  119MOL0     H16060  11.466   1.734   4.501  0.5678  1.5083  0.6856
  119MOL0     H16061  11.351   2.054   4.756 -0.4713 -0.2422 -0.3233
  119MOL0     H16062  10.777   1.431   4.678  0.4038  1.9904  0.7568
  119MOL0     H16063  10.499   1.392   4.445 -1.5372 -0.4527  1.5947
  119MOL0     H16064  10.568   1.367   4.601  1.7549  0.7887  0.3704
  119MOL0     H16065  10.517   1.533   4.556 -1.6755 -0.5044  0.5400
  120MOL0     O16066   2.093   1.476   7.242 -0.0064  0.3451 -0.3576
  120MOL0     C16067   2.017   1.548   7.310 -0.2903 -0.8084  0.2955
  120MOL0     O16068   2.057   1.662   7.367 -0.1990 -0.3256 -0.9908
  120MOL0     C16069   2.187   1.697   7.349 -0.0112  1.0180  0.2503
  120MOL0     C16070   2.234   1.753   7.237 -0.4986 -0.3012 -0.6189
  120MOL0     C16071   2.366   1.799   7.224 -1.2399  0.1181  0.7150
  120MOL0     C16072   2.462   1.773   7.329  0.6969  0.3808  0.8945
  120MOL0     O16073   2.592   1.800   7.313 -0.8746  0.2263  0.9443
  120MOL0     C16074   2.636   1.929   7.259 -0.2407  0.4736  0.0088
  120MOL0     C16075   2.785   1.962   7.260 -0.2521  0.0952  0.0654
  120MOL0     C16076   2.871   1.842   7.197 -0.7886 -0.7346  0.6965
  120MOL0     C16077   3.021   1.882   7.199  0.5146  0.3211  0.2395
  120MOL0     C16078   3.109   1.771   7.138  0.3730 -0.4738 -0.1272
  120MOL0     C16079   3.261   1.796   7.149 -0.8936 -0.0558 -0.0614
  120MOL0     C16080   3.347   1.686   7.082 -0.2394 -0.5076  0.0357
  120MOL0     C16081   3.484   1.694   7.133 -0.3439 -0.0953 -0.2364
  120MOL0     N16082   3.558   1.809   7.081  0.3530  0.2111  1.1451
  120MOL0     C16083   3.616   1.818   6.959  0.1481 -0.0432  0.4061
  120MOL0     C16084   3.640   1.952   6.944  0.2235 -0.4250 -0.1988
  120MOL0     C16085   3.687   2.014   6.815  0.2945 -0.9360 -0.2198
  120MOL0     C16086   3.821   1.970   6.765 -0.5871  0.9065  0.4173
  120MOL0     C16087   3.934   2.032   6.844 -0.1086  0.7253  0.2027
  120MOL0     C16088   4.003   1.934   6.935  0.3829  0.7473 -0.0456
  120MOL0     O16089   4.069   1.825   6.869  0.0087 -0.4784  0.2154
  120MOL0     C16090   4.190   1.852   6.811  0.4573 -0.4073  0.3027
  120MOL0     C16091   4.232   1.755   6.719 -1.1012 -0.5721  0.5812
  120MOL0     C16092   4.348   1.771   6.644 -0.9623 -0.5351  0.3081
  120MOL0     C16093   4.435   1.879   6.675 -0.4345 -0.4051 -0.3662
  120MOL0     C16094   4.566   1.885   6.598  0.6984 -0.3115 -0.1585
  120MOL0     O16095   4.651   1.995   6.635 -0.3515  0.0624 -0.0772
  120MOL0     C16096   4.771   2.019   6.574 -1.0485 -0.3640 -0.0639
  120MOL0     C16097   4.844   2.132   6.610 -0.3804  0.2371  0.8092
  120MOL0     C16098   4.962   2.162   6.544 -0.1954 -0.3950  0.2174
  120MOL0     C16099   5.024   2.076   6.445  0.1707  0.3276 -0.0215
  120MOL0     O16100   5.140   2.107   6.371 -0.0774 -0.4919 -0.5773
  120MOL0     C16101   5.229   2.211   6.411 -0.2278 -0.5614 -0.2377
  120MOL0     C16102   5.347   2.219   6.324 -1.6649  0.0913 -0.2210
  120MOL0     C16103   5.409   2.080   6.296 -0.3892 -0.2848  0.1888
  120MOL0     C16104   5.559   2.098   6.268 -0.1534  0.7680 -0.4115
  120MOL0     C16105   5.616   1.958   6.226 -0.3157 -0.8152 -0.9156
  120MOL0     C16106   5.609   1.941   6.069 -0.4205 -0.4959 -0.1687
  120MOL0     C16107   5.692   1.828   6.017 -0.7407 -0.3234  0.2318
  120MOL0     C16108   5.833   1.876   5.966  0.5794  0.3411  0.0452
  120MOL0    Cl16109   5.932   1.970   6.077 -0.1102 -0.4221  0.4372
  120MOL0     C16110   4.958   1.960   6.413  0.1817  0.3644 -0.9139
  120MOL0     C16111   4.833   1.928   6.479 -0.7223  0.1091 -0.0259
  120MOL0     O16112   4.564   1.824   6.490  0.4300 -0.9693 -0.6500
  120MOL0     C16113   4.402   1.973   6.771  0.2667 -0.6439 -0.2736
  120MOL0     C16114   4.275   1.970   6.824  0.6185 -0.6322 -0.3601
  120MOL0     N16115   3.610   2.016   7.059 -1.0643  0.6739 -0.4024
  120MOL0     N16116   3.547   1.929   7.129  0.5437 -0.1207 -0.0411
  120MOL0     C16117   2.415   1.705   7.441  0.6523 -2.1415 -0.1546
  120MOL0     C16118   2.280   1.673   7.454  0.8155  0.1462  0.0906
  120MOL0     C16119   1.876   1.506   7.339 -0.0954 -0.4422  1.6442
  120MOL0     C16120   1.787   1.599   7.401 -0.5382 -0.0070  0.5590
  120MOL0     C16121   1.653   1.567   7.417  0.6464  0.5179  1.0603
  120MOL0     C16122   1.600   1.442   7.381 -0.1467  0.1507  0.4739
  120MOL0     O16123   1.475   1.390   7.422  0.5273 -0.1946 -0.1274
  120MOL0     C16124   1.369   1.475   7.476 -0.2715 -0.8501  0.3799
  120MOL0     C16125   1.290   1.555   7.374  0.8868 -0.8019  0.3582
  120MOL0     C16126   1.204   1.474   7.280 -0.1570  0.2382 -0.1831
  120MOL0     C16127   1.149   1.559   7.160  0.4970 -0.2532  0.1550
  120MOL0     C16128   1.124   1.705   7.200  0.4019 -0.6621  0.7016
  120MOL0     C16129   1.109   1.822   7.229  0.6691  0.1879  0.2865
  120MOL0     C16130   1.685   1.355   7.303 -0.4772 -0.0478 -0.5558
  120MOL0     C16131   1.822   1.378   7.286 -0.9456  0.4729  0.3067
  120MOL0     C16132   1.909   1.268   7.221  0.2484 -0.7254 -0.2919
  120MOL0     H16133   2.159   1.781   7.163  2.4855  2.0377 -3.0043
  120MOL0     H16134   2.393   1.859   7.137 -0.4755 -0.8619  0.2526
  120MOL0     H16135   2.619   1.931   7.151  0.9477  3.8138 -0.2589
  120MOL0     H16136   2.584   2.013   7.307 -1.3742 -0.1303 -0.1399
  120MOL0     H16137   2.819   1.976   7.363  1.1048 -1.8253 -0.0702
  120MOL0     H16138   2.801   2.059   7.212  1.2671 -0.0674  0.1942
  120MOL0     H16139   2.831   1.817   7.098  1.1377 -1.9291  0.1397
  120MOL0     H16140   2.853   1.746   7.247  1.3544 -2.3244 -1.3211
  120MOL0     H16141   3.025   1.974   7.141 -2.0905  1.4866  1.7201
  120MOL0     H16142   3.047   1.911   7.301 -0.9169  4.0749 -0.3275
  120MOL0     H16143   3.086   1.678   7.191 -0.5068 -1.1463 -1.6258
  120MOL0     H16144   3.098   1.754   7.031  1.5904  0.2413 -0.3797
  120MOL0     H16145   3.291   1.891   7.104  0.1155 -0.1530  0.3851
  120MOL0     H16146   3.277   1.801   7.257 -3.7516  0.0603  0.4368
  120MOL0     H16147   3.339   1.700   6.974  0.7147  2.7961  0.2698
  120MOL0     H16148   3.320   1.584   7.112 -1.5389 -0.3004 -0.3820
  120MOL0     H16149   3.493   1.686   7.242  1.3075  1.7023 -0.1903
  120MOL0     H16150   3.537   1.606   7.095 -4.2177 -1.5261 -2.8933
  120MOL0     H16151   3.635   1.740   6.886  2.2955 -0.3535  1.2126
  120MOL0     H16152   3.609   1.995   6.741 -1.7542 -0.1766  1.6089
  120MOL0     H16153   3.683   2.123   6.827  0.0816 -0.9589 -0.0599
  120MOL0     H16154   3.820   1.861   6.766  2.7456  0.7595 -0.6287
  120MOL0     H16155   3.831   2.000   6.660 -4.3863  0.1723 -0.3160
  120MOL0     H16156   3.900   2.119   6.901  0.1444  1.3932 -0.6389
  120MOL0     H16157   4.019   2.059   6.781  0.4518 -0.1533  0.5549
  120MOL0     H16158   3.921   1.894   6.995  0.2435  0.8667 -0.1535
  120MOL0     H16159   4.068   1.982   7.008 -0.0452 -1.6004  1.9961
  120MOL0     H16160   4.161   1.673   6.713 -1.4768 -0.3564  1.7937
  120MOL0     H16161   4.373   1.688   6.579  0.9450 -1.7671  2.4924
  120MOL0     H16162   4.808   2.184   6.697  0.1939  0.2214  1.0617
  120MOL0     H16163   5.008   2.258   6.568  2.2343 -1.8175  1.6495
  120MOL0     H16164   5.171   2.303   6.422  1.4574  0.6072 -0.8019
  120MOL0     H16165   5.270   2.188   6.510  5.0043  1.1263 -1.6735
  120MOL0     H16166   5.325   2.256   6.223  0.9939 -1.9742 -1.7110
  120MOL0     H16167   5.424   2.282   6.369 -0.4483 -1.5117  0.0499
  120MOL0     H16168   5.398   2.009   6.379  0.5901  0.1148  0.6875
  120MOL0     H16169   5.360   2.047   6.204 -0.8271  1.2010 -0.1346
  120MOL0     H16170   5.612   2.138   6.354  1.9431  3.0183 -2.5798
  120MOL0     H16171   5.576   2.170   6.188 -0.1807  2.8003  1.3363
  120MOL0     H16172   5.577   1.873   6.284 -1.1037  1.2023  1.6978
  120MOL0     H16173   5.720   1.964   6.261 -0.1540 -0.6483 -1.4124
  120MOL0     H16174   5.507   1.933   6.032 -0.0994  0.1970 -1.2418
  120MOL0     H16175   5.629   2.040   6.026  0.2962  0.1466  1.5332
  120MOL0     H16176   5.633   1.771   5.944 -1.6765 -1.5165  1.8457
  120MOL0     H16177   5.710   1.762   6.102  1.1273 -1.0307 -0.6534
  120MOL0     H16178   5.893   1.790   5.934  0.7722  0.6542 -0.4466
  120MOL0     H16179   5.813   1.934   5.875 -2.6189  1.2649  1.2064
  120MOL0     H16180   4.994   1.889   6.339  2.4468 -0.9216  1.2602
  120MOL0     H16181   4.786   1.839   6.438 -0.8858 -0.0947  0.5956
  120MOL0     H16182   4.466   2.058   6.790  0.4136 -0.7232 -0.4208
  120MOL0     H16183   4.248   2.051   6.892 -2.8884  0.2167 -2.5445
  120MOL0     H16184   2.481   1.682   7.524  0.4216 -0.2639  0.5941
  120MOL0     H16185   2.242   1.634   7.549  0.4782  1.4630  0.5154
  120MOL0     H16186   1.821   1.698   7.429  0.4123 -0.2028  0.1405
  120MOL0     H16187   1.586   1.640   7.461 -1.5293 -1.3566  1.0944
  120MOL0     H16188   1.408   1.542   7.552  1.2897 -0.8002 -0.4187
  120MOL0     H16189   1.292   1.407   7.515 -0.3621 -1.3472 -0.6323
  120MOL0     H16190   1.359   1.628   7.330 -1.4050  2.7013  2.0673
  120MOL0     H16191   1.223   1.623   7.427 -1.4890 -2.8749  0.1772
  120MOL0     H16192   1.114   1.438   7.329  0.3637  0.6391  1.1085
  120MOL0     H16193   1.253   1.385   7.240  0.8537 -0.2201  1.9592
  120MOL0     H16194   1.218   1.549   7.076  1.9842 -1.3756  1.4283
  120MOL0     H16195   1.055   1.513   7.128  0.5659 -0.4951  0.2902
  120MOL0     H16196   1.087   1.920   7.265 -2.3471 -1.1865  2.6665
  120MOL0     H16197   1.654   1.260   7.261  2.9976 -0.8794 -1.5649
  120MOL0     H16198   1.949   1.311   7.129  0.1092 -0.1568 -0.0907
  120MOL0     H16199   1.989   1.235   7.288  2.2607  1.9823 -1.1474
  120MOL0     H16200   1.859   1.179   7.184  1.5477 -0.7001 -2.2252
  121MOL0     O16201   4.972   3.165   2.615  0.0818 -0.6408 -0.3932
  121MOL0     C16202   4.954   3.268   2.689  0.6051 -0.7871 -0.2635
  121MOL0     O16203   4.829   3.302   2.741 -1.3192 -0.2208  0.7271
  121MOL0     C16204   4.720   3.226   2.707 -1.1697  0.5767  0.0298
  121MOL0     C16205   4.647   3.160   2.806 -0.6573  0.9724 -0.2244
  121MOL0     C16206   4.528   3.100   2.778 -0.4978  0.7308 -0.2745
  121MOL0     C16207   4.464   3.100   2.648  0.3286 -0.4177 -0.4890
  121MOL0     O16208   4.332   3.065   2.610 -0.1236 -0.7193 -0.2138
  121MOL0     C16209   4.276   2.960   2.685 -0.7609 -0.1666 -0.4665
  121MOL0     C16210   4.193   2.868   2.596  0.1572 -0.2419  0.0997
  121MOL0     C16211   4.289   2.799   2.501 -0.7421 -0.3099  0.0471
  121MOL0     C16212   4.208   2.700   2.420 -0.2611 -0.4766  1.1587
  121MOL0     C16213   4.294   2.578   2.398 -0.5275  1.0117  0.3361
  121MOL0     C16214   4.225   2.463   2.322  0.8967 -0.2012 -0.1457
  121MOL0     C16215   4.206   2.496   2.171  1.0767  0.7335  0.1997
  121MOL0     C16216   4.154   2.374   2.100 -0.1024  0.2844 -0.2256
  121MOL0     N16217   4.128   2.392   1.959  0.2005 -0.1019  0.0894
  121MOL0     C16218   4.224   2.374   1.863 -0.9345  0.4757  0.7501
  121MOL0     C16219   4.157   2.382   1.743 -0.5170 -0.2301  0.5552
  121MOL0     C16220   4.219   2.365   1.603  0.1782 -0.2015  0.8196
  121MOL0     C16221   4.323   2.475   1.575  0.1554  1.0190 -0.0089
  121MOL0     C16222   4.352   2.495   1.430  0.3410 -0.2854  0.5241
  121MOL0     C16223   4.444   2.380   1.381 -0.6126 -0.4350 -0.3948
  121MOL0     O16224   4.544   2.340   1.477  0.1016 -0.1684 -0.5062
  121MOL0     C16225   4.656   2.420   1.506  0.8340 -0.6081 -0.0037
  121MOL0     C16226   4.759   2.351   1.571 -0.4726  0.2372 -0.7610
  121MOL0     C16227   4.880   2.416   1.609  0.1744  0.1373 -0.3804
  121MOL0     C16228   4.906   2.552   1.572  1.3743 -0.0135 -0.8840
  121MOL0     C16229   5.031   2.605   1.599 -0.3881  0.3414 -0.2090
  121MOL0     O16230   5.136   2.526   1.628 -0.5564 -0.5700  0.7099
  121MOL0     C16231   5.240   2.563   1.707 -0.3159 -0.3510 -0.1255
  121MOL0     C16232   5.223   2.641   1.820  0.3713 -0.2015  0.0881
  121MOL0     C16233   5.341   2.688   1.888  0.0708  1.2984  0.4689
  121MOL0     C16234   5.469   2.643   1.854 -0.1860  0.8652 -0.1026
  121MOL0     O16235   5.572   2.711   1.922  0.5600  0.5363  0.0976
  121MOL0     C16236   5.696   2.652   1.886 -0.7008 -0.2647  0.5898
  121MOL0     C16237   5.810   2.739   1.951  0.1035 -0.0544  0.5400
  121MOL0     C16238   5.946   2.699   1.900 -0.4165  0.0208  0.1825
  121MOL0     C16239   6.053   2.793   1.952  0.5023 -0.4817 -0.5100
  121MOL0     C16240   6.180   2.710   1.952  0.0110  0.6560  0.0318
  121MOL0     C16241   6.306   2.794   1.977  0.3617 -0.8199  0.2214
  121MOL0     C16242   6.442   2.720   2.006  0.2267 -0.5434 -0.8242
  121MOL0     C16243   6.556   2.816   2.028  0.8432 -0.5693 -0.5373
  121MOL0    Cl16244   6.673   2.825   1.887 -0.2207 -0.3119  0.1811
  121MOL0     C16245   5.475   2.549   1.750 -0.3377 -0.2269 -0.2746
  121MOL0     C16246   5.364   2.515   1.678  0.6545  0.0951 -0.5708
  121MOL0     O16247   5.034   2.729   1.596 -0.2975  0.8142  0.5181
  121MOL0     C16248   4.798   2.617   1.507 -0.2291 -1.1912  0.0680
  121MOL0     C16249   4.676   2.558   1.480 -0.2724  0.7212  1.0452
  121MOL0     N16250   4.021   2.403   1.764 -0.4519  0.4062 -1.2121
  121MOL0     N16251   4.006   2.409   1.900  0.0711  0.2716  0.3892
  121MOL0     C16252   4.539   3.169   2.546  0.2399 -0.1470 -0.1641
  121MOL0     C16253   4.665   3.234   2.576 -0.0645 -0.5936 -1.0049
  121MOL0     C16254   5.065   3.363   2.718 -0.4329 -0.2978 -0.5803
  121MOL0     C16255   5.046   3.447   2.836  0.5386  0.7634 -0.7652
  121MOL0     C16256   5.150   3.522   2.896 -0.4561  0.0705  0.0494
  121MOL0     C16257   5.277   3.526   2.840 -0.4644  0.2194 -0.0342
  121MOL0     O16258   5.371   3.596   2.902  0.0559 -0.7006  0.2245
  121MOL0     C16259   5.478   3.639   2.826  0.2414 -0.0347  0.3764
  121MOL0     C16260   5.587   3.708   2.916  0.0524 -0.0799 -0.3391
  121MOL0     C16261   5.727   3.699   2.843 -0.2278 -0.0047  0.1886
  121MOL0     C16262   5.842   3.774   2.916  0.0889  0.4448 -0.1359
  121MOL0     C16263   5.860   3.721   3.061 -0.6480 -0.5223 -0.1783
  121MOL0     C16264   5.890   3.692   3.176  0.0320  0.5267  0.1030
  121MOL0     C16265   5.293   3.451   2.718 -0.1684  1.0910 -0.1796
  121MOL0     C16266   5.190   3.373   2.659  0.2911 -0.4185  0.4642
  121MOL0     C16267   5.221   3.303   2.532  0.6033  0.9971  0.0107
  121MOL0     H16268   4.684   3.162   2.908  0.1501 -1.8602 -0.3865
  121MOL0     H16269   4.474   3.061   2.864  0.5113  1.4770  0.7173
  121MOL0     H16270   4.354   2.910   2.744 -0.9263  1.6736  1.4450
  121MOL0     H16271   4.201   2.997   2.755 -1.8362 -2.8035 -0.1187
  121MOL0     H16272   4.121   2.928   2.540 -2.1888 -2.5320  0.4194
  121MOL0     H16273   4.146   2.792   2.660  1.4141 -0.8508  0.3204
  121MOL0     H16274   4.359   2.745   2.564 -1.9681  0.1701  1.8927
  121MOL0     H16275   4.343   2.875   2.443 -0.3974  1.9177  3.0537
  121MOL0     H16276   4.118   2.671   2.475  0.2329 -1.4229  1.4883
  121MOL0     H16277   4.178   2.758   2.332 -3.4642 -2.5350  0.6888
  121MOL0     H16278   4.381   2.615   2.345 -0.4092 -0.5310 -0.6135
  121MOL0     H16279   4.321   2.539   2.497 -2.6136  1.9939  1.3600
  121MOL0     H16280   4.277   2.371   2.350 -1.6585 -1.0019  2.4595
  121MOL0     H16281   4.118   2.461   2.346  0.5360 -0.2059 -1.6760
  121MOL0     H16282   4.303   2.525   2.129  4.0345 -2.3039  4.1465
  121MOL0     H16283   4.131   2.573   2.158  2.1862  1.7359 -0.4659
  121MOL0     H16284   4.218   2.286   2.110 -0.2295  0.2807  0.5961
  121MOL0     H16285   4.058   2.351   2.148  1.4556 -1.3401  2.3660
  121MOL0     H16286   4.331   2.367   1.884 -0.9632  0.7357  1.0103
  121MOL0     H16287   4.252   2.264   1.578 -2.1444 -0.1941 -3.1766
  121MOL0     H16288   4.140   2.384   1.530  0.0904 -0.9818  0.7048
  121MOL0     H16289   4.275   2.567   1.611 -0.9426  0.0914  1.0033
  121MOL0     H16290   4.411   2.444   1.632 -0.1888  0.1575  0.0710
  121MOL0     H16291   4.386   2.595   1.403 -0.8679 -0.0632 -0.2466
  121MOL0     H16292   4.258   2.485   1.374  1.2954 -1.3865 -0.9312
  121MOL0     H16293   4.488   2.391   1.281  1.3975 -1.1052  0.3701
  121MOL0     H16294   4.383   2.289   1.374  1.0433 -1.5981 -0.5078
  121MOL0     H16295   4.736   2.245   1.575 -0.0300 -0.0019 -3.1840
  121MOL0     H16296   4.958   2.361   1.661  0.7438  2.2317  1.1038
  121MOL0     H16297   5.125   2.673   1.855  0.4826 -1.5809  1.7847
  121MOL0     H16298   5.323   2.747   1.977  1.6875  0.6961  1.2462
  121MOL0     H16299   5.705   2.545   1.907 -0.0665 -0.4294 -0.4509
  121MOL0     H16300   5.716   2.662   1.779  0.9119  0.9479  0.9619
  121MOL0     H16301   5.798   2.848   1.954  1.7043  0.2139 -1.1361
  121MOL0     H16302   5.823   2.703   2.053  0.4917 -1.5442 -0.0045
  121MOL0     H16303   5.950   2.598   1.940  0.6693 -0.3017 -0.6858
  121MOL0     H16304   5.949   2.695   1.791  2.4399 -1.2776  0.2235
  121MOL0     H16305   6.022   2.819   2.053  0.4220 -1.6172 -0.2321
  121MOL0     H16306   6.060   2.878   1.884 -3.8922  0.1582 -0.4472
  121MOL0     H16307   6.191   2.665   1.852  1.9337  1.6159 -0.2200
  121MOL0     H16308   6.165   2.641   2.035  2.7987  0.0145  0.0848
  121MOL0     H16309   6.332   2.859   1.893  0.1352 -1.0540 -0.0329
  121MOL0     H16310   6.281   2.858   2.062  0.6567 -1.0448  0.4787
  121MOL0     H16311   6.461   2.646   1.928 -2.0901 -2.6127  0.4336
  121MOL0     H16312   6.421   2.665   2.098 -1.2405 -0.1346 -0.8902
  121MOL0     H16313   6.511   2.911   2.059 -1.1683 -1.9705  1.0355
  121MOL0     H16314   6.625   2.777   2.103  1.3682  0.1165 -0.6472
  121MOL0     H16315   5.565   2.500   1.714 -0.2244  2.0068 -3.3497
  121MOL0     H16316   5.379   2.450   1.593 -0.3124  0.9217 -1.3982
  121MOL0     H16317   4.798   2.724   1.491  1.2912 -1.0885  0.5852
  121MOL0     H16318   4.601   2.619   1.429 -1.0488  0.7967  2.2314
  121MOL0     H16319   4.501   3.194   2.447  1.5823  1.0313 -0.4152
  121MOL0     H16320   4.721   3.301   2.512 -1.2316  2.0240  0.5891
  121MOL0     H16321   4.948   3.437   2.883 -0.6132  0.5219 -3.0748
  121MOL0     H16322   5.139   3.591   2.979 -1.4604  2.4019 -1.8981
  121MOL0     H16323   5.438   3.704   2.747  0.2123  0.2849  0.6535
  121MOL0     H16324   5.525   3.551   2.780  1.5674  1.0784 -0.4760
  121MOL0     H16325   5.604   3.641   3.001  2.7816 -1.4039 -1.7659
  121MOL0     H16326   5.548   3.806   2.942  0.1850  0.7787 -3.0360
  121MOL0     H16327   5.723   3.747   2.744  1.5953  2.1034  1.0412
  121MOL0     H16328   5.751   3.594   2.825  1.9561  0.3365  0.8006
  121MOL0     H16329   5.933   3.784   2.857  2.2111  3.2021  3.1909
  121MOL0     H16330   5.806   3.876   2.926 -0.9360  0.1958 -1.1922
  121MOL0     H16331   5.923   3.670   3.276 -0.8440 -1.4081  0.0007
  121MOL0     H16332   5.387   3.462   2.664  1.0310  0.0035  1.5702
  121MOL0     H16333   5.218   3.194   2.543  0.1857  1.0150  0.0994
  121MOL0     H16334   5.150   3.337   2.456 -1.1709  0.4188  1.3446
  121MOL0     H16335   5.314   3.330   2.481 -0.0044 -0.9774 -2.3604
  122MOL0     O16336   7.810   1.145   8.450 -0.0478 -0.0580  0.5632
  122MOL0     C16337   7.814   1.063   8.353  1.0887 -0.1385 -0.4327
  122MOL0     O16338   7.924   1.035   8.273 -0.6077  0.2611  0.2932
  122MOL0     C16339   8.032   1.121   8.266  0.1278  0.0394  0.3339
  122MOL0     C16340   8.135   1.078   8.176 -0.2635 -0.3220 -0.5940
  122MOL0     C16341   8.259   1.144   8.164  0.0673  0.0256 -0.0577
  122MOL0     C16342   8.288   1.254   8.234  0.2910  0.3425 -0.0250
  122MOL0     O16343   8.405   1.318   8.231  0.3642 -0.9326  0.4257
  122MOL0     C16344   8.406   1.453   8.194  0.7379  0.1632  0.3910
  122MOL0     C16345   8.544   1.520   8.225 -0.1886 -1.0224 -0.6160
  122MOL0     C16346   8.614   1.478   8.363  0.7085  0.0653  0.0478
  122MOL0     C16347   8.725   1.372   8.348 -0.7866  0.2475  0.3777
  122MOL0     C16348   8.784   1.328   8.481  0.0965 -0.2401 -0.1632
  122MOL0     C16349   8.836   1.452   8.563 -0.9767  0.2359  0.3678
  122MOL0     C16350   8.903   1.402   8.689 -0.7552  0.0318 -0.3491
  122MOL0     C16351   8.952   1.525   8.770  0.4075  0.1395  0.8427
  122MOL0     N16352   9.051   1.485   8.869  0.2305 -0.3849 -0.9735
  122MOL0     C16353   9.030   1.428   8.989  0.2966  0.1623 -0.0356
  122MOL0     C16354   9.140   1.437   9.059 -1.1779  0.1496 -0.4661
  122MOL0     C16355   9.184   1.394   9.197  0.2090 -0.0234  0.6301
  122MOL0     C16356   9.272   1.271   9.187  0.2194  0.0408  0.1179
  122MOL0     C16357   9.294   1.224   9.333 -0.0144 -0.2672 -0.2347
  122MOL0     C16358   9.387   1.108   9.347  0.9855  0.3386  0.1881
  122MOL0     O16359   9.320   0.998   9.275 -0.5138 -0.1174  1.1088
  122MOL0     C16360   9.377   0.871   9.291  0.4789 -0.3137  0.0863
  122MOL0     C16361   9.471   0.833   9.393 -0.0472  0.2039  0.4305
  122MOL0     C16362   9.512   0.703   9.393  0.0624 -0.3904 -0.4310
  122MOL0     C16363   9.454   0.610   9.301 -1.0053  0.4545  0.2986
  122MOL0     C16364   9.501   0.465   9.318  1.0958  0.2345 -0.0967
  122MOL0     O16365   9.508   0.392   9.205 -0.2504  0.1657 -0.0951
  122MOL0     C16366   9.524   0.255   9.211 -0.2423  0.4841 -1.0327
  122MOL0     C16367   9.441   0.165   9.283 -0.3515  0.2193  0.4560
  122MOL0     C16368   9.471   0.028   9.268  0.2757  0.0970 -0.1927
  122MOL0     C16369   9.578  -0.031   9.196  0.3918 -0.6375 -0.7834
  122MOL0     O16370   9.595  -0.168   9.200  0.9391  0.9436  0.1813
  122MOL0     C16371   9.720  -0.221   9.184  0.7030  0.0598  0.8882
  122MOL0     C16372   9.687  -0.378   9.166 -0.0524  0.3670 -0.3710
  122MOL0     C16373   9.692  -0.415   9.019 -0.1716  0.3200  0.6127
  122MOL0     C16374   9.560  -0.384   8.951  0.4043  0.0622 -0.1478
  122MOL0     C16375   9.557  -0.441   8.808  0.4323  0.2771 -0.3491
  122MOL0     C16376   9.443  -0.398   8.717 -0.5265  0.6945  0.4139
  122MOL0     C16377   9.305  -0.422   8.785 -0.0800  0.3777 -0.6042
  122MOL0     C16378   9.195  -0.386   8.698 -0.0238 -0.2931 -1.0973
  122MOL0    Cl16379   9.195  -0.508   8.554 -0.2432 -0.0496 -0.3389
  122MOL0     C16380   9.667   0.064   9.144  0.2434  0.3809 -1.0009
  122MOL0     C16381   9.638   0.197   9.152  0.4209 -1.2085  0.3038
  122MOL0     O16382   9.549   0.430   9.427  0.2446 -0.0859 -0.6986
  122MOL0     C16383   9.364   0.649   9.205  0.5369  0.4299  0.0935
  122MOL0     C16384   9.331   0.781   9.198 -0.8659  0.1695  0.6633
  122MOL0     N16385   9.237   1.498   8.980  0.2531  0.6511  0.9811
  122MOL0     N16386   9.183   1.522   8.866 -0.4750 -0.2856  0.5787
  122MOL0     C16387   8.188   1.297   8.333 -0.4318  0.6481 -0.3721
  122MOL0     C16388   8.068   1.232   8.348 -0.2613  0.3702  0.8097
  122MOL0     C16389   7.675   1.022   8.312  0.1992  0.7479 -0.4157
  122MOL0     C16390   7.569   1.107   8.303 -0.1687 -0.5548  0.2517
  122MOL0     C16391   7.443   1.060   8.258 -0.7237 -0.3532 -0.2566
  122MOL0     C16392   7.421   0.935   8.223  0.5691  0.0326  0.2539
  122MOL0     O16393   7.293   0.901   8.190 -0.0382  0.7515  0.5721
  122MOL0     C16394   7.283   0.791   8.093  1.4272  0.3860 -0.3050
  122MOL0     C16395   7.202   0.849   7.974 -0.0617  0.2127 -0.4188
  122MOL0     C16396   7.050   0.850   7.988 -0.0406  0.1591  0.2341
  122MOL0     C16397   6.979   0.914   7.871 -0.0900 -0.4148  0.1436
  122MOL0     C16398   6.841   0.906   7.901 -0.4769  0.5324  0.4102
  122MOL0     C16399   6.729   0.913   7.937  0.5913 -0.2916 -0.1814
  122MOL0     C16400   7.521   0.846   8.239 -0.4176 -0.4307  0.6560
  122MOL0     C16401   7.649   0.883   8.284  0.1512 -1.1598  0.2592
  122MOL0     C16402   7.752   0.779   8.294 -0.8070 -0.2927  0.2028
  122MOL0     H16403   8.113   0.997   8.108 -1.5571  0.2472 -0.8808
  122MOL0     H16404   8.339   1.109   8.099  1.1248  1.0568  0.6461
  122MOL0     H16405   8.376   1.467   8.090 -0.2420 -0.3959  0.5852
  122MOL0     H16406   8.339   1.510   8.258  1.7297  1.4832  0.2926
  122MOL0     H16407   8.519   1.626   8.229 -2.2807 -1.3493 -2.8577
  122MOL0     H16408   8.615   1.505   8.144  0.5273 -0.3729 -0.1170
  122MOL0     H16409   8.538   1.427   8.424 -2.8070  1.0364 -3.0928
  122MOL0     H16410   8.643   1.567   8.419 -0.8940 -0.1233  1.2453
  122MOL0     H16411   8.678   1.292   8.290 -1.1148  1.1295 -0.5913
  122MOL0     H16412   8.804   1.412   8.283 -3.4109  2.7273 -1.5123
  122MOL0     H16413   8.698   1.283   8.534  0.4201 -1.7885 -0.8886
  122MOL0     H16414   8.869   1.261   8.467 -1.4988 -1.8868 -2.8455
  122MOL0     H16415   8.902   1.503   8.492 -0.3035  1.6485  1.9513
  122MOL0     H16416   8.755   1.521   8.586 -0.5730  0.7107  0.3908
  122MOL0     H16417   8.985   1.334   8.663 -0.0817  0.9825 -0.7715
  122MOL0     H16418   8.826   1.350   8.746 -1.0019  0.1407 -0.5826
  122MOL0     H16419   8.998   1.599   8.706  2.1493 -1.3438  0.3091
  122MOL0     H16420   8.868   1.575   8.820 -0.1029 -0.9006  1.0734
  122MOL0     H16421   8.940   1.383   9.031  2.4496 -2.6997  1.8856
  122MOL0     H16422   9.235   1.474   9.251  0.4426 -0.8660  1.7004
  122MOL0     H16423   9.100   1.364   9.261  1.8948 -0.7562  2.6039
  122MOL0     H16424   9.218   1.189   9.140 -1.3448 -0.8398  3.2273
  122MOL0     H16425   9.362   1.298   9.129  0.2096 -2.1841 -1.0402
  122MOL0     H16426   9.204   1.207   9.393  0.1096 -2.1826 -0.5409
  122MOL0     H16427   9.331   1.313   9.386  0.0479 -1.1535  1.2498
  122MOL0     H16428   9.398   1.088   9.454  1.7854  1.1686  0.2761
  122MOL0     H16429   9.485   1.132   9.305 -0.2106  1.3137 -2.2416
  122MOL0     H16430   9.504   0.904   9.468 -0.9594 -0.7308  1.7584
  122MOL0     H16431   9.591   0.668   9.460  0.5472 -1.3269 -1.4529
  122MOL0     H16432   9.352   0.197   9.337  0.3093  1.0280  1.0849
  122MOL0     H16433   9.419  -0.048   9.324  0.2244  0.5765  0.4271
  122MOL0     H16434   9.760  -0.178   9.092 -0.6501  1.2953  0.8415
  122MOL0     H16435   9.782  -0.198   9.271  0.0435 -1.0415  1.6814
  122MOL0     H16436   9.763  -0.435   9.220 -0.2487 -1.7270 -2.1959
  122MOL0     H16437   9.594  -0.410   9.214  0.0066 -1.3769 -1.3539
  122MOL0     H16438   9.779  -0.377   8.965  1.5673  2.0460  4.2650
  122MOL0     H16439   9.709  -0.523   9.022  2.4106  0.6502 -0.3492
  122MOL0     H16440   9.541  -0.277   8.941 -1.0786 -0.1489  0.1550
  122MOL0     H16441   9.477  -0.417   9.014  0.2073 -0.3271 -0.6028
  122MOL0     H16442   9.557  -0.550   8.814  0.7162  0.2469 -0.8431
  122MOL0     H16443   9.648  -0.400   8.763 -0.2988  1.1778 -1.0601
  122MOL0     H16444   9.442  -0.290   8.696 -0.4253  0.0498 -3.8001
  122MOL0     H16445   9.449  -0.454   8.623  1.9853  0.2415  0.7764
  122MOL0     H16446   9.295  -0.371   8.881 -0.4815  4.1453 -2.4877
  122MOL0     H16447   9.296  -0.530   8.800 -0.3828  0.2816 -1.4299
  122MOL0     H16448   9.098  -0.389   8.750  1.1844  0.7928  1.4001
  122MOL0     H16449   9.220  -0.286   8.662 -1.4738 -0.0466 -1.4840
  122MOL0     H16450   9.749   0.029   9.083  0.6292 -0.2468 -0.1251
  122MOL0     H16451   9.705   0.269   9.106  1.1319 -1.6900  0.5700
  122MOL0     H16452   9.328   0.585   9.125  0.1983 -0.0687  0.6244
  122MOL0     H16453   9.262   0.818   9.123 -1.9984 -2.0098  0.5443
  122MOL0     H16454   8.201   1.380   8.401 -2.1508  0.9737 -0.3834
  122MOL0     H16455   8.007   1.283   8.422  2.1544  2.2434  1.6751
  122MOL0     H16456   7.574   1.214   8.321 -0.0942 -0.7015  1.1521
  122MOL0     H16457   7.365   1.137   8.262  1.0740  1.5136  0.7617
  122MOL0     H16458   7.233   0.707   8.142 -0.1389  0.6363 -1.3994
  122MOL0     H16459   7.379   0.767   8.046  1.1257  0.2357 -0.8563
  122MOL0     H16460   7.204   0.781   7.888 -1.3233 -1.3852  0.7310
  122MOL0     H16461   7.245   0.949   7.961  0.0853  0.3007  0.7169
  122MOL0     H16462   7.032   0.918   8.072 -0.4702  2.7454 -1.8208
  122MOL0     H16463   7.007   0.752   8.009 -1.1354  0.6272  0.2873
  122MOL0     H16464   7.024   1.014   7.867 -0.3201 -0.2849  0.7118
  122MOL0     H16465   6.998   0.870   7.772  0.2540  0.0971 -0.0261
  122MOL0     H16466   6.624   0.908   7.959  0.1864  0.4696 -1.7674
  122MOL0     H16467   7.500   0.742   8.213 -2.3694 -0.4928  2.2800
  122MOL0     H16468   7.846   0.817   8.336 -0.9139  1.6906 -1.1991
  122MOL0     H16469   7.708   0.688   8.336 -1.2886 -1.2664 -2.2392
  122MOL0     H16470   7.786   0.740   8.197 -1.3999 -0.0635 -0.1042
  123MOL0     O16471   9.749   8.004   8.096  1.0397 -0.0579 -0.2068
  123MOL0     C16472   9.800   7.946   8.189  0.1881  0.2622  0.0962
  123MOL0     O16473   9.929   7.898   8.196 -0.4187  0.4262  0.3263
  123MOL0     C16474  10.020   7.894   8.096  0.2614 -0.1072  0.5107
  123MOL0     C16475  10.152   7.883   8.142 -0.0361 -0.1326 -0.4739
  123MOL0     C16476  10.257   7.885   8.055  0.0697  0.3365 -0.4960
  123MOL0     C16477  10.236   7.901   7.916  0.1711  0.0978 -1.1746
  123MOL0     O16478  10.354   7.918   7.849 -0.0128 -0.6025 -0.2114
  123MOL0     C16479  10.332   7.902   7.711  0.0761 -0.4547 -0.5372
  123MOL0     C16480  10.460   7.910   7.629 -0.2050  0.4083 -0.5263
  123MOL0     C16481  10.524   8.049   7.640 -0.0173  0.9193 -0.1639
  123MOL0     C16482  10.675   8.033   7.596 -0.2983  0.0555 -0.1675
  123MOL0     C16483  10.735   8.168   7.578 -0.1904  0.4497 -0.2319
  123MOL0     C16484  10.887   8.155   7.581 -0.1513  0.3286  0.2367
  123MOL0     C16485  10.948   8.294   7.576 -0.8308 -0.2923  0.1406
  123MOL0     C16486  11.094   8.302   7.570  1.1297  0.0208 -0.0861
  123MOL0     N16487  11.155   8.267   7.704 -0.0684 -0.2133  0.7039
  123MOL0     C16488  11.172   8.355   7.812  1.1188 -0.2544  1.0882
  123MOL0     C16489  11.256   8.299   7.903  0.4485  0.0206  0.3394
  123MOL0     C16490  11.311   8.347   8.033 -0.1786  0.3929  0.2182
  123MOL0     C16491  11.371   8.480   8.003 -0.5686  0.3307  0.3091
  123MOL0     C16492  11.516   8.478   7.951 -0.4220  0.0524 -0.5558
  123MOL0     C16493  11.538   8.436   7.800  0.2461  0.7587  0.2929
  123MOL0     O16494  11.669   8.480   7.760 -0.2939 -0.1541 -0.5253
  123MOL0     C16495  11.779   8.401   7.794 -0.1980 -0.3400 -0.3530
  123MOL0     C16496  11.776   8.273   7.859  0.6800 -0.2327  0.3791
  123MOL0     C16497  11.887   8.207   7.886  0.0240  1.0942 -0.0982
  123MOL0     C16498  12.017   8.263   7.859 -0.0788  0.2310  0.5122
  123MOL0     C16499  12.139   8.190   7.903 -0.4004 -0.6239 -0.0551
  123MOL0     O16500  12.122   8.066   7.960  0.5902 -0.6092 -0.1787
  123MOL0     C16501  12.212   7.966   7.964 -0.0835 -0.2578  1.1115
  123MOL0     C16502  12.168   7.840   8.005 -0.1406  0.4177  0.6426
  123MOL0     C16503  12.258   7.737   8.012 -0.0245 -0.7771  0.0146
  123MOL0     C16504  12.394   7.750   7.978  0.6267 -0.4783 -0.1629
  123MOL0     O16505  12.464   7.634   7.989  0.3383 -0.4903  0.6982
  123MOL0     C16506  12.604   7.636   7.960  0.1583 -0.4494  0.8487
  123MOL0     C16507  12.668   7.542   8.064  0.5941 -0.0654 -0.4336
  123MOL0     C16508  12.817   7.536   8.052 -0.3903  0.2333 -0.2823
  123MOL0     C16509  12.899   7.482   8.173  0.4588 -0.3859  0.4801
  123MOL0     C16510  13.048   7.496   8.149 -0.1687  0.0972 -0.5539
  123MOL0     C16511  13.130   7.464   8.269  0.8752  0.7649 -0.4842
  123MOL0     C16512  13.280   7.471   8.241  0.4779 -0.4546  0.5094
  123MOL0     C16513  13.340   7.503   8.382 -0.4029  0.5656  0.5545
  123MOL0    Cl16514  13.295   7.373   8.501  0.1725 -0.4117 -0.0253
  123MOL0     C16515  12.435   7.876   7.922  0.2340  0.3552  0.0298
  123MOL0     C16516  12.340   7.976   7.918 -0.1192  0.8902  0.0623
  123MOL0     O16517  12.246   8.244   7.880  0.1698  0.0062  0.0705
  123MOL0     C16518  12.031   8.386   7.782  0.2828 -0.3172  0.1661
  123MOL0     C16519  11.909   8.457   7.765  0.3501  0.2861 -0.4334
  123MOL0     N16520  11.292   8.182   7.839 -0.5976 -0.0125 -0.9206
  123MOL0     N16521  11.227   8.161   7.725  0.5711  0.2905 -0.1939
  123MOL0     C16522  10.100   7.907   7.867 -0.7220  0.5868  0.5053
  123MOL0     C16523   9.997   7.911   7.957  0.1888 -1.3655 -0.1711
  123MOL0     C16524   9.725   7.936   8.319  0.1244 -0.6996 -0.2013
  123MOL0     C16525   9.788   7.986   8.439 -0.7547  0.2884 -0.9022
  123MOL0     C16526   9.724   7.981   8.559 -0.2564 -0.7012 -0.4369
  123MOL0     C16527   9.584   7.956   8.560 -0.1406 -0.8323  0.6756
  123MOL0     O16528   9.523   7.976   8.686  0.4440 -0.0088  0.4075
  123MOL0     C16529   9.382   7.953   8.703  0.4799 -0.2119 -0.8189
  123MOL0     C16530   9.302   8.071   8.655  0.0363  0.2788  0.7967
  123MOL0     C16531   9.153   8.065   8.706 -0.7939 -0.2848  1.1151
  123MOL0     C16532   9.086   8.204   8.675 -0.4581  0.2855 -0.0549
  123MOL0     C16533   8.965   8.211   8.753  0.6672 -0.0333 -0.3823
  123MOL0     C16534   8.873   8.222   8.836  0.7923  0.0957  0.1657
  123MOL0     C16535   9.526   7.903   8.446  0.6424 -0.0115  0.1851
  123MOL0     C16536   9.591   7.896   8.326  0.2439 -0.3778  0.3816
  123MOL0     C16537   9.519   7.841   8.204  0.3430 -0.6204  0.5967
  123MOL0     H16538  10.154   7.874   8.250  0.6710  1.1028 -0.3697
  123MOL0     H16539  10.352   7.891   8.107  0.0426  1.8797 -0.5766
  123MOL0     H16540  10.280   7.809   7.688 -1.9605  0.6136 -0.5501
  123MOL0     H16541  10.274   7.989   7.678  0.3300  1.0048  2.5439
  123MOL0     H16542  10.444   7.880   7.525 -1.9335 -0.6184  0.0022
  123MOL0     H16543  10.526   7.833   7.670 -0.0393  0.4231 -0.7589
  123MOL0     H16544  10.534   8.073   7.746  1.9466 -2.4206  0.5489
  123MOL0     H16545  10.460   8.124   7.591 -3.0647  0.3343  2.5663
  123MOL0     H16546  10.733   7.980   7.673 -0.7511  0.5461  0.5236
  123MOL0     H16547  10.675   7.985   7.498 -0.9401 -0.1321 -0.0745
  123MOL0     H16548  10.695   8.210   7.486 -3.1073 -4.6354 -1.6884
  123MOL0     H16549  10.696   8.225   7.663 -2.6044 -0.4845 -0.6390
  123MOL0     H16550  10.910   8.095   7.669 -2.0814 -2.2735 -0.9070
  123MOL0     H16551  10.921   8.091   7.498  3.0111 -1.5074  2.6879
  123MOL0     H16552  10.911   8.330   7.673  2.3828  0.6930  1.1297
  123MOL0     H16553  10.907   8.351   7.493 -1.3931 -1.3776 -0.3521
  123MOL0     H16554  11.136   8.241   7.490  0.5727  2.0233 -2.0043
  123MOL0     H16555  11.123   8.405   7.550  1.2392 -0.0652 -0.3805
  123MOL0     H16556  11.126   8.453   7.819  0.3515 -0.4650 -0.5163
  123MOL0     H16557  11.236   8.355   8.113 -2.1829  0.9490 -1.6154
  123MOL0     H16558  11.384   8.272   8.066 -0.3922  0.3243  0.5429
  123MOL0     H16559  11.306   8.534   7.933  0.6645  0.5172 -0.7322
  123MOL0     H16560  11.367   8.541   8.094 -1.9724  1.0112 -0.1799
  123MOL0     H16561  11.573   8.415   8.020 -1.3121 -2.8809 -2.3275
  123MOL0     H16562  11.562   8.577   7.960 -1.1222  0.3984 -0.7006
  123MOL0     H16563  11.459   8.480   7.738 -1.5815  0.1035  2.0631
  123MOL0     H16564  11.530   8.329   7.780  1.0505  0.8581 -0.6848
  123MOL0     H16565  11.686   8.222   7.891  1.6078 -0.6427  2.4968
  123MOL0     H16566  11.869   8.118   7.945 -2.6988  2.4921  1.3494
  123MOL0     H16567  12.065   7.820   8.030  0.2292 -2.4213  0.1550
  123MOL0     H16568  12.231   7.637   8.045 -0.4154 -0.0817  1.9210
  123MOL0     H16569  12.622   7.589   7.862 -3.3986 -0.9742  0.3101
  123MOL0     H16570  12.646   7.736   7.972 -2.6815  0.6409  2.5673
  123MOL0     H16571  12.638   7.576   8.164  0.2747 -1.0064 -0.1980
  123MOL0     H16572  12.616   7.446   8.056 -1.5356  0.6110  3.0278
  123MOL0     H16573  12.848   7.472   7.969  3.0494  0.7353  0.4452
  123MOL0     H16574  12.855   7.637   8.033  0.3368  0.0876  0.3716
  123MOL0     H16575  12.874   7.378   8.192 -2.0367 -0.0819 -0.6872
  123MOL0     H16576  12.870   7.536   8.264 -2.9907 -3.1906  1.2638
  123MOL0     H16577  13.062   7.604   8.140 -0.6474  0.0294 -2.7173
  123MOL0     H16578  13.075   7.438   8.060  0.6120  0.0038 -0.2554
  123MOL0     H16579  13.103   7.535   8.347  2.3527  1.6952 -0.7764
  123MOL0     H16580  13.102   7.363   8.302 -2.1444  1.7054  0.1305
  123MOL0     H16581  13.304   7.554   8.173  2.2612 -2.0406 -0.9099
  123MOL0     H16582  13.325   7.384   8.193  1.8568  1.1792 -1.3287
  123MOL0     H16583  13.449   7.516   8.373 -0.1083 -2.3266 -1.9516
  123MOL0     H16584  13.305   7.598   8.422  1.8669  2.7679 -2.2076
  123MOL0     H16585  12.532   7.883   7.874  0.7339  0.5279  1.0349
  123MOL0     H16586  12.393   8.060   7.874  1.9567 -0.2834  0.1839
  123MOL0     H16587  12.125   8.430   7.751 -0.9041  0.7916 -2.1228
  123MOL0     H16588  11.903   8.561   7.735 -0.2589  0.3216 -0.1874
  123MOL0     H16589  10.082   7.921   7.761 -2.4420 -0.8691  0.5595
  123MOL0     H16590   9.902   7.939   7.912  1.1473 -2.5083 -3.1139
  123MOL0     H16591   9.888   8.028   8.440 -0.4480 -0.4109  0.8441
  123MOL0     H16592   9.770   8.023   8.648 -1.0878 -0.6232 -0.0290
  123MOL0     H16593   9.359   7.951   8.810  2.4339 -1.9584 -0.3762
  123MOL0     H16594   9.339   7.864   8.656 -0.1334 -1.6240  2.1515
  123MOL0     H16595   9.323   8.090   8.550 -1.9498  0.5166  0.4082
  123MOL0     H16596   9.345   8.157   8.706  0.4327 -0.8121  2.3866
  123MOL0     H16597   9.167   8.044   8.812  3.2970 -0.0296  0.7763
  123MOL0     H16598   9.100   7.981   8.660  0.4641  0.0050 -1.0406
  123MOL0     H16599   9.152   8.289   8.693 -2.6382  2.2746 -1.0017
  123MOL0     H16600   9.067   8.197   8.567 -1.4291 -0.0526  0.1317
  123MOL0     H16601   8.807   8.254   8.914  1.0296 -0.0179  0.4174
  123MOL0     H16602   9.424   7.868   8.448  0.7331 -0.3019 -0.2195
  123MOL0     H16603   9.436   7.780   8.241  1.2954 -0.9434  2.3227
  123MOL0     H16604   9.474   7.920   8.144 -1.7986  0.7194  3.6954
  123MOL0     H16605   9.581   7.775   8.143 -3.2954 -1.8095 -2.1797
  124MOL0     O16606   2.967   9.782   4.693  0.6131  0.3923 -0.1788
  124MOL0     C16607   2.914   9.675   4.715  0.0094 -0.0225  0.3985
  124MOL0     O16608   2.986   9.572   4.774  0.0639  0.5892  0.4343
  124MOL0     C16609   3.108   9.600   4.829 -0.4061  0.3671 -0.1457
  124MOL0     C16610   3.223   9.600   4.751  0.1470  0.4441  0.2031
  124MOL0     C16611   3.358   9.624   4.806  0.4485 -0.1174 -0.0219
  124MOL0     C16612   3.366   9.667   4.941 -0.0994  0.5580  0.5406
  124MOL0     O16613   3.491   9.703   4.985 -0.8627 -0.2040 -0.4854
  124MOL0     C16614   3.512   9.702   5.125 -0.6343 -0.4965 -0.3794
  124MOL0     C16615   3.663   9.675   5.139 -1.3423  0.4118  0.5008
  124MOL0     C16616   3.750   9.790   5.110 -0.5485 -0.2876 -0.5641
  124MOL0     C16617   3.889   9.766   5.167 -0.2121 -1.5876 -0.0564
  124MOL0     C16618   3.981   9.880   5.130 -0.0845  0.6612  0.1547
  124MOL0     C16619   4.126   9.822   5.137  0.5982  0.6022  0.1560
  124MOL0     C16620   4.232   9.938   5.107 -0.1875  0.0096  0.4370
  124MOL0     C16621   4.366   9.881   5.064  0.4000 -0.6771 -0.0464
  124MOL0     N16622   4.357   9.795   4.946  0.3402  0.0307 -0.5033
  124MOL0     C16623   4.368   9.840   4.812 -0.1808 -0.0469 -0.5985
  124MOL0     C16624   4.386   9.730   4.750 -1.0085 -0.3418  0.1267
  124MOL0     C16625   4.405   9.720   4.599  0.5582  0.0009  0.2221
  124MOL0     C16626   4.269   9.747   4.532 -0.0656 -0.5076 -0.4072
  124MOL0     C16627   4.281   9.725   4.375 -0.0067  0.9941  0.5313
  124MOL0     C16628   4.398   9.810   4.321  1.1240  0.4997  0.0807
  124MOL0     O16629   4.392   9.948   4.364 -0.0599 -0.5903 -0.1154
  124MOL0     C16630   4.498  10.029   4.334  0.3399  0.2430  0.2385
  124MOL0     C16631   4.591   9.999   4.236  0.3877  0.4333 -0.2965
  124MOL0     C16632   4.708  10.076   4.234 -0.7320  0.3648 -1.2806
  124MOL0     C16633   4.724  10.193   4.308 -0.4230 -0.3499  0.2234
  124MOL0     C16634   4.843  10.272   4.310 -0.3193 -0.7235  0.3644
  124MOL0     O16635   4.917  10.278   4.200 -0.0624 -0.5459 -0.0599
  124MOL0     C16636   5.048  10.309   4.219  0.3246  0.2183  0.6600
  124MOL0     C16637   5.094  10.436   4.175  0.2839 -0.1109 -0.1459
  124MOL0     C16638   5.220  10.476   4.166  0.3276 -0.4648  0.8502
  124MOL0     C16639   5.313  10.398   4.236 -1.7112  0.4555  0.6030
  124MOL0     O16640   5.448  10.444   4.242  1.0261  0.3919  0.0979
  124MOL0     C16641   5.549  10.352   4.260 -0.1378  0.0236 -1.3226
  124MOL0     C16642   5.673  10.438   4.277 -0.6114  0.2736  0.2967
  124MOL0     C16643   5.797  10.355   4.239 -0.2380 -0.7137  0.6133
  124MOL0     C16644   5.920  10.431   4.218 -0.6390  0.2956  0.4338
  124MOL0     C16645   6.032  10.346   4.168 -0.4665 -0.9318 -0.3544
  124MOL0     C16646   6.155  10.429   4.134 -0.4549  0.3562 -0.1974
  124MOL0     C16647   6.237  10.483   4.250 -0.1262  0.6767  0.1382
  124MOL0     C16648   6.385  10.442   4.223 -0.0498  0.2172  0.3545
  124MOL0    Cl16649   6.484  10.517   4.355  0.0742 -0.0313 -0.4680
  124MOL0     C16650   5.277  10.270   4.285 -0.9590 -1.0414 -0.5186
  124MOL0     C16651   5.147  10.223   4.270  0.4671 -0.0807  0.7172
  124MOL0     O16652   4.875  10.316   4.414  0.0661 -0.5276 -0.0440
  124MOL0     C16653   4.615  10.227   4.397 -0.1797  0.3278 -0.7979
  124MOL0     C16654   4.512  10.138   4.413 -0.4559 -0.4073  0.0061
  124MOL0     N16655   4.382   9.626   4.836  0.2790  0.4791 -0.5742
  124MOL0     N16656   4.361   9.663   4.953 -0.1592 -0.2568  0.2632
  124MOL0     C16657   3.247   9.662   5.020  0.4639  0.5707  0.0410
  124MOL0     C16658   3.118   9.621   4.967  0.7557  0.1979 -0.3821
  124MOL0     C16659   2.782   9.642   4.662  0.1719  0.0311 -0.1928
  124MOL0     C16660   2.776   9.507   4.619  0.0863 -0.3958  0.4880
  124MOL0     C16661   2.662   9.456   4.551  0.1885  0.3581 -0.0869
  124MOL0     C16662   2.549   9.539   4.541  0.3016 -0.1410  0.2348
  124MOL0     O16663   2.445   9.506   4.452 -0.4856 -0.2239 -0.0906
  124MOL0     C16664   2.400   9.373   4.463  0.5685 -0.5646  0.2016
  124MOL0     C16665   2.263   9.381   4.532 -0.4647 -0.0478  0.7272
  124MOL0     C16666   2.186   9.247   4.522  0.1353  0.2581 -0.4884
  124MOL0     C16667   2.087   9.249   4.638 -0.2579  0.4421 -0.1952
  124MOL0     C16668   2.021   9.117   4.636 -0.4231  0.5433 -0.1534
  124MOL0     C16669   1.967   9.003   4.619  0.5438 -0.5774 -0.2417
  124MOL0     C16670   2.556   9.670   4.597 -0.0970  0.0356 -0.0853
  124MOL0     C16671   2.671   9.724   4.655  1.3487  0.4160  0.6722
  124MOL0     C16672   2.674   9.867   4.702  0.0913  0.1847  0.1709
  124MOL0     H16673   3.215   9.579   4.645 -0.0790 -1.1209  0.5001
  124MOL0     H16674   3.450   9.629   4.749  0.2832  0.0262 -0.2727
  124MOL0     H16675   3.483   9.795   5.174  2.6510  0.4135  0.0277
  124MOL0     H16676   3.454   9.620   5.170 -1.1012 -0.0281 -0.1081
  124MOL0     H16677   3.679   9.600   5.061  0.2116  0.5823  0.6367
  124MOL0     H16678   3.685   9.627   5.235 -1.1874 -0.9254 -0.1760
  124MOL0     H16679   3.713   9.882   5.156  0.8356 -1.0088  2.1678
  124MOL0     H16680   3.757   9.807   5.002  3.9395 -0.3533 -0.4693
  124MOL0     H16681   3.893   9.754   5.276 -0.2095  0.3908  0.1922
  124MOL0     H16682   3.927   9.674   5.123  0.2696 -0.8482 -1.2228
  124MOL0     H16683   3.956   9.920   5.031 -0.2011 -1.5821 -0.7730
  124MOL0     H16684   3.970   9.968   5.195 -4.2653 -1.7334  3.2327
  124MOL0     H16685   4.151   9.782   5.236  2.1643 -1.7467 -1.0934
  124MOL0     H16686   4.129   9.739   5.066 -0.9036 -1.0598  1.9449
  124MOL0     H16687   4.246  10.004   5.193  1.0845 -0.5771  0.6962
  124MOL0     H16688   4.190   9.998   5.026 -3.6436  0.4031  2.3120
  124MOL0     H16689   4.435   9.963   5.039  0.5789 -1.1983 -1.3368
  124MOL0     H16690   4.416   9.825   5.144  2.9675 -0.2568 -1.2602
  124MOL0     H16691   4.369   9.941   4.771  1.4077 -0.1455 -0.8655
  124MOL0     H16692   4.480   9.796   4.573  2.0763 -0.6514  2.4119
  124MOL0     H16693   4.442   9.620   4.576 -1.0427 -0.3481 -0.9934
  124MOL0     H16694   4.196   9.674   4.568 -1.2634  1.6915  1.9712
  124MOL0     H16695   4.230   9.848   4.551  0.1324 -0.6463  0.7649
  124MOL0     H16696   4.182   9.757   4.341 -0.2982  0.3022  0.6965
  124MOL0     H16697   4.298   9.622   4.342 -0.9462  1.1732 -0.5742
  124MOL0     H16698   4.385   9.816   4.213  2.2227 -0.4850 -0.1230
  124MOL0     H16699   4.491   9.755   4.340  1.0215  0.4463  0.4384
  124MOL0     H16700   4.573   9.906   4.182  2.4296 -1.2541  1.7089
  124MOL0     H16701   4.791  10.036   4.176  0.6540  0.9333  0.2104
  124MOL0     H16702   5.016  10.501   4.136  1.7699  2.0563  0.3638
  124MOL0     H16703   5.241  10.571   4.118 -1.3354 -1.2628 -1.6719
  124MOL0     H16704   5.543  10.303   4.357  2.1593 -1.5913 -1.9218
  124MOL0     H16705   5.550  10.276   4.181  0.0277 -1.5234  0.1187
  124MOL0     H16706   5.664  10.519   4.204  2.2141 -0.5985 -1.1469
  124MOL0     H16707   5.677  10.477   4.380  1.6216  1.9856 -0.3368
  124MOL0     H16708   5.816  10.298   4.330 -1.0542  1.9161  2.5262
  124MOL0     H16709   5.784  10.292   4.150  0.5182  1.8552 -1.4580
  124MOL0     H16710   5.949  10.477   4.312 -1.3093 -0.2755  0.9298
  124MOL0     H16711   5.898  10.509   4.144  3.5892 -0.3848 -1.8429
  124MOL0     H16712   5.998  10.285   4.083 -3.6618  2.5741 -1.9103
  124MOL0     H16713   6.063  10.275   4.244  0.0334 -1.6023 -1.1637
  124MOL0     H16714   6.220  10.370   4.069  0.1983  0.6527  0.1830
  124MOL0     H16715   6.119  10.514   4.074 -1.0682 -1.1512 -2.0697
  124MOL0     H16716   6.201  10.437   4.343 -2.9218  0.9619 -0.7041
  124MOL0     H16717   6.238  10.592   4.254 -0.2658  0.7152 -0.8316
  124MOL0     H16718   6.405  10.336   4.237 -1.8475 -0.4385 -1.5258
  124MOL0     H16719   6.414  10.472   4.122  1.8674 -1.9426  0.1738
  124MOL0     H16720   5.337  10.199   4.340 -0.9278  0.6942  1.8529
  124MOL0     H16721   5.116  10.122   4.296 -0.5229  0.2352  0.7998
  124MOL0     H16722   4.616  10.312   4.465  0.9027 -0.8675  0.7616
  124MOL0     H16723   4.436  10.154   4.490 -0.7084 -1.2764 -0.0467
  124MOL0     H16724   3.250   9.690   5.124 -2.8044  0.5920  0.2192
  124MOL0     H16725   3.033   9.620   5.033  1.6298 -1.1495  0.7692
  124MOL0     H16726   2.858   9.437   4.609  0.3785  0.1329 -1.1296
  124MOL0     H16727   2.664   9.355   4.510  0.4337  1.3265 -2.6264
  124MOL0     H16728   2.454   9.310   4.535 -0.2998 -3.4374 -1.4988
  124MOL0     H16729   2.406   9.319   4.368  1.5964 -2.5750  1.3518
  124MOL0     H16730   2.199   9.454   4.482 -0.6894  0.0756  1.1974
  124MOL0     H16731   2.268   9.396   4.640 -3.0720 -2.3438  1.2940
  124MOL0     H16732   2.249   9.158   4.534  1.3693  1.3941  2.7131
  124MOL0     H16733   2.133   9.241   4.427  0.1626  0.2055 -0.5004
  124MOL0     H16734   2.132   9.269   4.736 -1.8158 -0.0946  0.6729
  124MOL0     H16735   2.009   9.324   4.622 -0.7765  0.3400  1.6050
  124MOL0     H16736   1.913   8.910   4.620 -1.3140  0.4130  1.3772
  124MOL0     H16737   2.466   9.730   4.601 -0.7616 -0.9357  0.0741
  124MOL0     H16738   2.766   9.916   4.666  1.9169 -3.4088 -0.4918
  124MOL0     H16739   2.593   9.928   4.661  0.8980  0.4405 -1.1048
  124MOL0     H16740   2.665   9.874   4.811 -0.1176 -1.3830  0.2678
  125MOL0     O16741   1.785   5.940   3.859  0.3418  0.3586  0.0165
  125MOL0     C16742   1.772   6.043   3.927 -0.2962 -1.2609  0.4727
  125MOL0     O16743   1.859   6.149   3.932  0.0560 -0.2545 -0.1354
  125MOL0     C16744   1.974   6.141   3.862 -0.2269 -0.0245  0.0219
  125MOL0     C16745   2.086   6.073   3.919  0.7049  0.0989  0.6468
  125MOL0     C16746   2.199   6.067   3.837 -0.5701 -0.5411  0.4975
  125MOL0     C16747   2.212   6.139   3.709 -0.1738  0.0173 -1.0614
  125MOL0     O16748   2.318   6.149   3.622  0.1174  0.3415 -0.5371
  125MOL0     C16749   2.427   6.061   3.652 -0.3309  0.5242 -0.3191
  125MOL0     C16750   2.525   6.073   3.528  0.9813 -0.9196 -0.3022
  125MOL0     C16751   2.674   6.046   3.560  0.2500 -0.1406 -0.4799
  125MOL0     C16752   2.702   5.894   3.561  0.0204 -0.1075  0.2312
  125MOL0     C16753   2.841   5.874   3.618 -0.0520 -0.3557  0.2282
  125MOL0     C16754   2.963   5.944   3.538  0.2163  1.4047  0.0315
  125MOL0     C16755   2.957   5.920   3.382 -0.7985  0.1776  0.1787
  125MOL0     C16756   3.101   5.916   3.326  0.2519 -0.3464 -0.9919
  125MOL0     N16757   3.167   6.044   3.292  0.4413 -0.2223 -0.2250
  125MOL0     C16758   3.110   6.156   3.233  1.0365 -0.2163  0.9267
  125MOL0     C16759   3.206   6.246   3.216  0.9082 -0.1520  0.1377
  125MOL0     C16760   3.200   6.394   3.164  0.2074  0.4587  0.2900
  125MOL0     C16761   3.342   6.454   3.159  0.6283  0.2620  0.1264
  125MOL0     C16762   3.331   6.590   3.088 -0.8083 -0.5964  0.1514
  125MOL0     C16763   3.466   6.650   3.096 -1.1163 -0.6956  0.7313
  125MOL0     O16764   3.532   6.595   2.985 -0.4900 -0.0834 -0.0660
  125MOL0     C16765   3.651   6.660   2.941  0.5762  0.2767 -0.2213
  125MOL0     C16766   3.743   6.721   3.026 -0.3956  0.3383 -0.0945
  125MOL0     C16767   3.862   6.754   2.966  0.2900  0.0291 -0.1485
  125MOL0     C16768   3.894   6.727   2.828  0.5565  0.1481 -0.4944
  125MOL0     C16769   4.017   6.782   2.772  0.2775 -0.4886  0.5548
  125MOL0     O16770   4.053   6.731   2.646 -0.0366  0.0326 -0.1994
  125MOL0     C16771   4.187   6.734   2.625 -0.8866 -0.0700  0.9071
  125MOL0     C16772   4.289   6.685   2.714  0.2599 -0.4885  0.1982
  125MOL0     C16773   4.423   6.705   2.673  0.2004  0.0002 -0.2221
  125MOL0     C16774   4.463   6.751   2.548  0.4422 -1.4510 -0.0254
  125MOL0     O16775   4.595   6.775   2.508 -0.1844 -0.2041  0.1709
  125MOL0     C16776   4.691   6.701   2.582  0.0208 -0.0747 -0.7592
  125MOL0     C16777   4.834   6.696   2.516  0.2113  0.9788 -0.7713
  125MOL0     C16778   4.935   6.664   2.628 -0.1121 -0.4316 -0.0661
  125MOL0     C16779   5.070   6.640   2.565  0.4703  0.3622 -0.3770
  125MOL0     C16780   5.072   6.497   2.502 -0.1768 -0.2617 -0.1018
  125MOL0     C16781   5.212   6.449   2.460  0.6137 -0.6254  0.2426
  125MOL0     C16782   5.215   6.313   2.387 -0.0970 -0.6500 -0.1121
  125MOL0     C16783   5.352   6.280   2.350 -0.0998  0.0119 -0.1615
  125MOL0    Cl16784   5.349   6.111   2.284  0.6006 -0.2802  0.5710
  125MOL0     C16785   4.359   6.795   2.464  0.2967 -0.6394  0.1669
  125MOL0     C16786   4.226   6.784   2.503  0.2662  0.2389  0.0548
  125MOL0     O16787   4.080   6.867   2.837  0.3812 -0.8108  0.5156
  125MOL0     C16788   3.795   6.665   2.746 -0.6945  0.8893 -0.3219
  125MOL0     C16789   3.673   6.631   2.807 -0.4374 -0.2240  0.1247
  125MOL0     N16790   3.321   6.190   3.265 -0.5617 -0.0275  0.2643
  125MOL0     N16791   3.298   6.071   3.299  0.0710 -0.2497  0.4560
  125MOL0     C16792   2.091   6.198   3.665  0.0156 -0.1110  0.2944
  125MOL0     C16793   1.977   6.202   3.737  0.8231  0.0673  0.5853
  125MOL0     C16794   1.643   6.067   4.002 -0.9301  0.0543 -0.9289
  125MOL0     C16795   1.628   6.195   4.060 -0.5791 -0.2887 -0.0597
  125MOL0     C16796   1.523   6.221   4.139  0.0376  0.8124 -0.1378
  125MOL0     C16797   1.422   6.125   4.144  0.1701  0.2882 -0.0262
  125MOL0     O16798   1.319   6.148   4.227 -0.8491  0.0036 -0.4440
  125MOL0     C16799   1.245   6.264   4.196  0.4959  0.0816  0.5095
  125MOL0     C16800   1.118   6.280   4.277 -0.5950 -0.0459 -0.3250
  125MOL0     C16801   1.023   6.172   4.219 -0.3524  0.0187  0.6360
  125MOL0     C16802   0.873   6.205   4.266  0.4538 -0.5601  0.3463
  125MOL0     C16803   0.772   6.115   4.202 -1.2214  1.5341  0.3970
  125MOL0     C16804   0.684   6.053   4.144  0.0231 -0.1948  0.3348
  125MOL0     C16805   1.424   6.007   4.082 -0.0864  0.3129 -0.5744
  125MOL0     C16806   1.538   5.972   4.016 -0.1518  0.2229 -0.0038
  125MOL0     C16807   1.530   5.836   3.943 -0.0056  0.6193 -0.3877
  125MOL0     H16808   2.085   6.010   4.008 -4.0366 -0.6946  0.3186
  125MOL0     H16809   2.283   6.011   3.878  0.4371  0.9806  0.6020
  125MOL0     H16810   2.472   6.106   3.741 -0.4949  0.4084 -0.1779
  125MOL0     H16811   2.383   5.963   3.670 -2.0227  1.3057  0.0337
  125MOL0     H16812   2.523   6.180   3.504 -1.1439 -0.8411 -0.0053
  125MOL0     H16813   2.489   6.009   3.447 -2.0200 -1.8950  1.6036
  125MOL0     H16814   2.691   6.085   3.660 -1.8662 -1.8127  0.6111
  125MOL0     H16815   2.747   6.094   3.494 -0.6087  1.2562 -0.4384
  125MOL0     H16816   2.626   5.839   3.617 -0.2845  0.4981  0.4241
  125MOL0     H16817   2.700   5.868   3.455  1.5676  4.1301 -1.0170
  125MOL0     H16818   2.859   5.924   3.713  0.4310 -0.1315  0.0251
  125MOL0     H16819   2.863   5.767   3.625 -0.7253 -0.7015 -2.0029
  125MOL0     H16820   2.972   6.048   3.568 -1.5427  1.4484  0.5185
  125MOL0     H16821   3.050   5.898   3.585 -2.2688  0.0539  3.7403
  125MOL0     H16822   2.917   6.011   3.337  1.3215  1.6726  1.1253
  125MOL0     H16823   2.905   5.828   3.355 -1.6956  0.1841  1.7821
  125MOL0     H16824   3.166   5.856   3.391 -0.7548 -0.6609 -0.2342
  125MOL0     H16825   3.103   5.853   3.237 -0.2625 -0.3314 -1.0181
  125MOL0     H16826   3.005   6.162   3.205  1.1956  2.3932  0.6399
  125MOL0     H16827   3.147   6.407   3.070  1.1506  1.1208 -0.1750
  125MOL0     H16828   3.140   6.454   3.233 -1.1918 -0.7278  0.1528
  125MOL0     H16829   3.384   6.467   3.259  5.0721 -1.3880 -1.2861
  125MOL0     H16830   3.411   6.389   3.104  2.2276  3.8064 -2.4572
  125MOL0     H16831   3.258   6.647   3.147 -0.8500 -0.6826  0.1830
  125MOL0     H16832   3.308   6.575   2.982  0.4931 -1.4110 -0.0407
  125MOL0     H16833   3.522   6.638   3.189  0.3505  0.3851  0.0275
  125MOL0     H16834   3.470   6.757   3.075 -0.2644 -0.5434  1.6219
  125MOL0     H16835   3.716   6.728   3.131 -0.2685 -0.8914  0.0327
  125MOL0     H16836   3.942   6.781   3.034  1.9407 -0.8091 -1.6758
  125MOL0     H16837   4.266   6.651   2.815  2.4271  0.5878  1.1246
  125MOL0     H16838   4.502   6.687   2.745  0.7705  1.1555 -0.5397
  125MOL0     H16839   4.690   6.744   2.682 -3.2732  3.3014 -1.9605
  125MOL0     H16840   4.663   6.595   2.580  0.3493 -0.4558  4.0451
  125MOL0     H16841   4.845   6.634   2.426 -0.7474 -1.2592  0.5787
  125MOL0     H16842   4.871   6.790   2.473  1.5182  0.8487  0.0366
  125MOL0     H16843   4.957   6.752   2.690 -1.2651  1.0094 -1.6293
  125MOL0     H16844   4.908   6.580   2.692 -0.0976 -0.2211  0.2190
  125MOL0     H16845   5.138   6.654   2.650 -2.8547  5.1656  1.9692
  125MOL0     H16846   5.084   6.717   2.489 -2.5166  1.6179  0.1943
  125MOL0     H16847   5.009   6.490   2.413  0.5440  1.9289 -0.8399
  125MOL0     H16848   5.031   6.418   2.566 -1.2541  0.4571  0.1235
  125MOL0     H16849   5.263   6.516   2.391  0.3279 -0.4816  0.1696
  125MOL0     H16850   5.266   6.435   2.554 -1.3448  1.1673  1.7192
  125MOL0     H16851   5.153   6.316   2.296 -1.2956  1.4718  0.7187
  125MOL0     H16852   5.172   6.239   2.455  1.7985 -1.0720  0.6788
  125MOL0     H16853   5.372   6.340   2.261 -0.4579  1.6919  0.8598
  125MOL0     H16854   5.427   6.287   2.430 -0.3671 -2.2751  0.3586
  125MOL0     H16855   4.389   6.837   2.369 -0.5189  1.7131  0.8860
  125MOL0     H16856   4.159   6.823   2.427 -0.6019 -1.7734 -0.2568
  125MOL0     H16857   3.808   6.647   2.640 -1.8200 -0.2556 -0.2926
  125MOL0     H16858   3.596   6.581   2.749  1.1550 -0.7337 -1.6446
  125MOL0     H16859   2.095   6.241   3.565 -0.8182 -2.0864 -0.6570
  125MOL0     H16860   1.894   6.255   3.693  2.6382  0.5863 -2.4981
  125MOL0     H16861   1.701   6.275   4.057 -1.6015  0.6659 -1.8902
  125MOL0     H16862   1.521   6.317   4.188  0.7943  2.8148 -3.6995
  125MOL0     H16863   1.212   6.264   4.091  1.2994  3.6920  0.1285
  125MOL0     H16864   1.319   6.344   4.206  1.6525 -1.0730  1.4954
  125MOL0     H16865   1.077   6.381   4.264  0.0348  0.2723  0.1189
  125MOL0     H16866   1.145   6.270   4.382  1.0108 -3.0808 -0.9338
  125MOL0     H16867   1.051   6.073   4.256 -1.3360 -0.4596  0.1525
  125MOL0     H16868   1.030   6.163   4.110  3.7508  0.9931  0.6549
  125MOL0     H16869   0.854   6.205   4.373 -1.3071  3.4953  0.2099
  125MOL0     H16870   0.846   6.308   4.241  3.1159  0.5967  1.8239
  125MOL0     H16871   0.616   5.986   4.095  1.0669 -0.6977 -0.4748
  125MOL0     H16872   1.338   5.942   4.093 -0.3147  0.8046  0.7280
  125MOL0     H16873   1.464   5.775   4.007  0.4487  0.4308 -0.0949
  125MOL0     H16874   1.490   5.848   3.842  0.6713 -0.9462 -0.8673
  125MOL0     H16875   1.621   5.776   3.947 -0.4638 -0.0586  0.3742
  126MOL0     O16876   6.477   4.545   4.998  0.0718 -0.0890 -0.0488
  126MOL0     C16877   6.582   4.591   4.955  0.1766 -0.4373 -0.4822
  126MOL0     O16878   6.705   4.563   4.997 -0.0377 -0.2686  0.4736
  126MOL0     C16879   6.733   4.510   5.117  1.1676  1.3331  0.4972
  126MOL0     C16880   6.654   4.508   5.222  1.4645  0.0607 -0.6637
  126MOL0     C16881   6.694   4.465   5.348 -0.5903 -0.5655 -0.0353
  126MOL0     C16882   6.822   4.410   5.366  0.1732  1.0736  0.1542
  126MOL0     O16883   6.869   4.384   5.484 -0.6942 -0.0280  0.4816
  126MOL0     C16884   6.939   4.258   5.509  0.1772 -0.3326  0.7423
  126MOL0     C16885   6.953   4.252   5.658 -0.2474 -0.6971 -0.5208
  126MOL0     C16886   7.025   4.126   5.695 -0.4918  0.0270 -0.0460
  126MOL0     C16887   7.067   4.137   5.843  0.8154 -0.3016  0.1457
  126MOL0     C16888   7.071   4.008   5.919 -0.2244  0.5088 -1.1637
  126MOL0     C16889   7.189   3.927   5.880 -0.0119  0.3965  1.1151
  126MOL0     C16890   7.209   3.790   5.960  0.0506 -0.4317  0.2186
  126MOL0     C16891   7.096   3.698   5.955 -0.0950  0.2146  0.3525
  126MOL0     N16892   7.068   3.668   5.812  0.3023 -0.3803 -0.6124
  126MOL0     C16893   7.149   3.602   5.727 -0.1364  0.8678 -0.7036
  126MOL0     C16894   7.085   3.602   5.609  0.3018 -0.0645  0.8820
  126MOL0     C16895   7.152   3.562   5.482 -0.0105 -1.0550  0.6397
  126MOL0     C16896   7.211   3.677   5.400 -0.6715  0.7255  0.0758
  126MOL0     C16897   7.277   3.620   5.274 -0.5148 -0.1530  0.2055
  126MOL0     C16898   7.333   3.733   5.175  0.9000  0.3298 -0.2087
  126MOL0     O16899   7.425   3.814   5.259  0.2445 -0.3744 -0.4129
  126MOL0     C16900   7.559   3.792   5.269 -0.0645 -0.3847  0.1428
  126MOL0     C16901   7.625   3.685   5.219  0.0537 -0.2430 -0.3980
  126MOL0     C16902   7.767   3.675   5.240 -0.1061  0.8553 -0.3266
  126MOL0     C16903   7.830   3.775   5.325 -1.1111 -0.2221 -0.0131
  126MOL0     C16904   7.974   3.767   5.375  0.5796  0.0859  0.3858
  126MOL0     O16905   8.020   3.872   5.459 -0.1514  0.0450  0.2238
  126MOL0     C16906   8.144   3.860   5.510  0.3978 -0.7501  1.2384
  126MOL0     C16907   8.173   3.827   5.642  0.1830  0.3133  0.3131
  126MOL0     C16908   8.299   3.818   5.687  1.1263 -0.4286  0.1785
  126MOL0     C16909   8.398   3.859   5.603 -0.5810  0.2755 -0.0565
  126MOL0     O16910   8.522   3.871   5.664  0.5680  0.2665 -0.2517
  126MOL0     C16911   8.605   3.764   5.631  0.0258 -0.1358  0.8759
  126MOL0     C16912   8.729   3.772   5.719  1.3081 -0.4051  0.3960
  126MOL0     C16913   8.808   3.636   5.712  0.5150 -0.5678  0.0706
  126MOL0     C16914   8.731   3.503   5.733 -0.5340  0.6869 -0.3715
  126MOL0     C16915   8.795   3.389   5.809  0.0696 -0.0374 -1.3064
  126MOL0     C16916   8.726   3.250   5.799  0.0264  0.4589 -0.2340
  126MOL0     C16917   8.580   3.247   5.853 -0.9852 -0.3223 -0.5941
  126MOL0     C16918   8.518   3.118   5.799  0.6697  0.9702  0.0706
  126MOL0    Cl16919   8.406   3.038   5.919  0.2667  0.0858  0.3682
  126MOL0     C16920   8.372   3.905   5.478  0.3369 -0.3886  0.0865
  126MOL0     C16921   8.246   3.898   5.425 -1.0149 -0.1327 -0.3647
  126MOL0     O16922   8.018   3.657   5.367  0.2091 -0.4794 -0.0995
  126MOL0     C16923   7.761   3.889   5.366 -0.2016 -0.5220  0.4490
  126MOL0     C16924   7.622   3.888   5.345 -0.4780 -0.3059  0.1697
  126MOL0     N16925   6.973   3.676   5.613 -0.0584 -0.5342  0.4269
  126MOL0     N16926   6.955   3.709   5.741 -0.2192 -0.0629 -0.3594
  126MOL0     C16927   6.902   4.397   5.249  0.7846  0.1865  0.1458
  126MOL0     C16928   6.857   4.450   5.127  0.9212  0.7119  0.2735
  126MOL0     C16929   6.585   4.671   4.835  0.4072 -0.1408  0.0697
  126MOL0     C16930   6.481   4.656   4.746  0.2646 -0.1499 -0.6645
  126MOL0     C16931   6.474   4.728   4.626 -0.0544  0.1208  0.5588
  126MOL0     C16932   6.564   4.837   4.601 -0.0005  0.8320  0.1032
  126MOL0     O16933   6.536   4.896   4.484 -0.1426 -0.4886  0.1244
  126MOL0     C16934   6.624   5.001   4.424 -0.0656 -0.1949 -0.7309
  126MOL0     C16935   6.605   5.137   4.501  0.2104  0.5803  0.0458
  126MOL0     C16936   6.601   5.253   4.406  0.6302 -0.5445 -0.3224
  126MOL0     C16937   6.562   5.383   4.478 -0.5575  0.3268  0.3997
  126MOL0     C16938   6.667   5.427   4.576 -0.2444  0.0231  0.0708
  126MOL0     C16939   6.750   5.453   4.658  0.2265 -0.9583 -0.5423
  126MOL0     C16940   6.668   4.862   4.696  0.4791 -0.1840 -0.3610
  126MOL0     C16941   6.678   4.775   4.809  0.6067  0.2792 -0.0204
  126MOL0     C16942   6.788   4.819   4.907 -0.1218  1.4779  0.1730
  126MOL0     H16943   6.551   4.542   5.215  0.3658 -2.1456  2.3351
  126MOL0     H16944   6.630   4.470   5.436 -0.2570 -4.0392  0.5683
  126MOL0     H16945   6.882   4.172   5.473  1.2374 -0.7877  0.0763
  126MOL0     H16946   7.038   4.257   5.461 -1.0220  1.0140 -1.9853
  126MOL0     H16947   6.856   4.244   5.707  0.3286 -2.8743  0.3741
  126MOL0     H16948   7.006   4.337   5.701 -1.9454 -0.1039  0.4970
  126MOL0     H16949   7.119   4.114   5.640 -0.2763  1.1450  0.0401
  126MOL0     H16950   6.955   4.044   5.677 -1.5610  1.1341 -1.2320
  126MOL0     H16951   7.166   4.182   5.850  1.6195 -1.6662 -1.6193
  126MOL0     H16952   6.993   4.208   5.884  1.5355  2.1719 -2.4851
  126MOL0     H16953   7.079   4.028   6.026 -0.3548 -3.0904 -0.3592
  126MOL0     H16954   6.977   3.952   5.917 -0.0678  0.2672 -1.9889
  126MOL0     H16955   7.186   3.912   5.772 -2.2895 -2.5740  1.4395
  126MOL0     H16956   7.284   3.977   5.901 -0.1914  1.7165 -1.0107
  126MOL0     H16957   7.233   3.827   6.061 -3.5646  1.0788  0.6830
  126MOL0     H16958   7.295   3.735   5.920  2.3774  3.9174 -1.4300
  126MOL0     H16959   7.133   3.612   6.009  0.8080  0.7243  0.5664
  126MOL0     H16960   7.005   3.732   6.005 -0.7919  1.5760 -1.6963
  126MOL0     H16961   7.242   3.549   5.747 -0.9540 -1.1131 -1.9002
  126MOL0     H16962   7.236   3.494   5.500 -0.1407 -0.8635  2.0912
  126MOL0     H16963   7.088   3.505   5.414  1.3341 -0.7584 -0.9430
  126MOL0     H16964   7.132   3.745   5.369  0.1946  1.8517  0.2921
  126MOL0     H16965   7.294   3.723   5.454 -0.3104  2.5848 -1.9527
  126MOL0     H16966   7.203   3.558   5.223  0.9503 -0.5686 -1.4964
  126MOL0     H16967   7.361   3.557   5.303  0.9076  1.4321 -0.2836
  126MOL0     H16968   7.253   3.795   5.135 -2.6126 -2.2897  2.1222
  126MOL0     H16969   7.386   3.702   5.085  0.5255  1.1632 -0.7278
  126MOL0     H16970   7.584   3.608   5.155 -1.8053 -0.3644  0.8490
  126MOL0     H16971   7.823   3.588   5.206 -1.0266  0.7081 -1.5282
  126MOL0     H16972   8.096   3.804   5.716 -0.7083 -0.2433 -0.7504
  126MOL0     H16973   8.316   3.793   5.791 -1.5646  0.4933  0.9288
  126MOL0     H16974   8.550   3.670   5.638  0.0855 -0.5049 -2.2329
  126MOL0     H16975   8.642   3.773   5.528  1.5400 -1.6396  1.2416
  126MOL0     H16976   8.787   3.857   5.684  0.6570 -0.2994 -0.4365
  126MOL0     H16977   8.702   3.785   5.825  1.6999 -3.4787  0.9657
  126MOL0     H16978   8.868   3.635   5.621  1.5834 -1.4887  0.7587
  126MOL0     H16979   8.884   3.637   5.791  0.5940  0.9834  0.0090
  126MOL0     H16980   8.699   3.468   5.634 -1.3041  0.4882 -0.0592
  126MOL0     H16981   8.634   3.525   5.780 -0.4963  0.9209 -0.4019
  126MOL0     H16982   8.799   3.427   5.911  0.4948  1.1595 -1.7484
  126MOL0     H16983   8.896   3.382   5.768  0.5031  1.0311 -0.4456
  126MOL0     H16984   8.715   3.236   5.691 -0.0525 -0.4186 -0.1209
  126MOL0     H16985   8.798   3.182   5.845  0.5886 -0.7304 -2.7207
  126MOL0     H16986   8.517   3.330   5.819 -1.9142 -0.9972 -0.5436
  126MOL0     H16987   8.587   3.248   5.962 -2.1868 -1.5446 -0.4789
  126MOL0     H16988   8.460   3.136   5.708 -0.7625 -2.7125  0.0964
  126MOL0     H16989   8.597   3.046   5.776 -0.6918  0.3586 -3.2359
  126MOL0     H16990   8.450   3.939   5.410 -1.5868  0.6572 -1.7381
  126MOL0     H16991   8.238   3.925   5.320  2.1281  4.0422  0.2118
  126MOL0     H16992   7.800   3.969   5.428 -1.1672 -1.2410  2.0571
  126MOL0     H16993   7.557   3.963   5.387 -0.0021  1.0740 -1.4305
  126MOL0     H16994   6.998   4.347   5.250  0.0967 -1.1825 -0.3001
  126MOL0     H16995   6.914   4.444   5.035 -1.8330  0.8044 -1.5363
  126MOL0     H16996   6.413   4.573   4.764 -0.1924  0.6070  1.4378
  126MOL0     H16997   6.394   4.694   4.560  2.4673 -2.6087 -1.3391
  126MOL0     H16998   6.591   5.022   4.322  2.3668  4.9048 -0.7946
  126MOL0     H16999   6.729   4.972   4.424  1.0825  3.4323 -1.8002
  126MOL0     H17000   6.694   5.141   4.566  0.5104 -1.8052 -0.1295
  126MOL0     H17001   6.509   5.125   4.552 -0.2919 -0.9171 -1.1954
  126MOL0     H17002   6.525   5.228   4.331  0.8211 -1.5827 -0.1850
  126MOL0     H17003   6.696   5.261   4.351  0.6327  0.4319 -0.2030
  126MOL0     H17004   6.555   5.467   4.409  1.9490 -0.4716 -0.9594
  126MOL0     H17005   6.469   5.362   4.531  0.2406 -2.5357  0.8527
  126MOL0     H17006   6.815   5.474   4.741 -0.8953  0.4731  0.0187
  126MOL0     H17007   6.749   4.933   4.684  1.8840 -1.7163 -0.4255
  126MOL0     H17008   6.816   4.918   4.869 -3.3157  1.8846 -1.4287
  126MOL0     H17009   6.741   4.838   5.004  0.1730 -3.1005  1.4149
  126MOL0     H17010   6.870   4.748   4.919  0.0047  0.9651 -2.9460
  127MOL0     O17011   3.139   2.859   0.559  0.7036  0.0797  0.3018
  127MOL0     C17012   3.112   2.918   0.669  0.3976  0.5549 -0.1844
  127MOL0     O17013   3.197   3.003   0.736 -0.4670 -0.5047  0.0459
  127MOL0     C17014   3.313   3.047   0.677 -0.2922 -0.1205 -0.5072
  127MOL0     C17015   3.432   3.016   0.730 -0.4694 -0.8690  0.6207
  127MOL0     C17016   3.556   3.059   0.669  0.2015  0.1156 -0.3440
  127MOL0     C17017   3.559   3.137   0.549  1.1375  0.7272 -0.4249
  127MOL0     O17018   3.667   3.187   0.478 -0.2400  0.0087 -0.2219
  127MOL0     C17019   3.773   3.093   0.470  0.7678 -0.1662 -0.3621
  127MOL0     C17020   3.735   2.982   0.370  0.0547 -0.7709 -0.5024
  127MOL0     C17021   3.846   2.873   0.360  0.2392  0.2809  0.6494
  127MOL0     C17022   3.969   2.925   0.285  0.5790  0.1374  0.3867
  127MOL0     C17023   4.054   2.818   0.225 -0.0838  1.0119  0.2384
  127MOL0     C17024   4.168   2.878   0.145 -0.7648  0.7006 -0.7459
  127MOL0     C17025   4.263   2.769   0.074  0.2849 -0.2339 -0.3376
  127MOL0     C17026   4.343   2.672   0.167  0.0884 -0.7818  0.5622
  127MOL0     N17027   4.479   2.709   0.165  0.1069 -0.3298  0.1694
  127MOL0     C17028   4.528   2.833   0.207 -0.2878 -0.2194  0.3394
  127MOL0     C17029   4.662   2.825   0.190 -0.8847  0.8037 -1.0458
  127MOL0     C17030   4.771   2.925   0.206  0.0072 -0.0245 -0.3942
  127MOL0     C17031   4.916   2.895   0.139  0.2883 -0.1447  0.3511
  127MOL0     C17032   5.023   2.997   0.166  0.7268 -1.1869  0.0626
  127MOL0     C17033   5.155   2.962   0.100 -0.0735  0.2402  0.3376
  127MOL0     O17034   5.254   3.052   0.154 -0.5079 -0.1712  0.4819
  127MOL0     C17035   5.379   3.043   0.099  0.0115 -0.2676  0.3879
  127MOL0     C17036   5.427   2.952  -0.000  0.2190 -0.2812 -0.4534
  127MOL0     C17037   5.554   2.958  -0.053  0.1784 -0.5447  0.1854
  127MOL0     C17038   5.637   3.067  -0.024 -0.4155  0.3408 -0.1560
  127MOL0     C17039   5.767   3.064  -0.090 -0.1133 -0.6044 -0.6548
  127MOL0     O17040   5.768   3.002  -0.218 -0.1447 -0.9152 -0.1381
  127MOL0     C17041   5.864   3.029  -0.309 -0.5934  0.3871  0.0040
  127MOL0     C17042   5.857   2.954  -0.426  0.1102 -0.3072 -0.1658
  127MOL0     C17043   5.949   2.969  -0.532 -0.1931  0.1069  0.1654
  127MOL0     C17044   6.047   3.075  -0.526 -0.1129 -0.4899 -0.2282
  127MOL0     O17045   6.128   3.111  -0.631 -0.2092  0.7099 -0.7111
  127MOL0     C17046   6.171   3.011  -0.718  0.4339 -0.1503 -0.4229
  127MOL0     C17047   6.255   3.067  -0.837  0.3001  0.0445  0.0961
  127MOL0     C17048   6.397   3.099  -0.833 -0.0494  0.3183 -0.3069
  127MOL0     C17049   6.478   2.976  -0.795 -1.4291  0.0951 -0.7344
  127MOL0     C17050   6.622   2.992  -0.843  0.0668  0.2725 -0.3979
  127MOL0     C17051   6.721   2.886  -0.793  0.0104  0.4217  0.5508
  127MOL0     C17052   6.862   2.916  -0.841  1.2164 -0.1958 -0.1821
  127MOL0     C17053   6.947   2.791  -0.833 -0.6535  0.5449  0.0230
  127MOL0    Cl17054   7.120   2.823  -0.781 -0.3652 -0.4419 -0.0521
  127MOL0     C17055   6.047   3.156  -0.413  0.8430 -0.1436  0.2707
  127MOL0     C17056   5.952   3.139  -0.309 -0.1421 -0.2597  0.3518
  127MOL0     O17057   5.847   3.146  -0.036  0.1211 -0.0908  0.0066
  127MOL0     C17058   5.589   3.155   0.075 -0.2983  0.4242 -0.7504
  127MOL0     C17059   5.466   3.145   0.138  0.6287  0.1590  0.4629
  127MOL0     N17060   4.702   2.699   0.152 -0.7965  0.3685  0.5128
  127MOL0     N17061   4.592   2.628   0.134 -0.7041 -1.3214 -0.7955
  127MOL0     C17062   3.429   3.161   0.500  0.0060  0.6169  0.1864
  127MOL0     C17063   3.310   3.117   0.555  0.8055  0.1062 -0.1349
  127MOL0     C17064   2.978   2.883   0.718 -0.3350  0.0470  0.5987
  127MOL0     C17065   2.866   2.893   0.637  0.1540  0.0846 -0.3984
  127MOL0     C17066   2.737   2.877   0.687 -0.2548  0.7487  1.6305
  127MOL0     C17067   2.716   2.846   0.821 -0.3246 -0.4367 -0.0718
  127MOL0     O17068   2.584   2.855   0.863 -0.2380 -0.2273  0.2172
  127MOL0     C17069   2.558   2.828   1.001  0.0657  0.1097 -0.4578
  127MOL0     C17070   2.414   2.838   1.024  0.8791 -0.0966 -0.3252
  127MOL0     C17071   2.360   2.978   1.042  0.1653  0.1948 -0.0373
  127MOL0     C17072   2.209   2.983   1.087 -0.9759 -0.0258  0.5611
  127MOL0     C17073   2.200   2.963   1.228 -0.4337 -0.2877 -1.5816
  127MOL0     C17074   2.213   2.939   1.349  0.1437  0.2940 -0.1661
  127MOL0     C17075   2.824   2.832   0.909 -0.7648 -0.3131  0.1745
  127MOL0     C17076   2.952   2.852   0.856 -0.6486 -0.7696 -0.8303
  127MOL0     C17077   3.065   2.843   0.955 -0.7393 -0.3458  0.3119
  127MOL0     H17078   3.432   2.966   0.826  2.2537  1.2968  1.9007
  127MOL0     H17079   3.645   3.040   0.728 -1.2270 -2.7348  1.0866
  127MOL0     H17080   3.863   3.146   0.437  1.6926 -1.1844  0.4357
  127MOL0     H17081   3.795   3.043   0.564 -0.1712  0.8890  0.4453
  127MOL0     H17082   3.701   3.014   0.272 -3.1951 -3.2239 -0.3466
  127MOL0     H17083   3.649   2.929   0.412 -0.1546  0.2049  0.3521
  127MOL0     H17084   3.803   2.792   0.301 -2.3642  2.0634 -0.1158
  127MOL0     H17085   3.867   2.836   0.461 -2.1471 -0.9525  0.7728
  127MOL0     H17086   3.928   2.983   0.201  3.0734  1.8032  0.2088
  127MOL0     H17087   4.030   2.990   0.348  2.4429  1.3606 -2.4609
  127MOL0     H17088   4.087   2.747   0.302  1.9553  0.6817 -0.8683
  127MOL0     H17089   3.991   2.757   0.160  1.9426 -0.3153 -0.5974
  127MOL0     H17090   4.122   2.937   0.065 -0.3660  1.6271 -0.2940
  127MOL0     H17091   4.229   2.946   0.204  0.1655 -0.0989 -0.7610
  127MOL0     H17092   4.330   2.818   0.003 -1.7765  0.8264 -1.6462
  127MOL0     H17093   4.196   2.714   0.007  0.7609 -1.6681  0.3171
  127MOL0     H17094   4.293   2.672   0.264 -1.7580 -0.1615 -0.3519
  127MOL0     H17095   4.333   2.570   0.128 -3.6995 -0.3923  0.2246
  127MOL0     H17096   4.469   2.920   0.236 -2.0424 -0.8530 -1.1485
  127MOL0     H17097   4.732   3.018   0.164  2.1514  0.5387 -1.2977
  127MOL0     H17098   4.795   2.935   0.312 -0.2258 -0.0244 -0.3422
  127MOL0     H17099   4.952   2.800   0.180 -0.9270 -0.0850  1.6120
  127MOL0     H17100   4.906   2.878   0.031 -1.2852  0.5565  0.3665
  127MOL0     H17101   5.055   2.987   0.270  0.7518  0.3673  0.2395
  127MOL0     H17102   4.988   3.100   0.148  2.4634 -0.4331  0.8011
  127MOL0     H17103   5.143   2.947  -0.007 -1.5475 -1.1648  0.6522
  127MOL0     H17104   5.186   2.862   0.132 -1.0533 -0.1055  0.2565
  127MOL0     H17105   5.364   2.872  -0.039  0.0638 -0.8358  0.8652
  127MOL0     H17106   5.583   2.875  -0.117 -1.0159  0.5383 -1.8696
  127MOL0     H17107   5.767   2.895  -0.440 -0.7287  1.1361 -1.1639
  127MOL0     H17108   5.925   2.910  -0.620 -0.9431 -0.3203  0.6537
  127MOL0     H17109   6.219   2.933  -0.658  0.8856  0.7383  0.3931
  127MOL0     H17110   6.085   2.960  -0.762  2.4996 -2.1476 -2.4070
  127MOL0     H17111   6.248   2.990  -0.914  1.2965 -2.2313  2.1529
  127MOL0     H17112   6.202   3.156  -0.873  2.5803  2.2147  1.7417
  127MOL0     H17113   6.428   3.146  -0.927 -0.4612  0.2674 -0.4677
  127MOL0     H17114   6.421   3.177  -0.760 -0.2403  0.6766 -0.6191
  127MOL0     H17115   6.442   2.876  -0.821  2.5766 -1.7939  0.1297
  127MOL0     H17116   6.490   2.976  -0.687  0.9517 -1.8463 -0.9056
  127MOL0     H17117   6.661   3.088  -0.809  0.8056  0.3266 -1.3721
  127MOL0     H17118   6.608   2.997  -0.951 -2.1928  0.3264 -0.1552
  127MOL0     H17119   6.718   2.890  -0.684  2.7933  1.8963  0.6807
  127MOL0     H17120   6.689   2.786  -0.826  1.2288 -0.6261  2.3625
  127MOL0     H17121   6.896   2.998  -0.776 -0.8214  0.1893  0.4935
  127MOL0     H17122   6.854   2.946  -0.946  0.2485  1.7215  0.3846
  127MOL0     H17123   6.899   2.718  -0.767  0.0553  1.0628  1.1519
  127MOL0     H17124   6.955   2.757  -0.937 -1.2057  1.8593 -0.4638
  127MOL0     H17125   6.120   3.235  -0.401  1.4783 -0.8614  1.3192
  127MOL0     H17126   5.972   3.210  -0.229  1.8267  1.9835 -1.9669
  127MOL0     H17127   5.649   3.240   0.106 -0.2028  0.5172 -1.1766
  127MOL0     H17128   5.441   3.210   0.221  0.8557  1.2694 -0.3101
  127MOL0     H17129   3.418   3.212   0.405 -0.3390 -3.3682 -2.1506
  127MOL0     H17130   3.220   3.151   0.505  1.6254  2.1844 -0.3229
  127MOL0     H17131   2.887   2.912   0.532 -0.6193  1.2109 -0.3709
  127MOL0     H17132   2.654   2.895   0.620 -0.4767 -2.2374  0.9655
  127MOL0     H17133   2.607   2.894   1.073 -1.2433 -0.3749  0.9341
  127MOL0     H17134   2.593   2.730   1.037 -0.4633  0.2458  0.4812
  127MOL0     H17135   2.389   2.792   1.120  1.4221 -0.8772 -0.5453
  127MOL0     H17136   2.354   2.790   0.947 -1.3867  2.5116 -0.3433
  127MOL0     H17137   2.364   3.034   0.948  1.4986 -1.3416 -0.9419
  127MOL0     H17138   2.425   3.027   1.115  0.1814  0.6565 -0.3583
  127MOL0     H17139   2.174   3.085   1.070  1.0416  0.8408  1.2719
  127MOL0     H17140   2.146   2.907   1.040 -0.9063  0.4078 -0.2519
  127MOL0     H17141   2.217   2.937   1.456  1.5934  4.0038  0.0095
  127MOL0     H17142   2.801   2.845   1.015  0.2316 -1.7387  0.5965
  127MOL0     H17143   3.024   2.793   1.043 -0.8952 -0.4523  0.1789
  127MOL0     H17144   3.137   2.776   0.905  1.7819  1.6712  1.0199
  127MOL0     H17145   3.110   2.937   0.990 -3.7764  1.3516 -0.0247
  128MOL0     O17146  10.828  10.767   2.396  0.3888 -0.8970  0.0425
  128MOL0     C17147  10.739  10.837   2.341 -0.8584  0.3633  0.1116
  128MOL0     O17148  10.757  10.941   2.263  0.0125  0.4599  0.1670
  128MOL0     C17149  10.886  10.991   2.264 -0.1255  0.7764  0.0734
  128MOL0     C17150  10.994  10.933   2.191 -0.5499 -0.0865  0.3453
  128MOL0     C17151  11.118  10.999   2.201  0.1880 -0.2069 -0.2290
  128MOL0     C17152  11.136  11.102   2.287 -0.5046  0.4504 -0.5009
  128MOL0     O17153  11.261  11.164   2.316 -0.0349  0.1852  0.0883
  128MOL0     C17154  11.375  11.104   2.254 -0.3941  0.3391  0.0418
  128MOL0     C17155  11.492  11.192   2.295  0.5651 -0.6125 -0.5122
  128MOL0     C17156  11.618  11.177   2.202  0.8109  0.9281 -0.2157
  128MOL0     C17157  11.728  11.268   2.245 -0.6311  0.0135 -0.3229
  128MOL0     C17158  11.848  11.273   2.146  0.9549 -0.1941  0.7050
  128MOL0     C17159  11.969  11.335   2.222 -1.4590  0.4992 -0.0876
  128MOL0     C17160  12.090  11.357   2.132  0.6036 -0.0011 -0.0035
  128MOL0     C17161  12.172  11.232   2.101  0.0714 -0.0221  0.0297
  128MOL0     N17162  12.292  11.258   2.027 -0.4944 -0.1905 -0.3402
  128MOL0     C17163  12.294  11.280   1.889 -0.6105  0.2960 -0.6036
  128MOL0     C17164  12.424  11.292   1.846  0.6454  0.1181 -1.2199
  128MOL0     C17165  12.493  11.313   1.718  0.7150  0.4846 -0.7839
  128MOL0     C17166  12.553  11.453   1.700 -0.0482  0.0890  0.1409
  128MOL0     C17167  12.649  11.469   1.580 -0.3237  0.0405 -0.6837
  128MOL0     C17168  12.596  11.426   1.442  0.2187  0.3776  0.2855
  128MOL0     O17169  12.698  11.454   1.339  0.2929  0.9297  0.3538
  128MOL0     C17170  12.667  11.401   1.214 -0.2041  0.5202  0.2002
  128MOL0     C17171  12.757  11.424   1.105  0.3193 -0.3129 -0.6340
  128MOL0     C17172  12.725  11.373   0.973 -0.1346  0.2677  0.2266
  128MOL0     C17173  12.614  11.297   0.945 -0.3524  0.1045  0.6649
  128MOL0     C17174  12.594  11.245   0.805  0.3327  0.6349 -0.5712
  128MOL0     O17175  12.491  11.159   0.788  0.9797  0.3224  0.3780
  128MOL0     C17176  12.472  11.089   0.671 -0.2517  0.1038 -0.0371
  128MOL0     C17177  12.341  11.068   0.632 -0.8996  0.0109  0.4304
  128MOL0     C17178  12.314  10.971   0.536 -0.2323  0.1568  0.7232
  128MOL0     C17179  12.412  10.908   0.462  0.1592 -0.3643 -0.3136
  128MOL0     O17180  12.368  10.848   0.351 -0.5615 -0.3336 -0.5601
  128MOL0     C17181  12.368  10.923   0.227 -0.6509  0.3357  0.6245
  128MOL0     C17182  12.260  10.866   0.131 -0.2192  0.6832  0.9170
  128MOL0     C17183  12.125  10.841   0.207  0.0114 -0.3871 -0.4167
  128MOL0     C17184  12.008  10.804   0.113  0.3326 -0.0490  0.0802
  128MOL0     C17185  11.876  10.838   0.171  0.8849 -0.1677  0.0453
  128MOL0     C17186  11.751  10.820   0.088  0.6609 -0.2130 -0.0050
  128MOL0     C17187  11.620  10.875   0.154 -0.2937 -0.4861 -0.1987
  128MOL0     C17188  11.519  10.914   0.050 -0.4225  0.2309  0.8043
  128MOL0    Cl17189  11.472  10.773  -0.040  0.2449 -0.0253 -0.7734
  128MOL0     C17190  12.548  10.928   0.499  0.0969  0.0897 -0.4817
  128MOL0     C17191  12.573  11.015   0.605 -1.0444  0.2889  0.3185
  128MOL0     O17192  12.667  11.285   0.716 -0.1612 -0.4061  0.3018
  128MOL0     C17193  12.530  11.263   1.054 -0.2031 -0.2483 -0.3196
  128MOL0     C17194  12.551  11.322   1.181  0.6796 -0.5973 -0.4424
  128MOL0     N17195  12.497  11.260   1.962  0.3695  0.7103  0.0901
  128MOL0     N17196  12.424  11.252   2.068 -0.2742  0.3244 -0.0831
  128MOL0     C17197  11.038  11.145   2.373  0.1202  0.2275 -0.7048
  128MOL0     C17198  10.911  11.086   2.362 -0.8029 -0.0147  0.2921
  128MOL0     C17199  10.599  10.800   2.365 -0.5790 -0.5666 -0.1400
  128MOL0     C17200  10.568  10.713   2.470  0.3878 -0.0213  0.5438
  128MOL0     C17201  10.434  10.681   2.496 -0.4873  0.1569  0.4432
  128MOL0     C17202  10.327  10.730   2.419 -0.7908 -0.3089 -0.1255
  128MOL0     O17203  10.205  10.696   2.459 -0.2701  0.0011  0.1338
  128MOL0     C17204  10.087  10.759   2.404 -0.1601 -0.2875 -0.0359
  128MOL0     C17205   9.964  10.698   2.476  0.0095 -0.1561  1.3964
  128MOL0     C17206   9.831  10.772   2.453 -0.2778  0.2310 -0.4418
  128MOL0     C17207   9.716  10.674   2.477  0.5937  1.0266  0.1017
  128MOL0     C17208   9.691  10.653   2.618  0.2299 -0.1950 -0.2129
  128MOL0     C17209   9.683  10.619   2.732 -1.2622  0.2255  0.0272
  128MOL0     C17210  10.355  10.813   2.312 -0.5508 -0.0376 -0.1961
  128MOL0     C17211  10.490  10.839   2.277  0.9548 -0.1092  0.0386
  128MOL0     C17212  10.514  10.932   2.161  0.2155  0.2263  0.0885
  128MOL0     H17213  10.985  10.851   2.121  0.6210 -0.6356  0.8024
  128MOL0     H17214  11.197  10.966   2.134  3.8158  2.3380  2.3749
  128MOL0     H17215  11.392  11.003   2.290 -3.2409 -0.0470  0.5504
  128MOL0     H17216  11.375  11.105   2.145 -2.7717  0.9481  0.0029
  128MOL0     H17217  11.515  11.189   2.401  2.2024  1.2218 -0.7563
  128MOL0     H17218  11.464  11.297   2.282 -0.2540 -0.7194  0.2946
  128MOL0     H17219  11.587  11.215   2.104 -0.8638  1.4455  0.4792
  128MOL0     H17220  11.664  11.078   2.206  0.2279  0.6076 -1.0459
  128MOL0     H17221  11.706  11.375   2.247  1.1158  0.4131 -0.3555
  128MOL0     H17222  11.767  11.252   2.346  0.3812  0.7494 -0.5777
  128MOL0     H17223  11.876  11.174   2.109 -0.0932 -0.8233  1.5599
  128MOL0     H17224  11.825  11.339   2.061 -0.8020 -1.7655 -0.0949
  128MOL0     H17225  11.931  11.422   2.276 -3.0475 -0.3367  0.2260
  128MOL0     H17226  12.001  11.266   2.301  1.7490  1.3949 -0.4657
  128MOL0     H17227  12.144  11.433   2.190 -0.7289 -1.0871  2.7999
  128MOL0     H17228  12.070  11.407   2.037  2.7391  2.0852  0.5172
  128MOL0     H17229  12.192  11.169   2.188 -1.8713  2.5851  2.5406
  128MOL0     H17230  12.110  11.171   2.034  0.5393  1.4868 -1.8817
  128MOL0     H17231  12.208  11.288   1.823  0.6588 -1.7267 -2.6396
  128MOL0     H17232  12.564  11.230   1.706 -0.6010 -0.5214 -1.8670
  128MOL0     H17233  12.423  11.300   1.636  0.4109  0.6488 -0.5507
  128MOL0     H17234  12.473  11.527   1.693 -2.4321 -2.3574 -0.2624
  128MOL0     H17235  12.612  11.475   1.789 -1.3217 -1.7684  1.5127
  128MOL0     H17236  12.738  11.410   1.604 -0.9144 -1.1970 -1.4215
  128MOL0     H17237  12.689  11.570   1.564 -1.1680  0.2831 -1.3217
  128MOL0     H17238  12.508  11.484   1.412  1.9250  1.1579 -3.8170
  128MOL0     H17239  12.579  11.318   1.449 -0.5393  0.5495  1.5915
  128MOL0     H17240  12.845  11.486   1.118 -0.8477  1.1749  0.5914
  128MOL0     H17241  12.799  11.398   0.899  0.5203  0.2902  0.8798
  128MOL0     H17242  12.258  11.122   0.677 -1.1313  1.8375 -1.9980
  128MOL0     H17243  12.213  10.939   0.513  0.3527  0.7079 -3.3286
  128MOL0     H17244  12.339  11.022   0.262 -1.3080  0.0390  0.9334
  128MOL0     H17245  12.466  10.921   0.179 -0.2969  0.4099  1.3326
  128MOL0     H17246  12.240  10.929   0.044  2.3164 -1.5565 -1.4974
  128MOL0     H17247  12.292  10.772   0.085 -0.5125  1.4103 -0.8456
  128MOL0     H17248  12.142  10.766   0.285 -0.4850 -0.4679 -0.3872
  128MOL0     H17249  12.108  10.939   0.251  1.6986  0.8200 -2.2568
  128MOL0     H17250  12.008  10.696   0.096  2.0430 -0.1146  0.2361
  128MOL0     H17251  12.026  10.859   0.020 -0.4290  0.5294  0.2648
  128MOL0     H17252  11.876  10.944   0.198 -3.7819 -0.3207  1.5824
  128MOL0     H17253  11.866  10.785   0.267  0.2451  0.1721  0.1660
  128MOL0     H17254  11.774  10.871  -0.007  2.0890 -2.0495 -0.7068
  128MOL0     H17255  11.734  10.716   0.059 -0.4634  0.2879 -1.2765
  128MOL0     H17256  11.645  10.969   0.206 -2.3966  0.0709 -0.1048
  128MOL0     H17257  11.575  10.800   0.219 -0.0266  0.4676  1.1347
  128MOL0     H17258  11.430  10.950   0.102 -1.0670 -1.3611  0.8545
  128MOL0     H17259  11.565  10.991  -0.013 -0.3586  0.3056  0.9427
  128MOL0     H17260  12.625  10.872   0.446 -0.2123  0.6549 -1.5756
  128MOL0     H17261  12.675  11.034   0.638 -1.1146  0.8327  0.2324
  128MOL0     H17262  12.444  11.201   1.033 -0.5660  0.6789 -1.6805
  128MOL0     H17263  12.466  11.308   1.247 -1.2192  2.9732 -1.8489
  128MOL0     H17264  11.066  11.212   2.453 -1.5475  0.1408 -0.0134
  128MOL0     H17265  10.846  11.098   2.448  2.7636 -2.1967  3.6123
  128MOL0     H17266  10.649  10.660   2.519 -0.2444 -1.3920  0.1548
  128MOL0     H17267  10.413  10.603   2.569  3.3965  0.1087  1.7771
  128MOL0     H17268  10.081  10.732   2.298 -1.8822 -2.2042  0.4813
  128MOL0     H17269  10.087  10.868   2.414  2.1816 -0.4019  2.1346
  128MOL0     H17270   9.991  10.700   2.581  1.7597  0.5770  0.9609
  128MOL0     H17271   9.969  10.592   2.449  0.5038 -0.2369  1.8181
  128MOL0     H17272   9.829  10.818   2.354 -3.8182 -0.0944 -0.6322
  128MOL0     H17273   9.831  10.852   2.528  2.4340  0.9645 -1.0995
  128MOL0     H17274   9.623  10.696   2.423  0.1064  2.8829  1.5948
  128MOL0     H17275   9.732  10.571   2.445 -0.2528  0.5201  1.2255
  128MOL0     H17276   9.674  10.601   2.837 -0.7446 -1.1683 -0.1428
  128MOL0     H17277  10.280  10.846   2.240 -0.0505 -2.2569 -1.8400
  128MOL0     H17278  10.425  10.931   2.097 -0.2418 -2.0687  0.6785
  128MOL0     H17279  10.541  11.032   2.197 -1.5968 -0.1082  2.5862
  128MOL0     H17280  10.600  10.894   2.105  0.6265  1.2929 -0.0267
  129MOL0     O17281   3.572  10.971   9.070 -0.1684  0.7328  0.1433
  129MOL0     C17282   3.462  10.984   9.005  0.9009  0.1544 -0.0587
  129MOL0     O17283   3.449  11.027   8.872 -0.7754 -0.6970 -0.3958
  129MOL0     C17284   3.565  11.035   8.802  0.5259  0.9275  0.3764
  129MOL0     C17285   3.623  10.921   8.747  0.4041 -0.0696 -0.5013
  129MOL0     C17286   3.752  10.930   8.691 -0.2523  0.0270  0.1231
  129MOL0     C17287   3.804  11.050   8.659  0.4513  0.2935  0.5446
  129MOL0     O17288   3.924  11.057   8.589 -0.0249 -0.0124  0.1712
  129MOL0     C17289   4.037  11.132   8.641 -0.3118  0.4994 -0.2160
  129MOL0     C17290   4.171  11.070   8.594 -0.0228 -0.2266 -0.0700
  129MOL0     C17291   4.282  11.179   8.591 -0.2699  0.0173  0.9906
  129MOL0     C17292   4.416  11.120   8.551  0.0947  0.3054  0.4336
  129MOL0     C17293   4.516  11.234   8.550  0.0515 -0.3949 -0.1749
  129MOL0     C17294   4.663  11.184   8.509  0.2159  0.2895 -0.0185
  129MOL0     C17295   4.766  11.301   8.488 -0.0828  0.7215 -0.0178
  129MOL0     C17296   4.907  11.241   8.455  0.6813  0.6727  0.8858
  129MOL0     N17297   5.020  11.331   8.442  0.3463  0.1067  0.0246
  129MOL0     C17298   5.094  11.369   8.332  0.0930 -0.1639  0.3702
  129MOL0     C17299   5.201  11.441   8.383 -0.7192  0.8695  0.5596
  129MOL0     C17300   5.320  11.491   8.312 -0.1420  0.1370  0.3360
  129MOL0     C17301   5.440  11.402   8.341  0.3109  0.1108  0.9860
  129MOL0     C17302   5.560  11.482   8.307  0.1025 -0.3313  1.0273
  129MOL0     C17303   5.683  11.399   8.337  0.5108 -0.1116  0.6836
  129MOL0     O17304   5.693  11.332   8.460  0.2365 -0.2255  0.2618
  129MOL0     C17305   5.813  11.351   8.522  0.0193 -0.3831  0.1432
  129MOL0     C17306   5.816  11.406   8.649  0.3825 -0.2933 -0.5362
  129MOL0     C17307   5.939  11.431   8.717 -1.0026  0.1459 -0.7010
  129MOL0     C17308   6.061  11.415   8.663  0.1157 -0.1668 -0.5801
  129MOL0     C17309   6.184  11.446   8.742  0.0826  0.5195 -0.1197
  129MOL0     O17310   6.186  11.468   8.875  0.7893 -0.0858  0.1375
  129MOL0     C17311   6.291  11.474   8.961  0.2408 -0.0100  0.3247
  129MOL0     C17312   6.258  11.507   9.093 -0.1696 -1.0176 -0.4679
  129MOL0     C17313   6.363  11.530   9.185  0.6748 -0.2064 -0.1936
  129MOL0     C17314   6.500  11.512   9.141  0.4203  0.6227  0.2973
  129MOL0     O17315   6.612  11.528   9.226  0.0462 -0.3328  0.7085
  129MOL0     C17316   6.584  11.518   9.368  0.8052 -0.3310  0.6768
  129MOL0     C17317   6.719  11.507   9.435 -0.6282  0.1620  0.2529
  129MOL0     C17318   6.697  11.456   9.580  1.2838 -0.1482 -0.2677
  129MOL0     C17319   6.826  11.393   9.646  0.8253 -0.5043 -0.3695
  129MOL0     C17320   6.808  11.333   9.784  0.3994 -0.3431 -0.4191
  129MOL0     C17321   6.924  11.243   9.838 -0.5823  0.3303  0.2533
  129MOL0     C17322   6.885  11.164   9.960  0.0349 -0.8463  0.1228
  129MOL0     C17323   7.018  11.103  10.006  0.3022  0.4290  0.4658
  129MOL0    Cl17324   6.981  11.006  10.146 -0.2932 -0.4272 -0.0190
  129MOL0     C17325   6.521  11.473   9.016 -0.2441  0.2312  0.7015
  129MOL0     C17326   6.417  11.460   8.924 -1.3679  0.1411  0.9327
  129MOL0     O17327   6.281  11.460   8.671  0.6387 -0.3245  0.5226
  129MOL0     C17328   6.059  11.371   8.527  0.0073  0.2850  0.7129
  129MOL0     C17329   5.934  11.336   8.458 -0.2652 -0.7329  0.2462
  129MOL0     N17330   5.187  11.431   8.519 -0.0764  0.4918  0.2380
  129MOL0     N17331   5.078  11.374   8.560 -0.2856  0.1595 -0.7511
  129MOL0     C17332   3.739  11.164   8.696  0.7969 -0.0928 -0.0014
  129MOL0     C17333   3.631  11.155   8.786  0.1893 -0.0051  0.4287
  129MOL0     C17334   3.331  10.957   9.079 -0.4803  1.3779  0.7976
  129MOL0     C17335   3.209  10.961   9.002  0.4566  0.2428  0.9708
  129MOL0     C17336   3.083  10.945   9.065 -0.6819 -0.4034 -0.2702
  129MOL0     C17337   3.077  10.912   9.206 -0.5623  0.2926  0.9332
  129MOL0     O17338   2.962  10.907   9.285 -0.1851  0.3657  0.2165
  129MOL0     C17339   2.832  10.876   9.232 -0.1184 -0.6105 -0.1389
  129MOL0     C17340   2.813  10.730   9.189  0.8930  1.3157  0.2532
  129MOL0     C17341   2.832  10.639   9.309  0.0114 -0.8955  0.5313
  129MOL0     C17342   2.753  10.511   9.309  0.1238  0.4995 -0.0144
  129MOL0     C17343   2.600  10.521   9.297 -0.1262 -0.6656  0.0451
  129MOL0     C17344   2.488  10.558   9.281 -0.0559 -0.1118  1.3644
  129MOL0     C17345   3.203  10.896   9.275 -0.1605  0.2395  0.1335
  129MOL0     C17346   3.330  10.926   9.220  0.0275 -0.6883 -0.1247
  129MOL0     C17347   3.449  10.936   9.311 -0.6643 -0.5577 -0.4807
  129MOL0     H17348   3.574  10.824   8.757  0.3051 -0.2343 -2.3158
  129MOL0     H17349   3.804  10.840   8.663  2.7826  1.6883  0.0203
  129MOL0     H17350   4.033  11.239   8.621  2.6291  0.6861 -0.1736
  129MOL0     H17351   4.040  11.127   8.751  1.4469 -1.9530 -0.3018
  129MOL0     H17352   4.155  11.042   8.489 -2.6353  0.0952  0.1924
  129MOL0     H17353   4.208  10.980   8.643 -0.6165 -0.1927  0.4386
  129MOL0     H17354   4.277  11.231   8.687 -2.2141 -0.3354  1.1270
  129MOL0     H17355   4.258  11.252   8.513 -0.6223  1.6783  2.5630
  129MOL0     H17356   4.443  11.037   8.617  1.9972  0.8154  0.3686
  129MOL0     H17357   4.405  11.070   8.454 -2.7911  0.0927  0.7858
  129MOL0     H17358   4.488  11.302   8.468  0.3200 -0.2608 -0.1545
  129MOL0     H17359   4.501  11.291   8.641 -2.5879  1.2502 -1.4928
  129MOL0     H17360   4.704  11.121   8.589  1.8773 -0.4754 -1.4251
  129MOL0     H17361   4.643  11.121   8.422 -2.3481 -0.2988  0.8899
  129MOL0     H17362   4.765  11.371   8.572 -0.2288  0.6982  0.0007
  129MOL0     H17363   4.724  11.363   8.408 -2.1041 -3.2979 -2.3640
  129MOL0     H17364   4.925  11.176   8.541  0.4840 -0.3170  0.1964
  129MOL0     H17365   4.900  11.179   8.366  2.1302  1.3841  0.2371
  129MOL0     H17366   5.068  11.338   8.231 -0.7316  0.1617  0.4750
  129MOL0     H17367   5.300  11.484   8.205 -2.8358 -1.2747  0.8425
  129MOL0     H17368   5.339  11.594   8.344  1.3515  0.5517 -1.6707
  129MOL0     H17369   5.442  11.368   8.445  0.5243 -0.8117  0.6837
  129MOL0     H17370   5.448  11.309   8.284  3.0978 -0.0040  1.3866
  129MOL0     H17371   5.556  11.571   8.370 -0.3699 -1.5434  2.7952
  129MOL0     H17372   5.552  11.520   8.205 -1.0160  0.0748  1.2445
  129MOL0     H17373   5.758  11.474   8.309  0.6003 -0.0972  0.9593
  129MOL0     H17374   5.680  11.316   8.266 -0.8989  1.1754 -0.8284
  129MOL0     H17375   5.723  11.409   8.706  2.0788  1.9482  2.4838
  129MOL0     H17376   5.936  11.475   8.816  1.2284 -0.4261 -0.3145
  129MOL0     H17377   6.151  11.518   9.104 -0.2089 -2.1822  0.4946
  129MOL0     H17378   6.336  11.553   9.287  0.2657 -1.9353  0.1289
  129MOL0     H17379   6.524  11.601   9.407 -1.9654 -1.5477 -0.6520
  129MOL0     H17380   6.536  11.421   9.387 -0.7647  0.1571 -0.5043
  129MOL0     H17381   6.783  11.440   9.378 -0.7309 -1.2762  1.7714
  129MOL0     H17382   6.755  11.610   9.442 -0.2488  0.1849 -1.5678
  129MOL0     H17383   6.659  11.535   9.645  3.5160 -0.2654  1.2600
  129MOL0     H17384   6.622  11.376   9.584 -0.1775  1.2487  2.0009
  129MOL0     H17385   6.905  11.469   9.649  0.6652 -0.2539 -1.7376
  129MOL0     H17386   6.870  11.314   9.584 -0.0140  0.4649 -2.2784
  129MOL0     H17387   6.717  11.272   9.785  1.9043 -2.7806 -2.3019
  129MOL0     H17388   6.791  11.422   9.846 -0.6292  0.0002 -1.1694
  129MOL0     H17389   6.951  11.170   9.761 -2.6748  1.3075 -1.5012
  129MOL0     H17390   7.006  11.312   9.860  0.5699 -1.2940  1.3645
  129MOL0     H17391   6.818  11.082   9.933 -0.5697  0.0600 -1.2478
  129MOL0     H17392   6.846  11.225  10.042 -1.5269 -2.4936  0.6610
  129MOL0     H17393   7.067  11.041   9.931  0.3595 -2.0613  2.4462
  129MOL0     H17394   7.099  11.171  10.035  0.8009 -0.6465  1.6702
  129MOL0     H17395   6.620  11.463   8.973 -1.0043 -0.2124 -1.0587
  129MOL0     H17396   6.440  11.421   8.825  2.8383  0.4980  1.5916
  129MOL0     H17397   6.150  11.356   8.471 -2.3837 -3.6295 -2.6747
  129MOL0     H17398   5.941  11.292   8.359  0.9893 -1.4741  0.6409
  129MOL0     H17399   3.770  11.263   8.664  0.3884 -0.2271 -0.8393
  129MOL0     H17400   3.582  11.249   8.810  0.9390  0.6155 -0.3743
  129MOL0     H17401   3.213  10.987   8.896  2.7998 -1.1229  0.6593
  129MOL0     H17402   2.991  10.955   9.008 -0.6094 -4.1459 -1.2425
  129MOL0     H17403   2.819  10.944   9.148  1.4425  0.3484  0.3644
  129MOL0     H17404   2.762  10.912   9.309  0.0077  3.0483 -1.5669
  129MOL0     H17405   2.898  10.706   9.124  1.7163 -1.5219  2.1986
  129MOL0     H17406   2.715  10.715   9.143  2.5333 -2.3103 -2.6107
  129MOL0     H17407   2.797  10.697   9.395 -0.1470 -0.2265  0.0287
  129MOL0     H17408   2.939  10.617   9.312  0.3544 -0.1301 -2.3158
  129MOL0     H17409   2.793  10.444   9.234 -0.4140  0.4230 -0.2393
  129MOL0     H17410   2.769  10.467   9.408  0.8630  0.7319 -0.0259
  129MOL0     H17411   2.393  10.598   9.253 -0.2657 -1.1620  0.5294
  129MOL0     H17412   3.194  10.860   9.376 -1.0355 -1.1812 -0.4230
  129MOL0     H17413   3.491  11.037   9.307  2.1753 -1.5943  0.3301
  129MOL0     H17414   3.422  10.915   9.415  0.7874 -0.2585 -0.0171
  129MOL0     H17415   3.525  10.867   9.273 -0.4961 -0.1079 -0.9766
  130MOL0     O17416   6.296   2.092   9.081  0.3861  0.0464  0.1311
  130MOL0     C17417   6.252   2.039   8.972 -0.4752 -0.0754 -0.3950
  130MOL0     O17418   6.330   2.008   8.867  0.0860  0.0522  0.3941
  130MOL0     C17419   6.463   2.002   8.892  0.4291 -0.5151 -0.3487
  130MOL0     C17420   6.535   2.116   8.894  0.7401 -0.0174 -0.7775
  130MOL0     C17421   6.669   2.119   8.932 -0.2003 -0.5924  0.1841
  130MOL0     C17422   6.739   1.994   8.948 -0.1873  0.3459  0.8718
  130MOL0     O17423   6.875   1.980   8.977  0.7968 -0.7755 -0.0744
  130MOL0     C17424   6.952   2.090   9.038  0.0471  0.2846 -0.8092
  130MOL0     C17425   7.109   2.076   9.030  0.7952 -0.2640 -0.2730
  130MOL0     C17426   7.168   2.055   8.892  0.2458  0.2991  0.3882
  130MOL0     C17427   7.319   2.075   8.880 -0.5221  0.0191 -0.0940
  130MOL0     C17428   7.386   2.009   8.754 -0.7102 -0.1623 -0.7184
  130MOL0     C17429   7.540   2.009   8.761  0.4011  0.4595  0.2743
  130MOL0     C17430   7.591   1.919   8.647  0.3003  0.3307 -0.6792
  130MOL0     C17431   7.742   1.880   8.653 -0.2603  0.3187  0.3720
  130MOL0     N17432   7.826   1.991   8.619 -0.3539  0.0402 -0.0494
  130MOL0     C17433   7.841   2.111   8.685  0.7092 -0.3509 -0.4330
  130MOL0     C17434   7.928   2.190   8.609 -0.0132  0.2929 -0.0084
  130MOL0     C17435   7.984   2.322   8.635 -0.5037  0.1256  0.3179
  130MOL0     C17436   8.111   2.323   8.717  0.7538  0.3070 -0.0576
  130MOL0     C17437   8.134   2.468   8.759 -0.6068  0.2046  0.0628
  130MOL0     C17438   8.279   2.503   8.769  0.1098  0.3548 -0.0105
  130MOL0     O17439   8.302   2.636   8.811 -0.4442 -0.4443 -0.1346
  130MOL0     C17440   8.435   2.683   8.817 -0.2880  0.4728  0.6531
  130MOL0     C17441   8.532   2.625   8.899 -0.1119 -0.2134 -0.2475
  130MOL0     C17442   8.661   2.678   8.907 -0.5476  0.6635  0.7767
  130MOL0     C17443   8.700   2.785   8.834 -0.9725 -1.4668 -0.0096
  130MOL0     C17444   8.845   2.827   8.847 -0.6565  0.4502  0.7464
  130MOL0     O17445   8.917   2.740   8.914  0.2019 -0.2284  0.4138
  130MOL0     C17446   9.053   2.742   8.929 -0.2997  0.0383 -0.6780
  130MOL0     C17447   9.149   2.806   8.845 -0.4850 -0.0379  0.7048
  130MOL0     C17448   9.288   2.785   8.869  0.6399 -0.2949  0.0097
  130MOL0     C17449   9.333   2.707   8.963 -0.5270  0.0371 -0.5936
  130MOL0     O17450   9.474   2.709   8.965  0.0246  0.4383  0.0823
  130MOL0     C17451   9.547   2.617   9.043 -0.0552  0.4800 -0.6184
  130MOL0     C17452   9.589   2.490   8.970 -0.1692  0.4587  0.3902
  130MOL0     C17453   9.726   2.435   9.008 -0.5088  0.6112 -0.9057
  130MOL0     C17454   9.726   2.376   9.153 -0.7402 -0.3753  0.5785
  130MOL0     C17455   9.867   2.338   9.193  0.1255 -0.0756 -0.1831
  130MOL0     C17456   9.924   2.227   9.098 -0.2032 -0.6744 -0.0886
  130MOL0     C17457  10.061   2.177   9.149 -0.7423  0.2998 -0.9530
  130MOL0     C17458  10.184   2.243   9.087 -0.6110 -0.1573  0.2439
  130MOL0    Cl17459  10.180   2.422   9.125 -0.2532  0.5319 -0.5773
  130MOL0     C17460   9.240   2.648   9.043 -0.2466  0.3616 -0.2373
  130MOL0     C17461   9.100   2.655   9.030 -0.5539  0.2158 -0.0476
  130MOL0     O17462   8.885   2.929   8.798 -0.2548 -0.5776  0.5636
  130MOL0     C17463   8.599   2.848   8.755  0.2644  0.0166 -0.2810
  130MOL0     C17464   8.472   2.793   8.741  0.1432 -0.2701  0.3594
  130MOL0     N17465   7.953   2.112   8.495  0.6520  0.6346 -0.0099
  130MOL0     N17466   7.896   1.996   8.500 -0.1178 -0.5765 -0.2236
  130MOL0     C17467   6.668   1.878   8.931 -1.0168 -0.1292 -0.2109
  130MOL0     C17468   6.538   1.884   8.899  0.2107 -0.0831 -0.5159
  130MOL0     C17469   6.105   2.023   8.956  0.0622 -0.0030  0.2781
  130MOL0     C17470   6.074   1.924   8.857 -0.9288 -0.4306 -0.3079
  130MOL0     C17471   5.942   1.892   8.835 -0.2963 -0.5766  0.0857
  130MOL0     C17472   5.839   1.944   8.918  0.0783  0.3579 -0.2491
  130MOL0     O17473   5.714   1.903   8.880  0.1488 -0.3349 -0.1379
  130MOL0     C17474   5.658   1.793   8.961 -1.0223 -0.1982  0.6055
  130MOL0     C17475   5.509   1.793   8.931  0.4428  0.4349 -0.0656
  130MOL0     C17476   5.439   1.706   9.025 -0.0617  0.4035  0.6969
  130MOL0     C17477   5.284   1.699   8.989 -0.6640  0.2929  0.0144
  130MOL0     C17478   5.223   1.830   9.013  0.8875  0.6841  0.5206
  130MOL0     C17479   5.170   1.941   9.010 -0.5597 -0.7109 -0.2060
  130MOL0     C17480   5.874   2.032   9.025  0.2772  0.9830  0.9962
  130MOL0     C17481   6.005   2.072   9.046 -0.2446  0.0173  0.3160
  130MOL0     C17482   6.033   2.164   9.164  0.0429 -0.2736 -0.0664
  130MOL0     H17483   6.480   2.208   8.878 -1.2737 -0.4895  2.4853
  130MOL0     H17484   6.724   2.212   8.943 -0.2404 -0.7698  2.5562
  130MOL0     H17485   6.938   2.182   8.981  3.8952  0.6139 -1.5174
  130MOL0     H17486   6.920   2.102   9.142 -0.2461 -2.4658 -0.5094
  130MOL0     H17487   7.138   1.996   9.099 -3.5612 -2.3121 -0.4764
  130MOL0     H17488   7.143   2.174   9.063 -2.9961  2.2295 -2.9880
  130MOL0     H17489   7.118   2.126   8.826  1.2311  0.3288 -0.3428
  130MOL0     H17490   7.147   1.954   8.856 -1.8829  0.1061  1.9912
  130MOL0     H17491   7.328   2.184   8.879 -2.6878  0.3196 -3.7467
  130MOL0     H17492   7.347   2.022   8.972 -3.2012 -1.4484 -0.0299
  130MOL0     H17493   7.351   1.906   8.742 -0.5251 -0.5180  1.4229
  130MOL0     H17494   7.359   2.068   8.666  3.3375  1.1458 -1.3227
  130MOL0     H17495   7.582   2.110   8.758 -1.6379  1.3312 -0.7623
  130MOL0     H17496   7.568   1.958   8.853 -2.3354 -1.5668  0.1033
  130MOL0     H17497   7.563   1.946   8.545 -1.7245 -1.0250 -0.5384
  130MOL0     H17498   7.540   1.823   8.659  2.1549 -0.6020  0.1239
  130MOL0     H17499   7.761   1.844   8.755 -3.2156 -0.9913  0.5411
  130MOL0     H17500   7.762   1.799   8.582  0.0703 -1.7122  2.6302
  130MOL0     H17501   7.786   2.131   8.777  2.6632  2.9183  0.2278
  130MOL0     H17502   7.999   2.366   8.536 -2.0361  2.4546  1.0191
  130MOL0     H17503   7.902   2.376   8.685  0.4771  0.2240  1.8973
  130MOL0     H17504   8.089   2.271   8.810 -2.6044  0.6170 -0.5700
  130MOL0     H17505   8.190   2.278   8.655 -0.2500  0.7782 -1.7471
  130MOL0     H17506   8.073   2.482   8.849  1.2539 -1.4473  1.6856
  130MOL0     H17507   8.090   2.534   8.683  0.0927 -0.1632 -0.6744
  130MOL0     H17508   8.322   2.484   8.671  0.9510  3.2939 -0.2976
  130MOL0     H17509   8.327   2.432   8.838  0.8744  0.2567 -0.6269
  130MOL0     H17510   8.499   2.543   8.962 -1.7263  2.7750  3.1936
  130MOL0     H17511   8.726   2.621   8.973  1.5835  0.3971 -1.4118
  130MOL0     H17512   9.112   2.859   8.759  1.4095 -2.5541 -1.8490
  130MOL0     H17513   9.353   2.842   8.804 -0.5907  0.6302 -0.4422
  130MOL0     H17514   9.639   2.663   9.081  0.3658 -1.3901  0.8093
  130MOL0     H17515   9.501   2.590   9.139  1.3586  0.7875  0.1734
  130MOL0     H17516   9.517   2.409   8.981  1.0325 -0.7032 -0.0428
  130MOL0     H17517   9.614   2.503   8.864 -1.1332  1.9014  0.3046
  130MOL0     H17518   9.747   2.347   8.947  0.3777 -1.6866  2.4522
  130MOL0     H17519   9.802   2.514   8.998 -0.5529  1.6440  4.0776
  130MOL0     H17520   9.651   2.297   9.154 -2.1837  0.9386  2.5276
  130MOL0     H17521   9.694   2.451   9.225  0.7647  0.1478  0.7326
  130MOL0     H17522   9.867   2.301   9.296 -0.9358 -1.3491 -0.6181
  130MOL0     H17523   9.929   2.428   9.197  0.7213 -0.4202 -1.3536
  130MOL0     H17524   9.846   2.153   9.080 -0.5633  0.4054 -3.9503
  130MOL0     H17525   9.938   2.276   9.001 -0.2299  0.8737  0.6657
  130MOL0     H17526  10.069   2.071   9.124  1.0534  0.2378 -0.2468
  130MOL0     H17527  10.058   2.190   9.258 -1.6521  0.6382 -1.0095
  130MOL0     H17528  10.273   2.189   9.121 -0.7764 -0.2510  0.5316
  130MOL0     H17529  10.169   2.223   8.980 -1.8448  0.1212  0.3505
  130MOL0     H17530   9.280   2.586   9.123  2.0900 -1.3726 -2.5605
  130MOL0     H17531   9.039   2.596   9.097  0.4921  0.6351  1.3322
  130MOL0     H17532   8.639   2.936   8.705  1.2323 -0.2638 -0.0244
  130MOL0     H17533   8.406   2.849   8.675  3.0528  0.2157 -2.3685
  130MOL0     H17534   6.720   1.783   8.928 -1.0807 -0.1851 -4.3087
  130MOL0     H17535   6.486   1.790   8.889  0.5990 -0.3535 -0.0783
  130MOL0     H17536   6.156   1.870   8.810  0.5979  0.5502  1.1144
  130MOL0     H17537   5.912   1.822   8.758 -0.6785  2.2987 -2.5476
  130MOL0     H17538   5.678   1.823   9.064 -1.2368  3.3421 -0.2737
  130MOL0     H17539   5.705   1.698   8.936  1.6728  1.2223 -0.0387
  130MOL0     H17540   5.489   1.758   8.829  1.3349  1.6847 -0.6886
  130MOL0     H17541   5.464   1.892   8.936 -0.5253  0.2094 -2.6912
  130MOL0     H17542   5.451   1.750   9.124  0.9362 -0.1892  0.8461
  130MOL0     H17543   5.476   1.604   9.035 -2.2821 -0.3434  2.0487
  130MOL0     H17544   5.269   1.661   8.887 -0.9986  0.0295  0.1602
  130MOL0     H17545   5.235   1.622   9.049 -0.3922 -0.2014 -0.3934
  130MOL0     H17546   5.116   2.033   9.016 -2.2385 -1.6542 -0.2778
  130MOL0     H17547   5.796   2.065   9.092  0.9145  3.0352  0.8060
  130MOL0     H17548   5.943   2.211   9.205 -0.3626 -1.5531  0.5420
  130MOL0     H17549   6.077   2.103   9.243 -3.0826 -2.7222 -0.0313
  130MOL0     H17550   6.103   2.243   9.135 -2.2090  2.0705  0.4944
  131MOL0     O17551   2.811   5.516   6.480 -0.1201  0.0960  0.0773
  131MOL0     C17552   2.878   5.599   6.539 -0.4486  0.2052  0.0203
  131MOL0     O17553   2.835   5.712   6.602  0.2495  0.1127  1.2389
  131MOL0     C17554   2.694   5.729   6.587 -0.3252  0.7679 -0.3530
  131MOL0     C17555   2.634   5.748   6.710  0.2905  0.1906  0.3341
  131MOL0     C17556   2.493   5.748   6.713  0.2774  0.4330 -0.0274
  131MOL0     C17557   2.421   5.745   6.596  0.1896  0.2521 -0.0298
  131MOL0     O17558   2.283   5.736   6.595  0.4456 -0.4271  0.6515
  131MOL0     C17559   2.208   5.819   6.504 -0.2065 -0.4801 -0.6904
  131MOL0     C17560   2.064   5.780   6.502  0.2136  0.0168 -0.8249
  131MOL0     C17561   2.000   5.769   6.651  0.2709  0.4895  0.0598
  131MOL0     C17562   1.998   5.905   6.724  0.9103 -0.6018 -0.1529
  131MOL0     C17563   1.922   5.895   6.852  0.0939 -0.4178  0.1300
  131MOL0     C17564   1.871   6.031   6.905 -0.8995  0.6876  0.4314
  131MOL0     C17565   1.816   6.016   7.043  0.9080 -0.3760 -0.4412
  131MOL0     C17566   1.748   6.141   7.099  0.1816  0.2109  0.9055
  131MOL0     N17567   1.846   6.256   7.096  0.3086  0.2070  0.5058
  131MOL0     C17568   1.974   6.247   7.148  0.9187 -0.0512 -1.1708
  131MOL0     C17569   2.006   6.380   7.168  0.3610  0.0446  0.3256
  131MOL0     C17570   2.129   6.428   7.240  0.5822  0.4305  0.4386
  131MOL0     C17571   2.262   6.416   7.152  0.5023  0.0349 -1.2471
  131MOL0     C17572   2.288   6.541   7.071 -0.0216 -0.5294 -0.1218
  131MOL0     C17573   2.418   6.521   6.982 -0.1203  0.1779 -0.1840
  131MOL0     O17574   2.524   6.570   7.066  0.2945  0.7584  0.0428
  131MOL0     C17575   2.651   6.575   7.020  0.5870  0.4099 -0.2575
  131MOL0     C17576   2.743   6.640   7.101 -0.5421  0.3507 -0.0846
  131MOL0     C17577   2.876   6.646   7.062  0.5532  0.5259  0.0858
  131MOL0     C17578   2.932   6.596   6.938  0.2866  0.0961  0.2447
  131MOL0     C17579   3.076   6.623   6.896 -1.0515  0.3410 -0.5150
  131MOL0     O17580   3.133   6.545   6.799 -0.4071 -0.1422 -0.4923
  131MOL0     C17581   3.259   6.551   6.741  0.6790 -0.3695 -0.1382
  131MOL0     C17582   3.279   6.474   6.628 -0.1878 -0.4370  0.6603
  131MOL0     C17583   3.406   6.465   6.563 -0.0643 -0.3814 -0.6493
  131MOL0     C17584   3.516   6.531   6.611 -0.6108 -0.1351 -0.0038
  131MOL0     O17585   3.635   6.534   6.548 -0.2702 -0.6653  0.7260
  131MOL0     C17586   3.629   6.562   6.412  0.3259  0.1364  0.2156
  131MOL0     C17587   3.769   6.571   6.353  0.8248  0.2067 -0.3300
  131MOL0     C17588   3.847   6.693   6.401  0.0649 -0.4296  0.2568
  131MOL0     C17589   4.000   6.672   6.390 -0.6708  0.9927  0.4593
  131MOL0     C17590   4.094   6.781   6.441  0.8411 -0.0253 -0.4574
  131MOL0     C17591   4.241   6.755   6.408  0.6819 -0.2715 -0.0820
  131MOL0     C17592   4.339   6.871   6.452  0.5264  0.6527  0.3754
  131MOL0     C17593   4.489   6.850   6.418 -0.0808 -0.3537 -0.7257
  131MOL0    Cl17594   4.548   6.700   6.489 -0.4625  0.1968 -0.0963
  131MOL0     C17595   3.499   6.622   6.716  1.3833 -0.6569 -0.2667
  131MOL0     C17596   3.369   6.628   6.783  0.3473 -0.5253  0.1420
  131MOL0     O17597   3.119   6.728   6.945  1.2421 -0.3172 -0.0928
  131MOL0     C17598   2.839   6.533   6.853  0.3699  0.1266  0.2643
  131MOL0     C17599   2.695   6.524   6.894  0.2092  0.4809 -0.4825
  131MOL0     N17600   1.902   6.467   7.110 -1.0822  0.3343 -0.2468
  131MOL0     N17601   1.811   6.382   7.071 -0.8454 -0.2860 -0.2802
  131MOL0     C17602   2.480   5.741   6.469  0.3619  0.1939 -0.5021
  131MOL0     C17603   2.620   5.724   6.472 -0.2361  0.5284  0.8497
  131MOL0     C17604   3.030   5.587   6.529  0.7090 -0.8301  0.3868
  131MOL0     C17605   3.106   5.696   6.574 -0.5823  0.1580  0.4583
  131MOL0     C17606   3.247   5.685   6.571 -0.5149 -0.1993  0.1728
  131MOL0     C17607   3.312   5.571   6.530  0.8509  0.0987 -0.5912
  131MOL0     O17608   3.449   5.550   6.531 -0.2780 -0.1260  0.0529
  131MOL0     C17609   3.526   5.660   6.577 -0.6492  0.8620  0.5886
  131MOL0     C17610   3.675   5.631   6.548 -0.4867  0.6062  0.6575
  131MOL0     C17611   3.699   5.620   6.397  0.3355 -1.0318 -0.3405
  131MOL0     C17612   3.849   5.630   6.351  0.1016  0.3600  0.2011
  131MOL0     C17613   3.905   5.503   6.393 -0.6727 -0.5924  0.0333
  131MOL0     C17614   3.946   5.393   6.434 -0.1160 -0.4438 -0.3015
  131MOL0     C17615   3.231   5.478   6.463 -0.7124  0.4407 -0.7186
  131MOL0     C17616   3.094   5.471   6.470  0.6491  0.0600  0.2116
  131MOL0     C17617   3.025   5.341   6.440 -0.8236 -1.8382 -0.2892
  131MOL0     H17618   2.696   5.759   6.799 -0.6004 -2.3585  1.3728
  131MOL0     H17619   2.447   5.753   6.811 -0.0378 -3.6334  0.1990
  131MOL0     H17620   2.227   5.914   6.556  1.1975 -1.3151  0.3672
  131MOL0     H17621   2.236   5.834   6.400  0.8533  2.8038 -0.0779
  131MOL0     H17622   2.052   5.682   6.456 -1.9480 -0.8193  1.3165
  131MOL0     H17623   2.001   5.844   6.440 -3.4415 -4.3639 -2.2133
  131MOL0     H17624   2.046   5.694   6.716 -3.8598 -0.9094  1.7082
  131MOL0     H17625   1.896   5.738   6.642  0.3154  0.3725 -0.0593
  131MOL0     H17626   2.094   5.948   6.754  0.3173 -1.5309  3.4736
  131MOL0     H17627   1.946   5.963   6.647  0.0751 -2.9769 -1.4593
  131MOL0     H17628   1.831   5.836   6.839  0.0618  0.1018 -2.5565
  131MOL0     H17629   1.995   5.857   6.924 -0.5657 -0.2178  0.9121
  131MOL0     H17630   1.957   6.099   6.912 -0.4628  0.3590 -1.1911
  131MOL0     H17631   1.799   6.071   6.834 -2.1873 -1.9875  0.0991
  131MOL0     H17632   1.891   5.975   7.112  0.1960 -2.5077 -0.8644
  131MOL0     H17633   1.742   5.937   7.040  1.9659 -1.3810 -0.9381
  131MOL0     H17634   1.666   6.163   7.031  0.5244  1.7755  0.9648
  131MOL0     H17635   1.705   6.121   7.198  0.2587 -2.3672  0.4798
  131MOL0     H17636   2.030   6.157   7.171 -2.1676 -2.0894 -1.1797
  131MOL0     H17637   2.126   6.524   7.293 -1.0841 -0.2732  1.7137
  131MOL0     H17638   2.146   6.359   7.324  0.2009  0.2908  0.4051
  131MOL0     H17639   2.348   6.397   7.218  0.5830 -1.6920 -1.7913
  131MOL0     H17640   2.250   6.330   7.085  2.1782  0.1423 -1.7489
  131MOL0     H17641   2.304   6.632   7.130 -3.3133 -0.6078  1.0784
  131MOL0     H17642   2.198   6.559   7.012 -1.1217 -0.3292  1.5607
  131MOL0     H17643   2.409   6.583   6.892 -0.5361 -0.2405 -0.4369
  131MOL0     H17644   2.419   6.422   6.934  0.1672  1.0541 -2.0675
  131MOL0     H17645   2.711   6.679   7.198 -1.3372  2.1054 -0.9905
  131MOL0     H17646   2.940   6.704   7.128  0.9730  1.0183 -0.7468
  131MOL0     H17647   3.200   6.415   6.582 -0.8517  0.4069  0.6967
  131MOL0     H17648   3.415   6.399   6.478 -0.2715 -1.7181  0.3301
  131MOL0     H17649   3.577   6.478   6.363  0.9797 -1.2652  1.8158
  131MOL0     H17650   3.575   6.656   6.398 -0.8774 -0.3603  1.3528
  131MOL0     H17651   3.820   6.486   6.399 -0.2065  0.0287  0.5341
  131MOL0     H17652   3.772   6.568   6.244 -0.3730  0.8259 -0.3969
  131MOL0     H17653   3.821   6.774   6.332 -1.6622 -1.9283 -0.9756
  131MOL0     H17654   3.825   6.720   6.504  1.3401  3.5852 -0.3624
  131MOL0     H17655   4.026   6.659   6.284  0.2101  2.9960  0.3978
  131MOL0     H17656   4.031   6.579   6.439 -2.1225  1.0295  1.5002
  131MOL0     H17657   4.080   6.791   6.549 -0.6331  1.3657 -0.7346
  131MOL0     H17658   4.061   6.879   6.405 -2.1420 -0.1717  1.5233
  131MOL0     H17659   4.278   6.665   6.457  0.7755  0.3731  1.0581
  131MOL0     H17660   4.237   6.735   6.300 -1.2873  0.3608 -0.1537
  131MOL0     H17661   4.325   6.890   6.559  0.4271 -0.9859  0.6890
  131MOL0     H17662   4.319   6.954   6.384  2.0431  0.2540 -0.6092
  131MOL0     H17663   4.507   6.850   6.310 -0.9086 -0.3376 -0.8722
  131MOL0     H17664   4.536   6.935   6.469  0.2877 -0.8566 -0.2253
  131MOL0     H17665   3.583   6.684   6.747  0.7977 -0.1759  0.4068
  131MOL0     H17666   3.361   6.684   6.875  0.2944  0.9806 -0.7485
  131MOL0     H17667   2.865   6.499   6.753  0.7927  0.6316  0.2001
  131MOL0     H17668   2.638   6.460   6.827 -1.1141  0.5521  0.5413
  131MOL0     H17669   2.429   5.741   6.374  2.1393  1.2706 -1.5018
  131MOL0     H17670   2.667   5.713   6.376 -3.2282  2.0596 -0.9551
  131MOL0     H17671   3.063   5.790   6.606  1.4434  1.0047  0.8836
  131MOL0     H17672   3.298   5.774   6.609  1.7084 -1.2636 -0.1187
  131MOL0     H17673   3.513   5.676   6.685  1.0745 -0.1910  0.9943
  131MOL0     H17674   3.503   5.751   6.522 -0.1918  0.2239 -0.6823
  131MOL0     H17675   3.709   5.535   6.589  2.0873 -0.6145 -3.6768
  131MOL0     H17676   3.733   5.707   6.602  0.4227 -1.2126  2.3807
  131MOL0     H17677   3.640   5.703   6.356 -1.1994 -1.2168  1.3416
  131MOL0     H17678   3.654   5.528   6.360 -1.5647 -1.3009  2.3505
  131MOL0     H17679   3.854   5.625   6.242  0.5552 -1.7828  0.2657
  131MOL0     H17680   3.907   5.714   6.392 -0.7920  0.9706  0.2359
  131MOL0     H17681   3.985   5.301   6.473  1.7831  0.6715  0.5397
  131MOL0     H17682   3.283   5.396   6.416  0.8819  0.7430  0.4340
  131MOL0     H17683   2.979   5.343   6.341 -1.6870  0.3944  0.1006
  131MOL0     H17684   3.096   5.258   6.449  3.6651  1.3674 -2.5734
  131MOL0     H17685   2.942   5.326   6.511 -2.8768  1.0195 -1.8809
  132MOL0     O17686   0.344   1.747  10.104 -0.1697 -0.0202  0.1163
  132MOL0     C17687   0.322   1.866  10.125 -0.1081 -0.3462 -0.0224
  132MOL0     O17688   0.397   1.959  10.069 -0.4992 -0.5051 -0.5509
  132MOL0     C17689   0.528   1.937  10.018  0.2409 -0.3426  1.2239
  132MOL0     C17690   0.616   1.853  10.081 -0.6858  0.3800 -0.0735
  132MOL0     C17691   0.742   1.840  10.033 -0.1817 -0.1584 -0.3265
  132MOL0     C17692   0.789   1.903   9.920 -0.2173 -0.4874 -0.4616
  132MOL0     O17693   0.915   1.881   9.865 -0.4436 -0.2559 -0.1128
  132MOL0     C17694   1.017   1.818   9.946  0.6039 -0.0206 -0.2299
  132MOL0     C17695   1.145   1.819   9.867 -0.0467 -0.1119 -0.1681
  132MOL0     C17696   1.269   1.787   9.959 -0.9373  0.2010 -0.1782
  132MOL0     C17697   1.398   1.756   9.875 -0.1865 -0.3772 -0.0659
  132MOL0     C17698   1.515   1.735   9.969 -0.7388 -0.0078  0.2930
  132MOL0     C17699   1.642   1.698   9.884  0.1695  0.3603  0.3745
  132MOL0     C17700   1.765   1.708   9.968  0.1160  0.1226 -0.1168
  132MOL0     C17701   1.890   1.665   9.883  0.0361  0.1354 -0.1458
  132MOL0     N17702   2.021   1.628   9.950  0.8626  0.0505 -0.5867
  132MOL0     C17703   2.135   1.701   9.958  0.0692 -1.1717  0.4284
  132MOL0     C17704   2.211   1.631  10.038 -1.4059 -0.3488 -0.0936
  132MOL0     C17705   2.341   1.682  10.095 -0.2444  0.5134  0.2978
  132MOL0     C17706   2.364   1.596  10.231  0.3975 -0.6596 -0.2716
  132MOL0     C17707   2.472   1.648  10.326  0.0798 -0.6149 -0.1031
  132MOL0     C17708   2.602   1.674  10.259 -0.7942  0.3245  1.5082
  132MOL0     O17709   2.697   1.583  10.300  0.4704 -0.4843  0.5314
  132MOL0     C17710   2.829   1.601  10.296 -0.2659 -0.4125  0.0729
  132MOL0     C17711   2.889   1.701  10.223 -0.0380  0.1126  0.1723
  132MOL0     C17712   3.027   1.710  10.226  0.4488  0.2556  0.2955
  132MOL0     C17713   3.115   1.615  10.282 -0.1972  1.0958 -0.2080
  132MOL0     C17714   3.270   1.637  10.264  0.1905  0.1970 -0.2782
  132MOL0     O17715   3.312   1.726  10.165  0.4633 -0.6460 -0.3136
  132MOL0     C17716   3.455   1.740  10.156  0.3343  0.0102 -0.3776
  132MOL0     C17717   3.532   1.818  10.247 -0.1168 -0.5272 -0.4104
  132MOL0     C17718   3.670   1.839  10.231 -0.4396  0.5947  0.2432
  132MOL0     C17719   3.736   1.761  10.126 -0.0106 -0.8888  0.8559
  132MOL0     O17720   3.872   1.773  10.123 -0.3388 -0.4076 -0.1236
  132MOL0     C17721   3.946   1.678  10.048 -0.2422 -0.1055 -0.2752
  132MOL0     C17722   3.930   1.534  10.104 -0.2445  0.2937  0.0572
  132MOL0     C17723   3.987   1.517  10.247 -0.2527 -0.0200  0.2370
  132MOL0     C17724   3.981   1.381  10.300 -0.3650  0.2658  0.1106
  132MOL0     C17725   4.043   1.380  10.448 -0.1519  0.1037 -0.4438
  132MOL0     C17726   3.930   1.418  10.546 -0.4865  0.5254 -0.0919
  132MOL0     C17727   3.979   1.420  10.693 -0.3786 -0.4976 -0.9956
  132MOL0     C17728   3.863   1.427  10.786 -0.2865  0.3068 -0.2074
  132MOL0    Cl17729   3.925   1.464  10.949 -0.1417 -0.1117 -0.1380
  132MOL0     C17730   3.658   1.687  10.036  0.0327  0.4871  0.5353
  132MOL0     C17731   3.523   1.675  10.051 -0.5347 -0.0036  0.5086
  132MOL0     O17732   3.343   1.577  10.344  0.1183 -0.2901  0.3996
  132MOL0     C17733   3.054   1.519  10.358 -0.8643 -0.5637 -0.1222
  132MOL0     C17734   2.911   1.509  10.361 -0.3297  0.2193 -0.0604
  132MOL0     N17735   2.152   1.505  10.076  0.2942 -0.4784 -0.2186
  132MOL0     N17736   2.038   1.506  10.019 -0.7966  0.7966 -0.3841
  132MOL0     C17737   0.698   1.980   9.855  0.3239 -1.3431  0.0115
  132MOL0     C17738   0.565   1.998   9.891  0.3047 -0.7073 -1.0610
  132MOL0     C17739   0.224   1.909  10.224  0.1445 -0.2946  0.2109
  132MOL0     C17740   0.224   2.045  10.255  1.2235  0.4013 -0.2585
  132MOL0     C17741   0.132   2.097  10.349  0.0800  0.1682  0.1053
  132MOL0     C17742   0.042   2.012  10.415 -0.3494  1.1048  0.2521
  132MOL0     O17743  -0.041   2.061  10.510  0.1189 -0.8724  0.0415
  132MOL0     C17744  -0.177   2.083  10.465 -0.2420  0.1031 -0.1611
  132MOL0     C17745  -0.226   2.192  10.557 -0.0565  0.3507  0.7722
  132MOL0     C17746  -0.266   2.141  10.697 -0.4887  0.6123  0.5649
  132MOL0     C17747  -0.275   2.256  10.798  0.0278 -0.2748 -0.2192
  132MOL0     C17748  -0.399   2.335  10.793 -0.2762 -1.1168  0.0434
  132MOL0     C17749  -0.491   2.415  10.797  0.4799  0.1913  0.1397
  132MOL0     C17750   0.037   1.880  10.379  0.6051 -0.5934 -0.0395
  132MOL0     C17751   0.116   1.833  10.278  0.5327  0.3438 -0.3750
  132MOL0     C17752   0.095   1.693  10.229  0.8586 -0.1657  0.4900
  132MOL0     H17753   0.582   1.804  10.171 -2.9045 -3.1253 -2.5376
  132MOL0     H17754   0.806   1.768  10.083 -0.5613 -0.8848 -0.8583
  132MOL0     H17755   1.025   1.870  10.042 -0.9087  2.2590 -1.2353
  132MOL0     H17756   0.998   1.712   9.962 -0.0842  0.5188  3.4088
  132MOL0     H17757   1.154   1.919   9.821 -2.6835  2.1094  3.6209
  132MOL0     H17758   1.139   1.748   9.784  0.7842 -0.6468  0.2200
  132MOL0     H17759   1.262   1.697  10.020  0.9624  0.0302 -0.1274
  132MOL0     H17760   1.292   1.875  10.020 -0.2949 -0.1940  0.1677
  132MOL0     H17761   1.375   1.672   9.809 -0.5324 -1.8338  1.8217
  132MOL0     H17762   1.411   1.847   9.816 -4.2824 -0.1812 -1.0149
  132MOL0     H17763   1.541   1.819  10.034 -1.4280  0.0700  0.4747
  132MOL0     H17764   1.487   1.652  10.035  0.3542  0.2157  1.0662
  132MOL0     H17765   1.624   1.596   9.850  0.8326  0.8328 -1.5285
  132MOL0     H17766   1.660   1.767   9.801 -2.1283  1.1938  0.5144
  132MOL0     H17767   1.753   1.655  10.063  0.9472  0.7704  0.3592
  132MOL0     H17768   1.790   1.812   9.987  2.5944 -0.2804 -0.8117
  132MOL0     H17769   1.872   1.573   9.827 -0.5632 -0.0680  0.3693
  132MOL0     H17770   1.907   1.735   9.801  5.1688 -4.4182 -3.6910
  132MOL0     H17771   2.158   1.802   9.924 -0.9271 -0.5025  1.6577
  132MOL0     H17772   2.424   1.663  10.026  0.0440  1.3813  0.3919
  132MOL0     H17773   2.331   1.790  10.110  0.7558  0.8565 -1.2201
  132MOL0     H17774   2.272   1.591  10.289 -0.7792 -1.2637 -2.0809
  132MOL0     H17775   2.383   1.493  10.197 -3.3655 -1.6198  0.1298
  132MOL0     H17776   2.478   1.577  10.410 -3.4630 -2.5541 -1.2786
  132MOL0     H17777   2.436   1.742  10.368 -0.3654 -0.0358 -1.7136
  132MOL0     H17778   2.627   1.780  10.273  0.1979  0.8913 -2.9827
  132MOL0     H17779   2.600   1.663  10.150 -0.4225 -0.7558  1.5978
  132MOL0     H17780   2.826   1.759  10.156  0.6017  0.3482 -0.2302
  132MOL0     H17781   3.072   1.785  10.163  0.0836 -0.2600 -0.6090
  132MOL0     H17782   3.482   1.858  10.334 -0.2639  0.8209 -1.0958
  132MOL0     H17783   3.726   1.899  10.303 -0.8793 -0.0701  1.1590
  132MOL0     H17784   3.924   1.692   9.941  1.3060  0.1856 -0.5768
  132MOL0     H17785   4.051   1.707  10.054  0.8436 -2.5230 -3.8634
  132MOL0     H17786   3.825   1.507  10.111 -0.4487  1.0412 -0.1084
  132MOL0     H17787   3.973   1.457  10.039 -1.0576 -1.4905  1.5314
  132MOL0     H17788   4.092   1.547  10.243  0.2345 -1.5754  0.7728
  132MOL0     H17789   3.949   1.586  10.323  1.8572  0.9822  0.4514
  132MOL0     H17790   4.043   1.315  10.240 -1.3443 -1.1967  0.6537
  132MOL0     H17791   3.880   1.340  10.293  0.4243 -1.6933 -0.3046
  132MOL0     H17792   4.133   1.439  10.469  0.1057 -0.5921  0.5188
  132MOL0     H17793   4.066   1.274  10.462  0.7178  0.5327  1.7737
  132MOL0     H17794   3.878   1.512  10.529  1.0563  2.0061  2.6490
  132MOL0     H17795   3.857   1.337  10.556  0.2326 -0.1207  0.0216
  132MOL0     H17796   4.047   1.504  10.711 -0.7440  0.2678 -2.9309
  132MOL0     H17797   4.037   1.331  10.719 -0.4175 -0.4276 -0.6645
  132MOL0     H17798   3.792   1.508  10.769 -0.4209  0.6769  1.8173
  132MOL0     H17799   3.805   1.334  10.774 -1.6184  0.6576  2.6572
  132MOL0     H17800   3.710   1.646   9.950 -1.9157 -0.9747 -0.0294
  132MOL0     H17801   3.458   1.631   9.975 -2.2666  0.4782  1.6674
  132MOL0     H17802   3.112   1.436  10.397 -2.3773 -1.6193 -0.0080
  132MOL0     H17803   2.874   1.420  10.412  2.1438  0.5755  2.5832
  132MOL0     H17804   0.738   2.021   9.763  0.9334 -0.4896  0.6459
  132MOL0     H17805   0.500   2.046   9.819 -1.3197 -0.9064  0.2174
  132MOL0     H17806   0.287   2.124  10.215  0.6825  2.3223  2.3926
  132MOL0     H17807   0.121   2.203  10.370 -0.2160  0.3910 -1.0488
  132MOL0     H17808  -0.238   1.992  10.464  1.9519 -1.5285  1.6560
  132MOL0     H17809  -0.169   2.122  10.363 -1.0016 -0.3297 -0.3925
  132MOL0     H17810  -0.311   2.244  10.511  1.6458  3.3159  0.7103
  132MOL0     H17811  -0.153   2.273  10.564  1.2647 -0.7609  0.3196
  132MOL0     H17812  -0.187   2.076  10.734 -1.6897 -0.2382  1.7350
  132MOL0     H17813  -0.358   2.082  10.691 -0.1734  0.2551 -1.6295
  132MOL0     H17814  -0.284   2.207  10.896  1.5238 -0.4854 -0.1515
  132MOL0     H17815  -0.187   2.320  10.799 -0.7601  0.9072 -2.0827
  132MOL0     H17816  -0.577   2.477  10.784  1.5716  1.6879 -0.2934
  132MOL0     H17817  -0.031   1.826  10.444 -1.5627  1.8119 -0.1421
  132MOL0     H17818   0.162   1.631  10.290  2.4950 -0.0861 -1.1553
  132MOL0     H17819  -0.007   1.674  10.264  0.5293  3.4083  1.9474
  132MOL0     H17820   0.103   1.683  10.121  0.3943  2.0710  0.1972
  133MOL0     O17821   0.951   2.417   6.669 -0.4346  0.3976  0.7806
  133MOL0     C17822   0.864   2.497   6.691  1.1431 -0.7770 -0.4352
  133MOL0     O17823   0.889   2.631   6.733  0.3806 -0.8659 -0.3803
  133MOL0     C17824   1.023   2.671   6.727 -1.1370 -0.7699  0.2659
  133MOL0     C17825   1.125   2.618   6.804  0.9013  0.2303 -0.3472
  133MOL0     C17826   1.262   2.646   6.781  0.3843  0.0965  0.1418
  133MOL0     C17827   1.295   2.739   6.679  1.4444  0.7420 -1.0559
  133MOL0     O17828   1.416   2.795   6.663 -0.2214  0.1762 -0.0328
  133MOL0     C17829   1.524   2.747   6.743 -0.2745 -0.5773  0.3647
  133MOL0     C17830   1.646   2.801   6.664 -0.2425  0.0699  0.6157
  133MOL0     C17831   1.779   2.743   6.715  0.0238  0.1766  0.0957
  133MOL0     C17832   1.897   2.790   6.634 -0.1535 -0.3004 -0.1432
  133MOL0     C17833   2.025   2.734   6.698  0.3751  0.2331  0.2532
  133MOL0     C17834   2.132   2.840   6.678  0.5014  0.7563  0.4031
  133MOL0     C17835   2.269   2.797   6.728  0.0653  0.2886 -0.0835
  133MOL0     C17836   2.381   2.896   6.692  0.1796  0.1309  0.3341
  133MOL0     N17837   2.358   3.031   6.739  0.0722 -0.2191  0.0110
  133MOL0     C17838   2.342   3.066   6.873  1.2766 -0.5606 -0.2595
  133MOL0     C17839   2.323   3.199   6.862  0.2273 -0.3798 -0.1338
  133MOL0     C17840   2.320   3.293   6.990  0.0386  0.3206  0.6664
  133MOL0     C17841   2.465   3.316   7.025  0.1895  0.0596 -0.2329
  133MOL0     C17842   2.533   3.431   6.949 -0.1549  0.3600  0.0932
  133MOL0     C17843   2.655   3.490   7.017 -0.2239  0.5311 -0.2516
  133MOL0     O17844   2.746   3.391   7.047  0.9477 -0.7180 -0.0383
  133MOL0     C17845   2.861   3.429   7.107  0.0625  0.6218 -0.9889
  133MOL0     C17846   2.954   3.325   7.142  0.1074  0.7554  0.2295
  133MOL0     C17847   3.080   3.339   7.205 -0.8552  0.2158  0.1262
  133MOL0     C17848   3.109   3.472   7.249 -0.6889 -0.0232  0.5716
  133MOL0     C17849   3.232   3.488   7.325  0.2686 -0.3573 -0.0203
  133MOL0     O17850   3.333   3.388   7.327 -0.0631  0.5157 -0.3137
  133MOL0     C17851   3.443   3.412   7.403 -0.2738  0.3386 -0.1705
  133MOL0     C17852   3.568   3.430   7.341 -0.4105 -0.4267  0.6231
  133MOL0     C17853   3.690   3.450   7.410  0.4370  0.6114  0.2002
  133MOL0     C17854   3.682   3.445   7.552  0.4084  0.7622 -0.5186
  133MOL0     O17855   3.795   3.453   7.630 -0.3641 -0.1602 -0.4816
  133MOL0     C17856   3.923   3.503   7.578  0.1376  0.2640  0.1652
  133MOL0     C17857   4.032   3.520   7.691  0.0000  0.8343  0.5310
  133MOL0     C17858   4.101   3.394   7.722 -0.0476  0.0484 -0.4081
  133MOL0     C17859   4.222   3.423   7.816  0.0800 -0.1545 -0.0254
  133MOL0     C17860   4.284   3.301   7.890 -0.1849  0.2782 -0.4938
  133MOL0     C17861   4.405   3.347   7.968  0.1054 -0.2842  0.3390
  133MOL0     C17862   4.446   3.270   8.096  0.2573  0.1772  0.6322
  133MOL0     C17863   4.528   3.134   8.064  0.0472 -0.4324 -0.2892
  133MOL0    Cl17864   4.438   3.018   7.961 -0.3649 -0.3552 -0.3975
  133MOL0     C17865   3.560   3.431   7.617  0.0943  0.1380 -0.9730
  133MOL0     C17866   3.439   3.418   7.547 -0.4350  1.1711 -0.4947
  133MOL0     O17867   3.239   3.604   7.384  0.4956 -0.2013 -0.0424
  133MOL0     C17868   3.026   3.582   7.215  0.4541 -0.6154 -0.8306
  133MOL0     C17869   2.902   3.560   7.146  0.4758  0.7088  0.5174
  133MOL0     N17870   2.307   3.245   6.732  0.4841  0.6118 -0.3028
  133MOL0     N17871   2.316   3.131   6.658  0.1469 -0.5576 -0.1690
  133MOL0     C17872   1.189   2.784   6.595  0.8696  0.1265  0.4762
  133MOL0     C17873   1.063   2.738   6.613  0.7322 -0.4106 -0.2218
  133MOL0     C17874   0.724   2.447   6.675 -0.0013 -0.0689  0.2968
  133MOL0     C17875   0.694   2.310   6.687 -0.4153  0.3059  0.4400
  133MOL0     C17876   0.565   2.263   6.681 -0.7803 -0.1830  0.0353
  133MOL0     C17877   0.465   2.356   6.646 -0.8164 -0.1262  0.0740
  133MOL0     O17878   0.343   2.297   6.651 -0.2909 -0.1201 -0.9193
  133MOL0     C17879   0.227   2.385   6.629 -0.0671  1.0668  0.0490
  133MOL0     C17880   0.095   2.308   6.607  0.0177  1.2593 -0.4222
  133MOL0     C17881   0.053   2.193   6.703 -0.4268 -0.2594  1.0294
  133MOL0     C17882   0.060   2.224   6.848 -0.2759  0.4651 -0.0277
  133MOL0     C17883  -0.047   2.316   6.891  0.0332 -0.4636 -0.5481
  133MOL0     C17884  -0.142   2.383   6.931  0.2630 -0.7076  0.5551
  133MOL0     C17885   0.497   2.491   6.626  0.4604 -0.5717  0.1034
  133MOL0     C17886   0.626   2.536   6.633 -0.1838 -0.3055 -0.4342
  133MOL0     C17887   0.644   2.688   6.611 -0.2330 -0.6107  0.6433
  133MOL0     H17888   1.097   2.555   6.888 -1.8232 -1.4784 -2.3735
  133MOL0     H17889   1.338   2.611   6.850  1.8219  0.7280 -1.0821
  133MOL0     H17890   1.535   2.803   6.837 -1.4947  2.0104 -0.9481
  133MOL0     H17891   1.517   2.637   6.741 -1.0420 -0.5924  1.9035
  133MOL0     H17892   1.642   2.909   6.680  0.5920  0.1085  0.5693
  133MOL0     H17893   1.625   2.773   6.561 -0.4490  4.0647 -0.5735
  133MOL0     H17894   1.778   2.634   6.702  0.2106 -0.0442  1.6682
  133MOL0     H17895   1.793   2.763   6.822 -0.0645  1.3361 -0.0972
  133MOL0     H17896   1.887   2.758   6.530  0.4086  0.2454 -0.3707
  133MOL0     H17897   1.888   2.899   6.625  2.5197 -0.0030 -0.0200
  133MOL0     H17898   2.012   2.712   6.804 -0.1080  0.8317  0.3287
  133MOL0     H17899   2.051   2.644   6.642 -2.1537 -0.1131 -0.4944
  133MOL0     H17900   2.125   2.862   6.571 -2.8915  2.1708  0.7999
  133MOL0     H17901   2.102   2.923   6.743  3.1058  0.1293  2.5768
  133MOL0     H17902   2.292   2.702   6.677  0.9161 -0.1741  1.1196
  133MOL0     H17903   2.265   2.780   6.836  0.0248  0.4820 -0.0543
  133MOL0     H17904   2.465   2.849   6.744 -1.1416 -2.0935  0.5883
  133MOL0     H17905   2.407   2.890   6.586  0.1440 -0.6126  0.3602
  133MOL0     H17906   2.358   3.003   6.960 -2.7963 -0.5858  0.6510
  133MOL0     H17907   2.265   3.385   6.967 -0.3281  0.3266  1.5640
  133MOL0     H17908   2.273   3.239   7.072  1.3631 -0.8437  0.6997
  133MOL0     H17909   2.466   3.334   7.133 -0.6125  1.4061 -0.4290
  133MOL0     H17910   2.516   3.221   7.002  1.9499  1.4736 -2.5740
  133MOL0     H17911   2.456   3.509   6.941 -0.5780  0.0017  0.5302
  133MOL0     H17912   2.560   3.394   6.850 -0.5838 -1.4599  0.6191
  133MOL0     H17913   2.626   3.535   7.113  1.1942 -0.6500  0.7733
  133MOL0     H17914   2.704   3.568   6.959  1.6518 -1.4077 -1.4151
  133MOL0     H17915   2.940   3.219   7.121  0.0155  0.6316  0.9110
  133MOL0     H17916   3.151   3.257   7.216 -2.3572 -1.0606  0.5370
  133MOL0     H17917   3.582   3.421   7.233  2.1173  5.4444  0.0915
  133MOL0     H17918   3.782   3.467   7.356 -1.2914  1.3600 -2.7197
  133MOL0     H17919   3.964   3.432   7.506 -1.2055 -3.9385  3.1951
  133MOL0     H17920   3.905   3.604   7.539  2.9765  0.2376 -1.4460
  133MOL0     H17921   4.111   3.577   7.642  0.5536  1.6310  2.2898
  133MOL0     H17922   3.990   3.567   7.780  1.5594  2.1537  0.6140
  133MOL0     H17923   4.025   3.339   7.778 -2.3861  2.0390 -1.4743
  133MOL0     H17924   4.136   3.322   7.647  0.1961 -2.3441  1.8174
  133MOL0     H17925   4.189   3.488   7.897  1.3558 -3.3170  3.3288
  133MOL0     H17926   4.305   3.470   7.763  1.4503 -0.2455  1.9531
  133MOL0     H17927   4.314   3.224   7.818 -1.2583 -1.3625  0.7277
  133MOL0     H17928   4.214   3.261   7.963 -0.0538 -1.1311 -1.1021
  133MOL0     H17929   4.480   3.367   7.891  0.7611 -2.8490  0.2186
  133MOL0     H17930   4.383   3.447   8.006  3.0923  1.9319 -3.1097
  133MOL0     H17931   4.364   3.245   8.164  0.6344 -0.2098  0.9549
  133MOL0     H17932   4.512   3.336   8.152 -0.2709  1.4830 -0.2352
  133MOL0     H17933   4.623   3.154   8.015 -0.4785  0.1350 -1.0962
  133MOL0     H17934   4.553   3.090   8.161 -0.3555 -0.6069 -0.2642
  133MOL0     H17935   3.558   3.431   7.726  0.8795  2.2959 -0.9204
  133MOL0     H17936   3.351   3.406   7.609  0.6155 -2.1920  0.5823
  133MOL0     H17937   3.054   3.683   7.242  0.4135 -0.6326 -0.7237
  133MOL0     H17938   2.846   3.649   7.118  0.0420  1.0340  2.2977
  133MOL0     H17939   1.210   2.860   6.521 -0.5609  2.4988  2.3417
  133MOL0     H17940   0.979   2.766   6.549 -0.8745  0.5159  2.1519
  133MOL0     H17941   0.779   2.243   6.702 -0.3518 -0.1726 -1.7345
  133MOL0     H17942   0.528   2.162   6.695 -3.2922  0.6220 -0.2549
  133MOL0     H17943   0.244   2.446   6.540 -0.5743  1.2448  0.0717
  133MOL0     H17944   0.222   2.455   6.713  0.6429  1.2262 -0.0367
  133MOL0     H17945   0.107   2.263   6.509 -0.7707 -0.3521  0.1950
  133MOL0     H17946   0.015   2.383   6.602  0.9851  2.7155  2.9107
  133MOL0     H17947   0.133   2.119   6.697 -0.3166 -0.1525  1.1744
  133MOL0     H17948  -0.042   2.144   6.678 -0.0391 -0.7385  0.4565
  133MOL0     H17949   0.043   2.125   6.891 -0.0783  0.4041 -0.0895
  133MOL0     H17950   0.160   2.261   6.871 -0.9376  1.6104  1.1614
  133MOL0     H17951  -0.231   2.441   6.945 -0.9463 -1.6707 -2.3948
  133MOL0     H17952   0.426   2.571   6.606  0.7274 -0.4401 -0.3260
  133MOL0     H17953   0.742   2.713   6.569 -1.0083 -0.5567 -1.2505
  133MOL0     H17954   0.577   2.734   6.538 -0.4485 -2.7870 -0.6195
  133MOL0     H17955   0.652   2.740   6.707  3.0532 -1.0811  0.7539
  134MOL0     O17956   2.845   0.109   7.447  0.0501 -0.3001  0.4007
  134MOL0     C17957   2.822  -0.008   7.415 -0.4984  0.1415  0.4516
  134MOL0     O17958   2.914  -0.083   7.366  0.1572  0.5096 -0.3097
  134MOL0     C17959   3.047  -0.061   7.389  0.2567 -0.0931 -0.2312
  134MOL0     C17960   3.128  -0.094   7.287  0.1481 -0.6497  0.2739
  134MOL0     C17961   3.274  -0.076   7.300 -0.3343  0.3224 -1.2756
  134MOL0     C17962   3.331  -0.023   7.418 -0.2970 -0.5094 -0.3832
  134MOL0     O17963   3.467   0.004   7.427  0.3840  0.2901 -0.1562
  134MOL0     C17964   3.522  -0.014   7.559  0.2796  0.5643 -0.1730
  134MOL0     C17965   3.667  -0.006   7.552 -0.2307 -0.4896 -0.5842
  134MOL0     C17966   3.721  -0.139   7.502  0.5716 -0.0584 -0.9820
  134MOL0     C17967   3.869  -0.123   7.493 -0.5958  0.5459  1.0084
  134MOL0     C17968   3.947  -0.250   7.447  0.5678 -0.0883  0.1082
  134MOL0     C17969   4.094  -0.227   7.407 -0.1386  0.0909 -0.5952
  134MOL0     C17970   4.184  -0.150   7.496  0.3078 -1.1412  0.7023
  134MOL0     C17971   4.213  -0.216   7.630 -0.0799 -0.1526 -0.3313
  134MOL0     N17972   4.337  -0.293   7.638  0.3830  0.4386  0.4123
  134MOL0     C17973   4.383  -0.378   7.540  1.1987 -0.6220 -0.2554
  134MOL0     C17974   4.496  -0.429   7.588 -0.5070 -0.0181  0.5322
  134MOL0     C17975   4.591  -0.515   7.513 -0.5221  0.7666 -0.3079
  134MOL0     C17976   4.733  -0.519   7.582 -0.3148 -0.9378 -0.0434
  134MOL0     C17977   4.822  -0.611   7.500 -0.3998 -0.9625 -0.4079
  134MOL0     C17978   4.969  -0.569   7.527  0.9656 -0.0904 -0.1668
  134MOL0     O17979   4.984  -0.505   7.661 -0.7972 -0.6983 -0.1371
  134MOL0     C17980   5.108  -0.455   7.692 -0.1414 -0.3642 -0.4323
  134MOL0     C17981   5.136  -0.426   7.824  0.3473  0.9169 -0.4740
  134MOL0     C17982   5.253  -0.358   7.863  0.5792 -0.2922 -0.1110
  134MOL0     C17983   5.346  -0.313   7.764  0.2127 -0.1316  0.5605
  134MOL0     C17984   5.465  -0.229   7.797  0.5996  0.3464 -0.2822
  134MOL0     O17985   5.488  -0.208   7.930 -0.9567  0.6699  1.0234
  134MOL0     C17986   5.615  -0.169   7.964 -0.3071 -0.0499  0.2952
  134MOL0     C17987   5.706  -0.262   8.019 -0.1751 -0.1261 -0.4852
  134MOL0     C17988   5.829  -0.211   8.056 -0.0443  0.0952  0.1107
  134MOL0     C17989   5.873  -0.083   8.032  0.3495 -0.3874  0.0198
  134MOL0     O17990   5.996  -0.053   8.083 -0.1243 -0.0397 -0.1666
  134MOL0     C17991   6.043   0.081   8.060  0.1473  0.5848  0.3946
  134MOL0     C17992   6.175   0.085   8.137  0.1868 -0.7994  0.3405
  134MOL0     C17993   6.236   0.229   8.126 -0.0112 -0.0732  0.5496
  134MOL0     C17994   6.390   0.237   8.154  0.5540 -0.4084 -0.1664
  134MOL0     C17995   6.420   0.178   8.294  0.4683  0.1627 -0.3134
  134MOL0     C17996   6.564   0.195   8.331  0.6347  0.0930 -0.0212
  134MOL0     C17997   6.604   0.126   8.469  0.6547 -0.0654 -0.1553
  134MOL0     C17998   6.689   0.221   8.547  0.3189  0.9097  0.1003
  134MOL0    Cl17999   6.786   0.136   8.688  0.2304 -0.1971  0.3336
  134MOL0     C18000   5.774   0.010   7.976 -0.8493 -0.1105 -0.1763
  134MOL0     C18001   5.646  -0.032   7.943 -0.2871 -0.9182 -0.2086
  134MOL0     O18002   5.538  -0.190   7.703 -0.4018  0.7502  0.0729
  134MOL0     C18003   5.318  -0.356   7.631  0.0557 -0.5276  0.0294
  134MOL0     C18004   5.201  -0.418   7.591 -0.2451 -0.4318 -0.2334
  134MOL0     N18005   4.521  -0.388   7.715 -0.4004 -0.0637 -0.0348
  134MOL0     N18006   4.427  -0.305   7.747  0.5115  0.5369  0.2039
  134MOL0     C18007   3.244   0.002   7.527  0.4480 -0.3091 -0.4127
  134MOL0     C18008   3.105  -0.025   7.515 -0.3492 -0.9297 -0.2149
  134MOL0     C18009   2.690  -0.066   7.399  0.1364 -0.7741  0.3312
  134MOL0     C18010   2.684  -0.204   7.371  0.2689 -0.5477  1.1717
  134MOL0     C18011   2.559  -0.265   7.387 -0.2612  0.4216  0.5686
  134MOL0     C18012   2.450  -0.204   7.431  0.2145 -0.0289 -0.2582
  134MOL0     O18013   2.350  -0.291   7.472  0.8410 -0.2299 -0.3316
  134MOL0     C18014   2.224  -0.240   7.525 -0.4763 -0.4120  0.3089
  134MOL0     C18015   2.146  -0.369   7.561 -0.2271  0.3741 -0.2761
  134MOL0     C18016   2.188  -0.450   7.679 -0.1615 -0.0263 -0.6743
  134MOL0     C18017   2.159  -0.380   7.808 -0.0391 -0.5188  1.0180
  134MOL0     C18018   2.192  -0.468   7.917  0.5809  0.3172 -0.2441
  134MOL0     C18019   2.217  -0.543   8.012 -0.2558 -0.6877  0.4246
  134MOL0     C18020   2.452  -0.071   7.451 -0.3920 -0.9193  0.5544
  134MOL0     C18021   2.572   0.007   7.435  0.0809 -0.1704  0.1798
  134MOL0     C18022   2.562   0.161   7.458  0.7485  0.6471  0.5820
  134MOL0     H18023   3.092  -0.140   7.196 -0.1789  1.0671 -0.5066
  134MOL0     H18024   3.348  -0.098   7.224  1.5232 -0.4312  0.6428
  134MOL0     H18025   3.494   0.074   7.618 -2.9021  0.1658 -0.9202
  134MOL0     H18026   3.487  -0.112   7.594 -1.7427  0.9336 -1.0195
  134MOL0     H18027   3.698   0.020   7.653  0.0576  0.0931 -0.8192
  134MOL0     H18028   3.694   0.071   7.480 -4.6994  0.9899 -0.9995
  134MOL0     H18029   3.679  -0.157   7.402  0.0558 -2.3393 -0.4061
  134MOL0     H18030   3.696  -0.221   7.570 -1.6148  1.5526  0.2843
  134MOL0     H18031   3.885  -0.045   7.418 -3.8248  0.8842  0.5305
  134MOL0     H18032   3.903  -0.095   7.594 -0.7165  0.3248  1.1104
  134MOL0     H18033   3.943  -0.321   7.530  2.5447  0.6517  0.9118
  134MOL0     H18034   3.889  -0.298   7.368 -0.5992 -3.1501  2.6209
  134MOL0     H18035   4.140  -0.322   7.382 -0.4717 -0.3041  0.2654
  134MOL0     H18036   4.094  -0.171   7.312 -2.1659  1.9547  0.3952
  134MOL0     H18037   4.131  -0.055   7.497  1.4756 -0.3456 -2.3649
  134MOL0     H18038   4.280  -0.131   7.449 -1.2281  3.8558 -1.0049
  134MOL0     H18039   4.226  -0.145   7.712  1.0258 -0.0571 -0.5686
  134MOL0     H18040   4.127  -0.272   7.668 -0.2665  0.0889 -0.4031
  134MOL0     H18041   4.343  -0.392   7.440  1.0020  1.0466 -0.4426
  134MOL0     H18042   4.545  -0.615   7.515  0.3753  0.3541  0.2319
  134MOL0     H18043   4.594  -0.473   7.412 -1.2172 -1.8715 -1.5222
  134MOL0     H18044   4.772  -0.417   7.587  0.7347 -1.2985 -0.4967
  134MOL0     H18045   4.744  -0.546   7.687  2.6129 -1.0023 -0.2768
  134MOL0     H18046   4.805  -0.594   7.393  1.5290  2.0481 -0.3498
  134MOL0     H18047   4.806  -0.717   7.522 -1.4259 -0.8546 -0.5999
  134MOL0     H18048   4.983  -0.496   7.447 -0.0636 -3.3243 -3.6002
  134MOL0     H18049   5.026  -0.662   7.530  0.8723 -0.1292  0.7400
  134MOL0     H18050   5.070  -0.459   7.904  1.3427 -1.8829 -0.6780
  134MOL0     H18051   5.259  -0.335   7.969 -0.3029  1.9833 -0.5055
  134MOL0     H18052   5.668  -0.361   8.043 -0.1572  0.3651  1.8059
  134MOL0     H18053   5.898  -0.277   8.107  0.1152 -1.3910 -1.9107
  134MOL0     H18054   6.048   0.110   7.955  0.4756 -2.9282 -0.6863
  134MOL0     H18055   5.980   0.155   8.111 -0.0951 -0.9150  2.3884
  134MOL0     H18056   6.150   0.071   8.243  1.7682 -2.2783  0.5606
  134MOL0     H18057   6.249   0.012   8.104  2.0021  0.8110  0.6687
  134MOL0     H18058   6.220   0.251   8.020  3.6566  1.9656  0.2331
  134MOL0     H18059   6.186   0.297   8.196  0.3384  1.0025 -0.2196
  134MOL0     H18060   6.420   0.342   8.159  1.6338 -0.6596 -0.9379
  134MOL0     H18061   6.448   0.180   8.080  0.0395  0.4461 -1.2524
  134MOL0     H18062   6.390   0.073   8.293 -0.9048  0.5373 -1.1759
  134MOL0     H18063   6.360   0.235   8.365  0.0292 -0.2955 -0.3140
  134MOL0     H18064   6.628   0.158   8.250 -0.6566  2.0685 -2.0546
  134MOL0     H18065   6.588   0.301   8.321 -1.2524  0.4373 -1.4457
  134MOL0     H18066   6.661   0.035   8.447  2.9304  1.6782 -1.9520
  134MOL0     H18067   6.512   0.110   8.526  0.8649  1.1973  0.5789
  134MOL0     H18068   6.757   0.270   8.476  0.6940  0.9894  0.5040
  134MOL0     H18069   6.624   0.303   8.579 -4.3356 -2.1221 -0.6983
  134MOL0     H18070   5.800   0.113   7.953  0.0147 -0.3310 -0.2437
  134MOL0     H18071   5.569   0.033   7.903 -2.0963 -2.3163  0.8862
  134MOL0     H18072   5.392  -0.330   7.556 -0.1971 -0.0883 -0.0693
  134MOL0     H18073   5.190  -0.436   7.485  0.1365  0.4165 -0.4288
  134MOL0     H18074   3.284   0.040   7.620  2.7852  0.1185 -1.4987
  134MOL0     H18075   3.043   0.001   7.601 -1.0715  0.1835 -1.0414
  134MOL0     H18076   2.765  -0.257   7.321 -2.0745  0.1151 -4.0895
  134MOL0     H18077   2.558  -0.373   7.376  1.5910  0.2542  1.6436
  134MOL0     H18078   2.173  -0.176   7.453  0.7290  0.8005  0.5048
  134MOL0     H18079   2.244  -0.177   7.612  1.5883 -1.8022  0.9136
  134MOL0     H18080   2.149  -0.428   7.469 -0.6600  0.6996 -0.5032
  134MOL0     H18081   2.039  -0.350   7.576 -0.6229 -2.2521  0.9595
  134MOL0     H18082   2.289  -0.485   7.656  0.8060  2.9487 -1.3318
  134MOL0     H18083   2.122  -0.537   7.667  2.8105 -2.9211  1.8559
  134MOL0     H18084   2.217  -0.289   7.826 -0.5621  0.4131 -1.6100
  134MOL0     H18085   2.052  -0.358   7.814 -0.6829 -2.6592 -1.2019
  134MOL0     H18086   2.225  -0.620   8.085 -2.9519 -1.4978 -0.0286
  134MOL0     H18087   2.364  -0.019   7.488 -0.9347 -0.7811 -0.8702
  134MOL0     H18088   2.621   0.172   7.550  1.3372  0.0882  0.2722
  134MOL0     H18089   2.607   0.228   7.385 -1.7909  0.1343 -1.5865
  134MOL0     H18090   2.460   0.194   7.481  0.2803  1.2501 -2.0533
  135MOL0     O18091   0.148  11.045   8.783 -0.4755 -0.2273  0.0122
  135MOL0     C18092   0.103  10.947   8.732  0.0184 -0.6764 -0.4734
  135MOL0     O18093   0.171  10.829   8.719  0.4733  0.4728  0.7505
  135MOL0     C18094   0.312  10.840   8.724  0.2975 -0.0066 -1.3539
  135MOL0     C18095   0.383  10.854   8.608  0.6675 -0.3801  0.2690
  135MOL0     C18096   0.525  10.878   8.616 -0.1753 -0.1354  0.0374
  135MOL0     C18097   0.593  10.865   8.738  0.7650 -0.0670 -0.3735
  135MOL0     O18098   0.731  10.863   8.749 -0.0498  0.3301  0.0644
  135MOL0     C18099   0.813  10.870   8.632 -0.9344 -0.8810  0.7651
  135MOL0     C18100   0.943  10.793   8.660 -0.0083  0.7794  0.1904
  135MOL0     C18101   1.042  10.826   8.559  0.8948  0.0262  0.5369
  135MOL0     C18102   1.167  10.744   8.568  0.2579  0.1913 -0.3455
  135MOL0     C18103   1.269  10.786   8.465  0.1826 -0.2601  0.2273
  135MOL0     C18104   1.342  10.665   8.402 -0.3223 -0.9482  0.2343
  135MOL0     C18105   1.463  10.704   8.319 -0.3514  0.5138  0.2392
  135MOL0     C18106   1.485  10.586   8.225 -0.1100  0.0566 -0.4786
  135MOL0     N18107   1.607  10.593   8.151 -1.1471  0.6015 -0.7768
  135MOL0     C18108   1.725  10.528   8.181 -0.7561  0.2249 -0.4427
  135MOL0     C18109   1.805  10.521   8.069  0.6469  0.2830  0.0096
  135MOL0     C18110   1.940  10.456   8.077 -0.4167 -0.7834  0.0866
  135MOL0     C18111   2.012  10.447   7.943 -0.2366 -0.5785 -0.9061
  135MOL0     C18112   2.154  10.397   7.971 -1.0214 -0.3660  0.2550
  135MOL0     C18113   2.239  10.427   7.843 -0.2968  0.0566 -0.6302
  135MOL0     O18114   2.374  10.413   7.884 -0.5096  0.1011 -0.4935
  135MOL0     C18115   2.473  10.455   7.792  0.5376  0.0232 -0.1853
  135MOL0     C18116   2.444  10.474   7.649  0.5420  0.6637  0.2806
  135MOL0     C18117   2.549  10.518   7.568 -0.4032  0.1091 -0.6183
  135MOL0     C18118   2.677  10.536   7.622  0.0871  0.2153 -0.4337
  135MOL0     C18119   2.780  10.597   7.532 -0.3771 -0.3263 -0.3013
  135MOL0     O18120   2.878  10.675   7.584 -0.2151  0.1236 -0.0431
  135MOL0     C18121   2.976  10.726   7.502 -0.2158 -0.2410  0.4219
  135MOL0     C18122   3.047  10.638   7.428 -0.6065 -0.2739 -0.0040
  135MOL0     C18123   3.167  10.666   7.356 -0.1544  0.1053 -1.0331
  135MOL0     C18124   3.198  10.805   7.346  0.2749 -0.2003 -0.0469
  135MOL0     O18125   3.293  10.853   7.255  0.1650  0.7127  0.1206
  135MOL0     C18126   3.362  10.753   7.172  0.5266 -0.1732  0.0257
  135MOL0     C18127   3.461  10.827   7.076  0.1597 -0.3018  0.5769
  135MOL0     C18128   3.590  10.866   7.145 -0.2003 -0.0327  0.0947
  135MOL0     C18129   3.690  10.930   7.050 -1.1335 -0.4297 -0.4582
  135MOL0     C18130   3.761  10.825   6.964 -0.4018  0.0873  0.8719
  135MOL0     C18131   3.857  10.897   6.864  0.2891 -0.1888 -0.3431
  135MOL0     C18132   4.001  10.894   6.917 -0.0260 -0.7060 -0.2076
  135MOL0     C18133   4.086  10.972   6.814 -0.3346  0.3262 -0.3485
  135MOL0    Cl18134   4.257  10.917   6.833  0.2531  0.0130 -0.0904
  135MOL0     C18135   3.132  10.895   7.430 -0.0172 -0.1621 -0.2579
  135MOL0     C18136   3.025  10.860   7.509 -0.1044  0.6581 -0.0949
  135MOL0     O18137   2.763  10.579   7.412 -0.0399 -0.1894 -0.5037
  135MOL0     C18138   2.705  10.516   7.756 -0.5712  0.1353  0.1089
  135MOL0     C18139   2.603  10.478   7.842  0.1333 -0.3946  0.6197
  135MOL0     N18140   1.730  10.604   7.977 -0.0231  0.0923  0.2475
  135MOL0     N18141   1.615  10.632   8.026  0.5483 -0.4254  0.1418
  135MOL0     C18142   0.515  10.851   8.856  0.5435  0.1085  0.2438
  135MOL0     C18143   0.374  10.847   8.850 -0.4177  0.1175 -0.7042
  135MOL0     C18144  -0.030  10.968   8.677  0.2557  0.5119 -0.7276
  135MOL0     C18145  -0.072  11.092   8.650 -0.0634 -0.3344 -0.0498
  135MOL0     C18146  -0.202  11.111   8.602 -0.3233 -0.8155 -0.6729
  135MOL0     C18147  -0.291  11.012   8.580 -0.8183 -0.2615  0.1700
  135MOL0     O18148  -0.389  11.053   8.501 -0.1879 -0.4048  0.2706
  135MOL0     C18149  -0.504  10.970   8.468  0.5430 -0.3254 -0.4955
  135MOL0     C18150  -0.604  11.081   8.435  0.7042  0.0785  0.6994
  135MOL0     C18151  -0.746  11.012   8.404 -0.0039  0.2047 -0.0065
  135MOL0     C18152  -0.839  11.117   8.353  0.1897 -0.9161 -0.4837
  135MOL0     C18153  -0.974  11.063   8.355  0.0536  0.0004  0.1194
  135MOL0     C18154  -1.074  11.004   8.357 -0.4531 -0.0015 -0.2362
  135MOL0     C18155  -0.251  10.883   8.605  0.6732  0.6475 -0.6279
  135MOL0     C18156  -0.121  10.862   8.652  0.5418 -0.3932 -0.0535
  135MOL0     C18157  -0.091  10.718   8.679  0.1511  0.2073  0.0358
  135MOL0     H18158   0.347  10.855   8.506  2.2551 -3.5851 -0.4381
  135MOL0     H18159   0.568  10.888   8.516 -1.3167  1.1834 -0.3518
  135MOL0     H18160   0.770  10.827   8.542  1.9173  0.9181 -1.6517
  135MOL0     H18161   0.827  10.976   8.609  0.2241 -0.4820  3.0455
  135MOL0     H18162   0.918  10.688   8.648  0.3814  0.8815 -1.7373
  135MOL0     H18163   0.992  10.819   8.755  1.3786 -1.6349  0.2232
  135MOL0     H18164   1.083  10.926   8.577  0.6912  0.5094 -1.4198
  135MOL0     H18165   1.000  10.809   8.459  1.9823 -0.5531  0.1610
  135MOL0     H18166   1.218  10.758   8.664  1.4999 -3.6068 -0.3067
  135MOL0     H18167   1.142  10.639   8.554 -0.0033  0.1010  0.7464
  135MOL0     H18168   1.220  10.846   8.388 -1.1855 -0.4849  0.8925
  135MOL0     H18169   1.333  10.861   8.513  1.2500 -0.6870 -0.4911
  135MOL0     H18170   1.370  10.589   8.475  0.2259 -2.5285 -1.5258
  135MOL0     H18171   1.265  10.614   8.344 -0.7069  0.2186 -0.2997
  135MOL0     H18172   1.555  10.725   8.374  1.3574 -0.2298 -2.1621
  135MOL0     H18173   1.438  10.794   8.263 -2.5585 -2.0957 -3.4940
  135MOL0     H18174   1.494  10.491   8.279  0.2990 -0.3325 -1.1996
  135MOL0     H18175   1.403  10.577   8.152  0.6558 -0.7708 -1.2682
  135MOL0     H18176   1.748  10.493   8.281  0.4829  1.8215 -0.1277
  135MOL0     H18177   2.009  10.508   8.143 -0.5398  2.2320 -1.9669
  135MOL0     H18178   1.915  10.356   8.113 -1.2783 -0.3722  0.6522
  135MOL0     H18179   1.962  10.375   7.877  0.7827 -0.3413 -1.9810
  135MOL0     H18180   2.011  10.547   7.901  0.0510  0.0655  0.5687
  135MOL0     H18181   2.148  10.288   7.983 -0.6128 -0.2634  1.6199
  135MOL0     H18182   2.204  10.442   8.057 -0.8424  0.1816 -0.1359
  135MOL0     H18183   2.218  10.529   7.809  3.3133  0.7245 -1.2594
  135MOL0     H18184   2.216  10.348   7.771  2.1188  0.2365 -1.7049
  135MOL0     H18185   2.346  10.445   7.612  0.6854 -1.8139  1.6248
  135MOL0     H18186   2.539  10.550   7.465 -0.3862  3.7869  0.3871
  135MOL0     H18187   3.014  10.536   7.412 -0.9611 -0.6591  2.6396
  135MOL0     H18188   3.211  10.584   7.300  1.2832  0.6313 -0.7378
  135MOL0     H18189   3.422  10.691   7.239  1.4364  1.9552  1.2960
  135MOL0     H18190   3.297  10.696   7.105  0.7454  0.4891 -0.7657
  135MOL0     H18191   3.472  10.757   6.993 -1.7277  1.6613 -1.5030
  135MOL0     H18192   3.413  10.915   7.031 -1.5771 -1.5043 -0.0545
  135MOL0     H18193   3.567  10.937   7.225  2.5407  0.9921  0.1137
  135MOL0     H18194   3.635  10.778   7.191 -0.8477  0.7913  2.4419
  135MOL0     H18195   3.768  10.980   7.108  0.0202 -2.7799  0.1700
  135MOL0     H18196   3.655  11.011   6.987  2.5678  1.2162 -0.6683
  135MOL0     H18197   3.690  10.774   6.898 -0.2489  0.5292  0.3574
  135MOL0     H18198   3.810  10.749   7.025  0.7808  0.1072 -0.0318
  135MOL0     H18199   3.850  10.847   6.767  0.2161 -2.5625  0.8307
  135MOL0     H18200   3.817  10.998   6.850 -2.0230 -0.5639  2.4664
  135MOL0     H18201   4.048  10.796   6.922  2.5852  0.3689 -1.5335
  135MOL0     H18202   4.017  10.941   7.015  0.5532  0.8820 -1.0273
  135MOL0     H18203   4.047  10.959   6.713 -1.2972  2.1436 -0.2751
  135MOL0     H18204   4.079  11.075   6.851  0.8127 -0.4682  2.3054
  135MOL0     H18205   3.156  11.000   7.437 -0.0673 -0.2519  1.8659
  135MOL0     H18206   2.977  10.935   7.571  3.4437  2.9113  0.1809
  135MOL0     H18207   2.801  10.550   7.793 -0.0176  0.3331 -1.4317
  135MOL0     H18208   2.608  10.479   7.951  1.9785 -3.9720  0.7302
  135MOL0     H18209   0.569  10.844   8.950  0.9751  0.8752  0.0632
  135MOL0     H18210   0.317  10.828   8.940  1.0108  0.8719  0.3929
  135MOL0     H18211  -0.010  11.181   8.654  1.1538 -1.1282 -0.4886
  135MOL0     H18212  -0.238  11.213   8.590 -0.7336 -0.7718  0.7260
  135MOL0     H18213  -0.530  10.910   8.556  1.8087 -0.9454 -0.5196
  135MOL0     H18214  -0.483  10.905   8.382  1.4835 -1.5163  0.5931
  135MOL0     H18215  -0.574  11.133   8.344 -0.8618  1.2374  0.8157
  135MOL0     H18216  -0.596  11.156   8.514 -0.5180  0.0929  0.8184
  135MOL0     H18217  -0.773  10.962   8.498  0.4603 -1.3217 -0.6541
  135MOL0     H18218  -0.734  10.944   8.319 -2.2728 -1.1227  0.6404
  135MOL0     H18219  -0.848  11.202   8.421  1.4940  0.2278 -1.6761
  135MOL0     H18220  -0.801  11.160   8.260 -0.2119  2.0137  0.6030
  135MOL0     H18221  -1.174  10.964   8.354 -0.6913  0.6234 -0.8238
  135MOL0     H18222  -0.316  10.804   8.569  2.1715 -0.4473 -1.0490
  135MOL0     H18223  -0.174  10.653   8.707  0.3835  0.7390  2.1032
  135MOL0     H18224  -0.028  10.686   8.595 -0.6893  0.5225 -0.7358
  135MOL0     H18225  -0.025  10.704   8.765 -2.7407 -2.6663  1.9738
  136MOL0     O18226   3.544  10.350   5.248 -0.4056 -0.2317  0.0253
  136MOL0     C18227   3.537  10.251   5.325 -0.3996 -0.8145  0.6476
  136MOL0     O18228   3.639  10.171   5.344 -0.6556  0.8184  0.7421
  136MOL0     C18229   3.758  10.190   5.272 -1.3282  0.1363  0.9870
  136MOL0     C18230   3.773  10.193   5.132 -0.1257  0.4227 -0.1841
  136MOL0     C18231   3.900  10.208   5.071 -0.3108 -0.3765  0.0586
  136MOL0     C18232   4.011  10.247   5.146 -1.0993 -0.6621 -0.2035
  136MOL0     O18233   4.129  10.280   5.084  0.1560 -0.1513 -0.2091
  136MOL0     C18234   4.242  10.333   5.157 -0.2624 -0.7017 -0.2742
  136MOL0     C18235   4.362  10.356   5.060 -0.4760 -0.3904 -0.5637
  136MOL0     C18236   4.379  10.246   4.961 -0.5101  0.2807 -0.1169
  136MOL0     C18237   4.480  10.276   4.849  0.2219  0.2832 -0.2374
  136MOL0     C18238   4.545  10.145   4.807  0.8413 -0.1685  0.5877
  136MOL0     C18239   4.679  10.159   4.730  0.7656  0.6832  0.4904
  136MOL0     C18240   4.751  10.030   4.695 -0.0757 -0.5800 -0.4686
  136MOL0     C18241   4.899  10.071   4.683  0.2233  0.0072 -0.2506
  136MOL0     N18242   4.989   9.963   4.637  0.7254  0.8243  0.4389
  136MOL0     C18243   5.039   9.841   4.696  0.7551  0.5461  0.8826
  136MOL0     C18244   5.104   9.774   4.604 -0.4873  0.3259 -0.2023
  136MOL0     C18245   5.188   9.650   4.613 -0.0970 -0.0645  1.0108
  136MOL0     C18246   5.338   9.684   4.639 -0.1242 -0.9469  0.7131
  136MOL0     C18247   5.423   9.570   4.594 -0.9269  0.6731 -0.9683
  136MOL0     C18248   5.567   9.608   4.613  0.2568 -0.0046 -0.0638
  136MOL0     O18249   5.626   9.653   4.494 -0.5415 -0.0235 -0.4793
  136MOL0     C18250   5.765   9.664   4.495 -0.0880 -0.8108  0.6714
  136MOL0     C18251   5.834   9.661   4.368  0.8112  0.1769  0.0125
  136MOL0     C18252   5.972   9.684   4.373 -0.0652  0.1121  0.8825
  136MOL0     C18253   6.050   9.701   4.489 -0.0277 -0.2159  0.2339
  136MOL0     C18254   6.195   9.711   4.491 -0.8222  1.3573  0.0065
  136MOL0     O18255   6.246   9.770   4.607  0.3878  0.1708  0.2257
  136MOL0     C18256   6.376   9.772   4.627 -0.3761  0.0389 -0.2217
  136MOL0     C18257   6.424   9.731   4.751 -0.4557 -0.1901  0.7879
  136MOL0     C18258   6.556   9.731   4.782 -0.0266  0.1697  0.2470
  136MOL0     C18259   6.645   9.786   4.693 -0.6307  0.8504 -0.6855
  136MOL0     O18260   6.776   9.795   4.736 -0.1840  0.2872 -0.0508
  136MOL0     C18261   6.894   9.816   4.656 -0.2147  0.5643 -0.6073
  136MOL0     C18262   7.016   9.782   4.724  0.2406 -1.1171 -0.7922
  136MOL0     C18263   7.134   9.774   4.624  0.6821  0.2402 -0.0488
  136MOL0     C18264   7.261   9.789   4.711  0.9066 -0.8688 -0.4901
  136MOL0     C18265   7.390   9.774   4.628 -0.4496  0.3618  0.1159
  136MOL0     C18266   7.403   9.639   4.559  0.7949 -1.0671  0.4100
  136MOL0     C18267   7.552   9.625   4.517 -0.7763 -0.7185  0.9087
  136MOL0     C18268   7.636   9.556   4.625 -0.5090  0.1831 -0.3613
  136MOL0    Cl18269   7.622   9.377   4.591 -0.0816 -0.2393 -0.0318
  136MOL0     C18270   6.604   9.820   4.566  0.4433  0.0962 -0.6179
  136MOL0     C18271   6.472   9.817   4.534 -0.1463 -0.4502  0.1406
  136MOL0     O18272   6.255   9.665   4.393  0.2490  0.2622  0.3069
  136MOL0     C18273   5.979   9.697   4.608  0.6276  0.2473 -0.4415
  136MOL0     C18274   5.835   9.683   4.618 -0.5436 -0.3858  0.3880
  136MOL0     N18275   5.092   9.847   4.488  0.4277  0.4645  1.0985
  136MOL0     N18276   5.010   9.946   4.505 -0.0136 -0.8718  0.7575
  136MOL0     C18277   4.001  10.239   5.281 -0.1683  0.1077 -0.7116
  136MOL0     C18278   3.883  10.204   5.342 -0.6964 -0.0542  0.5058
  136MOL0     C18279   3.396  10.234   5.391  0.0471  0.3552  0.0871
  136MOL0     C18280   3.401  10.156   5.512 -0.7254  0.1714  0.0369
  136MOL0     C18281   3.287  10.120   5.589 -1.0224 -0.0323 -0.4884
  136MOL0     C18282   3.164  10.145   5.537  0.3612  0.1556 -0.6933
  136MOL0     O18283   3.049  10.089   5.591  0.1286 -0.4617 -0.2340
  136MOL0     C18284   2.946  10.058   5.495  0.3318 -0.1801 -0.3946
  136MOL0     C18285   2.840   9.964   5.547  0.2487  0.3168 -0.5248
  136MOL0     C18286   2.786   9.999   5.685 -0.4455 -0.0893  0.3025
  136MOL0     C18287   2.854   9.908   5.787  0.1110 -0.4576 -0.3727
  136MOL0     C18288   2.806   9.946   5.922 -0.8108  0.7782 -0.1426
  136MOL0     C18289   2.767   9.958   6.038 -0.4645 -0.0456  0.8491
  136MOL0     C18290   3.151  10.229   5.425 -0.0776 -0.0337 -0.1695
  136MOL0     C18291   3.270  10.277   5.353 -1.4515  0.4661  0.5986
  136MOL0     C18292   3.245  10.375   5.246 -0.5106  0.3978 -0.0546
  136MOL0     H18293   3.683  10.180   5.072 -1.5220  0.1075  1.8734
  136MOL0     H18294   3.912  10.216   4.964  1.6162 -0.0597  0.2702
  136MOL0     H18295   4.208  10.428   5.201 -0.8692 -0.8863 -0.3311
  136MOL0     H18296   4.278  10.265   5.235  0.4934  0.2155  0.2002
  136MOL0     H18297   4.456  10.375   5.113  0.7152 -0.5760 -2.4808
  136MOL0     H18298   4.332  10.448   5.009 -4.2847 -1.0392  0.1841
  136MOL0     H18299   4.279  10.221   4.924 -0.8997  1.0547  0.3776
  136MOL0     H18300   4.419  10.164   5.021  0.3632  0.7084 -0.1038
  136MOL0     H18301   4.425  10.315   4.763 -0.1217 -0.0048 -0.1526
  136MOL0     H18302   4.561  10.346   4.873 -0.6497  2.1554 -2.3386
  136MOL0     H18303   4.565  10.077   4.890  2.6318 -1.0246 -0.4730
  136MOL0     H18304   4.479  10.083   4.745  0.8587 -0.3725  0.7698
  136MOL0     H18305   4.656  10.214   4.638  0.8891 -0.5093 -0.2769
  136MOL0     H18306   4.753  10.216   4.787  0.1225  0.8562  1.1682
  136MOL0     H18307   4.714   9.982   4.604 -2.6958 -2.5732  1.5227
  136MOL0     H18308   4.738   9.959   4.777  3.4643 -0.9617 -0.0825
  136MOL0     H18309   4.913  10.161   4.621 -2.2048 -0.5116 -1.6998
  136MOL0     H18310   4.937  10.092   4.783  0.4323 -0.9662 -0.1165
  136MOL0     H18311   5.028   9.820   4.802 -1.6385 -0.0141  0.6016
  136MOL0     H18312   5.157   9.584   4.694  0.1487  0.4393  1.5246
  136MOL0     H18313   5.179   9.599   4.517 -0.0748 -3.0571  2.4790
  136MOL0     H18314   5.364   9.771   4.578  0.6473 -1.6264  0.0577
  136MOL0     H18315   5.351   9.712   4.744 -0.4347  0.7282  0.3324
  136MOL0     H18316   5.399   9.555   4.488 -0.3613 -0.2406 -0.9724
  136MOL0     H18317   5.391   9.485   4.654 -0.4364  1.1392 -0.0261
  136MOL0     H18318   5.613   9.517   4.654  1.5398  1.3801  1.7331
  136MOL0     H18319   5.582   9.676   4.697 -0.7052 -1.0969  1.0277
  136MOL0     H18320   5.780   9.644   4.275  0.6516  0.9073 -0.0335
  136MOL0     H18321   6.034   9.682   4.283 -0.1105  1.8023  0.7735
  136MOL0     H18322   6.356   9.685   4.822  0.3045 -2.2925  0.2116
  136MOL0     H18323   6.600   9.692   4.874  3.1783 -1.0727 -1.6491
  136MOL0     H18324   6.888   9.764   4.560  1.1604 -0.4526 -0.1746
  136MOL0     H18325   6.904   9.920   4.626  0.7776  0.0602 -2.1675
  136MOL0     H18326   7.039   9.849   4.807 -0.8607 -0.4879 -0.9667
  136MOL0     H18327   7.007   9.679   4.761  3.0878 -0.3634  2.4722
  136MOL0     H18328   7.137   9.678   4.571  3.2700  0.0579  0.2671
  136MOL0     H18329   7.132   9.857   4.553  0.7775 -0.8059 -1.3262
  136MOL0     H18330   7.255   9.718   4.795  2.3162  0.2236  0.5780
  136MOL0     H18331   7.256   9.890   4.752 -4.6973  0.2883 -3.1344
  136MOL0     H18332   7.475   9.797   4.693 -1.5272  1.6299  1.1414
  136MOL0     H18333   7.386   9.849   4.547 -0.8531  0.1985 -0.0130
  136MOL0     H18334   7.381   9.549   4.618  0.2380 -1.8983 -1.0219
  136MOL0     H18335   7.332   9.649   4.477 -1.1858  0.3468  2.1852
  136MOL0     H18336   7.594   9.722   4.489 -0.0165 -1.0464  0.8907
  136MOL0     H18337   7.557   9.553   4.435 -0.6966  0.2869  0.0204
  136MOL0     H18338   7.743   9.573   4.611 -0.5275 -0.1992 -0.9973
  136MOL0     H18339   7.616   9.585   4.729  2.9511  2.0332 -0.0339
  136MOL0     H18340   6.683   9.851   4.498  2.6551 -3.0238  0.3028
  136MOL0     H18341   6.440   9.848   4.435 -1.8928  0.0474  0.8219
  136MOL0     H18342   6.032   9.695   4.703 -1.0408 -0.2052  0.5283
  136MOL0     H18343   5.794   9.683   4.719 -2.1501 -0.8422 -0.2466
  136MOL0     H18344   4.082  10.242   5.353  0.8925  0.2633 -1.8675
  136MOL0     H18345   3.884  10.197   5.450 -0.1120  1.6168  0.6399
  136MOL0     H18346   3.493  10.105   5.538 -0.4921  1.5930  2.2400
  136MOL0     H18347   3.309  10.057   5.675  3.7371 -0.0561 -1.4702
  136MOL0     H18348   2.991  10.016   5.405 -1.6174  0.1154 -1.5645
  136MOL0     H18349   2.887  10.146   5.470  0.9233  0.8004  1.4366
  136MOL0     H18350   2.874   9.860   5.540 -2.3482 -0.7056  0.5616
  136MOL0     H18351   2.756   9.953   5.478  0.6785 -5.5622 -0.6756
  136MOL0     H18352   2.678   9.988   5.692 -0.2659 -1.2828  1.8790
  136MOL0     H18353   2.800  10.105   5.706 -1.9849 -0.1151  1.6857
  136MOL0     H18354   2.844   9.803   5.756  0.8864 -0.4605 -0.6543
  136MOL0     H18355   2.962   9.926   5.792  0.0957 -0.7157  2.4698
  136MOL0     H18356   2.728   9.970   6.137  2.0289 -1.3490  2.1007
  136MOL0     H18357   3.059  10.277   5.394  0.1386 -0.1063 -0.9365
  136MOL0     H18358   3.296  10.337   5.156 -0.6634  0.0246  0.0129
  136MOL0     H18359   3.139  10.383   5.221 -0.8215 -3.3507 -0.5014
  136MOL0     H18360   3.296  10.465   5.283 -0.8096  0.9327 -0.9158
  137MOL0     O18361   4.281   0.145  10.481  0.2527  0.6173  0.3797
  137MOL0     C18362   4.154   0.130  10.473 -0.2194 -0.6743  0.1161
  137MOL0     O18363   4.064   0.224  10.516  0.2648 -0.6348  0.1756
  137MOL0     C18364   4.105   0.351  10.519  0.0079  0.6639  0.3972
  137MOL0     C18365   4.150   0.417  10.396  0.4203 -0.2432 -0.4993
  137MOL0     C18366   4.195   0.546  10.402  0.2216 -0.3926 -0.3743
  137MOL0     C18367   4.197   0.613  10.524 -0.5388 -0.3839 -1.3016
  137MOL0     O18368   4.255   0.740  10.523  0.0437  0.2676 -0.3332
  137MOL0     C18369   4.184   0.859  10.567  0.3575  0.4317 -0.1640
  137MOL0     C18370   4.279   0.974  10.567 -0.0812 -0.3313 -0.2145
  137MOL0     C18371   4.316   1.023  10.423 -0.8746 -0.0071 -0.5046
  137MOL0     C18372   4.373   1.169  10.419  0.2553  0.2220 -0.2440
  137MOL0     C18373   4.503   1.196  10.495 -0.0128  0.4126 -0.4400
  137MOL0     C18374   4.589   1.308  10.418 -0.4029 -0.5353  0.4661
  137MOL0     C18375   4.729   1.319  10.465 -0.2333 -0.3549 -0.0113
  137MOL0     C18376   4.792   1.445  10.401 -0.4657  0.0977 -0.0134
  137MOL0     N18377   4.815   1.419  10.258 -0.0282 -0.7031  0.0553
  137MOL0     C18378   4.926   1.352  10.212  0.8147  0.2595 -0.2136
  137MOL0     C18379   4.899   1.325  10.083  0.8128  0.0625 -0.2158
  137MOL0     C18380   4.987   1.252   9.985  0.3706  0.0930  0.0850
  137MOL0     C18381   5.136   1.233  10.012 -1.0403  0.3366  0.0092
  137MOL0     C18382   5.210   1.346   9.954  0.2985  0.5694  0.0040
  137MOL0     C18383   5.348   1.362   9.999 -0.0387 -0.4165  0.0995
  137MOL0     O18384   5.425   1.262   9.938  0.1251 -0.0683 -0.1309
  137MOL0     C18385   5.560   1.267   9.962  0.6790 -0.5004  0.2468
  137MOL0     C18386   5.639   1.161   9.928  0.0037 -0.9637 -0.2473
  137MOL0     C18387   5.774   1.141   9.965  0.4102  0.3644  0.7222
  137MOL0     C18388   5.839   1.242  10.040  0.2002 -0.1790 -0.0132
  137MOL0     C18389   5.979   1.231  10.088  0.6018  0.5021  0.5467
  137MOL0     O18390   6.056   1.119  10.055 -0.5480  0.0342 -0.9179
  137MOL0     C18391   6.177   1.112  10.117 -1.0545 -0.7855 -0.1032
  137MOL0     C18392   6.198   1.007  10.207  0.3037  0.3284 -0.8534
  137MOL0     C18393   6.307   0.994  10.290  0.4195 -0.0371 -0.0410
  137MOL0     C18394   6.409   1.090  10.281 -0.0616  0.2643 -0.5995
  137MOL0     O18395   6.516   1.061  10.348  0.1462 -0.4882 -0.0748
  137MOL0     C18396   6.613   1.159  10.368 -0.6893  0.8715  0.3570
  137MOL0     C18397   6.723   1.096  10.443 -0.4713  0.1332 -0.1339
  137MOL0     C18398   6.834   1.207  10.474 -0.6497 -1.0031  0.5531
  137MOL0     C18399   6.955   1.167  10.561  0.1606  1.0317  0.2200
  137MOL0     C18400   7.082   1.265  10.568  0.2848 -0.0867  0.1642
  137MOL0     C18401   7.179   1.223  10.677  0.4256  0.1281  0.6128
  137MOL0     C18402   7.310   1.297  10.670  0.0380 -0.1158 -0.3482
  137MOL0     C18403   7.403   1.272  10.785 -0.6488  1.5800 -0.8290
  137MOL0    Cl18404   7.350   1.328  10.949 -0.3194  0.1297  0.1851
  137MOL0     C18405   6.396   1.193  10.193  0.6121  0.0403 -0.1133
  137MOL0     C18406   6.283   1.205  10.107 -0.5596 -0.7345  0.0615
  137MOL0     O18407   6.024   1.326  10.151  0.5988 -0.4940  0.3102
  137MOL0     C18408   5.762   1.361  10.076 -0.3339 -0.7084  0.6848
  137MOL0     C18409   5.630   1.375  10.037  0.5736  0.0593  0.4509
  137MOL0     N18410   4.777   1.388  10.049  0.4077  0.6230  0.2382
  137MOL0     N18411   4.734   1.442  10.153 -0.5388 -0.2259 -0.5128
  137MOL0     C18412   4.151   0.553  10.643 -0.4662  0.2507  0.2367
  137MOL0     C18413   4.108   0.420  10.641  0.3994  0.2300  0.0111
  137MOL0     C18414   4.098  -0.011  10.441  0.4606  0.2973 -0.2984
  137MOL0     C18415   3.957  -0.024  10.424  0.5825  0.2460 -1.2720
  137MOL0     C18416   3.898  -0.139  10.393  0.4436 -0.4634  0.1033
  137MOL0     C18417   3.966  -0.259  10.370 -0.9242 -0.3464 -0.2550
  137MOL0     O18418   3.911  -0.376  10.327  0.4436 -0.0350 -0.4854
  137MOL0     C18419   3.771  -0.375  10.281 -0.1811  0.0906  0.0172
  137MOL0     C18420   3.733  -0.520  10.245  0.8221  0.7867  0.1232
  137MOL0     C18421   3.595  -0.552  10.186 -0.2249 -0.4349  0.1617
  137MOL0     C18422   3.572  -0.491  10.039  0.9634 -0.0614  0.9337
  137MOL0     C18423   3.437  -0.535   9.993 -0.9559 -0.2470 -0.4873
  137MOL0     C18424   3.329  -0.568   9.945 -0.0894  0.8082  0.2783
  137MOL0     C18425   4.109  -0.248  10.388 -0.1696  0.6650 -0.0781
  137MOL0     C18426   4.179  -0.127  10.419  0.2939 -0.0476 -0.4090
  137MOL0     C18427   4.331  -0.122  10.416  0.1316 -0.3628  0.1684
  137MOL0     H18428   4.160   0.367  10.301  2.6789 -2.2191  0.6808
  137MOL0     H18429   4.226   0.587  10.307  0.0804  0.8394  0.0901
  137MOL0     H18430   4.096   0.879  10.505  2.2210  1.8637 -2.5361
  137MOL0     H18431   4.151   0.841  10.670 -0.8895 -1.4438 -0.8315
  137MOL0     H18432   4.366   0.946  10.627 -1.8050 -3.0459  1.2577
  137MOL0     H18433   4.221   1.052  10.618  3.1781 -0.1387  3.7141
  137MOL0     H18434   4.232   1.009  10.354 -1.9063 -1.0001  0.8829
  137MOL0     H18435   4.400   0.956  10.400 -1.8710 -0.6923 -2.3796
  137MOL0     H18436   4.382   1.202  10.315 -1.3189  1.5877  0.0177
  137MOL0     H18437   4.291   1.228  10.461  0.2008 -0.7348  1.0633
  137MOL0     H18438   4.490   1.230  10.598  0.8878  1.6333 -0.7112
  137MOL0     H18439   4.557   1.101  10.504 -0.6699  0.1238  0.6870
  137MOL0     H18440   4.593   1.281  10.312  2.7288 -2.0374  0.8568
  137MOL0     H18441   4.538   1.404  10.424  2.8364  1.2584  1.5007
  137MOL0     H18442   4.784   1.229  10.439  0.5017 -0.2492  1.1031
  137MOL0     H18443   4.734   1.331  10.574 -1.3582 -0.8221  0.1126
  137MOL0     H18444   4.733   1.536  10.410  0.4276  0.8308 -1.2569
  137MOL0     H18445   4.883   1.468  10.457  0.5921 -1.8736 -0.8226
  137MOL0     H18446   5.013   1.326  10.272  1.1166  1.0179 -0.3220
  137MOL0     H18447   4.951   1.149   9.991  2.8936 -0.8183  1.1816
  137MOL0     H18448   4.963   1.280   9.882  1.5287 -0.4443 -0.3546
  137MOL0     H18449   5.162   1.241  10.118 -1.5349  0.4006  0.1275
  137MOL0     H18450   5.169   1.135   9.978 -3.5683 -0.1745 -1.2354
  137MOL0     H18451   5.159   1.438   9.985  0.8847  0.4127  1.5460
  137MOL0     H18452   5.211   1.329   9.846 -2.6669  0.9187 -0.1438
  137MOL0     H18453   5.355   1.374  10.107 -0.4320  4.3416 -0.1931
  137MOL0     H18454   5.375   1.461   9.960 -0.7586 -0.7321 -1.2910
  137MOL0     H18455   5.609   1.072   9.873  0.1743 -1.1105 -0.1023
  137MOL0     H18456   5.819   1.048   9.934 -0.2275 -0.5241  2.3615
  137MOL0     H18457   6.121   0.931  10.220 -0.0768  0.5118 -1.9489
  137MOL0     H18458   6.310   0.913  10.363  1.4550 -1.5046 -1.6362
  137MOL0     H18459   6.650   1.192  10.270 -0.4405 -2.7429 -0.8900
  137MOL0     H18460   6.584   1.240  10.436 -0.6784  0.9817  0.2324
  137MOL0     H18461   6.683   1.055  10.536  2.3841 -2.0906  0.2590
  137MOL0     H18462   6.775   1.013  10.395 -0.3134  0.5992 -0.7721
  137MOL0     H18463   6.864   1.230  10.372 -0.0561 -0.3051  0.8838
  137MOL0     H18464   6.795   1.298  10.521  2.6400  0.0337  1.5331
  137MOL0     H18465   6.984   1.070  10.518 -2.9712 -0.1255  0.4754
  137MOL0     H18466   6.913   1.141  10.658 -0.8015  1.5193 -0.0583
  137MOL0     H18467   7.050   1.366  10.594 -3.7830 -1.0529 -0.3160
  137MOL0     H18468   7.139   1.263  10.474 -1.5574 -1.1266 -0.9917
  137MOL0     H18469   7.133   1.238  10.775 -0.5561  2.6635 -0.1399
  137MOL0     H18470   7.187   1.114  10.677 -2.6735 -0.2045  0.3804
  137MOL0     H18471   7.285   1.403  10.660 -0.6701 -0.3967 -1.7636
  137MOL0     H18472   7.359   1.263  10.578 -1.2692  1.3259 -1.6385
  137MOL0     H18473   7.417   1.165  10.799 -1.0347  1.4757 -1.2093
  137MOL0     H18474   7.499   1.320  10.763 -0.0579 -0.4204 -3.0557
  137MOL0     H18475   6.471   1.271  10.191  1.0005 -0.2855  0.9775
  137MOL0     H18476   6.270   1.287  10.038 -0.1224 -2.9319 -2.8561
  137MOL0     H18477   5.806   1.438  10.139  1.9829 -1.2624 -0.1634
  137MOL0     H18478   5.579   1.465  10.070 -1.6801 -1.7012  2.0915
  137MOL0     H18479   4.159   0.606  10.737 -0.0566 -0.6580  0.7324
  137MOL0     H18480   4.080   0.367  10.731  3.1810 -2.1670 -0.3542
  137MOL0     H18481   3.889   0.060  10.430  1.1673  0.6301  0.9132
  137MOL0     H18482   3.791  -0.135  10.373  0.2223  1.3644  1.3557
  137MOL0     H18483   3.759  -0.324  10.185 -3.2489 -2.3519 -1.0484
  137MOL0     H18484   3.698  -0.327  10.348 -0.3123 -1.3501  0.9415
  137MOL0     H18485   3.736  -0.578  10.337 -0.8255 -0.1920 -0.3921
  137MOL0     H18486   3.803  -0.565  10.174 -1.1053  0.0682 -1.4349
  137MOL0     H18487   3.513  -0.507  10.242 -0.7243  0.4292 -1.1990
  137MOL0     H18488   3.586  -0.661  10.186 -0.6964 -0.4085 -0.6319
  137MOL0     H18489   3.571  -0.382  10.032  1.9977 -0.1560 -1.9296
  137MOL0     H18490   3.647  -0.515   9.963  0.2661  2.7895 -0.8115
  137MOL0     H18491   3.229  -0.593   9.917 -1.1110  3.5178  1.1269
  137MOL0     H18492   4.166  -0.339  10.372 -0.3550  0.1429  2.0324
  137MOL0     H18493   4.375  -0.219  10.389  0.2650  0.0795 -1.2847
  137MOL0     H18494   4.358  -0.042  10.346 -3.2718  0.2988 -0.5729
  137MOL0     H18495   4.360  -0.089  10.516  0.3450  1.4550 -0.4703
  138MOL0     O18496   8.343   1.205   4.598 -0.7358  0.0001  0.2343
  138MOL0     C18497   8.243   1.274   4.617 -0.6731 -0.8754 -0.1948
  138MOL0     O18498   8.238   1.412   4.609  0.2771  0.2124 -0.9852
  138MOL0     C18499   8.360   1.479   4.626  0.6334 -0.4835 -0.0842
  138MOL0     C18500   8.427   1.476   4.745  0.1403 -0.1281 -0.3640
  138MOL0     C18501   8.542   1.554   4.771 -0.6337 -0.2834 -0.2559
  138MOL0     C18502   8.577   1.642   4.680  0.1325  0.0050 -1.0236
  138MOL0     O18503   8.675   1.726   4.727  0.6797 -0.1084 -0.3232
  138MOL0     C18504   8.774   1.768   4.634 -0.1291  0.3611  0.1212
  138MOL0     C18505   8.841   1.646   4.566 -0.2902 -0.6804  0.4728
  138MOL0     C18506   8.899   1.548   4.659 -0.1053  0.1074 -1.0384
  138MOL0     C18507   9.037   1.590   4.710  0.0846 -0.5500  0.3997
  138MOL0     C18508   9.101   1.481   4.793  0.3360 -0.9694  0.2297
  138MOL0     C18509   9.208   1.552   4.876 -0.1548  0.1801  0.2783
  138MOL0     C18510   9.295   1.454   4.955  0.0059 -0.8067 -0.1242
  138MOL0     C18511   9.231   1.384   5.071  0.4517 -1.0092  0.6300
  138MOL0     N18512   9.339   1.325   5.151  0.4409  0.1922 -0.3189
  138MOL0     C18513   9.423   1.218   5.113 -0.5670 -0.0186  0.0728
  138MOL0     C18514   9.502   1.188   5.222 -0.2613 -1.3218 -0.0202
  138MOL0     C18515   9.614   1.095   5.243  0.5203 -0.9898 -0.6135
  138MOL0     C18516   9.583   0.981   5.332 -0.1032 -0.5607  0.2967
  138MOL0     C18517   9.704   0.891   5.363 -0.5027  0.1773  0.8931
  138MOL0     C18518   9.689   0.794   5.470 -0.7037 -0.4775  0.1649
  138MOL0     O18519   9.817   0.732   5.482 -0.0347 -0.6655  0.0305
  138MOL0     C18520   9.920   0.790   5.553  0.7682  0.1934  0.5300
  138MOL0     C18521   9.910   0.826   5.689 -0.3020 -0.2220 -0.3507
  138MOL0     C18522  10.016   0.891   5.747  0.8534  0.4835 -0.1718
  138MOL0     C18523  10.136   0.924   5.672 -0.1390  0.0497  0.0156
  138MOL0     C18524  10.246   1.005   5.738  0.4234  0.4838 -0.6393
  138MOL0     O18525  10.237   1.016   5.877  0.1287 -0.2549 -0.1162
  138MOL0     C18526  10.308   1.118   5.936  0.5969  0.5055  0.0501
  138MOL0     C18527  10.385   1.096   6.050  0.3348 -0.6293  0.1833
  138MOL0     C18528  10.455   1.202   6.112 -0.4377  0.7746  0.4391
  138MOL0     C18529  10.449   1.331   6.053 -0.0215 -0.0073  0.1741
  138MOL0     O18530  10.518   1.431   6.112 -0.1192 -0.5487  0.1023
  138MOL0     C18531  10.592   1.418   6.234 -0.1002  0.1295  0.0145
  138MOL0     C18532  10.629   1.559   6.288  0.6145  0.1966 -0.4879
  138MOL0     C18533  10.757   1.543   6.374 -0.5101  0.4246 -0.5838
  138MOL0     C18534  10.744   1.481   6.513  0.8123  0.5031  0.1470
  138MOL0     C18535  10.705   1.591   6.617 -0.0687  0.5126 -0.4342
  138MOL0     C18536  10.815   1.683   6.672 -0.0774 -0.4616  0.0059
  138MOL0     C18537  10.777   1.779   6.792  0.1764 -0.1642 -0.4466
  138MOL0     C18538  10.896   1.857   6.841 -0.1545 -1.0500 -0.2236
  138MOL0    Cl18539  10.859   1.988   6.947  0.3477 -0.0747  0.1334
  138MOL0     C18540  10.363   1.359   5.948 -0.4068  0.7258  0.6848
  138MOL0     C18541  10.285   1.255   5.891  0.0197 -0.1268 -0.8650
  138MOL0     O18542  10.331   1.053   5.669 -0.1367 -0.5488 -0.5450
  138MOL0     C18543  10.143   0.879   5.543  0.1115 -0.5365  0.0901
  138MOL0     C18544  10.039   0.808   5.484  0.1342  0.4369 -0.9563
  138MOL0     N18545   9.452   1.268   5.324 -0.1921 -0.1956  0.5079
  138MOL0     N18546   9.353   1.343   5.286 -0.2515 -0.4321 -0.4254
  138MOL0     C18547   8.508   1.661   4.555 -0.1461 -0.6553 -0.4442
  138MOL0     C18548   8.398   1.578   4.536  0.5519  1.1267  0.2569
  138MOL0     C18549   8.111   1.195   4.629 -0.4135 -0.1048  0.8321
  138MOL0     C18550   8.115   1.059   4.638  0.0458 -0.3472 -0.1326
  138MOL0     C18551   7.997   0.988   4.659 -0.1729  0.2100  0.0797
  138MOL0     C18552   7.869   1.043   4.640  0.1521  0.4667 -0.0556
  138MOL0     O18553   7.764   0.952   4.660 -0.1870  0.2829  0.4863
  138MOL0     C18554   7.633   1.015   4.667 -0.2501  0.1104 -0.5971
  138MOL0     C18555   7.624   1.077   4.807  0.0243  0.6620  0.3934
  138MOL0     C18556   7.484   1.138   4.817 -0.6361 -0.1872  0.3173
  138MOL0     C18557   7.473   1.282   4.761  0.0279 -0.1421 -0.7626
  138MOL0     C18558   7.522   1.379   4.859 -0.4917  0.3696 -0.0512
  138MOL0     C18559   7.591   1.418   4.958  0.2577 -0.1536  0.6184
  138MOL0     C18560   7.867   1.174   4.609  0.5860  0.2282 -0.2747
  138MOL0     C18561   7.981   1.256   4.605  0.1339 -0.7121 -1.1903
  138MOL0     C18562   7.952   1.396   4.553  1.1367  0.5788  0.4993
  138MOL0     H18563   8.401   1.412   4.829 -1.0895  0.9635  0.1258
  138MOL0     H18564   8.604   1.555   4.860  3.9784  2.4672 -3.0902
  138MOL0     H18565   8.732   1.832   4.556  0.2653 -1.3834 -1.6108
  138MOL0     H18566   8.852   1.827   4.683 -1.3607  0.2036  2.3767
  138MOL0     H18567   8.923   1.681   4.503 -1.6819  3.6744  0.7442
  138MOL0     H18568   8.770   1.599   4.498  0.0323  0.6207 -0.8010
  138MOL0     H18569   8.912   1.460   4.596  4.5954  2.0323 -3.2031
  138MOL0     H18570   8.830   1.520   4.739  0.8580 -0.4460 -0.3921
  138MOL0     H18571   9.101   1.614   4.624 -2.1049  4.2703 -0.2644
  138MOL0     H18572   9.026   1.677   4.776 -1.0847 -1.3802  1.3340
  138MOL0     H18573   9.027   1.428   4.853  0.6324 -1.6470  0.0084
  138MOL0     H18574   9.143   1.405   4.725 -3.1075 -2.0786 -0.8865
  138MOL0     H18575   9.275   1.612   4.814  0.4205 -1.9553 -1.2556
  138MOL0     H18576   9.155   1.622   4.943  0.9196  3.2662 -1.8644
  138MOL0     H18577   9.384   1.510   4.986  0.2766 -2.9756  3.6170
  138MOL0     H18578   9.323   1.379   4.882  0.7011 -1.6746  0.9947
  138MOL0     H18579   9.167   1.456   5.123 -0.7686 -0.1647 -1.9023
  138MOL0     H18580   9.169   1.304   5.032  0.2525 -1.6209  2.1178
  138MOL0     H18581   9.422   1.161   5.021  0.0015 -1.4853  0.9328
  138MOL0     H18582   9.649   1.061   5.144 -1.0649  0.0700 -1.5836
  138MOL0     H18583   9.696   1.147   5.294 -0.6836  1.1832 -0.7878
  138MOL0     H18584   9.530   1.021   5.419 -0.3191  1.9853 -0.9204
  138MOL0     H18585   9.521   0.905   5.283  2.1465 -2.2642 -0.1090
  138MOL0     H18586   9.787   0.959   5.386 -1.8993  2.5929 -0.7553
  138MOL0     H18587   9.735   0.843   5.270  1.4653  0.4651  1.3503
  138MOL0     H18588   9.613   0.721   5.442  1.2744 -1.8814 -1.9049
  138MOL0     H18589   9.655   0.843   5.562 -3.9409 -1.2748 -0.4882
  138MOL0     H18590   9.824   0.801   5.751 -0.2213  0.9359  0.2705
  138MOL0     H18591  10.021   0.901   5.855 -0.2322 -0.9284  0.0466
  138MOL0     H18592  10.384   0.997   6.093 -0.3843 -0.5673  0.3160
  138MOL0     H18593  10.507   1.164   6.199 -1.0890 -0.2624  0.3894
  138MOL0     H18594  10.540   1.358   6.310  1.5940 -0.1447  1.0090
  138MOL0     H18595  10.687   1.369   6.210  1.3687  3.0412 -0.5650
  138MOL0     H18596  10.651   1.621   6.200  3.5263 -0.1026 -0.0735
  138MOL0     H18597  10.546   1.607   6.340  2.5583  2.6870  0.5570
  138MOL0     H18598  10.841   1.487   6.332 -1.2199 -1.0684 -0.1154
  138MOL0     H18599  10.788   1.647   6.377  1.1770 -0.0090  3.8980
  138MOL0     H18600  10.840   1.439   6.545  0.2220 -0.8012  0.2673
  138MOL0     H18601  10.671   1.400   6.519  0.8199  0.5912  2.0500
  138MOL0     H18602  10.660   1.545   6.706  0.8587  1.1200  0.3843
  138MOL0     H18603  10.632   1.659   6.574 -1.1895 -0.6653 -0.4414
  138MOL0     H18604  10.894   1.617   6.709 -0.2106 -1.0192 -0.6755
  138MOL0     H18605  10.851   1.741   6.586 -1.0178  0.2219  0.0577
  138MOL0     H18606  10.738   1.723   6.878 -1.7109  1.6361 -0.0447
  138MOL0     H18607  10.703   1.850   6.755 -0.3601 -0.2393  0.4294
  138MOL0     H18608  10.966   1.792   6.893  1.5766  0.1453 -0.9494
  138MOL0     H18609  10.955   1.897   6.757  3.4085 -4.4836  0.3617
  138MOL0     H18610  10.361   1.456   5.898 -0.8543 -0.3116 -1.4143
  138MOL0     H18611  10.202   1.291   5.832 -0.8530  1.9345  1.4355
  138MOL0     H18612  10.233   0.900   5.486 -0.0972  0.9137  0.2514
  138MOL0     H18613  10.039   0.771   5.382  0.6756 -5.0722  0.6812
  138MOL0     H18614   8.534   1.731   4.475 -0.5286 -1.2206 -1.0696
  138MOL0     H18615   8.330   1.582   4.451 -2.0136  0.4875  2.1651
  138MOL0     H18616   8.206   0.999   4.635 -0.1553 -0.6558 -0.1317
  138MOL0     H18617   7.988   0.881   4.679 -0.6402  0.3294  0.5365
  138MOL0     H18618   7.554   0.939   4.665  0.6088 -0.8481  0.5868
  138MOL0     H18619   7.606   1.091   4.593 -1.5978  0.6296  0.3770
  138MOL0     H18620   7.693   1.158   4.831 -0.7506  0.8066  2.2517
  138MOL0     H18621   7.650   0.996   4.876 -4.0235  1.4637  3.1667
  138MOL0     H18622   7.466   1.141   4.924 -2.7530  0.8344 -0.0216
  138MOL0     H18623   7.407   1.072   4.777 -0.1206 -2.0848  2.2650
  138MOL0     H18624   7.518   1.302   4.663 -2.9276 -0.1463 -2.2133
  138MOL0     H18625   7.368   1.300   4.738  0.2902  2.8155 -0.0090
  138MOL0     H18626   7.636   1.464   5.044  2.5589  0.4271 -0.7918
  138MOL0     H18627   7.770   1.221   4.602  1.0037  1.7831  2.8076
  138MOL0     H18628   8.015   1.406   4.464 -1.3240 -1.6948 -1.6432
  138MOL0     H18629   7.847   1.418   4.533 -0.1817 -2.4349  3.1092
  138MOL0     H18630   7.988   1.464   4.631  2.0004 -1.3958  1.9245
  139MOL0     O18631  10.573   8.169   9.603  0.3204  0.2136  0.5513
  139MOL0     C18632  10.554   8.289   9.620  0.4594  0.2714  0.1308
  139MOL0     O18633  10.649   8.387   9.643 -0.4558 -0.4706 -0.8141
  139MOL0     C18634  10.783   8.371   9.618  0.6640  0.1536 -0.0335
  139MOL0     C18635  10.864   8.420   9.714  0.1920  0.1562 -0.6536
  139MOL0     C18636  11.002   8.393   9.710  0.3913  0.0545  1.1873
  139MOL0     C18637  11.053   8.332   9.600 -0.1674 -0.6464  0.5966
  139MOL0     O18638  11.192   8.316   9.587  0.1728  0.1501  0.4196
  139MOL0     C18639  11.262   8.411   9.500  0.0119  0.1112 -0.1948
  139MOL0     C18640  11.392   8.476   9.567  0.6622 -0.6599  0.1215
  139MOL0     C18641  11.490   8.368   9.582 -0.4936  0.2658 -0.0034
  139MOL0     C18642  11.618   8.419   9.655  0.7388 -0.0303  0.6217
  139MOL0     C18643  11.731   8.316   9.653 -0.2172  0.5032 -0.2564
  139MOL0     C18644  11.808   8.311   9.790 -0.3163 -0.1771  0.6130
  139MOL0     C18645  11.866   8.448   9.822 -0.1768  0.7179 -0.2871
  139MOL0     C18646  11.961   8.447   9.944  0.5134 -0.1223  0.3069
  139MOL0     N18647  12.066   8.342   9.949 -0.5331  0.2346 -0.0453
  139MOL0     C18648  12.150   8.319   9.842 -0.1368  0.8379 -0.3579
  139MOL0     C18649  12.231   8.222   9.889  0.1211 -0.1985  0.6884
  139MOL0     C18650  12.348   8.166   9.809 -0.3711  0.2647 -0.4454
  139MOL0     C18651  12.483   8.181   9.880  0.3326 -0.1108 -0.2124
  139MOL0     C18652  12.583   8.070   9.825 -0.3364 -0.1160 -0.6089
  139MOL0     C18653  12.723   8.071   9.877  0.4433  0.3861  0.5149
  139MOL0     O18654  12.794   7.952   9.852 -0.0657 -0.2818  0.6741
  139MOL0     C18655  12.930   7.953   9.877  0.6507  0.2759 -0.1989
  139MOL0     C18656  13.000   7.841   9.832 -0.6329  0.6778 -0.0477
  139MOL0     C18657  13.135   7.812   9.860 -0.6714  0.9112  0.3157
  139MOL0     C18658  13.209   7.914   9.936  0.7083  0.4869  0.2353
  139MOL0     C18659  13.352   7.878   9.971  0.1441 -0.3463 -0.1801
  139MOL0     O18660  13.421   7.962  10.048  0.6098 -0.8438  0.8538
  139MOL0     C18661  13.546   7.928  10.072 -0.5217  0.2421 -0.2244
  139MOL0     C18662  13.577   7.852  10.188 -0.3609  0.4309 -0.3566
  139MOL0     C18663  13.710   7.812  10.220  0.4630 -0.3352  0.0687
  139MOL0     C18664  13.818   7.866  10.145  0.0589 -0.3212  0.4874
  139MOL0     O18665  13.942   7.817  10.191  0.2976 -0.7347  0.2544
  139MOL0     C18666  14.056   7.860  10.121 -0.1544  0.5583  0.2928
  139MOL0     C18667  14.173   7.822  10.206  0.3659 -0.0014 -0.4726
  139MOL0     C18668  14.312   7.861  10.152  0.0268  0.9460 -0.1100
  139MOL0     C18669  14.417   7.839  10.256  0.0330 -0.3016  0.5029
  139MOL0     C18670  14.560   7.852  10.194  0.3549  0.8386  0.0215
  139MOL0     C18671  14.658   7.786  10.303  0.3365 -0.5392  0.2612
  139MOL0     C18672  14.794   7.778  10.232  0.2064 -0.7465 -0.8967
  139MOL0     C18673  14.910   7.724  10.325  0.9392 -0.1169 -0.0348
  139MOL0    Cl18674  15.065   7.773  10.265 -0.3049 -0.4023  0.2897
  139MOL0     C18675  13.786   7.951  10.034 -0.2612  0.1279 -0.3336
  139MOL0     C18676  13.655   7.988   9.999  0.1302  0.3695 -0.0904
  139MOL0     O18677  13.385   7.768   9.938 -0.4992 -0.3710 -0.4989
  139MOL0     C18678  13.141   8.033   9.973 -0.0940  0.4399  0.6014
  139MOL0     C18679  13.000   8.049   9.948  0.0080 -0.1554  0.2441
  139MOL0     N18680  12.203   8.201  10.025 -0.2799  0.4936 -0.2380
  139MOL0     N18681  12.101   8.271  10.059 -0.0953 -0.1077 -0.0855
  139MOL0     C18682  10.967   8.285   9.501 -0.1308 -0.9709 -0.4028
  139MOL0     C18683  10.836   8.301   9.513 -0.3557  0.0663  0.4212
  139MOL0     C18684  10.411   8.325   9.608  0.2080 -0.2858 -0.3562
  139MOL0     C18685  10.370   8.446   9.545 -0.2952  0.4579 -0.0646
  139MOL0     C18686  10.242   8.496   9.538 -1.4747  0.3913  0.0871
  139MOL0     C18687  10.140   8.409   9.586 -0.1230  0.7816 -0.2833
  139MOL0     O18688  10.008   8.454   9.579 -0.5971  0.1426  0.0751
  139MOL0     C18689   9.899   8.368   9.619 -0.4471 -0.0848  0.6621
  139MOL0     C18690   9.768   8.446   9.591  0.5061 -0.0760  0.5162
  139MOL0     C18691   9.727   8.462   9.443  0.1808 -0.1528  0.7491
  139MOL0     C18692   9.601   8.550   9.429  0.2364 -0.6348  0.0056
  139MOL0     C18693   9.486   8.489   9.491 -0.0423  0.0600 -0.0358
  139MOL0     C18694   9.394   8.421   9.543 -0.9544  0.0400 -0.5232
  139MOL0     C18695  10.177   8.281   9.640 -0.2486  0.3609  0.7834
  139MOL0     C18696  10.308   8.243   9.656  0.4936 -0.4391  1.3347
  139MOL0     C18697  10.320   8.116   9.723  0.4407 -0.5453 -0.4604
  139MOL0     H18698  10.833   8.466   9.807 -2.5967 -1.6856 -0.5457
  139MOL0     H18699  11.064   8.430   9.791  1.2174 -0.2496  0.7089
  139MOL0     H18700  11.285   8.354   9.409 -5.1133 -1.7645 -0.6582
  139MOL0     H18701  11.198   8.495   9.471  0.0906 -0.6495 -2.8137
  139MOL0     H18702  11.355   8.503   9.667 -2.4764 -3.4319 -0.1167
  139MOL0     H18703  11.437   8.562   9.517 -1.8544  1.2634  0.9582
  139MOL0     H18704  11.519   8.331   9.483  1.0388 -2.1238  1.2522
  139MOL0     H18705  11.446   8.288   9.641 -1.1864 -0.5903 -1.6137
  139MOL0     H18706  11.659   8.514   9.620 -0.7256  0.1168 -0.8451
  139MOL0     H18707  11.594   8.445   9.758 -0.8313  3.4864 -0.4623
  139MOL0     H18708  11.666   8.228   9.647 -0.5647  0.6940  0.5172
  139MOL0     H18709  11.799   8.323   9.567  0.3290  0.0093  0.1301
  139MOL0     H18710  11.738   8.274   9.866 -0.0365 -1.6107  0.2042
  139MOL0     H18711  11.884   8.233   9.776  1.2575  1.1318  1.5097
  139MOL0     H18712  11.782   8.516   9.836  0.4453  1.0905  2.0287
  139MOL0     H18713  11.923   8.467   9.730 -0.7186 -2.3681 -1.3974
  139MOL0     H18714  12.008   8.545   9.932 -3.7967  2.0736 -0.6883
  139MOL0     H18715  11.907   8.443  10.039  0.9331  0.9529  0.6049
  139MOL0     H18716  12.149   8.363   9.742 -1.3342  1.8774  0.0873
  139MOL0     H18717  12.334   8.057   9.813 -0.1017  0.1074  5.1097
  139MOL0     H18718  12.363   8.200   9.707  0.7046 -0.7037 -0.6363
  139MOL0     H18719  12.521   8.280   9.851 -4.6506  1.9368 -0.8117
  139MOL0     H18720  12.472   8.176   9.989 -1.4652 -2.5684 -0.4126
  139MOL0     H18721  12.595   8.073   9.716 -0.5068  0.9166 -0.6105
  139MOL0     H18722  12.529   7.978   9.851 -0.6301 -0.4167 -2.1944
  139MOL0     H18723  12.715   8.095   9.983  0.0209 -1.2837  0.9015
  139MOL0     H18724  12.772   8.151   9.822  1.3700 -0.3718  0.2103
  139MOL0     H18725  12.951   7.764   9.772  0.9038 -1.0196  0.7794
  139MOL0     H18726  13.180   7.720   9.825 -1.1183  0.4167  0.9992
  139MOL0     H18727  13.492   7.809  10.241 -0.8055 -1.5516 -2.5237
  139MOL0     H18728  13.718   7.752  10.309  0.2598  2.4231  2.0796
  139MOL0     H18729  14.054   7.808  10.025  0.5677  1.1395 -0.0407
  139MOL0     H18730  14.054   7.967  10.095  0.0488  0.6875  0.8080
  139MOL0     H18731  14.177   7.867  10.306  2.2173 -3.6138  1.2719
  139MOL0     H18732  14.159   7.716  10.229  0.6136  0.1977  0.7092
  139MOL0     H18733  14.339   7.789  10.075 -0.3409 -0.9098  1.3999
  139MOL0     H18734  14.309   7.966  10.120 -1.9004  1.5176  1.6465
  139MOL0     H18735  14.401   7.745  10.309  0.6689 -1.4681 -1.2816
  139MOL0     H18736  14.411   7.927  10.321  2.2425  1.5348 -1.5718
  139MOL0     H18737  14.591   7.950  10.158 -0.7212  1.4610  0.7330
  139MOL0     H18738  14.561   7.784  10.108  2.2543  0.0409  0.6357
  139MOL0     H18739  14.651   7.856  10.386 -4.5339 -1.5253  0.9456
  139MOL0     H18740  14.617   7.689  10.332 -1.1654 -0.6918 -2.1113
  139MOL0     H18741  14.830   7.873  10.191  0.3405 -1.7831 -3.3518
  139MOL0     H18742  14.780   7.706  10.151 -1.3483 -2.6087  0.9506
  139MOL0     H18743  14.885   7.758  10.426  0.8621  0.0102 -0.0959
  139MOL0     H18744  14.906   7.615  10.332 -0.7219 -0.2449 -2.0743
  139MOL0     H18745  13.869   7.986   9.974  0.4660 -1.2203 -0.1484
  139MOL0     H18746  13.625   8.055   9.920 -1.2934  0.7400  0.7402
  139MOL0     H18747  13.190   8.113  10.028  1.0086  0.2866 -0.1323
  139MOL0     H18748  12.947   8.138   9.981  0.0946  0.9539 -2.3826
  139MOL0     H18749  11.002   8.243   9.407  1.2319  3.8059 -2.3531
  139MOL0     H18750  10.781   8.252   9.434  2.0451  0.1516 -1.4157
  139MOL0     H18751  10.450   8.515   9.519  0.3317  0.3962  1.5756
  139MOL0     H18752  10.219   8.599   9.516  0.9616  1.1857  0.8336
  139MOL0     H18753   9.917   8.354   9.726 -2.3034 -1.7083  0.8342
  139MOL0     H18754   9.891   8.265   9.581 -1.6162  0.8200 -1.7519
  139MOL0     H18755   9.789   8.546   9.629  0.0391  0.2302 -0.0046
  139MOL0     H18756   9.684   8.403   9.645 -0.6893  1.2921 -0.1988
  139MOL0     H18757   9.716   8.375   9.379  1.7929 -0.1036  0.3868
  139MOL0     H18758   9.808   8.517   9.394 -1.6197  0.5934 -1.6041
  139MOL0     H18759   9.600   8.649   9.476  2.4552 -0.2001 -0.7224
  139MOL0     H18760   9.584   8.574   9.324  1.8070 -0.5031 -0.2462
  139MOL0     H18761   9.326   8.351   9.586 -2.2508  1.2941 -0.4635
  139MOL0     H18762  10.098   8.218   9.679 -0.0194  1.3514  2.9462
  139MOL0     H18763  10.227   8.097   9.777  1.1737 -2.1353  0.3224
  139MOL0     H18764  10.335   8.043   9.642 -2.6476  0.8590 -2.5088
  139MOL0     H18765  10.397   8.115   9.800 -1.2725  2.1052  1.4323
  140MOL0     O18766   4.939   5.558   9.240 -0.3251 -0.1862 -0.1320
  140MOL0     C18767   4.932   5.442   9.285 -0.2347  0.8712  0.6709
  140MOL0     O18768   5.038   5.374   9.353  0.3943 -0.1454  1.3964
  140MOL0     C18769   5.143   5.439   9.415  0.2774  0.0692 -0.0843
  140MOL0     C18770   5.128   5.524   9.525  0.5921 -0.5260 -0.1955
  140MOL0     C18771   5.233   5.583   9.596 -0.4023  0.1274 -0.3638
  140MOL0     C18772   5.364   5.539   9.562 -0.8568  0.1937 -0.4579
  140MOL0     O18773   5.467   5.564   9.654  1.4574  0.7498 -0.2525
  140MOL0     C18774   5.599   5.577   9.614 -0.2977 -0.2213 -0.6014
  140MOL0     C18775   5.679   5.631   9.732 -0.2296 -0.4769  0.0941
  140MOL0     C18776   5.716   5.779   9.721  0.0791  0.7966 -0.7569
  140MOL0     C18777   5.830   5.798   9.822  0.0810 -0.2389 -0.3085
  140MOL0     C18778   5.912   5.919   9.792 -0.5475  0.3558  0.5692
  140MOL0     C18779   6.027   5.927   9.892 -0.0943 -0.1448 -0.0090
  140MOL0     C18780   6.124   6.052   9.859 -0.1741  0.5797  0.1790
  140MOL0     C18781   6.268   6.009   9.873  0.5118 -0.2938 -0.6562
  140MOL0     N18782   6.294   5.986  10.015 -0.6141 -0.2481 -0.8665
  140MOL0     C18783   6.295   5.863  10.067 -0.1996 -0.5214  0.5490
  140MOL0     C18784   6.321   5.879  10.202 -0.1977 -0.1883  0.6860
  140MOL0     C18785   6.300   5.769  10.306 -1.4456  0.1174  0.7292
  140MOL0     C18786   6.405   5.757  10.421  0.0945 -1.0667  0.1007
  140MOL0     C18787   6.373   5.859  10.537  0.3505  0.5552 -0.0504
  140MOL0     C18788   6.405   5.801  10.679  0.3811 -0.3133 -0.5978
  140MOL0     O18789   6.303   5.704  10.711 -0.3021  0.1462 -0.9700
  140MOL0     C18790   6.306   5.674  10.846 -0.1041  0.0637 -0.5695
  140MOL0     C18791   6.191   5.615  10.899 -0.7920  0.0316  0.2508
  140MOL0     C18792   6.165   5.597  11.032 -0.7555  0.3357 -0.3856
  140MOL0     C18793   6.269   5.628  11.125  0.3854  0.6931  0.0320
  140MOL0     C18794   6.258   5.598  11.265  0.1333 -0.3403  0.2986
  140MOL0     O18795   6.156   5.519  11.305  0.6744 -0.0810 -0.0025
  140MOL0     C18796   6.125   5.488  11.440 -0.3835 -0.6052  0.5412
  140MOL0     C18797   6.212   5.487  11.548  0.4469 -0.4136 -0.1621
  140MOL0     C18798   6.157   5.472  11.679 -0.5374  0.4070 -1.1901
  140MOL0     C18799   6.024   5.430  11.693  0.5594  0.0803 -0.5656
  140MOL0     O18800   5.983   5.396  11.820  0.5373  0.0747 -0.4906
  140MOL0     C18801   5.846   5.363  11.856 -0.0809 -0.0222 -0.2752
  140MOL0     C18802   5.843   5.323  12.011 -1.1647 -0.1722 -0.3149
  140MOL0     C18803   5.712   5.261  12.058  0.4872  0.4265 -0.2057
  140MOL0     C18804   5.716   5.234  12.218 -0.1297 -0.4240  0.0417
  140MOL0     C18805   5.595   5.146  12.266  0.0996 -0.1395  0.2945
  140MOL0     C18806   5.467   5.238  12.278  0.3922  0.1519 -0.1083
  140MOL0     C18807   5.348   5.144  12.310 -0.5145  0.6325  0.1637
  140MOL0     C18808   5.213   5.218  12.310 -0.2553  0.0803  0.8161
  140MOL0    Cl18809   5.164   5.284  12.147 -0.1162  0.0128  0.3475
  140MOL0     C18810   5.941   5.423  11.586 -0.5035  0.1143 -0.2118
  140MOL0     C18811   5.993   5.457  11.462  0.1803 -0.5997  0.4136
  140MOL0     O18812   6.339   5.645  11.348  0.6002  0.0732  0.4500
  140MOL0     C18813   6.386   5.691  11.081 -0.1817  0.1124  0.3978
  140MOL0     C18814   6.404   5.710  10.939 -0.1676  0.1440  0.8901
  140MOL0     N18815   6.349   6.010  10.225  0.2750 -0.3712 -0.1395
  140MOL0     N18816   6.327   6.077  10.115  0.1268  0.5090  0.6396
  140MOL0     C18817   5.387   5.450   9.450 -0.6923  0.6718 -0.5649
  140MOL0     C18818   5.275   5.412   9.377  0.2068 -0.1529  0.9159
  140MOL0     C18819   4.802   5.368   9.279  0.6270  0.1531 -0.2402
  140MOL0     C18820   4.810   5.225   9.310  0.8093 -0.4274  0.2223
  140MOL0     C18821   4.690   5.148   9.305  0.1512 -0.4108 -0.6606
  140MOL0     C18822   4.572   5.201   9.251  0.0601 -0.3079  0.0922
  140MOL0     O18823   4.450   5.148   9.231  0.1386 -0.4388  0.8785
  140MOL0     C18824   4.410   5.038   9.317  0.5012 -0.6236  0.1803
  140MOL0     C18825   4.266   5.007   9.289 -0.3098  0.2389  0.1999
  140MOL0     C18826   4.261   4.924   9.151 -0.6262  0.3579  1.0407
  140MOL0     C18827   4.113   4.882   9.126 -0.0851  0.1554 -0.3620
  140MOL0     C18828   4.060   4.803   9.232  0.5274  0.5194 -0.0934
  140MOL0     C18829   4.014   4.732   9.316  0.8227  0.0464  0.9978
  140MOL0     C18830   4.574   5.332   9.215  0.5580 -0.1871 -0.7430
  140MOL0     C18831   4.679   5.422   9.232  0.7146  0.6635  0.0018
  140MOL0     C18832   4.654   5.563   9.201 -0.3097  0.3313  0.5396
  140MOL0     H18833   5.029   5.547   9.563 -0.0055 -0.2172 -1.8443
  140MOL0     H18834   5.225   5.656   9.676  5.5373  0.8225  0.0768
  140MOL0     H18835   5.635   5.483   9.572  0.5399  0.5925 -1.7588
  140MOL0     H18836   5.610   5.650   9.534 -0.5615 -0.4050 -0.8028
  140MOL0     H18837   5.772   5.574   9.722 -0.2049 -0.4132 -0.0326
  140MOL0     H18838   5.618   5.613   9.820 -2.0572 -0.1731 -1.0622
  140MOL0     H18839   5.638   5.848   9.756  2.0307  2.2540  0.9595
  140MOL0     H18840   5.752   5.806   9.621  1.2296 -2.2391 -1.2489
  140MOL0     H18841   5.806   5.789   9.928  0.8188 -1.6135 -0.2283
  140MOL0     H18842   5.907   5.722   9.809  0.9522  0.8744 -1.8903
  140MOL0     H18843   5.955   5.916   9.691 -1.6461 -0.2616  0.1009
  140MOL0     H18844   5.852   6.010   9.798 -0.2426  0.7061 -1.2026
  140MOL0     H18845   5.989   5.924   9.994 -2.1147 -1.8970 -0.7172
  140MOL0     H18846   6.080   5.832   9.878  0.0305  0.0719 -1.1383
  140MOL0     H18847   6.101   6.146   9.910 -1.1089  0.3884  0.1263
  140MOL0     H18848   6.107   6.078   9.754 -1.1468  1.1457  0.4641
  140MOL0     H18849   6.297   5.921   9.815  2.4839  0.2635 -0.5869
  140MOL0     H18850   6.331   6.089   9.833 -1.6982  1.0499 -1.5998
  140MOL0     H18851   6.275   5.767  10.021 -2.6830  1.0445 -1.9817
  140MOL0     H18852   6.198   5.767  10.346 -0.7471  2.3944  2.9398
  140MOL0     H18853   6.310   5.677  10.249  2.5845 -0.4455  2.0632
  140MOL0     H18854   6.402   5.651  10.449 -1.5946 -1.6312 -1.9159
  140MOL0     H18855   6.502   5.785  10.380  0.4205  2.1096  2.6212
  140MOL0     H18856   6.267   5.886  10.536 -0.5591 -2.6600 -0.8987
  140MOL0     H18857   6.416   5.957  10.514  1.4037 -0.2266 -1.5578
  140MOL0     H18858   6.406   5.880  10.754 -0.5895  0.3741 -1.2800
  140MOL0     H18859   6.504   5.754  10.676  1.2400  1.3352  0.5530
  140MOL0     H18860   6.116   5.584  10.827  1.3805 -1.7723 -1.3656
  140MOL0     H18861   6.072   5.550  11.064 -0.5169  0.9721  1.3064
  140MOL0     H18862   6.317   5.514  11.541 -0.0254  1.2137 -1.4349
  140MOL0     H18863   6.222   5.467  11.766  0.7732 -0.6253 -2.1820
  140MOL0     H18864   5.790   5.455  11.833  1.4881  0.7351 -1.3107
  140MOL0     H18865   5.804   5.280  11.799 -2.0985  0.0454  1.0265
  140MOL0     H18866   5.928   5.257  12.030 -1.5850  0.3165  4.4994
  140MOL0     H18867   5.856   5.415  12.069  1.2262 -0.3840 -0.4285
  140MOL0     H18868   5.637   5.333  12.024  0.7719  0.5395 -0.6079
  140MOL0     H18869   5.698   5.169  12.000  0.5384  1.5739 -2.1526
  140MOL0     H18870   5.712   5.326  12.278 -1.9170 -3.1246  4.5151
  140MOL0     H18871   5.804   5.175  12.246 -1.1717 -1.8645  0.3809
  140MOL0     H18872   5.616   5.102  12.364  0.8666  0.6593  0.5045
  140MOL0     H18873   5.581   5.065  12.194  4.9814 -0.2645 -0.8550
  140MOL0     H18874   5.480   5.302  12.366 -0.7737 -0.1713  0.3096
  140MOL0     H18875   5.437   5.294  12.189 -1.3989  2.7522  1.9780
  140MOL0     H18876   5.366   5.088  12.402  2.9136  0.4958 -0.4646
  140MOL0     H18877   5.337   5.063  12.237 -2.3664  1.7214 -0.8444
  140MOL0     H18878   5.138   5.147  12.347  0.4092  0.5848  3.3412
  140MOL0     H18879   5.222   5.292  12.390 -0.7298 -0.5062  1.4219
  140MOL0     H18880   5.839   5.393  11.606 -1.2394  1.4713 -1.7756
  140MOL0     H18881   5.927   5.455  11.376  1.1038  1.7762 -0.4326
  140MOL0     H18882   6.464   5.728  11.148  0.5049 -2.1794  0.9318
  140MOL0     H18883   6.496   5.756  10.905  0.8707 -2.4468 -0.0023
  140MOL0     H18884   5.488   5.413   9.438 -0.4342  1.1760 -0.0098
  140MOL0     H18885   5.287   5.339   9.298  0.8213  2.6158 -1.6764
  140MOL0     H18886   4.907   5.190   9.343  2.3926  4.6194  1.9203
  140MOL0     H18887   4.696   5.043   9.332 -2.5077  0.0142  2.1244
  140MOL0     H18888   4.424   5.070   9.421 -0.8624  0.0883  0.1703
  140MOL0     H18889   4.472   4.949   9.305  1.0856 -0.2084  0.0650
  140MOL0     H18890   4.205   5.098   9.286 -0.0685  0.4104  0.4121
  140MOL0     H18891   4.225   4.947   9.371  0.1307 -0.7651 -0.2926
  140MOL0     H18892   4.326   4.837   9.154 -0.8958  0.1662  1.4659
  140MOL0     H18893   4.298   4.971   9.060  2.5344  1.1652  2.5937
  140MOL0     H18894   4.063   4.979   9.121  2.4798  1.6386  0.7628
  140MOL0     H18895   4.100   4.831   9.030  2.7074  0.9096 -1.2375
  140MOL0     H18896   3.972   4.677   9.398 -0.5277 -0.5418 -0.0395
  140MOL0     H18897   4.480   5.368   9.173 -1.3012 -4.5953 -0.9215
  140MOL0     H18898   4.710   5.595   9.113 -0.2928  2.8946  1.3993
  140MOL0     H18899   4.549   5.593   9.200 -0.2823  0.5017 -1.4504
  140MOL0     H18900   4.694   5.630   9.278  2.7641 -1.9798  1.1666
  141MOL0     O18901   8.354  10.551   5.255 -0.2495  0.1138 -0.3522
  141MOL0     C18902   8.287  10.641   5.196 -1.1650 -0.2471 -0.4200
  141MOL0     O18903   8.341  10.730   5.111  0.1819  0.4403  0.0419
  141MOL0     C18904   8.466  10.695   5.068 -0.2945  0.8410 -0.1069
  141MOL0     C18905   8.572  10.775   5.096 -0.4478 -0.2284  0.4537
  141MOL0     C18906   8.700  10.729   5.058  0.3063 -1.0007 -1.0126
  141MOL0     C18907   8.717  10.612   4.972 -0.0514 -1.4603  0.0692
  141MOL0     O18908   8.841  10.582   4.921 -0.0185  0.4302  0.3507
  141MOL0     C18909   8.962  10.617   4.991 -0.0932 -0.5419  0.5670
  141MOL0     C18910   9.079  10.559   4.905  0.4009 -0.0984  1.3276
  141MOL0     C18911   9.202  10.563   4.980 -0.1076  0.5249 -0.8687
  141MOL0     C18912   9.304  10.483   4.910 -0.7955 -0.4857  0.2467
  141MOL0     C18913   9.444  10.495   4.974 -0.0125  0.5063 -0.2112
  141MOL0     C18914   9.557  10.408   4.906  0.2194  0.0776  0.0643
  141MOL0     C18915   9.663  10.368   4.999 -0.4983  0.2721  0.2298
  141MOL0     C18916   9.772  10.268   4.943 -0.2147 -0.1088  0.6404
  141MOL0     N18917   9.882  10.260   5.041 -0.2899  0.6016 -0.0167
  141MOL0     C18918   9.977  10.356   5.047 -0.5106 -0.0957  0.6904
  141MOL0     C18919  10.067  10.319   5.141 -0.2379 -0.1363 -0.0437
  141MOL0     C18920  10.181  10.418   5.186 -0.4163 -0.3439 -0.3110
  141MOL0     C18921  10.223  10.401   5.337  1.1022  0.0685  0.2077
  141MOL0     C18922  10.325  10.508   5.383  0.7793  0.1666  0.4046
  141MOL0     C18923  10.355  10.500   5.527  0.3144  0.4587 -0.3588
  141MOL0     O18924  10.473  10.584   5.560  0.8375 -0.5006  0.4027
  141MOL0     C18925  10.595  10.523   5.558  0.4335 -0.1681 -0.1743
  141MOL0     C18926  10.703  10.582   5.620  0.2325 -0.2182  0.1059
  141MOL0     C18927  10.831  10.527   5.625  1.0977 -0.1808  0.4913
  141MOL0     C18928  10.863  10.411   5.553 -0.0937  0.1111 -0.3944
  141MOL0     C18929  10.995  10.342   5.565 -0.7783  0.1972 -0.9883
  141MOL0     O18930  11.022  10.230   5.497  0.2362  0.1128  0.1352
  141MOL0     C18931  11.161  10.199   5.477  0.2869 -0.5020  0.3186
  141MOL0     C18932  11.184  10.064   5.447 -0.1375 -0.2572 -0.1861
  141MOL0     C18933  11.308  10.021   5.395 -0.0952 -0.4665  0.3635
  141MOL0     C18934  11.413  10.119   5.376  0.7023  0.3979  0.3297
  141MOL0     O18935  11.520  10.078   5.304  0.3728 -0.0735  0.2233
  141MOL0     C18936  11.629  10.169   5.270 -0.0378  0.0447  0.6245
  141MOL0     C18937  11.739  10.082   5.222 -0.1432 -0.1804 -0.4490
  141MOL0     C18938  11.877  10.149   5.215  0.0625  0.3280  0.2660
  141MOL0     C18939  11.985  10.047   5.150 -0.3213 -0.9609 -0.7052
  141MOL0     C18940  12.124  10.113   5.137  0.0403  0.2006 -0.9056
  141MOL0     C18941  12.234  10.008   5.118 -0.7008  0.5697 -0.4534
  141MOL0     C18942  12.267   9.920   5.241  0.2680 -0.3375  0.5458
  141MOL0     C18943  12.399   9.850   5.207 -0.8797 -0.9959 -0.5871
  141MOL0    Cl18944  12.435   9.730   5.338 -0.1047 -0.1058 -0.0826
  141MOL0     C18945  11.389  10.250   5.423 -0.3481 -0.3963 -0.7212
  141MOL0     C18946  11.266  10.293   5.468  0.3631  0.1309  0.9024
  141MOL0     O18947  11.071  10.395   5.648 -0.3838  0.6191 -0.2333
  141MOL0     C18948  10.760  10.348   5.483 -0.1336 -0.5581 -0.4677
  141MOL0     C18949  10.631  10.406   5.489  0.8128 -0.2974 -0.3743
  141MOL0     N18950  10.024  10.206   5.202 -0.2542 -0.0080  0.1025
  141MOL0     N18951   9.907  10.176   5.144  0.0215  0.1642  0.2209
  141MOL0     C18952   8.605  10.537   4.946 -0.1502 -0.0433  0.1870
  141MOL0     C18953   8.481  10.574   4.989 -0.3411  0.5063 -0.0484
  141MOL0     C18954   8.139  10.653   5.220 -0.1953  0.0477 -0.7863
  141MOL0     C18955   8.042  10.665   5.116 -0.1769  0.2293  0.1473
  141MOL0     C18956   7.903  10.677   5.144 -0.0686 -0.5482 -0.6903
  141MOL0     C18957   7.864  10.656   5.276  1.0042  1.2470 -0.2002
  141MOL0     O18958   7.726  10.659   5.306 -0.4977 -0.0885 -0.0511
  141MOL0     C18959   7.675  10.604   5.423  0.4598  0.8630 -0.1395
  141MOL0     C18960   7.532  10.644   5.434 -0.0556 -0.4157 -0.3377
  141MOL0     C18961   7.445  10.623   5.314 -0.6642  0.0024  0.1009
  141MOL0     C18962   7.379  10.487   5.325 -0.2028 -0.0652 -0.0432
  141MOL0     C18963   7.430  10.395   5.226 -1.2695  0.2275  0.4214
  141MOL0     C18964   7.475  10.312   5.143 -0.5019  0.3663  0.7051
  141MOL0     C18965   7.953  10.635   5.383  0.7090  0.2535  0.1695
  141MOL0     C18966   8.093  10.644   5.354 -0.1779  0.2386  0.5264
  141MOL0     C18967   8.173  10.617   5.475  0.0603  0.0343  0.1906
  141MOL0     H18968   8.563  10.874   5.139 -0.3545 -0.5786  1.3038
  141MOL0     H18969   8.781  10.798   5.082 -0.6510  0.2852 -1.3624
  141MOL0     H18970   8.966  10.726   4.989  3.6826 -0.5476 -1.2948
  141MOL0     H18971   8.960  10.583   5.095  0.5506 -1.0163  0.4333
  141MOL0     H18972   9.090  10.613   4.811 -1.3496 -1.4922  0.2469
  141MOL0     H18973   9.059  10.452   4.897  0.4789 -0.1952  2.3559
  141MOL0     H18974   9.191  10.519   5.080  0.4270 -1.8931 -1.8120
  141MOL0     H18975   9.238  10.666   4.991  1.2522 -0.0208  0.1552
  141MOL0     H18976   9.267  10.380   4.912 -0.5820 -0.5587  0.4833
  141MOL0     H18977   9.314  10.505   4.803  3.2778 -0.2800  0.5207
  141MOL0     H18978   9.480  10.599   4.976  2.9262 -0.3489 -2.0672
  141MOL0     H18979   9.424  10.469   5.078 -1.2053 -3.5323 -1.2898
  141MOL0     H18980   9.511  10.311   4.886  0.5002 -0.1910  0.7056
  141MOL0     H18981   9.599  10.451   4.815 -1.0680  1.4076  0.0657
  141MOL0     H18982   9.633  10.315   5.090  0.4702 -2.4502 -0.9419
  141MOL0     H18983   9.714  10.463   5.021  1.4298 -0.3210 -1.3994
  141MOL0     H18984   9.730  10.168   4.934  1.0320 -0.4698 -2.6594
  141MOL0     H18985   9.802  10.306   4.845  1.8959 -1.4430  0.7117
  141MOL0     H18986   9.987  10.437   4.975 -0.6172 -0.9261 -0.2848
  141MOL0     H18987  10.265  10.408   5.117  0.5661 -2.0247  1.0600
  141MOL0     H18988  10.149  10.523   5.187  2.1897  0.5250  1.1939
  141MOL0     H18989  10.129  10.411   5.391  0.1949 -0.6174 -1.1917
  141MOL0     H18990  10.256  10.297   5.345 -1.3376 -0.8436 -0.8033
  141MOL0     H18991  10.282  10.607   5.365  1.0203  0.1318 -0.4221
  141MOL0     H18992  10.420  10.497   5.329  0.3839  2.2133 -0.8308
  141MOL0     H18993  10.364  10.396   5.562 -4.9475  0.2734  1.2898
  141MOL0     H18994  10.267  10.536   5.581 -3.0537 -4.7613 -1.6548
  141MOL0     H18995  10.683  10.670   5.680 -2.9323 -1.3734  0.9469
  141MOL0     H18996  10.904  10.587   5.678 -0.6713  0.9051  1.7818
  141MOL0     H18997  11.105   9.992   5.467 -0.4820  0.3412  0.6689
  141MOL0     H18998  11.317   9.913   5.385  2.3506 -0.2105 -0.9467
  141MOL0     H18999  11.610  10.234   5.184 -0.6018 -2.2249 -1.0671
  141MOL0     H19000  11.661  10.235   5.351  0.5184 -0.9540  1.2284
  141MOL0     H19001  11.756   9.995   5.286  2.3952  0.0096 -0.7694
  141MOL0     H19002  11.708  10.056   5.120 -0.1150 -0.0016 -0.5036
  141MOL0     H19003  11.863  10.238   5.152  1.2747  1.9340  2.1559
  141MOL0     H19004  11.913  10.186   5.312  0.9897  1.5973 -0.5275
  141MOL0     H19005  11.951  10.015   5.051  0.2027 -1.2261 -0.8042
  141MOL0     H19006  11.994   9.955   5.210 -0.8033 -1.5707 -1.5412
  141MOL0     H19007  12.142  10.183   5.219 -1.8765 -0.6196  0.2755
  141MOL0     H19008  12.112  10.166   5.042  0.5539  0.7798 -0.6551
  141MOL0     H19009  12.195   9.949   5.034 -2.1477  1.9558 -0.8044
  141MOL0     H19010  12.326  10.053   5.080 -1.2109  0.8036 -1.4658
  141MOL0     H19011  12.189   9.844   5.254 -1.2166  0.8002 -1.3186
  141MOL0     H19012  12.269   9.974   5.336  0.2735  1.0040 -0.1959
  141MOL0     H19013  12.374   9.794   5.116  0.9464 -2.1126 -0.4661
  141MOL0     H19014  12.485   9.913   5.182 -2.2109  1.0240 -0.2384
  141MOL0     H19015  11.460  10.330   5.405 -0.7501 -0.1682 -1.3140
  141MOL0     H19016  11.258  10.401   5.482  2.3487  0.7537 -1.9276
  141MOL0     H19017  10.776  10.255   5.428 -1.1656 -0.4371 -1.0059
  141MOL0     H19018  10.550  10.353   5.441 -1.2479  2.7752 -0.5760
  141MOL0     H19019   8.620  10.442   4.896  0.0584  0.0358  0.0979
  141MOL0     H19020   8.394  10.513   4.964  0.1543  0.1970 -1.0911
  141MOL0     H19021   8.070  10.676   5.012  0.1584  0.1592  0.2289
  141MOL0     H19022   7.831  10.702   5.066  1.2196  0.1074 -1.7097
  141MOL0     H19023   7.716  10.645   5.515 -0.2682 -2.5730  1.9266
  141MOL0     H19024   7.692  10.496   5.431  0.2714  0.6010 -2.4329
  141MOL0     H19025   7.518  10.750   5.458 -0.1683 -0.3395 -0.7379
  141MOL0     H19026   7.498  10.588   5.522 -0.3536  1.5664  0.8784
  141MOL0     H19027   7.500  10.637   5.221 -0.9308  1.4539  0.1465
  141MOL0     H19028   7.365  10.698   5.317  2.0550  3.1167 -0.2373
  141MOL0     H19029   7.379  10.444   5.425 -0.7771 -0.3694 -0.1686
  141MOL0     H19030   7.272  10.501   5.306 -0.6570 -1.9558  0.9305
  141MOL0     H19031   7.527  10.265   5.062 -1.1377  1.6869 -0.5004
  141MOL0     H19032   7.923  10.605   5.483  1.2263  0.2084  0.3129
  141MOL0     H19033   8.179  10.512   5.506 -0.5872  0.1536  0.7445
  141MOL0     H19034   8.264  10.676   5.462 -1.7742  2.8047 -0.9083
  141MOL0     H19035   8.129  10.662   5.565 -1.6548 -0.9822 -0.0916
  142MOL0     O19036   8.113   6.658  10.761  0.1866  0.3745 -0.2200
  142MOL0     C19037   8.098   6.536  10.793  0.7395  1.3693 -0.0547
  142MOL0     O19038   7.984   6.467  10.771  0.1595  0.1469 -1.0188
  142MOL0     C19039   7.870   6.541  10.736 -0.4174  0.5463  1.1466
  142MOL0     C19040   7.850   6.570  10.604 -0.2124 -0.6522 -0.5912
  142MOL0     C19041   7.736   6.643  10.569  0.5663 -0.2386  0.2730
  142MOL0     C19042   7.645   6.697  10.660  0.5116  0.3665 -0.1359
  142MOL0     O19043   7.541   6.774  10.611  0.8595  0.4070 -0.0529
  142MOL0     C19044   7.505   6.879  10.696 -0.4816 -0.5021 -0.1482
  142MOL0     C19045   7.451   6.990  10.602 -0.0500 -0.1265 -0.5268
  142MOL0     C19046   7.310   6.946  10.560 -0.4947 -0.3833  0.0260
  142MOL0     C19047   7.241   7.045  10.472  0.1004  0.5830 -0.0836
  142MOL0     C19048   7.208   7.175  10.547  0.3325  0.5312  0.0323
  142MOL0     C19049   7.118   7.268  10.465  0.0517  0.4971  0.4326
  142MOL0     C19050   7.066   7.385  10.543  1.1947  0.3100 -0.0399
  142MOL0     C19051   6.952   7.465  10.469 -0.0324 -1.1252  0.2668
  142MOL0     N19052   7.015   7.569  10.377  0.0150 -0.1425 -0.4990
  142MOL0     C19053   7.049   7.695  10.423  0.5982 -0.1601 -0.4210
  142MOL0     C19054   7.103   7.755  10.312 -0.3583  0.1370 -0.1044
  142MOL0     C19055   7.150   7.903  10.309 -0.2801  0.3377 -0.0070
  142MOL0     C19056   7.227   7.960  10.426  0.1076  0.4126  0.3049
  142MOL0     C19057   7.239   8.109  10.432 -0.1430 -0.0740 -0.5450
  142MOL0     C19058   7.293   8.169  10.303 -0.4723  0.2572 -0.2162
  142MOL0     O19059   7.343   8.297  10.343 -0.1289 -0.6190  0.5417
  142MOL0     C19060   7.470   8.313  10.367 -0.1990  0.6844 -0.0144
  142MOL0     C19061   7.504   8.428  10.429  0.0984 -0.5403  0.4534
  142MOL0     C19062   7.631   8.452  10.461 -0.4643 -0.0740 -0.1551
  142MOL0     C19063   7.734   8.362  10.423 -0.0112 -0.5474  0.3340
  142MOL0     C19064   7.870   8.386  10.449 -0.0929 -1.2246 -0.3226
  142MOL0     O19065   7.956   8.309  10.377 -0.3998 -1.0983 -0.4478
  142MOL0     C19066   8.090   8.300  10.409 -0.0252  0.7154  0.2305
  142MOL0     C19067   8.179   8.247  10.310  0.8768 -0.5481 -0.1496
  142MOL0     C19068   8.309   8.231  10.343 -0.0831 -0.6350  0.5843
  142MOL0     C19069   8.364   8.260  10.466 -0.7319 -0.5811  0.2252
  142MOL0     O19070   8.500   8.268  10.498  0.5903 -0.4783  1.0551
  142MOL0     C19071   8.593   8.186  10.428  0.7470  0.0982 -0.3349
  142MOL0     C19072   8.708   8.185  10.528  0.5298 -0.1265 -0.3125
  142MOL0     C19073   8.834   8.110  10.480  0.9593 -0.1216 -0.0741
  142MOL0     C19074   8.953   8.158  10.565 -0.5688  0.1294  0.3350
  142MOL0     C19075   9.080   8.071  10.548  0.4821  1.0088  0.6759
  142MOL0     C19076   9.206   8.148  10.600 -0.1823 -0.0997 -0.5236
  142MOL0     C19077   9.328   8.067  10.579  0.4040  0.0942  0.1248
  142MOL0     C19078   9.390   8.071  10.434 -0.5188  0.4032  0.0022
  142MOL0    Cl19079   9.464   8.225  10.379 -0.3534 -0.1217  0.0966
  142MOL0     C19080   8.280   8.317  10.558  0.7188  0.1203 -0.5506
  142MOL0     C19081   8.143   8.332  10.537 -0.2805 -1.0628  0.8317
  142MOL0     O19082   7.892   8.486  10.518  0.2514  0.4113 -0.0086
  142MOL0     C19083   7.696   8.237  10.362  0.3069  0.8897  0.1974
  142MOL0     C19084   7.567   8.212  10.329 -0.1542 -0.4287 -0.1761
  142MOL0     N19085   7.098   7.671  10.207 -0.3708  0.3697 -0.3541
  142MOL0     N19086   7.049   7.562  10.248  0.0851  0.3981 -0.0200
  142MOL0     C19087   7.674   6.673  10.801  0.9715 -0.2066  0.5005
  142MOL0     C19088   7.783   6.593  10.835 -0.1716 -1.1623 -0.3281
  142MOL0     C19089   8.202   6.458  10.862 -0.9661  0.0424  0.5303
  142MOL0     C19090   8.179   6.318  10.888 -0.0988 -0.7125 -0.1877
  142MOL0     C19091   8.276   6.235  10.942 -0.3908  0.0951 -0.4140
  142MOL0     C19092   8.398   6.288  10.966  0.3747 -0.0296 -0.2711
  142MOL0     O19093   8.505   6.219  11.008  0.0333 -0.7312 -0.1732
  142MOL0     C19094   8.556   6.118  10.914  1.1038  0.0186 -0.1253
  142MOL0     C19095   8.696   6.078  10.933 -0.1931 -0.2076  0.9598
  142MOL0     C19096   8.787   6.203  10.936 -0.9514 -0.0990  0.0938
  142MOL0     C19097   8.934   6.171  10.928  0.9659 -0.5329 -0.3432
  142MOL0     C19098   9.020   6.295  10.947  0.2900  0.4093  0.6342
  142MOL0     C19099   9.081   6.391  10.958 -0.1086 -0.1384 -0.8218
  142MOL0     C19100   8.420   6.418  10.962  0.2648 -1.6183 -0.0085
  142MOL0     C19101   8.328   6.510  10.909  0.6945  0.8384  0.0354
  142MOL0     C19102   8.374   6.650  10.887  0.1070  0.0014  0.1087
  142MOL0     H19103   7.908   6.525  10.525 -0.0079 -3.1695  0.8709
  142MOL0     H19104   7.725   6.648  10.461  0.7934 -0.1377  0.2546
  142MOL0     H19105   7.430   6.860  10.774  0.6271  0.5345  1.1985
  142MOL0     H19106   7.592   6.918  10.748  0.7225 -2.5802 -0.4956
  142MOL0     H19107   7.519   6.992  10.516  0.8856 -1.1671  0.1552
  142MOL0     H19108   7.464   7.080  10.662 -0.5237 -1.1917  1.2530
  142MOL0     H19109   7.252   6.921  10.649 -1.3083 -0.8671 -0.6307
  142MOL0     H19110   7.323   6.849  10.513  0.8346 -0.0530 -0.3108
  142MOL0     H19111   7.317   7.056  10.394 -0.0466 -1.5587 -0.5744
  142MOL0     H19112   7.150   7.007  10.426  0.9981 -0.0716 -1.3960
  142MOL0     H19113   7.152   7.163  10.641  0.8415  2.6395  0.6677
  142MOL0     H19114   7.296   7.235  10.570 -0.2601  1.6153 -0.4178
  142MOL0     H19115   7.170   7.294  10.372  0.4547 -0.9527  0.2187
  142MOL0     H19116   7.028   7.216  10.430  0.0190  1.4918 -1.0494
  142MOL0     H19117   7.145   7.459  10.564  0.0039  1.6327 -0.0962
  142MOL0     H19118   7.036   7.362  10.646 -0.7292 -0.4811 -0.7400
  142MOL0     H19119   6.882   7.404  10.411 -0.4011 -0.3953 -0.0750
  142MOL0     H19120   6.889   7.519  10.540  0.5699  0.6783 -0.5205
  142MOL0     H19121   7.027   7.739  10.520  3.8871  2.6079 -0.7152
  142MOL0     H19122   7.225   7.907  10.230  1.0923  4.1952  1.2753
  142MOL0     H19123   7.069   7.973  10.286 -0.6279  0.3259  1.1079
  142MOL0     H19124   7.178   7.940  10.522  2.4664 -0.8762  1.3197
  142MOL0     H19125   7.330   7.926  10.430  0.1522  0.4086 -0.7481
  142MOL0     H19126   7.297   8.140  10.519  1.3877 -5.3829  0.6797
  142MOL0     H19127   7.149   8.170  10.448 -0.2696  0.0319 -1.6078
  142MOL0     H19128   7.210   8.177  10.231 -0.4112  1.4279 -0.1702
  142MOL0     H19129   7.357   8.092  10.258 -1.9147 -1.8739  1.1944
  142MOL0     H19130   7.422   8.493  10.459  1.7854  1.2129  1.4616
  142MOL0     H19131   7.660   8.539  10.519 -1.3209 -1.8235  3.1144
  142MOL0     H19132   8.148   8.215  10.211  2.4418 -2.0680 -0.1832
  142MOL0     H19133   8.387   8.190  10.280  0.9663  1.8059  0.2100
  142MOL0     H19134   8.564   8.084  10.404 -2.2031  0.9863 -1.0479
  142MOL0     H19135   8.622   8.242  10.338  0.7287  0.2913 -0.2217
  142MOL0     H19136   8.733   8.287  10.560 -0.6024  0.3866 -1.0050
  142MOL0     H19137   8.667   8.139  10.619  0.9799  0.8884  0.4343
  142MOL0     H19138   8.825   8.005  10.510 -1.6707  0.4465  1.4942
  142MOL0     H19139   8.853   8.130  10.374  0.4750  0.1046 -0.1253
  142MOL0     H19140   8.933   8.152  10.673 -1.5991 -1.1717  0.0947
  142MOL0     H19141   8.972   8.264  10.548 -1.1279  0.4929  1.8367
  142MOL0     H19142   9.088   8.043  10.443 -0.3624 -2.0092  1.3390
  142MOL0     H19143   9.054   7.974  10.591 -1.3970  0.1718 -2.0398
  142MOL0     H19144   9.217   8.242  10.545  2.6019 -0.9583 -1.5903
  142MOL0     H19145   9.177   8.167  10.704  2.6306 -1.2331  0.5706
  142MOL0     H19146   9.313   7.963  10.607 -0.8623  0.4277  0.7728
  142MOL0     H19147   9.411   8.096  10.643 -0.0833 -1.7184  1.6463
  142MOL0     H19148   9.469   7.995  10.431 -1.2237 -0.3163 -0.9739
  142MOL0     H19149   9.322   8.048  10.351  0.9722  1.5199 -1.5961
  142MOL0     H19150   8.319   8.361  10.649 -0.5645  0.8036 -0.3028
  142MOL0     H19151   8.095   8.373  10.625  1.5552  0.7436  1.0473
  142MOL0     H19152   7.764   8.154  10.345  1.4226  2.1915 -2.3615
  142MOL0     H19153   7.549   8.113  10.288  1.9418  0.1922 -2.8840
  142MOL0     H19154   7.603   6.709  10.876  1.0726 -3.6011  2.4128
  142MOL0     H19155   7.809   6.571  10.938 -1.1886 -0.4478  0.1084
  142MOL0     H19156   8.089   6.264  10.859 -0.2481  0.8605 -3.0148
  142MOL0     H19157   8.245   6.133  10.963 -2.6904  1.0099  1.0267
  142MOL0     H19158   8.543   6.161  10.815  0.4097  0.4050  0.1244
  142MOL0     H19159   8.498   6.026  10.907  2.7344 -0.9355 -1.5996
  142MOL0     H19160   8.740   6.016  10.854 -4.7886 -0.1866 -2.0205
  142MOL0     H19161   8.713   6.010  11.017 -1.5794 -0.8413  0.7478
  142MOL0     H19162   8.763   6.265  11.023  0.0082 -0.3747  0.5653
  142MOL0     H19163   8.768   6.262  10.845 -1.5944 -0.0118  0.2808
  142MOL0     H19164   8.966   6.105  11.009  5.0634 -3.1590 -3.6538
  142MOL0     H19165   8.953   6.125  10.830  1.0952  1.3199 -1.2201
  142MOL0     H19166   9.142   6.478  10.970 -0.8133  0.4635 -1.4956
  142MOL0     H19167   8.519   6.454  10.985 -0.9247  2.9013 -1.0303
  142MOL0     H19168   8.310   6.733  10.919 -0.4599  0.3965 -1.8514
  142MOL0     H19169   8.469   6.668  10.937  1.3084 -0.7954 -1.7933
  142MOL0     H19170   8.375   6.657  10.778 -2.4270 -1.1028 -0.0724
  143MOL0     O19171   8.297   6.644   1.724 -0.0134 -0.1508 -0.0982
  143MOL0     C19172   8.263   6.719   1.820 -0.2524  0.7790  0.4700
  143MOL0     O19173   8.349   6.796   1.891 -0.0036  0.0138 -0.1908
  143MOL0     C19174   8.484   6.792   1.858 -0.2245 -0.2152 -0.1176
  143MOL0     C19175   8.541   6.915   1.859 -0.1010 -0.5822 -0.8179
  143MOL0     C19176   8.677   6.931   1.826 -0.0892  0.3794  0.1845
  143MOL0     C19177   8.753   6.826   1.774 -0.7728  0.2868  1.0708
  143MOL0     O19178   8.889   6.835   1.723 -0.3611  0.9759 -0.2548
  143MOL0     C19179   8.959   6.953   1.750 -0.0468 -0.8275  0.0294
  143MOL0     C19180   9.100   6.945   1.687  0.4150 -0.0145  0.6415
  143MOL0     C19181   9.196   6.890   1.795 -0.0286 -0.1685 -0.4578
  143MOL0     C19182   9.334   6.893   1.737 -0.2266  0.6236 -0.2742
  143MOL0     C19183   9.424   6.793   1.814  0.0073  0.1117 -0.3557
  143MOL0     C19184   9.558   6.771   1.746 -0.1543 -0.2490  0.3892
  143MOL0     C19185   9.664   6.710   1.842  0.2699 -1.1220 -0.2728
  143MOL0     C19186   9.614   6.594   1.927  0.7526  0.7556  0.7176
  143MOL0     N19187   9.697   6.571   2.048 -0.5415  0.1821  0.3159
  143MOL0     C19188   9.690   6.633   2.171 -0.1954 -0.1599  0.9729
  143MOL0     C19189   9.784   6.573   2.250 -0.2927 -0.5515 -0.0433
  143MOL0     C19190   9.814   6.612   2.392 -0.1240  0.1831  0.0157
  143MOL0     C19191   9.726   6.535   2.495 -0.0886  0.0156 -1.0367
  143MOL0     C19192   9.805   6.428   2.571 -0.8914  0.2000  0.0448
  143MOL0     C19193   9.878   6.321   2.481  0.4688  0.2592  0.9865
  143MOL0     O19194   9.952   6.238   2.562 -0.3717 -0.2554 -0.1210
  143MOL0     C19195  10.084   6.234   2.556 -0.7752 -0.0498  0.1088
  143MOL0     C19196  10.165   6.343   2.515 -0.1251 -0.2498  1.0905
  143MOL0     C19197  10.310   6.329   2.497 -0.1532  0.7858  0.2440
  143MOL0     C19198  10.365   6.200   2.523 -0.4983  1.1089 -0.2271
  143MOL0     C19199  10.512   6.178   2.503 -0.3754  0.2598 -0.5344
  143MOL0     O19200  10.573   6.066   2.548 -0.3985 -0.4520 -0.4550
  143MOL0     C19201  10.701   6.047   2.498 -0.7626  0.6826 -1.1793
  143MOL0     C19202  10.821   6.071   2.572  0.8728 -0.3187  0.0767
  143MOL0     C19203  10.947   6.052   2.516  0.8274 -0.4906 -0.2671
  143MOL0     C19204  10.962   5.999   2.385 -0.7960 -1.5458 -0.4415
  143MOL0     O19205  11.079   5.967   2.327 -0.2756 -0.2992  0.0904
  143MOL0     C19206  11.192   5.939   2.413  0.6085  0.6293  0.1449
  143MOL0     C19207  11.319   5.925   2.335  0.2344  0.2029 -0.1174
  143MOL0     C19208  11.439   5.890   2.425 -0.0569  0.4925  0.1748
  143MOL0     C19209  11.572   5.956   2.388 -0.0040 -0.2677 -0.6158
  143MOL0     C19210  11.672   5.950   2.502  0.3657  0.1495 -0.4877
  143MOL0     C19211  11.818   5.993   2.459 -0.3062  0.9083  0.0648
  143MOL0     C19212  11.909   5.955   2.571  0.1529 -1.0222 -0.1329
  143MOL0     C19213  12.054   5.988   2.550 -0.5923 -0.6267 -0.1460
  143MOL0    Cl19214  12.139   5.874   2.429 -0.1232 -0.0580  1.0010
  143MOL0     C19215  10.841   5.987   2.309  0.6621 -0.4070 -1.0773
  143MOL0     C19216  10.714   6.007   2.363 -1.0581  0.0702 -0.5590
  143MOL0     O19217  10.570   6.272   2.442 -0.5831 -0.0500 -0.3677
  143MOL0     C19218  10.289   6.105   2.585  0.4619  0.8163  0.0299
  143MOL0     C19219  10.152   6.122   2.600 -0.0387 -0.1217 -0.4445
  143MOL0     N19220   9.862   6.495   2.166 -0.6086  0.0421 -0.1989
  143MOL0     N19221   9.812   6.497   2.051  0.2364  0.4474  0.2873
  143MOL0     C19222   8.699   6.700   1.777 -0.2178  0.7613 -0.1640
  143MOL0     C19223   8.568   6.676   1.821 -0.1024 -0.6870 -0.5939
  143MOL0     C19224   8.124   6.717   1.872  0.1757  0.6994  0.8021
  143MOL0     C19225   8.090   6.814   1.963  0.5020  0.4768  1.0768
  143MOL0     C19226   7.959   6.824   2.011  0.2630 -0.0029  0.3705
  143MOL0     C19227   7.860   6.741   1.965 -0.5277  0.4915 -0.3748
  143MOL0     O19228   7.730   6.759   2.003 -0.0807  0.5284  0.3780
  143MOL0     C19229   7.688   6.848   2.106  0.0633 -0.3575  1.0306
  143MOL0     C19230   7.635   6.970   2.046 -0.0625  0.8703  0.6160
  143MOL0     C19231   7.498   6.949   1.990  0.2625  0.1066  0.1684
  143MOL0     C19232   7.419   7.078   1.979  0.9227 -1.0202 -0.3797
  143MOL0     C19233   7.281   7.060   1.926  0.0567 -0.6928 -0.6927
  143MOL0     C19234   7.168   7.033   1.882 -0.4166 -0.3028 -0.7492
  143MOL0     C19235   7.889   6.643   1.872 -0.7922  0.1970  0.6136
  143MOL0     C19236   8.020   6.626   1.829  0.2296 -0.2833 -0.6418
  143MOL0     C19237   8.052   6.504   1.744  0.0866  0.0872  0.5279
  143MOL0     H19238   8.474   6.998   1.880 -1.0250 -1.4040 -0.4031
  143MOL0     H19239   8.725   7.028   1.814  0.9697 -0.0195  0.9447
  143MOL0     H19240   8.907   7.038   1.704  1.4273  0.2129  0.2297
  143MOL0     H19241   8.958   6.963   1.859 -0.9506  0.6629 -0.0800
  143MOL0     H19242   9.132   7.046   1.659 -1.4142  0.8644  1.5458
  143MOL0     H19243   9.092   6.879   1.600  0.9080 -1.9389  1.9757
  143MOL0     H19244   9.174   6.783   1.810  2.1081 -0.4813  0.7880
  143MOL0     H19245   9.191   6.940   1.892  1.3927 -0.2081 -0.3526
  143MOL0     H19246   9.329   6.859   1.634  0.4347 -2.0340  0.4831
  143MOL0     H19247   9.382   6.991   1.741 -1.4317  1.6246 -4.7351
  143MOL0     H19248   9.437   6.828   1.917  2.7632 -1.9765  0.1366
  143MOL0     H19249   9.370   6.697   1.815  0.3565 -0.1249  2.0339
  143MOL0     H19250   9.532   6.711   1.659 -3.1175 -0.0307  1.0217
  143MOL0     H19251   9.595   6.867   1.710  1.1115 -0.2063  1.6960
  143MOL0     H19252   9.697   6.785   1.914  0.3574 -0.6186 -0.8357
  143MOL0     H19253   9.744   6.673   1.777  0.6097 -1.1348  0.1494
  143MOL0     H19254   9.511   6.607   1.961 -0.6698 -1.4744 -2.2192
  143MOL0     H19255   9.612   6.505   1.863  3.2562  0.8829  0.3572
  143MOL0     H19256   9.614   6.702   2.208 -0.1703  0.8380 -0.7666
  143MOL0     H19257   9.921   6.610   2.417 -0.1373 -1.2513  0.0477
  143MOL0     H19258   9.777   6.714   2.393 -4.0955 -1.0648 -1.4808
  143MOL0     H19259   9.697   6.619   2.558 -2.7551 -0.6546 -1.2093
  143MOL0     H19260   9.635   6.492   2.451  0.3728 -0.8691 -1.1502
  143MOL0     H19261   9.744   6.360   2.632 -0.2766 -2.8405 -2.4844
  143MOL0     H19262   9.882   6.477   2.631 -1.1776  1.6685 -0.7512
  143MOL0     H19263   9.932   6.358   2.394 -0.5185 -0.9132 -0.1671
  143MOL0     H19264   9.798   6.260   2.437 -0.4908  2.1875 -0.0859
  143MOL0     H19265  10.121   6.440   2.492  0.3572  0.1261  1.7152
  143MOL0     H19266  10.375   6.408   2.461  1.6873 -1.6886 -2.3651
  143MOL0     H19267  10.810   6.117   2.669 -1.7696 -1.2646  0.2977
  143MOL0     H19268  11.029   6.075   2.583  1.8734 -0.9050 -1.3718
  143MOL0     H19269  11.204   6.024   2.481  0.9494  1.1086 -0.5021
  143MOL0     H19270  11.183   5.845   2.467 -0.6922 -0.5105 -1.9383
  143MOL0     H19271  11.301   5.844   2.263 -3.2213  1.1730 -0.5270
  143MOL0     H19272  11.330   6.018   2.278 -0.5268  1.2718  1.4240
  143MOL0     H19273  11.419   5.922   2.528 -1.8487  2.9400 -0.8269
  143MOL0     H19274  11.447   5.781   2.423 -2.7382  0.2076 -3.2086
  143MOL0     H19275  11.552   6.063   2.376  2.1779  0.7391  3.1628
  143MOL0     H19276  11.608   5.915   2.293  2.6188  3.1742 -1.2873
  143MOL0     H19277  11.668   5.845   2.533 -2.0968 -0.7060 -3.2029
  143MOL0     H19278  11.638   6.017   2.582  2.5070 -0.3604  0.9094
  143MOL0     H19279  11.843   5.926   2.375  0.4162 -0.1783  1.1112
  143MOL0     H19280  11.824   6.100   2.437  0.4640  2.2799  5.4994
  143MOL0     H19281  11.909   5.848   2.592  0.9826 -0.5070  2.9601
  143MOL0     H19282  11.884   6.011   2.662  1.5804 -0.8866  0.1929
  143MOL0     H19283  12.071   6.088   2.509  3.8226 -1.4359 -0.7512
  143MOL0     H19284  12.109   5.987   2.644 -2.4176 -0.8110  0.9659
  143MOL0     H19285  10.855   5.961   2.204  0.3995 -0.5192 -1.0856
  143MOL0     H19286  10.628   5.995   2.299  1.3043 -0.5615 -3.8935
  143MOL0     H19287  10.320   6.010   2.626 -1.5458 -0.2394 -0.7917
  143MOL0     H19288  10.093   6.035   2.623  1.0693 -1.1422 -1.3109
  143MOL0     H19289   8.758   6.615   1.743 -0.0917  0.1803  1.4047
  143MOL0     H19290   8.524   6.578   1.816 -1.3188 -0.1772 -0.2291
  143MOL0     H19291   8.164   6.884   2.002  0.8322  1.0263 -0.4527
  143MOL0     H19292   7.942   6.908   2.079 -1.8493 -0.0258 -0.0925
  143MOL0     H19293   7.753   6.870   2.191 -0.5964  3.2521  0.7736
  143MOL0     H19294   7.611   6.785   2.151 -1.1879  1.1965  1.1576
  143MOL0     H19295   7.707   7.009   1.974 -2.6609  2.5430 -1.2746
  143MOL0     H19296   7.620   7.043   2.127 -3.3588  0.2830  0.7052
  143MOL0     H19297   7.444   6.875   2.049  1.7030 -2.4098 -1.5028
  143MOL0     H19298   7.514   6.908   1.890  0.4481 -0.6136  0.4898
  143MOL0     H19299   7.416   7.135   2.072 -0.2445  0.2989 -1.1716
  143MOL0     H19300   7.458   7.157   1.913 -0.5391  1.5557  1.6304
  143MOL0     H19301   7.082   6.997   1.830  0.3128 -0.3603 -1.9427
  143MOL0     H19302   7.809   6.570   1.857  1.6838 -2.8726  1.2872
  143MOL0     H19303   8.091   6.531   1.645  1.6710  1.0300  1.3691
  143MOL0     H19304   8.126   6.443   1.795  0.3583 -0.2199 -0.2095
  143MOL0     H19305   7.960   6.445   1.739 -0.1263  0.4247  0.3834
  144MOL0     O19306   3.836  10.849   3.908  0.3396 -0.6821  0.0211
  144MOL0     C19307   3.766  10.915   3.826  0.6523  0.9926  0.7530
  144MOL0     O19308   3.809  10.963   3.706  0.2452  0.0570  0.7572
  144MOL0     C19309   3.938  10.957   3.679  0.5978  0.1437 -0.2533
  144MOL0     C19310   3.991  10.837   3.613 -0.5600 -0.2596  0.2816
  144MOL0     C19311   4.128  10.839   3.579 -0.0276  0.5313 -0.1260
  144MOL0     C19312   4.213  10.950   3.602  0.4405 -0.7571 -0.2183
  144MOL0     O19313   4.346  10.943   3.563  0.7500 -0.4893  0.1680
  144MOL0     C19314   4.443  11.031   3.621  0.0777  0.2530 -0.8047
  144MOL0     C19315   4.580  10.982   3.581 -0.4587  0.0388 -0.6515
  144MOL0     C19316   4.691  11.076   3.628  0.2942  0.5041  0.5882
  144MOL0     C19317   4.828  11.021   3.579 -0.6566 -0.9874  0.1951
  144MOL0     C19318   4.952  11.111   3.603  0.2118 -0.2796 -0.4750
  144MOL0     C19319   5.068  11.037   3.540 -0.1017  0.2888 -0.0160
  144MOL0     C19320   5.187  11.135   3.535  0.3736 -0.7615 -0.1500
  144MOL0     C19321   5.323  11.064   3.545  0.2733 -0.2666 -0.2019
  144MOL0     N19322   5.440  11.151   3.537 -1.0378  0.4877  0.6614
  144MOL0     C19323   5.499  11.191   3.416 -0.3885 -0.0557  0.2122
  144MOL0     C19324   5.600  11.266   3.449 -0.6493 -0.3999  0.2736
  144MOL0     C19325   5.684  11.345   3.365  0.4666 -0.0896  0.6779
  144MOL0     C19326   5.661  11.497   3.398  0.4723  0.4402 -0.3189
  144MOL0     C19327   5.739  11.594   3.304  0.6780  0.4903  0.3338
  144MOL0     C19328   5.889  11.590   3.314  0.2160 -0.2359  0.1456
  144MOL0     O19329   5.921  11.655   3.439  0.4864  0.0379  0.4697
  144MOL0     C19330   6.054  11.637   3.494  0.5482  0.5399 -0.6760
  144MOL0     C19331   6.084  11.711   3.616 -0.2828 -0.5785 -0.0619
  144MOL0     C19332   6.201  11.690   3.684  0.1375 -0.7224 -0.0560
  144MOL0     C19333   6.300  11.611   3.627 -0.6361 -0.3630  0.4491
  144MOL0     C19334   6.433  11.593   3.702 -0.0472 -0.4720 -0.1381
  144MOL0     O19335   6.527  11.532   3.622  0.1377 -1.3640 -0.0499
  144MOL0     C19336   6.650  11.510   3.678  0.1486  0.0513 -0.2083
  144MOL0     C19337   6.755  11.600   3.665 -0.6677 -0.7017  0.4062
  144MOL0     C19338   6.881  11.564   3.704  0.6105 -1.1396 -0.6004
  144MOL0     C19339   6.909  11.444   3.753 -0.3058  0.6440 -0.0362
  144MOL0     O19340   7.038  11.422   3.791  0.4508  0.5776 -0.6210
  144MOL0     C19341   7.070  11.294   3.844  0.5102 -0.9175  0.3649
  144MOL0     C19342   7.208  11.324   3.890 -0.5077 -1.0586 -0.2355
  144MOL0     C19343   7.263  11.191   3.953 -0.1054  0.4074  0.0572
  144MOL0     C19344   7.395  11.210   4.028  0.4816  0.5199 -0.5796
  144MOL0     C19345   7.507  11.130   3.964  0.3750  0.5118  0.2439
  144MOL0     C19346   7.632  11.121   4.048  0.6172  0.2386  0.4292
  144MOL0     C19347   7.741  11.015   4.006  0.4997  0.6250  0.3682
  144MOL0     C19348   7.795  11.056   3.874 -0.7456  0.5961  0.1379
  144MOL0    Cl19349   7.925  10.942   3.831 -0.0406 -0.6900  0.4751
  144MOL0     C19350   6.810  11.343   3.766  0.0999 -0.4790 -0.0264
  144MOL0     C19351   6.676  11.387   3.732 -0.2381 -0.4119 -0.7071
  144MOL0     O19352   6.443  11.617   3.819 -0.4082 -0.3127  0.1587
  144MOL0     C19353   6.284  11.565   3.499 -0.1294  0.9697  0.6539
  144MOL0     C19354   6.159  11.558   3.439 -0.4643  0.0177 -0.7174
  144MOL0     N19355   5.611  11.268   3.583  0.3226  0.5416  0.4366
  144MOL0     N19356   5.514  11.202   3.639  0.2888 -0.2745  0.2530
  144MOL0     C19357   4.156  11.063   3.666  0.4546  0.7529 -0.0592
  144MOL0     C19358   4.020  11.062   3.707 -0.5627  0.4511 -0.3881
  144MOL0     C19359   3.618  10.928   3.833 -0.5771  0.3228  0.1234
  144MOL0     C19360   3.545  10.960   3.719  0.7952  0.5482 -0.0568
  144MOL0     C19361   3.403  10.962   3.727  0.6788 -0.3992  0.7180
  144MOL0     C19362   3.340  10.945   3.845 -0.4158  0.0452 -0.4362
  144MOL0     O19363   3.201  10.959   3.849  0.2993 -0.2395 -0.1799
  144MOL0     C19364   3.113  10.961   3.971 -0.3088  0.2502  0.1174
  144MOL0     C19365   3.111  11.105   4.030 -0.9125  1.0080  0.2661
  144MOL0     C19366   3.091  11.209   3.925 -0.1859  0.2650  0.0651
  144MOL0     C19367   3.055  11.351   3.981  0.6287  0.3284 -0.6768
  144MOL0     C19368   2.922  11.348   4.043  0.7616 -0.3740 -0.9835
  144MOL0     C19369   2.826  11.344   4.118  0.2659  0.2531 -0.1570
  144MOL0     C19370   3.420  10.939   3.962 -0.3103 -0.0950 -0.3719
  144MOL0     C19371   3.556  10.928   3.959 -0.2963  0.1692 -0.4420
  144MOL0     C19372   3.623  10.918   4.089  0.1154 -0.0984  0.4494
  144MOL0     H19373   3.923  10.753   3.599 -1.3839  0.3361  0.6410
  144MOL0     H19374   4.172  10.753   3.529 -1.7971 -0.8739  0.5958
  144MOL0     H19375   4.429  11.132   3.582 -2.4575  1.0454  1.7605
  144MOL0     H19376   4.427  11.027   3.729  1.9154  0.1390 -0.5190
  144MOL0     H19377   4.586  10.987   3.472 -0.9332  0.7312 -0.6540
  144MOL0     H19378   4.604  10.882   3.619 -2.3549 -0.4855 -0.7477
  144MOL0     H19379   4.696  11.077   3.737  0.0753 -0.2708  0.6081
  144MOL0     H19380   4.679  11.177   3.588  0.3496 -0.3334 -1.6840
  144MOL0     H19381   4.836  10.918   3.616  1.2151 -0.2209  2.1511
  144MOL0     H19382   4.821  11.013   3.471 -2.8375  0.0217  0.1947
  144MOL0     H19383   4.948  11.211   3.558 -1.7425 -0.7732 -1.4879
  144MOL0     H19384   4.951  11.121   3.712 -1.8722  1.7791 -0.6066
  144MOL0     H19385   5.088  10.949   3.602  0.7228  0.5432  0.0966
  144MOL0     H19386   5.056  11.004   3.437  1.2453 -1.7089  0.4082
  144MOL0     H19387   5.175  11.212   3.612 -0.4175  0.0314 -1.0428
  144MOL0     H19388   5.182  11.183   3.437  1.5973 -0.9628 -0.3238
  144MOL0     H19389   5.331  11.025   3.647  0.1397  4.9296  2.0760
  144MOL0     H19390   5.335  10.989   3.465  1.6941 -0.0118 -0.2619
  144MOL0     H19391   5.456  11.174   3.318  0.5730  1.8287 -0.6043
  144MOL0     H19392   5.790  11.326   3.387  0.4725 -1.1403 -0.1447
  144MOL0     H19393   5.663  11.316   3.261 -0.2389  0.9694  0.4993
  144MOL0     H19394   5.556  11.522   3.386  0.3249  0.0793  0.1853
  144MOL0     H19395   5.684  11.503   3.505 -2.1627  0.1601  0.3276
  144MOL0     H19396   5.709  11.698   3.322  1.0063  0.8073 -0.8852
  144MOL0     H19397   5.706  11.579   3.201 -0.4830  0.3853  0.7061
  144MOL0     H19398   5.929  11.638   3.225 -1.5674 -3.2845 -2.5169
  144MOL0     H19399   5.925  11.487   3.315  1.6093  0.2323  0.8362
  144MOL0     H19400   6.005  11.770   3.662  1.2226  1.7452 -0.2977
  144MOL0     H19401   6.215  11.737   3.781  1.4152 -0.6226 -0.2713
  144MOL0     H19402   6.734  11.693   3.613  0.2894  0.3363  1.8234
  144MOL0     H19403   6.969  11.626   3.692 -1.3272  1.5397 -1.8343
  144MOL0     H19404   7.008  11.271   3.932  0.6075  0.7487  0.9133
  144MOL0     H19405   7.051  11.218   3.768 -1.3253 -0.3157  0.1607
  144MOL0     H19406   7.264  11.369   3.808 -1.9378  1.2618 -0.0364
  144MOL0     H19407   7.198  11.393   3.975  0.4227 -1.5932  0.3179
  144MOL0     H19408   7.188  11.153   4.023 -1.6628  1.5533 -0.9330
  144MOL0     H19409   7.280  11.121   3.870  0.1536 -0.0141  0.4646
  144MOL0     H19410   7.382  11.182   4.133  3.0703  1.8889  0.1956
  144MOL0     H19411   7.418  11.317   4.028 -0.0952  0.7171 -3.4814
  144MOL0     H19412   7.523  11.176   3.866 -1.2041  2.2920  0.7659
  144MOL0     H19413   7.474  11.027   3.943  0.0707  0.7321 -0.3929
  144MOL0     H19414   7.671  11.223   4.055 -0.2458  0.6515 -0.5937
  144MOL0     H19415   7.587  11.100   4.146  0.8054  2.0211  0.9180
  144MOL0     H19416   7.687  10.920   4.010  0.3095  0.6964 -0.3526
  144MOL0     H19417   7.817  11.027   4.084 -1.2127  2.5219  1.8613
  144MOL0     H19418   7.714  11.064   3.802 -2.8304 -0.2947  2.2564
  144MOL0     H19419   7.839  11.156   3.883 -0.9596  0.6836  0.2072
  144MOL0     H19420   6.830  11.237   3.782  0.6456 -0.0744  2.3560
  144MOL0     H19421   6.596  11.315   3.748  0.9367 -1.6543 -0.1435
  144MOL0     H19422   6.361  11.502   3.456 -1.4100  0.0637 -0.3878
  144MOL0     H19423   6.154  11.509   3.342 -1.7721 -1.3556  0.0055
  144MOL0     H19424   4.213  11.156   3.667 -2.5321  2.7481 -1.4336
  144MOL0     H19425   3.975  11.155   3.739  0.1354  1.2707 -1.6869
  144MOL0     H19426   3.589  10.985   3.623 -0.1262  0.3640 -0.5390
  144MOL0     H19427   3.349  10.993   3.638  2.5847 -0.0718 -0.3713
  144MOL0     H19428   3.154  10.895   4.048 -0.0850 -0.9917 -1.0337
  144MOL0     H19429   3.011  10.935   3.942 -0.3157  0.1609  0.2219
  144MOL0     H19430   3.207  11.129   4.076 -0.6844 -1.0442  0.9760
  144MOL0     H19431   3.028  11.112   4.101  0.5596  1.6751  2.0055
  144MOL0     H19432   3.007  11.181   3.862 -0.5378  0.1242  0.5938
  144MOL0     H19433   3.178  11.222   3.860 -0.2551  0.5802  0.0317
  144MOL0     H19434   3.131  11.385   4.053  0.4204  1.1294 -0.8351
  144MOL0     H19435   3.055  11.424   3.900 -3.7199  1.5937  0.2310
  144MOL0     H19436   2.733  11.348   4.172  0.7114  1.0013  0.5855
  144MOL0     H19437   3.380  10.945   4.063  1.5834 -1.1852  0.4843
  144MOL0     H19438   3.708  10.985   4.105 -1.4274  1.7511  1.1327
  144MOL0     H19439   3.552  10.944   4.168 -0.1416 -2.2222  0.9965
  144MOL0     H19440   3.653  10.813   4.098 -0.3583 -0.3685 -0.9338
  145MOL0     O19441   9.391  10.299   9.745  0.7940  0.2899 -0.6093
  145MOL0     C19442   9.381  10.259   9.628 -0.0837 -0.3325 -0.4510
  145MOL0     O19443   9.492  10.222   9.554 -0.6571  0.6447  0.0854
  145MOL0     C19444   9.609  10.195   9.628 -0.2827 -0.5038 -0.2566
  145MOL0     C19445   9.710  10.281   9.602 -0.3292 -0.3889  0.0033
  145MOL0     C19446   9.840  10.264   9.652  0.8181  0.0120  0.3031
  145MOL0     C19447   9.863  10.158   9.740  0.0494  0.1118  0.0360
  145MOL0     O19448   9.990  10.161   9.790 -0.5178 -0.6691 -0.1382
  145MOL0     C19449  10.017  10.083   9.910 -0.2732 -0.6273  0.3865
  145MOL0     C19450  10.159  10.102   9.948 -0.4404 -0.3318 -0.5947
  145MOL0     C19451  10.273  10.052   9.846  0.6301  0.8247  0.0637
  145MOL0     C19452  10.407  10.083   9.901  0.0918  0.2178  0.5476
  145MOL0     C19453  10.521  10.030   9.803  0.3796 -0.4177  0.4264
  145MOL0     C19454  10.670  10.064   9.857  0.7935  0.7488  0.2147
  145MOL0     C19455  10.690  10.217   9.846  0.5472 -0.0173  0.5914
  145MOL0     C19456  10.830  10.249   9.877  0.2716  0.0048 -0.4330
  145MOL0     N19457  10.854  10.390   9.850 -0.8278 -0.5166 -0.1435
  145MOL0     C19458  10.876  10.486   9.942  0.6450 -0.3628  0.0151
  145MOL0     C19459  10.938  10.592   9.874  0.1168  0.5837  0.2965
  145MOL0     C19460  10.986  10.722   9.929  0.1359  0.0505 -0.2933
  145MOL0     C19461  11.138  10.733   9.903  0.8887  0.4659 -0.5513
  145MOL0     C19462  11.221  10.623   9.964  0.1463  1.3871 -0.1360
  145MOL0     C19463  11.366  10.641   9.939 -0.8024 -0.3752 -0.0321
  145MOL0     O19464  11.427  10.526   9.990 -0.1749  0.1571 -0.0036
  145MOL0     C19465  11.570  10.505   9.974  0.4930  0.2164  1.0161
  145MOL0     C19466  11.653  10.603   9.928 -0.7629  0.2655 -0.9380
  145MOL0     C19467  11.794  10.598   9.941  0.7098 -0.4280  0.6743
  145MOL0     C19468  11.854  10.481   9.980  0.0377  0.4923  0.4160
  145MOL0     C19469  12.002  10.465   9.974 -0.0942 -0.2156 -0.9680
  145MOL0     O19470  12.076  10.581   9.975  0.3076 -0.0080 -0.8102
  145MOL0     C19471  12.210  10.577   9.985 -0.4234  0.4835  0.5916
  145MOL0     C19472  12.277  10.664   9.904  0.4022 -0.1423 -0.1725
  145MOL0     C19473  12.416  10.660   9.886  0.0250  0.4167  0.2578
  145MOL0     C19474  12.502  10.581   9.963  0.6317  0.4226 -0.2168
  145MOL0     O19475  12.635  10.591   9.941 -0.9115 -0.7813 -0.2661
  145MOL0     C19476  12.719  10.529  10.045  0.3755 -0.0235  1.3873
  145MOL0     C19477  12.706  10.611  10.175  0.1930  0.2784 -0.3499
  145MOL0     C19478  12.767  10.539  10.295 -1.5264 -0.6659  0.5009
  145MOL0     C19479  12.663  10.445  10.363 -0.3880  0.1208  0.7093
  145MOL0     C19480  12.533  10.511  10.421 -0.9249 -0.7801  0.3575
  145MOL0     C19481  12.447  10.413  10.496  0.8145  0.1674  0.1095
  145MOL0     C19482  12.339  10.485  10.588  0.6317  0.1834 -0.2156
  145MOL0     C19483  12.226  10.546  10.510 -0.3667  0.7449  0.1839
  145MOL0    Cl19484  12.116  10.635  10.607  0.5799 -0.1334 -0.1893
  145MOL0     C19485  12.436  10.494  10.055  0.4793 -0.6358  0.6483
  145MOL0     C19486  12.293  10.496  10.061 -0.2393 -0.2361  0.4334
  145MOL0     O19487  12.048  10.354   9.976  0.3851 -0.5628  0.0932
  145MOL0     C19488  11.764  10.377  10.011  0.7124  0.1353  0.2560
  145MOL0     C19489  11.623  10.382  10.005 -0.5298 -0.2626  0.7610
  145MOL0     N19490  10.945  10.549   9.745 -0.4467 -0.7049  0.2347
  145MOL0     N19491  10.895  10.436   9.727 -0.6585 -0.0581  0.0168
  145MOL0     C19492   9.759  10.070   9.779  0.1298 -0.0833 -1.0773
  145MOL0     C19493   9.638  10.094   9.716 -0.0930  0.5406  0.0885
  145MOL0     C19494   9.249  10.267   9.559  0.1868  0.6745  0.4593
  145MOL0     C19495   9.232  10.192   9.443  1.3667 -0.1623  0.4286
  145MOL0     C19496   9.117  10.211   9.363 -0.8456  0.2188  0.1078
  145MOL0     C19497   9.021  10.306   9.397 -0.1682  0.2546  0.3988
  145MOL0     O19498   8.913  10.314   9.309  0.2190 -0.1148 -0.7194
  145MOL0     C19499   8.856  10.447   9.309 -0.1920  0.0830 -0.1281
  145MOL0     C19500   8.730  10.449   9.227 -0.2795 -0.4649 -0.4796
  145MOL0     C19501   8.618  10.348   9.276 -0.8328 -0.4930 -0.1187
  145MOL0     C19502   8.509  10.368   9.174 -0.2542  0.4901  0.4791
  145MOL0     C19503   8.392  10.298   9.229  0.1171  0.0512 -0.9370
  145MOL0     C19504   8.304  10.225   9.278  0.2777 -0.2154 -0.4669
  145MOL0     C19505   9.027  10.378   9.514  0.7331  0.5265  0.2447
  145MOL0     C19506   9.141  10.354   9.595 -0.4257 -1.1500 -0.4483
  145MOL0     C19507   9.158  10.439   9.716  0.5177  0.1832  0.4667
  145MOL0     H19508   9.688  10.364   9.535 -0.5926  1.2304  1.9995
  145MOL0     H19509   9.920  10.335   9.635 -1.8652  2.9418 -1.3271
  145MOL0     H19510   9.958  10.118   9.995 -0.9607 -0.7937 -0.0112
  145MOL0     H19511  10.003   9.977   9.886  3.5191 -0.9995 -0.9395
  145MOL0     H19512  10.167  10.055  10.047 -0.4902  3.8779  1.6202
  145MOL0     H19513  10.168  10.208   9.971 -1.8493 -0.0870 -1.0401
  145MOL0     H19514  10.257  10.102   9.750 -2.6469 -1.2986 -0.6438
  145MOL0     H19515  10.251   9.948   9.823 -0.0559  0.4581  2.1393
  145MOL0     H19516  10.403  10.192   9.912 -0.3836  0.3467 -0.6811
  145MOL0     H19517  10.420  10.036   9.999  0.0002 -0.4792  0.2334
  145MOL0     H19518  10.509   9.921   9.799 -4.9568 -0.1192  0.6679
  145MOL0     H19519  10.509  10.073   9.703 -1.4104  1.8583  1.5243
  145MOL0     H19520  10.680  10.018   9.956 -2.0864 -2.2048 -0.6836
  145MOL0     H19521  10.732  10.015   9.781  0.2090 -1.0113  0.8342
  145MOL0     H19522  10.624  10.277   9.909  1.3305 -0.1648  1.5748
  145MOL0     H19523  10.666  10.237   9.741  0.5126 -0.2629  0.5512
  145MOL0     H19524  10.853  10.226   9.981  2.4015  0.2088 -0.8055
  145MOL0     H19525  10.905  10.191   9.822 -1.5994  0.3464 -3.5921
  145MOL0     H19526  10.842  10.495  10.044 -1.9085  2.7203 -0.9442
  145MOL0     H19527  10.930  10.806   9.887  1.7368  0.6221 -1.3530
  145MOL0     H19528  10.980  10.723  10.038 -1.8264  0.2034 -0.3678
  145MOL0     H19529  11.168  10.729   9.798 -0.5106  1.8219 -1.0296
  145MOL0     H19530  11.158  10.830   9.950 -1.8394  1.0261 -0.3846
  145MOL0     H19531  11.190  10.531   9.913 -1.9105  0.6409  2.2389
  145MOL0     H19532  11.202  10.612  10.071  0.2038  1.1638 -0.1475
  145MOL0     H19533  11.399  10.735   9.986 -0.6657  0.0465 -0.9420
  145MOL0     H19534  11.378  10.652   9.831 -0.4065 -0.1027  0.0361
  145MOL0     H19535  11.614  10.701   9.902 -0.6255  0.3914 -0.6727
  145MOL0     H19536  11.858  10.682   9.915  0.7891 -0.8493 -0.5609
  145MOL0     H19537  12.215  10.727   9.841 -1.8190 -2.1298 -0.1051
  145MOL0     H19538  12.460  10.741   9.828 -1.7620  1.6560  0.5781
  145MOL0     H19539  12.700  10.421  10.052  1.3001 -0.3688 -0.7322
  145MOL0     H19540  12.825  10.533  10.017 -0.4069  1.6862 -1.7609
  145MOL0     H19541  12.758  10.705  10.154 -0.5321  0.5703 -0.8743
  145MOL0     H19542  12.604  10.643  10.196 -1.0252 -2.0373 -2.2420
  145MOL0     H19543  12.858  10.486  10.265  0.9450  3.7886 -0.6774
  145MOL0     H19544  12.789  10.612  10.373 -2.8185 -1.6078  1.8075
  145MOL0     H19545  12.712  10.383  10.439 -0.5863  2.5809  3.0055
  145MOL0     H19546  12.645  10.374  10.282  1.8724 -0.5173  0.7039
  145MOL0     H19547  12.472  10.550  10.339  1.2948 -0.7220 -1.3595
  145MOL0     H19548  12.555  10.595  10.488  1.2041 -1.7670  0.9766
  145MOL0     H19549  12.395  10.354  10.420 -2.7697  0.3436  2.1894
  145MOL0     H19550  12.519  10.346  10.544  2.3640  1.6613 -0.0552
  145MOL0     H19551  12.390  10.562  10.647  2.0510  1.6037 -3.0806
  145MOL0     H19552  12.289  10.415  10.656 -0.5284 -0.0240 -1.2500
  145MOL0     H19553  12.266  10.612  10.432  1.2925 -0.2065  0.1901
  145MOL0     H19554  12.177  10.463  10.458 -1.5550  1.0887  0.7109
  145MOL0     H19555  12.499  10.444  10.128 -0.1490 -0.3525  1.3945
  145MOL0     H19556  12.249  10.432  10.137  1.1530  0.7689  2.1567
  145MOL0     H19557  11.814  10.283  10.031  2.4663  0.4514 -2.1310
  145MOL0     H19558  11.564  10.299  10.043  1.9286 -0.7383  3.8861
  145MOL0     H19559   9.775  10.006   9.865 -1.4737  0.7944 -0.0775
  145MOL0     H19560   9.558  10.028   9.747  0.3226  0.8331  1.8477
  145MOL0     H19561   9.302  10.119   9.404  1.3572  0.1438 -0.1681
  145MOL0     H19562   9.113  10.148   9.275  0.6675  2.3062 -1.5594
  145MOL0     H19563   8.933  10.518   9.277 -0.9761  0.6957 -0.6836
  145MOL0     H19564   8.821  10.465   9.411  0.4101  0.2989  0.0460
  145MOL0     H19565   8.745  10.416   9.124 -0.8489  0.8670 -1.0167
  145MOL0     H19566   8.690  10.551   9.227 -0.9156 -0.6053  2.8048
  145MOL0     H19567   8.574  10.373   9.373 -0.7213  2.1882 -0.6700
  145MOL0     H19568   8.650  10.244   9.285  1.7562  0.1777 -0.5921
  145MOL0     H19569   8.482  10.471   9.148 -1.1061  0.4734  1.2392
  145MOL0     H19570   8.544  10.309   9.089 -0.3319 -0.4719  1.1030
  145MOL0     H19571   8.232  10.169   9.334  0.8061  0.9127  1.4533
  145MOL0     H19572   8.957  10.455   9.546 -0.0414  0.8975 -2.1708
  145MOL0     H19573   9.176  10.377   9.805  0.3654  0.4816  0.7048
  145MOL0     H19574   9.242  10.507   9.701  1.4625 -0.7216  1.4680
  145MOL0     H19575   9.068  10.496   9.738 -0.3271 -0.5144 -1.0430
  146MOL0     O19576   9.914   9.449   4.511  0.4800  0.6964 -0.9312
  146MOL0     C19577   9.841   9.503   4.428  0.5372 -0.4141 -0.2685
  146MOL0     O19578   9.880   9.556   4.314 -0.6399  0.4854  0.1068
  146MOL0     C19579  10.009   9.559   4.276 -0.8317 -0.3926  0.5638
  146MOL0     C19580  10.040   9.553   4.135 -0.6767  0.0043 -0.5349
  146MOL0     C19581  10.179   9.555   4.099  0.3000 -0.6808 -0.1041
  146MOL0     C19582  10.281   9.564   4.193 -0.3948 -0.5479 -0.3026
  146MOL0     O19583  10.421   9.581   4.161  0.3602 -0.0309  0.2739
  146MOL0     C19584  10.458   9.605   4.026  0.1864  0.3729  0.6698
  146MOL0     C19585  10.607   9.609   4.017  0.2252  0.0766  0.0636
  146MOL0     C19586  10.673   9.473   4.005  0.4526 -0.5527  0.5792
  146MOL0     C19587  10.825   9.494   4.006  0.0738 -0.1859 -0.5537
  146MOL0     C19588  10.900   9.364   4.014  0.6930  1.0989 -0.0835
  146MOL0     C19589  11.030   9.370   3.929  0.3159  1.2606  0.7900
  146MOL0     C19590  11.142   9.470   3.978  1.5653  0.7779  0.2846
  146MOL0     C19591  11.179   9.471   4.133  0.2251 -0.5319  0.6753
  146MOL0     N19592  11.313   9.512   4.145  0.2485  0.2353 -0.2160
  146MOL0     C19593  11.355   9.641   4.119  0.5241 -0.2655  0.1500
  146MOL0     C19594  11.488   9.635   4.110 -0.3072  0.4527 -0.6681
  146MOL0     C19595  11.581   9.752   4.113  0.0713  0.4485 -0.4024
  146MOL0     C19596  11.548   9.851   3.999  0.2310  0.0593 -0.3087
  146MOL0     C19597  11.671   9.920   3.941  0.6452 -0.0382 -0.5141
  146MOL0     C19598  11.708  10.043   4.036  0.3129  0.7394 -0.0659
  146MOL0     O19599  11.795  10.004   4.150  0.3716 -0.4169  0.2282
  146MOL0     C19600  11.932  10.013   4.124 -0.3924 -0.4781 -1.0567
  146MOL0     C19601  11.996   9.925   4.052  0.3849  0.1189 -0.3193
  146MOL0     C19602  12.132   9.925   4.037 -0.3074  0.0038 -0.6385
  146MOL0     C19603  12.207  10.026   4.094 -0.2433  0.4029 -1.3787
  146MOL0     C19604  12.360  10.033   4.084  0.2214 -0.1331 -0.0215
  146MOL0     O19605  12.433  10.114   4.164  0.0191 -0.3318  0.0407
  146MOL0     C19606  12.571  10.128   4.144  1.1084 -0.2364  0.1232
  146MOL0     C19607  12.662  10.026   4.161 -0.1902  0.4431 -0.0956
  146MOL0     C19608  12.801  10.037   4.140 -0.7542 -0.5766 -0.0056
  146MOL0     C19609  12.854  10.160   4.108 -0.1994 -0.6010 -0.6313
  146MOL0     O19610  12.988  10.191   4.085 -0.3015  0.2506 -0.2204
  146MOL0     C19611  13.073  10.084   4.055 -0.1671 -0.3320  0.0184
  146MOL0     C19612  13.210  10.144   4.008 -0.3166 -1.1443  1.4987
  146MOL0     C19613  13.200  10.252   3.904 -0.0489  0.2202  0.9524
  146MOL0     C19614  13.115  10.231   3.783 -1.5196  0.1067  0.3117
  146MOL0     C19615  13.138  10.355   3.696 -0.2631 -0.2488  0.1979
  146MOL0     C19616  13.031  10.350   3.586  1.2297  0.1643  0.3808
  146MOL0     C19617  13.049  10.469   3.489  0.2682 -0.3420  0.5216
  146MOL0     C19618  12.947  10.453   3.375  1.1264 -0.6326 -0.9936
  146MOL0    Cl19619  13.006  10.314   3.278  0.7121 -0.0495  0.5201
  146MOL0     C19620  12.765  10.269   4.106 -0.2103 -0.0252  0.0801
  146MOL0     C19621  12.628  10.255   4.106  0.3784  0.4416 -0.4657
  146MOL0     O19622  12.407   9.960   4.000 -0.1913  0.5210 -0.4207
  146MOL0     C19623  12.143  10.127   4.173 -0.6623 -0.2183 -0.0899
  146MOL0     C19624  12.006  10.115   4.182  0.2251 -0.4695 -0.9838
  146MOL0     N19625  11.532   9.505   4.106 -0.5208  0.1898  0.6502
  146MOL0     N19626  11.425   9.429   4.128 -0.2939 -0.8396 -0.0473
  146MOL0     C19627  10.249   9.576   4.329 -0.0481  0.2167 -0.3134
  146MOL0     C19628  10.118   9.570   4.364 -0.0213 -0.9874 -0.0150
  146MOL0     C19629   9.693   9.493   4.431  0.4688 -0.4126  0.1136
  146MOL0     C19630   9.613   9.555   4.330  0.0422  0.2541  0.1130
  146MOL0     C19631   9.475   9.537   4.320 -1.3191 -0.1493  0.8578
  146MOL0     C19632   9.407   9.468   4.418 -0.1702  0.8284 -0.0552
  146MOL0     O19633   9.275   9.430   4.413 -0.0645 -0.1662  0.1852
  146MOL0     C19634   9.204   9.454   4.290 -0.8156  0.5482  0.4818
  146MOL0     C19635   9.072   9.376   4.287 -0.6485  0.3973 -1.0340
  146MOL0     C19636   9.001   9.389   4.156  0.7548  0.2961 -0.1967
  146MOL0     C19637   8.881   9.296   4.144 -0.1233 -0.2691  0.0690
  146MOL0     C19638   8.774   9.347   4.233  0.8070 -0.5072 -0.9498
  146MOL0     C19639   8.670   9.392   4.292 -1.3698  0.3385  0.0193
  146MOL0     C19640   9.482   9.412   4.526  0.3693 -0.2098  0.2570
  146MOL0     C19641   9.620   9.412   4.526 -0.8113  0.7494 -0.7009
  146MOL0     C19642   9.691   9.324   4.632 -0.1591  1.4844 -0.2632
  146MOL0     H19643   9.960   9.546   4.061 -1.7359  2.7974  0.2044
  146MOL0     H19644  10.198   9.553   3.992 -4.2969  0.5999 -1.1507
  146MOL0     H19645  10.423   9.519   3.967  0.2188  1.6957 -1.3760
  146MOL0     H19646  10.406   9.694   3.988 -1.0591  0.3460  2.2039
  146MOL0     H19647  10.638   9.677   4.097  1.3885  0.3281 -0.5893
  146MOL0     H19648  10.644   9.661   3.929  2.5728 -0.6632  0.5352
  146MOL0     H19649  10.653   9.418   3.913  3.9350  1.2034 -1.4622
  146MOL0     H19650  10.639   9.407   4.086  1.3523  0.6773  2.0215
  146MOL0     H19651  10.862   9.540   3.914  0.3158  0.6657 -0.0438
  146MOL0     H19652  10.838   9.557   4.095 -4.8830 -2.2181  1.9592
  146MOL0     H19653  10.925   9.354   4.120 -0.2411 -1.5692 -0.0383
  146MOL0     H19654  10.838   9.278   3.987 -0.0193  1.4425  0.4441
  146MOL0     H19655  11.068   9.267   3.924  2.2677  1.9942 -1.9321
  146MOL0     H19656  11.011   9.398   3.825  0.6284 -0.1812  0.3168
  146MOL0     H19657  11.120   9.570   3.939  1.8624  1.1262  0.9993
  146MOL0     H19658  11.232   9.443   3.921  3.3991  2.4692  2.2408
  146MOL0     H19659  11.105   9.528   4.189  1.6443  0.6382  1.4442
  146MOL0     H19660  11.178   9.367   4.168 -0.5692 -0.7662 -0.0218
  146MOL0     H19661  11.294   9.730   4.117  1.1835  0.1771 -1.1998
  146MOL0     H19662  11.575   9.801   4.210 -0.4470 -0.0610 -0.1775
  146MOL0     H19663  11.684   9.719   4.094 -0.7618 -2.8096  0.2357
  146MOL0     H19664  11.491   9.801   3.919 -0.2683 -0.4729  0.3675
  146MOL0     H19665  11.478   9.929   4.029 -0.0114 -0.3422  0.1826
  146MOL0     H19666  11.643   9.961   3.843 -0.8405 -0.5260 -0.3125
  146MOL0     H19667  11.756   9.854   3.918 -1.3655 -2.4663 -1.3592
  146MOL0     H19668  11.621  10.095   4.076  1.2425  1.2129  1.4000
  146MOL0     H19669  11.760  10.119   3.979 -0.1200  1.9260  1.0763
  146MOL0     H19670  11.933   9.854   4.000 -0.7838  1.2270 -0.4812
  146MOL0     H19671  12.178   9.860   3.963  0.0355  0.4077 -0.7883
  146MOL0     H19672  12.631   9.924   4.184 -0.4386  0.6983  0.7564
  146MOL0     H19673  12.861   9.947   4.133 -1.4864 -0.9708 -1.9355
  146MOL0     H19674  13.089  10.028   4.148  0.1279 -2.4364 -1.2298
  146MOL0     H19675  13.037  10.020   3.974 -0.7553  2.2138 -1.8700
  146MOL0     H19676  13.258  10.197   4.091  0.4336  1.5931 -0.5410
  146MOL0     H19677  13.272  10.061   3.975  0.5746  0.6157 -1.6629
  146MOL0     H19678  13.150  10.340   3.947 -1.3007 -0.0341  0.0608
  146MOL0     H19679  13.302  10.264   3.867 -0.8363 -0.9186 -1.8365
  146MOL0     H19680  13.012  10.220   3.818 -0.9220  1.5470  2.7747
  146MOL0     H19681  13.150  10.141   3.732 -0.7116  0.7342 -0.2487
  146MOL0     H19682  13.239  10.336   3.658 -0.2928 -0.9143  0.4403
  146MOL0     H19683  13.151  10.450   3.751  0.1425  0.0813 -0.4567
  146MOL0     H19684  13.029  10.254   3.534  0.9421  0.5935 -0.4156
  146MOL0     H19685  12.928  10.363   3.624  1.5943  1.3048  1.0596
  146MOL0     H19686  13.151  10.472   3.450  1.0140 -1.9412  2.1797
  146MOL0     H19687  13.026  10.562   3.542 -1.3788 -1.0901  1.1937
  146MOL0     H19688  12.848  10.443   3.420  0.2269  1.1388 -2.4344
  146MOL0     H19689  12.937  10.531   3.299 -2.6987 -1.8115 -1.9015
  146MOL0     H19690  12.809  10.368   4.098  0.7112 -0.5274 -1.3788
  146MOL0     H19691  12.563  10.340   4.093 -0.9372 -0.5200 -0.4168
  146MOL0     H19692  12.198  10.213   4.210  3.3677 -1.6174 -2.2132
  146MOL0     H19693  11.955  10.196   4.232  1.7714  0.6521 -1.1502
  146MOL0     H19694  10.325   9.600   4.402  0.8040  1.3021 -1.5223
  146MOL0     H19695  10.093   9.581   4.469 -0.7760  1.4836 -0.3909
  146MOL0     H19696   9.670   9.612   4.257 -0.0606 -0.1115 -0.2577
  146MOL0     H19697   9.422   9.586   4.238  1.9323 -0.5429 -1.7141
  146MOL0     H19698   9.251   9.408   4.203 -5.1676 -0.8277 -1.4475
  146MOL0     H19699   9.183   9.561   4.279 -2.2078  0.2930  0.4495
  146MOL0     H19700   9.014   9.411   4.373  3.0099 -1.1494  2.3466
  146MOL0     H19701   9.096   9.271   4.305 -0.2683  0.3240 -1.9008
  146MOL0     H19702   9.065   9.364   4.071  1.1673  0.8741 -0.0627
  146MOL0     H19703   8.979   9.495   4.144 -1.4245 -0.3474 -2.7597
  146MOL0     H19704   8.845   9.290   4.041  0.1385 -1.7072  0.0285
  146MOL0     H19705   8.899   9.195   4.183 -0.3746 -0.2720  0.1761
  146MOL0     H19706   8.579   9.443   4.318 -1.5491  0.3683 -0.6491
  146MOL0     H19707   9.425   9.364   4.605 -1.1893 -2.6040 -2.1306
  146MOL0     H19708   9.756   9.252   4.582 -1.6037  0.2430 -0.4182
  146MOL0     H19709   9.754   9.387   4.696  3.1212 -2.5804  0.9404
  146MOL0     H19710   9.616   9.267   4.687 -0.5804  0.6019 -1.7121
  147MOL0     O19711   6.645   0.582   9.437 -1.0763 -0.6316  0.1335
  147MOL0     C19712   6.604   0.607   9.324 -0.1656  0.5533  0.0684
  147MOL0     O19713   6.682   0.616   9.210  0.4894 -0.1344  0.0257
  147MOL0     C19714   6.811   0.641   9.227  0.2715  0.2331 -0.5606
  147MOL0     C19715   6.906   0.535   9.230  0.9078  0.8602 -0.0430
  147MOL0     C19716   7.048   0.559   9.222  0.2226 -0.0139 -0.2036
  147MOL0     C19717   7.090   0.693   9.224 -0.5179 -0.2801 -0.1202
  147MOL0     O19718   7.221   0.716   9.214 -0.3623  0.0058 -0.3044
  147MOL0     C19719   7.275   0.816   9.303  0.2541 -0.1447  0.4109
  147MOL0     C19720   7.429   0.791   9.323  0.3346  0.4339  0.0588
  147MOL0     C19721   7.451   0.660   9.403 -1.1857  0.7970  0.0563
  147MOL0     C19722   7.598   0.657   9.432 -0.4856 -0.0433 -0.1298
  147MOL0     C19723   7.666   0.527   9.487  0.1229 -1.2489  0.5271
  147MOL0     C19724   7.612   0.477   9.614 -0.0456 -0.3554 -0.4357
  147MOL0     C19725   7.646   0.556   9.739 -0.4804  0.1009  0.0529
  147MOL0     C19726   7.800   0.541   9.779 -0.3242  0.8006 -0.2004
  147MOL0     N19727   7.873   0.667   9.764 -0.4471  0.1746  0.1957
  147MOL0     C19728   7.931   0.719   9.876 -0.1149 -0.2869 -0.6360
  147MOL0     C19729   7.996   0.831   9.826  0.2012 -0.6850  0.2263
  147MOL0     C19730   8.054   0.950   9.893  0.5125  1.1535 -0.0357
  147MOL0     C19731   8.208   0.942   9.880 -0.4219 -0.7247  0.4251
  147MOL0     C19732   8.288   1.066   9.939 -0.4129  0.3176  0.2705
  147MOL0     C19733   8.441   1.037   9.941  0.3494 -0.3815 -1.2601
  147MOL0     O19734   8.468   0.916  10.010  0.4782 -0.5556  0.7799
  147MOL0     C19735   8.597   0.869  10.035 -0.0650 -0.4129 -0.7474
  147MOL0     C19736   8.614   0.763  10.124 -1.0120  0.7253 -0.9484
  147MOL0     C19737   8.743   0.724  10.177 -0.3898  0.6222 -0.4449
  147MOL0     C19738   8.855   0.798  10.121  0.0934 -0.4734 -0.0863
  147MOL0     C19739   8.991   0.757  10.153 -0.1050 -0.3909 -0.4583
  147MOL0     O19740   9.096   0.825  10.097  0.2375  0.5931  0.0755
  147MOL0     C19741   9.225   0.774  10.124  1.2593  0.1938  0.7080
  147MOL0     C19742   9.301   0.871  10.186  0.8211  0.1304  0.4188
  147MOL0     C19743   9.431   0.838  10.201  1.0285 -0.0238  0.0979
  147MOL0     C19744   9.484   0.717  10.162 -0.2468 -0.3892 -0.2933
  147MOL0     O19745   9.622   0.707  10.184  0.5297 -0.0657 -0.3763
  147MOL0     C19746   9.677   0.574  10.157 -1.1352 -0.2909  0.3736
  147MOL0     C19747   9.830   0.593  10.156  0.0858  0.1446  0.7808
  147MOL0     C19748   9.881   0.654  10.024 -0.6954 -0.3009 -0.4405
  147MOL0     C19749  10.012   0.720  10.028 -0.0298 -0.1451  0.3660
  147MOL0     C19750  10.068   0.725   9.885  0.4825 -1.1680 -0.3214
  147MOL0     C19751  10.207   0.776   9.900 -0.4677  0.7164 -0.6153
  147MOL0     C19752  10.265   0.811   9.759 -0.3162  0.1029  0.6140
  147MOL0     C19753  10.409   0.861   9.767  0.1732  0.0529 -0.2844
  147MOL0    Cl19754  10.412   1.004   9.862 -0.2398 -0.0535 -0.3795
  147MOL0     C19755   9.402   0.617  10.116  0.2045  0.1340 -0.3822
  147MOL0     C19756   9.268   0.645  10.090 -0.0101 -1.0172  0.0691
  147MOL0     O19757   9.006   0.662  10.232 -0.9273 -0.0409  0.0676
  147MOL0     C19758   8.829   0.905  10.030  0.3940  0.0991 -0.4947
  147MOL0     C19759   8.705   0.934   9.983  0.4320 -0.2784 -0.2921
  147MOL0     N19760   7.970   0.842   9.689  0.1662  0.6640  0.1963
  147MOL0     N19761   7.902   0.739   9.652  0.6182 -0.2700 -0.3985
  147MOL0     C19762   6.998   0.800   9.212  0.1724 -0.7027 -0.3725
  147MOL0     C19763   6.856   0.773   9.217  0.5601 -0.5294 -0.2979
  147MOL0     C19764   6.462   0.640   9.314 -0.6270  0.4803 -1.0744
  147MOL0     C19765   6.393   0.604   9.198  0.1998  0.4151 -0.3467
  147MOL0     C19766   6.249   0.603   9.205 -0.5059  0.7582 -0.1614
  147MOL0     C19767   6.179   0.669   9.312  0.4404  0.2739 -0.2497
  147MOL0     O19768   6.044   0.683   9.330 -0.4386  0.2911  0.1123
  147MOL0     C19769   5.972   0.620   9.220 -0.7554 -0.0781  0.0856
  147MOL0     C19770   5.821   0.626   9.246  0.2325 -0.3757  0.1304
  147MOL0     C19771   5.787   0.602   9.396 -0.8717 -0.5156 -0.0754
  147MOL0     C19772   5.629   0.607   9.418 -0.0954 -0.7889 -0.0053
  147MOL0     C19773   5.562   0.490   9.356  0.0076  1.0093  0.1345
  147MOL0     C19774   5.508   0.394   9.301  0.4390 -0.2847  0.0605
  147MOL0     C19775   6.259   0.715   9.420  0.0191 -0.0895  0.5742
  147MOL0     C19776   6.397   0.697   9.425 -0.1646  0.0348  0.1839
  147MOL0     C19777   6.471   0.760   9.549  0.5232  0.0694 -1.1820
  147MOL0     H19778   6.864   0.435   9.235 -1.2425  1.7364  1.0783
  147MOL0     H19779   7.115   0.474   9.222 -0.2715 -0.4267 -1.4309
  147MOL0     H19780   7.263   0.913   9.253  0.1517 -1.1729 -1.6704
  147MOL0     H19781   7.223   0.819   9.399 -2.6750  1.6258 -1.0902
  147MOL0     H19782   7.473   0.875   9.377  2.4408 -1.1923  0.9873
  147MOL0     H19783   7.479   0.781   9.226 -0.2149  0.0202 -0.1935
  147MOL0     H19784   7.430   0.591   9.321 -0.7656  1.2119 -0.4114
  147MOL0     H19785   7.381   0.647   9.486  1.2120 -0.1709  2.0515
  147MOL0     H19786   7.647   0.680   9.337  1.2724 -1.2675  0.4313
  147MOL0     H19787   7.624   0.744   9.494  2.9921 -1.1304  0.1536
  147MOL0     H19788   7.658   0.458   9.402  3.3773  1.4836 -2.3324
  147MOL0     H19789   7.773   0.539   9.508 -0.6741  0.5850  4.4410
  147MOL0     H19790   7.503   0.464   9.614 -0.2609  1.2506 -0.1320
  147MOL0     H19791   7.653   0.377   9.629 -3.2102 -1.9177 -1.2371
  147MOL0     H19792   7.586   0.516   9.822  0.7712 -0.6667  0.6186
  147MOL0     H19793   7.625   0.659   9.708  0.2124  0.1287 -0.3447
  147MOL0     H19794   7.823   0.500   9.878  0.0824  0.9957 -0.2119
  147MOL0     H19795   7.847   0.475   9.706  2.0360  2.4275 -0.2591
  147MOL0     H19796   7.933   0.684   9.978  1.8284 -1.3780 -1.0030
  147MOL0     H19797   8.007   1.039   9.849  2.2263  0.9148 -2.5604
  147MOL0     H19798   8.027   0.943   9.999 -1.6596 -1.5725 -0.6530
  147MOL0     H19799   8.243   0.852   9.930  2.0293  0.6453  1.3838
  147MOL0     H19800   8.240   0.944   9.776  0.0633  5.3577  0.3088
  147MOL0     H19801   8.257   1.085  10.042 -0.9034 -1.3073  0.4553
  147MOL0     H19802   8.261   1.157   9.885 -0.8556 -0.3461 -0.6632
  147MOL0     H19803   8.485   1.118   9.999 -0.8781 -0.8488  0.3926
  147MOL0     H19804   8.495   1.024   9.846 -0.4276 -3.0503 -1.4100
  147MOL0     H19805   8.523   0.713  10.158  0.8151 -3.7298 -1.8269
  147MOL0     H19806   8.751   0.644  10.249 -1.6341  0.4999 -0.4207
  147MOL0     H19807   9.260   0.968  10.213 -2.2738 -1.5922  2.4877
  147MOL0     H19808   9.497   0.921  10.225  0.5543  0.8936 -1.5732
  147MOL0     H19809   9.649   0.498  10.230 -1.4193 -1.9541 -1.3935
  147MOL0     H19810   9.642   0.547  10.057 -0.1351  0.3747 -0.1697
  147MOL0     H19811   9.866   0.653  10.240 -0.9676  3.2133 -0.7932
  147MOL0     H19812   9.873   0.493  10.161 -1.3177 -0.4875  0.7244
  147MOL0     H19813   9.876   0.577   9.945  2.1084  0.3400 -1.3627
  147MOL0     H19814   9.805   0.725   9.992 -0.2691  0.5893  0.5030
  147MOL0     H19815  10.086   0.665  10.086  0.4829  1.8820  1.7448
  147MOL0     H19816  10.014   0.817  10.079  1.7951 -0.0359  0.1499
  147MOL0     H19817  10.014   0.787   9.813 -0.9596  0.5127  2.0751
  147MOL0     H19818  10.055   0.628   9.836 -2.3794  0.3520 -2.9098
  147MOL0     H19819  10.194   0.866   9.960 -1.7287  1.1213 -1.4549
  147MOL0     H19820  10.270   0.709   9.959 -1.2118  1.4760  1.1238
  147MOL0     H19821  10.192   0.876   9.711  0.5139 -0.6285 -1.7691
  147MOL0     H19822  10.267   0.718   9.701 -0.0490 -0.3602  1.3498
  147MOL0     H19823  10.472   0.785   9.815 -0.9376 -0.7146 -0.0018
  147MOL0     H19824  10.446   0.878   9.665  0.5388 -0.8601 -0.3154
  147MOL0     H19825   9.432   0.514  10.104  0.4664  0.0297  1.0618
  147MOL0     H19826   9.197   0.570  10.057  0.2022 -1.5273  0.7485
  147MOL0     H19827   8.903   0.976   9.993  1.8707 -1.4522 -0.6841
  147MOL0     H19828   8.692   1.018   9.917  1.5345  0.3411  0.2469
  147MOL0     H19829   7.041   0.899   9.199  3.3950 -2.0185 -0.7188
  147MOL0     H19830   6.774   0.844   9.217  0.5453 -0.5355 -1.2213
  147MOL0     H19831   6.436   0.546   9.117  0.9578 -0.5418  0.6977
  147MOL0     H19832   6.199   0.530   9.142 -1.3257  0.1836  1.1180
  147MOL0     H19833   5.995   0.513   9.217  1.6727  0.3591  1.5028
  147MOL0     H19834   6.003   0.659   9.122 -0.6328 -0.7326 -0.1417
  147MOL0     H19835   5.776   0.546   9.185  1.1626 -0.4279 -0.5002
  147MOL0     H19836   5.776   0.721   9.218  0.2606  0.5054  2.8520
  147MOL0     H19837   5.828   0.688   9.450 -0.3262  0.1181 -1.4511
  147MOL0     H19838   5.825   0.507   9.433  1.8745  0.6093  0.2661
  147MOL0     H19839   5.618   0.612   9.527 -1.4810  0.2485 -0.1575
  147MOL0     H19840   5.586   0.696   9.371  3.8948  0.8893 -0.9031
  147MOL0     H19841   5.478   0.296   9.273  2.7023 -1.1193  0.3587
  147MOL0     H19842   6.219   0.764   9.508  1.4453  1.0211  0.6325
  147MOL0     H19843   6.528   0.687   9.606  0.3354  0.8334  0.0306
  147MOL0     H19844   6.541   0.835   9.511 -0.7993  0.7482 -2.3505
  147MOL0     H19845   6.394   0.788   9.622  0.1416 -2.4565 -0.5302
  148MOL0     O19846   9.898   5.043   8.023  0.2195  0.1080  0.6784
  148MOL0     C19847   9.797   4.981   8.066 -0.1424 -0.3683  0.5425
  148MOL0     O19848   9.777   4.928   8.189  0.2166 -0.5697 -0.6463
  148MOL0     C19849   9.873   4.946   8.286  0.5951 -0.2796  0.1295
  148MOL0     C19850   9.902   4.832   8.353 -0.0927 -0.2444 -0.4076
  148MOL0     C19851   9.998   4.844   8.457  0.2439  0.0476 -0.8254
  148MOL0     C19852  10.065   4.963   8.495 -0.3768 -0.1267  0.1456
  148MOL0     O19853  10.161   4.944   8.589 -0.9840  0.0124 -0.3340
  148MOL0     C19854  10.192   5.067   8.649  0.1522  0.6355 -0.1207
  148MOL0     C19855  10.267   5.049   8.778 -0.3362 -0.1065 -0.3556
  148MOL0     C19856  10.413   4.982   8.765 -0.2689  0.0850 -0.3154
  148MOL0     C19857  10.484   4.967   8.900 -0.3559  0.6515 -0.5776
  148MOL0     C19858  10.597   4.868   8.895  0.2399  0.2484 -0.2928
  148MOL0     C19859  10.741   4.923   8.879 -0.0785 -0.4770  0.0385
  148MOL0     C19860  10.775   5.049   8.963  0.2265  0.2531  0.4335
  148MOL0     C19861  10.917   5.107   8.958  0.4466 -0.8314  0.9539
  148MOL0     N19862  11.020   5.038   9.031 -0.8814 -0.0484 -0.3243
  148MOL0     C19863  11.023   5.004   9.166 -0.3058 -0.2730 -0.7195
  148MOL0     C19864  11.161   4.981   9.185  0.2403 -0.3921 -0.8337
  148MOL0     C19865  11.227   4.977   9.318 -0.2825 -0.5834  0.1296
  148MOL0     C19866  11.360   4.892   9.318  1.0046 -0.6238 -0.0922
  148MOL0     C19867  11.472   4.947   9.403  0.0343 -0.3604 -0.4174
  148MOL0     C19868  11.539   5.063   9.322 -0.6556 -0.4148  0.3130
  148MOL0     O19869  11.625   5.004   9.233  0.4634 -0.4221  0.7608
  148MOL0     C19870  11.728   5.084   9.191 -0.4984 -0.0929  0.1503
  148MOL0     C19871  11.729   5.222   9.200 -0.2142 -0.7244  0.0271
  148MOL0     C19872  11.838   5.304   9.159  0.0622  0.3883  0.2967
  148MOL0     C19873  11.945   5.242   9.093 -0.3812  0.7313 -1.1958
  148MOL0     C19874  12.058   5.317   9.046 -0.4090  0.7450 -0.6319
  148MOL0     O19875  12.167   5.244   9.015  0.2547  0.1008  0.0589
  148MOL0     C19876  12.283   5.298   8.959 -0.1219 -0.3037  0.7408
  148MOL0     C19877  12.322   5.433   8.948  1.0109  0.0794 -0.2746
  148MOL0     C19878  12.449   5.460   8.897 -0.0813 -0.1177 -0.0777
  148MOL0     C19879  12.540   5.356   8.858 -0.0780 -0.2294 -0.1329
  148MOL0     O19880  12.663   5.390   8.822  0.5015 -0.2316  0.0767
  148MOL0     C19881  12.764   5.288   8.800  0.0147 -0.0215  0.0026
  148MOL0     C19882  12.897   5.355   8.770  0.4288 -0.2084 -0.2148
  148MOL0     C19883  13.015   5.258   8.772 -0.5918  0.8125 -0.7560
  148MOL0     C19884  13.148   5.323   8.730 -0.5845 -0.3803  0.1223
  148MOL0     C19885  13.256   5.227   8.691 -0.0533  0.7174  0.3440
  148MOL0     C19886  13.383   5.298   8.646  0.2773  0.0132 -0.2539
  148MOL0     C19887  13.507   5.208   8.630  0.3938  0.6417 -0.4324
  148MOL0     C19888  13.639   5.293   8.612  0.5789  0.8008  0.0447
  148MOL0    Cl19889  13.782   5.194   8.579  0.3872 -0.3981 -0.1135
  148MOL0     C19890  12.491   5.227   8.856  1.2986  1.0504  0.1742
  148MOL0     C19891  12.365   5.196   8.903 -0.4847 -0.2809 -0.1022
  148MOL0     O19892  12.049   5.436   9.054  0.5003 -0.3711  0.4216
  148MOL0     C19893  11.937   5.104   9.076  0.0946 -0.2426 -0.4642
  148MOL0     C19894  11.829   5.026   9.120 -0.9854  0.4512  0.9009
  148MOL0     N19895  11.229   4.999   9.070 -0.0521  0.3344 -0.1069
  148MOL0     N19896  11.145   5.014   8.978  0.2818 -0.6593  0.2797
  148MOL0     C19897  10.029   5.080   8.421 -0.6089  0.0566 -0.6128
  148MOL0     C19898   9.933   5.065   8.320  0.0301  0.9015  0.1830
  148MOL0     C19899   9.685   4.956   7.968 -0.7975  0.1809  0.7161
  148MOL0     C19900   9.718   4.958   7.826  0.2279 -0.0079  0.3934
  148MOL0     C19901   9.620   4.960   7.721 -0.1573 -0.4750 -0.3357
  148MOL0     C19902   9.489   4.964   7.756  0.3539  0.2277 -0.3783
  148MOL0     O19903   9.396   4.937   7.654 -1.3148  0.3581  0.3915
  148MOL0     C19904   9.256   4.970   7.680  0.8125  0.2492  0.0705
  148MOL0     C19905   9.172   5.024   7.556  0.2643 -0.1418  0.1157
  148MOL0     C19906   9.213   4.966   7.422 -0.0300 -0.2014  0.0674
  148MOL0     C19907   9.142   5.035   7.308  0.2691  0.4523  0.2950
  148MOL0     C19908   8.998   4.996   7.299  0.0016 -0.0725 -0.1480
  148MOL0     C19909   8.880   4.968   7.302  0.4425  0.3132 -0.0034
  148MOL0     C19910   9.457   4.953   7.893  0.1198 -0.8250  0.0290
  148MOL0     C19911   9.548   4.954   8.000 -0.0751 -0.2550  0.3189
  148MOL0     C19912   9.494   4.963   8.134 -0.0700  0.2412 -0.1786
  148MOL0     H19913   9.861   4.737   8.319  1.4408 -0.4283 -1.8610
  148MOL0     H19914  10.026   4.753   8.509 -0.8855  0.0277 -0.2018
  148MOL0     H19915  10.261   5.114   8.579  1.7972  1.3550  1.8559
  148MOL0     H19916  10.102   5.122   8.675 -1.0164 -1.7722  1.3308
  148MOL0     H19917  10.214   4.994   8.855 -1.2055 -2.3806 -2.4584
  148MOL0     H19918  10.284   5.148   8.822  0.0408 -0.0167 -0.6886
  148MOL0     H19919  10.479   5.051   8.713  1.2112 -2.4662 -2.0676
  148MOL0     H19920  10.418   4.887   8.711 -1.0514  0.4177 -1.0127
  148MOL0     H19921  10.509   5.063   8.944 -2.6997  1.4605 -0.8999
  148MOL0     H19922  10.418   4.924   8.975  0.3281 -2.2563 -1.4703
  148MOL0     H19923  10.604   4.808   8.985 -0.3368  0.4805 -0.0943
  148MOL0     H19924  10.597   4.801   8.808  1.2886 -1.1755  0.7674
  148MOL0     H19925  10.804   4.842   8.918 -0.9931 -0.1775  2.2749
  148MOL0     H19926  10.772   4.940   8.776  1.1674  0.9937  0.6092
  148MOL0     H19927  10.746   5.025   9.066 -0.9155 -3.2860 -0.5732
  148MOL0     H19928  10.717   5.134   8.925  1.9745  0.5233 -1.8814
  148MOL0     H19929  10.958   5.114   8.856  2.2909  2.0987  1.7570
  148MOL0     H19930  10.911   5.211   8.992 -1.4458 -1.2609  2.0547
  148MOL0     H19931  10.946   4.998   9.243 -0.9160  0.7124 -1.2395
  148MOL0     H19932  11.234   5.079   9.357 -0.8526 -1.6540  3.3544
  148MOL0     H19933  11.163   4.936   9.396  0.2321  0.9659  1.4303
  148MOL0     H19934  11.338   4.789   9.349  1.7723 -0.7130  0.1713
  148MOL0     H19935  11.403   4.893   9.218 -1.3140  1.3329 -1.1769
  148MOL0     H19936  11.550   4.872   9.419  2.3859  2.0395  0.0817
  148MOL0     H19937  11.433   4.967   9.503 -0.2331 -1.2747 -0.3314
  148MOL0     H19938  11.596   5.121   9.396  1.3277 -2.3951  0.4532
  148MOL0     H19939  11.462   5.126   9.276 -4.1900 -3.2293  1.9703
  148MOL0     H19940  11.643   5.284   9.225  2.4310  2.6780  1.6951
  148MOL0     H19941  11.824   5.411   9.153 -2.0529  0.2001  1.2340
  148MOL0     H19942  12.261   5.516   8.983 -0.1854 -1.9065  2.7237
  148MOL0     H19943  12.476   5.565   8.895 -1.8621  0.4031  0.5855
  148MOL0     H19944  12.772   5.231   8.893 -1.4550  1.3263  1.0025
  148MOL0     H19945  12.743   5.234   8.707 -0.3059  0.2513 -0.0851
  148MOL0     H19946  12.892   5.407   8.674 -1.0393 -0.6313 -0.3989
  148MOL0     H19947  12.908   5.423   8.855  0.2490 -1.6791  1.0179
  148MOL0     H19948  13.036   5.227   8.875  0.5144  4.2806  0.2049
  148MOL0     H19949  13.004   5.169   8.710  2.0341 -0.9708  1.1086
  148MOL0     H19950  13.184   5.377   8.817 -1.7720  2.0183 -0.7997
  148MOL0     H19951  13.128   5.390   8.646 -0.9516  0.5853  0.9715
  148MOL0     H19952  13.225   5.157   8.613 -0.8231  2.1565 -0.7004
  148MOL0     H19953  13.274   5.171   8.783 -2.5627 -1.5748 -0.4507
  148MOL0     H19954  13.370   5.340   8.546  1.0510  0.0890 -0.3308
  148MOL0     H19955  13.413   5.379   8.714 -0.7780  0.9916 -0.9205
  148MOL0     H19956  13.487   5.143   8.545 -5.1467  0.1325  0.8856
  148MOL0     H19957  13.523   5.143   8.717  2.0813  1.9413  0.3136
  148MOL0     H19958  13.623   5.358   8.526 -0.7284  0.2456 -0.1527
  148MOL0     H19959  13.646   5.362   8.697 -2.8406  3.0641 -1.2962
  148MOL0     H19960  12.550   5.142   8.822  0.7512  1.2593 -1.3937
  148MOL0     H19961  12.335   5.095   8.927  1.4827 -1.1213 -1.0295
  148MOL0     H19962  12.020   5.067   9.017  0.2150 -0.4199 -0.1859
  148MOL0     H19963  11.818   4.918   9.123 -1.0356  0.0929 -3.8969
  148MOL0     H19964  10.066   5.179   8.446 -1.0750  0.2265 -0.5832
  148MOL0     H19965   9.897   5.149   8.262  1.4394  2.1460  1.0300
  148MOL0     H19966   9.822   4.952   7.794  0.1361 -0.9181  0.2232
  148MOL0     H19967   9.639   4.956   7.614  2.2090 -0.2748  0.0147
  148MOL0     H19968   9.259   5.049   7.756  3.3866 -1.7706  2.2607
  148MOL0     H19969   9.206   4.878   7.712  0.6456 -0.6530 -2.5471
  148MOL0     H19970   9.181   5.133   7.560  1.0736 -0.2239  3.1586
  148MOL0     H19971   9.067   5.002   7.579  0.0580 -0.1835 -0.8432
  148MOL0     H19972   9.191   4.859   7.412  3.0616 -0.8248 -1.2654
  148MOL0     H19973   9.322   4.966   7.414 -0.0681 -0.9472 -0.6546
  148MOL0     H19974   9.139   5.144   7.320  0.7310  1.0281 -3.4878
  148MOL0     H19975   9.195   5.017   7.214  1.6424 -0.9607  1.2825
  148MOL0     H19976   8.777   4.939   7.305  0.0495  1.4845 -1.1673
  148MOL0     H19977   9.350   4.963   7.910  0.1304  0.2796 -0.4548
  148MOL0     H19978   9.386   4.971   8.124 -0.0193  0.6369 -0.4332
  148MOL0     H19979   9.528   4.872   8.185  1.4331  1.3351  0.8923
  148MOL0     H19980   9.529   5.051   8.190 -1.1990  1.6074 -1.5674
  149MOL0     O19981   2.264  10.653  10.948 -0.3156 -0.0644  0.3402
  149MOL0     C19982   2.290  10.579  11.042 -0.0372 -0.1794 -0.1325
  149MOL0     O19983   2.376  10.477  11.039  0.0169  1.0304 -0.3904
  149MOL0     C19984   2.466  10.459  10.937  0.3589  0.0597 -0.0833
  149MOL0     C19985   2.430  10.472  10.799  0.7317 -0.3587  0.3429
  149MOL0     C19986   2.533  10.462  10.700 -0.6510  0.4665 -0.4181
  149MOL0     C19987   2.670  10.443  10.741 -0.4188  0.8066 -0.0211
  149MOL0     O19988   2.764  10.425  10.638  0.8104  0.2406  0.0662
  149MOL0     C19989   2.894  10.377  10.659  1.0022  0.3930 -0.2231
  149MOL0     C19990   2.949  10.341  10.527  0.2065  0.6663 -0.1610
  149MOL0     C19991   3.050  10.219  10.537  0.0834  0.1356 -0.3170
  149MOL0     C19992   3.128  10.204  10.410 -0.3844 -0.6813  0.8195
  149MOL0     C19993   3.260  10.129  10.430  0.0082 -0.0231  0.5480
  149MOL0     C19994   3.314  10.060  10.304  0.0298 -0.8950  0.0426
  149MOL0     C19995   3.407   9.942  10.336 -0.2743 -0.1629 -0.4584
  149MOL0     C19996   3.434   9.847  10.223  0.0879  1.3191 -0.0844
  149MOL0     N19997   3.537   9.898  10.132  0.1653  0.5026 -0.4242
  149MOL0     C19998   3.662   9.903  10.160 -0.7046 -0.3454 -0.5264
  149MOL0     C19999   3.732   9.964  10.064  0.0059 -0.4986  0.5616
  149MOL0     C20000   3.882   9.965  10.050  0.2762 -0.0970 -0.8432
  149MOL0     C20001   3.929   9.847   9.971 -0.2046 -0.0497 -0.9155
  149MOL0     C20002   3.892   9.710  10.027 -0.1748  0.3994 -0.3584
  149MOL0     C20003   3.971   9.674  10.154  0.3901  0.2940  1.0673
  149MOL0     O20004   4.111   9.666  10.130  0.2184  0.1868  0.3211
  149MOL0     C20005   4.192   9.607  10.225  0.0553  0.6681  0.8219
  149MOL0     C20006   4.149   9.506  10.318  0.4087  0.4899  0.3148
  149MOL0     C20007   4.246   9.447  10.400  0.5134  0.1645  0.7508
  149MOL0     C20008   4.382   9.475  10.380  0.1387  0.4766 -0.3156
  149MOL0     C20009   4.489   9.397  10.451 -1.0453 -0.3287  0.4798
  149MOL0     O20010   4.613   9.396  10.401  0.2835  0.8405 -0.6825
  149MOL0     C20011   4.706   9.316  10.465  0.1164  0.5754 -0.1673
  149MOL0     C20012   4.818   9.361  10.533  0.6004 -0.0516 -1.0021
  149MOL0     C20013   4.922   9.282  10.569  0.9466  0.0373  0.0042
  149MOL0     C20014   4.915   9.147  10.534  0.0851 -0.5792 -0.0541
  149MOL0     O20015   5.027   9.076  10.577 -0.1484 -0.8031  0.3377
  149MOL0     C20016   5.011   9.010  10.705  0.4469  0.0160  0.4343
  149MOL0     C20017   5.149   8.954  10.753  0.7505 -0.0700 -0.7702
  149MOL0     C20018   5.239   9.061  10.811  0.1152 -0.2696  0.1637
  149MOL0     C20019   5.353   9.002  10.885 -0.3528 -0.9056  0.2182
  149MOL0     C20020   5.439   9.112  10.945 -0.6897 -0.3023 -0.0168
  149MOL0     C20021   5.552   9.046  11.014 -0.2156 -0.1732 -0.1847
  149MOL0     C20022   5.647   9.154  11.083  0.4649  0.7462  0.0062
  149MOL0     C20023   5.751   9.083  11.175  0.5757  0.0041  0.8736
  149MOL0    Cl20024   5.661   9.013  11.325 -0.3166  0.3784  0.0563
  149MOL0     C20025   4.805   9.092  10.468  0.0084 -0.2942  0.1834
  149MOL0     C20026   4.698   9.177  10.439 -0.5118 -0.0667  0.2772
  149MOL0     O20027   4.452   9.348  10.553 -0.0374 -0.3064  0.0277
  149MOL0     C20028   4.425   9.578  10.295 -0.3173 -0.1545  0.2917
  149MOL0     C20029   4.328   9.642  10.221  0.2820  0.1886 -0.1885
  149MOL0     N20030   3.637   9.996   9.966  0.9170  0.5300  0.1655
  149MOL0     N20031   3.518   9.953  10.006 -1.4843  0.3755 -0.0190
  149MOL0     C20032   2.698  10.423  10.880 -0.3062  0.2511  0.7840
  149MOL0     C20033   2.599  10.414  10.974 -0.3600 -0.2049 -0.4305
  149MOL0     C20034   2.209  10.581  11.165  0.1156 -0.4001 -0.3032
  149MOL0     C20035   2.238  10.493  11.276 -1.2683  0.0039 -0.0782
  149MOL0     C20036   2.163  10.481  11.392  0.2867  0.6666  0.1805
  149MOL0     C20037   2.047  10.559  11.415 -0.2132  0.2854 -0.4131
  149MOL0     O20038   1.980  10.558  11.531 -0.5993  0.0193 -0.1893
  149MOL0     C20039   1.849  10.507  11.523  0.5692  0.1636 -0.0491
  149MOL0     C20040   1.755  10.581  11.619  0.2365  1.1517  0.0488
  149MOL0     C20041   1.751  10.731  11.593  0.4364 -0.1590  0.1177
  149MOL0     C20042   1.630  10.795  11.663  0.1185 -0.0587 -1.4901
  149MOL0     C20043   1.620  10.930  11.613 -0.1989 -0.3022 -0.3217
  149MOL0     C20044   1.623  11.036  11.555 -0.0086 -0.1560  0.1321
  149MOL0     C20045   2.019  10.642  11.304  0.0896  0.1187  0.9870
  149MOL0     C20046   2.099  10.656  11.187  0.0544 -0.1129  1.1384
  149MOL0     C20047   2.043  10.762  11.095  0.1918  0.9770 -0.0599
  149MOL0     H20048   2.332  10.504  10.764  0.0376 -1.2223  1.4449
  149MOL0     H20049   2.519  10.448  10.593  4.2890 -1.6085 -1.0398
  149MOL0     H20050   2.962  10.445  10.710  1.1174 -0.8061  1.2994
  149MOL0     H20051   2.895  10.281  10.711 -0.8846 -0.7098 -2.0315
  149MOL0     H20052   3.004  10.426  10.486 -0.2307  1.1195  0.1746
  149MOL0     H20053   2.867  10.319  10.458  0.9759  1.8823 -1.5423
  149MOL0     H20054   2.989  10.130  10.556  0.1310  0.5917  2.4740
  149MOL0     H20055   3.125  10.227  10.616  2.0840 -1.8031 -1.9141
  149MOL0     H20056   3.063  10.152  10.338 -2.4140  1.2921  1.1384
  149MOL0     H20057   3.143  10.306  10.374 -2.2335 -1.1416 -1.5891
  149MOL0     H20058   3.339  10.196  10.467  0.7418  0.3766 -1.6043
  149MOL0     H20059   3.246  10.042  10.495  0.2801 -2.3497 -2.3149
  149MOL0     H20060   3.227  10.021  10.250 -1.3794  1.6518  0.3054
  149MOL0     H20061   3.370  10.124  10.234  1.0066 -2.6120 -0.8118
  149MOL0     H20062   3.376   9.890  10.427  1.4223 -1.4489 -0.5509
  149MOL0     H20063   3.504   9.990  10.350 -0.0646 -0.2697 -1.4607
  149MOL0     H20064   3.455   9.759  10.284  0.8253  2.8578  2.0112
  149MOL0     H20065   3.349   9.823  10.160  0.8910  1.7612 -1.3818
  149MOL0     H20066   3.705   9.856  10.248 -2.3095 -1.6285 -0.3896
  149MOL0     H20067   3.908  10.061  10.004 -2.9746  1.0409 -0.5070
  149MOL0     H20068   3.937   9.974  10.144  0.3750  2.4024 -1.0703
  149MOL0     H20069   3.893   9.856   9.869  2.0030  1.5391 -1.6394
  149MOL0     H20070   4.037   9.857   9.956 -0.2337  0.7807 -0.6303
  149MOL0     H20071   3.926   9.644   9.946 -0.0001  0.7399 -0.5621
  149MOL0     H20072   3.786   9.700  10.049  0.2253 -2.1144  0.8009
  149MOL0     H20073   3.937   9.584  10.205  0.6580 -0.9020 -0.7704
  149MOL0     H20074   3.958   9.757  10.224  0.8902  0.9398  0.4169
  149MOL0     H20075   4.050   9.464  10.335  0.8138 -1.1848 -1.2233
  149MOL0     H20076   4.218   9.366  10.466  0.3000 -0.6412 -0.3085
  149MOL0     H20077   4.826   9.464  10.565  1.6956 -0.4569  0.1026
  149MOL0     H20078   5.010   9.331  10.610  1.0269 -1.1451  1.3021
  149MOL0     H20079   4.965   9.078  10.776 -2.3194  0.8070 -1.9299
  149MOL0     H20080   4.949   8.923  10.682 -2.0331  1.5415  1.0019
  149MOL0     H20081   5.116   8.897  10.840  0.8134  1.2463  0.1461
  149MOL0     H20082   5.206   8.893  10.683  1.5639 -0.1600 -0.0380
  149MOL0     H20083   5.282   9.124  10.732 -1.2187 -0.3646 -0.6697
  149MOL0     H20084   5.184   9.121  10.884 -1.9164 -1.4745 -0.2911
  149MOL0     H20085   5.416   8.941  10.820  0.6577 -0.9574  1.2273
  149MOL0     H20086   5.316   8.942  10.968  0.5383 -0.6802  0.7911
  149MOL0     H20087   5.385   9.170  11.020  3.1844  0.4816  2.4703
  149MOL0     H20088   5.475   9.179  10.867  0.7066 -0.2725  0.6197
  149MOL0     H20089   5.508   8.979  11.089 -3.3936  1.2724 -0.5901
  149MOL0     H20090   5.610   8.980  10.949 -2.9436 -2.1485 -0.7793
  149MOL0     H20091   5.574   9.219  11.133 -1.3211  0.2397 -1.7913
  149MOL0     H20092   5.698   9.222  11.014  2.3878  0.4946  1.1168
  149MOL0     H20093   5.788   8.991  11.130  0.7414 -0.2166  1.4551
  149MOL0     H20094   5.837   9.143  11.207  0.3150  0.6330  0.4073
  149MOL0     H20095   4.805   8.984  10.454 -1.5228 -0.2672 -0.2364
  149MOL0     H20096   4.609   9.143  10.387  0.8642 -2.0692 -0.8786
  149MOL0     H20097   4.531   9.604  10.291 -0.1134 -1.0505 -1.6130
  149MOL0     H20098   4.356   9.721  10.153  0.1563  0.8830  0.5501
  149MOL0     H20099   2.797  10.391  10.911 -0.3909  0.7816  1.6225
  149MOL0     H20100   2.624  10.396  11.078 -0.3222 -0.4280 -0.4777
  149MOL0     H20101   2.330  10.434  11.276 -0.4035  1.2992  1.3023
  149MOL0     H20102   2.198  10.415  11.471 -0.6062 -2.1364 -1.6145
  149MOL0     H20103   1.845  10.405  11.562 -1.8101  0.1409 -0.2336
  149MOL0     H20104   1.813  10.501  11.420  0.1306 -1.5048  0.1882
  149MOL0     H20105   1.782  10.563  11.723  0.9649  2.2085  0.0592
  149MOL0     H20106   1.659  10.532  11.604  2.6801 -3.2978 -3.4304
  149MOL0     H20107   1.737  10.732  11.484 -0.9055  0.9615  0.2729
  149MOL0     H20108   1.843  10.783  11.619  0.7121 -2.0329  3.4053
  149MOL0     H20109   1.537  10.742  11.640  0.3517 -0.7661 -0.8469
  149MOL0     H20110   1.636  10.813  11.771 -2.8991  4.1343 -1.7444
  149MOL0     H20111   1.622  11.132  11.506  0.0656  0.3081  1.0262
  149MOL0     H20112   1.925  10.696  11.313 -1.6110 -2.5446  0.2680
  149MOL0     H20113   2.123  10.833  11.069 -0.6486  1.7072 -0.7507
  149MOL0     H20114   2.011  10.706  11.007 -0.7046  0.7883  0.3805
  149MOL0     H20115   1.950  10.805  11.132  0.5759  0.6838  1.3056
  150MOL0     O20116   9.020   3.107  10.580  0.7605 -0.0334  0.1207
  150MOL0     C20117   8.964   3.134  10.686  0.3860  0.5976  0.5433
  150MOL0     O20118   9.029   3.128  10.807  0.8280  0.1668 -0.7170
  150MOL0     C20119   9.149   3.064  10.823 -0.1594  0.8493  0.4117
  150MOL0     C20120   9.243   3.110  10.913  0.2376  0.4471  0.1553
  150MOL0     C20121   9.369   3.055  10.926 -0.2416  0.0478 -0.7318
  150MOL0     C20122   9.403   2.937  10.860 -0.0842 -0.1960 -0.7865
  150MOL0     O20123   9.529   2.885  10.861  0.0418  0.0908 -0.4265
  150MOL0     C20124   9.591   2.896  10.991  0.6347  0.0806 -0.4089
  150MOL0     C20125   9.726   2.824  10.986 -0.0202  0.7412  1.2337
  150MOL0     C20126   9.836   2.883  10.895  0.2179  0.3263  0.1167
  150MOL0     C20127   9.959   2.794  10.891  0.5683  0.1874 -0.3975
  150MOL0     C20128  10.037   2.785  11.025 -0.3101 -0.3790 -0.3073
  150MOL0     C20129  10.169   2.700  10.997  0.0393 -0.2003  0.7337
  150MOL0     C20130  10.248   2.671  11.125 -0.0233 -0.4025  0.0320
  150MOL0     C20131  10.368   2.590  11.087  0.6751  0.7099  0.0974
  150MOL0     N20132  10.438   2.634  10.964 -0.5438 -0.1669 -0.8854
  150MOL0     C20133  10.509   2.752  10.954 -0.6107 -0.2473 -0.1632
  150MOL0     C20134  10.557   2.747  10.819 -0.9942 -0.2483 -0.8614
  150MOL0     C20135  10.647   2.848  10.762  0.5409  0.2120  0.5648
  150MOL0     C20136  10.784   2.791  10.747 -0.2544 -0.5800  0.3562
  150MOL0     C20137  10.864   2.800  10.876  0.1477  0.1577 -0.2858
  150MOL0     C20138  11.003   2.743  10.859 -0.7282 -0.2101 -0.1803
  150MOL0     O20139  11.077   2.799  10.754  0.8499 -0.2176 -0.2540
  150MOL0     C20140  11.178   2.727  10.712  0.0039 -0.1710 -0.0190
  150MOL0     C20141  11.219   2.599  10.750 -0.2632 -0.2695 -0.5094
  150MOL0     C20142  11.321   2.535  10.677 -0.7118 -0.2362  0.1062
  150MOL0     C20143  11.389   2.600  10.571 -0.2163  0.1331  0.1028
  150MOL0     C20144  11.499   2.540  10.504  0.2498 -0.2434  0.5087
  150MOL0     O20145  11.574   2.624  10.430 -0.6826 -0.1388 -0.4232
  150MOL0     C20146  11.673   2.567  10.358 -0.9577  1.0228 -0.4348
  150MOL0     C20147  11.798   2.622  10.367 -0.5487 -0.4219  0.9294
  150MOL0     C20148  11.902   2.588  10.278  0.1105 -0.3783  0.0366
  150MOL0     C20149  11.883   2.486  10.183 -0.4282  0.0312 -1.2481
  150MOL0     O20150  11.988   2.467  10.099  0.5939 -0.1208 -0.2235
  150MOL0     C20151  11.950   2.423   9.967 -0.2968 -0.2783  0.7328
  150MOL0     C20152  12.063   2.448   9.869 -0.3412 -1.7086  0.1432
  150MOL0     C20153  12.161   2.329   9.859 -0.3368 -0.4355  0.1449
  150MOL0     C20154  12.293   2.374   9.791 -1.1822 -0.0565  0.6780
  150MOL0     C20155  12.382   2.265   9.722 -0.6723  0.3157  0.1351
  150MOL0     C20156  12.313   2.216   9.593 -0.1618  0.6913  0.0851
  150MOL0     C20157  12.403   2.106   9.530 -0.5738 -1.5210 -0.1070
  150MOL0     C20158  12.322   2.032   9.417 -0.5638 -0.5217  0.3118
  150MOL0    Cl20159  12.207   1.931   9.504  0.4609  0.1380 -0.1686
  150MOL0     C20160  11.758   2.415  10.184 -0.0711 -0.0758 -0.3580
  150MOL0     C20161  11.652   2.459  10.265  0.6140  0.0213  0.0887
  150MOL0     O20162  11.521   2.414  10.527 -0.1676 -0.2062  0.1774
  150MOL0     C20163  11.348   2.730  10.529  0.6185  0.5888 -0.3167
  150MOL0     C20164  11.239   2.795  10.598 -0.7982  0.5550  0.8887
  150MOL0     N20165  10.518   2.630  10.759  0.0349  1.0290  0.3570
  150MOL0     N20166  10.446   2.565  10.841  0.1870  0.2198  0.2933
  150MOL0     C20167   9.311   2.879  10.773 -0.9403  0.6273 -0.9736
  150MOL0     C20168   9.182   2.938  10.759 -0.1973 -0.5155 -0.7763
  150MOL0     C20169   8.816   3.174  10.679 -0.6359 -0.7130 -0.0428
  150MOL0     C20170   8.746   3.173  10.796 -0.0218  0.3715 -0.6667
  150MOL0     C20171   8.622   3.233  10.811 -0.3222  0.1371 -0.3128
  150MOL0     C20172   8.548   3.266  10.695 -0.2471 -0.2436  0.1477
  150MOL0     O20173   8.420   3.302  10.715 -0.0396 -0.0298 -0.1590
  150MOL0     C20174   8.335   3.373  10.619 -0.2148 -0.2431 -1.1145
  150MOL0     C20175   8.205   3.418  10.688 -0.1844 -0.2110  0.0727
  150MOL0     C20176   8.114   3.509  10.604  0.2693 -0.0253 -0.2767
  150MOL0     C20177   8.065   3.455  10.475  0.1527  1.3145  0.6204
  150MOL0     C20178   7.962   3.347  10.489 -0.4677 -1.0279 -0.0185
  150MOL0     C20179   7.878   3.265  10.487  0.2385  0.0233 -0.4530
  150MOL0     C20180   8.608   3.249  10.576 -0.1446  0.7596  0.3242
  150MOL0     C20181   8.742   3.205  10.561  0.7713  0.6783 -0.2774
  150MOL0     C20182   8.806   3.215  10.420 -0.1709  0.2219 -0.3517
  150MOL0     H20183   9.228   3.200  10.971  0.8054 -0.6428  2.0828
  150MOL0     H20184   9.439   3.114  10.984  1.6826 -2.1912 -0.6238
  150MOL0     H20185   9.602   2.996  11.034 -2.3324 -0.2137  1.2702
  150MOL0     H20186   9.527   2.851  11.067  1.4339  2.5932  1.9254
  150MOL0     H20187   9.716   2.723  10.945 -0.6653  1.4848 -0.5852
  150MOL0     H20188   9.768   2.819  11.086 -0.3090 -1.5439  1.2766
  150MOL0     H20189   9.863   2.983  10.931  1.1062 -0.0067  0.3962
  150MOL0     H20190   9.799   2.898  10.793 -0.7972 -1.9180  0.0873
  150MOL0     H20191   9.923   2.695  10.864 -2.2017 -0.4585  4.3911
  150MOL0     H20192  10.024   2.830  10.811 -0.8845 -0.0233 -1.7269
  150MOL0     H20193  10.064   2.886  11.058 -1.0045 -0.2652 -0.0756
  150MOL0     H20194   9.979   2.736  11.104 -1.6714 -0.1219 -1.1288
  150MOL0     H20195  10.145   2.612  10.936  1.9361  0.2346 -0.7480
  150MOL0     H20196  10.227   2.754  10.922 -0.3679 -0.6876  0.0564
  150MOL0     H20197  10.190   2.610  11.195 -1.1420  0.6632  0.0706
  150MOL0     H20198  10.272   2.759  11.186  2.3209 -0.9990  0.0951
  150MOL0     H20199  10.449   2.577  11.159  2.7578 -1.6522 -2.4588
  150MOL0     H20200  10.319   2.493  11.075  1.8504 -0.0060  0.9246
  150MOL0     H20201  10.521   2.828  11.031 -0.1852 -0.3425 -0.1328
  150MOL0     H20202  10.615   2.880  10.662  0.2165  0.3621  0.7184
  150MOL0     H20203  10.659   2.936  10.826 -0.3497  1.3175 -0.7307
  150MOL0     H20204  10.766   2.689  10.711  1.1920 -0.7665  0.1064
  150MOL0     H20205  10.844   2.839  10.669 -2.6974  1.9909 -0.0849
  150MOL0     H20206  10.813   2.743  10.954 -0.8154 -0.1938 -1.1571
  150MOL0     H20207  10.876   2.906  10.901 -3.6693  0.6657 -0.0799
  150MOL0     H20208  10.984   2.636  10.849  0.4521 -0.4359 -0.2183
  150MOL0     H20209  11.072   2.743  10.944  0.1346 -1.4361 -0.8480
  150MOL0     H20210  11.173   2.538  10.827  0.3818  0.2765  0.3188
  150MOL0     H20211  11.351   2.436  10.710 -2.2458 -0.0498  2.1979
  150MOL0     H20212  11.819   2.706  10.433  0.3500  2.5517 -2.7895
  150MOL0     H20213  11.990   2.650  10.266  1.7131 -2.1770  1.7874
  150MOL0     H20214  11.923   2.317   9.969 -2.0013  0.0892 -0.1131
  150MOL0     H20215  11.861   2.479   9.937 -0.8249 -0.8871  1.1118
  150MOL0     H20216  12.014   2.464   9.773  1.3308  2.2712 -0.2212
  150MOL0     H20217  12.121   2.537   9.896  0.0662 -1.8154 -0.3661
  150MOL0     H20218  12.180   2.291   9.960 -0.7059  3.0781  1.6810
  150MOL0     H20219  12.109   2.251   9.802  1.5838  0.3915 -2.9121
  150MOL0     H20220  12.352   2.426   9.867  1.2009 -0.8148 -0.5541
  150MOL0     H20221  12.270   2.447   9.714  2.1886 -0.8253 -1.2355
  150MOL0     H20222  12.392   2.188   9.799 -0.4626  1.0968  0.9096
  150MOL0     H20223  12.482   2.298   9.691  0.8469 -3.1103  0.8558
  150MOL0     H20224  12.211   2.185   9.618 -0.1511 -0.2688 -0.9891
  150MOL0     H20225  12.303   2.309   9.536 -3.2487  0.2028 -0.3725
  150MOL0     H20226  12.426   2.039   9.614 -1.8051 -0.4343  1.1305
  150MOL0     H20227  12.492   2.147   9.482 -1.6587 -1.3542 -2.0801
  150MOL0     H20228  12.258   2.094   9.354  0.5516  0.8699  0.4939
  150MOL0     H20229  12.377   1.964   9.352 -3.2212 -1.8869 -0.6796
  150MOL0     H20230  11.734   2.331  10.120  1.3334  0.7455 -2.0308
  150MOL0     H20231  11.558   2.407  10.255  0.1144  1.1067 -1.1251
  150MOL0     H20232  11.399   2.777  10.446  2.6090 -1.4696 -0.3473
  150MOL0     H20233  11.206   2.893  10.566  0.3934  0.7875  0.3288
  150MOL0     H20234   9.343   2.789  10.722 -0.7483  0.7119 -1.0033
  150MOL0     H20235   9.112   2.891  10.691  1.8197 -0.9609 -2.6779
  150MOL0     H20236   8.789   3.151  10.893 -1.7881  0.7184  0.2401
  150MOL0     H20237   8.564   3.239  10.902 -2.4267 -1.7450 -1.4280
  150MOL0     H20238   8.319   3.304  10.535  1.0777  0.2192 -1.7711
  150MOL0     H20239   8.385   3.466  10.593 -1.6272  2.2492  3.9514
  150MOL0     H20240   8.228   3.461  10.786 -1.4524 -0.1787  0.3713
  150MOL0     H20241   8.140   3.331  10.708 -0.9009  0.2391 -0.2638
  150MOL0     H20242   8.165   3.605  10.594  2.4093 -0.9465  1.0956
  150MOL0     H20243   8.028   3.531  10.669  0.4032 -0.6771  0.1249
  150MOL0     H20244   8.007   3.529  10.420 -3.6898 -0.1393  2.3489
  150MOL0     H20245   8.149   3.412  10.420 -0.1705 -0.1226  1.1794
  150MOL0     H20246   7.788   3.207  10.492  1.3932 -1.7974  0.5712
  150MOL0     H20247   8.551   3.262  10.485 -0.7891  0.6037  0.6942
  150MOL0     H20248   8.863   3.308  10.415 -3.1087  2.1259 -1.2631
  150MOL0     H20249   8.867   3.130  10.388  1.0589  0.6320  0.7986
  150MOL0     H20250   8.723   3.221  10.349 -1.1115  3.4878  0.8402
  151MOL0     O20251   1.837  10.922   1.589 -0.0929 -0.3060 -0.8126
  151MOL0     C20252   1.809  10.998   1.504 -0.3120 -0.2804  0.0200
  151MOL0     O20253   1.876  11.117   1.484  0.2150 -0.4113  0.6125
  151MOL0     C20254   1.980  11.145   1.571  0.1660 -0.3949  1.1948
  151MOL0     C20255   2.107  11.133   1.513 -0.7133  0.1670 -0.0518
  151MOL0     C20256   2.219  11.167   1.591 -0.4230 -0.8019  0.2643
  151MOL0     C20257   2.210  11.200   1.729  0.0516 -0.3983  0.2630
  151MOL0     O20258   2.310  11.229   1.811 -0.0867 -0.1635 -0.0514
  151MOL0     C20259   2.443  11.187   1.782 -0.7358 -0.1270  0.0575
  151MOL0     C20260   2.520  11.191   1.907  0.3985  0.2023 -0.2624
  151MOL0     C20261   2.662  11.136   1.885  0.3979 -0.9391 -0.4393
  151MOL0     C20262   2.739  11.139   2.023 -0.0165 -0.6762 -0.6343
  151MOL0     C20263   2.898  11.140   2.029  0.2749  0.5920 -0.4780
  151MOL0     C20264   2.953  11.051   1.921  0.0881 -0.1449  0.4401
  151MOL0     C20265   3.107  11.063   1.914 -0.6423  0.0127 -1.1781
  151MOL0     C20266   3.165  11.003   2.045  0.2150  0.2727 -0.2044
  151MOL0     N20267   3.313  11.019   2.034 -0.7775  0.0427 -0.2696
  151MOL0     C20268   3.393  10.991   1.924 -0.1329 -0.2167  0.1206
  151MOL0     C20269   3.508  11.054   1.952 -0.5850  0.3007 -0.3334
  151MOL0     C20270   3.622  11.049   1.857  0.4805  0.3757  0.4380
  151MOL0     C20271   3.702  10.925   1.889  0.1064 -0.1626  0.3666
  151MOL0     C20272   3.822  10.894   1.802 -0.3970  0.2106  0.3301
  151MOL0     C20273   3.941  10.997   1.811 -0.3613 -0.1052  0.1464
  151MOL0     O20274   4.059  10.932   1.748  0.0981  0.1903 -1.0683
  151MOL0     C20275   4.191  10.974   1.760 -0.0471 -0.0019 -0.1402
  151MOL0     C20276   4.296  10.900   1.701  0.7197  0.3018  0.4959
  151MOL0     C20277   4.423  10.919   1.721 -0.7041  0.1789  0.9462
  151MOL0     C20278   4.465  11.034   1.790  0.6436 -0.3362  0.3818
  151MOL0     C20279   4.609  11.055   1.816  0.3057  0.1933 -0.3397
  151MOL0     O20280   4.689  10.960   1.778  0.1906  0.3710 -0.4029
  151MOL0     C20281   4.814  10.933   1.836  0.6383 -0.0179  0.2180
  151MOL0     C20282   4.902  11.037   1.880  0.0006  0.2292  0.9269
  151MOL0     C20283   5.022  10.998   1.946  0.0413 -0.6195  0.7491
  151MOL0     C20284   5.063  10.865   1.954 -0.1267  0.1720 -0.1554
  151MOL0     O20285   5.179  10.844   2.019 -0.4047  0.1730  0.3717
  151MOL0     C20286   5.183  10.724   2.098  0.1301 -0.2308 -0.7413
  151MOL0     C20287   5.279  10.734   2.219 -0.4379  0.4881  0.6409
  151MOL0     C20288   5.243  10.862   2.298 -0.4422  0.5272 -0.3094
  151MOL0     C20289   5.122  10.860   2.382  0.0829 -0.0025 -0.6314
  151MOL0     C20290   4.991  10.864   2.303 -0.5299  0.3128 -0.4487
  151MOL0     C20291   4.885  10.952   2.375  0.7129  0.4362  0.1887
  151MOL0     C20292   4.758  10.977   2.300  0.0014 -0.5629  0.3786
  151MOL0     C20293   4.681  10.853   2.267 -1.2341  0.2663  0.4529
  151MOL0    Cl20294   4.518  10.889   2.238  0.0369  0.1832  0.1054
  151MOL0     C20295   4.973  10.770   1.905  0.2571  0.0211 -0.4328
  151MOL0     C20296   4.850  10.802   1.844 -0.8579 -0.2337 -0.4827
  151MOL0     O20297   4.644  11.155   1.886  0.4525  0.6818 -0.3048
  151MOL0     C20298   4.371  11.123   1.845  0.3546  0.2926  0.2375
  151MOL0     C20299   4.231  11.085   1.835  0.8165 -0.6574 -0.0031
  151MOL0     N20300   3.504  11.115   2.073  1.0085  0.2624  0.2637
  151MOL0     N20301   3.382  11.105   2.120 -0.7606  0.3971 -0.2185
  151MOL0     C20302   2.078  11.220   1.781  0.8749  0.6847 -0.0054
  151MOL0     C20303   1.968  11.189   1.702  0.0450  0.9208 -0.2305
  151MOL0     C20304   1.708  10.959   1.413  0.3148  0.5226  0.0904
  151MOL0     C20305   1.715  10.833   1.350  0.9661 -0.3840  0.0971
  151MOL0     C20306   1.624  10.802   1.252 -0.6403  0.2003  0.1741
  151MOL0     C20307   1.523  10.895   1.222 -0.3354  0.1785 -0.1944
  151MOL0     O20308   1.443  10.878   1.114  0.3106  0.8615  0.2288
  151MOL0     C20309   1.464  10.965   0.999  0.0822 -0.5034 -1.2912
  151MOL0     C20310   1.585  10.914   0.911 -0.4599 -0.8501 -0.2351
  151MOL0     C20311   1.562  10.779   0.853  0.7747 -0.0016 -0.0620
  151MOL0     C20312   1.674  10.732   0.774 -0.0647 -0.4683  0.7447
  151MOL0     C20313   1.649  10.593   0.726 -0.3311  0.0196  0.5048
  151MOL0     C20314   1.628  10.487   0.669 -0.1257  0.0069 -0.7862
  151MOL0     C20315   1.506  11.015   1.283  0.2613 -0.0083 -0.6365
  151MOL0     C20316   1.609  11.049   1.379  1.1074  0.6676  0.2160
  151MOL0     C20317   1.601  11.181   1.451  0.3884 -0.2046  0.3380
  151MOL0     H20318   2.102  11.094   1.412  0.1319  1.9644 -0.8448
  151MOL0     H20319   2.323  11.160   1.560  0.3195 -0.6797  2.5469
  151MOL0     H20320   2.453  11.093   1.726 -1.8375  0.1391 -0.6137
  151MOL0     H20321   2.485  11.267   1.722 -2.0538  1.1443  0.7675
  151MOL0     H20322   2.453  11.138   1.976 -0.9728 -1.0841 -2.4412
  151MOL0     H20323   2.519  11.294   1.945 -4.2020 -1.2247  4.9883
  151MOL0     H20324   2.712  11.204   1.815 -1.1531  0.7235 -0.0062
  151MOL0     H20325   2.663  11.031   1.855  1.0029 -1.4582  1.3018
  151MOL0     H20326   2.699  11.224   2.079  0.8949  0.7838 -2.1145
  151MOL0     H20327   2.709  11.050   2.078 -1.2134 -1.2406 -2.1462
  151MOL0     H20328   2.932  11.242   2.015  2.3279 -0.1638 -1.4278
  151MOL0     H20329   2.920  11.096   2.127 -2.3388  1.4296  0.5448
  151MOL0     H20330   2.923  10.952   1.955 -1.6572  0.6020  1.2376
  151MOL0     H20331   2.918  11.078   1.821 -2.1452  1.5886  1.5938
  151MOL0     H20332   3.142  11.165   1.895 -0.2711  0.4657  1.5315
  151MOL0     H20333   3.144  11.007   1.827  1.4848 -0.8993  0.2138
  151MOL0     H20334   3.120  11.047   2.135 -2.4491 -2.1559 -0.2147
  151MOL0     H20335   3.142  10.896   2.042  1.4479  0.0184 -2.1776
  151MOL0     H20336   3.386  10.926   1.838  3.7706 -0.3210 -0.3008
  151MOL0     H20337   3.595  11.039   1.752  1.5634 -3.1573  0.3392
  151MOL0     H20338   3.687  11.136   1.867  0.9277  0.4876 -2.5051
  151MOL0     H20339   3.725  10.924   1.996 -3.8379  1.0676  1.4000
  151MOL0     H20340   3.628  10.848   1.866 -0.9295  0.4504  1.5215
  151MOL0     H20341   3.784  10.891   1.700 -1.6183 -0.0874  0.7797
  151MOL0     H20342   3.866  10.799   1.832  0.1737 -0.0740 -1.3178
  151MOL0     H20343   3.947  11.029   1.915 -0.8721  0.4209  0.0182
  151MOL0     H20344   3.915  11.088   1.756  0.8938 -0.2628 -0.7560
  151MOL0     H20345   4.260  10.828   1.628 -0.7627 -0.2659  1.7338
  151MOL0     H20346   4.499  10.861   1.670 -0.6274  0.6798  0.4816
  151MOL0     H20347   4.884  11.142   1.863  2.2462  0.1188 -3.3990
  151MOL0     H20348   5.088  11.082   1.965 -2.0245  0.8560  1.7648
  151MOL0     H20349   5.082  10.694   2.125 -1.3360  1.7202 -3.5802
  151MOL0     H20350   5.221  10.642   2.037 -2.9720 -1.7174 -0.8377
  151MOL0     H20351   5.284  10.639   2.273 -1.0732  1.5783  2.7383
  151MOL0     H20352   5.379  10.757   2.181 -0.5924 -0.1974 -0.1893
  151MOL0     H20353   5.329  10.880   2.363  1.8976  2.0669 -3.5353
  151MOL0     H20354   5.240  10.943   2.224  0.1728  2.2298  1.4299
  151MOL0     H20355   5.120  10.939   2.457 -1.5372 -0.1998 -0.4368
  151MOL0     H20356   5.121  10.766   2.437  1.4622  0.7550  0.7523
  151MOL0     H20357   4.953  10.762   2.297  0.2209 -0.0419  0.5324
  151MOL0     H20358   5.010  10.897   2.201 -0.9742 -0.5799 -0.8272
  151MOL0     H20359   4.864  10.916   2.476 -0.5328 -1.3046 -0.6390
  151MOL0     H20360   4.932  11.051   2.384  0.1865  0.7912 -0.8555
  151MOL0     H20361   4.775  11.035   2.209 -1.1978 -1.6676 -0.6016
  151MOL0     H20362   4.694  11.031   2.370  1.5252 -0.0930  1.4552
  151MOL0     H20363   4.731  10.825   2.174  0.3073  2.1115  0.6475
  151MOL0     H20364   4.691  10.778   2.345  2.7854  1.0869  0.9653
  151MOL0     H20365   5.008  10.667   1.912 -0.7529 -0.3396 -0.5135
  151MOL0     H20366   4.798  10.714   1.809 -1.7038 -0.3715  1.0327
  151MOL0     H20367   4.397  11.206   1.910  1.5663  0.2350 -0.1512
  151MOL0     H20368   4.149  11.134   1.887 -0.4383 -3.9103  1.3399
  151MOL0     H20369   2.064  11.245   1.885  0.6031  3.2468 -0.5782
  151MOL0     H20370   1.869  11.215   1.737  1.3017  2.9958  2.0340
  151MOL0     H20371   1.788  10.757   1.377 -0.4246 -2.3236 -1.3074
  151MOL0     H20372   1.644  10.720   1.184  0.1998  0.9754 -0.5517
  151MOL0     H20373   1.478  11.070   1.027 -1.2266 -0.0853 -2.1304
  151MOL0     H20374   1.378  10.961   0.931 -0.2290  2.4448 -1.2249
  151MOL0     H20375   1.667  10.922   0.982 -2.6839 -1.2416  2.5831
  151MOL0     H20376   1.603  10.982   0.827 -4.0204  0.9034  0.1983
  151MOL0     H20377   1.473  10.783   0.790  0.4733 -3.2261 -0.0350
  151MOL0     H20378   1.536  10.714   0.937 -0.9441  0.5946 -0.1055
  151MOL0     H20379   1.693  10.794   0.686  0.9680 -1.3171  0.3571
  151MOL0     H20380   1.757  10.733   0.845  0.0695  0.4658  0.5874
  151MOL0     H20381   1.619  10.401   0.607 -2.1797  1.1771 -2.2469
  151MOL0     H20382   1.421  11.076   1.253 -0.3693 -2.8449 -5.6654
  151MOL0     H20383   1.583  11.175   1.559  1.1175 -0.6868  0.4354
  151MOL0     H20384   1.683  11.248   1.427 -0.0586  0.0610 -0.4915
  151MOL0     H20385   1.511  11.228   1.410 -0.1706 -1.8765 -0.4594
  152MOL0     O20386   9.023   0.359   4.159 -0.2049 -0.6202 -0.0550
  152MOL0     C20387   8.901   0.378   4.150  0.2261  0.1848 -0.0984
  152MOL0     O20388   8.834   0.509   4.137 -0.1441 -0.0858 -1.1161
  152MOL0     C20389   8.931   0.607   4.140 -0.4946 -0.1829 -0.6049
  152MOL0     C20390   8.966   0.673   4.252 -0.6859 -0.3042 -0.3773
  152MOL0     C20391   9.054   0.776   4.243  1.2569 -0.4326  0.5486
  152MOL0     C20392   9.088   0.842   4.129 -0.4232  0.6332 -0.5388
  152MOL0     O20393   9.163   0.958   4.127  0.2204  0.0044  0.2074
  152MOL0     C20394   9.306   0.942   4.124  0.1242 -0.3914 -0.2088
  152MOL0     C20395   9.357   0.901   3.983 -0.5654  0.0618 -0.6009
  152MOL0     C20396   9.511   0.931   3.977 -0.3767 -1.2725 -0.1151
  152MOL0     C20397   9.599   0.827   3.898 -0.4693 -0.2400 -0.4444
  152MOL0     C20398   9.756   0.849   3.903  0.2410 -0.4331 -0.2692
  152MOL0     C20399   9.805   0.743   3.799 -1.3604 -0.4076  0.2995
  152MOL0     C20400   9.954   0.723   3.807 -0.5554  0.5443  0.9146
  152MOL0     C20401  10.006   0.625   3.697 -0.5123  1.0145 -0.1558
  152MOL0     N20402  10.140   0.575   3.721 -0.6585  1.0751 -0.1910
  152MOL0     C20403  10.183   0.450   3.755 -1.0943  1.4670 -0.6726
  152MOL0     C20404  10.321   0.467   3.788 -0.7573 -0.2302 -0.2215
  152MOL0     C20405  10.426   0.363   3.810 -0.0203  0.6549  0.1768
  152MOL0     C20406  10.368   0.228   3.832  0.3385 -0.0351 -0.4830
  152MOL0     C20407  10.448   0.142   3.934 -0.2399 -0.3391  0.2507
  152MOL0     C20408  10.592   0.118   3.891 -0.6644  0.4713 -0.1990
  152MOL0     O20409  10.667   0.040   3.996  0.0401  0.4348  0.7347
  152MOL0     C20410  10.788  -0.017   3.967 -0.1456  0.3245  0.7014
  152MOL0     C20411  10.841  -0.040   3.837 -0.0748  0.5622 -0.2593
  152MOL0     C20412  10.970  -0.091   3.824 -0.1114 -1.1546 -1.0926
  152MOL0     C20413  11.047  -0.136   3.936  0.3270  0.5769  0.6849
  152MOL0     C20414  11.184  -0.181   3.913  0.1516 -0.4046  0.2249
  152MOL0     O20415  11.259  -0.188   4.021  0.2100 -0.3206  0.0850
  152MOL0     C20416  11.397  -0.210   4.017  0.3546  0.3666 -0.1704
  152MOL0     C20417  11.440  -0.270   4.136  0.5165 -0.5192 -0.0451
  152MOL0     C20418  11.576  -0.298   4.149 -0.1770 -0.2949  0.0292
  152MOL0     C20419  11.666  -0.249   4.049  0.1229  1.2892  0.9401
  152MOL0     O20420  11.793  -0.279   4.079 -0.1882  0.7916 -0.1351
  152MOL0     C20421  11.883  -0.342   3.985  0.0360  0.1723  0.0986
  152MOL0     C20422  12.032  -0.306   4.017  0.8620 -0.6885 -0.0182
  152MOL0     C20423  12.061  -0.397   4.136 -0.1161 -0.0227  0.5122
  152MOL0     C20424  12.207  -0.385   4.170 -0.2394  0.2471 -0.3034
  152MOL0     C20425  12.264  -0.492   4.263 -0.2625 -0.5309  0.5419
  152MOL0     C20426  12.416  -0.475   4.280  0.3640  0.2360 -0.2075
  152MOL0     C20427  12.464  -0.579   4.384  0.5405 -0.2848  1.3725
  152MOL0     C20428  12.619  -0.568   4.392  0.5001  0.8365 -0.4404
  152MOL0    Cl20429  12.675  -0.665   4.533 -0.0796  0.0305  0.1280
  152MOL0     C20430  11.622  -0.185   3.934 -0.1149  1.2514 -0.3087
  152MOL0     C20431  11.487  -0.167   3.916  0.4987  0.4282  1.1742
  152MOL0     O20432  11.208  -0.237   3.809  0.0058 -1.3338  0.1610
  152MOL0     C20433  10.977  -0.143   4.059 -0.1524 -0.1509  0.1200
  152MOL0     C20434  10.854  -0.074   4.078 -0.5670  0.0618 -0.1463
  152MOL0     N20435  10.340   0.599   3.789  0.3779 -0.0610  0.6711
  152MOL0     N20436  10.239   0.670   3.749  0.1076  0.0232 -0.3958
  152MOL0     C20437   9.054   0.777   4.015 -0.6819 -0.4969 -0.4555
  152MOL0     C20438   8.970   0.663   4.014 -0.8338 -0.7113 -0.0755
  152MOL0     C20439   8.815   0.255   4.140 -0.1249 -0.5747  0.6092
  152MOL0     C20440   8.685   0.267   4.187  0.0003 -0.0499 -0.0416
  152MOL0     C20441   8.597   0.162   4.222 -0.1146 -0.7338  1.5439
  152MOL0     C20442   8.640   0.029   4.210  0.5884 -0.5984 -0.1020
  152MOL0     O20443   8.571  -0.092   4.241 -0.0150  0.2242  0.3381
  152MOL0     C20444   8.431  -0.067   4.245  0.4172  0.0900  0.6481
  152MOL0     C20445   8.354  -0.201   4.233  0.0973  0.5249  0.4231
  152MOL0     C20446   8.316  -0.231   4.086 -0.0121  0.1938  2.1240
  152MOL0     C20447   8.255  -0.371   4.080 -0.7194 -0.2564  0.3923
  152MOL0     C20448   8.125  -0.390   4.141 -0.2258 -0.1483 -0.3315
  152MOL0     C20449   8.024  -0.410   4.199  0.7615 -0.0469  0.3468
  152MOL0     C20450   8.770   0.015   4.150 -0.4139  0.4625 -0.5799
  152MOL0     C20451   8.856   0.124   4.116  0.2844  0.0447  0.5314
  152MOL0     C20452   8.988   0.089   4.056  0.0298  0.4783 -0.2208
  152MOL0     H20453   8.933   0.632   4.346  1.1475 -0.8177  0.0706
  152MOL0     H20454   9.097   0.806   4.339  0.5544  3.2375 -0.1211
  152MOL0     H20455   9.349   1.039   4.149  2.2213 -1.2132 -0.4631
  152MOL0     H20456   9.340   0.869   4.198 -0.4616 -1.4122 -0.9130
  152MOL0     H20457   9.299   0.950   3.904  1.0674  0.2950 -1.6986
  152MOL0     H20458   9.350   0.794   3.961  0.5032 -0.1068 -0.1629
  152MOL0     H20459   9.546   0.931   4.080 -1.7418 -1.6837  0.3613
  152MOL0     H20460   9.531   1.033   3.941 -2.3103 -1.4838 -1.9569
  152MOL0     H20461   9.589   0.730   3.948  0.7701  0.5573  1.4700
  152MOL0     H20462   9.570   0.823   3.792  1.5922  1.7684 -1.1728
  152MOL0     H20463   9.778   0.952   3.872 -2.7348  0.1763 -0.7076
  152MOL0     H20464   9.791   0.831   4.005 -3.7335  0.2465  1.4127
  152MOL0     H20465   9.761   0.647   3.827  0.7478 -0.7520  2.7585
  152MOL0     H20466   9.776   0.777   3.699 -0.8219 -2.7810 -0.7292
  152MOL0     H20467   9.969   0.667   3.900 -1.4894 -2.6031 -0.6941
  152MOL0     H20468  10.010   0.817   3.803  0.2968  0.0250 -1.9871
  152MOL0     H20469   9.936   0.541   3.703  4.1948 -3.2687  4.9255
  152MOL0     H20470  10.001   0.672   3.598 -1.4393 -3.4000 -2.4675
  152MOL0     H20471  10.134   0.354   3.738  2.2290  0.1197 -4.1527
  152MOL0     H20472  10.475   0.357   3.713 -0.6138 -0.8493 -0.0561
  152MOL0     H20473  10.498   0.395   3.885  0.3436 -0.1806  0.2024
  152MOL0     H20474  10.271   0.247   3.879  0.7239  1.4133 -0.2324
  152MOL0     H20475  10.344   0.178   3.738  0.1404 -1.5062  0.3170
  152MOL0     H20476  10.388   0.052   3.948 -0.7565 -0.0922 -0.3324
  152MOL0     H20477  10.456   0.189   4.032  0.6329 -1.5774  0.7973
  152MOL0     H20478  10.659   0.203   3.871  0.5694  0.2442  2.5589
  152MOL0     H20479  10.590   0.041   3.813 -3.2294  0.7520 -0.4929
  152MOL0     H20480  10.779  -0.007   3.754  1.6166  2.7427 -0.7345
  152MOL0     H20481  11.016  -0.109   3.727  2.6631  0.6875 -0.2182
  152MOL0     H20482  11.373  -0.305   4.215  2.2351  2.5398  3.0556
  152MOL0     H20483  11.616  -0.356   4.232 -0.3612 -0.3003  0.1149
  152MOL0     H20484  11.873  -0.451   3.987  0.3864  0.0435 -2.0024
  152MOL0     H20485  11.859  -0.310   3.883  2.2403 -1.0908 -0.8932
  152MOL0     H20486  12.099  -0.327   3.933  1.4990 -2.2891  0.8513
  152MOL0     H20487  12.042  -0.199   4.040  2.3871 -0.8175  0.0671
  152MOL0     H20488  11.996  -0.384   4.223  5.0654 -0.9496  5.0798
  152MOL0     H20489  12.050  -0.501   4.102 -0.4398 -0.4808  1.9685
  152MOL0     H20490  12.227  -0.291   4.222 -0.2836 -0.5661  1.2193
  152MOL0     H20491  12.272  -0.386   4.082  0.9748 -0.8607  0.5719
  152MOL0     H20492  12.232  -0.576   4.201 -2.2417  1.4346 -1.2781
  152MOL0     H20493  12.203  -0.487   4.354 -3.7444 -1.5974 -1.5200
  152MOL0     H20494  12.464  -0.491   4.183  0.7622  0.9856 -0.1498
  152MOL0     H20495  12.448  -0.375   4.311  0.7408  0.6734 -1.9414
  152MOL0     H20496  12.431  -0.675   4.342 -0.6991  1.6643 -2.4871
  152MOL0     H20497  12.423  -0.559   4.484 -1.3186  1.9706  0.2488
  152MOL0     H20498  12.676  -0.591   4.301 -0.9174  0.2674 -1.2053
  152MOL0     H20499  12.647  -0.464   4.409  0.1937  1.3357 -2.6965
  152MOL0     H20500  11.697  -0.151   3.863  2.0152 -0.9478  0.7427
  152MOL0     H20501  11.441  -0.124   3.828 -2.0788  0.6236  2.5189
  152MOL0     H20502  11.032  -0.172   4.147 -1.9089  0.1039  1.3604
  152MOL0     H20503  10.808  -0.062   4.175  1.4272  1.3139  0.7089
  152MOL0     H20504   9.085   0.804   3.914 -1.2872 -1.8998 -1.0486
  152MOL0     H20505   8.941   0.611   3.924  1.2861 -0.0947 -1.1955
  152MOL0     H20506   8.648   0.369   4.187  2.5620  1.0084 -1.9062
  152MOL0     H20507   8.497   0.183   4.260 -0.3964  0.8543  0.0433
  152MOL0     H20508   8.402  -0.016   4.152  0.1435 -1.7045 -0.2920
  152MOL0     H20509   8.399  -0.009   4.332 -1.9593 -0.2642  0.0738
  152MOL0     H20510   8.256  -0.188   4.280 -0.3667  0.8593 -0.6031
  152MOL0     H20511   8.417  -0.277   4.280  1.7758  1.3367 -0.4196
  152MOL0     H20512   8.397  -0.234   4.013 -3.6718  1.8259 -2.4917
  152MOL0     H20513   8.237  -0.160   4.059 -0.2473  0.0969  2.5453
  152MOL0     H20514   8.259  -0.410   3.978 -0.8492  1.3909 -0.2775
  152MOL0     H20515   8.324  -0.437   4.133  1.1192 -0.0557 -1.6349
  152MOL0     H20516   7.936  -0.438   4.253  1.5568  0.7365  2.1158
  152MOL0     H20517   8.806  -0.087   4.142 -0.1102  0.4192  1.0052
  152MOL0     H20518   8.985  -0.015   4.021 -4.4114  1.3705 -3.3618
  152MOL0     H20519   9.007   0.153   3.969 -1.7903 -1.1946 -1.9529
  152MOL0     H20520   9.073   0.106   4.122  0.1850 -1.1928  0.0441
  153MOL0     O20521   5.806   0.979   0.397 -0.1202 -0.4152 -0.3884
  153MOL0     C20522   5.744   0.996   0.495 -0.5456  0.3148 -0.4099
  153MOL0     O20523   5.799   1.046   0.607  0.4997 -0.4311  0.2323
  153MOL0     C20524   5.934   1.016   0.639 -0.2642 -0.3269 -0.3528
  153MOL0     C20525   5.993   1.119   0.712 -0.5801 -0.2359  0.6263
  153MOL0     C20526   6.131   1.105   0.746  0.1435 -0.6781  0.0142
  153MOL0     C20527   6.196   0.985   0.720 -0.0105 -0.8275 -0.5567
  153MOL0     O20528   6.323   0.970   0.775  0.4948  0.0222 -0.3272
  153MOL0     C20529   6.417   1.073   0.770  0.3616  0.2313 -0.3257
  153MOL0     C20530   6.544   1.023   0.819  0.0717 -0.1940  0.0640
  153MOL0     C20531   6.554   0.979   0.962 -0.3624 -0.1113 -0.6051
  153MOL0     C20532   6.698   0.952   1.001 -0.7001 -0.0916  0.5018
  153MOL0     C20533   6.710   0.911   1.149 -0.2939 -0.6614 -0.3254
  153MOL0     C20534   6.851   0.883   1.195  0.3335 -0.0003  0.4017
  153MOL0     C20535   6.849   0.857   1.350  0.0431  0.1804  0.8020
  153MOL0     C20536   6.985   0.839   1.412 -0.8175 -0.8390  0.2761
  153MOL0     N20537   7.091   0.787   1.323  0.0002  0.1682 -0.2290
  153MOL0     C20538   7.196   0.859   1.272  0.8774  0.0467 -0.3775
  153MOL0     C20539   7.257   0.776   1.184 -0.4107 -0.3439  0.2989
  153MOL0     C20540   7.382   0.816   1.113  0.4147  0.2687  0.1948
  153MOL0     C20541   7.344   0.858   0.962 -0.3227 -0.4137 -0.5210
  153MOL0     C20542   7.457   0.919   0.886 -0.4827 -1.0100 -0.6262
  153MOL0     C20543   7.400   0.954   0.747  0.2171  0.1134 -0.2356
  153MOL0     O20544   7.442   1.085   0.709 -0.4605 -0.1888  0.0097
  153MOL0     C20545   7.553   1.096   0.633 -0.6749 -0.1147  0.0150
  153MOL0     C20546   7.570   1.221   0.573 -0.3971  0.0152 -0.4828
  153MOL0     C20547   7.681   1.245   0.484  0.1519  0.5004 -0.5894
  153MOL0     C20548   7.784   1.145   0.466  0.2905 -0.2905  0.9121
  153MOL0     C20549   7.891   1.171   0.374 -0.6221  0.5020  0.7240
  153MOL0     O20550   7.885   1.289   0.310 -0.4115  0.7637  0.0335
  153MOL0     C20551   7.995   1.320   0.231  0.1428  0.0327  1.0461
  153MOL0     C20552   8.007   1.268   0.101 -0.1399 -0.7621  0.0788
  153MOL0     C20553   8.113   1.309   0.022 -0.4095 -0.5049  0.3463
  153MOL0     C20554   8.206   1.409   0.062  0.1462 -0.8218  0.2530
  153MOL0     O20555   8.312   1.456  -0.016  0.4307  0.4700 -0.0643
  153MOL0     C20556   8.392   1.365  -0.091  1.0548  0.0083  0.4193
  153MOL0     C20557   8.528   1.430  -0.125  0.1902  0.0149 -0.8927
  153MOL0     C20558   8.604   1.499  -0.005 -0.8540 -0.1402  0.3467
  153MOL0     C20559   8.723   1.568  -0.048 -0.3383 -0.3782 -0.7143
  153MOL0     C20560   8.797   1.649   0.063 -0.0841 -0.0557 -0.0588
  153MOL0     C20561   8.928   1.695   0.010 -0.3924  0.4018  0.6315
  153MOL0     C20562   9.015   1.775   0.113  0.4589  0.0131 -0.2924
  153MOL0     C20563   9.146   1.825   0.054  0.4370  0.0936 -0.0603
  153MOL0    Cl20564   9.100   1.947  -0.072  0.3466 -0.4359  0.0644
  153MOL0     C20565   8.183   1.468   0.183  0.5217 -0.4022 -1.1803
  153MOL0     C20566   8.076   1.427   0.268 -0.0722 -0.1089 -0.7505
  153MOL0     O20567   7.982   1.092   0.362  0.3371 -0.1673 -0.3474
  153MOL0     C20568   7.763   1.023   0.543 -1.2300  0.5527  0.2770
  153MOL0     C20569   7.653   0.996   0.617  0.1109  0.1952  0.1904
  153MOL0     N20570   7.187   0.659   1.184 -0.2497 -0.8343  0.7096
  153MOL0     N20571   7.080   0.673   1.259  0.3982  0.0398  0.8764
  153MOL0     C20572   6.130   0.878   0.652  0.5374  0.2589  1.0790
  153MOL0     C20573   5.999   0.891   0.614  0.7667  0.3007  0.5489
  153MOL0     C20574   5.593   0.972   0.495  0.1630  0.1246 -0.2282
  153MOL0     C20575   5.517   1.056   0.580  0.3073  0.7855  0.3042
  153MOL0     C20576   5.377   1.052   0.582  0.2745  0.2706  0.1240
  153MOL0     C20577   5.311   0.973   0.487 -0.4741 -0.7186  1.0497
  153MOL0     O20578   5.175   0.970   0.472  0.2282  0.3540 -0.0264
  153MOL0     C20579   5.090   0.988   0.589  0.3333  0.1198  0.1791
  153MOL0     C20580   4.954   0.926   0.568  0.4285  0.0452 -0.1023
  153MOL0     C20581   4.885   0.999   0.445 -0.0025  0.1357 -0.0065
  153MOL0     C20582   4.744   0.968   0.412  0.4351  1.0961  0.3428
  153MOL0     C20583   4.715   1.035   0.281 -0.7939  0.0919 -0.4290
  153MOL0     C20584   4.705   1.096   0.176  0.9567  0.5813  0.4411
  153MOL0     C20585   5.385   0.900   0.396  0.0789 -0.1102 -0.0522
  153MOL0     C20586   5.521   0.904   0.392  0.4902  0.0199  0.8964
  153MOL0     C20587   5.586   0.824   0.279 -0.1038 -0.3344  0.1799
  153MOL0     H20588   5.930   1.203   0.737 -0.8794 -0.7366  1.6190
  153MOL0     H20589   6.169   1.189   0.804 -1.4191  0.1688 -0.1312
  153MOL0     H20590   6.426   1.111   0.668 -1.2321  0.0563 -0.5659
  153MOL0     H20591   6.385   1.150   0.841 -0.2281 -0.4918  0.2080
  153MOL0     H20592   6.625   1.095   0.800  0.5566 -0.7553 -0.0245
  153MOL0     H20593   6.564   0.929   0.767  0.1642 -0.7910  1.1553
  153MOL0     H20594   6.487   0.897   0.988  0.1327 -1.4205 -3.1665
  153MOL0     H20595   6.520   1.068   1.017  3.2039  1.3427 -0.4961
  153MOL0     H20596   6.729   0.863   0.946 -3.2979  1.1671 -3.4248
  153MOL0     H20597   6.763   1.037   0.980 -0.1535 -0.4968  0.5319
  153MOL0     H20598   6.678   0.994   1.213  0.9617 -0.4252  0.0080
  153MOL0     H20599   6.654   0.820   1.174 -1.2423 -0.1159 -0.4010
  153MOL0     H20600   6.899   0.794   1.152  2.0757 -0.8639  3.7594
  153MOL0     H20601   6.910   0.970   1.164 -0.6128 -0.6691 -4.0018
  153MOL0     H20602   6.802   0.759   1.367  0.5753  0.1389  2.1162
  153MOL0     H20603   6.800   0.938   1.405 -2.7353 -1.8718  1.5523
  153MOL0     H20604   7.015   0.928   1.467 -2.6426 -0.2673  0.4138
  153MOL0     H20605   6.980   0.772   1.498 -1.1360  0.7191  1.5164
  153MOL0     H20606   7.219   0.955   1.318 -0.0803  0.1531 -0.1046
  153MOL0     H20607   7.429   0.896   1.171 -0.2976  1.3616 -0.7065
  153MOL0     H20608   7.439   0.722   1.110 -2.6261 -1.7569  1.3287
  153MOL0     H20609   7.323   0.769   0.902  2.8339  0.2837 -2.9205
  153MOL0     H20610   7.257   0.924   0.964  0.2579  0.3366  0.6789
  153MOL0     H20611   7.542   0.851   0.890 -0.2369 -0.6520  0.7202
  153MOL0     H20612   7.497   1.010   0.932 -1.5944 -0.9138  0.1905
  153MOL0     H20613   7.291   0.953   0.745  0.1720 -1.1954  1.1494
  153MOL0     H20614   7.429   0.878   0.674  0.8716  1.9960 -2.0092
  153MOL0     H20615   7.503   1.306   0.577  0.7756  0.9346  0.7784
  153MOL0     H20616   7.694   1.342   0.438 -0.5515  0.9695  0.1552
  153MOL0     H20617   7.931   1.195   0.074  0.0742 -1.1045  0.3940
  153MOL0     H20618   8.117   1.266  -0.077 -1.7027 -0.1266  0.1161
  153MOL0     H20619   8.418   1.269  -0.046  0.0955 -0.0356  0.9048
  153MOL0     H20620   8.337   1.347  -0.184  0.4975 -0.6374  0.8603
  153MOL0     H20621   8.592   1.347  -0.157 -0.2634 -0.4649 -0.5617
  153MOL0     H20622   8.518   1.491  -0.216  2.7050  1.3492 -0.3605
  153MOL0     H20623   8.540   1.582   0.027  1.1259  1.7032 -0.2931
  153MOL0     H20624   8.629   1.423   0.069  0.1758  1.0270  1.2340
  153MOL0     H20625   8.697   1.641  -0.125 -1.5229 -1.3717 -1.3070
  153MOL0     H20626   8.792   1.495  -0.091  0.5690  0.8018 -1.3255
  153MOL0     H20627   8.819   1.584   0.149  2.8180  1.8334  0.7778
  153MOL0     H20628   8.737   1.733   0.097  0.6543 -0.2436  1.8446
  153MOL0     H20629   8.987   1.604  -0.005 -2.4391 -1.2949  2.0122
  153MOL0     H20630   8.923   1.742  -0.088 -0.0611 -2.6196 -0.9509
  153MOL0     H20631   9.029   1.708   0.198 -1.2470  0.2742  0.2331
  153MOL0     H20632   8.971   1.870   0.147  1.0654  0.0011  0.5601
  153MOL0     H20633   9.220   1.871   0.120  2.2220 -1.6958 -0.7387
  153MOL0     H20634   9.197   1.740   0.008  2.6034  1.2546  0.0940
  153MOL0     H20635   8.252   1.538   0.228  0.6169 -2.8579  2.9481
  153MOL0     H20636   8.056   1.487   0.356 -0.8397 -0.0690 -0.9471
  153MOL0     H20637   7.833   0.945   0.515 -4.0506 -1.3730 -1.8876
  153MOL0     H20638   7.647   0.896   0.660 -2.1445  0.6879  1.1729
  153MOL0     H20639   6.184   0.784   0.649  1.3949  0.7675  0.2071
  153MOL0     H20640   5.948   0.813   0.559  1.4291  0.2996 -0.0812
  153MOL0     H20641   5.567   1.130   0.640 -0.9125  0.7342  1.4310
  153MOL0     H20642   5.324   1.130   0.636 -1.2170  2.1000 -3.6103
  153MOL0     H20643   5.071   1.093   0.611 -1.2022  0.5593 -2.8373
  153MOL0     H20644   5.150   0.941   0.668  2.1410 -2.3255 -2.4614
  153MOL0     H20645   4.890   0.950   0.653 -2.5699  1.2540 -2.5255
  153MOL0     H20646   4.957   0.819   0.545 -1.1131 -0.0790  0.1629
  153MOL0     H20647   4.936   0.974   0.352 -2.1496 -0.1484 -1.1810
  153MOL0     H20648   4.894   1.107   0.454  0.9669  0.1662 -1.0760
  153MOL0     H20649   4.735   0.860   0.395  0.8087  1.5405 -3.5330
  153MOL0     H20650   4.665   0.988   0.485 -1.6509 -0.7733 -1.2657
  153MOL0     H20651   4.691   1.143   0.081  0.4335 -1.2114 -0.4327
  153MOL0     H20652   5.344   0.842   0.313  0.4533 -0.4418 -0.0051
  153MOL0     H20653   5.668   0.764   0.320 -0.3412  0.5576  2.0784
  153MOL0     H20654   5.518   0.745   0.245 -0.2916 -0.1964  0.2347
  153MOL0     H20655   5.613   0.887   0.194  2.1661 -0.2393  0.9020
  154MOL0     O20656   6.987   4.533   4.056 -0.4111  0.1266 -0.2307
  154MOL0     C20657   6.904   4.568   4.143 -0.1018  0.2659 -0.1479
  154MOL0     O20658   6.924   4.640   4.253 -0.4025 -0.4054  0.3415
  154MOL0     C20659   7.046   4.652   4.320 -0.4451  0.2099 -0.5685
  154MOL0     C20660   7.154   4.558   4.305  0.0381  1.3320 -0.6430
  154MOL0     C20661   7.273   4.566   4.376  0.3766  0.9100 -0.1639
  154MOL0     C20662   7.284   4.671   4.470 -0.6692  0.5165 -0.4073
  154MOL0     O20663   7.401   4.693   4.539 -0.7157 -0.0108 -0.4171
  154MOL0     C20664   7.492   4.580   4.551  1.0018  0.4568  0.1421
  154MOL0     C20665   7.562   4.595   4.683  0.5056 -0.3192 -0.3815
  154MOL0     C20666   7.675   4.500   4.716  0.1294  0.2891 -0.1942
  154MOL0     C20667   7.801   4.549   4.642  0.0130  0.5223  0.0351
  154MOL0     C20668   7.914   4.449   4.668  0.9696 -0.0622  0.0135
  154MOL0     C20669   8.039   4.482   4.582  1.0225  0.2739  0.4999
  154MOL0     C20670   8.129   4.370   4.547 -0.3989 -0.9204 -0.0393
  154MOL0     C20671   8.194   4.313   4.673  0.7324  0.1848 -0.5244
  154MOL0     N20672   8.341   4.345   4.691  0.1806  0.7540 -0.2626
  154MOL0     C20673   8.444   4.260   4.727  0.1586  0.0256 -1.0070
  154MOL0     C20674   8.531   4.334   4.803 -0.6417 -0.4759  0.6812
  154MOL0     C20675   8.666   4.286   4.849  0.0416  0.2643 -0.4583
  154MOL0     C20676   8.718   4.395   4.950  0.4580 -0.0683 -0.2538
  154MOL0     C20677   8.839   4.344   5.022 -0.4619  0.0025  0.2449
  154MOL0     C20678   8.957   4.310   4.934 -0.4082 -0.2272  0.1143
  154MOL0     O20679   9.079   4.269   4.993  0.0161  0.1081  0.6367
  154MOL0     C20680   9.157   4.353   5.061  0.0915 -1.0699 -0.5072
  154MOL0     C20681   9.130   4.492   5.076 -0.2472 -0.3442 -0.1702
  154MOL0     C20682   9.191   4.582   5.159 -0.2970 -0.4475 -0.3525
  154MOL0     C20683   9.289   4.534   5.247  0.0696  0.4722  0.4171
  154MOL0     C20684   9.372   4.614   5.338 -0.3559 -0.0493  0.5354
  154MOL0     O20685   9.341   4.749   5.340 -0.0934  0.2431  0.1130
  154MOL0     C20686   9.393   4.837   5.430  0.9554  0.2346  0.1257
  154MOL0     C20687   9.488   4.813   5.535  0.1136  0.6356  0.3620
  154MOL0     C20688   9.525   4.912   5.618 -0.7640 -1.0155  0.4763
  154MOL0     C20689   9.503   5.049   5.586 -0.1182 -0.1612  0.0450
  154MOL0     O20690   9.577   5.161   5.630 -0.2493 -0.1855 -0.7256
  154MOL0     C20691   9.647   5.142   5.747 -0.3051  0.5656  0.6218
  154MOL0     C20692   9.666   5.274   5.812 -0.6024  0.1035 -0.2800
  154MOL0     C20693   9.755   5.260   5.928  0.3187  0.4478  1.4617
  154MOL0     C20694   9.770   5.390   5.991  0.3264  0.2647  0.1814
  154MOL0     C20695   9.892   5.407   6.083 -0.2024  0.0573  0.2828
  154MOL0     C20696   9.891   5.547   6.129  0.7142 -1.3577  0.0973
  154MOL0     C20697  10.022   5.576   6.206 -0.4148 -0.4267 -0.0828
  154MOL0     C20698  10.018   5.498   6.342  0.0882  0.0049  0.7704
  154MOL0    Cl20699  10.172   5.535   6.434  0.6255 -0.6685 -0.4787
  154MOL0     C20700   9.407   5.076   5.486  0.4605 -0.4950 -0.0642
  154MOL0     C20701   9.354   4.971   5.406  0.6833 -0.0047  0.5948
  154MOL0     O20702   9.456   4.562   5.412  0.2678  0.1188  0.2799
  154MOL0     C20703   9.331   4.393   5.231  0.9476 -0.3276  0.1513
  154MOL0     C20704   9.258   4.311   5.142 -0.0802  0.1246 -0.7251
  154MOL0     N20705   8.504   4.469   4.772 -0.5265 -0.3526  0.5811
  154MOL0     N20706   8.395   4.467   4.708  0.6537  1.1167 -0.3921
  154MOL0     C20707   7.182   4.762   4.485 -0.0127  0.0717 -0.4412
  154MOL0     C20708   7.057   4.754   4.412 -0.2894 -0.8327 -0.4898
  154MOL0     C20709   6.768   4.511   4.137  0.4420 -0.4474  0.4309
  154MOL0     C20710   6.758   4.396   4.052  0.2470 -0.0519 -0.3676
  154MOL0     C20711   6.637   4.330   4.034 -0.9598 -0.7795 -0.1103
  154MOL0     C20712   6.527   4.380   4.098  0.0906 -0.4277 -0.4904
  154MOL0     O20713   6.402   4.330   4.100 -0.0148 -0.4175 -0.2480
  154MOL0     C20714   6.362   4.256   3.989 -0.1624  0.0562  0.0562
  154MOL0     C20715   6.209   4.257   3.997  0.6344 -0.3680  0.6156
  154MOL0     C20716   6.134   4.184   3.889  0.0661 -0.6909 -0.0664
  154MOL0     C20717   6.163   4.240   3.747 -0.0041  0.6686 -0.8698
  154MOL0     C20718   6.118   4.377   3.736  0.8104 -0.2824 -1.1240
  154MOL0     C20719   6.062   4.484   3.712 -0.4556  0.1371 -0.1592
  154MOL0     C20720   6.535   4.500   4.168  0.0948 -0.5850  0.1729
  154MOL0     C20721   6.652   4.565   4.191 -0.4387  0.0985 -0.7825
  154MOL0     C20722   6.643   4.695   4.257 -0.4198  0.6115 -0.3714
  154MOL0     H20723   7.156   4.471   4.240  1.8230  0.4019  0.5886
  154MOL0     H20724   7.353   4.499   4.347 -0.8952  0.7471 -3.8079
  154MOL0     H20725   7.449   4.479   4.558 -0.6720  1.0342 -1.1511
  154MOL0     H20726   7.569   4.590   4.475  0.5320 -0.4046 -0.4550
  154MOL0     H20727   7.480   4.575   4.753 -0.4828 -2.7243 -2.1015
  154MOL0     H20728   7.600   4.694   4.711 -1.1785 -0.3662  2.5471
  154MOL0     H20729   7.649   4.396   4.695 -0.5399  0.5418 -0.6449
  154MOL0     H20730   7.698   4.503   4.823 -0.9609 -0.8958  0.0932
  154MOL0     H20731   7.786   4.557   4.534  3.2000 -0.1504 -0.5659
  154MOL0     H20732   7.833   4.647   4.680 -0.5265  1.3649 -1.6135
  154MOL0     H20733   7.924   4.452   4.777 -2.9559  1.1488  0.5078
  154MOL0     H20734   7.877   4.351   4.637 -0.0877 -0.6335  2.7527
  154MOL0     H20735   8.009   4.523   4.485 -2.0027  1.9312  1.9863
  154MOL0     H20736   8.088   4.564   4.636 -2.3783  0.6667  3.3446
  154MOL0     H20737   8.208   4.409   4.482  0.3768 -2.4812 -0.0704
  154MOL0     H20738   8.075   4.290   4.497 -0.2590 -0.4449 -0.9710
  154MOL0     H20739   8.148   4.360   4.760  3.8331 -0.1303  1.4005
  154MOL0     H20740   8.159   4.210   4.692 -2.0019  1.3325  1.3109
  154MOL0     H20741   8.462   4.153   4.729  1.9369  0.2987 -0.8185
  154MOL0     H20742   8.655   4.195   4.908  2.4034 -1.0528 -1.8779
  154MOL0     H20743   8.736   4.252   4.773 -0.9942  0.0849 -1.3612
  154MOL0     H20744   8.751   4.481   4.891  0.1008 -0.5062 -1.1060
  154MOL0     H20745   8.640   4.419   5.022 -0.7478 -2.2293 -0.7718
  154MOL0     H20746   8.809   4.258   5.083 -3.2876  1.7799  1.5344
  154MOL0     H20747   8.878   4.418   5.093 -1.0872  1.4391 -0.8553
  154MOL0     H20748   8.972   4.394   4.865  2.0162 -1.3810 -0.9071
  154MOL0     H20749   8.929   4.233   4.861  1.7925  0.7474 -1.8934
  154MOL0     H20750   9.040   4.526   5.026 -0.6647 -0.9307  0.1664
  154MOL0     H20751   9.166   4.688   5.165  3.0374  0.5903 -2.3882
  154MOL0     H20752   9.528   4.716   5.561  0.7757  1.1556  1.3469
  154MOL0     H20753   9.600   4.887   5.693 -0.4042 -2.8761 -0.4544
  154MOL0     H20754   9.590   5.075   5.812  1.2370 -1.6670 -0.2085
  154MOL0     H20755   9.742   5.097   5.717 -1.0251 -2.5749  2.5838
  154MOL0     H20756   9.708   5.343   5.737  0.8115 -0.3245  0.0982
  154MOL0     H20757   9.571   5.311   5.852 -0.0764 -1.1136  2.3067
  154MOL0     H20758   9.721   5.185   6.000 -1.1901  1.0144  1.3798
  154MOL0     H20759   9.844   5.209   5.891 -1.1079 -0.2085 -1.2916
  154MOL0     H20760   9.679   5.405   6.050 -0.8064 -1.1809 -1.1033
  154MOL0     H20761   9.767   5.466   5.913 -2.6779  1.0001  0.8759
  154MOL0     H20762   9.981   5.391   6.022 -0.8971 -1.9645 -0.2810
  154MOL0     H20763   9.894   5.334   6.164  0.5137 -1.8182 -1.3573
  154MOL0     H20764   9.884   5.616   6.044  0.0801 -0.4937  0.8361
  154MOL0     H20765   9.798   5.565   6.184  1.4444  1.7168  0.5250
  154MOL0     H20766  10.045   5.681   6.229  4.3384 -0.8596 -1.6855
  154MOL0     H20767  10.116   5.557   6.152  0.4055  3.5241 -0.3912
  154MOL0     H20768   9.929   5.528   6.398 -0.3845 -0.5646  0.3406
  154MOL0     H20769  10.020   5.391   6.323  1.1502 -0.4966  3.3055
  154MOL0     H20770   9.394   5.181   5.466 -1.5543 -0.6206  0.4147
  154MOL0     H20771   9.288   4.996   5.323 -0.2075  1.7875  1.8003
  154MOL0     H20772   9.412   4.351   5.291  0.7685 -1.3143 -0.2804
  154MOL0     H20773   9.280   4.205   5.150  0.8426  0.2504 -1.3739
  154MOL0     H20774   7.184   4.846   4.553  0.9744  0.3676 -0.8207
  154MOL0     H20775   6.984   4.834   4.415 -2.3251 -2.5657 -1.1360
  154MOL0     H20776   6.846   4.350   4.008  1.0354  1.2245 -0.1743
  154MOL0     H20777   6.646   4.240   3.974 -1.1503 -0.1820 -1.0616
  154MOL0     H20778   6.410   4.158   3.987  1.5790  0.8710 -0.1954
  154MOL0     H20779   6.392   4.299   3.893  1.9425  1.7736  1.3989
  154MOL0     H20780   6.183   4.363   3.995  1.8910  0.0084 -2.7868
  154MOL0     H20781   6.189   4.220   4.098  0.1745 -0.4624  0.4899
  154MOL0     H20782   6.027   4.185   3.909 -0.5840 -1.4259 -3.0106
  154MOL0     H20783   6.167   4.080   3.897 -1.2558 -0.9561  3.5540
  154MOL0     H20784   6.269   4.235   3.720 -0.2098 -3.0313 -1.4461
  154MOL0     H20785   6.107   4.178   3.675 -0.5783 -0.3946  0.4539
  154MOL0     H20786   6.013   4.575   3.685  0.7016  1.3925  1.7742
  154MOL0     H20787   6.448   4.552   4.208  0.5379  1.0906 -0.9349
  154MOL0     H20788   6.542   4.738   4.266  0.8428  3.7546  0.1688
  154MOL0     H20789   6.694   4.685   4.353  0.7314 -2.8899 -1.2263
  154MOL0     H20790   6.694   4.766   4.191  0.5851 -0.9290 -1.3253
  155MOL0     O20791  10.019   4.761   4.126  0.4482 -0.1340  0.1906
  155MOL0     C20792   9.987   4.805   4.015 -0.8822  0.3746  0.3629
  155MOL0     O20793  10.078   4.854   3.923  0.0364  0.6253  0.0654
  155MOL0     C20794  10.214   4.872   3.940  0.3893 -0.5053 -0.1687
  155MOL0     C20795  10.259   5.003   3.942 -0.1867  0.2867  0.6171
  155MOL0     C20796  10.393   5.032   3.953 -0.2276 -0.8413 -0.6610
  155MOL0     C20797  10.488   4.932   3.975  0.9962  0.2411  0.1587
  155MOL0     O20798  10.620   4.983   3.967  0.3637 -0.2208 -0.0318
  155MOL0     C20799  10.724   4.880   3.993  0.2355 -0.4597  1.2736
  155MOL0     C20800  10.859   4.950   3.985 -0.6421 -1.0288 -0.1062
  155MOL0     C20801  10.905   5.002   4.125 -0.3475  0.6421  0.5670
  155MOL0     C20802  10.809   5.118   4.161 -1.1561 -0.5060 -0.3509
  155MOL0     C20803  10.827   5.146   4.315  0.5615 -0.2179  0.0363
  155MOL0     C20804  10.725   5.243   4.360  0.2998 -0.4513  0.4785
  155MOL0     C20805  10.727   5.256   4.509  0.1009  0.1880  0.3670
  155MOL0     C20806  10.649   5.134   4.571  0.1438  0.9901 -0.7761
  155MOL0     N20807  10.587   5.176   4.700 -0.2851  0.5111 -0.0169
  155MOL0     C20808  10.458   5.190   4.711 -0.1610 -0.1876  0.6928
  155MOL0     C20809  10.438   5.218   4.837  0.1784 -0.5771 -0.0465
  155MOL0     C20810  10.298   5.247   4.895  0.2711 -0.6671  0.0218
  155MOL0     C20811  10.244   5.391   4.859 -0.3989 -0.0690 -0.5503
  155MOL0     C20812  10.124   5.412   4.952 -0.2066  0.0082  0.3615
  155MOL0     C20813  10.004   5.314   4.933  0.3405  0.5132  0.0217
  155MOL0     O20814   9.964   5.360   4.799 -0.1313  0.0444 -0.1891
  155MOL0     C20815   9.845   5.316   4.758 -0.0828  0.2512 -0.3356
  155MOL0     C20816   9.791   5.386   4.651  0.3711 -0.4688 -0.0524
  155MOL0     C20817   9.677   5.348   4.588  0.3560 -0.0651 -0.3481
  155MOL0     C20818   9.599   5.249   4.644  0.8260  0.4167  0.2812
  155MOL0     C20819   9.464   5.230   4.580  0.4584  0.7680  0.5942
  155MOL0     O20820   9.380   5.142   4.648  0.7681  0.3991  0.4999
  155MOL0     C20821   9.265   5.104   4.585  0.2840  0.0932  0.5737
  155MOL0     C20822   9.147   5.171   4.611 -0.7908 -0.1780 -0.2773
  155MOL0     C20823   9.022   5.135   4.569 -0.1226 -0.0575 -0.5048
  155MOL0     C20824   9.018   5.037   4.471 -0.4748 -0.1096  0.4358
  155MOL0     O20825   8.899   5.016   4.411 -0.7650  0.6036  0.3373
  155MOL0     C20826   8.841   4.885   4.406  0.5499 -0.3032 -0.0384
  155MOL0     C20827   8.709   4.894   4.485 -0.4373  0.4513 -0.6444
  155MOL0     C20828   8.606   4.801   4.421 -0.5803 -0.6927 -0.2744
  155MOL0     C20829   8.460   4.828   4.472  0.1180  0.7510  0.2879
  155MOL0     C20830   8.363   4.722   4.418  0.2708 -0.1814  0.3647
  155MOL0     C20831   8.347   4.731   4.265  0.3703  0.5712 -0.4089
  155MOL0     C20832   8.253   4.620   4.221  0.0387 -0.4432  0.6655
  155MOL0     C20833   8.240   4.603   4.061 -0.3522  0.8814 -1.1930
  155MOL0    Cl20834   8.211   4.770   3.988 -0.2069  0.0934 -0.2347
  155MOL0     C20835   9.133   4.963   4.435 -0.7052  0.2347 -0.5896
  155MOL0     C20836   9.255   4.999   4.489  0.5015 -0.7830  0.2280
  155MOL0     O20837   9.431   5.294   4.484  0.5530 -0.3582  0.8851
  155MOL0     C20838   9.644   5.180   4.758  0.1696 -0.6417  0.2276
  155MOL0     C20839   9.770   5.211   4.812  0.8293  0.2964  0.3084
  155MOL0     N20840  10.559   5.216   4.904 -0.5971  0.0800  0.1607
  155MOL0     N20841  10.646   5.191   4.821  0.0758 -0.4267  0.4127
  155MOL0     C20842  10.444   4.793   3.972  0.0407 -0.0117 -0.2868
  155MOL0     C20843  10.303   4.769   3.960 -0.0839  0.2211 -0.3444
  155MOL0     C20844   9.846   4.804   3.967  0.3177 -0.3239  0.3375
  155MOL0     C20845   9.812   4.893   3.860  0.6477 -0.7651  0.7235
  155MOL0     C20846   9.689   4.890   3.783  0.1358  0.6509  0.4692
  155MOL0     C20847   9.595   4.790   3.818 -0.3822 -0.4309 -0.0551
  155MOL0     O20848   9.470   4.775   3.759  0.0038 -0.1007  0.4601
  155MOL0     C20849   9.424   4.883   3.669  0.4603 -0.5773  0.6288
  155MOL0     C20850   9.276   4.874   3.631  0.2910  0.2350 -0.2498
  155MOL0     C20851   9.217   4.732   3.625 -0.8239 -0.0914 -0.2440
  155MOL0     C20852   9.072   4.728   3.574 -0.0439 -0.3032 -0.2454
  155MOL0     C20853   9.049   4.795   3.449 -0.6633 -0.3099  0.7311
  155MOL0     C20854   9.034   4.842   3.339  0.9404  0.5226 -0.0110
  155MOL0     C20855   9.630   4.700   3.916 -0.4530  0.3984 -0.7399
  155MOL0     C20856   9.746   4.707   3.992  0.0246  0.0923  0.7040
  155MOL0     C20857   9.769   4.594   4.084 -0.2387  0.5986  0.8647
  155MOL0     H20858  10.190   5.085   3.926 -0.4195  0.0604  0.4696
  155MOL0     H20859  10.430   5.133   3.937 -3.3052  0.8346  1.6596
  155MOL0     H20860  10.710   4.836   4.092  2.0039 -4.2301  0.0555
  155MOL0     H20861  10.718   4.800   3.918 -0.3501 -1.5527  2.4466
  155MOL0     H20862  10.849   5.029   3.910 -1.2610  0.0265  1.0430
  155MOL0     H20863  10.932   4.880   3.945 -0.5928 -1.2401  0.3476
  155MOL0     H20864  11.011   5.024   4.108 -0.5256  1.4111  0.4297
  155MOL0     H20865  10.903   4.915   4.192 -1.3802 -1.9505 -2.5712
  155MOL0     H20866  10.827   5.209   4.103  1.0294 -1.2347 -0.9283
  155MOL0     H20867  10.704   5.098   4.139 -1.3983 -0.4456  0.6867
  155MOL0     H20868  10.805   5.056   4.372 -0.6484  0.4295  0.6303
  155MOL0     H20869  10.934   5.159   4.338  0.2296 -0.8524  2.1047
  155MOL0     H20870  10.749   5.341   4.317 -0.8963 -1.0081 -1.6327
  155MOL0     H20871  10.623   5.224   4.326  0.8185 -0.3480 -1.2417
  155MOL0     H20872  10.684   5.354   4.532  0.1493  0.8553 -2.0723
  155MOL0     H20873  10.831   5.259   4.544 -0.6691  0.4165  2.8442
  155MOL0     H20874  10.568   5.097   4.507  0.4057 -0.4250 -0.3196
  155MOL0     H20875  10.709   5.044   4.586  2.2700  2.2973 -1.0322
  155MOL0     H20876  10.390   5.178   4.627 -2.1609  1.1972  2.0111
  155MOL0     H20877  10.234   5.163   4.864 -0.5469 -1.0637  2.5736
  155MOL0     H20878  10.308   5.241   5.004  0.6988  0.3026  0.0421
  155MOL0     H20879  10.322   5.465   4.876 -0.8475  0.4139 -0.5505
  155MOL0     H20880  10.213   5.396   4.754 -0.0741 -1.7603 -0.7582
  155MOL0     H20881  10.082   5.512   4.933  0.0790  0.2220  0.8555
  155MOL0     H20882  10.157   5.412   5.056  1.8497  1.0525 -0.2333
  155MOL0     H20883   9.923   5.325   5.006 -0.7246 -1.1833 -0.8287
  155MOL0     H20884  10.027   5.207   4.930 -0.5415  0.3243 -0.4077
  155MOL0     H20885   9.843   5.477   4.621 -0.5255 -0.0272 -0.2970
  155MOL0     H20886   9.638   5.407   4.506  1.1939  0.8279 -0.1184
  155MOL0     H20887   9.155   5.257   4.678 -1.6948 -1.0783  1.0383
  155MOL0     H20888   8.937   5.187   4.612  0.2695  0.9286 -0.9032
  155MOL0     H20889   8.829   4.864   4.299 -0.5727  0.1915 -0.0237
  155MOL0     H20890   8.900   4.804   4.449 -0.5889 -0.1895  1.8156
  155MOL0     H20891   8.733   4.870   4.588 -0.9900 -0.4580 -0.7210
  155MOL0     H20892   8.688   5.001   4.476  1.9603  0.9699 -0.8084
  155MOL0     H20893   8.609   4.822   4.314  1.7440  2.2580  0.2582
  155MOL0     H20894   8.622   4.694   4.437  0.5871 -0.4184  0.4980
  155MOL0     H20895   8.409   4.923   4.453  0.8753  1.1457  0.1810
  155MOL0     H20896   8.452   4.803   4.578  1.8443 -1.2739 -0.0000
  155MOL0     H20897   8.266   4.735   4.466  0.7394 -0.8396  1.5313
  155MOL0     H20898   8.388   4.623   4.457 -0.6612 -0.1372  1.1015
  155MOL0     H20899   8.302   4.827   4.240  0.3902  0.4384 -0.9705
  155MOL0     H20900   8.439   4.718   4.206 -0.1305 -0.6463 -0.9675
  155MOL0     H20901   8.152   4.652   4.251 -0.1110  0.0318 -0.3191
  155MOL0     H20902   8.293   4.521   4.247  0.5432 -0.2823  0.5024
  155MOL0     H20903   8.336   4.561   4.032 -0.7351  0.0447 -1.2619
  155MOL0     H20904   8.157   4.544   4.022  1.6214 -1.4868 -2.0831
  155MOL0     H20905   9.134   4.890   4.355 -0.5309 -1.1570  0.6471
  155MOL0     H20906   9.345   4.944   4.461  2.1788  1.2307  1.3803
  155MOL0     H20907   9.586   5.107   4.813  1.2915 -2.9342 -1.4749
  155MOL0     H20908   9.810   5.167   4.903  0.7919 -2.3363 -0.8590
  155MOL0     H20909  10.513   4.709   3.964  0.7543  0.7017 -2.1676
  155MOL0     H20910  10.268   4.667   3.964  1.0526 -0.1428  0.8633
  155MOL0     H20911   9.885   4.966   3.824 -2.2045  1.4934 -0.8664
  155MOL0     H20912   9.680   4.956   3.697 -0.9546  0.8716  0.7418
  155MOL0     H20913   9.477   4.877   3.573 -2.5353  0.9041 -1.2838
  155MOL0     H20914   9.456   4.979   3.709 -0.3409 -0.6886  1.5574
  155MOL0     H20915   9.269   4.922   3.533 -0.2809  3.9189  1.4276
  155MOL0     H20916   9.218   4.933   3.703  1.1055  2.2775 -1.1762
  155MOL0     H20917   9.226   4.685   3.724  3.4699 -3.3867 -1.8777
  155MOL0     H20918   9.282   4.675   3.559  0.7168 -1.1700  2.0750
  155MOL0     H20919   9.039   4.624   3.563 -5.5037  1.1865 -0.8924
  155MOL0     H20920   9.018   4.771   3.659  0.6227  2.3951 -1.1052
  155MOL0     H20921   9.017   4.906   3.255  0.8163  1.2569  0.5535
  155MOL0     H20922   9.559   4.618   3.929 -2.3435  1.7488 -1.9898
  155MOL0     H20923   9.689   4.594   4.159 -0.0234  1.3673  1.1034
  155MOL0     H20924   9.752   4.501   4.030  0.1071  0.3438  1.1844
  155MOL0     H20925   9.865   4.585   4.136  0.7214 -0.7600 -1.0416
  156MOL0     O20926   2.079   3.136   2.475 -0.5487 -0.2242 -0.0756
  156MOL0     C20927   1.965   3.186   2.465 -0.6707  1.0405 -0.7427
  156MOL0     O20928   1.917   3.265   2.368 -1.2055 -0.1853  0.3954
  156MOL0     C20929   1.990   3.279   2.254 -0.2680 -0.4895  0.1923
  156MOL0     C20930   2.043   3.177   2.177 -0.2600  0.4804 -0.1771
  156MOL0     C20931   2.118   3.208   2.059 -0.5255  0.4699 -0.4473
  156MOL0     C20932   2.168   3.337   2.032 -0.0456  0.1281  0.1741
  156MOL0     O20933   2.259   3.350   1.931 -0.1877 -0.2899 -0.3804
  156MOL0     C20934   2.262   3.479   1.858 -0.3310  0.5613  0.3345
  156MOL0     C20935   2.366   3.450   1.745  0.8988 -0.1669 -0.4702
  156MOL0     C20936   2.319   3.363   1.630 -0.3210 -0.2275 -0.4234
  156MOL0     C20937   2.445   3.283   1.579  1.0714  0.3311  0.3538
  156MOL0     C20938   2.411   3.185   1.469 -0.2271 -0.1810 -0.1594
  156MOL0     C20939   2.538   3.125   1.410 -0.6680  0.7028  0.0159
  156MOL0     C20940   2.598   3.020   1.499  0.0153 -0.0690 -0.1212
  156MOL0     C20941   2.692   2.927   1.414 -0.1276 -0.0247 -0.0868
  156MOL0     N20942   2.812   3.000   1.364 -0.1957  0.1227  0.1268
  156MOL0     C20943   2.918   3.030   1.443 -0.0252 -0.5610  0.8282
  156MOL0     C20944   3.013   3.060   1.351  0.4311  0.0315 -0.5129
  156MOL0     C20945   3.153   3.125   1.387  0.4167  0.2017  0.6918
  156MOL0     C20946   3.171   3.263   1.335  0.7700 -0.6188  0.3037
  156MOL0     C20947   3.194   3.269   1.181 -0.5036 -0.6082 -0.4085
  156MOL0     C20948   3.210   3.412   1.119  0.7739 -0.3374  0.1078
  156MOL0     O20949   3.274   3.385   1.000  0.0010 -0.0189 -0.4564
  156MOL0     C20950   3.383   3.464   0.973 -0.5764 -0.1236 -0.0887
  156MOL0     C20951   3.469   3.406   0.873  0.3720 -0.1468 -0.8331
  156MOL0     C20952   3.585   3.477   0.831  1.1667  0.4513  0.1248
  156MOL0     C20953   3.626   3.594   0.892  0.0674 -0.2133  1.0181
  156MOL0     C20954   3.764   3.646   0.871 -0.1075 -0.0380  0.3128
  156MOL0     O20955   3.849   3.587   0.778  0.5066  0.8413  0.0010
  156MOL0     C20956   3.985   3.597   0.794 -0.4715 -0.4569  0.7109
  156MOL0     C20957   4.057   3.696   0.732  0.7657 -0.7949 -0.7348
  156MOL0     C20958   4.198   3.699   0.737 -0.5728  0.3904 -0.1467
  156MOL0     C20959   4.274   3.592   0.803  0.6889 -0.4318  0.1578
  156MOL0     O20960   4.411   3.588   0.801  0.3193  0.2043  0.5318
  156MOL0     C20961   4.483   3.644   0.694 -0.4139 -0.1715  0.0571
  156MOL0     C20962   4.629   3.646   0.736 -0.6944 -1.1872 -0.0078
  156MOL0     C20963   4.717   3.685   0.619  1.1038  0.5839  0.2880
  156MOL0     C20964   4.862   3.690   0.665 -0.9248 -0.1219 -0.2935
  156MOL0     C20965   4.950   3.691   0.544 -0.0706 -0.0045 -0.0094
  156MOL0     C20966   5.089   3.748   0.571  0.4229  0.5604  0.1603
  156MOL0     C20967   5.196   3.635   0.613 -0.6622  0.3087 -0.2962
  156MOL0     C20968   5.316   3.685   0.690 -0.7419  0.5020 -0.1335
  156MOL0    Cl20969   5.402   3.822   0.608  0.1618  0.0234  0.1969
  156MOL0     C20970   4.191   3.493   0.870  0.6190  0.1404 -0.2650
  156MOL0     C20971   4.049   3.501   0.867  0.2954  0.1923  0.2414
  156MOL0     O20972   3.806   3.734   0.946  0.5616 -0.1024  0.0555
  156MOL0     C20973   3.550   3.641   0.992 -0.6878 -0.8575 -0.5949
  156MOL0     C20974   3.430   3.579   1.035  0.1427  0.6465  0.6246
  156MOL0     N20975   2.956   3.040   1.224  0.4238  0.4881 -0.1241
  156MOL0     N20976   2.838   3.017   1.235 -0.5507 -0.1886 -0.2015
  156MOL0     C20977   2.120   3.436   2.122 -0.0831 -0.2635 -0.1705
  156MOL0     C20978   2.031   3.406   2.229  0.3018  0.3840  0.2050
  156MOL0     C20979   1.887   3.166   2.590 -0.1708 -0.1402 -0.0965
  156MOL0     C20980   1.922   3.063   2.678  0.1012  0.0048  0.3429
  156MOL0     C20981   1.842   3.027   2.791  0.6232  0.8257 -0.1479
  156MOL0     C20982   1.717   3.081   2.817  0.1416  0.0617 -0.3909
  156MOL0     O20983   1.651   3.041   2.927 -0.6047 -0.2119 -0.4252
  156MOL0     C20984   1.512   3.067   2.949 -1.2680 -0.0420  0.4479
  156MOL0     C20985   1.462   2.980   3.062  0.1110 -0.6472 -0.2429
  156MOL0     C20986   1.328   3.031   3.128  0.5222  0.5824  0.0487
  156MOL0     C20987   1.210   3.052   3.027 -0.7097  0.1461 -0.2138
  156MOL0     C20988   1.087   3.070   3.098  1.1484  0.1492 -0.6208
  156MOL0     C20989   0.987   3.087   3.168  0.3066  0.6100 -0.5657
  156MOL0     C20990   1.677   3.189   2.734 -0.5800  0.9183  0.6511
  156MOL0     C20991   1.755   3.232   2.621 -0.2712 -0.1416  0.3714
  156MOL0     C20992   1.707   3.356   2.551  0.0532  0.1454  0.3153
  156MOL0     H20993   2.026   3.070   2.181 -2.2442  0.4969 -3.8273
  156MOL0     H20994   2.150   3.135   1.985  1.4057  1.3661 -0.5400
  156MOL0     H20995   2.166   3.503   1.811 -0.3454 -0.9922 -0.5081
  156MOL0     H20996   2.300   3.566   1.912 -0.4372  0.9578 -0.2195
  156MOL0     H20997   2.456   3.413   1.793 -0.3159 -2.7122  0.0313
  156MOL0     H20998   2.383   3.547   1.696  1.4533 -0.2721 -0.4908
  156MOL0     H20999   2.258   3.419   1.558 -1.0266  0.6870  0.8402
  156MOL0     H21000   2.248   3.287   1.667 -1.2178  0.3186 -0.9807
  156MOL0     H21001   2.522   3.355   1.549  1.7465 -0.5639 -0.0959
  156MOL0     H21002   2.480   3.217   1.658  2.3994 -0.3366 -0.7586
  156MOL0     H21003   2.341   3.108   1.501 -0.3633 -0.7046 -1.6121
  156MOL0     H21004   2.356   3.240   1.392  0.5644 -0.5425 -1.0047
  156MOL0     H21005   2.503   3.077   1.318 -0.6938  0.7231  0.0150
  156MOL0     H21006   2.608   3.203   1.379  0.6531 -1.4682 -2.8931
  156MOL0     H21007   2.528   2.951   1.547  2.3813 -2.1580  0.5768
  156MOL0     H21008   2.648   3.074   1.580 -2.6928  0.4442  1.3524
  156MOL0     H21009   2.727   2.841   1.471  1.0439  0.9356  0.6877
  156MOL0     H21010   2.648   2.883   1.324 -0.5943 -0.1461  0.1940
  156MOL0     H21011   2.922   3.045   1.550 -0.1147  1.4570  0.5838
  156MOL0     H21012   3.163   3.133   1.496  3.0385 -1.7186  0.6695
  156MOL0     H21013   3.227   3.063   1.336 -2.7502 -0.9124 -3.0734
  156MOL0     H21014   3.078   3.319   1.348  2.4093  2.1962  0.7922
  156MOL0     H21015   3.251   3.317   1.386 -1.0190  1.8284  0.7227
  156MOL0     H21016   3.101   3.236   1.134 -0.3179  1.5983 -2.5277
  156MOL0     H21017   3.276   3.200   1.157 -0.5904 -0.2986 -1.6588
  156MOL0     H21018   3.267   3.467   1.195  1.4919  0.6380 -1.1070
  156MOL0     H21019   3.106   3.442   1.107  0.9711  0.1501 -0.3714
  156MOL0     H21020   3.444   3.308   0.836  2.6936 -2.5827  3.2988
  156MOL0     H21021   3.641   3.453   0.741  0.5212  2.4406 -0.8571
  156MOL0     H21022   4.001   3.767   0.672 -0.0854 -2.1006 -1.5560
  156MOL0     H21023   4.248   3.778   0.683 -1.2189  0.5237 -0.5611
  156MOL0     H21024   4.460   3.569   0.618 -2.8463  0.2655  0.2693
  156MOL0     H21025   4.442   3.739   0.660 -1.9603 -0.8983 -0.2019
  156MOL0     H21026   4.648   3.719   0.816 -0.0438  1.7072 -2.6138
  156MOL0     H21027   4.667   3.557   0.788  0.2935  0.9682  3.2870
  156MOL0     H21028   4.710   3.612   0.538  1.4556 -0.3725  1.0882
  156MOL0     H21029   4.689   3.782   0.577 -0.6038 -0.1601 -0.3733
  156MOL0     H21030   4.886   3.593   0.708 -2.3737 -0.5528 -0.3864
  156MOL0     H21031   4.884   3.769   0.738 -1.2296 -0.5214  0.2438
  156MOL0     H21032   4.903   3.747   0.462  2.6334 -1.0927 -2.4805
  156MOL0     H21033   4.954   3.590   0.504 -1.5166  0.7024 -2.1092
  156MOL0     H21034   5.119   3.802   0.481 -3.7235  1.0129 -1.1890
  156MOL0     H21035   5.086   3.821   0.653  0.2283 -0.4800  1.1149
  156MOL0     H21036   5.239   3.588   0.525  0.3523 -1.1675  0.9343
  156MOL0     H21037   5.148   3.550   0.663 -0.8902 -0.5687 -1.9573
  156MOL0     H21038   5.279   3.719   0.787  1.7515  2.6505  0.1856
  156MOL0     H21039   5.384   3.601   0.711 -2.3880 -1.0322 -0.7098
  156MOL0     H21040   4.237   3.413   0.928  1.5936 -0.4025 -1.7076
  156MOL0     H21041   3.995   3.421   0.916 -1.6444  0.4790 -1.2923
  156MOL0     H21042   3.578   3.726   1.052 -0.9840  0.5409 -2.3464
  156MOL0     H21043   3.360   3.630   1.100 -0.7707 -1.7094  1.6117
  156MOL0     H21044   2.142   3.542   2.116  0.5281 -0.4271 -0.7880
  156MOL0     H21045   1.989   3.480   2.297  0.7002  0.7755  0.0316
  156MOL0     H21046   2.016   3.012   2.662 -0.4992 -0.7551 -0.8505
  156MOL0     H21047   1.875   2.953   2.863 -1.0494  1.0324  0.8958
  156MOL0     H21048   1.462   3.057   2.852  1.6418  0.8559 -1.3043
  156MOL0     H21049   1.495   3.173   2.970 -0.9799  0.7234 -2.6402
  156MOL0     H21050   1.531   2.991   3.147 -1.0791  0.6244  0.6156
  156MOL0     H21051   1.448   2.878   3.026 -5.2940  0.1546 -1.2120
  156MOL0     H21052   1.338   3.123   3.186  1.8379 -0.3539  1.3868
  156MOL0     H21053   1.293   2.953   3.196 -2.2360  0.1422 -1.7470
  156MOL0     H21054   1.230   3.142   2.968 -2.5663  0.2785 -0.6982
  156MOL0     H21055   1.204   2.964   2.962 -0.9965 -0.9123  1.1897
  156MOL0     H21056   0.893   3.101   3.217  0.6943 -1.7117  0.9825
  156MOL0     H21057   1.584   3.232   2.771 -0.1249  2.2214  0.3329
  156MOL0     H21058   1.695   3.341   2.443 -0.9351 -1.0470  0.5628
  156MOL0     H21059   1.608   3.394   2.578 -0.5644 -0.7249 -0.6590
  156MOL0     H21060   1.786   3.431   2.568  3.3163 -2.6313 -1.3723
  157MOL0     O21061   9.669   7.739   9.272  0.3957 -0.0227  0.4721
  157MOL0     C21062   9.652   7.858   9.247  0.3032 -0.2014 -0.1556
  157MOL0     O21063   9.529   7.911   9.231  0.3165  0.5256 -0.4189
  157MOL0     C21064   9.421   7.834   9.238 -0.5350  1.3708  0.6418
  157MOL0     C21065   9.324   7.859   9.139  0.1119 -0.6459 -0.2075
  157MOL0     C21066   9.208   7.779   9.145 -0.8239  0.0220 -0.2371
  157MOL0     C21067   9.177   7.690   9.243  0.3683  0.5032 -0.0593
  157MOL0     O21068   9.078   7.597   9.209  0.0638  0.6472 -0.0884
  157MOL0     C21069   8.951   7.619   9.274  0.4576 -0.1296 -0.9518
  157MOL0     C21070   8.830   7.602   9.170 -0.2595  0.5771 -1.0410
  157MOL0     C21071   8.685   7.611   9.224  0.0353 -1.0650  0.4363
  157MOL0     C21072   8.590   7.588   9.109  0.3257  0.7104  0.1509
  157MOL0     C21073   8.447   7.547   9.144  0.1086  0.3231  0.2876
  157MOL0     C21074   8.355   7.661   9.205 -0.7790  0.0649  1.2263
  157MOL0     C21075   8.212   7.622   9.253 -0.4339  0.2182  0.5443
  157MOL0     C21076   8.131   7.571   9.133 -0.0825  0.5349  0.0614
  157MOL0     N21077   7.995   7.534   9.172 -0.4815 -0.8354  0.5920
  157MOL0     C21078   7.893   7.622   9.191 -0.3746 -0.0622  1.2347
  157MOL0     C21079   7.783   7.554   9.226  0.9678 -0.3672  0.5602
  157MOL0     C21080   7.647   7.617   9.265  0.2122 -0.4995 -0.1079
  157MOL0     C21081   7.658   7.702   9.396 -0.4030 -0.0397  0.2725
  157MOL0     C21082   7.703   7.610   9.513 -0.3226 -0.0783  0.2322
  157MOL0     C21083   7.723   7.680   9.651  0.2153 -0.0680  0.1956
  157MOL0     O21084   7.830   7.779   9.631 -0.2198  0.3732 -0.1659
  157MOL0     C21085   7.958   7.751   9.681  0.1646 -0.4046  0.1137
  157MOL0     C21086   8.026   7.867   9.727 -0.9224  0.1700  0.2345
  157MOL0     C21087   8.153   7.850   9.795  0.0358 -0.1971  0.1375
  157MOL0     C21088   8.210   7.722   9.809 -0.4516  0.0072  0.0476
  157MOL0     C21089   8.339   7.696   9.878 -0.1009  0.3201 -0.0581
  157MOL0     O21090   8.373   7.562   9.881  0.0481 -0.2086  0.3088
  157MOL0     C21091   8.482   7.532   9.949  0.2970  0.0005  0.2915
  157MOL0     C21092   8.609   7.559   9.902  0.5285  0.3643  0.0520
  157MOL0     C21093   8.715   7.518   9.980  0.0564 -0.5065 -0.7842
  157MOL0     C21094   8.700   7.456  10.106  0.9772  0.1415 -0.2598
  157MOL0     O21095   8.806   7.431  10.194 -0.2684  0.8733  0.1065
  157MOL0     C21096   8.929   7.474  10.160  0.0125 -0.2918 -0.7445
  157MOL0     C21097   9.030   7.433  10.268 -0.3573  0.1656 -0.2757
  157MOL0     C21098   9.023   7.528  10.386 -0.2515  0.1119 -0.1983
  157MOL0     C21099   9.130   7.506  10.495  0.6292  0.0098 -0.0564
  157MOL0     C21100   9.127   7.620  10.604 -0.6057  0.3927 -0.2726
  157MOL0     C21101   9.241   7.580  10.701 -0.2105 -0.6988  0.1529
  157MOL0     C21102   9.253   7.684  10.818 -0.4060  0.1281  0.1105
  157MOL0     C21103   9.344   7.640  10.935  0.6263  0.1097 -0.5160
  157MOL0    Cl21104   9.513   7.580  10.882  0.5744  0.0888  0.0453
  157MOL0     C21105   8.573   7.433  10.153 -0.0062  0.4327  0.5107
  157MOL0     C21106   8.458   7.465  10.070  0.3814  0.0292 -0.9769
  157MOL0     O21107   8.396   7.790   9.926 -0.7598 -1.1457  0.6952
  157MOL0     C21108   8.140   7.604   9.756 -0.2329  0.5591  0.6140
  157MOL0     C21109   8.017   7.624   9.702 -0.0531  0.1506  0.8927
  157MOL0     N21110   7.818   7.414   9.219  0.1313 -0.8453 -0.0264
  157MOL0     N21111   7.946   7.410   9.204 -0.2509 -0.5102 -0.7830
  157MOL0     C21112   9.263   7.672   9.351 -0.1727 -0.5092  0.5343
  157MOL0     C21113   9.392   7.737   9.344 -0.7314  0.2359  0.1533
  157MOL0     C21114   9.778   7.938   9.241 -0.5610  0.5746  0.6028
  157MOL0     C21115   9.874   7.922   9.342  0.6815  0.5280  0.0000
  157MOL0     C21116   9.975   8.014   9.360 -0.1866  0.1134 -0.4189
  157MOL0     C21117   9.994   8.120   9.270  0.5260 -0.4191  0.6272
  157MOL0     O21118  10.089   8.219   9.292 -1.2620 -0.9619 -0.5556
  157MOL0     C21119  10.167   8.275   9.183 -1.0714  0.6912  0.1392
  157MOL0     C21120  10.283   8.173   9.160 -0.1451 -0.5895 -0.7690
  157MOL0     C21121  10.388   8.189   9.273 -0.0112  0.3437 -0.2310
  157MOL0     C21122  10.509   8.099   9.261  0.2803  0.3539  0.2257
  157MOL0     C21123  10.584   8.117   9.135  0.1075  0.1887  0.5391
  157MOL0     C21124  10.663   8.110   9.039 -0.4648 -0.1859  0.4625
  157MOL0     C21125   9.907   8.128   9.152  0.2266  0.1718  0.7937
  157MOL0     C21126   9.799   8.036   9.141  0.9504 -0.0012  0.4378
  157MOL0     C21127   9.704   8.046   9.021 -0.6062  0.9258 -0.0467
  157MOL0     H21128   9.341   7.915   9.047  1.8553 -3.2014 -1.5733
  157MOL0     H21129   9.143   7.766   9.059 -1.3397 -0.8892  0.2718
  157MOL0     H21130   8.942   7.555   9.362 -1.2122  2.0073  0.5191
  157MOL0     H21131   8.953   7.718   9.320  0.9214 -0.6200  0.1131
  157MOL0     H21132   8.837   7.504   9.121  0.8631  0.5585 -0.8751
  157MOL0     H21133   8.850   7.677   9.093  3.5176  1.5804  0.6856
  157MOL0     H21134   8.665   7.715   9.253 -0.1019 -1.2918  1.1805
  157MOL0     H21135   8.662   7.555   9.315 -0.7242 -2.5086 -0.6087
  157MOL0     H21136   8.588   7.667   9.033 -0.7008 -0.4695 -1.0892
  157MOL0     H21137   8.638   7.513   9.046  0.6668  2.8025 -2.2758
  157MOL0     H21138   8.403   7.514   9.050 -0.2526 -1.3559  1.0133
  157MOL0     H21139   8.444   7.463   9.214 -1.3682  1.0660  1.1533
  157MOL0     H21140   8.409   7.711   9.287  0.7466  0.6187 -0.0707
  157MOL0     H21141   8.345   7.740   9.130 -0.8781 -0.0854  1.0809
  157MOL0     H21142   8.166   7.705   9.307 -3.1534  1.3393 -3.0931
  157MOL0     H21143   8.225   7.539   9.324  1.1990  0.2395  0.3186
  157MOL0     H21144   8.143   7.644   9.053  2.4314 -0.1920 -0.3261
  157MOL0     H21145   8.185   7.484   9.094 -0.7094  0.4353 -0.6119
  157MOL0     H21146   7.902   7.730   9.196 -1.2407 -0.0214  2.2393
  157MOL0     H21147   7.605   7.675   9.182  1.2214 -0.7246 -0.7944
  157MOL0     H21148   7.580   7.533   9.283 -0.4355  0.3869  1.8867
  157MOL0     H21149   7.730   7.784   9.388  2.1210 -2.2779 -2.2332
  157MOL0     H21150   7.557   7.738   9.415 -1.5544 -1.7998 -2.0104
  157MOL0     H21151   7.802   7.573   9.488 -0.0105  1.9811 -1.9586
  157MOL0     H21152   7.637   7.524   9.524 -0.0046 -0.4343 -0.5499
  157MOL0     H21153   7.748   7.619   9.738 -2.4975 -0.5158  0.7612
  157MOL0     H21154   7.639   7.747   9.672  0.2338  0.5686 -1.5718
  157MOL0     H21155   7.985   7.967   9.730 -2.2350 -0.2732 -1.3783
  157MOL0     H21156   8.217   7.931   9.830  1.1551 -0.5483 -1.0536
  157MOL0     H21157   8.631   7.598   9.803  0.4037 -2.0281 -0.9711
  157MOL0     H21158   8.813   7.552   9.947  0.0699  2.2484  1.6557
  157MOL0     H21159   8.958   7.442  10.060 -0.8440  1.0398 -1.4355
  157MOL0     H21160   8.918   7.583  10.161  1.6615 -0.0305  2.1211
  157MOL0     H21161   9.022   7.328  10.297  1.4182  0.4544  1.4976
  157MOL0     H21162   9.131   7.434  10.227 -0.6655  2.7234 -1.2144
  157MOL0     H21163   9.045   7.626  10.343 -2.6961  0.6005 -0.5075
  157MOL0     H21164   8.919   7.537  10.420  0.6366 -0.0166  2.8407
  157MOL0     H21165   9.229   7.516  10.450  1.0421  0.5505  0.9264
  157MOL0     H21166   9.118   7.406  10.538  1.4153  0.1143  0.4170
  157MOL0     H21167   9.028   7.622  10.652  0.5370  3.0305  2.2527
  157MOL0     H21168   9.155   7.719  10.569 -2.5716  2.3194  3.0258
  157MOL0     H21169   9.234   7.480  10.744 -3.2418 -0.6533 -0.0308
  157MOL0     H21170   9.335   7.591  10.646  0.3777 -0.0772  1.2435
  157MOL0     H21171   9.152   7.718  10.842 -0.6243 -1.0691  0.9627
  157MOL0     H21172   9.309   7.765  10.770  2.4581 -2.6281 -1.5742
  157MOL0     H21173   9.366   7.727  10.997  2.4221 -1.6584  1.4679
  157MOL0     H21174   9.287   7.569  10.994  2.7272 -1.4732 -0.2582
  157MOL0     H21175   8.561   7.384  10.249  0.3380  1.1769  0.9463
  157MOL0     H21176   8.358   7.443  10.104  0.5860  2.1088  1.2167
  157MOL0     H21177   8.189   7.507   9.746 -1.1181  0.3343 -2.6571
  157MOL0     H21178   7.966   7.536   9.664 -1.2637  1.3923 -0.4649
  157MOL0     H21179   9.248   7.597   9.428  1.4873  0.0169  1.4398
  157MOL0     H21180   9.464   7.710   9.421  1.2832  0.6749 -1.5060
  157MOL0     H21181   9.868   7.847   9.420 -0.2533  0.6847  0.0914
  157MOL0     H21182  10.034   8.009   9.451 -3.4124 -1.1947  1.8179
  157MOL0     H21183  10.210   8.373   9.204  0.9796  0.0516 -0.7614
  157MOL0     H21184  10.107   8.284   9.092 -0.4336 -3.6988 -0.9523
  157MOL0     H21185  10.325   8.196   9.062  3.2737  3.2045  1.2460
  157MOL0     H21186  10.235   8.075   9.167  0.2100 -0.6414  2.6418
  157MOL0     H21187  10.340   8.186   9.372  1.8672  2.1357  0.8391
  157MOL0     H21188  10.418   8.294   9.270  0.2609  0.2407 -1.6517
  157MOL0     H21189  10.575   8.112   9.347  0.8828  0.8313 -0.3009
  157MOL0     H21190  10.463   7.999   9.260  1.7999 -0.3812  0.9909
  157MOL0     H21191  10.739   8.117   8.964  1.4300 -1.6130  2.1273
  157MOL0     H21192   9.920   8.197   9.069  1.1242 -1.0351 -0.1162
  157MOL0     H21193   9.661   7.949   8.994 -1.0962  1.3767 -0.9644
  157MOL0     H21194   9.618   8.108   9.046 -2.0092 -0.5056 -1.0724
  157MOL0     H21195   9.758   8.097   8.941  2.3383  0.1158  1.3134
  158MOL0     O21196   8.384   8.075   5.574 -0.0770  0.1584  0.7544
  158MOL0     C21197   8.349   7.963   5.613 -1.1255 -0.2316  0.1815
  158MOL0     O21198   8.428   7.871   5.674 -0.0777  0.1321  0.7151
  158MOL0     C21199   8.547   7.914   5.720  0.1184 -1.2077  0.5288
  158MOL0     C21200   8.568   8.030   5.799 -0.5601 -0.3772 -0.0333
  158MOL0     C21201   8.701   8.069   5.842  1.3825  0.0569  0.3134
  158MOL0     C21202   8.809   7.983   5.796  0.8484 -0.4081 -0.6272
  158MOL0     O21203   8.936   8.017   5.820  0.5086  0.0100  0.2329
  158MOL0     C21204   8.963   8.077   5.954 -0.5420  0.1119  0.7181
  158MOL0     C21205   9.104   8.030   6.003 -0.9033  0.1886 -0.0590
  158MOL0     C21206   9.151   8.090   6.140  0.1067  1.1093  0.2017
  158MOL0     C21207   9.272   8.025   6.177  0.3646 -0.2079 -0.5985
  158MOL0     C21208   9.308   8.029   6.324  0.0703 -0.3244 -0.2308
  158MOL0     C21209   9.394   7.909   6.369  0.3161 -1.0588 -0.5707
  158MOL0     C21210   9.541   7.921   6.318  0.8029 -0.1467 -1.0325
  158MOL0     C21211   9.645   7.839   6.394  0.1477 -0.2734  0.0227
  158MOL0     N21212   9.770   7.821   6.337 -0.9549  0.2938 -0.0860
  158MOL0     C21213   9.876   7.908   6.348 -0.1367  0.3392  0.2979
  158MOL0     C21214   9.981   7.849   6.290 -0.4661 -0.6412 -0.3555
  158MOL0     C21215  10.125   7.893   6.272 -0.1920 -0.2168 -0.0429
  158MOL0     C21216  10.236   7.786   6.278 -0.0928 -0.3390 -0.2099
  158MOL0     C21217  10.366   7.858   6.254 -0.3258 -0.2827  0.1531
  158MOL0     C21218  10.480   7.760   6.271  0.1969  0.0878  0.0291
  158MOL0     O21219  10.516   7.723   6.405 -0.0880  0.7262 -0.9492
  158MOL0     C21220  10.642   7.661   6.431 -1.1264 -0.8436 -0.5523
  158MOL0     C21221  10.688   7.664   6.568 -0.7567  1.1580  0.0488
  158MOL0     C21222  10.815   7.607   6.599 -0.3002  1.0337 -0.0946
  158MOL0     C21223  10.901   7.549   6.505  0.4879 -0.1594 -1.2844
  158MOL0     C21224  11.030   7.472   6.539  0.5175 -0.3714  1.1008
  158MOL0     O21225  11.089   7.407   6.435  0.5419 -0.7572  0.5344
  158MOL0     C21226  11.213   7.348   6.445  0.2359 -0.5999 -0.1432
  158MOL0     C21227  11.258   7.270   6.558  1.2039  0.3983  0.0885
  158MOL0     C21228  11.388   7.217   6.561  0.8152 -0.2469  0.4528
  158MOL0     C21229  11.479   7.225   6.451  0.1776 -0.1569  1.0928
  158MOL0     O21230  11.604   7.170   6.454  0.9710  0.3572 -0.1519
  158MOL0     C21231  11.598   7.035   6.505 -0.4266  0.2569 -0.0829
  158MOL0     C21232  11.735   6.968   6.498  0.1278  0.5447 -0.5259
  158MOL0     C21233  11.772   6.915   6.363  0.6960 -0.1213  0.5534
  158MOL0     C21234  11.896   6.826   6.356  0.4907  0.1400 -0.3673
  158MOL0     C21235  11.911   6.785   6.206  0.7114  0.0660 -0.0916
  158MOL0     C21236  12.035   6.708   6.171 -0.1271  0.2592 -0.3312
  158MOL0     C21237  12.173   6.777   6.188 -0.4059 -0.0723 -0.4146
  158MOL0     C21238  12.174   6.912   6.124  0.3978 -0.4831  0.1564
  158MOL0    Cl21239  12.142   6.903   5.947 -0.0644  0.0793  0.0738
  158MOL0     C21240  11.430   7.281   6.331  0.1834  0.0861  0.2064
  158MOL0     C21241  11.304   7.348   6.337  0.1721  0.6918  0.0135
  158MOL0     O21242  11.082   7.483   6.650 -0.4332 -0.2135 -0.0122
  158MOL0     C21243  10.853   7.553   6.374  0.2035 -0.0379  0.1587
  158MOL0     C21244  10.732   7.605   6.336  0.5047  0.3750 -0.2652
  158MOL0     N21245   9.934   7.737   6.235 -0.8413  0.3921  0.9038
  158MOL0     N21246   9.808   7.714   6.260 -0.2198 -0.3514  0.1113
  158MOL0     C21247   8.784   7.880   5.709  0.4027 -0.4485  0.9791
  158MOL0     C21248   8.651   7.833   5.682 -0.5050 -0.3983 -0.0173
  158MOL0     C21249   8.224   7.906   5.559 -0.3578  0.0697 -0.4010
  158MOL0     C21250   8.175   7.951   5.433  0.2795 -0.0281 -0.1329
  158MOL0     C21251   8.055   7.896   5.378 -0.1119  0.3450 -0.1320
  158MOL0     C21252   7.970   7.811   5.454 -0.2593  0.2274 -0.5272
  158MOL0     O21253   7.851   7.761   5.412  0.0459  0.0001 -0.2849
  158MOL0     C21254   7.802   7.806   5.283 -0.4710  0.2016  0.7323
  158MOL0     C21255   7.656   7.752   5.268  0.0230 -0.1061 -0.4606
  158MOL0     C21256   7.605   7.765   5.117 -0.6687  0.4286 -0.6230
  158MOL0     C21257   7.455   7.734   5.103  0.3699 -0.0694  0.5165
  158MOL0     C21258   7.402   7.771   4.971  0.0739 -0.1928  0.0024
  158MOL0     C21259   7.388   7.798   4.855 -0.4916  0.3760  0.2403
  158MOL0     C21260   8.025   7.758   5.579 -0.2014 -0.0615 -0.3418
  158MOL0     C21261   8.143   7.803   5.633 -0.4165 -0.4076 -0.5450
  158MOL0     C21262   8.182   7.759   5.766  0.0652  0.1349 -0.2671
  158MOL0     H21263   8.485   8.089   5.835  0.4486  0.4287  1.0633
  158MOL0     H21264   8.728   8.149   5.910  1.6449  1.8520 -1.7908
  158MOL0     H21265   8.972   8.184   5.936  1.2222 -0.1320 -0.0101
  158MOL0     H21266   8.895   8.044   6.034 -0.6764  2.5775  1.7042
  158MOL0     H21267   9.174   8.063   5.925  0.5369 -2.7866 -0.1701
  158MOL0     H21268   9.099   7.921   6.007  0.4206  0.1498  0.9595
  158MOL0     H21269   9.072   8.066   6.212 -0.4972 -2.8236 -1.5230
  158MOL0     H21270   9.161   8.199   6.146 -0.7293  1.1273  1.8498
  158MOL0     H21271   9.267   7.921   6.146 -1.6075 -1.0285  2.1563
  158MOL0     H21272   9.349   8.056   6.105 -1.2122 -0.5427 -2.5239
  158MOL0     H21273   9.364   8.117   6.358 -0.3140 -0.8842  2.0326
  158MOL0     H21274   9.208   8.028   6.370 -0.8441 -3.1280 -2.0559
  158MOL0     H21275   9.394   7.910   6.478  0.5954 -0.3522 -0.5730
  158MOL0     H21276   9.352   7.817   6.326 -0.9523 -0.4478 -0.6845
  158MOL0     H21277   9.569   8.026   6.315  0.8199  0.0202  1.8732
  158MOL0     H21278   9.536   7.890   6.213 -2.5078 -1.1829 -0.6941
  158MOL0     H21279   9.648   7.883   6.494  1.5925 -0.0043 -0.1253
  158MOL0     H21280   9.602   7.740   6.408  1.0687 -0.7421 -0.4072
  158MOL0     H21281   9.860   8.006   6.392  1.6268  0.1386  1.4739
  158MOL0     H21282  10.135   7.929   6.169  3.8818 -1.0491 -0.1205
  158MOL0     H21283  10.143   7.967   6.350  2.3922 -0.4999 -0.2776
  158MOL0     H21284  10.236   7.746   6.380  2.5427  1.0679  0.4407
  158MOL0     H21285  10.218   7.714   6.197 -1.5511 -2.2283  1.6624
  158MOL0     H21286  10.382   7.948   6.313  2.8204  1.6658 -3.1917
  158MOL0     H21287  10.372   7.897   6.152  0.3405 -0.4342  0.1275
  158MOL0     H21288  10.569   7.798   6.220  0.1242 -0.2872 -0.3795
  158MOL0     H21289  10.449   7.673   6.213 -1.1074  1.4891 -1.5242
  158MOL0     H21290  10.629   7.710   6.646  1.0442  1.8326  1.0702
  158MOL0     H21291  10.842   7.600   6.704 -1.4911 -2.4553  0.1137
  158MOL0     H21292  11.205   7.263   6.653 -2.3955  0.0413 -1.7548
  158MOL0     H21293  11.426   7.186   6.658  2.5742 -0.0717 -0.1447
  158MOL0     H21294  11.578   7.024   6.612 -0.5130  1.1412 -0.0032
  158MOL0     H21295  11.523   6.970   6.459  1.1718 -0.6832 -1.4644
  158MOL0     H21296  11.809   7.042   6.531 -0.6287 -0.1602  3.2217
  158MOL0     H21297  11.729   6.882   6.566 -0.0875  0.1294 -1.0551
  158MOL0     H21298  11.687   6.858   6.324  1.4900 -0.5010 -0.6591
  158MOL0     H21299  11.774   6.997   6.290  0.5602  2.3293  3.1368
  158MOL0     H21300  11.903   6.747   6.432 -0.4433  1.4937  1.1933
  158MOL0     H21301  11.976   6.899   6.373 -0.0013  0.6151 -0.0797
  158MOL0     H21302  11.915   6.869   6.135 -0.0870 -0.4681 -0.7858
  158MOL0     H21303  11.823   6.726   6.180  0.0748  1.6963 -1.8484
  158MOL0     H21304  12.031   6.617   6.231  0.9660 -1.1754 -2.3176
  158MOL0     H21305  12.019   6.678   6.067 -0.6187  2.5528 -0.9831
  158MOL0     H21306  12.247   6.707   6.149 -1.3297 -2.5185  1.9792
  158MOL0     H21307  12.203   6.780   6.293 -0.5001  0.1962 -0.3936
  158MOL0     H21308  12.099   6.975   6.173  0.8915 -1.4921  2.3116
  158MOL0     H21309  12.274   6.955   6.132 -0.0656  0.7489 -0.3872
  158MOL0     H21310  11.495   7.270   6.245  2.3898 -1.0626  1.9344
  158MOL0     H21311  11.276   7.395   6.243  0.1348 -2.4414 -1.6780
  158MOL0     H21312  10.909   7.500   6.298 -0.0849 -1.6467  1.0146
  158MOL0     H21313  10.698   7.600   6.233  1.8856  2.1089 -0.8477
  158MOL0     H21314   8.875   7.828   5.679 -0.7905 -0.9004 -2.3053
  158MOL0     H21315   8.634   7.737   5.633 -0.6667 -1.7428  2.5065
  158MOL0     H21316   8.238   8.023   5.382 -0.3547  2.9580  2.9037
  158MOL0     H21317   8.025   7.931   5.279  0.7074  1.9429  0.1443
  158MOL0     H21318   7.867   7.765   5.205 -1.6726  1.8540 -1.2427
  158MOL0     H21319   7.798   7.916   5.279 -0.1409  0.2516  1.5038
  158MOL0     H21320   7.587   7.804   5.335  0.0137 -0.9724  0.2351
  158MOL0     H21321   7.654   7.646   5.294  0.7710 -0.5857 -2.2109
  158MOL0     H21322   7.662   7.701   5.050  0.7195  0.7560  0.1932
  158MOL0     H21323   7.622   7.867   5.081 -0.1882  1.5430  2.4720
  158MOL0     H21324   7.436   7.627   5.115 -0.6223  0.0578  0.1539
  158MOL0     H21325   7.401   7.792   5.179 -0.7694  1.6808 -1.5101
  158MOL0     H21326   7.377   7.824   4.752 -3.7116 -1.0849  0.0868
  158MOL0     H21327   7.962   7.684   5.627 -2.9984 -0.0572 -3.5825
  158MOL0     H21328   8.111   7.705   5.829  1.0319 -2.2113 -1.0425
  158MOL0     H21329   8.264   7.687   5.756 -1.3182 -1.6084  0.3355
  158MOL0     H21330   8.208   7.841   5.834 -0.2003 -1.6118  2.0773
  159MOL0     O21331   5.722   8.811   3.030 -0.0896  0.3995  0.3806
  159MOL0     C21332   5.649   8.768   2.940  0.0826 -0.6658  0.7068
  159MOL0     O21333   5.691   8.686   2.825 -0.5170 -0.8116 -0.4683
  159MOL0     C21334   5.822   8.646   2.821 -0.1993 -0.3762 -0.4757
  159MOL0     C21335   5.877   8.540   2.901  0.7185  0.1370  0.4235
  159MOL0     C21336   6.013   8.516   2.909  1.2610  0.0241 -1.0332
  159MOL0     C21337   6.104   8.584   2.825 -0.1175 -0.4844  0.1997
  159MOL0     O21338   6.236   8.533   2.832  0.3474 -0.0991  0.0421
  159MOL0     C21339   6.340   8.592   2.760  0.3999  0.6052  0.9124
  159MOL0     C21340   6.470   8.542   2.817  0.1666  0.2580  0.6488
  159MOL0     C21341   6.595   8.613   2.764  0.3240  0.1690 -0.8261
  159MOL0     C21342   6.731   8.552   2.813  0.9974 -1.8094  0.1165
  159MOL0     C21343   6.839   8.651   2.771 -0.8109  0.9882 -0.4094
  159MOL0     C21344   6.975   8.597   2.825 -0.9784 -0.4008  0.4999
  159MOL0     C21345   7.102   8.661   2.762 -0.7435  0.4252 -0.3868
  159MOL0     C21346   7.235   8.646   2.838 -0.7604 -1.6245  0.1201
  159MOL0     N21347   7.333   8.721   2.759 -0.2347  0.4923  0.2833
  159MOL0     C21348   7.396   8.667   2.651 -0.3830 -0.6576 -0.1393
  159MOL0     C21349   7.458   8.776   2.596 -0.0425  0.1273  0.0009
  159MOL0     C21350   7.541   8.766   2.470 -0.4265 -0.4334  0.4510
  159MOL0     C21351   7.689   8.797   2.476 -0.1119  0.1771 -0.3870
  159MOL0     C21352   7.756   8.791   2.339 -0.3977 -0.2432 -0.0954
  159MOL0     C21353   7.913   8.792   2.359  0.5174 -0.4851 -0.2859
  159MOL0     O21354   7.953   8.914   2.421  0.2024  0.5909 -0.1343
  159MOL0     C21355   8.086   8.927   2.452 -0.5234  0.1579  1.0945
  159MOL0     C21356   8.109   9.034   2.536  0.6200  1.1618 -0.5405
  159MOL0     C21357   8.235   9.074   2.578 -0.0541 -0.0007 -0.6294
  159MOL0     C21358   8.349   9.007   2.531  0.3372  1.0619  0.0098
  159MOL0     C21359   8.480   9.045   2.593 -1.2017 -0.4525  0.2873
  159MOL0     O21360   8.496   9.177   2.642 -0.1697  0.3249  0.6329
  159MOL0     C21361   8.616   9.243   2.654 -1.2685  0.7723  0.0017
  159MOL0     C21362   8.731   9.211   2.582 -0.5389  0.2221  0.7007
  159MOL0     C21363   8.852   9.281   2.597  0.3855  0.2043 -0.4846
  159MOL0     C21364   8.859   9.378   2.702 -0.5306 -0.3230  0.3814
  159MOL0     O21365   8.985   9.435   2.715  0.1414  0.2157 -0.5119
  159MOL0     C21366   9.001   9.544   2.803 -0.3986 -0.1318  0.2008
  159MOL0     C21367   9.135   9.611   2.778  0.6131 -0.7332 -0.1497
  159MOL0     C21368   9.191   9.658   2.905 -0.4092  0.5099  0.2990
  159MOL0     C21369   9.347   9.649   2.916  0.2492  0.4201 -0.3036
  159MOL0     C21370   9.386   9.732   3.034  0.1910  0.4972  1.1485
  159MOL0     C21371   9.541   9.728   3.044 -0.9912  0.3791  0.2892
  159MOL0     C21372   9.585   9.799   3.172  0.9601  1.2823  0.1251
  159MOL0     C21373   9.738   9.778   3.192 -0.3074  0.0868  0.5135
  159MOL0    Cl21374   9.804   9.856   3.339 -0.0347 -0.0929 -0.5498
  159MOL0     C21375   8.749   9.399   2.786  0.1616 -0.2864  0.4698
  159MOL0     C21376   8.624   9.338   2.754  0.3692 -0.3444 -0.4570
  159MOL0     O21377   8.576   8.961   2.583  0.2236 -0.4065 -0.3017
  159MOL0     C21378   8.329   8.910   2.431  0.2238 -0.4384  0.2528
  159MOL0     C21379   8.194   8.862   2.395 -1.3528 -0.2572 -0.0297
  159MOL0     N21380   7.428   8.891   2.660 -0.0417 -0.8087 -0.4937
  159MOL0     N21381   7.355   8.853   2.758  0.5494 -0.9747 -0.0611
  159MOL0     C21382   6.053   8.686   2.740 -0.9456 -0.4095  0.0622
  159MOL0     C21383   5.916   8.721   2.739  0.9166  0.1833 -0.1340
  159MOL0     C21384   5.516   8.820   2.951 -0.2378 -0.4961 -0.0779
  159MOL0     C21385   5.460   8.807   3.076 -0.9495 -0.3284 -0.0581
  159MOL0     C21386   5.328   8.847   3.090  0.9740 -0.0482  0.1547
  159MOL0     C21387   5.249   8.895   2.982  0.0521  0.6455 -0.0049
  159MOL0     O21388   5.122   8.943   2.995  0.2184  0.3915  0.3499
  159MOL0     C21389   5.024   8.861   3.068  0.4273 -0.3371  0.9109
  159MOL0     C21390   4.999   8.735   2.984 -0.4415 -0.1329 -0.0857
  159MOL0     C21391   4.869   8.654   3.021 -0.2819  0.1016  0.4158
  159MOL0     C21392   4.858   8.520   2.945 -0.4833  0.0411 -0.4223
  159MOL0     C21393   4.973   8.435   2.987 -0.5071  0.3547 -0.5008
  159MOL0     C21394   5.066   8.369   3.016  0.2133  0.5515  0.1155
  159MOL0     C21395   5.303   8.904   2.861 -0.2287  0.7420 -0.3873
  159MOL0     C21396   5.439   8.867   2.837 -0.1702 -0.5730 -0.8785
  159MOL0     C21397   5.503   8.898   2.705  0.9084 -0.6527 -1.1645
  159MOL0     H21398   5.811   8.475   2.958  2.4636 -0.0096  2.4031
  159MOL0     H21399   6.046   8.447   2.985  2.0535  2.1170  0.6429
  159MOL0     H21400   6.330   8.566   2.654 -2.2635 -0.3021  1.3151
  159MOL0     H21401   6.336   8.700   2.780  0.8364  1.3146 -2.2517
  159MOL0     H21402   6.484   8.435   2.798 -0.1745  0.1275  1.1070
  159MOL0     H21403   6.472   8.562   2.925 -1.5701  1.3723  0.5123
  159MOL0     H21404   6.595   8.716   2.799  0.8542 -0.3359  0.7481
  159MOL0     H21405   6.596   8.613   2.654 -0.7394 -1.1335 -0.8697
  159MOL0     H21406   6.728   8.529   2.920  0.7875  2.2432  1.1264
  159MOL0     H21407   6.742   8.460   2.754 -2.6973 -1.2298 -1.8064
  159MOL0     H21408   6.848   8.650   2.662  0.4249 -0.5736 -0.3259
  159MOL0     H21409   6.827   8.756   2.799 -0.7318  0.3138  2.5764
  159MOL0     H21410   6.969   8.617   2.933  1.8244  1.6690  0.3961
  159MOL0     H21411   6.993   8.489   2.820  1.3377 -0.0880  0.8517
  159MOL0     H21412   7.090   8.767   2.737 -1.1881 -0.1312 -2.8082
  159MOL0     H21413   7.114   8.611   2.666  0.3455  1.6026 -0.9035
  159MOL0     H21414   7.228   8.709   2.927  1.0333  0.6258 -1.2056
  159MOL0     H21415   7.270   8.547   2.868  0.5196 -0.7057  1.8315
  159MOL0     H21416   7.390   8.566   2.613 -2.0746 -0.5937 -0.1239
  159MOL0     H21417   7.525   8.674   2.413 -0.7861  1.5517 -2.9404
  159MOL0     H21418   7.499   8.844   2.406  1.1549 -0.5328 -0.7778
  159MOL0     H21419   7.707   8.898   2.515 -0.7794  0.1655 -0.0324
  159MOL0     H21420   7.744   8.720   2.532  0.3714  0.6742 -0.1692
  159MOL0     H21421   7.717   8.875   2.281  0.8825  1.5056  1.4592
  159MOL0     H21422   7.733   8.695   2.292 -0.9498 -0.3016  0.2870
  159MOL0     H21423   7.966   8.795   2.263  0.1598 -1.9539 -0.5457
  159MOL0     H21424   7.958   8.706   2.409  1.9866 -0.7954 -2.0523
  159MOL0     H21425   8.024   9.079   2.587  2.3188  1.4083  2.3001
  159MOL0     H21426   8.243   9.161   2.642  2.4464 -0.0740 -0.7379
  159MOL0     H21427   8.727   9.126   2.515  0.5439  0.6931  0.0065
  159MOL0     H21428   8.943   9.267   2.540  0.4233 -2.4493  0.1059
  159MOL0     H21429   8.927   9.621   2.778  2.1232  1.7599 -1.9549
  159MOL0     H21430   8.993   9.507   2.906  0.6544 -0.0614  0.3143
  159MOL0     H21431   9.192   9.534   2.726 -2.6588 -3.9307  0.6157
  159MOL0     H21432   9.122   9.689   2.702  2.5702  1.1027  1.2799
  159MOL0     H21433   9.156   9.760   2.920 -0.4945  0.9255 -2.3460
  159MOL0     H21434   9.158   9.596   2.989  2.7268 -0.4501  0.9911
  159MOL0     H21435   9.403   9.676   2.826 -0.0160 -0.5442 -0.7704
  159MOL0     H21436   9.385   9.546   2.925 -1.7956 -0.2579  1.6272
  159MOL0     H21437   9.344   9.682   3.122 -4.0658 -0.1894 -0.9930
  159MOL0     H21438   9.345   9.833   3.031  0.6969  0.6764 -0.2956
  159MOL0     H21439   9.569   9.622   3.036 -0.8896  0.2233  2.3270
  159MOL0     H21440   9.580   9.780   2.956  0.7689 -1.0501  0.1560
  159MOL0     H21441   9.532   9.766   3.261 -1.8199  3.0708 -0.7631
  159MOL0     H21442   9.560   9.904   3.161 -2.1560  0.6363  0.3353
  159MOL0     H21443   9.755   9.670   3.202 -2.1825 -0.1849  1.1874
  159MOL0     H21444   9.792   9.805   3.101 -0.7573 -0.7211 -0.0115
  159MOL0     H21445   8.741   9.471   2.866  0.3803 -1.2522  1.3739
  159MOL0     H21446   8.537   9.360   2.814  1.7700 -2.6250  2.6657
  159MOL0     H21447   8.416   8.857   2.395  2.1213  3.4465 -1.4143
  159MOL0     H21448   8.190   8.779   2.325 -1.2395 -0.6291  0.4002
  159MOL0     H21449   6.123   8.733   2.672  0.9168 -0.3172  1.9363
  159MOL0     H21450   5.884   8.809   2.683 -0.4097 -0.6685 -0.7731
  159MOL0     H21451   5.512   8.768   3.164  0.7170  0.8144 -0.4863
  159MOL0     H21452   5.271   8.842   3.182  0.9692 -1.1877  0.1099
  159MOL0     H21453   4.928   8.912   3.083 -0.7084 -2.1729  0.2666
  159MOL0     H21454   5.053   8.835   3.170 -1.3422  0.5594  1.6763
  159MOL0     H21455   5.093   8.680   2.971 -0.3114 -0.6735  2.5984
  159MOL0     H21456   4.969   8.773   2.886 -2.2853 -1.2760 -0.0184
  159MOL0     H21457   4.781   8.715   2.996 -0.2087  0.1151  0.1909
  159MOL0     H21458   4.849   8.646   3.129 -3.0309  1.8669  0.1480
  159MOL0     H21459   4.767   8.466   2.975 -0.7042  1.4207  1.5944
  159MOL0     H21460   4.864   8.534   2.837 -0.2652 -1.0901 -0.5717
  159MOL0     H21461   5.151   8.305   3.028  1.2050  1.1367 -2.9288
  159MOL0     H21462   5.247   8.939   2.775 -0.8326  2.2487  0.5871
  159MOL0     H21463   5.489   8.807   2.645 -1.3540  1.2637 -3.8208
  159MOL0     H21464   5.442   8.973   2.655 -0.1391 -0.7798 -0.1361
  159MOL0     H21465   5.608   8.924   2.717  0.6692 -0.4503  0.9522
  160MOL0     O21466   5.587   4.647   1.592  0.4222  0.0673  0.1841
  160MOL0     C21467   5.576   4.694   1.479 -0.2514  0.3534 -0.6962
  160MOL0     O21468   5.678   4.761   1.419 -0.1817  0.6179 -1.0856
  160MOL0     C21469   5.800   4.761   1.487 -0.5543 -0.6480  0.6170
  160MOL0     C21470   5.894   4.653   1.484  1.0128 -0.0414  0.6788
  160MOL0     C21471   6.015   4.671   1.542  1.2635  1.3363  0.1543
  160MOL0     C21472   6.059   4.787   1.610 -1.0606  0.1482 -0.1415
  160MOL0     O21473   6.185   4.784   1.665  0.0500  0.0197 -0.2883
  160MOL0     C21474   6.195   4.797   1.810 -0.0895 -0.6013  0.6186
  160MOL0     C21475   6.339   4.782   1.857 -0.3631 -0.2414 -0.6352
  160MOL0     C21476   6.390   4.645   1.838  0.2039  0.3329  0.0484
  160MOL0     C21477   6.527   4.626   1.897 -0.7199 -0.2521  0.7723
  160MOL0     C21478   6.579   4.481   1.892  0.5913 -0.0327 -0.0696
  160MOL0     C21479   6.649   4.431   2.013  0.0948 -0.3866 -0.5020
  160MOL0     C21480   6.764   4.520   2.054 -0.6570 -0.0301 -0.0564
  160MOL0     C21481   6.810   4.476   2.198  0.2247 -0.4750  0.9508
  160MOL0     N21482   6.953   4.499   2.213  0.4385  0.2042 -0.1367
  160MOL0     C21483   7.009   4.593   2.306 -0.0559 -0.8830  0.1680
  160MOL0     C21484   7.150   4.573   2.289  0.4814 -0.0244  0.2478
  160MOL0     C21485   7.268   4.636   2.360  0.1160  0.0589  0.1404
  160MOL0     C21486   7.357   4.707   2.260 -0.3511  0.2260 -0.5802
  160MOL0     C21487   7.480   4.764   2.322 -1.2109 -0.2227  0.2366
  160MOL0     C21488   7.606   4.677   2.306  0.2773  0.6114 -0.4944
  160MOL0     O21489   7.711   4.727   2.383  0.3269  0.4010  0.0181
  160MOL0     C21490   7.817   4.644   2.423  0.0529  0.3767  0.8936
  160MOL0     C21491   7.843   4.518   2.366 -0.7560 -0.2257 -0.7517
  160MOL0     C21492   7.967   4.451   2.387 -0.0500 -0.1834 -0.4064
  160MOL0     C21493   8.058   4.505   2.477  0.7128 -0.0008  0.3495
  160MOL0     C21494   8.186   4.430   2.496 -0.0602  0.3096 -0.8155
  160MOL0     O21495   8.246   4.465   2.610  0.3586  0.2628  0.0781
  160MOL0     C21496   8.370   4.410   2.649  1.1502  0.3063 -0.3931
  160MOL0     C21497   8.484   4.466   2.597  0.4372  0.3398  0.3731
  160MOL0     C21498   8.611   4.414   2.641 -0.1995 -0.3765 -0.1682
  160MOL0     C21499   8.618   4.311   2.739 -0.4203  0.3531 -0.1811
  160MOL0     O21500   8.731   4.254   2.784  0.3275 -0.3154 -0.3391
  160MOL0     C21501   8.856   4.329   2.769  0.3094  0.0555  0.0697
  160MOL0     C21502   8.976   4.251   2.824 -0.3179  0.6914  0.8688
  160MOL0     C21503   9.099   4.343   2.819  0.0996  0.0740  0.0994
  160MOL0     C21504   9.097   4.452   2.923 -0.6285 -0.0544 -0.2437
  160MOL0     C21505   9.233   4.526   2.921 -0.5037 -0.5335 -0.2720
  160MOL0     C21506   9.227   4.646   3.016 -0.3324 -0.0554  0.0633
  160MOL0     C21507   9.369   4.710   3.050  0.0483  0.5216  0.2025
  160MOL0     C21508   9.411   4.818   2.948  0.4788  0.6191 -0.3508
  160MOL0    Cl21509   9.350   4.977   3.020 -0.7191  0.1936  0.5532
  160MOL0     C21510   8.500   4.263   2.790  0.7469  0.2934  0.7485
  160MOL0     C21511   8.376   4.305   2.744 -0.2811  0.0742  0.4550
  160MOL0     O21512   8.230   4.354   2.407  0.7033 -0.2608 -0.2553
  160MOL0     C21513   8.021   4.619   2.558  0.0560 -0.5001  0.2885
  160MOL0     C21514   7.908   4.691   2.517 -0.1996 -0.8307  0.2181
  160MOL0     N21515   7.157   4.475   2.189 -0.0536 -0.0846 -0.4298
  160MOL0     N21516   7.047   4.436   2.145  0.7359 -0.5372  0.2092
  160MOL0     C21517   5.968   4.887   1.606 -0.5390  0.4587 -0.1199
  160MOL0     C21518   5.846   4.880   1.550  0.1162  0.2028 -1.0193
  160MOL0     C21519   5.438   4.719   1.420 -0.3107 -0.1095 -0.2489
  160MOL0     C21520   5.327   4.714   1.501  0.0749  0.8994  0.2324
  160MOL0     C21521   5.199   4.736   1.454  0.1817 -0.2252 -0.3022
  160MOL0     C21522   5.184   4.772   1.315 -0.0146  0.2873 -0.6747
  160MOL0     O21523   5.053   4.800   1.276 -0.2127 -0.3606  0.7567
  160MOL0     C21524   4.996   4.926   1.319  0.1696  0.4971 -0.3029
  160MOL0     C21525   4.846   4.904   1.334 -0.4546  0.6571  0.8785
  160MOL0     C21526   4.817   4.847   1.462 -0.4680 -0.2039 -1.8650
  160MOL0     C21527   4.668   4.805   1.465 -0.1384 -0.1129  0.4882
  160MOL0     C21528   4.650   4.771   1.610 -0.2520  0.1773  0.0827
  160MOL0     C21529   4.647   4.741   1.728 -0.3102 -0.5645 -0.7573
  160MOL0     C21530   5.294   4.791   1.232 -0.5535  0.5603 -0.5993
  160MOL0     C21531   5.417   4.752   1.277 -0.2190  0.0085 -0.4347
  160MOL0     C21532   5.521   4.768   1.169 -0.0367  0.1593  0.3164
  160MOL0     H21533   5.869   4.565   1.426  2.3658 -0.1161  0.1795
  160MOL0     H21534   6.082   4.586   1.532 -1.7439 -1.1433 -0.4640
  160MOL0     H21535   6.164   4.898   1.839  0.5113 -0.5735  1.1812
  160MOL0     H21536   6.127   4.730   1.863  0.6487 -2.2436 -0.4244
  160MOL0     H21537   6.343   4.810   1.963 -0.4456  0.1061 -0.7220
  160MOL0     H21538   6.402   4.855   1.805 -1.4480  0.2924 -1.2428
  160MOL0     H21539   6.405   4.616   1.734 -0.2056 -2.4453  0.6915
  160MOL0     H21540   6.310   4.579   1.871  0.9987 -2.3324 -2.9119
  160MOL0     H21541   6.592   4.687   1.834 -4.0696  2.9398  0.0255
  160MOL0     H21542   6.519   4.653   2.003  0.3004  0.7259  0.6178
  160MOL0     H21543   6.497   4.412   1.869  0.2278  0.4015 -0.0727
  160MOL0     H21544   6.650   4.476   1.809 -0.1182  0.7581 -0.7381
  160MOL0     H21545   6.593   4.428   2.107  3.3256 -0.9553  1.5517
  160MOL0     H21546   6.683   4.328   2.006 -2.1825 -1.1207 -1.9796
  160MOL0     H21547   6.728   4.622   2.066  2.4191  1.2436 -0.8331
  160MOL0     H21548   6.845   4.515   1.981 -0.2961 -0.1725  0.3530
  160MOL0     H21549   6.738   4.518   2.270 -2.0624  0.0149 -1.4523
  160MOL0     H21550   6.799   4.368   2.208  2.2761 -0.7840  0.2476
  160MOL0     H21551   6.956   4.668   2.364  0.2364  0.4442 -1.2347
  160MOL0     H21552   7.227   4.698   2.441 -0.0652 -1.8988  1.6249
  160MOL0     H21553   7.330   4.562   2.412 -0.6040 -0.0242  0.9103
  160MOL0     H21554   7.387   4.648   2.173  1.4314  1.2269 -0.6907
  160MOL0     H21555   7.303   4.795   2.224  3.2801  1.9550 -2.3444
  160MOL0     H21556   7.462   4.773   2.429  0.1081  2.1549  0.3221
  160MOL0     H21557   7.492   4.864   2.281 -1.9674 -0.8671 -1.6806
  160MOL0     H21558   7.627   4.645   2.203 -0.5318  1.4473 -0.9368
  160MOL0     H21559   7.575   4.591   2.367  0.3284 -0.0857 -1.4253
  160MOL0     H21560   7.775   4.473   2.295 -1.5936  0.9169 -0.6976
  160MOL0     H21561   7.993   4.368   2.322  0.8752  1.1290 -1.7988
  160MOL0     H21562   8.482   4.545   2.523 -2.1095  2.5001  2.5514
  160MOL0     H21563   8.699   4.467   2.605 -0.3921 -1.5167 -2.4869
  160MOL0     H21564   8.859   4.343   2.661  0.3312 -0.5918 -0.0210
  160MOL0     H21565   8.843   4.423   2.823 -0.3699 -0.7294  1.3537
  160MOL0     H21566   8.950   4.223   2.926  0.4037 -0.8653  0.6564
  160MOL0     H21567   9.000   4.164   2.762  0.9667  0.8799  1.0820
  160MOL0     H21568   9.183   4.276   2.837  0.3269  0.5073  0.7007
  160MOL0     H21569   9.117   4.389   2.721 -1.7087 -0.0306 -0.3154
  160MOL0     H21570   9.086   4.415   3.025  0.5086  0.7386  0.1846
  160MOL0     H21571   9.020   4.528   2.904  1.2711  2.2940  0.9999
  160MOL0     H21572   9.250   4.561   2.819  0.6252  0.5451  0.2597
  160MOL0     H21573   9.312   4.453   2.942  0.4608 -0.5344 -3.3339
  160MOL0     H21574   9.158   4.722   2.979 -1.6443 -1.0637  0.3962
  160MOL0     H21575   9.180   4.605   3.106 -1.3162  1.5976  0.3443
  160MOL0     H21576   9.435   4.623   3.054 -0.9387 -0.2495  4.1042
  160MOL0     H21577   9.361   4.759   3.147  1.9811 -0.7665  1.0868
  160MOL0     H21578   9.519   4.834   2.951  0.8468 -0.7307 -3.1449
  160MOL0     H21579   9.396   4.803   2.841 -2.6557 -0.6299  0.1587
  160MOL0     H21580   8.510   4.175   2.853 -3.0787 -0.4313  0.5531
  160MOL0     H21581   8.284   4.264   2.784 -0.2341 -0.6423 -0.1595
  160MOL0     H21582   8.081   4.656   2.640  1.6281  2.3843 -1.9654
  160MOL0     H21583   7.879   4.777   2.575  0.9411 -0.3936  0.1475
  160MOL0     H21584   6.006   4.982   1.642 -0.6951  0.8572 -0.9916
  160MOL0     H21585   5.791   4.973   1.560 -0.9083 -0.2436 -2.2793
  160MOL0     H21586   5.341   4.687   1.605  0.2163 -1.1314 -0.2824
  160MOL0     H21587   5.115   4.735   1.524  0.5319 -3.7693  0.2483
  160MOL0     H21588   5.028   5.000   1.246  2.9628 -0.2906 -0.0007
  160MOL0     H21589   5.036   4.975   1.409 -1.9607  2.0013 -0.0903
  160MOL0     H21590   4.815   4.837   1.254 -1.2044 -0.7771  2.3050
  160MOL0     H21591   4.813   5.008   1.330  0.0177  0.7706 -1.5481
  160MOL0     H21592   4.824   4.927   1.537 -0.4122 -1.6589 -0.2600
  160MOL0     H21593   4.880   4.762   1.487  1.9010  1.7145 -0.8762
  160MOL0     H21594   4.595   4.881   1.435  0.5535 -0.3798 -2.1453
  160MOL0     H21595   4.643   4.723   1.397 -0.3011  0.7446 -0.5153
  160MOL0     H21596   4.624   4.714   1.829 -1.1680  1.3463 -0.3995
  160MOL0     H21597   5.296   4.821   1.127 -2.0304 -3.4307 -1.9468
  160MOL0     H21598   5.472   4.748   1.073  0.4416 -0.5332  0.2069
  160MOL0     H21599   5.551   4.873   1.159 -0.3905  0.1545 -0.9862
  160MOL0     H21600   5.611   4.706   1.172  1.0183  1.4979 -1.4688
  161MOL0     O21601   1.132   2.860   5.113 -0.3352  0.0900  0.1304
  161MOL0     C21602   1.079   2.811   5.017  0.1120 -0.5473 -0.1252
  161MOL0     O21603   1.144   2.788   4.898 -0.0719 -0.4187  0.5564
  161MOL0     C21604   1.275   2.835   4.885  0.4863  0.8548 -0.2486
  161MOL0     C21605   1.295   2.941   4.786 -0.9520 -0.9603  0.0810
  161MOL0     C21606   1.418   2.996   4.762  0.1777  0.0930  0.1269
  161MOL0     C21607   1.529   2.957   4.834  0.3999  0.0189 -0.3819
  161MOL0     O21608   1.655   3.018   4.833  0.1270 -0.3296  0.0439
  161MOL0     C21609   1.685   3.125   4.746  0.3380  0.3727  1.0333
  161MOL0     C21610   1.790   3.212   4.807 -0.3773  0.6756 -0.0809
  161MOL0     C21611   1.934   3.167   4.779 -0.2934  0.0497  0.2535
  161MOL0     C21612   2.023   3.295   4.795 -0.0152 -0.7084 -0.6178
  161MOL0     C21613   2.171   3.264   4.808  0.1107 -0.4716 -0.3154
  161MOL0     C21614   2.246   3.391   4.850  0.4174 -0.2926  0.2296
  161MOL0     C21615   2.397   3.349   4.890 -0.1440  0.2436 -0.4644
  161MOL0     C21616   2.472   3.484   4.918  0.3789  0.8083 -0.5968
  161MOL0     N21617   2.608   3.443   4.967 -0.1401 -0.3840 -0.5236
  161MOL0     C21618   2.717   3.433   4.877  0.2189  0.4660 -0.5700
  161MOL0     C21619   2.835   3.418   4.947  0.2580 -0.6181  0.4435
  161MOL0     C21620   2.975   3.419   4.890  0.4030  0.1394 -0.4717
  161MOL0     C21621   3.008   3.558   4.823 -0.8762  0.8685  0.9858
  161MOL0     C21622   3.154   3.560   4.790  0.6409  0.0546 -0.2067
  161MOL0     C21623   3.236   3.598   4.914  0.9278  0.3088  0.3304
  161MOL0     O21624   3.374   3.615   4.880 -0.0468  0.1777 -0.0200
  161MOL0     C21625   3.475   3.608   4.973 -0.2351 -0.3609 -0.0179
  161MOL0     C21626   3.459   3.594   5.113  0.0659 -0.5327 -0.2194
  161MOL0     C21627   3.574   3.581   5.199  1.1407  0.0117  0.1742
  161MOL0     C21628   3.707   3.592   5.143  0.5146 -0.1445  0.6293
  161MOL0     C21629   3.827   3.586   5.232  0.1904  0.6736 -0.0579
  161MOL0     O21630   3.942   3.544   5.166 -0.3588 -0.2147 -0.7878
  161MOL0     C21631   4.060   3.518   5.237 -0.4394 -0.6608  0.5705
  161MOL0     C21632   4.066   3.464   5.362 -0.8106  0.4109 -0.3611
  161MOL0     C21633   4.195   3.424   5.415 -0.3382 -0.0725 -0.4873
  161MOL0     C21634   4.312   3.447   5.355  0.0824  0.9452  0.4935
  161MOL0     O21635   4.423   3.393   5.407 -0.4807 -0.1774 -0.3868
  161MOL0     C21636   4.552   3.454   5.369  0.8550 -0.3492 -0.3598
  161MOL0     C21637   4.554   3.603   5.413  0.4744  0.5390 -0.3959
  161MOL0     C21638   4.658   3.674   5.334 -0.7931 -0.1770 -0.3577
  161MOL0     C21639   4.661   3.823   5.360  0.4789 -0.1755  0.7985
  161MOL0     C21640   4.778   3.899   5.287 -0.8639 -0.4951 -1.0562
  161MOL0     C21641   4.781   4.042   5.340 -0.3218  0.1239  0.1325
  161MOL0     C21642   4.885   4.138   5.279  0.5810 -0.1580  1.1203
  161MOL0     C21643   4.866   4.280   5.339 -0.1142 -0.3320 -0.5162
  161MOL0    Cl21644   4.841   4.277   5.514 -0.3134 -0.2762  0.3007
  161MOL0     C21645   4.309   3.499   5.223 -0.2208  0.8308 -0.2115
  161MOL0     C21646   4.178   3.518   5.162 -0.2657  0.6046 -0.2037
  161MOL0     O21647   3.821   3.617   5.345 -0.1273 -0.0587 -0.0532
  161MOL0     C21648   3.715   3.616   5.007 -0.4941 -0.0954 -0.0807
  161MOL0     C21649   3.604   3.630   4.926  0.5375  1.0430  0.2547
  161MOL0     N21650   2.802   3.424   5.076  0.0910 -0.3726  0.2403
  161MOL0     N21651   2.668   3.446   5.089 -0.0260  0.5770 -0.4977
  161MOL0     C21652   1.507   2.853   4.923 -0.3102  0.3033 -0.2357
  161MOL0     C21653   1.386   2.789   4.958  0.3978  0.2429  0.5448
  161MOL0     C21654   0.931   2.781   5.011  0.1043  0.3686 -0.3104
  161MOL0     C21655   0.874   2.707   4.899 -1.4082  0.0980 -0.8252
  161MOL0     C21656   0.739   2.679   4.890  0.1068 -0.6919 -0.0292
  161MOL0     C21657   0.641   2.711   4.993  0.1154  0.7622 -0.6193
  161MOL0     O21658   0.510   2.667   5.010  0.0534 -0.6182  0.2651
  161MOL0     C21659   0.475   2.574   4.905  0.0321  0.6276 -0.2624
  161MOL0     C21660   0.340   2.513   4.924 -0.2793 -0.7341  0.0834
  161MOL0     C21661   0.215   2.605   4.901  0.3214  0.0379  0.1287
  161MOL0     C21662   0.082   2.517   4.896  0.5046  0.7135 -0.4490
  161MOL0     C21663  -0.047   2.594   4.886 -0.0494  0.1269 -0.0688
  161MOL0     C21664  -0.153   2.656   4.866 -0.2517 -0.8759 -0.7497
  161MOL0     C21665   0.702   2.782   5.101 -0.0327  0.6370  0.0107
  161MOL0     C21666   0.841   2.810   5.114  0.1417 -0.2040  0.3264
  161MOL0     C21667   0.887   2.876   5.240  0.0824 -0.2942 -0.2629
  161MOL0     H21668   1.211   2.977   4.727  0.6865  0.5454 -1.4100
  161MOL0     H21669   1.420   3.076   4.690  2.0194  0.4461  0.5062
  161MOL0     H21670   1.704   3.090   4.645 -1.2323  2.5751 -0.1152
  161MOL0     H21671   1.598   3.191   4.733  0.2286  0.8974  3.7013
  161MOL0     H21672   1.789   3.226   4.915 -1.5093 -1.0770  0.1665
  161MOL0     H21673   1.782   3.313   4.765  1.4551  0.1606 -1.8349
  161MOL0     H21674   1.952   3.128   4.678 -0.0624  1.1071 -0.1234
  161MOL0     H21675   1.966   3.095   4.856  2.0201 -0.7828 -1.3649
  161MOL0     H21676   2.001   3.371   4.719  0.9073 -0.0169 -0.2123
  161MOL0     H21677   1.993   3.335   4.892  0.1656 -1.5958 -0.1908
  161MOL0     H21678   2.183   3.180   4.877  0.3563 -0.1409  0.0517
  161MOL0     H21679   2.220   3.234   4.715 -0.1497  1.7674 -1.2313
  161MOL0     H21680   2.256   3.465   4.770 -1.6190  2.3189  2.1960
  161MOL0     H21681   2.201   3.443   4.935 -2.1292  3.2288 -2.9093
  161MOL0     H21682   2.441   3.301   4.802 -1.8199 -0.4698 -0.9678
  161MOL0     H21683   2.403   3.282   4.975 -1.2952  1.8900  0.9896
  161MOL0     H21684   2.475   3.548   4.830  0.5161 -0.2205 -1.3562
  161MOL0     H21685   2.425   3.533   5.004 -1.0097 -0.1396 -0.7703
  161MOL0     H21686   2.716   3.452   4.770  0.1678 -2.1976 -1.1202
  161MOL0     H21687   3.044   3.395   4.971  2.1103  0.5053 -1.7590
  161MOL0     H21688   2.975   3.335   4.819  0.2405 -1.0610  0.8973
  161MOL0     H21689   2.955   3.551   4.727  1.7381 -3.3520 -0.4260
  161MOL0     H21690   2.971   3.645   4.878  1.6703  1.5691  1.7090
  161MOL0     H21691   3.184   3.635   4.716  2.6399  1.0334  1.4874
  161MOL0     H21692   3.184   3.467   4.741 -0.8406  1.0023 -3.1707
  161MOL0     H21693   3.219   3.527   4.996 -1.4251 -0.1743 -0.4866
  161MOL0     H21694   3.199   3.697   4.940  0.3834  0.6421 -1.5983
  161MOL0     H21695   3.361   3.582   5.159  0.0475  0.4105  0.0027
  161MOL0     H21696   3.556   3.563   5.305 -2.2169  0.6078 -0.1544
  161MOL0     H21697   3.977   3.437   5.418 -0.5738 -0.4287 -0.3765
  161MOL0     H21698   4.187   3.379   5.514  2.0024  1.6389  0.5861
  161MOL0     H21699   4.631   3.400   5.423  0.0140  0.0321  1.2958
  161MOL0     H21700   4.559   3.445   5.260 -2.1760 -2.2002 -0.5146
  161MOL0     H21701   4.462   3.656   5.384  0.5623  0.6424 -0.4870
  161MOL0     H21702   4.573   3.604   5.520  0.0011 -0.6270 -0.2885
  161MOL0     H21703   4.753   3.626   5.358 -1.9123 -2.0977  0.4258
  161MOL0     H21704   4.639   3.666   5.227  2.8729  1.8756 -1.3555
  161MOL0     H21705   4.655   3.842   5.467  0.0038 -1.0927  0.9438
  161MOL0     H21706   4.570   3.861   5.313  0.5084  0.7059  1.4514
  161MOL0     H21707   4.761   3.901   5.179 -1.8433 -0.0768 -0.9020
  161MOL0     H21708   4.876   3.852   5.302 -0.1022  0.7912 -1.7449
  161MOL0     H21709   4.683   4.090   5.336 -1.3358 -1.7193  1.0571
  161MOL0     H21710   4.813   4.015   5.441  1.3297  1.9695  0.1518
  161MOL0     H21711   4.875   4.141   5.170 -0.8944  0.2359  1.2403
  161MOL0     H21712   4.983   4.099   5.306  1.6033  0.7401 -1.0452
  161MOL0     H21713   4.952   4.344   5.318 -0.0963  0.1518  0.9209
  161MOL0     H21714   4.776   4.325   5.297 -0.5059  2.2299  2.6882
  161MOL0     H21715   4.396   3.505   5.159 -1.3564  0.7253 -1.8162
  161MOL0     H21716   4.178   3.539   5.055  1.1873 -2.4350 -0.9147
  161MOL0     H21717   3.814   3.626   4.964 -0.2596  0.4835  0.5837
  161MOL0     H21718   3.626   3.669   4.827  1.5505 -0.9517 -0.3405
  161MOL0     H21719   1.597   2.814   4.971 -1.7477 -2.4069  0.4679
  161MOL0     H21720   1.379   2.707   5.028  0.8164 -0.0755  0.2183
  161MOL0     H21721   0.936   2.669   4.818 -0.6595 -0.4041 -0.0278
  161MOL0     H21722   0.716   2.619   4.802 -0.1744  1.4766 -1.5105
  161MOL0     H21723   0.553   2.498   4.903 -0.9759 -0.4327 -1.2834
  161MOL0     H21724   0.476   2.620   4.805  0.1381 -1.1536 -1.1196
  161MOL0     H21725   0.329   2.458   5.018  2.0088 -2.4701 -0.5747
  161MOL0     H21726   0.339   2.447   4.837 -1.5375  1.9199 -2.0554
  161MOL0     H21727   0.230   2.656   4.806  1.9285  1.9100  1.3213
  161MOL0     H21728   0.212   2.686   4.974  1.6872 -0.0559  0.3198
  161MOL0     H21729   0.087   2.456   4.805  0.6777 -1.1128  0.7371
  161MOL0     H21730   0.088   2.457   4.987  2.7273 -0.0694 -1.0589
  161MOL0     H21731  -0.252   2.696   4.865 -0.4070 -1.2470 -0.4343
  161MOL0     H21732   0.631   2.803   5.180  0.2432  0.0252  0.4283
  161MOL0     H21733   0.797   2.889   5.301  0.1391  2.4862 -0.6451
  161MOL0     H21734   0.954   2.800   5.283  0.4144  0.9140  1.4423
  161MOL0     H21735   0.946   2.967   5.228  2.1838 -1.6481 -0.9037
  162MOL0     O21736   7.312   7.816   6.285  0.8111  0.1376  0.3117
  162MOL0     C21737   7.347   7.712   6.236  0.5022 -0.5255  1.1251
  162MOL0     O21738   7.450   7.631   6.281  0.3061 -0.2135 -0.2004
  162MOL0     C21739   7.471   7.648   6.416 -0.8632  0.0274  1.0848
  162MOL0     C21740   7.398   7.571   6.506  0.0707  0.3230  0.0477
  162MOL0     C21741   7.422   7.578   6.638  0.2362  0.4745  0.6135
  162MOL0     C21742   7.524   7.659   6.692  0.4600  0.3980  0.5254
  162MOL0     O21743   7.549   7.643   6.828  0.0217  0.0529  0.2213
  162MOL0     C21744   7.671   7.693   6.885  0.0466  0.4495 -0.8509
  162MOL0     C21745   7.663   7.707   7.038 -0.3711  0.7854 -0.0755
  162MOL0     C21746   7.801   7.673   7.096  0.0924 -0.0440 -0.0082
  162MOL0     C21747   7.802   7.723   7.243  0.0505 -0.5857  0.0770
  162MOL0     C21748   7.943   7.726   7.310 -0.0497  0.4663  0.2918
  162MOL0     C21749   8.024   7.845   7.260 -0.7705  0.3663 -0.0674
  162MOL0     C21750   8.148   7.871   7.337 -0.4599  0.7586  0.2939
  162MOL0     C21751   8.271   7.777   7.319  0.1258  0.4593 -1.1151
  162MOL0     N21752   8.381   7.803   7.408 -0.6623 -0.2982 -0.0392
  162MOL0     C21753   8.370   7.790   7.540 -0.0447 -0.6847 -0.3328
  162MOL0     C21754   8.465   7.879   7.587 -0.0601 -0.1454  0.4810
  162MOL0     C21755   8.483   7.908   7.733 -0.0535 -0.0459 -0.2194
  162MOL0     C21756   8.618   7.850   7.774 -0.3680  0.1307  0.5562
  162MOL0     C21757   8.646   7.867   7.925 -0.1093 -0.4353  0.2895
  162MOL0     C21758   8.741   7.769   7.975  0.2250 -0.3071  0.3189
  162MOL0     O21759   8.872   7.786   7.926  0.8032  0.3401  0.4571
  162MOL0     C21760   8.973   7.706   7.966  0.5677 -0.1703 -0.1022
  162MOL0     C21761   9.105   7.726   7.924  0.7860 -0.4362  0.0928
  162MOL0     C21762   9.215   7.653   7.957  0.0751 -0.2021 -0.1760
  162MOL0     C21763   9.189   7.548   8.045 -0.3623  0.3380 -0.5518
  162MOL0     C21764   9.302   7.472   8.097  0.3052  0.3012  0.3005
  162MOL0     O21765   9.426   7.527   8.080 -0.5247  0.3134  0.1575
  162MOL0     C21766   9.519   7.463   8.157  0.0484 -0.3703  0.5552
  162MOL0     C21767   9.617   7.382   8.094 -0.8997 -0.5076 -0.4058
  162MOL0     C21768   9.705   7.297   8.170 -0.1527 -0.4169  0.8440
  162MOL0     C21769   9.695   7.308   8.318  0.0270  0.2641 -0.8512
  162MOL0     O21770   9.772   7.237   8.400 -0.1056 -0.8969  0.1691
  162MOL0     C21771   9.884   7.164   8.346 -0.0594 -0.6479  0.4470
  162MOL0     C21772   9.917   7.056   8.459 -0.0361  0.1731  0.2245
  162MOL0     C21773  10.045   6.973   8.439 -0.0966  0.0530  0.8860
  162MOL0     C21774  10.171   7.051   8.490 -0.3339 -0.1321  1.0120
  162MOL0     C21775  10.291   6.962   8.502  0.5888 -0.4002 -0.3287
  162MOL0     C21776  10.370   6.914   8.373 -0.4177  0.2277  0.1063
  162MOL0     C21777  10.527   6.909   8.395 -0.3889 -0.6631  0.2859
  162MOL0     C21778  10.570   6.777   8.461 -0.0031  1.0211  0.2585
  162MOL0    Cl21779  10.561   6.786   8.636  0.0379 -0.5405 -0.0545
  162MOL0     C21780   9.609   7.397   8.378 -0.1405 -0.0683  0.2282
  162MOL0     C21781   9.526   7.477   8.296  0.7036  0.3313  0.9391
  162MOL0     O21782   9.274   7.373   8.166 -0.1465 -0.1967 -0.0042
  162MOL0     C21783   9.060   7.525   8.095 -0.4517 -0.7115 -0.5162
  162MOL0     C21784   8.950   7.601   8.055 -0.4793  0.4900  0.1392
  162MOL0     N21785   8.549   7.918   7.480  0.5070  0.9919 -0.6539
  162MOL0     N21786   8.493   7.872   7.372  0.6236  0.0787  0.1679
  162MOL0     C21787   7.597   7.735   6.600  0.2619 -0.4057 -0.3559
  162MOL0     C21788   7.562   7.733   6.462 -0.1411  0.0667 -0.2908
  162MOL0     C21789   7.266   7.663   6.121  0.1669  0.3209  0.7230
  162MOL0     C21790   7.295   7.532   6.068  0.0329  1.1647 -0.4427
  162MOL0     C21791   7.220   7.479   5.963  0.4108 -0.0500  0.0649
  162MOL0     C21792   7.122   7.559   5.902 -0.2692 -0.1721 -0.9366
  162MOL0     O21793   7.044   7.517   5.794 -0.2431 -0.6963 -0.0422
  162MOL0     C21794   7.071   7.389   5.737  0.0495 -0.2711 -0.2071
  162MOL0     C21795   6.982   7.356   5.622  0.0838 -0.1213 -0.2722
  162MOL0     C21796   7.015   7.221   5.564 -0.3431  0.1804  0.0176
  162MOL0     C21797   6.969   7.202   5.415  0.2124  0.5310 -0.0626
  162MOL0     C21798   6.826   7.245   5.396  0.4808  0.6886 -0.8306
  162MOL0     C21799   6.708   7.265   5.386  0.5938 -1.0710  0.0929
  162MOL0     C21800   7.102   7.694   5.939  0.7509 -0.0753 -1.2948
  162MOL0     C21801   7.171   7.744   6.056 -0.1434  0.6093  0.8879
  162MOL0     C21802   7.164   7.896   6.075  0.1004 -0.1004 -0.4359
  162MOL0     H21803   7.329   7.495   6.470  0.1343  0.0439  0.4955
  162MOL0     H21804   7.357   7.527   6.708  2.1591 -1.6604  0.9812
  162MOL0     H21805   7.748   7.621   6.853 -0.2651 -0.0597 -0.4748
  162MOL0     H21806   7.690   7.791   6.841 -0.7169  0.9883  0.0005
  162MOL0     H21807   7.599   7.632   7.085 -1.2484  1.7725  0.3538
  162MOL0     H21808   7.628   7.806   7.068  0.1845  1.5674 -1.8580
  162MOL0     H21809   7.885   7.720   7.042 -0.6856  2.5362  0.8653
  162MOL0     H21810   7.800   7.564   7.099 -0.3045 -0.0384  0.1149
  162MOL0     H21811   7.765   7.826   7.246 -0.5879 -0.7945 -0.5009
  162MOL0     H21812   7.741   7.657   7.304 -0.5858  2.3776  2.9704
  162MOL0     H21813   7.946   7.730   7.419  0.9393 -2.1767  0.4401
  162MOL0     H21814   7.990   7.630   7.284 -0.3885 -0.3534  2.5341
  162MOL0     H21815   8.053   7.831   7.155  0.4903 -0.5141  0.3844
  162MOL0     H21816   7.959   7.933   7.267 -0.5287  0.4469  1.4542
  162MOL0     H21817   8.128   7.879   7.445 -1.3117  1.3327  0.1060
  162MOL0     H21818   8.185   7.970   7.309  3.7036 -0.4051  1.0455
  162MOL0     H21819   8.231   7.677   7.341 -1.3471  0.9797 -1.2946
  162MOL0     H21820   8.302   7.780   7.214 -0.0075 -1.2371 -1.2344
  162MOL0     H21821   8.296   7.737   7.600 -2.0832  2.1898 -0.0843
  162MOL0     H21822   8.487   8.017   7.741  0.4127  0.1808 -2.5983
  162MOL0     H21823   8.406   7.859   7.794 -1.7068  1.3773 -1.0546
  162MOL0     H21824   8.632   7.746   7.745 -0.1236  0.4558 -0.5079
  162MOL0     H21825   8.690   7.908   7.716 -1.7406 -0.1098 -1.4616
  162MOL0     H21826   8.557   7.872   7.989 -2.3594  0.0978 -2.6440
  162MOL0     H21827   8.703   7.961   7.928  1.1509 -0.9985 -2.5868
  162MOL0     H21828   8.697   7.670   7.960 -3.0136  1.0552 -0.1105
  162MOL0     H21829   8.743   7.784   8.084 -0.0168  2.7161  0.0145
  162MOL0     H21830   9.116   7.818   7.868  1.3389  1.0514  2.4897
  162MOL0     H21831   9.316   7.663   7.917  0.9224  1.5252  2.1850
  162MOL0     H21832   9.622   7.387   7.985  0.6274 -1.5466 -0.4235
  162MOL0     H21833   9.782   7.236   8.124  0.5378  0.5593  0.6679
  162MOL0     H21834   9.863   7.101   8.260  0.5242 -1.1683  0.6789
  162MOL0     H21835   9.972   7.227   8.332 -0.5828  0.0349  0.2081
  162MOL0     H21836   9.912   7.116   8.550  2.2515  0.6914  0.0547
  162MOL0     H21837   9.838   6.981   8.459  1.3236 -1.3109  1.1438
  162MOL0     H21838  10.038   6.876   8.490  2.1765  0.1113  1.4002
  162MOL0     H21839  10.054   6.945   8.334 -0.3964  0.7415  0.6695
  162MOL0     H21840  10.154   7.096   8.588  2.8239 -0.4142  1.7751
  162MOL0     H21841  10.202   7.123   8.415  0.9934 -1.5492  0.1432
  162MOL0     H21842  10.255   6.879   8.563 -3.0474  1.7414  0.7478
  162MOL0     H21843  10.355   7.018   8.572 -0.4396  0.2370  0.1224
  162MOL0     H21844  10.336   6.818   8.335  3.2559 -1.0201 -0.4934
  162MOL0     H21845  10.366   6.991   8.296 -2.2195 -0.4712 -0.5420
  162MOL0     H21846  10.558   6.988   8.464  0.2062 -3.2142  3.1398
  162MOL0     H21847  10.573   6.911   8.296 -0.2104 -1.1643  0.3538
  162MOL0     H21848  10.519   6.691   8.419  0.3617  1.4111 -1.0351
  162MOL0     H21849  10.674   6.747   8.441 -0.0821 -1.2155  2.7188
  162MOL0     H21850   9.608   7.404   8.486  0.8044 -0.9027  0.3040
  162MOL0     H21851   9.457   7.549   8.339 -0.7227  1.0634 -2.2711
  162MOL0     H21852   9.055   7.457   8.179  1.5056  1.5960  1.6537
  162MOL0     H21853   8.859   7.575   8.109 -1.6901 -3.2531 -3.1746
  162MOL0     H21854   7.677   7.798   6.635 -2.5195  1.2674  3.8115
  162MOL0     H21855   7.619   7.792   6.392  1.4952 -0.3379  0.6316
  162MOL0     H21856   7.358   7.463   6.124 -0.2291  1.7634  0.6097
  162MOL0     H21857   7.234   7.379   5.923  0.3229 -0.1275  0.2257
  162MOL0     H21858   7.062   7.319   5.821  2.4457 -0.7701 -0.2936
  162MOL0     H21859   7.174   7.381   5.700  0.9741  1.7308  1.7466
  162MOL0     H21860   6.997   7.427   5.540  1.5329  0.3834  0.3950
  162MOL0     H21861   6.877   7.361   5.652  0.4761  1.6045  0.9410
  162MOL0     H21862   6.974   7.135   5.616  2.3652 -0.8639  0.5542
  162MOL0     H21863   7.124   7.212   5.566 -0.3340  0.4474  0.9318
  162MOL0     H21864   7.037   7.252   5.345  2.7090  0.0217  1.8869
  162MOL0     H21865   6.972   7.095   5.390 -2.6842  0.4555 -0.4741
  162MOL0     H21866   6.601   7.272   5.386  0.5891  1.3865  2.9626
  162MOL0     H21867   7.034   7.758   5.883  0.2439  1.5874  1.0439
  162MOL0     H21868   7.265   7.937   6.077 -0.7645  2.2808 -1.7228
  162MOL0     H21869   7.110   7.935   5.989 -2.0204 -0.3706  0.6998
  162MOL0     H21870   7.104   7.913   6.165  0.5674 -0.2435 -0.0925
  163MOL0     O21871   5.160   8.651   3.275 -0.6642 -0.4287  0.4659
  163MOL0     C21872   5.163   8.602   3.391  0.3423 -0.4705  0.9827
  163MOL0     O21873   5.250   8.634   3.491  0.3400  0.6239 -0.0778
  163MOL0     C21874   5.345   8.722   3.458 -0.2273 -0.1937  0.6285
  163MOL0     C21875   5.484   8.696   3.457  0.4616  0.6294 -1.5509
  163MOL0     C21876   5.582   8.800   3.438  0.3459 -0.5166 -0.5476
  163MOL0     C21877   5.538   8.940   3.439  0.4507  0.2391 -0.0329
  163MOL0     O21878   5.620   9.052   3.441 -0.0231  0.0392  0.0044
  163MOL0     C21879   5.749   9.037   3.498 -0.1992 -0.3532  0.4846
  163MOL0     C21880   5.811   9.177   3.507 -0.9949  0.6396 -0.0121
  163MOL0     C21881   5.952   9.167   3.560 -0.2744  0.7161  0.2311
  163MOL0     C21882   6.019   9.308   3.584 -0.0805  0.4528 -0.1836
  163MOL0     C21883   6.150   9.283   3.649 -0.3349  0.2463 -0.3591
  163MOL0     C21884   6.213   9.424   3.649 -0.3312 -0.1347  0.3970
  163MOL0     C21885   6.361   9.422   3.697  0.1583 -0.5344 -0.0947
  163MOL0     C21886   6.464   9.359   3.606 -0.1939  0.1134  0.0175
  163MOL0     N21887   6.604   9.366   3.645 -0.5791  0.1675  1.0346
  163MOL0     C21888   6.664   9.488   3.676  0.3689  1.0868 -1.0299
  163MOL0     C21889   6.766   9.454   3.761  0.2804 -0.0616  0.3235
  163MOL0     C21890   6.857   9.545   3.838 -0.3260  0.4345 -0.0104
  163MOL0     C21891   7.000   9.516   3.802 -0.2688  1.1865 -0.7649
  163MOL0     C21892   7.032   9.537   3.655  0.6980  0.5405  0.0482
  163MOL0     C21893   7.182   9.517   3.635 -0.1986 -0.0742 -0.7215
  163MOL0     O21894   7.258   9.620   3.694 -0.4370 -0.6037 -0.4702
  163MOL0     C21895   7.395   9.637   3.677  0.2270 -0.4190  0.1269
  163MOL0     C21896   7.466   9.531   3.628  0.0980 -1.0183  0.7654
  163MOL0     C21897   7.604   9.536   3.630 -1.4982 -0.1822  0.5293
  163MOL0     C21898   7.674   9.657   3.661  0.0491  0.6670  0.4308
  163MOL0     C21899   7.822   9.660   3.653  0.5367 -0.7283 -0.3666
  163MOL0     O21900   7.877   9.770   3.722  0.2833  0.0295 -1.1330
  163MOL0     C21901   8.009   9.784   3.735  0.6377 -0.9487 -0.5477
  163MOL0     C21902   8.094   9.802   3.628 -0.2778 -0.5051 -0.5174
  163MOL0     C21903   8.232   9.810   3.652 -1.1607  0.1009 -0.0147
  163MOL0     C21904   8.293   9.797   3.777  0.3101  0.1274 -0.5331
  163MOL0     O21905   8.427   9.796   3.803  0.1871  0.2627 -0.5678
  163MOL0     C21906   8.523   9.805   3.692 -0.3547 -0.1489  0.1649
  163MOL0     C21907   8.670   9.832   3.731 -0.4019 -0.9676 -0.6143
  163MOL0     C21908   8.715   9.757   3.854 -0.9006  0.1953 -0.4091
  163MOL0     C21909   8.866   9.773   3.902 -0.3799 -0.1136 -0.5216
  163MOL0     C21910   8.898   9.916   3.914 -0.1410 -1.0512 -0.2558
  163MOL0     C21911   9.023   9.936   4.001 -0.8865  0.1516 -0.1045
  163MOL0     C21912   9.065  10.091   4.000 -0.0221  0.0628 -0.2839
  163MOL0     C21913   9.191  10.116   4.075  0.8820  0.3439  0.5141
  163MOL0    Cl21914   9.332  10.047   3.991  0.1473 -0.6206  0.5700
  163MOL0     C21915   8.203   9.775   3.883  0.2653 -0.1940  0.8156
  163MOL0     C21916   8.061   9.769   3.868 -0.7882  0.1111 -0.2110
  163MOL0     O21917   7.882   9.583   3.580  0.2726 -0.1220 -0.2949
  163MOL0     C21918   7.596   9.761   3.702  0.0854 -0.0340 -0.0539
  163MOL0     C21919   7.456   9.750   3.712 -0.5388  0.7679 -0.0210
  163MOL0     N21920   6.772   9.316   3.774 -0.5018  0.6367  0.4991
  163MOL0     N21921   6.677   9.266   3.703  0.0272  0.2183 -0.4940
  163MOL0     C21922   5.399   8.957   3.437 -0.7685  0.0690 -0.1986
  163MOL0     C21923   5.300   8.850   3.443 -0.5230 -0.1429 -0.0222
  163MOL0     C21924   5.067   8.497   3.412 -0.2852 -0.6424  0.1638
  163MOL0     C21925   4.935   8.549   3.392 -1.3380  1.3060  0.0151
  163MOL0     C21926   4.826   8.461   3.415 -0.4746  0.5367  0.1691
  163MOL0     C21927   4.850   8.330   3.456 -0.8960  0.1567 -0.8506
  163MOL0     O21928   4.737   8.253   3.465 -0.3034  0.1184  0.0241
  163MOL0     C21929   4.753   8.115   3.505  0.4743  1.2710 -0.8521
  163MOL0     C21930   4.619   8.050   3.510  0.6584  0.5852 -0.4225
  163MOL0     C21931   4.512   8.107   3.604 -0.0265  0.1500 -0.5016
  163MOL0     C21932   4.385   8.006   3.614  0.0133  0.0407  0.5344
  163MOL0     C21933   4.267   8.057   3.677  0.6243  0.3472  0.6789
  163MOL0     C21934   4.163   8.102   3.726  1.0401  0.5912  0.7468
  163MOL0     C21935   4.979   8.286   3.489 -0.4224  0.5286  0.8781
  163MOL0     C21936   5.088   8.370   3.453 -0.7846  0.3050  0.1917
  163MOL0     C21937   5.221   8.304   3.467  0.2094 -0.4836 -0.2584
  163MOL0     H21938   5.516   8.594   3.474  2.2491  1.2505 -0.9220
  163MOL0     H21939   5.683   8.765   3.420  0.2189 -1.6856  0.8530
  163MOL0     H21940   5.745   8.996   3.599  0.5068 -0.4395  0.4854
  163MOL0     H21941   5.817   8.980   3.434 -0.1192  0.9041 -0.5896
  163MOL0     H21942   5.750   9.244   3.570  0.0749  2.2812 -0.6423
  163MOL0     H21943   5.813   9.215   3.405  0.1903 -1.5419 -0.8517
  163MOL0     H21944   6.003   9.106   3.485 -1.1342 -0.4619  0.5862
  163MOL0     H21945   5.950   9.121   3.659 -0.7806  1.0585  0.3840
  163MOL0     H21946   6.040   9.353   3.486  1.3875 -1.3386 -0.7453
  163MOL0     H21947   5.953   9.370   3.647 -0.0525  0.0433  0.2510
  163MOL0     H21948   6.120   9.251   3.749 -0.0749  0.6352 -0.1535
  163MOL0     H21949   6.199   9.204   3.591  1.1985  1.1454 -0.3282
  163MOL0     H21950   6.214   9.466   3.548 -0.1205  1.5230  1.0487
  163MOL0     H21951   6.160   9.485   3.724  1.5406  0.9276  0.9110
  163MOL0     H21952   6.368   9.360   3.787 -1.2554  0.3310  0.6426
  163MOL0     H21953   6.384   9.521   3.736 -1.1602 -0.9217  1.8499
  163MOL0     H21954   6.439   9.253   3.589  0.3572 -0.2248  1.2077
  163MOL0     H21955   6.448   9.416   3.514 -2.0256 -0.2487  0.0593
  163MOL0     H21956   6.634   9.590   3.656 -1.9793  0.8552  0.8481
  163MOL0     H21957   6.830   9.650   3.822  1.0766  0.4518 -2.8353
  163MOL0     H21958   6.841   9.529   3.945 -1.1700  1.1180 -0.0230
  163MOL0     H21959   7.067   9.578   3.863  2.1614 -2.8944  1.2050
  163MOL0     H21960   7.021   9.411   3.825  1.4815  1.7877  0.6599
  163MOL0     H21961   7.003   9.640   3.634  0.8381  0.8828  1.4357
  163MOL0     H21962   6.969   9.462   3.606 -0.1971  0.1468  1.7096
  163MOL0     H21963   7.197   9.524   3.527 -1.2981 -0.3729 -0.9119
  163MOL0     H21964   7.206   9.416   3.668 -2.5210 -0.2573  0.6132
  163MOL0     H21965   7.424   9.444   3.578  0.1423 -0.9785  0.6583
  163MOL0     H21966   7.654   9.454   3.580 -0.9035  2.2386 -3.2139
  163MOL0     H21967   8.053   9.796   3.528  1.6125 -1.9225 -1.2427
  163MOL0     H21968   8.299   9.830   3.569 -0.0174  0.7159  1.0175
  163MOL0     H21969   8.520   9.714   3.631  0.9037  1.1192 -1.9479
  163MOL0     H21970   8.504   9.889   3.625  1.3399 -0.3621 -0.6458
  163MOL0     H21971   8.749   9.805   3.661 -0.2226  1.5410 -1.5063
  163MOL0     H21972   8.673   9.940   3.752 -2.3317 -1.3026  1.8906
  163MOL0     H21973   8.655   9.792   3.939 -1.5670  1.6312 -1.4279
  163MOL0     H21974   8.684   9.652   3.848  0.6283 -0.3587  0.7040
  163MOL0     H21975   8.930   9.725   3.828 -0.4589 -0.4057 -0.3993
  163MOL0     H21976   8.879   9.719   3.996  0.2501  1.1704  0.1609
  163MOL0     H21977   8.814   9.979   3.943 -0.0027  0.2133 -2.3783
  163MOL0     H21978   8.921   9.950   3.812  0.7832 -0.4311  0.1536
  163MOL0     H21979   8.996   9.906   4.103  2.4705  0.7019  1.0548
  163MOL0     H21980   9.108   9.872   3.974 -0.5182  0.1990  0.9029
  163MOL0     H21981   8.983  10.149   4.042 -1.2319 -1.8899  0.1696
  163MOL0     H21982   9.080  10.113   3.893  0.5330 -0.2206 -0.2722
  163MOL0     H21983   9.208  10.224   4.072  2.6188  0.0848  0.2252
  163MOL0     H21984   9.178  10.076   4.176  0.2115  2.0668  1.1371
  163MOL0     H21985   8.252   9.736   3.971  0.8433 -2.8864 -0.5572
  163MOL0     H21986   8.004   9.742   3.957  0.1255 -2.5035 -0.3471
  163MOL0     H21987   7.647   9.852   3.732 -0.6138  1.1290 -2.1938
  163MOL0     H21988   7.399   9.836   3.746  0.6549  0.6910  2.3788
  163MOL0     H21989   5.365   9.061   3.432 -2.5423 -0.4305  0.6409
  163MOL0     H21990   5.195   8.876   3.449 -0.3498  1.1095 -1.5993
  163MOL0     H21991   4.918   8.644   3.344  0.2055  1.0533 -1.0867
  163MOL0     H21992   4.730   8.497   3.380  0.0197 -0.4056 -2.4260
  163MOL0     H21993   4.782   8.089   3.607 -0.5768 -0.4442 -0.9445
  163MOL0     H21994   4.825   8.060   3.443  0.5801 -0.1514  0.4639
  163MOL0     H21995   4.643   7.948   3.540  1.0795 -0.3500 -3.6260
  163MOL0     H21996   4.568   8.033   3.415  0.5149  0.6798 -0.3629
  163MOL0     H21997   4.486   8.209   3.572  0.9337 -0.2119 -2.5931
  163MOL0     H21998   4.552   8.118   3.705  1.3415  0.0907 -1.0253
  163MOL0     H21999   4.365   7.979   3.510 -0.4344  2.0819  0.0449
  163MOL0     H22000   4.402   7.921   3.680 -1.7985  0.1984  1.2747
  163MOL0     H22001   4.072   8.147   3.761  0.7273  0.6375 -0.1048
  163MOL0     H22002   5.011   8.187   3.522  2.1368  1.2243  0.6983
  163MOL0     H22003   5.282   8.327   3.380 -1.1343 -1.7766 -1.6184
  163MOL0     H22004   5.271   8.340   3.557  0.5381 -1.4787 -0.0303
  163MOL0     H22005   5.218   8.195   3.456  0.2028 -0.4365 -0.7392
  164MOL0     O22006  10.940   5.538   1.363 -0.3050 -0.4490  0.9556
  164MOL0     C22007  10.973   5.470   1.263  1.2834 -0.3264 -0.5523
  164MOL0     O22008  11.100   5.461   1.209 -0.0701 -0.1694 -0.3167
  164MOL0     C22009  11.217   5.526   1.255  0.0112 -0.2902 -0.5469
  164MOL0     C22010  11.327   5.524   1.171  0.5035  0.2328  0.7229
  164MOL0     C22011  11.450   5.578   1.214 -0.8326 -0.3693  0.1029
  164MOL0     C22012  11.459   5.647   1.331  0.1020 -0.3141  1.0944
  164MOL0     O22013  11.582   5.707   1.359  0.5689  0.4699  0.6813
  164MOL0     C22014  11.608   5.775   1.481  0.0370 -0.3588  0.7539
  164MOL0     C22015  11.736   5.849   1.446 -0.0738 -0.1358  0.4313
  164MOL0     C22016  11.766   5.955   1.554  0.1272 -0.8005 -0.5550
  164MOL0     C22017  11.841   5.906   1.678 -0.2530  0.3860 -0.2091
  164MOL0     C22018  11.987   5.856   1.645 -0.1111  0.4455 -0.3436
  164MOL0     C22019  12.085   5.973   1.609 -0.0737  0.0076  0.2471
  164MOL0     C22020  12.225   5.931   1.571 -0.3785  0.3461  0.0047
  164MOL0     C22021  12.240   5.855   1.439 -0.2983  0.0088  0.7484
  164MOL0     N22022  12.192   5.941   1.323 -0.1082  0.4024  0.2775
  164MOL0     C22023  12.067   5.920   1.273  0.5558 -0.7946 -0.3558
  164MOL0     C22024  12.071   6.008   1.165  0.5607 -0.7034  0.7404
  164MOL0     C22025  11.960   6.030   1.053  0.6422 -0.2005  0.3409
  164MOL0     C22026  11.889   6.167   1.055 -0.6819 -0.2313 -0.1338
  164MOL0     C22027  11.848   6.209   1.201  0.2073  0.1722  0.0715
  164MOL0     C22028  11.769   6.344   1.217  0.2664  0.5616 -0.6182
  164MOL0     O22029  11.760   6.407   1.350 -0.4091  0.1438 -0.5830
  164MOL0     C22030  11.842   6.516   1.369 -0.1679  0.2407 -0.4310
  164MOL0     C22031  11.982   6.510   1.387  0.6650  1.0428  0.1379
  164MOL0     C22032  12.047   6.631   1.422 -0.3255  0.7835  1.3021
  164MOL0     C22033  11.986   6.755   1.428  0.5873 -0.3240 -0.1134
  164MOL0     C22034  12.071   6.876   1.467  0.0059 -0.1233  0.5333
  164MOL0     O22035  12.012   6.974   1.540 -0.5018  0.0559 -0.2074
  164MOL0     C22036  12.089   7.094   1.564 -0.0761  0.3541 -0.2546
  164MOL0     C22037  12.042   7.166   1.683 -0.1439  0.4664 -0.0780
  164MOL0     C22038  12.109   7.290   1.722 -0.2348 -0.5754 -0.2282
  164MOL0     C22039  12.216   7.340   1.650  0.1846 -0.4597  0.8068
  164MOL0     O22040  12.275   7.458   1.674 -0.1333 -0.2011 -0.6704
  164MOL0     C22041  12.299   7.513   1.810  0.8147  0.4620  0.6158
  164MOL0     C22042  12.407   7.435   1.881  0.0200  0.2899  0.6416
  164MOL0     C22043  12.534   7.434   1.794 -0.3858  0.4034  0.4176
  164MOL0     C22044  12.606   7.565   1.810  0.2136 -0.0032  0.7997
  164MOL0     C22045  12.719   7.578   1.720  0.3439  0.1716 -0.8197
  164MOL0     C22046  12.780   7.725   1.719  1.0866  1.0936  0.1574
  164MOL0     C22047  12.844   7.746   1.591  0.2409 -0.4535  0.1256
  164MOL0     C22048  12.917   7.876   1.589 -0.1146 -0.3319 -0.6333
  164MOL0    Cl22049  12.821   8.028   1.619  0.3605  0.5710  0.1659
  164MOL0     C22050  12.262   7.267   1.532  0.8093  0.3878  0.1037
  164MOL0     C22051  12.199   7.144   1.495  0.1551  0.5997 -0.2909
  164MOL0     O22052  12.184   6.867   1.436 -0.2549 -0.7991  0.1898
  164MOL0     C22053  11.853   6.759   1.397  0.4595  0.3389 -0.2734
  164MOL0     C22054  11.779   6.644   1.364 -0.4930 -0.6578 -0.0331
  164MOL0     N22055  12.195   6.073   1.149 -0.1223  0.5402  0.5365
  164MOL0     N22056  12.270   6.020   1.247 -0.0359  0.3684 -0.2951
  164MOL0     C22057  11.355   5.644   1.417  0.4177  0.8131 -0.3031
  164MOL0     C22058  11.231   5.582   1.384 -0.2984 -0.2544  0.1090
  164MOL0     C22059  10.880   5.363   1.209  1.1888 -0.2772 -0.8463
  164MOL0     C22060  10.936   5.250   1.145 -0.6062 -0.5368 -0.1329
  164MOL0     C22061  10.856   5.161   1.070  0.4749 -0.1949 -0.2057
  164MOL0     C22062  10.714   5.176   1.074  0.3253  0.8629 -0.2338
  164MOL0     O22063  10.629   5.099   0.996  0.2207  0.1814  0.0679
  164MOL0     C22064  10.515   5.163   0.939  0.6458 -0.1378  0.6344
  164MOL0     C22065  10.385   5.082   0.960 -0.5037  0.1016  0.0376
  164MOL0     C22066  10.253   5.152   0.912  0.4289 -0.5661 -0.6380
  164MOL0     C22067  10.134   5.076   0.969  0.1658  1.0639  0.0747
  164MOL0     C22068  10.017   5.132   0.916  0.9009 -0.7573  0.3545
  164MOL0     C22069   9.911   5.176   0.875  0.1239  0.2517  0.1298
  164MOL0     C22070  10.666   5.265   1.163 -0.5825  0.1336  0.3342
  164MOL0     C22071  10.743   5.362   1.230  0.5104 -0.2307  0.4609
  164MOL0     C22072  10.671   5.472   1.304 -0.2338  0.5429  0.2093
  164MOL0     H22073  11.297   5.473   1.080 -2.8753  0.1767  1.7319
  164MOL0     H22074  11.539   5.572   1.152 -1.9844 -2.3185 -1.5031
  164MOL0     H22075  11.536   5.850   1.515 -1.2908 -0.1919 -2.1127
  164MOL0     H22076  11.629   5.695   1.552  0.7443 -1.7295 -0.9096
  164MOL0     H22077  11.721   5.909   1.355  2.6434  1.2455  0.8037
  164MOL0     H22078  11.821   5.783   1.430 -0.6865 -1.1541  1.2885
  164MOL0     H22079  11.676   6.011   1.579 -0.4718 -2.7835  2.1729
  164MOL0     H22080  11.826   6.031   1.503 -1.4120 -0.3195 -1.7247
  164MOL0     H22081  11.847   5.987   1.751  0.1553  2.1505 -2.1254
  164MOL0     H22082  11.775   5.830   1.721 -1.3772  0.0398 -2.4170
  164MOL0     H22083  12.034   5.800   1.726 -0.1316  0.2457 -0.4687
  164MOL0     H22084  11.968   5.777   1.572 -2.3126  0.0625  0.5591
  164MOL0     H22085  12.052   6.033   1.523 -0.7264 -0.9657 -0.2005
  164MOL0     H22086  12.084   6.050   1.687 -0.8321  0.3308 -0.0712
  164MOL0     H22087  12.276   5.870   1.646 -1.9693 -1.5321 -0.3609
  164MOL0     H22088  12.279   6.025   1.552 -0.4701 -0.1765 -3.6595
  164MOL0     H22089  12.346   5.834   1.425 -0.3757 -0.6785  1.1857
  164MOL0     H22090  12.198   5.754   1.440  1.7977 -0.9533 -0.8983
  164MOL0     H22091  11.989   5.853   1.311  1.8080 -2.2398 -0.2502
  164MOL0     H22092  12.013   6.010   0.960  2.0782 -0.4081  1.1773
  164MOL0     H22093  11.884   5.953   1.065  0.2313  0.1711  0.1508
  164MOL0     H22094  11.964   6.239   1.023 -0.2732  0.7900  2.8400
  164MOL0     H22095  11.796   6.170   0.997 -0.8871  1.1771  0.2409
  164MOL0     H22096  11.935   6.214   1.267  0.5215  0.5652 -0.3672
  164MOL0     H22097  11.792   6.130   1.253  0.7167 -0.0621  0.2799
  164MOL0     H22098  11.666   6.322   1.185 -0.0540  0.7785  0.2359
  164MOL0     H22099  11.803   6.426   1.153 -0.1191  2.2148  1.1935
  164MOL0     H22100  12.040   6.420   1.373  0.2845  1.0081 -1.4942
  164MOL0     H22101  12.151   6.633   1.454 -0.5121  0.2546  1.9760
  164MOL0     H22102  11.962   7.133   1.748 -0.7612  1.4634 -0.3146
  164MOL0     H22103  12.065   7.343   1.805 -0.6784 -0.1743 -0.7134
  164MOL0     H22104  12.335   7.616   1.800  0.0111  0.7620  0.7601
  164MOL0     H22105  12.213   7.502   1.877  1.6955 -0.7598  1.5995
  164MOL0     H22106  12.433   7.473   1.980  1.8992  2.2179 -0.4897
  164MOL0     H22107  12.373   7.331   1.887 -1.2932  0.7998  2.8508
  164MOL0     H22108  12.596   7.359   1.843 -1.8245 -1.6789 -0.7771
  164MOL0     H22109  12.511   7.410   1.690  1.5572 -0.5483  0.1704
  164MOL0     H22110  12.640   7.572   1.913 -0.0295 -0.2511  0.8968
  164MOL0     H22111  12.543   7.650   1.783  0.3225 -0.2921 -0.4478
  164MOL0     H22112  12.681   7.560   1.619 -0.5987  0.1413 -0.4714
  164MOL0     H22113  12.789   7.501   1.752  1.1805  1.1666 -0.2094
  164MOL0     H22114  12.696   7.795   1.718 -2.0690 -2.3269  1.0662
  164MOL0     H22115  12.846   7.744   1.804 -0.4048  1.4190  1.2935
  164MOL0     H22116  12.765   7.752   1.515 -0.8172 -3.6079  0.8064
  164MOL0     H22117  12.916   7.667   1.568 -0.1859 -0.3943 -1.5494
  164MOL0     H22118  13.000   7.871   1.660 -0.2697  0.4764 -0.3833
  164MOL0     H22119  12.976   7.886   1.497 -1.5671  0.0523 -1.5461
  164MOL0     H22120  12.350   7.309   1.487  0.6382 -0.4440 -1.0597
  164MOL0     H22121  12.223   7.096   1.401  0.4063 -0.4318  0.2927
  164MOL0     H22122  11.793   6.848   1.381  0.7653  0.9446  1.7752
  164MOL0     H22123  11.674   6.653   1.337  0.0095  1.5016 -1.5924
  164MOL0     H22124  11.368   5.684   1.517  1.0006 -2.3245  0.9971
  164MOL0     H22125  11.150   5.584   1.456  0.4716 -0.2654  1.0053
  164MOL0     H22126  11.041   5.241   1.118 -1.1115 -0.0688 -2.4599
  164MOL0     H22127  10.893   5.089   0.997  1.0285  0.3042 -0.4274
  164MOL0     H22128  10.528   5.174   0.831  0.2917  1.2729  0.7208
  164MOL0     H22129  10.490   5.262   0.977 -0.0804  0.3005 -0.8697
  164MOL0     H22130  10.370   5.052   1.064  0.4868  2.8167  1.0642
  164MOL0     H22131  10.397   4.999   0.890 -0.0945 -0.3098  0.5863
  164MOL0     H22132  10.245   5.148   0.803 -3.9929 -2.3485 -0.4418
  164MOL0     H22133  10.255   5.257   0.943  1.4514 -1.1599  1.4976
  164MOL0     H22134  10.146   4.969   0.952  1.4941  1.1774  0.1789
  164MOL0     H22135  10.120   5.092   1.077  0.6768 -1.0433  0.5003
  164MOL0     H22136   9.828   5.215   0.819  0.3781  0.5850 -0.0204
  164MOL0     H22137  10.558   5.257   1.171 -0.4237 -2.3281  0.8336
  164MOL0     H22138  10.711   5.499   1.402  2.4374 -0.8307 -0.3876
  164MOL0     H22139  10.657   5.567   1.252  0.5356 -0.6697 -2.4222
  164MOL0     H22140  10.568   5.438   1.318 -1.0821  3.9391  3.8040
  165MOL0     O22141   1.753   2.421   0.734 -0.2546 -0.2258 -0.5851
  165MOL0     C22142   1.651   2.377   0.787  0.3908  0.7540 -0.8950
  165MOL0     O22143   1.648   2.289   0.899 -0.6546  0.3392  0.8216
  165MOL0     C22144   1.755   2.213   0.939  0.4947 -0.2746  0.1360
  165MOL0     C22145   1.879   2.261   0.965  0.0813 -0.0845 -0.5281
  165MOL0     C22146   1.990   2.180   1.010  0.4129  0.4886 -0.0774
  165MOL0     C22147   1.964   2.046   1.038  0.3673  0.2606 -0.3390
  165MOL0     O22148   2.068   1.973   1.087 -0.2669  0.1873 -1.2648
  165MOL0     C22149   2.032   1.854   1.157 -0.1455  0.0080 -0.1606
  165MOL0     C22150   2.156   1.794   1.232  0.1115 -1.1246 -0.5582
  165MOL0     C22151   2.230   1.878   1.338  0.8461 -0.3488 -0.1712
  165MOL0     C22152   2.359   1.826   1.377  0.0118  1.2399 -0.4946
  165MOL0     C22153   2.435   1.907   1.478 -0.1625  0.0052  0.9090
  165MOL0     C22154   2.479   2.052   1.443  0.0044 -0.3433  0.2057
  165MOL0     C22155   2.593   2.107   1.530 -0.1707 -0.5328  0.5611
  165MOL0     C22156   2.621   2.248   1.479 -0.2219 -0.9510  0.6460
  165MOL0     N22157   2.719   2.318   1.551  0.0122 -0.0337  0.2752
  165MOL0     C22158   2.834   2.273   1.611  0.5717 -0.2824 -0.2563
  165MOL0     C22159   2.908   2.381   1.649  0.3289 -0.2852 -0.1572
  165MOL0     C22160   3.047   2.369   1.698  0.4103  0.6300  0.3297
  165MOL0     C22161   3.142   2.469   1.618 -0.2351 -0.5445  0.8929
  165MOL0     C22162   3.276   2.467   1.681  0.5553  0.5881 -0.5522
  165MOL0     C22163   3.383   2.538   1.602 -0.2432  0.0294 -1.3270
  165MOL0     O22164   3.518   2.529   1.648 -0.3033 -0.0795 -0.6847
  165MOL0     C22165   3.619   2.604   1.592 -0.6019 -0.3684 -0.4326
  165MOL0     C22166   3.601   2.690   1.477 -0.2136 -0.9690  0.5095
  165MOL0     C22167   3.715   2.766   1.431 -0.4297  0.2695 -0.2877
  165MOL0     C22168   3.843   2.744   1.478  0.6978 -0.3228  0.5340
  165MOL0     C22169   3.962   2.807   1.410 -0.6728 -0.6562  0.7649
  165MOL0     O22170   3.950   2.928   1.344  0.1289  0.2310  0.1596
  165MOL0     C22171   4.056   2.978   1.263 -0.3619 -0.1095 -0.5199
  165MOL0     C22172   4.083   3.113   1.289 -0.7083 -0.5738  1.1484
  165MOL0     C22173   4.170   3.183   1.209  0.2589  0.6182  0.8195
  165MOL0     C22174   4.234   3.119   1.104 -0.3038  0.3551  0.2535
  165MOL0     O22175   4.308   3.207   1.030  0.3430 -0.3484 -0.4062
  165MOL0     C22176   4.401   3.150   0.941  0.7427 -0.3073 -0.9402
  165MOL0     C22177   4.501   3.249   0.882  0.3817  0.5756  0.7051
  165MOL0     C22178   4.614   3.174   0.815  0.0964  0.3267  0.0451
  165MOL0     C22179   4.730   3.268   0.768  0.7701  0.2219 -0.6220
  165MOL0     C22180   4.843   3.173   0.733 -0.1303 -0.4869  0.3583
  165MOL0     C22181   4.973   3.250   0.738  0.0884 -0.4351 -0.1237
  165MOL0     C22182   5.088   3.160   0.704  0.1727 -0.2054 -0.2482
  165MOL0     C22183   5.217   3.237   0.714 -0.3313 -0.4000 -0.4143
  165MOL0    Cl22184   5.266   3.318   0.554  0.4244  0.4165 -0.0627
  165MOL0     C22185   4.200   2.981   1.072 -0.0497 -0.1157  0.1910
  165MOL0     C22186   4.114   2.911   1.161  0.2480 -0.0846  0.4781
  165MOL0     O22187   4.067   2.754   1.421 -0.5408  0.5068  0.2854
  165MOL0     C22188   3.858   2.652   1.580 -0.5097 -0.1261  0.0678
  165MOL0     C22189   3.749   2.586   1.637  0.7948 -0.2057  0.2835
  165MOL0     N22190   2.834   2.494   1.623  1.1819  0.0002  0.0434
  165MOL0     N22191   2.723   2.459   1.560 -0.3927  0.2774  0.7977
  165MOL0     C22192   1.837   1.995   1.019  1.5766 -0.1304  0.2292
  165MOL0     C22193   1.729   2.082   0.977  0.6039  1.2253  0.7991
  165MOL0     C22194   1.522   2.421   0.736  1.2681 -0.1000  0.2180
  165MOL0     C22195   1.416   2.431   0.829  1.0167 -0.0732  0.2270
  165MOL0     C22196   1.296   2.492   0.799 -0.7886 -0.3132  0.9642
  165MOL0     C22197   1.252   2.523   0.664 -0.4708  0.0548 -0.1342
  165MOL0     O22198   1.124   2.576   0.635 -0.1917  0.4783 -0.4368
  165MOL0     C22199   1.094   2.615   0.495  0.6428 -0.7424 -0.4943
  165MOL0     C22200   0.944   2.649   0.502  0.6268  0.4546 -0.5401
  165MOL0     C22201   0.878   2.705   0.382  0.4438  0.2064 -0.4989
  165MOL0     C22202   0.734   2.662   0.357  0.0836 -0.4473  0.1326
  165MOL0     C22203   0.638   2.690   0.463 -0.1559  0.0705 -0.4885
  165MOL0     C22204   0.550   2.716   0.545 -0.7222  0.7209  1.0277
  165MOL0     C22205   1.351   2.495   0.565  1.0502 -0.1951 -0.1541
  165MOL0     C22206   1.482   2.449   0.600 -0.1505  0.6073 -0.2314
  165MOL0     C22207   1.569   2.410   0.488  0.9605 -0.1616 -0.1421
  165MOL0     H22208   1.905   2.365   0.948  1.6357  0.2778  3.1144
  165MOL0     H22209   2.092   2.218   1.014  0.7897 -0.3445 -1.2365
  165MOL0     H22210   1.953   1.869   1.230  1.0674  0.6021  1.0664
  165MOL0     H22211   2.007   1.775   1.085 -1.6454  0.4877 -0.1922
  165MOL0     H22212   2.232   1.781   1.155  3.0401 -1.5393  2.1906
  165MOL0     H22213   2.119   1.699   1.272 -0.7231 -1.6594 -2.4635
  165MOL0     H22214   2.157   1.889   1.419 -0.0466 -2.2679 -0.6474
  165MOL0     H22215   2.249   1.975   1.292  1.9477 -1.0608 -1.2926
  165MOL0     H22216   2.348   1.724   1.415  3.3141  1.5232  1.5998
  165MOL0     H22217   2.417   1.816   1.285  1.1217 -3.1959  0.4420
  165MOL0     H22218   2.364   1.920   1.561 -1.2923  1.4345 -0.2387
  165MOL0     H22219   2.520   1.849   1.517  0.1792  0.7830  1.3411
  165MOL0     H22220   2.492   2.068   1.335 -0.9927  0.4392  0.1877
  165MOL0     H22221   2.389   2.111   1.458 -0.8939 -1.2617 -1.2532
  165MOL0     H22222   2.691   2.060   1.517 -0.4257 -0.2939 -4.5459
  165MOL0     H22223   2.564   2.112   1.635 -0.5284 -0.9920  0.4892
  165MOL0     H22224   2.650   2.252   1.374 -1.2427  5.2964  0.2315
  165MOL0     H22225   2.526   2.300   1.490  0.9366  0.8359  3.6127
  165MOL0     H22226   2.866   2.169   1.605  0.4425 -0.4875  1.7775
  165MOL0     H22227   3.047   2.394   1.804  1.8680 -3.3193  1.4300
  165MOL0     H22228   3.093   2.270   1.687 -1.2886 -0.3109  1.3730
  165MOL0     H22229   3.140   2.437   1.513  1.1597  0.6766  0.4527
  165MOL0     H22230   3.116   2.574   1.599  5.0472  0.4435 -3.5940
  165MOL0     H22231   3.309   2.364   1.700 -0.2116  0.4438  0.0387
  165MOL0     H22232   3.260   2.510   1.780  5.3684  2.4844 -0.3507
  165MOL0     H22233   3.359   2.645   1.597 -0.6722  0.0179 -0.1009
  165MOL0     H22234   3.381   2.502   1.499 -0.2279 -0.4244 -1.1677
  165MOL0     H22235   3.503   2.692   1.431  0.0082  1.1751  0.0084
  165MOL0     H22236   3.710   2.831   1.344 -0.6334 -0.5721 -0.9192
  165MOL0     H22237   4.031   3.157   1.373  1.3889 -1.5572  3.0870
  165MOL0     H22238   4.177   3.290   1.224  0.6385  0.6755  0.2233
  165MOL0     H22239   4.464   3.073   0.987  1.6183  0.0244 -1.5563
  165MOL0     H22240   4.343   3.107   0.858 -2.6165 -0.2877  1.2256
  165MOL0     H22241   4.452   3.310   0.805  3.1936  1.6161 -0.3983
  165MOL0     H22242   4.534   3.317   0.960  1.0569 -0.4070  1.2994
  165MOL0     H22243   4.653   3.105   0.890  2.9635 -0.3593 -1.9233
  165MOL0     H22244   4.574   3.104   0.741 -1.3000  1.1864 -0.0603
  165MOL0     H22245   4.770   3.315   0.859 -2.5646 -2.1040  2.3177
  165MOL0     H22246   4.694   3.329   0.685  0.3840  0.5173 -0.2421
  165MOL0     H22247   4.825   3.129   0.635 -1.3947  0.3305  0.2015
  165MOL0     H22248   4.851   3.086   0.799  0.2992 -3.2893 -3.1283
  165MOL0     H22249   4.977   3.333   0.667  2.8973  0.6611  1.1568
  165MOL0     H22250   4.982   3.285   0.842 -0.8114 -0.5159 -0.0079
  165MOL0     H22251   5.078   3.123   0.602 -3.1466 -0.3392  0.0249
  165MOL0     H22252   5.092   3.067   0.761 -4.0012 -2.5876 -3.2768
  165MOL0     H22253   5.222   3.320   0.785  0.6999 -1.5150  0.8707
  165MOL0     H22254   5.301   3.171   0.738  1.3994  1.9974  0.6278
  165MOL0     H22255   4.243   2.928   0.988  2.7549  1.9689  0.1671
  165MOL0     H22256   4.091   2.807   1.139 -0.4384  0.1899 -0.1598
  165MOL0     H22257   3.960   2.631   1.612 -0.1487  0.3921 -0.7133
  165MOL0     H22258   3.764   2.523   1.724 -1.6134  2.8960  3.2033
  165MOL0     H22259   1.810   1.892   1.039 -0.9201  0.1649 -1.1079
  165MOL0     H22260   1.627   2.049   0.960  1.1660 -0.4883  0.6371
  165MOL0     H22261   1.422   2.393   0.931 -0.3780 -0.8076  0.0704
  165MOL0     H22262   1.214   2.513   0.867  0.0363 -0.2308  1.9623
  165MOL0     H22263   1.116   2.534   0.426  0.3861 -1.7942  0.6126
  165MOL0     H22264   1.159   2.697   0.464  0.4853 -1.0726 -1.7523
  165MOL0     H22265   0.943   2.714   0.590  0.5608 -0.7851  0.3937
  165MOL0     H22266   0.890   2.562   0.540  0.9970  1.3507  2.2980
  165MOL0     H22267   0.937   2.674   0.295 -2.0437 -0.8116 -1.9176
  165MOL0     H22268   0.877   2.814   0.393  0.3685  0.3320 -1.5789
  165MOL0     H22269   0.692   2.721   0.275  1.1135  0.2194  0.0770
  165MOL0     H22270   0.728   2.556   0.329 -1.8741  0.2216 -2.3949
  165MOL0     H22271   0.468   2.734   0.610 -1.2634  1.3314  0.1983
  165MOL0     H22272   1.321   2.518   0.463 -1.6427  2.7949  1.1481
  165MOL0     H22273   1.502   2.376   0.409  2.1418 -0.0176 -1.2328
  165MOL0     H22274   1.635   2.492   0.456  1.0713  0.1747  0.9157
  165MOL0     H22275   1.627   2.321   0.512  0.0465 -0.5158  0.8462
  166MOL0     O22276   4.699   4.249   1.897 -0.3326 -0.1744  0.2443
  166MOL0     C22277   4.614   4.307   1.827 -0.1069 -0.4813 -0.7906
  166MOL0     O22278   4.643   4.389   1.723  0.4519  0.5305 -0.1176
  166MOL0     C22279   4.766   4.352   1.662  0.5447 -0.3263 -0.3561
  166MOL0     C22280   4.869   4.443   1.680  0.5668 -0.3497  0.1944
  166MOL0     C22281   4.984   4.438   1.596 -0.3167  1.0395  0.3149
  166MOL0     C22282   4.997   4.323   1.500  0.5939 -0.3478 -0.2631
  166MOL0     O22283   5.094   4.311   1.409  0.4397 -0.5442 -0.1337
  166MOL0     C22284   5.225   4.362   1.453  0.1708 -0.6773 -0.1995
  166MOL0     C22285   5.321   4.306   1.351  0.4107 -0.7044  0.4968
  166MOL0     C22286   5.457   4.351   1.388 -0.9962  0.1642 -0.3383
  166MOL0     C22287   5.557   4.291   1.285  1.0740  0.4353  0.1190
  166MOL0     C22288   5.704   4.329   1.309  0.2763 -0.8226 -0.0304
  166MOL0     C22289   5.807   4.229   1.264 -0.0181 -0.1050  0.0235
  166MOL0     C22290   5.945   4.289   1.297  0.3695 -0.0792  0.5721
  166MOL0     C22291   6.043   4.191   1.231 -0.2427 -0.0301  0.1089
  166MOL0     N22292   6.179   4.259   1.234  0.2667  1.0482  0.3844
  166MOL0     C22293   6.235   4.317   1.348  0.7560  0.2241  0.0089
  166MOL0     C22294   6.332   4.392   1.299 -0.1013 -0.1080 -0.3646
  166MOL0     C22295   6.420   4.486   1.378  0.3900  0.0436  0.3293
  166MOL0     C22296   6.405   4.634   1.324  0.5730 -0.4809 -1.0843
  166MOL0     C22297   6.445   4.735   1.432 -0.1718 -0.3145 -0.4761
  166MOL0     C22298   6.595   4.730   1.453  0.3127  0.1563 -0.1426
  166MOL0     O22299   6.655   4.829   1.539  0.5520  0.7445  0.5577
  166MOL0     C22300   6.790   4.819   1.565 -0.2616 -1.2814 -0.2742
  166MOL0     C22301   6.833   4.874   1.678  0.7060  0.0880 -0.6057
  166MOL0     C22302   6.969   4.885   1.708 -0.6925 -1.0819 -0.1027
  166MOL0     C22303   7.068   4.842   1.616  0.8235 -0.3917  0.2314
  166MOL0     C22304   7.203   4.866   1.645 -0.2586 -0.0854 -0.2425
  166MOL0     O22305   7.235   4.895   1.768  0.3310  0.5992 -0.1301
  166MOL0     C22306   7.370   4.898   1.806 -0.3141  0.1063 -0.0596
  166MOL0     C22307   7.423   4.811   1.915  0.5049 -0.4097 -0.3219
  166MOL0     C22308   7.556   4.826   1.946  0.0478  0.4335 -0.0904
  166MOL0     C22309   7.654   4.914   1.876  0.3807 -0.2795 -0.2004
  166MOL0     O22310   7.786   4.930   1.907  0.1226 -0.2557  0.2879
  166MOL0     C22311   7.824   4.872   2.031  0.2354  0.3249  0.3504
  166MOL0     C22312   7.962   4.921   2.061 -0.4594 -0.6461  0.2035
  166MOL0     C22313   8.028   4.850   2.177  0.7010 -0.3667 -0.7607
  166MOL0     C22314   8.145   4.926   2.222  0.4579 -0.1101 -0.0821
  166MOL0     C22315   8.220   4.852   2.333 -0.2706 -0.7662  0.7091
  166MOL0     C22316   8.339   4.925   2.376 -0.2464  0.1808  0.4940
  166MOL0     C22317   8.400   4.866   2.507  0.6826  1.2517 -0.1021
  166MOL0     C22318   8.526   4.926   2.556  0.1948  0.0909 -0.3201
  166MOL0    Cl22319   8.649   4.868   2.444 -0.3366  0.3314 -0.1650
  166MOL0     C22320   7.596   5.003   1.781  0.2131 -0.3466  0.3082
  166MOL0     C22321   7.460   4.997   1.752  0.3828 -0.3801 -0.5016
  166MOL0     O22322   7.278   4.832   1.553  0.6500 -1.1709 -0.2113
  166MOL0     C22323   7.018   4.790   1.497  0.1108 -0.5797 -0.0197
  166MOL0     C22324   6.883   4.771   1.477  0.2105  0.3014 -0.3634
  166MOL0     N22325   6.346   4.359   1.165  0.6623  0.5088 -0.7973
  166MOL0     N22326   6.250   4.283   1.123  0.1364  0.5272  0.1209
  166MOL0     C22327   4.888   4.236   1.484 -0.3940  1.0718 -0.7189
  166MOL0     C22328   4.773   4.244   1.568 -0.4583  1.0363  0.0075
  166MOL0     C22329   4.476   4.303   1.881 -0.3860 -0.2077 -0.2920
  166MOL0     C22330   4.445   4.337   2.015 -0.5533 -0.1458  0.2858
  166MOL0     C22331   4.317   4.326   2.073 -0.3367 -0.1064  0.6625
  166MOL0     C22332   4.210   4.320   1.983 -0.2200  0.6196 -0.3186
  166MOL0     O22333   4.077   4.339   2.012 -0.1353  0.2378  0.0122
  166MOL0     C22334   4.047   4.379   2.139 -0.5268  0.4091 -0.3430
  166MOL0     C22335   3.897   4.429   2.145  1.3472  0.8059 -0.0413
  166MOL0     C22336   3.888   4.565   2.068 -0.2109  0.0753  0.6374
  166MOL0     C22337   3.887   4.554   1.916  0.1933 -0.7704  0.0691
  166MOL0     C22338   3.832   4.681   1.862 -0.4307  0.5128 -0.2946
  166MOL0     C22339   3.770   4.769   1.809  0.0791  0.4124 -0.3206
  166MOL0     C22340   4.239   4.303   1.846  0.1811 -0.1045 -0.2286
  166MOL0     C22341   4.372   4.292   1.799  0.4055 -0.3040  0.8787
  166MOL0     C22342   4.383   4.267   1.645  0.4120  1.3147  0.7157
  166MOL0     H22343   4.849   4.540   1.724 -2.3927  1.0406 -3.5802
  166MOL0     H22344   5.050   4.525   1.593  0.7887  0.2058 -0.9307
  166MOL0     H22345   5.221   4.471   1.448 -0.9920 -0.5111  2.6273
  166MOL0     H22346   5.244   4.322   1.553  3.0248  1.8774  0.4484
  166MOL0     H22347   5.303   4.346   1.251 -1.5307 -2.7654 -0.0560
  166MOL0     H22348   5.325   4.196   1.351  0.7034 -0.7244  2.4961
  166MOL0     H22349   5.490   4.327   1.489 -0.3169  3.8507  0.4688
  166MOL0     H22350   5.473   4.458   1.376  3.3529 -0.2021  0.4546
  166MOL0     H22351   5.551   4.182   1.288  0.3337  0.4851  1.4075
  166MOL0     H22352   5.527   4.317   1.184  3.4966  0.3065 -0.6963
  166MOL0     H22353   5.724   4.422   1.256 -1.6388 -0.0227  0.5300
  166MOL0     H22354   5.722   4.334   1.417 -0.1719  1.9150 -0.0127
  166MOL0     H22355   5.788   4.127   1.298 -0.8423  0.4865  1.3934
  166MOL0     H22356   5.796   4.231   1.155 -0.2591 -1.1070  0.0261
  166MOL0     H22357   5.958   4.294   1.406  0.5170 -0.3949  0.5699
  166MOL0     H22358   5.957   4.388   1.251 -1.1773  0.3288  0.9949
  166MOL0     H22359   6.033   4.098   1.288 -2.9772 -0.1553 -0.4511
  166MOL0     H22360   6.007   4.181   1.128 -0.6074 -1.0911  0.3292
  166MOL0     H22361   6.205   4.309   1.452 -0.4307 -0.1987 -0.3394
  166MOL0     H22362   6.390   4.489   1.483 -0.7095 -3.5982  0.2277
  166MOL0     H22363   6.522   4.448   1.371 -0.1824 -1.6917  0.9649
  166MOL0     H22364   6.465   4.646   1.234  0.2023 -1.1656 -1.4294
  166MOL0     H22365   6.300   4.662   1.309  1.1749  2.1249 -0.9067
  166MOL0     H22366   6.388   4.707   1.521 -1.5048  1.1240 -0.8370
  166MOL0     H22367   6.427   4.841   1.415 -0.3573 -0.5910 -2.2469
  166MOL0     H22368   6.638   4.745   1.354  0.9402 -0.1380  0.0743
  166MOL0     H22369   6.620   4.631   1.493  2.2077  1.2145  1.4820
  166MOL0     H22370   6.753   4.923   1.732 -0.0245  0.1616 -1.7331
  166MOL0     H22371   6.995   4.922   1.806 -1.3474 -0.6808 -0.0713
  166MOL0     H22372   7.362   4.739   1.969  1.1187 -0.8762 -0.2393
  166MOL0     H22373   7.594   4.756   2.019  2.5820  2.3369  0.5720
  166MOL0     H22374   7.760   4.917   2.108 -0.3032 -0.9908  0.6953
  166MOL0     H22375   7.813   4.763   2.025 -2.3206  0.5423  0.3037
  166MOL0     H22376   8.021   4.910   1.970  1.1599 -1.1983  1.2748
  166MOL0     H22377   7.958   5.030   2.074  2.6602 -0.2228 -1.4007
  166MOL0     H22378   7.973   4.829   2.269  3.6536 -4.8266  0.3382
  166MOL0     H22379   8.058   4.753   2.135 -1.6217 -0.3818 -2.6101
  166MOL0     H22380   8.121   5.026   2.260  1.1927 -0.1952  0.6293
  166MOL0     H22381   8.210   4.944   2.136 -0.1052  1.7498 -0.1650
  166MOL0     H22382   8.240   4.747   2.307  0.3148 -0.7584  1.0925
  166MOL0     H22383   8.149   4.859   2.416 -0.0672  4.0619  0.7572
  166MOL0     H22384   8.419   4.913   2.302 -0.2039 -0.5467  0.6525
  166MOL0     H22385   8.325   5.031   2.400  2.4136  0.2825  2.0121
  166MOL0     H22386   8.420   4.759   2.498 -1.8862  0.2822  3.3763
  166MOL0     H22387   8.321   4.873   2.583 -1.8196  0.3754 -2.4652
  166MOL0     H22388   8.523   5.035   2.546 -0.3787  0.0218 -0.9685
  166MOL0     H22389   8.543   4.902   2.662 -1.2403  4.6735  1.1915
  166MOL0     H22390   7.665   5.073   1.734 -1.0289 -0.2288 -1.4724
  166MOL0     H22391   7.418   5.066   1.679  0.3276  1.7597  1.4577
  166MOL0     H22392   7.071   4.748   1.412 -2.4424 -0.6149 -1.6957
  166MOL0     H22393   6.842   4.728   1.386  2.0712 -0.0159 -1.1017
  166MOL0     H22394   4.898   4.167   1.400  0.3847 -1.9973  1.7069
  166MOL0     H22395   4.687   4.179   1.560  0.7043 -0.5108 -0.2745
  166MOL0     H22396   4.527   4.368   2.078 -2.1379  2.6634  1.1669
  166MOL0     H22397   4.311   4.341   2.180  0.7214  0.4138  0.6616
  166MOL0     H22398   4.112   4.453   2.185 -1.3470  0.4766  0.7437
  166MOL0     H22399   4.049   4.294   2.208  1.2349  0.2744 -0.5259
  166MOL0     H22400   3.878   4.444   2.251 -0.5591  1.3415 -0.4268
  166MOL0     H22401   3.823   4.359   2.105  0.0272  0.1020  3.2998
  166MOL0     H22402   3.969   4.624   2.111  0.0067  0.5070 -0.3551
  166MOL0     H22403   3.795   4.612   2.101 -0.4902 -0.8220  1.1601
  166MOL0     H22404   3.989   4.547   1.876 -0.7257 -2.5482 -2.1256
  166MOL0     H22405   3.825   4.468   1.891  1.9785 -1.9212 -0.6577
  166MOL0     H22406   3.718   4.851   1.763  1.8990  0.2012 -3.0019
  166MOL0     H22407   4.155   4.287   1.780  0.5928  0.4674 -0.9109
  166MOL0     H22408   4.390   4.359   1.586  1.1384 -0.1287 -1.5696
  166MOL0     H22409   4.456   4.191   1.615 -0.3311  0.9370 -0.2087
  166MOL0     H22410   4.291   4.215   1.616  0.9846 -0.7022  2.2899
  167MOL0     O22411   0.308   5.699  10.671  0.0057  0.0466 -0.1340
  167MOL0     C22412   0.225   5.634  10.734  0.8705 -0.8443 -1.2241
  167MOL0     O22413   0.248   5.522  10.821 -0.9099 -0.5676  0.5776
  167MOL0     C22414   0.370   5.470  10.850 -0.7078 -0.1959  0.5691
  167MOL0     C22415   0.491   5.527  10.832 -0.4147 -0.3518  0.3577
  167MOL0     C22416   0.616   5.467  10.862  0.2304  0.5596 -0.0683
  167MOL0     C22417   0.610   5.341  10.925 -0.1467 -0.4559 -0.4892
  167MOL0     O22418   0.726   5.290  10.974  0.8012 -0.1556 -0.3849
  167MOL0     C22419   0.728   5.152  11.009  0.0857 -0.1876 -0.6121
  167MOL0     C22420   0.866   5.100  11.068 -0.0263  0.0790  0.4983
  167MOL0     C22421   0.928   5.183  11.171 -0.0860 -0.5188 -0.1482
  167MOL0     C22422   1.064   5.130  11.213  0.6042  0.6471  0.4121
  167MOL0     C22423   1.136   5.225  11.312 -0.9798 -1.5004 -0.5689
  167MOL0     C22424   1.259   5.152  11.368  0.3641  0.2183  0.4449
  167MOL0     C22425   1.376   5.134  11.270  0.8630 -0.2583 -0.0536
  167MOL0     C22426   1.508   5.083  11.332  0.1065  0.6467  0.3641
  167MOL0     N22427   1.611   5.030  11.236  0.2858 -0.6037 -0.2043
  167MOL0     C22428   1.664   5.103  11.128  0.3386 -0.6557 -0.4440
  167MOL0     C22429   1.728   5.011  11.058 -0.0804 -0.3171 -0.7375
  167MOL0     C22430   1.826   5.026  10.940 -0.1988  0.3068  0.0943
  167MOL0     C22431   1.754   4.981  10.811 -0.1339 -0.4506 -0.5061
  167MOL0     C22432   1.862   4.948  10.705 -0.4083 -0.6009  0.5199
  167MOL0     C22433   1.954   4.825  10.729 -0.4233 -0.0887  0.1802
  167MOL0     O22434   1.876   4.708  10.755 -0.2861 -0.2107  0.7998
  167MOL0     C22435   1.936   4.583  10.755 -0.0158 -0.6431  0.0585
  167MOL0     C22436   2.074   4.558  10.755 -0.7836 -0.0021 -0.3024
  167MOL0     C22437   2.128   4.427  10.760  0.0660 -0.2702  0.2095
  167MOL0     C22438   2.035   4.317  10.752 -0.0228 -0.4554 -0.1224
  167MOL0     C22439   2.082   4.175  10.739 -0.4845 -0.0762  0.6916
  167MOL0     O22440   2.218   4.168  10.714  0.2071 -0.0044  0.0397
  167MOL0     C22441   2.260   4.064  10.641  0.0514  0.2664 -0.6206
  167MOL0     C22442   2.197   4.037  10.517 -0.3564  0.5253 -0.0546
  167MOL0     C22443   2.235   3.923  10.430  0.3077  0.1081 -0.4577
  167MOL0     C22444   2.344   3.837  10.474  0.2714  0.3884  0.4424
  167MOL0     O22445   2.399   3.731  10.410  0.2117  0.3376  0.0666
  167MOL0     C22446   2.326   3.675  10.298  0.1454  0.7066  0.5455
  167MOL0     C22447   2.364   3.525  10.290  0.0524  0.0751  0.5777
  167MOL0     C22448   2.518   3.507  10.315  0.2604 -0.0538 -0.0372
  167MOL0     C22449   2.568   3.363  10.298  0.7784 -0.1907  0.0958
  167MOL0     C22450   2.718   3.356  10.255  0.0229  0.7079 -0.0204
  167MOL0     C22451   2.811   3.365  10.375  0.2687  0.3537  0.1369
  167MOL0     C22452   2.949   3.399  10.329  0.1558  0.5491 -0.2373
  167MOL0     C22453   3.014   3.291  10.260  0.6493  0.9125  0.3511
  167MOL0    Cl22454   3.157   3.329  10.191 -0.2039  0.2926  0.3533
  167MOL0     C22455   2.405   3.870  10.598 -1.2074  0.4884  0.0975
  167MOL0     C22456   2.366   3.978  10.683 -0.4884  0.4258  0.7937
  167MOL0     O22457   2.002   4.089  10.730 -0.0621 -0.4435 -0.2682
  167MOL0     C22458   1.898   4.348  10.743 -0.8245  0.1048 -0.5543
  167MOL0     C22459   1.854   4.473  10.740  0.5649  0.0329 -0.4327
  167MOL0     N22460   1.709   4.888  11.111  0.2453 -0.4308 -0.4427
  167MOL0     N22461   1.659   4.904  11.225 -0.5794 -0.4689 -0.1675
  167MOL0     C22462   0.490   5.282  10.939  0.7317 -1.2211 -0.4362
  167MOL0     C22463   0.374   5.349  10.909  0.1240  0.5839 -0.1104
  167MOL0     C22464   0.087   5.677  10.724  0.0507 -0.4619  0.5669
  167MOL0     C22465   0.048   5.746  10.606  0.2584  0.2019  1.0476
  167MOL0     C22466  -0.080   5.791  10.580  0.2009 -0.1691  0.1791
  167MOL0     C22467  -0.175   5.773  10.673  0.1261 -0.1920  0.4817
  167MOL0     O22468  -0.292   5.830  10.636 -0.3415 -0.3348  0.9369
  167MOL0     C22469  -0.413   5.769  10.681  0.6892  0.4741  0.1625
  167MOL0     C22470  -0.438   5.630  10.611 -0.5242  0.3844  0.4545
  167MOL0     C22471  -0.553   5.538  10.659 -0.1783  0.7421 -0.3811
  167MOL0     C22472  -0.685   5.606  10.608 -0.6125 -0.5745 -0.8542
  167MOL0     C22473  -0.786   5.507  10.619 -1.1284 -1.1459  0.8439
  167MOL0     C22474  -0.880   5.429  10.637 -0.0723 -0.3935 -0.0583
  167MOL0     C22475  -0.138   5.710  10.796 -0.2024  0.4177  0.5370
  167MOL0     C22476  -0.021   5.648  10.817  0.3894  0.0893  0.4029
  167MOL0     C22477   0.006   5.582  10.947 -0.2164 -0.0142 -0.1784
  167MOL0     H22478   0.489   5.617  10.771 -1.5717 -1.7161 -1.7563
  167MOL0     H22479   0.705   5.528  10.859 -0.9955  2.5278  1.1761
  167MOL0     H22480   0.657   5.137  11.091 -1.9188 -2.0653 -2.5524
  167MOL0     H22481   0.707   5.093  10.920  2.2341  0.1110 -1.3709
  167MOL0     H22482   0.918   5.092  10.973 -0.4136  2.0515  0.0862
  167MOL0     H22483   0.863   4.997  11.106  3.8221 -0.4387 -0.2585
  167MOL0     H22484   0.866   5.188  11.261  1.4108 -1.7163  1.0068
  167MOL0     H22485   0.937   5.289  11.144  1.2430 -1.3666 -3.4660
  167MOL0     H22486   1.042   5.030  11.252 -1.1866  0.3308 -1.2532
  167MOL0     H22487   1.132   5.119  11.128  2.2273  4.3474  1.0428
  167MOL0     H22488   1.161   5.321  11.266 -1.4657 -0.7505  0.6723
  167MOL0     H22489   1.069   5.236  11.398 -0.3988 -2.1086 -0.0290
  167MOL0     H22490   1.288   5.195  11.465 -0.1792  0.9444  0.2964
  167MOL0     H22491   1.226   5.051  11.395 -1.8717  0.7117 -0.2388
  167MOL0     H22492   1.399   5.221  11.209  3.4944 -2.0166 -1.8121
  167MOL0     H22493   1.343   5.056  11.200  3.1524 -0.4943 -0.9582
  167MOL0     H22494   1.547   5.158  11.402  1.0268  0.5991 -0.0840
  167MOL0     H22495   1.463   4.995  11.380  1.4788 -0.2658  0.0313
  167MOL0     H22496   1.656   5.210  11.108  0.2312  0.1125  3.1423
  167MOL0     H22497   1.862   5.129  10.940 -0.3328  0.3565  0.5811
  167MOL0     H22498   1.907   4.961  10.976  0.1059  1.7852  2.2885
  167MOL0     H22499   1.691   4.892  10.820 -0.7266 -0.0885 -0.9197
  167MOL0     H22500   1.685   5.058  10.773  1.4652  1.4516  0.2528
  167MOL0     H22501   1.933   5.030  10.690 -0.7405 -0.6862 -2.0827
  167MOL0     H22502   1.811   4.933  10.609 -2.6377  2.4789  1.0597
  167MOL0     H22503   2.018   4.838  10.816 -1.9162 -1.4842  1.5651
  167MOL0     H22504   2.022   4.813  10.645  2.5227  1.0414  2.2534
  167MOL0     H22505   2.143   4.640  10.767 -0.8724 -0.1038  1.0516
  167MOL0     H22506   2.236   4.415  10.763  0.2215  0.6149 -1.2440
  167MOL0     H22507   2.116   4.104  10.490 -0.0220  1.0792  0.3012
  167MOL0     H22508   2.178   3.904  10.340 -0.8647  0.0293  0.2862
  167MOL0     H22509   2.218   3.673  10.318 -0.1040  0.7372 -0.6677
  167MOL0     H22510   2.337   3.722  10.200 -4.2778 -0.9290 -0.9864
  167MOL0     H22511   2.306   3.478  10.369 -0.3670 -0.8929 -0.2787
  167MOL0     H22512   2.345   3.492  10.187  0.6175  0.0819  0.4665
  167MOL0     H22513   2.573   3.562  10.237 -0.3839 -0.5226 -0.8449
  167MOL0     H22514   2.546   3.537  10.416 -2.4672 -4.1131  2.1854
  167MOL0     H22515   2.501   3.312  10.228 -2.3157 -0.1486  2.7864
  167MOL0     H22516   2.549   3.314  10.394 -1.5345  0.7660  0.1854
  167MOL0     H22517   2.747   3.425  10.175 -0.6721  1.8635  0.7028
  167MOL0     H22518   2.728   3.259  10.204 -0.4385 -0.7560  2.4629
  167MOL0     H22519   2.775   3.437  10.449  0.9338 -1.2979  2.1679
  167MOL0     H22520   2.815   3.266  10.422  2.2593  1.3887  2.3076
  167MOL0     H22521   3.007   3.427  10.417 -2.7877  0.0583  2.0221
  167MOL0     H22522   2.939   3.487  10.265 -2.2546 -0.3351 -1.2117
  167MOL0     H22523   3.025   3.202  10.323 -0.9829  0.3238 -0.1436
  167MOL0     H22524   2.951   3.247  10.182 -1.1577  1.0410  1.6557
  167MOL0     H22525   2.486   3.800  10.617 -3.3731 -2.7185 -1.5371
  167MOL0     H22526   2.422   3.996  10.774  1.1124 -1.3099  0.2238
  167MOL0     H22527   1.825   4.268  10.747 -0.8180 -0.0317 -2.1625
  167MOL0     H22528   1.750   4.505  10.733  1.6900  4.4165  0.2260
  167MOL0     H22529   0.478   5.183  10.982 -0.5642 -1.3777 -1.1067
  167MOL0     H22530   0.276   5.312  10.936 -0.0065 -0.1138 -1.4559
  167MOL0     H22531   0.123   5.776  10.534 -3.9352  1.0887 -3.4869
  167MOL0     H22532  -0.101   5.837  10.484 -0.2110 -2.3462 -0.8111
  167MOL0     H22533  -0.493   5.843  10.668 -1.2992 -1.6455 -0.5551
  167MOL0     H22534  -0.415   5.757  10.789  2.2795 -1.2359  0.0536
  167MOL0     H22535  -0.352   5.563  10.615 -1.8309 -1.3561  0.4866
  167MOL0     H22536  -0.455   5.644  10.504  1.1987  0.7526  0.2047
  167MOL0     H22537  -0.558   5.539  10.768  2.7618 -2.4845 -0.0179
  167MOL0     H22538  -0.545   5.434  10.625 -1.2214  0.9548 -1.3091
  167MOL0     H22539  -0.704   5.693  10.670 -1.7223  0.3351 -2.3994
  167MOL0     H22540  -0.683   5.633  10.502 -2.1476  0.4380 -0.6592
  167MOL0     H22541  -0.956   5.356  10.651  0.4848 -1.0652 -0.4574
  167MOL0     H22542  -0.216   5.704  10.871  1.0013 -0.0725  1.7981
  167MOL0     H22543   0.075   5.643  11.006  0.9163 -0.9415 -0.5092
  167MOL0     H22544  -0.088   5.572  11.001  0.1061  0.1724  0.4201
  167MOL0     H22545   0.058   5.486  10.942  2.6457  1.4600 -1.2883
  168MOL0     O22546  11.170   5.514   0.870 -0.3875 -0.5906 -0.5364
  168MOL0     C22547  11.106   5.614   0.905 -0.0493  0.1345 -0.3122
  168MOL0     O22548  11.153   5.739   0.921  0.8585  0.2628  0.8184
  168MOL0     C22549  11.278   5.766   0.892  0.7056  0.2367  0.0526
  168MOL0     C22550  11.362   5.822   0.989  0.4627  0.4468 -0.0973
  168MOL0     C22551  11.487   5.862   0.959  0.5311  0.2474  0.2348
  168MOL0     C22552  11.542   5.827   0.835 -0.0793 -0.0457  0.4751
  168MOL0     O22553  11.672   5.853   0.812 -0.2983  0.9019 -0.4118
  168MOL0     C22554  11.712   5.952   0.716 -0.3174  0.3190  0.2305
  168MOL0     C22555  11.736   5.882   0.586  0.8397 -0.4642 -0.5792
  168MOL0     C22556  11.855   5.935   0.497  0.5930  0.0792  1.5296
  168MOL0     C22557  11.860   5.840   0.380  0.5607  0.4775  0.5487
  168MOL0     C22558  11.947   5.893   0.266  0.7329  0.5641 -0.1461
  168MOL0     C22559  12.091   5.927   0.306  0.3833  0.7029 -0.4327
  168MOL0     C22560  12.167   5.834   0.402  0.0524  0.1807  0.2484
  168MOL0     C22561  12.298   5.897   0.461  0.5078  0.5362 -0.4169
  168MOL0     N22562  12.358   5.811   0.563 -0.1327 -0.7333  0.1468
  168MOL0     C22563  12.440   5.709   0.542 -0.2607  0.6585 -0.3211
  168MOL0     C22564  12.467   5.660   0.662 -0.1005 -0.1325 -0.6248
  168MOL0     C22565  12.563   5.543   0.684 -0.2516  0.9194  0.0968
  168MOL0     C22566  12.695   5.578   0.759 -0.0175  0.3368 -0.2014
  168MOL0     C22567  12.763   5.446   0.802 -0.2031  0.1315 -0.9929
  168MOL0     C22568  12.885   5.473   0.888  0.2971 -0.3719 -0.2888
  168MOL0     O22569  12.981   5.526   0.801  0.7936  0.3312 -0.4365
  168MOL0     C22570  13.108   5.544   0.848 -0.0581 -0.2294  0.7125
  168MOL0     C22571  13.147   5.563   0.976 -0.4689 -0.3769  0.5371
  168MOL0     C22572  13.282   5.577   1.008 -0.4304 -0.6939  0.5165
  168MOL0     C22573  13.387   5.569   0.910 -0.2249 -0.0618  0.6247
  168MOL0     C22574  13.526   5.584   0.947  0.7820 -0.1733  0.4383
  168MOL0     O22575  13.542   5.701   1.013  0.5764 -0.0122  0.1302
  168MOL0     C22576  13.664   5.733   1.047 -0.7575  0.1120 -0.1951
  168MOL0     C22577  13.724   5.837   0.974 -0.4460  0.5893 -0.8528
  168MOL0     C22578  13.840   5.907   1.024  0.3515  0.4874 -0.0696
  168MOL0     C22579  13.906   5.848   1.129 -0.1377  0.4893  0.4329
  168MOL0     O22580  14.015   5.904   1.194 -0.0200  0.7068 -0.1965
  168MOL0     C22581  14.105   5.980   1.109  0.3658  0.3951  0.0466
  168MOL0     C22582  14.232   6.024   1.176 -0.7238 -0.6000  0.2160
  168MOL0     C22583  14.318   5.904   1.226 -0.0905  0.3308  0.4700
  168MOL0     C22584  14.455   5.954   1.250  0.3804  0.6571 -0.3861
  168MOL0     C22585  14.545   5.849   1.305  0.1357  0.0672  0.7320
  168MOL0     C22586  14.686   5.882   1.342 -0.1791 -0.9813  0.8078
  168MOL0     C22587  14.791   5.770   1.334  0.2016 -0.0422  0.9131
  168MOL0     C22588  14.933   5.797   1.391 -0.0133  0.2040  0.5122
  168MOL0    Cl22589  14.916   5.849   1.559  0.1235 -0.1418  0.2664
  168MOL0     C22590  13.855   5.731   1.188  0.5980  0.8066 -0.0447
  168MOL0     C22591  13.734   5.675   1.147 -0.4353  0.7626  0.0383
  168MOL0     O22592  13.612   5.494   0.924  0.6307 -0.2764  0.2488
  168MOL0     C22593  13.354   5.538   0.778  1.4294  0.8862  0.5658
  168MOL0     C22594  13.215   5.532   0.753 -0.3042 -0.4270 -0.3934
  168MOL0     N22595  12.395   5.732   0.756 -0.2025 -0.2294  0.1471
  168MOL0     N22596  12.322   5.821   0.697 -0.2484  0.5054  0.5168
  168MOL0     C22597  11.461   5.775   0.739  1.0541  0.5286  0.4799
  168MOL0     C22598  11.330   5.735   0.770 -1.2483  0.0686 -0.4440
  168MOL0     C22599  10.963   5.589   0.921  0.2213 -1.0307 -0.1195
  168MOL0     C22600  10.910   5.475   0.856  0.4716  0.3421  0.4446
  168MOL0     C22601  10.771   5.446   0.855 -0.1487  0.6381  0.1349
  168MOL0     C22602  10.684   5.526   0.919  0.8657 -0.3118 -0.4254
  168MOL0     O22603  10.551   5.490   0.914  0.8281 -0.8857 -0.7431
  168MOL0     C22604  10.450   5.598   0.945 -0.2862  0.3907  0.1273
  168MOL0     C22605  10.323   5.557   0.878 -0.2476 -0.0335  0.2852
  168MOL0     C22606  10.203   5.615   0.951  0.1965  0.3542  0.2646
  168MOL0     C22607  10.076   5.567   0.879  0.2951  0.3997 -0.2614
  168MOL0     C22608   9.956   5.588   0.962  0.9387 -0.2824  0.3970
  168MOL0     C22609   9.858   5.629   1.020  0.2290 -0.2390  0.3293
  168MOL0     C22610  10.733   5.635   0.992  0.2530 -0.3804  0.5839
  168MOL0     C22611  10.868   5.669   0.998  0.4486  0.6402  0.9860
  168MOL0     C22612  10.912   5.776   1.098 -1.1399  0.8165 -0.6019
  168MOL0     H22613  11.329   5.854   1.088  0.0122  0.8943 -0.3806
  168MOL0     H22614  11.541   5.920   1.033 -2.6887 -1.7452  4.6221
  168MOL0     H22615  11.638   6.033   0.717  1.1910  1.7392  0.3935
  168MOL0     H22616  11.797   6.012   0.751  1.1190 -1.3799 -0.2289
  168MOL0     H22617  11.645   5.884   0.526 -0.1368 -2.0645  0.7562
  168MOL0     H22618  11.755   5.776   0.603 -0.4287 -0.8407 -1.3481
  168MOL0     H22619  11.951   5.940   0.549  0.6806 -0.3108  1.4123
  168MOL0     H22620  11.838   6.032   0.449  0.0194 -0.2249  1.0960
  168MOL0     H22621  11.884   5.742   0.423 -1.2922 -1.3619 -2.2420
  168MOL0     H22622  11.761   5.825   0.336  1.5534  0.2512 -1.8097
  168MOL0     H22623  11.953   5.813   0.191 -0.7609  1.2407 -1.0393
  168MOL0     H22624  11.909   5.968   0.195  0.2836 -0.7689 -1.3829
  168MOL0     H22625  12.158   5.927   0.219  0.8058 -2.1800 -0.2187
  168MOL0     H22626  12.089   6.023   0.358  1.2846 -1.1995  3.4953
  168MOL0     H22627  12.193   5.742   0.348 -0.6498  1.4615 -2.4290
  168MOL0     H22628  12.097   5.814   0.483  1.7213 -0.2987  1.6435
  168MOL0     H22629  12.378   5.921   0.390  0.5667 -1.8975 -1.2906
  168MOL0     H22630  12.268   5.988   0.513  1.2281  0.2411  0.5363
  168MOL0     H22631  12.473   5.659   0.451  3.3463  0.7156  0.7972
  168MOL0     H22632  12.506   5.472   0.745  1.5323  0.7898  1.6855
  168MOL0     H22633  12.579   5.487   0.592 -2.7859 -2.2219  1.3747
  168MOL0     H22634  12.768   5.627   0.694  0.5156  0.8416  0.7652
  168MOL0     H22635  12.667   5.644   0.842  0.5167  1.2210 -0.7095
  168MOL0     H22636  12.798   5.388   0.716 -0.9360 -0.7759 -0.7034
  168MOL0     H22637  12.693   5.384   0.860  2.9218 -1.6447  1.2481
  168MOL0     H22638  12.931   5.385   0.934  4.3611  1.3604 -0.5558
  168MOL0     H22639  12.856   5.546   0.964 -0.6102 -0.9793 -0.0448
  168MOL0     H22640  13.065   5.558   1.047 -2.0579 -0.8938 -1.2253
  168MOL0     H22641  13.308   5.605   1.110  1.8116  2.1131 -0.6838
  168MOL0     H22642  13.663   5.867   0.889  1.0955 -1.6347 -2.8631
  168MOL0     H22643  13.883   5.993   0.973  1.2241  1.4633  2.1707
  168MOL0     H22644  14.147   5.915   1.031  0.2794 -0.5790  0.8021
  168MOL0     H22645  14.049   6.061   1.062 -3.2194 -2.6041 -1.4173
  168MOL0     H22646  14.287   6.079   1.099  0.9153  0.7503  2.2475
  168MOL0     H22647  14.205   6.093   1.256  1.0050 -0.9254  1.1310
  168MOL0     H22648  14.271   5.868   1.318  1.2497  1.5170  1.6638
  168MOL0     H22649  14.323   5.826   1.149  1.1278  1.1745 -0.3482
  168MOL0     H22650  14.449   6.029   1.330  1.6640 -0.4429  0.8136
  168MOL0     H22651  14.496   6.002   1.161  1.2899 -0.9652 -0.8767
  168MOL0     H22652  14.547   5.770   1.230  1.4126 -1.0718  1.9091
  168MOL0     H22653  14.497   5.821   1.400  2.7569  1.8068  2.7268
  168MOL0     H22654  14.717   5.959   1.271  2.4267 -0.2669  2.5990
  168MOL0     H22655  14.686   5.923   1.444  0.6149  2.6194 -0.4774
  168MOL0     H22656  14.796   5.741   1.229  2.2003 -0.4747  1.0920
  168MOL0     H22657  14.742   5.686   1.385  0.3251  0.1554  1.3705
  168MOL0     H22658  14.990   5.704   1.379  0.3083  0.4921 -0.3126
  168MOL0     H22659  14.979   5.875   1.330 -0.9989  0.1473 -0.3399
  168MOL0     H22660  13.909   5.676   1.265 -0.6110 -1.0305 -0.4619
  168MOL0     H22661  13.689   5.592   1.201  0.8296 -0.9936 -1.4840
  168MOL0     H22662  13.424   5.516   0.698 -1.3965 -0.6821 -1.6869
  168MOL0     H22663  13.179   5.518   0.652 -3.9889 -0.2952  0.7677
  168MOL0     H22664  11.500   5.736   0.646 -0.1373 -0.7485  0.4937
  168MOL0     H22665  11.273   5.691   0.689  1.6260 -1.9258 -1.5896
  168MOL0     H22666  10.969   5.406   0.796 -0.4955  1.3741 -1.8181
  168MOL0     H22667  10.737   5.361   0.796  0.4490  0.7489 -0.3824
  168MOL0     H22668  10.478   5.694   0.899 -3.2135  0.4917 -1.7578
  168MOL0     H22669  10.432   5.629   1.048  0.3326  0.2096  0.2931
  168MOL0     H22670  10.318   5.448   0.880  3.3162 -0.4222 -2.1816
  168MOL0     H22671  10.329   5.594   0.775 -0.6798  1.2477  0.6972
  168MOL0     H22672  10.202   5.724   0.957 -0.4919  0.4060 -0.5977
  168MOL0     H22673  10.193   5.572   1.051 -3.5501 -0.7415 -0.4472
  168MOL0     H22674  10.077   5.602   0.776 -1.5919 -0.6087 -0.6816
  168MOL0     H22675  10.084   5.458   0.875  3.4415  0.3902  2.3983
  168MOL0     H22676   9.773   5.650   1.081  1.8617  0.6807  2.4436
  168MOL0     H22677  10.668   5.701   1.047 -0.0363 -0.6778  0.6031
  168MOL0     H22678  10.913   5.876   1.053 -0.2633  0.5226 -1.2608
  168MOL0     H22679  10.845   5.775   1.184  1.1849 -1.5571  1.3600
  168MOL0     H22680  11.009   5.750   1.142 -1.7504 -3.8251 -1.5457
  169MOL0     O22681   1.388   3.288   3.463 -0.5009  0.5915 -0.4567
  169MOL0     C22682   1.359   3.189   3.528 -0.3944  0.1211 -0.2062
  169MOL0     O22683   1.457   3.089   3.563  0.3542  0.2534  0.5827
  169MOL0     C22684   1.571   3.079   3.501 -0.2224 -0.6251  0.4668
  169MOL0     C22685   1.619   2.952   3.467  0.5038  0.0207  0.1181
  169MOL0     C22686   1.749   2.933   3.409 -0.2775 -0.0638 -0.6120
  169MOL0     C22687   1.838   3.039   3.389  0.1038 -0.6349  0.2787
  169MOL0     O22688   1.966   3.030   3.341 -0.7249  0.2265 -0.3251
  169MOL0     C22689   2.003   2.906   3.277 -0.0815 -1.0432 -1.0081
  169MOL0     C22690   2.127   2.931   3.197 -0.1097  0.2730  0.3402
  169MOL0     C22691   2.185   2.795   3.152 -0.4724 -0.0740 -0.7056
  169MOL0     C22692   2.106   2.721   3.033  0.9661 -0.6860 -0.0752
  169MOL0     C22693   2.178   2.596   2.985  0.6421 -0.5007  0.2415
  169MOL0     C22694   2.117   2.524   2.868 -0.0650 -0.5679 -0.6419
  169MOL0     C22695   2.210   2.423   2.795  0.3531 -0.9271 -0.1317
  169MOL0     C22696   2.211   2.290   2.875  0.0998 -0.4869 -0.1118
  169MOL0     N22697   2.091   2.209   2.866 -0.0266  0.3489  0.5998
  169MOL0     C22698   2.001   2.217   2.761  0.6364 -0.1645 -0.1940
  169MOL0     C22699   1.883   2.160   2.808 -0.4742 -0.1035  0.5511
  169MOL0     C22700   1.757   2.155   2.723  0.0451 -0.8833  0.3606
  169MOL0     C22701   1.740   2.007   2.693  0.6168  0.7857 -0.8560
  169MOL0     C22702   1.611   1.985   2.616 -0.3001 -0.4053 -0.2600
  169MOL0     C22703   1.485   1.996   2.706 -0.4104 -0.0834  1.0843
  169MOL0     O22704   1.468   1.878   2.778 -0.3040  0.3639 -0.6479
  169MOL0     C22705   1.342   1.852   2.832 -0.3958 -0.9870  0.2938
  169MOL0     C22706   1.317   1.732   2.890 -0.6450  0.2019 -0.0894
  169MOL0     C22707   1.194   1.706   2.954 -0.9384  0.8306 -0.2981
  169MOL0     C22708   1.093   1.801   2.970 -0.1605  0.0041 -0.0258
  169MOL0     C22709   0.976   1.774   3.049 -0.3180  0.3538  0.2012
  169MOL0     O22710   0.892   1.878   3.065 -0.0481 -0.0079 -0.1715
  169MOL0     C22711   0.755   1.859   3.075 -0.2488  0.6354 -0.1103
  169MOL0     C22712   0.683   1.943   3.164 -0.4632 -0.4985  0.0663
  169MOL0     C22713   0.549   1.932   3.184  0.3442  1.0337  0.2787
  169MOL0     C22714   0.474   1.840   3.111 -0.7880  0.2236  0.3880
  169MOL0     O22715   0.338   1.845   3.125 -0.0061  0.4899  0.1945
  169MOL0     C22716   0.264   1.733   3.075 -0.1405 -0.2132  0.6933
  169MOL0     C22717   0.115   1.748   3.088 -0.0056  0.3232 -0.5558
  169MOL0     C22718   0.076   1.696   3.230 -0.6967  0.3222 -0.1905
  169MOL0     C22719  -0.069   1.738   3.263  0.5700  0.3556 -0.3677
  169MOL0     C22720  -0.087   1.855   3.365 -0.1510 -0.4305  0.5970
  169MOL0     C22721  -0.007   1.985   3.318 -0.4969  0.2285 -0.7972
  169MOL0     C22722   0.118   1.999   3.404 -0.1434 -0.2093 -0.5537
  169MOL0     C22723   0.181   2.137   3.395  0.2105 -0.2513  0.1329
  169MOL0    Cl22724   0.332   2.130   3.489 -0.1890  0.2338 -0.1807
  169MOL0     C22725   0.550   1.748   3.031  0.0096 -0.4948  0.5907
  169MOL0     C22726   0.685   1.765   3.011  0.9267  0.4606  0.3074
  169MOL0     O22727   0.967   1.661   3.106 -0.5282 -0.0157 -0.1722
  169MOL0     C22728   1.111   1.920   2.896  0.0927  0.6144  0.2150
  169MOL0     C22729   1.232   1.951   2.826 -0.4010 -0.6190 -0.3918
  169MOL0     N22730   1.909   2.111   2.940  0.5277 -0.6554  0.4814
  169MOL0     N22731   2.029   2.154   2.972  0.6754  0.1008 -0.0334
  169MOL0     C22732   1.794   3.171   3.427  0.0792  0.0093 -0.4627
  169MOL0     C22733   1.664   3.187   3.487 -0.3481  0.3029 -1.1987
  169MOL0     C22734   1.227   3.185   3.603 -0.1854 -0.1757  0.0756
  169MOL0     C22735   1.197   3.300   3.669  0.2237  1.1339  0.0252
  169MOL0     C22736   1.077   3.305   3.746  0.3611  1.1991 -0.2572
  169MOL0     C22737   0.986   3.190   3.744  0.1694 -0.5131 -0.8680
  169MOL0     O22738   0.874   3.185   3.824 -0.2654 -0.0614 -0.2913
  169MOL0     C22739   0.810   3.311   3.855  0.1512 -0.1207  0.5903
  169MOL0     C22740   0.684   3.281   3.946  0.3376  0.0993  0.4260
  169MOL0     C22741   0.581   3.178   3.871  0.0051  0.6591  0.0063
  169MOL0     C22742   0.484   3.112   3.966  0.7332  0.5615 -0.3722
  169MOL0     C22743   0.548   3.021   4.059  0.1037  0.1208 -0.6905
  169MOL0     C22744   0.596   2.954   4.144 -0.1157  0.6665  0.9318
  169MOL0     C22745   1.024   3.080   3.671 -0.6170  0.2990 -0.8244
  169MOL0     C22746   1.140   3.072   3.601  0.0570  0.1882  0.6575
  169MOL0     C22747   1.164   2.943   3.527  0.4542 -0.6083  0.1185
  169MOL0     H22748   1.560   2.864   3.493 -1.2854  0.7960 -1.1271
  169MOL0     H22749   1.786   2.834   3.385 -3.0111 -0.6389 -2.9797
  169MOL0     H22750   2.025   2.837   3.360  1.1053  0.9523  0.4339
  169MOL0     H22751   1.927   2.859   3.214 -0.2011 -0.1923 -1.5111
  169MOL0     H22752   2.205   2.989   3.247  1.2856  0.1987 -1.6126
  169MOL0     H22753   2.094   2.989   3.111 -0.2788  0.9821  0.8793
  169MOL0     H22754   2.193   2.728   3.238  0.7529  0.9992  0.0542
  169MOL0     H22755   2.288   2.820   3.123  0.2569 -0.2538  1.5378
  169MOL0     H22756   2.013   2.688   3.079  0.2823 -2.0291 -2.2752
  169MOL0     H22757   2.086   2.797   2.957 -2.9161 -2.5862 -1.2117
  169MOL0     H22758   2.280   2.622   2.958  0.8961  1.3406  2.6108
  169MOL0     H22759   2.192   2.530   3.071  0.1124 -0.7267  0.1609
  169MOL0     H22760   2.017   2.485   2.892 -0.2544 -1.3357 -2.4893
  169MOL0     H22761   2.105   2.599   2.789  3.2068 -0.9244 -1.6101
  169MOL0     H22762   2.312   2.461   2.787  1.3142 -3.1997  0.3334
  169MOL0     H22763   2.179   2.406   2.692 -1.6318 -0.4856  0.3572
  169MOL0     H22764   2.298   2.228   2.848 -0.5928 -0.9644 -1.3092
  169MOL0     H22765   2.222   2.318   2.980  1.2609 -2.3554  0.3234
  169MOL0     H22766   2.018   2.248   2.658  3.4434 -1.5581 -0.2400
  169MOL0     H22767   1.680   2.198   2.787  0.5400  1.2728 -0.3928
  169MOL0     H22768   1.761   2.213   2.630  0.5430  1.4937  1.7805
  169MOL0     H22769   1.828   1.977   2.636  1.1616  1.3697 -0.3324
  169MOL0     H22770   1.734   1.945   2.783 -0.7289  1.9663 -0.0769
  169MOL0     H22771   1.608   1.886   2.570  0.9133  0.0531 -1.3850
  169MOL0     H22772   1.607   2.059   2.535 -1.9925  1.0921  1.1195
  169MOL0     H22773   1.396   2.008   2.643  0.2683  0.6153  0.2304
  169MOL0     H22774   1.499   2.086   2.767 -2.3318  0.9822  0.0403
  169MOL0     H22775   1.405   1.669   2.884  0.3671  1.4853  0.5783
  169MOL0     H22776   1.191   1.616   3.015  3.2240  0.6785 -0.0200
  169MOL0     H22777   0.735   2.018   3.223 -0.2836 -0.9041  0.4277
  169MOL0     H22778   0.491   1.996   3.251  0.8326  1.7278  0.0543
  169MOL0     H22779   0.279   1.732   2.967  1.3167 -0.2694  0.8709
  169MOL0     H22780   0.297   1.638   3.118  2.0930 -0.3581 -1.1536
  169MOL0     H22781   0.084   1.852   3.080  1.1046  0.8215  1.1071
  169MOL0     H22782   0.060   1.683   3.019  1.1206  1.2520 -2.4106
  169MOL0     H22783   0.089   1.588   3.242  1.7287  0.7152  1.3705
  169MOL0     H22784   0.144   1.744   3.302  1.6798 -0.1426 -2.0022
  169MOL0     H22785  -0.120   1.655   3.313  1.2016  1.4796  2.2901
  169MOL0     H22786  -0.124   1.745   3.169 -1.8577  2.3988  1.0838
  169MOL0     H22787  -0.060   1.828   3.467  0.5753 -1.4958  0.1423
  169MOL0     H22788  -0.192   1.887   3.361  0.1282  1.0683  3.3111
  169MOL0     H22789   0.027   1.987   3.214 -1.8303  1.6093 -1.2433
  169MOL0     H22790  -0.071   2.073   3.329  0.5396  0.8784  0.2276
  169MOL0     H22791   0.199   1.927   3.390  2.4509  1.8234  2.7199
  169MOL0     H22792   0.091   1.983   3.508 -1.6561  1.8732 -0.5561
  169MOL0     H22793   0.203   2.160   3.291  0.0621 -1.2541 -0.1273
  169MOL0     H22794   0.117   2.221   3.426  1.9491  1.3152 -0.3536
  169MOL0     H22795   0.492   1.677   2.972  1.3447 -0.1047 -1.2921
  169MOL0     H22796   0.733   1.704   2.936  0.8413 -1.1146  1.4941
  169MOL0     H22797   1.028   1.990   2.895  0.7090  1.3698 -1.7902
  169MOL0     H22798   1.235   2.047   2.776 -3.8531 -0.3858 -0.3426
  169MOL0     H22799   1.861   3.256   3.423  1.7343 -1.2747 -1.3891
  169MOL0     H22800   1.629   3.286   3.514  0.7891  0.7604 -1.3157
  169MOL0     H22801   1.274   3.376   3.684 -0.3797  1.4900  1.4760
  169MOL0     H22802   1.061   3.378   3.824 -1.7372  0.6108 -0.0815
  169MOL0     H22803   0.777   3.367   3.767 -0.4817  2.0818  2.1322
  169MOL0     H22804   0.878   3.375   3.911  0.5867  1.4467 -1.5910
  169MOL0     H22805   0.634   3.368   3.989 -0.1029 -0.1721  0.4701
  169MOL0     H22806   0.721   3.237   4.039  1.7825 -0.2660 -0.2932
  169MOL0     H22807   0.637   3.102   3.815 -0.0092  0.7551 -0.1394
  169MOL0     H22808   0.516   3.231   3.800 -1.0390 -1.7946 -0.9840
  169MOL0     H22809   0.430   3.188   4.023  1.3463  0.6003  0.1787
  169MOL0     H22810   0.420   3.056   3.897 -2.8396  4.0969 -0.2988
  169MOL0     H22811   0.639   2.897   4.224  0.9096 -0.6877 -0.5245
  169MOL0     H22812   0.964   2.991   3.682  0.7919 -0.8732 -2.0914
  169MOL0     H22813   1.210   2.956   3.429  1.2195 -0.4872  0.4829
  169MOL0     H22814   1.233   2.878   3.581  0.1824  1.9109  3.9000
  169MOL0     H22815   1.072   2.884   3.520  0.6613 -0.8064 -0.9779
  170MOL0     O22816   9.821   6.239   7.963  0.0873 -0.4355  0.2021
  170MOL0     C22817   9.763   6.135   7.974  0.0770 -1.0048 -0.2529
  170MOL0     O22818   9.828   6.014   7.979  0.1620 -0.6566 -0.3260
  170MOL0     C22819   9.969   6.016   7.976  0.2829  0.0388  0.1017
  170MOL0     C22820  10.035   6.063   8.084  0.3487 -1.1237 -0.1740
  170MOL0     C22821  10.171   6.063   8.087  0.3264 -0.0520  0.3650
  170MOL0     C22822  10.250   6.011   7.981 -0.0472 -0.0691 -0.3843
  170MOL0     O22823  10.391   6.012   7.991  0.1718 -0.4640 -0.8807
  170MOL0     C22824  10.472   5.993   7.877 -0.5704  0.0725 -0.3399
  170MOL0     C22825  10.621   6.015   7.903 -0.2101  0.5310 -1.0187
  170MOL0     C22826  10.710   6.002   7.786 -0.7789 -0.3393 -0.0289
  170MOL0     C22827  10.854   6.026   7.833  1.1110  0.4250  0.0861
  170MOL0     C22828  10.940   5.903   7.834  0.5149 -0.4133  0.8933
  170MOL0     C22829  11.063   5.911   7.919  0.6526  0.3438 -0.1376
  170MOL0     C22830  11.166   5.806   7.874  0.3419 -0.1590  0.0166
  170MOL0     C22831  11.243   5.848   7.755 -0.3809  0.2423 -0.3274
  170MOL0     N22832  11.372   5.773   7.756 -0.3893  0.0677 -0.4056
  170MOL0     C22833  11.387   5.642   7.735  0.2959 -0.3063  0.1244
  170MOL0     C22834  11.514   5.619   7.756 -0.6536  0.5180  0.1402
  170MOL0     C22835  11.601   5.491   7.747  0.1189  0.0050  0.0588
  170MOL0     C22836  11.754   5.504   7.717  0.4623 -0.6127 -0.7814
  170MOL0     C22837  11.816   5.362   7.712 -0.1691  0.4960  0.3323
  170MOL0     C22838  11.964   5.369   7.703  0.3545  0.1042  0.0767
  170MOL0     O22839  12.010   5.416   7.577 -0.0865 -0.1718  0.5229
  170MOL0     C22840  12.146   5.410   7.562  0.4987 -0.0290  0.3404
  170MOL0     C22841  12.185   5.455   7.434 -0.0098  0.1263 -0.1559
  170MOL0     C22842  12.314   5.450   7.383  0.4163 -0.5147 -0.9324
  170MOL0     C22843  12.410   5.400   7.475  0.7781  0.1042  0.2257
  170MOL0     C22844  12.550   5.386   7.430  0.2696  0.4348 -0.4792
  170MOL0     O22845  12.646   5.356   7.531  1.1992  0.1159  0.8057
  170MOL0     C22846  12.774   5.351   7.495 -0.0540  0.1585 -0.0646
  170MOL0     C22847  12.869   5.426   7.567  0.0983 -0.2384  0.6119
  170MOL0     C22848  13.003   5.400   7.538 -0.4723 -0.4100 -1.9428
  170MOL0     C22849  13.047   5.314   7.437 -0.2807 -0.8102  0.0464
  170MOL0     O22850  13.184   5.308   7.417 -0.1966 -0.1758  0.3196
  170MOL0     C22851  13.226   5.243   7.289 -0.3162 -0.7883 -0.8676
  170MOL0     C22852  13.377   5.229   7.268  0.4233  1.3265 -0.5556
  170MOL0     C22853  13.461   5.355   7.260  1.0679 -0.0869  0.0642
  170MOL0     C22854  13.426   5.435   7.129 -0.4646 -0.4632  0.3787
  170MOL0     C22855  13.515   5.564   7.102 -0.1178 -0.7639 -0.1425
  170MOL0     C22856  13.474   5.679   7.194  0.4135 -0.2748  0.2128
  170MOL0     C22857  13.560   5.815   7.189 -0.4427  0.3393  0.3219
  170MOL0     C22858  13.476   5.930   7.239 -0.4951  0.4118  0.2630
  170MOL0    Cl22859  13.561   6.085   7.222  0.2362 -0.0758  0.1482
  170MOL0     C22860  12.948   5.253   7.360 -0.2658 -0.4159  0.1714
  170MOL0     C22861  12.815   5.267   7.389  0.2494 -0.5595 -0.0501
  170MOL0     O22862  12.579   5.411   7.309 -0.0225 -0.0133 -0.0087
  170MOL0     C22863  12.376   5.368   7.606  0.0421  0.2130 -0.4941
  170MOL0     C22864  12.244   5.374   7.652 -0.4735 -0.3932 -0.2102
  170MOL0     N22865  11.575   5.739   7.783  0.1644  0.5481 -0.3213
  170MOL0     N22866  11.488   5.830   7.802  0.7682  0.0029 -0.1180
  170MOL0     C22867  10.183   5.965   7.871 -0.4158  0.1662  0.5342
  170MOL0     C22868  10.040   5.968   7.867  0.1211 -0.5831 -0.3263
  170MOL0     C22869   9.622   6.153   8.005  0.0742  0.4620  1.1680
  170MOL0     C22870   9.561   6.268   7.957 -0.0036 -0.1415 -0.2377
  170MOL0     C22871   9.420   6.290   7.989 -0.8015  0.4432 -0.1927
  170MOL0     C22872   9.347   6.193   8.055 -0.2498 -0.8115 -0.5488
  170MOL0     O22873   9.212   6.213   8.086 -0.3985 -0.8869 -0.2489
  170MOL0     C22874   9.132   6.298   8.006 -0.5317 -0.3797  0.6286
  170MOL0     C22875   8.989   6.246   8.017  0.0022 -0.9166  0.0508
  170MOL0     C22876   8.895   6.333   7.927  0.5960  0.1755  0.1011
  170MOL0     C22877   8.761   6.254   7.914  0.0821 -0.9396  0.5453
  170MOL0     C22878   8.674   6.255   8.030  0.0050  0.0364 -0.0262
  170MOL0     C22879   8.610   6.260   8.125 -0.3182  0.4989  0.1058
  170MOL0     C22880   9.409   6.076   8.086  0.0311 -0.1531  0.0897
  170MOL0     C22881   9.546   6.053   8.072  0.4297  0.3818 -0.6982
  170MOL0     C22882   9.597   5.935   8.141 -0.0465  0.6874 -0.1572
  170MOL0     H22883   9.983   6.091   8.176  0.1905 -2.6274  0.2236
  170MOL0     H22884  10.224   6.070   8.182 -0.0071 -1.4953  0.6770
  170MOL0     H22885  10.458   5.899   7.823  0.0990  1.3997 -2.9996
  170MOL0     H22886  10.444   6.064   7.799 -2.4225 -2.2217 -1.9105
  170MOL0     H22887  10.648   5.945   7.982  2.6346  1.7395 -0.7842
  170MOL0     H22888  10.631   6.115   7.945  0.8577  0.8056 -1.8687
  170MOL0     H22889  10.694   6.079   7.710  2.8558 -0.0070 -0.6102
  170MOL0     H22890  10.706   5.900   7.748 -1.3912  0.2510 -1.6452
  170MOL0     H22891  10.898   6.098   7.764  1.5082  2.4018  2.2816
  170MOL0     H22892  10.854   6.063   7.936 -1.1554  0.5670  0.0941
  170MOL0     H22893  10.882   5.814   7.862 -0.5778 -0.1194 -0.3458
  170MOL0     H22894  10.969   5.889   7.729 -0.1269 -0.4272  0.7125
  170MOL0     H22895  11.103   6.013   7.914  2.8033 -0.4265  0.2713
  170MOL0     H22896  11.032   5.881   8.019  0.5183 -1.6272 -0.7424
  170MOL0     H22897  11.119   5.710   7.854 -1.6510  1.2462 -2.7856
  170MOL0     H22898  11.240   5.797   7.954  0.5327  1.9278  0.1332
  170MOL0     H22899  11.184   5.849   7.663  2.5801  1.6609 -2.3811
  170MOL0     H22900  11.277   5.949   7.779 -2.1917  1.5074 -2.6238
  170MOL0     H22901  11.299   5.580   7.715 -2.4186  2.2778  2.9508
  170MOL0     H22902  11.581   5.439   7.841 -0.9345  0.5703  0.1578
  170MOL0     H22903  11.563   5.424   7.669  0.1826 -0.0516  0.0757
  170MOL0     H22904  11.774   5.547   7.618  1.2255  1.8172  0.3604
  170MOL0     H22905  11.804   5.569   7.789  1.8205 -1.8772 -0.5336
  170MOL0     H22906  11.774   5.310   7.625  0.0396  1.0202 -0.0910
  170MOL0     H22907  11.785   5.312   7.804  0.8306 -0.9214 -0.0593
  170MOL0     H22908  12.008   5.274   7.733 -2.0227 -0.7592  1.0503
  170MOL0     H22909  11.997   5.445   7.775  1.7110 -0.0929 -0.2939
  170MOL0     H22910  12.116   5.491   7.358  1.2624  0.0253 -1.4059
  170MOL0     H22911  12.332   5.483   7.281 -0.9069  0.6067 -0.8216
  170MOL0     H22912  12.838   5.502   7.638  0.7629  1.5039 -0.8711
  170MOL0     H22913  13.074   5.459   7.595  1.8898 -2.4675 -2.5629
  170MOL0     H22914  13.182   5.143   7.290 -0.1799 -0.8583  0.3669
  170MOL0     H22915  13.193   5.294   7.198  0.2156 -2.4579 -2.0475
  170MOL0     H22916  13.407   5.177   7.359 -0.0261  0.5760 -0.8210
  170MOL0     H22917  13.399   5.164   7.182 -4.6588  0.2211 -1.3038
  170MOL0     H22918  13.449   5.418   7.348 -2.4403  0.4576 -0.6760
  170MOL0     H22919  13.568   5.331   7.263  1.9888  3.6107  1.7105
  170MOL0     H22920  13.319   5.459   7.128 -0.8957 -2.2434  0.9775
  170MOL0     H22921  13.446   5.369   7.044  3.4616 -1.0331  1.5632
  170MOL0     H22922  13.494   5.589   6.998 -0.7295  2.0797  0.5801
  170MOL0     H22923  13.622   5.550   7.122  0.0085  1.5725  1.1824
  170MOL0     H22924  13.366   5.687   7.178  0.3911 -2.5857 -1.1567
  170MOL0     H22925  13.484   5.646   7.298  2.7971  0.0103  0.1371
  170MOL0     H22926  13.603   5.842   7.092  1.1569  3.2083  1.7110
  170MOL0     H22927  13.646   5.804   7.256  0.7249  3.0357 -0.6023
  170MOL0     H22928  13.384   5.937   7.180  0.4395  0.8073 -1.2124
  170MOL0     H22929  13.463   5.926   7.347  3.1677  2.3558  0.9223
  170MOL0     H22930  12.967   5.192   7.272  3.2039  0.6241  0.0345
  170MOL0     H22931  12.731   5.230   7.330  0.2687 -1.2460  0.3434
  170MOL0     H22932  12.452   5.337   7.678  1.3523 -2.6283 -2.8809
  170MOL0     H22933  12.217   5.342   7.752 -2.6041 -0.5422 -0.7881
  170MOL0     H22934  10.227   5.935   7.777 -0.5141 -3.2737  1.4520
  170MOL0     H22935   9.975   5.922   7.794 -3.1087  1.8152  0.8061
  170MOL0     H22936   9.603   6.349   7.899 -3.4060  0.7019 -1.7537
  170MOL0     H22937   9.373   6.387   7.972 -3.8658 -1.0133 -0.6887
  170MOL0     H22938   9.167   6.303   7.903 -1.0864  2.7062  0.4755
  170MOL0     H22939   9.146   6.401   8.039 -2.5931  0.6695 -1.4570
  170MOL0     H22940   8.954   6.237   8.121 -1.0764  0.3861 -0.1757
  170MOL0     H22941   8.988   6.149   7.966 -2.5244  0.0340 -1.8461
  170MOL0     H22942   8.945   6.330   7.830 -0.2396 -2.9306 -0.3538
  170MOL0     H22943   8.879   6.432   7.971 -0.2374 -0.0228  0.2657
  170MOL0     H22944   8.710   6.307   7.833  1.9731  0.9986  0.5173
  170MOL0     H22945   8.780   6.151   7.883 -0.4122  0.0718 -3.6632
  170MOL0     H22946   8.570   6.256   8.224  0.3260 -0.0980  0.3508
  170MOL0     H22947   9.337   6.003   8.121 -1.6015  0.7235 -1.2918
  170MOL0     H22948   9.703   5.929   8.168 -0.3811  1.1430  1.3595
  170MOL0     H22949   9.541   5.925   8.235 -2.6563  4.1279 -1.1522
  170MOL0     H22950   9.569   5.845   8.086  0.6375 -0.0992  0.7357
  171MOL0     O22951   0.739   2.965   0.214 -0.4266  0.3352  0.2412
  171MOL0     C22952   0.754   3.028   0.107  0.1819 -0.2534 -0.0315
  171MOL0     O22953   0.869   3.025   0.030  0.7400 -0.3891 -0.8090
  171MOL0     C22954   0.987   2.986   0.089  0.1738  0.1482 -0.3011
  171MOL0     C22955   1.022   3.007   0.228  0.0651  0.0770  0.4332
  171MOL0     C22956   1.145   2.963   0.284 -0.5236  0.2650  0.1040
  171MOL0     C22957   1.243   2.903   0.201 -0.5279  0.3231 -0.3036
  171MOL0     O22958   1.357   2.842   0.256  0.7737  0.3268 -0.2452
  171MOL0     C22959   1.461   2.811   0.168  0.3957  0.0164  0.4572
  171MOL0     C22960   1.591   2.793   0.257  0.1375 -0.4592  0.4451
  171MOL0     C22961   1.701   2.745   0.165 -0.4226 -0.3938  0.7247
  171MOL0     C22962   1.842   2.788   0.217  0.2040  0.4301 -0.1908
  171MOL0     C22963   1.882   2.728   0.354  0.6257 -0.4612  1.0684
  171MOL0     C22964   2.016   2.786   0.407 -1.5098  0.0200  0.6287
  171MOL0     C22965   2.042   2.779   0.557  0.7273  0.6226 -0.1578
  171MOL0     C22966   2.061   2.637   0.600 -0.2984  0.6374 -1.1802
  171MOL0     N22967   2.056   2.633   0.745  0.1781 -0.9804 -0.0165
  171MOL0     C22968   1.938   2.657   0.815  0.6890 -0.1812  0.4515
  171MOL0     C22969   1.978   2.643   0.942  0.7555  0.0654  1.0136
  171MOL0     C22970   1.880   2.671   1.049 -0.4478  0.4395 -0.1024
  171MOL0     C22971   1.881   2.592   1.175 -0.0895 -0.4625 -0.0351
  171MOL0     C22972   1.992   2.651   1.263 -0.6481 -0.5182 -0.6358
  171MOL0     C22973   2.017   2.549   1.374  0.3683 -1.1581  0.4244
  171MOL0     O22974   2.147   2.566   1.430  0.4195  0.1336  0.0543
  171MOL0     C22975   2.260   2.547   1.361  0.2984  0.3217  0.3805
  171MOL0     C22976   2.372   2.601   1.410 -0.1022 -0.6356  0.7403
  171MOL0     C22977   2.492   2.588   1.339  0.3793  0.4329  0.9459
  171MOL0     C22978   2.497   2.511   1.222  0.2111 -0.6929 -0.8271
  171MOL0     C22979   2.626   2.493   1.155 -0.7237 -0.7747 -0.8157
  171MOL0     O22980   2.719   2.584   1.193 -0.0006 -0.0167 -0.0487
  171MOL0     C22981   2.854   2.572   1.167  0.5159  0.1167 -0.0322
  171MOL0     C22982   2.938   2.617   1.275  1.1641  0.5208 -0.1314
  171MOL0     C22983   3.073   2.599   1.267 -0.1782  0.3550 -0.0818
  171MOL0     C22984   3.135   2.536   1.159  0.6916 -0.3243  0.6587
  171MOL0     O22985   3.269   2.519   1.173  0.3176  0.0027 -0.1217
  171MOL0     C22986   3.359   2.469   1.073 -0.2295 -0.2485  0.2413
  171MOL0     C22987   3.498   2.470   1.120 -0.0495  0.6327  0.4098
  171MOL0     C22988   3.572   2.351   1.073 -0.1090  0.5042  0.3174
  171MOL0     C22989   3.712   2.336   1.142  0.8933 -1.0091 -0.1161
  171MOL0     C22990   3.813   2.444   1.110  0.1841 -1.1120 -0.3879
  171MOL0     C22991   3.870   2.455   0.970  0.1693  0.1338  0.1712
  171MOL0     C22992   4.012   2.514   0.972 -0.4183  0.0598  0.0714
  171MOL0     C22993   4.120   2.413   0.975 -0.5049 -0.1311 -0.1815
  171MOL0    Cl22994   4.283   2.495   0.968  0.0048 -0.0659  0.0812
  171MOL0     C22995   3.062   2.483   1.049 -0.2932  0.2121 -0.3494
  171MOL0     C22996   2.923   2.511   1.054 -0.4291 -0.4510 -0.4280
  171MOL0     O22997   2.637   2.399   1.070 -0.2619 -0.9702  0.1644
  171MOL0     C22998   2.373   2.463   1.179 -0.2878  0.8406  0.6864
  171MOL0     C22999   2.256   2.475   1.244  0.4255  0.7009  0.6063
  171MOL0     N23000   2.112   2.615   0.948  0.2332 -0.0039 -0.4578
  171MOL0     N23001   2.156   2.600   0.828  0.1600  0.1801  0.3603
  171MOL0     C23002   1.214   2.895   0.064  0.0567 -0.7148 -1.0005
  171MOL0     C23003   1.090   2.926   0.008  0.4473  0.1463 -0.0981
  171MOL0     C23004   0.640   3.088   0.047 -0.2495 -0.0257  0.1797
  171MOL0     C23005   0.639   3.119  -0.084 -0.9327  0.1561 -0.7120
  171MOL0     C23006   0.522   3.174  -0.155  0.7166  0.3052 -0.0593
  171MOL0     C23007   0.417   3.212  -0.082  0.5855 -0.3731 -0.0373
  171MOL0     O23008   0.320   3.276  -0.153 -0.0009 -0.0086 -0.4956
  171MOL0     C23009   0.196   3.325  -0.089  0.7642 -0.1222  0.1412
  171MOL0     C23010   0.130   3.442  -0.165  0.3670 -0.1636  0.3995
  171MOL0     C23011   0.090   3.409  -0.311  0.1269 -0.2490 -0.6711
  171MOL0     C23012   0.217   3.431  -0.404 -0.3719 -0.4672  0.0623
  171MOL0     C23013   0.177   3.444  -0.547 -0.0283 -0.4250 -0.8367
  171MOL0     C23014   0.147   3.452  -0.661  0.1900  0.4162 -0.2695
  171MOL0     C23015   0.414   3.188   0.057  0.2239 -0.1185 -0.3694
  171MOL0     C23016   0.524   3.123   0.121 -0.0104  0.8016 -0.0822
  171MOL0     C23017   0.488   3.087   0.259 -0.4124 -0.3544  0.6544
  171MOL0     H23018   0.955   3.053   0.300  2.3127 -2.4272  4.5422
  171MOL0     H23019   1.172   2.964   0.389  0.3158  0.1534 -0.1021
  171MOL0     H23020   1.438   2.714   0.121 -0.9086 -0.3237  1.7200
  171MOL0     H23021   1.481   2.887   0.092 -1.2405 -1.3392 -1.4696
  171MOL0     H23022   1.580   2.717   0.335 -1.0420 -0.7980 -0.0279
  171MOL0     H23023   1.613   2.890   0.302  1.6987 -0.0975 -1.0062
  171MOL0     H23024   1.687   2.801   0.072 -0.4344  0.9631  1.5258
  171MOL0     H23025   1.701   2.636   0.152  0.2922 -0.3531  0.3215
  171MOL0     H23026   1.912   2.764   0.137 -1.2707 -0.8695 -1.1542
  171MOL0     H23027   1.841   2.897   0.234  2.6357  0.8418 -2.2044
  171MOL0     H23028   1.812   2.773   0.425  2.5065  2.6932  1.1513
  171MOL0     H23029   1.871   2.620   0.353  0.2515 -0.4345 -0.8747
  171MOL0     H23030   2.094   2.739   0.345 -1.5705  0.7078  0.0193
  171MOL0     H23031   2.029   2.890   0.375  2.5751  0.0257  1.7612
  171MOL0     H23032   1.964   2.828   0.616  1.5079  0.0691  1.3728
  171MOL0     H23033   2.133   2.835   0.579  0.3090  0.7067  1.4854
  171MOL0     H23034   1.986   2.570   0.558  2.5074 -2.3111 -1.8275
  171MOL0     H23035   2.157   2.602   0.562 -1.4862 -0.6871 -3.1284
  171MOL0     H23036   1.836   2.678   0.782  0.6767 -0.1844  0.4883
  171MOL0     H23037   1.899   2.776   1.073  2.4850 -0.2758  1.1901
  171MOL0     H23038   1.773   2.661   1.026 -0.1151 -0.9745 -1.1226
  171MOL0     H23039   1.780   2.607   1.215 -0.9900 -1.7773 -1.6760
  171MOL0     H23040   1.885   2.483   1.163 -0.1806 -0.5268  0.4961
  171MOL0     H23041   1.947   2.741   1.304 -0.6797 -1.0928  0.6519
  171MOL0     H23042   2.084   2.685   1.214 -1.4003  0.8634 -1.1165
  171MOL0     H23043   2.012   2.445   1.340 -1.1167 -0.9652 -0.0236
  171MOL0     H23044   1.947   2.558   1.457  0.5383  2.9107  0.2975
  171MOL0     H23045   2.382   2.657   1.503  1.3881 -2.4986  1.7653
  171MOL0     H23046   2.570   2.656   1.372  0.7476  2.9120 -4.0349
  171MOL0     H23047   2.883   2.676   1.347 -0.4905  2.4042 -2.7469
  171MOL0     H23048   3.130   2.637   1.351 -1.8776  0.0422  1.2830
  171MOL0     H23049   3.334   2.368   1.039 -1.7376  0.3501 -0.4720
  171MOL0     H23050   3.348   2.535   0.987  0.6812 -2.1336 -1.4080
  171MOL0     H23051   3.544   2.554   1.067 -1.8917  0.3595 -1.7796
  171MOL0     H23052   3.499   2.477   1.229  0.2697 -0.6968  0.5155
  171MOL0     H23053   3.512   2.262   1.092  0.5974  0.1391  0.9132
  171MOL0     H23054   3.574   2.348   0.964 -2.4538 -0.1419  0.2375
  171MOL0     H23055   3.755   2.239   1.117  1.9923 -1.1596  2.1105
  171MOL0     H23056   3.702   2.337   1.251  0.9882  0.1625 -0.1056
  171MOL0     H23057   3.907   2.423   1.161  1.5421 -1.8983 -3.0070
  171MOL0     H23058   3.775   2.543   1.135 -1.2124 -1.1143 -2.2466
  171MOL0     H23059   3.869   2.354   0.929 -0.9580  0.3640 -0.4063
  171MOL0     H23060   3.808   2.521   0.909 -0.3894  0.7538  1.3721
  171MOL0     H23061   4.019   2.585   1.055  2.0534 -1.8136  1.5933
  171MOL0     H23062   4.023   2.578   0.883 -2.8883 -0.0977 -0.4319
  171MOL0     H23063   4.123   2.351   1.065  1.2699 -2.1289 -1.5122
  171MOL0     H23064   4.114   2.352   0.885  3.7558  0.2065 -0.9092
  171MOL0     H23065   3.114   2.430   0.970 -2.4393  1.1457 -2.5459
  171MOL0     H23066   2.856   2.489   0.972  0.9450 -0.1908 -1.6565
  171MOL0     H23067   2.382   2.407   1.086  3.4533  1.1902  0.6628
  171MOL0     H23068   2.168   2.426   1.204  0.6642 -0.5000  1.4915
  171MOL0     H23069   1.279   2.856  -0.013  1.2008  1.1885 -1.0546
  171MOL0     H23070   1.078   2.912  -0.099  0.3340 -1.8310  0.1374
  171MOL0     H23071   0.730   3.108  -0.142 -0.1214 -0.7757  0.6768
  171MOL0     H23072   0.524   3.211  -0.257 -0.7022 -0.3318 -0.3432
  171MOL0     H23073   0.217   3.351   0.016 -0.1402 -1.8663  0.8038
  171MOL0     H23074   0.121   3.245  -0.085 -1.8847  2.0059 -2.6479
  171MOL0     H23075   0.190   3.534  -0.164 -0.6323  0.5848 -2.2032
  171MOL0     H23076   0.042   3.483  -0.114  0.8992  0.4617  0.8293
  171MOL0     H23077   0.002   3.467  -0.339 -0.8875 -0.6441  1.4927
  171MOL0     H23078   0.062   3.303  -0.313  1.4441 -0.6586  0.5558
  171MOL0     H23079   0.278   3.515  -0.370 -2.8973  1.1223  0.9236
  171MOL0     H23080   0.292   3.352  -0.396  1.6677  1.4119  0.5766
  171MOL0     H23081   0.108   3.444  -0.761 -2.6838 -0.5029  0.8155
  171MOL0     H23082   0.332   3.222   0.120 -1.3800 -0.1379 -2.3377
  171MOL0     H23083   0.485   2.978   0.259 -0.0264 -0.6341 -4.6806
  171MOL0     H23084   0.566   3.129   0.323 -0.9475  1.1155  0.3836
  171MOL0     H23085   0.397   3.136   0.294  0.0561 -0.1463  1.6145
  172MOL0     O23086   3.812   0.175   8.376  0.4338  0.0833  0.4690
  172MOL0     C23087   3.790   0.074   8.309 -0.2931 -0.0948 -0.2270
  172MOL0     O23088   3.880   0.023   8.217  0.7372  0.1827  0.2407
  172MOL0     C23089   4.000   0.082   8.212  0.2415  0.6596 -0.3570
  172MOL0     C23090   4.106   0.009   8.264 -0.7093  1.0081 -0.0797
  172MOL0     C23091   4.239   0.059   8.243 -0.0466 -0.3175 -0.9004
  172MOL0     C23092   4.262   0.181   8.181 -0.4224  0.5648 -0.5500
  172MOL0     O23093   4.382   0.239   8.146  0.2087  0.2394  0.3637
  172MOL0     C23094   4.487   0.151   8.112  0.7526  0.6281 -0.2667
  172MOL0     C23095   4.612   0.216   8.074 -0.5555  0.1841  0.8258
  172MOL0     C23096   4.721   0.096   8.044  0.6631 -0.7256 -0.2819
  172MOL0     C23097   4.847   0.170   8.017  0.2648  0.4819 -0.1940
  172MOL0     C23098   4.936   0.093   7.917 -0.0758  0.2785  0.0045
  172MOL0     C23099   5.074   0.170   7.921  0.0728  0.4811 -0.8158
  172MOL0     C23100   5.166   0.089   7.822 -0.8256  0.7520  0.2634
  172MOL0     C23101   5.312   0.109   7.841 -0.5833  0.1902 -0.3289
  172MOL0     N23102   5.363   0.244   7.829  0.3088 -1.3090 -0.2391
  172MOL0     C23103   5.369   0.303   7.707  0.0542  0.0042  0.7258
  172MOL0     C23104   5.401   0.432   7.725  0.0521  0.1522 -0.2429
  172MOL0     C23105   5.413   0.537   7.615 -0.6864 -0.1203 -0.4620
  172MOL0     C23106   5.551   0.604   7.606 -0.0995  0.7712 -0.5678
  172MOL0     C23107   5.670   0.505   7.577 -0.1299  1.2382 -0.1878
  172MOL0     C23108   5.807   0.557   7.605 -0.2167  0.0612 -0.5938
  172MOL0     O23109   5.835   0.675   7.526 -0.2888  0.1051  0.7576
  172MOL0     C23110   5.960   0.727   7.546  0.2078  0.5047  0.3788
  172MOL0     C23111   5.979   0.833   7.633 -0.3306 -0.3541  0.2242
  172MOL0     C23112   6.098   0.895   7.645 -0.3044 -0.2409 -0.0080
  172MOL0     C23113   6.208   0.847   7.572  0.7006  0.1366  0.0885
  172MOL0     C23114   6.335   0.919   7.588 -0.0222  0.8547  0.4751
  172MOL0     O23115   6.428   0.905   7.481  0.8546 -0.0193 -0.1434
  172MOL0     C23116   6.562   0.939   7.512  0.1565  0.3207 -0.2623
  172MOL0     C23117   6.617   1.064   7.480  0.1104  0.5898  0.1243
  172MOL0     C23118   6.761   1.080   7.480  0.1029  0.1689  0.2207
  172MOL0     C23119   6.841   0.973   7.500 -0.2975 -0.3642  0.3991
  172MOL0     O23120   6.982   0.972   7.480  0.0631 -0.7756  0.3925
  172MOL0     C23121   7.058   1.090   7.497 -0.6258  0.3630  0.5325
  172MOL0     C23122   7.211   1.068   7.496  0.5312 -0.0963  1.0373
  172MOL0     C23123   7.262   1.023   7.624  0.2868 -0.4300  0.1512
  172MOL0     C23124   7.413   1.016   7.627  0.5649 -0.5354 -1.1008
  172MOL0     C23125   7.453   0.995   7.774 -0.3750 -0.2615 -0.0849
  172MOL0     C23126   7.605   1.028   7.804  0.3016 -0.2750 -0.0120
  172MOL0     C23127   7.657   0.958   7.943  0.0308 -0.1129  0.0861
  172MOL0     C23128   7.803   0.984   7.955 -0.2630  0.3096 -0.4012
  172MOL0    Cl23129   7.856   1.149   7.942  0.1452  0.1687  0.3510
  172MOL0     C23130   6.788   0.849   7.545  0.5370  0.4208  0.6095
  172MOL0     C23131   6.645   0.833   7.555 -0.2369  0.4559 -0.2299
  172MOL0     O23132   6.354   0.982   7.688  0.0930 -0.0035  0.1603
  172MOL0     C23133   6.190   0.741   7.476 -0.1377 -0.1460  0.2081
  172MOL0     C23134   6.063   0.682   7.469  0.2092 -0.2041 -0.7542
  172MOL0     N23135   5.401   0.463   7.859 -0.4508  0.4788  0.9137
  172MOL0     N23136   5.393   0.342   7.920 -0.3953 -0.3721  0.0629
  172MOL0     C23137   4.152   0.253   8.128  0.1545  0.5159 -0.3360
  172MOL0     C23138   4.024   0.201   8.145  1.4155 -0.8504  0.1680
  172MOL0     C23139   3.673  -0.006   8.334 -0.1149 -0.1027  0.6934
  172MOL0     C23140   3.666  -0.132   8.270 -0.0674  0.2040 -1.0647
  172MOL0     C23141   3.552  -0.209   8.280 -0.1304  1.4790  0.3547
  172MOL0     C23142   3.439  -0.181   8.350  0.4380 -0.0620 -0.0735
  172MOL0     O23143   3.327  -0.264   8.348  0.5423  0.1442  0.0846
  172MOL0     C23144   3.197  -0.201   8.341 -0.7133  0.0427 -0.6448
  172MOL0     C23145   3.100  -0.306   8.281  0.3793 -0.8618  0.1681
  172MOL0     C23146   3.158  -0.378   8.155 -0.0952  0.8615 -0.7716
  172MOL0     C23147   3.245  -0.293   8.062  0.7124 -0.8657  0.4669
  172MOL0     C23148   3.171  -0.178   8.007  0.7273 -0.3615 -1.4643
  172MOL0     C23149   3.092  -0.087   7.967 -0.5397 -0.9287  0.5152
  172MOL0     C23150   3.435  -0.050   8.407 -0.7961 -0.1273  0.6909
  172MOL0     C23151   3.555   0.033   8.406  0.3958 -0.5230  0.2811
  172MOL0     C23152   3.542   0.151   8.498 -0.5783 -0.9128 -0.1577
  172MOL0     H23153   4.106  -0.090   8.308 -1.3835  1.1440  0.2457
  172MOL0     H23154   4.324  -0.002   8.270 -1.9443 -2.1978  1.2761
  172MOL0     H23155   4.505   0.082   8.195  0.0887  2.1490  1.1901
  172MOL0     H23156   4.452   0.097   8.024  0.4791  0.8233 -0.2775
  172MOL0     H23157   4.663   0.275   8.151  0.3246 -0.8904  1.0992
  172MOL0     H23158   4.595   0.279   7.987  3.3533  0.9258  0.4056
  172MOL0     H23159   4.681   0.037   7.961 -0.7716 -0.0487 -0.1025
  172MOL0     H23160   4.731   0.036   8.135  1.7193 -3.8906 -2.3033
  172MOL0     H23161   4.845   0.271   7.975  0.1838  0.7175  0.3809
  172MOL0     H23162   4.898   0.172   8.113  0.7054  1.8779 -0.4356
  172MOL0     H23163   4.954  -0.011   7.947  1.3810  0.9047  1.4981
  172MOL0     H23164   4.896   0.109   7.817 -0.7936  1.0092  0.3968
  172MOL0     H23165   5.061   0.277   7.898  0.3218  0.8513  0.6444
  172MOL0     H23166   5.121   0.173   8.021 -0.4461  3.4190 -0.5551
  172MOL0     H23167   5.147   0.109   7.716  2.2996  1.9850 -0.1882
  172MOL0     H23168   5.148  -0.018   7.831  1.0467  0.3662 -0.1350
  172MOL0     H23169   5.339   0.064   7.937  2.0249  0.0218 -1.0467
  172MOL0     H23170   5.375   0.060   7.766 -2.4123  0.8223 -2.3641
  172MOL0     H23171   5.354   0.259   7.609  1.7496  1.0559 -0.0540
  172MOL0     H23172   5.391   0.493   7.517  0.4166 -0.9330 -0.3660
  172MOL0     H23173   5.342   0.617   7.634  0.4639  0.3643  2.2966
  172MOL0     H23174   5.560   0.677   7.525  1.6090  0.3117 -0.8474
  172MOL0     H23175   5.581   0.656   7.697  2.5954  1.4401 -1.7423
  172MOL0     H23176   5.671   0.466   7.475  0.7232 -0.2159  0.3504
  172MOL0     H23177   5.663   0.421   7.647  0.0903  2.7859  1.8076
  172MOL0     H23178   5.878   0.474   7.593  0.4830  0.2043  1.9300
  172MOL0     H23179   5.817   0.587   7.710 -0.8254 -2.4034  0.2508
  172MOL0     H23180   5.889   0.863   7.686 -1.3935 -0.6880 -1.3245
  172MOL0     H23181   6.107   0.980   7.712  0.5498  0.7449 -1.3276
  172MOL0     H23182   6.550   1.137   7.436  2.4694  2.2119 -0.9622
  172MOL0     H23183   6.799   1.176   7.445 -1.2901  0.3667 -0.8325
  172MOL0     H23184   7.039   1.156   7.411  2.7023  0.3873 -0.3130
  172MOL0     H23185   7.021   1.145   7.584  0.9555  0.3693  1.2366
  172MOL0     H23186   7.232   0.993   7.419 -3.3620 -2.3313  1.8435
  172MOL0     H23187   7.265   1.161   7.477  0.9898 -0.0125  2.6221
  172MOL0     H23188   7.229   1.079   7.712 -0.1109  1.2094 -0.9988
  172MOL0     H23189   7.208   0.929   7.630 -2.3064  0.9703  0.0094
  172MOL0     H23190   7.452   1.116   7.603 -1.0041  0.4970  0.4624
  172MOL0     H23191   7.451   0.941   7.558 -0.7314 -1.7265 -0.5625
  172MOL0     H23192   7.426   0.893   7.804 -0.2142 -0.7447 -1.5192
  172MOL0     H23193   7.393   1.054   7.844  1.5112  1.3739  0.2513
  172MOL0     H23194   7.666   1.009   7.715  2.1327 -1.5720  1.4473
  172MOL0     H23195   7.607   1.136   7.816 -1.1143 -0.4068  2.0790
  172MOL0     H23196   7.631   0.852   7.948  2.4718 -1.0477 -3.2076
  172MOL0     H23197   7.603   1.012   8.021 -1.9411 -1.5002 -0.2597
  172MOL0     H23198   7.830   0.943   8.053 -0.6904 -1.4875 -0.9887
  172MOL0     H23199   7.857   0.920   7.885  2.4036 -2.6306  3.8376
  172MOL0     H23200   6.856   0.769   7.575 -0.2495  0.6256  3.2231
  172MOL0     H23201   6.608   0.738   7.591  2.9254 -0.5571  0.6814
  172MOL0     H23202   6.270   0.688   7.425 -0.6386 -2.4322  1.6827
  172MOL0     H23203   6.044   0.610   7.390 -0.3104 -1.2914  0.3293
  172MOL0     H23204   4.167   0.346   8.074  1.1100  1.4796  1.4767
  172MOL0     H23205   3.936   0.248   8.104  1.0834 -2.0271 -0.5204
  172MOL0     H23206   3.752  -0.176   8.221  1.6991  2.9612 -0.6014
  172MOL0     H23207   3.553  -0.310   8.241 -1.5321  1.0418  1.3753
  172MOL0     H23208   3.194  -0.119   8.269 -3.1883  0.1689 -0.4932
  172MOL0     H23209   3.166  -0.169   8.440  1.8889  2.0766 -0.3888
  172MOL0     H23210   3.001  -0.263   8.263 -0.7794 -2.6369  1.8513
  172MOL0     H23211   3.082  -0.378   8.361 -1.2206  1.3334  1.9252
  172MOL0     H23212   3.082  -0.425   8.092  0.1955  1.9189 -1.9520
  172MOL0     H23213   3.217  -0.462   8.193 -2.7740 -0.9557 -0.3495
  172MOL0     H23214   3.340  -0.257   8.103  0.3016 -1.4612  2.0306
  172MOL0     H23215   3.267  -0.354   7.974 -2.2168 -0.2998 -0.7652
  172MOL0     H23216   3.028  -0.004   7.949 -1.2686 -1.1821  1.7970
  172MOL0     H23217   3.345  -0.013   8.457 -1.9314 -0.6444 -0.8730
  172MOL0     H23218   3.492   0.232   8.444  0.2287  1.3851  2.3597
  172MOL0     H23219   3.471   0.124   8.577 -1.3380  1.3445  0.0088
  172MOL0     H23220   3.627   0.183   8.559 -2.2730  0.6962  1.4980
  173MOL0     O23221   6.162   7.094   8.728  0.5715 -0.9164  0.1956
  173MOL0     C23222   6.069   7.055   8.659 -0.0044  0.5960  0.1750
  173MOL0     O23223   6.006   6.940   8.673 -0.1702  0.7113  0.4686
  173MOL0     C23224   6.052   6.848   8.763 -0.4483 -1.1913 -0.4816
  173MOL0     C23225   6.143   6.754   8.726  0.7760  0.2073  0.0256
  173MOL0     C23226   6.190   6.676   8.828  0.1682 -0.1159 -0.0690
  173MOL0     C23227   6.126   6.663   8.955  0.0924  0.8028  0.2424
  173MOL0     O23228   6.174   6.572   9.048  0.0253 -0.1127  0.5339
  173MOL0     C23229   6.118   6.559   9.180  0.1655 -0.0723  0.0268
  173MOL0     C23230   6.180   6.450   9.257 -0.7477  0.0238 -0.6819
  173MOL0     C23231   6.295   6.501   9.346 -0.3307  0.0388  0.0441
  173MOL0     C23232   6.389   6.397   9.392  0.1407  0.4840  0.5252
  173MOL0     C23233   6.495   6.454   9.486 -0.4192  0.0263 -0.1920
  173MOL0     C23234   6.587   6.338   9.520  0.0873 -0.3885  0.0507
  173MOL0     C23235   6.708   6.395   9.598  0.3771  0.6921 -0.5433
  173MOL0     C23236   6.826   6.295   9.601  0.8703 -0.4338 -0.2866
  173MOL0     N23237   6.942   6.328   9.686 -0.3669  0.5951  0.2810
  173MOL0     C23238   7.036   6.433   9.665  0.5427  0.0304 -1.0794
  173MOL0     C23239   7.126   6.409   9.767 -0.3256 -0.4057  0.1114
  173MOL0     C23240   7.234   6.505   9.807  0.0446 -0.6437  0.0025
  173MOL0     C23241   7.372   6.442   9.782  1.6938 -0.4306  0.4342
  173MOL0     C23242   7.485   6.535   9.829  0.2333  0.2966  0.3331
  173MOL0     C23243   7.622   6.461   9.830  0.6044  0.1967 -0.4391
  173MOL0     O23244   7.732   6.557   9.819 -0.3368 -0.1565 -0.2122
  173MOL0     C23245   7.858   6.518   9.830 -0.6266 -0.1165 -0.4907
  173MOL0     C23246   7.958   6.619   9.822 -0.6189  0.5062 -0.2138
  173MOL0     C23247   8.096   6.585   9.827 -0.6219  0.1342  0.0918
  173MOL0     C23248   8.134   6.454   9.861 -0.6285 -0.2211  0.5831
  173MOL0     C23249   8.279   6.421   9.879  0.5298  0.8847  0.5190
  173MOL0     O23250   8.358   6.525   9.905  0.8829 -0.1997  0.1705
  173MOL0     C23251   8.490   6.515   9.942 -0.5076 -0.0351 -0.9348
  173MOL0     C23252   8.533   6.405  10.023 -0.3033 -0.1049 -0.1948
  173MOL0     C23253   8.664   6.392  10.054 -0.5287  0.1488  0.0828
  173MOL0     C23254   8.755   6.496  10.037  1.0519  0.8385  0.5082
  173MOL0     O23255   8.889   6.512  10.079 -0.0400 -0.4055  0.1034
  173MOL0     C23256   8.956   6.400  10.153  0.7149  0.2610  0.1639
  173MOL0     C23257   9.106   6.412  10.136 -0.1697 -0.3451  0.3462
  173MOL0     C23258   9.170   6.548  10.179  0.5790 -0.3271  1.3673
  173MOL0     C23259   9.320   6.540  10.172  0.0614 -0.3467  0.1752
  173MOL0     C23260   9.370   6.683  10.192 -0.5211 -0.3232 -0.8631
  173MOL0     C23261   9.529   6.678  10.178 -0.1554 -0.2134 -0.0040
  173MOL0     C23262   9.575   6.822  10.190 -0.2514  0.1606 -0.4884
  173MOL0     C23263   9.732   6.819  10.169 -0.1058 -0.1838  0.1485
  173MOL0    Cl23264   9.810   6.981  10.167 -0.0434 -0.0599 -0.4871
  173MOL0     C23265   8.715   6.605   9.963 -0.8987  0.1133 -0.0515
  173MOL0     C23266   8.588   6.612   9.910  0.2109 -0.2438  0.5813
  173MOL0     O23267   8.318   6.304   9.862 -0.2916 -0.2751  0.0152
  173MOL0     C23268   8.036   6.359   9.871 -0.7079  0.1759  0.0975
  173MOL0     C23269   7.901   6.391   9.858 -0.0124  0.2360 -0.3633
  173MOL0     N23270   7.086   6.302   9.844  0.4826  0.5513 -0.4320
  173MOL0     N23271   6.983   6.250   9.791  1.1437 -0.3138 -0.6288
  173MOL0     C23272   6.011   6.729   8.975  0.1060 -0.7293  0.0490
  173MOL0     C23273   5.976   6.838   8.887 -0.3405  0.0533  0.2775
  173MOL0     C23274   6.028   7.139   8.542  0.4521  0.2000 -0.9600
  173MOL0     C23275   5.927   7.092   8.461 -0.1124  0.1469  0.5132
  173MOL0     C23276   5.870   7.155   8.351 -0.1451 -0.4727  0.6929
  173MOL0     C23277   5.919   7.283   8.316  0.1273 -0.0911 -0.4893
  173MOL0     O23278   5.867   7.351   8.204 -0.2300 -0.0793 -0.8678
  173MOL0     C23279   5.747   7.430   8.235 -0.4862  0.3304 -0.0307
  173MOL0     C23280   5.615   7.358   8.262  0.5623  1.2383  0.2732
  173MOL0     C23281   5.566   7.264   8.151 -0.3981 -0.4856  0.1971
  173MOL0     C23282   5.427   7.202   8.174  0.3399 -0.0244  0.2807
  173MOL0     C23283   5.371   7.140   8.048 -0.6967 -0.7991  0.0729
  173MOL0     C23284   5.346   7.090   7.941  0.1114  0.5139 -0.9627
  173MOL0     C23285   6.019   7.336   8.402  0.3921 -0.5701  0.5030
  173MOL0     C23286   6.085   7.267   8.506  0.5382  0.3934 -0.8730
  173MOL0     C23287   6.206   7.335   8.564 -0.3690  0.9270 -0.3678
  173MOL0     H23288   6.171   6.741   8.622 -1.1440  1.1882 -0.6716
  173MOL0     H23289   6.269   6.609   8.796  0.6250  0.9043 -1.1596
  173MOL0     H23290   6.120   6.658   9.225  0.7419 -0.4310  0.8196
  173MOL0     H23291   6.015   6.525   9.170  0.1605  0.0256 -0.2653
  173MOL0     H23292   6.207   6.369   9.188  0.3758  0.0491 -0.2851
  173MOL0     H23293   6.112   6.403   9.329  1.7635 -3.8061 -0.5355
  173MOL0     H23294   6.261   6.560   9.431  2.3998  0.2476  1.0891
  173MOL0     H23295   6.356   6.570   9.288  2.1456  1.3565  3.8590
  173MOL0     H23296   6.333   6.316   9.439  2.1908 -1.6596 -0.5117
  173MOL0     H23297   6.438   6.358   9.303 -1.2534 -0.9396  0.3436
  173MOL0     H23298   6.542   6.540   9.437  0.1274  0.3440  0.8699
  173MOL0     H23299   6.434   6.483   9.572  0.3202  2.8469 -0.5097
  173MOL0     H23300   6.525   6.264   9.572 -0.8767  0.0357 -0.4800
  173MOL0     H23301   6.628   6.284   9.434  3.5545  3.3840 -0.9940
  173MOL0     H23302   6.672   6.401   9.701 -1.8623 -1.5296 -1.1205
  173MOL0     H23303   6.737   6.498   9.572 -1.3436  1.1162 -0.8980
  173MOL0     H23304   6.795   6.196   9.637 -1.2234  1.1030  2.5855
  173MOL0     H23305   6.859   6.268   9.500 -0.2290  0.6580 -0.9822
  173MOL0     H23306   7.025   6.517   9.597  0.8481 -0.2639 -1.4946
  173MOL0     H23307   7.227   6.601   9.754 -1.8682 -0.8503 -0.1981
  173MOL0     H23308   7.225   6.517   9.915 -0.6122 -1.0211 -0.0054
  173MOL0     H23309   7.380   6.352   9.843  2.3219  0.2704  1.4122
  173MOL0     H23310   7.378   6.420   9.675 -0.5396  1.1588 -0.1016
  173MOL0     H23311   7.452   6.581   9.923 -0.8574 -2.2507  1.2808
  173MOL0     H23312   7.483   6.615   9.755  0.2085 -0.1373 -0.1379
  173MOL0     H23313   7.623   6.399   9.740  1.0188  2.9171 -2.4242
  173MOL0     H23314   7.633   6.399   9.920 -1.0368  0.3101 -0.1348
  173MOL0     H23315   7.914   6.717   9.807 -0.9540  0.3802 -0.0717
  173MOL0     H23316   8.172   6.661   9.815  0.9262 -1.4555 -0.7361
  173MOL0     H23317   8.464   6.332  10.064  1.7139 -0.9079  1.9641
  173MOL0     H23318   8.683   6.309  10.120 -2.9881  0.6369  1.5467
  173MOL0     H23319   8.928   6.395  10.259  1.2963  1.2501  0.3708
  173MOL0     H23320   8.928   6.305  10.105  1.5423  2.4091 -5.3927
  173MOL0     H23321   9.156   6.333  10.193  1.1120 -0.2150 -0.5517
  173MOL0     H23322   9.136   6.390  10.034 -1.1626  0.6865 -0.1964
  173MOL0     H23323   9.136   6.634  10.120  1.3292  2.0911  4.2371
  173MOL0     H23324   9.145   6.590  10.277 -1.3876  4.4624 -0.8511
  173MOL0     H23325   9.360   6.515  10.073  0.8847  1.6353 -0.0451
  173MOL0     H23326   9.372   6.482  10.247  0.3273 -0.7623 -0.3224
  173MOL0     H23327   9.343   6.722  10.291 -0.1627  2.3444 -1.7177
  173MOL0     H23328   9.333   6.741  10.106 -1.3498 -1.6812 -1.4591
  173MOL0     H23329   9.574   6.623  10.262  0.5452  1.2405  0.6100
  173MOL0     H23330   9.557   6.642  10.079 -0.5215 -0.2341 -0.1044
  173MOL0     H23331   9.544   6.862  10.287 -1.9443  0.7800 -1.2472
  173MOL0     H23332   9.525   6.891  10.121 -1.5529 -0.7712 -0.4977
  173MOL0     H23333   9.793   6.760  10.238 -0.9373 -0.2229  0.8852
  173MOL0     H23334   9.746   6.781  10.067  0.6664  2.2957 -0.7345
  173MOL0     H23335   8.784   6.684   9.935 -1.8044  0.9469  0.0293
  173MOL0     H23336   8.559   6.690   9.840 -0.6000 -1.7729 -0.8342
  173MOL0     H23337   8.075   6.258   9.879 -0.1801  0.4302  0.8386
  173MOL0     H23338   7.834   6.306   9.862 -1.3177  1.2824  0.9747
  173MOL0     H23339   5.958   6.709   9.067 -0.8080  0.1554 -0.2624
  173MOL0     H23340   5.891   6.903   8.906  0.1583  1.5176 -2.0497
  173MOL0     H23341   5.893   6.992   8.484 -0.5024  0.3044  0.6407
  173MOL0     H23342   5.809   7.098   8.283  1.6325 -0.9915 -0.5447
  173MOL0     H23343   5.720   7.495   8.150 -1.1054 -1.7705 -1.5310
  173MOL0     H23344   5.767   7.480   8.330  1.9162 -1.4545  0.4656
  173MOL0     H23345   5.537   7.431   8.285 -1.3189  0.2619 -2.5374
  173MOL0     H23346   5.625   7.293   8.350 -2.6716  2.0920  1.3916
  173MOL0     H23347   5.638   7.183   8.137  0.0337  0.0470 -0.6742
  173MOL0     H23348   5.554   7.319   8.057 -2.2500  1.5148  1.4983
  173MOL0     H23349   5.444   7.128   8.252 -1.3359 -2.5934 -1.6064
  173MOL0     H23350   5.358   7.283   8.201  1.0694  0.0664  1.9604
  173MOL0     H23351   5.320   7.039   7.850 -1.9246 -1.7261  0.7346
  173MOL0     H23352   6.053   7.438   8.387  1.7912 -0.8566  1.5045
  173MOL0     H23353   6.260   7.397   8.492 -0.5076  1.2310 -0.2136
  173MOL0     H23354   6.186   7.389   8.657  0.6923 -1.5244  1.3863
  173MOL0     H23355   6.277   7.258   8.596 -0.7100  1.2731  1.2962
  174MOL0     O23356   3.131   8.617   8.474  0.4881 -0.6444 -0.6884
  174MOL0     C23357   3.114   8.634   8.355  0.6610 -0.3336  0.1583
  174MOL0     O23358   3.214   8.658   8.258 -0.1576  0.7086  0.0041
  174MOL0     C23359   3.336   8.694   8.299 -0.2786 -0.4408  0.5516
  174MOL0     C23360   3.437   8.600   8.320  0.4898 -0.5032 -1.0204
  174MOL0     C23361   3.562   8.640   8.365  0.0095 -0.7106 -0.7324
  174MOL0     C23362   3.592   8.775   8.384 -0.1672  1.2288 -1.0707
  174MOL0     O23363   3.716   8.820   8.406  0.1384  0.0769 -0.0742
  174MOL0     C23364   3.842   8.743   8.390  0.6840 -0.0954  0.1101
  174MOL0     C23365   3.965   8.830   8.430  0.3064 -0.2096 -0.6579
  174MOL0     C23366   4.087   8.751   8.464 -1.1635 -0.2412 -0.7113
  174MOL0     C23367   4.164   8.723   8.329 -1.1522 -0.2817 -0.9289
  174MOL0     C23368   4.308   8.697   8.355 -1.1258 -0.5360 -0.0859
  174MOL0     C23369   4.376   8.829   8.385  0.1446 -0.1560  0.3234
  174MOL0     C23370   4.490   8.809   8.489 -0.4906 -0.5188 -1.3462
  174MOL0     C23371   4.588   8.929   8.499 -0.1078  0.1337 -1.1730
  174MOL0     N23372   4.678   8.924   8.608  0.2709 -0.0228  0.3139
  174MOL0     C23373   4.638   8.936   8.742 -0.9868  0.0742  0.3966
  174MOL0     C23374   4.764   8.945   8.801  0.0771  0.0580 -0.0133
  174MOL0     C23375   4.793   8.956   8.948  0.3580  0.4645 -0.0270
  174MOL0     C23376   4.912   9.051   8.965 -0.0965  0.0223 -0.2534
  174MOL0     C23377   4.931   9.081   9.117  0.7410  0.7199  0.5610
  174MOL0     C23378   5.030   9.194   9.136 -0.3571 -0.2202 -0.1293
  174MOL0     O23379   5.165   9.147   9.112 -0.4383 -0.3744 -0.9125
  174MOL0     C23380   5.262   9.245   9.121  0.0063 -0.7309 -0.3470
  174MOL0     C23381   5.236   9.379   9.135 -0.6596 -0.2354 -0.3727
  174MOL0     C23382   5.339   9.477   9.140 -0.3571 -0.8503  0.3421
  174MOL0     C23383   5.476   9.430   9.123  0.0273  0.6331 -0.4356
  174MOL0     C23384   5.596   9.515   9.108  0.7725 -0.5408  0.9745
  174MOL0     O23385   5.704   9.466   9.044 -0.6114  0.1535 -0.6795
  174MOL0     C23386   5.816   9.537   9.035 -0.1361  0.0479  0.4880
  174MOL0     C23387   5.871   9.600   9.148  0.2185 -1.2167  0.2543
  174MOL0     C23388   6.000   9.653   9.136 -0.0032 -0.5702  1.0142
  174MOL0     C23389   6.073   9.649   9.022 -0.4511 -0.3368  0.7422
  174MOL0     O23390   6.200   9.701   9.007 -0.1702  0.4918  0.3155
  174MOL0     C23391   6.310   9.626   9.060 -0.1733 -0.6711  0.0668
  174MOL0     C23392   6.430   9.716   9.069 -0.3277 -0.5398 -0.3099
  174MOL0     C23393   6.409   9.830   9.169 -0.0813  0.1935  0.6077
  174MOL0     C23394   6.524   9.928   9.176  0.6044 -0.2455  0.8042
  174MOL0     C23395   6.500  10.035   9.284  0.4211  0.2332  0.1796
  174MOL0     C23396   6.633  10.118   9.307  0.2379  0.3564  0.1652
  174MOL0     C23397   6.624  10.211   9.429  0.4185  0.1053  0.3233
  174MOL0     C23398   6.763  10.238   9.490  0.7861  0.3955 -0.0354
  174MOL0    Cl23399   6.738  10.336   9.633 -0.4496  0.0030 -0.3546
  174MOL0     C23400   6.024   9.584   8.914  0.7692  0.1419 -0.1877
  174MOL0     C23401   5.899   9.527   8.920 -0.1284  0.9141  0.2720
  174MOL0     O23402   5.579   9.634   9.141  0.6289 -1.0474 -0.3225
  174MOL0     C23403   5.500   9.287   9.110 -0.1602  0.2051  0.2807
  174MOL0     C23404   5.388   9.207   9.100  0.0194  0.3874  0.1113
  174MOL0     N23405   4.864   8.923   8.701  0.2850 -0.9435  0.1765
  174MOL0     N23406   4.808   8.905   8.590  0.0410 -0.6284  0.4922
  174MOL0     C23407   3.491   8.869   8.375  0.8871  0.0418  0.2022
  174MOL0     C23408   3.369   8.827   8.327 -0.0553 -0.5523 -0.0526
  174MOL0     C23409   2.982   8.652   8.299  0.4798 -0.2054  0.1097
  174MOL0     C23410   2.890   8.727   8.376 -0.1468 -0.0797  0.5254
  174MOL0     C23411   2.759   8.749   8.330  0.3072  0.5377  0.7599
  174MOL0     C23412   2.707   8.688   8.220 -0.1527 -0.3896 -0.1080
  174MOL0     O23413   2.566   8.713   8.203  0.1155 -0.2759 -0.4035
  174MOL0     C23414   2.512   8.686   8.079  0.3245  0.0354  0.5821
  174MOL0     C23415   2.360   8.683   8.087 -0.0636  0.8695  0.3180
  174MOL0     C23416   2.305   8.553   8.154  0.1721  0.3078 -0.1301
  174MOL0     C23417   2.148   8.571   8.153  0.5518  0.5988  0.0927
  174MOL0     C23418   2.085   8.459   8.232 -0.2079  0.4191  0.3834
  174MOL0     C23419   2.031   8.369   8.293 -0.6140  0.1962  0.1094
  174MOL0     C23420   2.795   8.604   8.147 -0.5880  0.3847 -0.0076
  174MOL0     C23421   2.935   8.598   8.182  1.4358 -0.7883 -0.4622
  174MOL0     C23422   3.023   8.510   8.105  0.6622  0.4702 -0.5428
  174MOL0     H23423   3.426   8.498   8.283 -0.5484 -0.5554 -0.6128
  174MOL0     H23424   3.630   8.556   8.381 -3.0112 -2.7969  2.6920
  174MOL0     H23425   3.843   8.656   8.457  0.5587  0.2282  0.5362
  174MOL0     H23426   3.842   8.709   8.286 -2.6729  0.3766 -0.1236
  174MOL0     H23427   3.937   8.884   8.521 -0.5972  0.6215 -1.4116
  174MOL0     H23428   3.981   8.912   8.360  1.3011  0.4079  0.2722
  174MOL0     H23429   4.062   8.666   8.528 -2.7309  2.5976  2.8075
  174MOL0     H23430   4.157   8.804   8.529 -0.7539 -0.2121 -1.1683
  174MOL0     H23431   4.123   8.635   8.279 -0.0957 -0.0648 -2.2467
  174MOL0     H23432   4.173   8.806   8.258  6.0277 -0.1343 -0.5909
  174MOL0     H23433   4.323   8.623   8.434  0.6699  1.0648  1.1476
  174MOL0     H23434   4.356   8.655   8.267 -1.0116 -3.1863  1.1479
  174MOL0     H23435   4.422   8.883   8.302 -2.0744  0.5176 -0.5193
  174MOL0     H23436   4.301   8.892   8.434 -0.5871 -2.1047  1.8472
  174MOL0     H23437   4.565   8.731   8.469  2.5831  0.7063  3.7433
  174MOL0     H23438   4.446   8.795   8.588  0.8692  1.5621 -0.3886
  174MOL0     H23439   4.643   8.939   8.405  1.6524  1.6817 -0.0265
  174MOL0     H23440   4.531   9.021   8.513 -0.7618 -0.6293  1.8174
  174MOL0     H23441   4.538   8.952   8.779 -0.4961 -0.1082  1.8524
  174MOL0     H23442   4.707   9.005   8.995  1.0829 -1.1477  3.3010
  174MOL0     H23443   4.804   8.860   8.999 -0.5818 -1.3487 -2.9731
  174MOL0     H23444   5.008   9.005   8.939  1.1807  1.9466  0.7910
  174MOL0     H23445   4.890   9.138   8.902  1.9008 -0.8183 -2.2390
  174MOL0     H23446   4.951   8.987   9.169 -1.3682 -1.1978 -1.8328
  174MOL0     H23447   4.836   9.119   9.156 -0.5036 -0.0023 -1.5650
  174MOL0     H23448   5.025   9.243   9.234  4.3512 -0.1787  0.3223
  174MOL0     H23449   5.008   9.271   9.061 -0.1701  1.4294  1.4501
  174MOL0     H23450   5.141   9.432   9.144 -1.5374 -1.4783 -1.9723
  174MOL0     H23451   5.313   9.580   9.159 -0.5342 -1.0103  0.9925
  174MOL0     H23452   5.809   9.605   9.237 -0.9111  1.0034 -0.5730
  174MOL0     H23453   6.024   9.700   9.231 -0.4219 -1.1943  1.4401
  174MOL0     H23454   6.286   9.592   9.162  0.6684  0.4437  0.6540
  174MOL0     H23455   6.334   9.542   8.994  1.7237  0.8182 -1.2288
  174MOL0     H23456   6.510   9.654   9.111 -0.1272  0.0897  0.2574
  174MOL0     H23457   6.469   9.751   8.973  1.8974 -1.0305  0.3686
  174MOL0     H23458   6.320   9.886   9.140  0.6108 -0.7102 -4.0698
  174MOL0     H23459   6.386   9.784   9.266  0.4254 -1.9730 -0.2311
  174MOL0     H23460   6.526   9.981   9.080  2.3120 -2.9531 -0.7801
  174MOL0     H23461   6.620   9.876   9.177  1.8754  1.8881 -0.7820
  174MOL0     H23462   6.475   9.984   9.378 -2.5868  1.0071 -0.1105
  174MOL0     H23463   6.415  10.099   9.260  0.0755 -0.0440  0.6381
  174MOL0     H23464   6.713  10.043   9.313 -1.1212 -1.3150 -1.2433
  174MOL0     H23465   6.657  10.178   9.219  2.3422  0.2071  0.5842
  174MOL0     H23466   6.573  10.158   9.510 -0.0549  0.9350  0.5818
  174MOL0     H23467   6.576  10.305   9.402  2.3863  1.2993  0.7736
  174MOL0     H23468   6.803  10.140   9.519 -1.3612 -0.3532  0.5795
  174MOL0     H23469   6.825  10.285   9.413  2.8913 -1.0095  0.7155
  174MOL0     H23470   6.082   9.604   8.824 -0.6230  1.6961 -0.7930
  174MOL0     H23471   5.869   9.465   8.836  2.8527  0.3826 -0.5466
  174MOL0     H23472   5.601   9.256   9.086  0.4578  2.7437 -0.7640
  174MOL0     H23473   5.385   9.101   9.076 -2.2937  0.8500 -2.0835
  174MOL0     H23474   3.508   8.976   8.382  4.1246 -0.4296  1.4235
  174MOL0     H23475   3.288   8.889   8.292  0.1871 -0.7965 -1.0832
  174MOL0     H23476   2.918   8.772   8.471 -3.3535  1.4559  0.8565
  174MOL0     H23477   2.698   8.818   8.388  0.8371  0.8724  0.9243
  174MOL0     H23478   2.545   8.592   8.036  0.8576 -0.6825  2.4444
  174MOL0     H23479   2.552   8.771   8.023 -1.0031  0.9734  1.0027
  174MOL0     H23480   2.325   8.680   7.983  0.9836 -1.8917 -0.0346
  174MOL0     H23481   2.327   8.769   8.146 -1.9088  0.7980 -0.5365
  174MOL0     H23482   2.346   8.553   8.255  0.9002 -0.6615 -0.4084
  174MOL0     H23483   2.328   8.459   8.102  0.6188 -0.3234  1.1670
  174MOL0     H23484   2.111   8.661   8.203 -0.3909 -0.8156  2.0767
  174MOL0     H23485   2.114   8.573   8.049  0.9687  2.9328 -0.0549
  174MOL0     H23486   2.001   8.292   8.360 -0.9595 -1.2534 -1.6193
  174MOL0     H23487   2.774   8.544   8.060  3.7352 -1.6068  0.0485
  174MOL0     H23488   3.098   8.576   8.061 -0.8006  0.7432 -2.7416
  174MOL0     H23489   3.082   8.437   8.162  4.4340  1.8863 -2.2952
  174MOL0     H23490   2.973   8.466   8.018  0.4805 -0.2854 -0.0688
  175MOL0     O23491   0.347   8.197   6.498 -0.3037  0.1366  0.6203
  175MOL0     C23492   0.331   8.221   6.616  0.5831 -1.0138 -0.2460
  175MOL0     O23493   0.395   8.168   6.718 -0.1649  0.3047  0.1945
  175MOL0     C23494   0.474   8.062   6.685 -0.2037  0.3119 -1.0123
  175MOL0     C23495   0.431   7.936   6.679 -0.0792 -0.0780  1.1533
  175MOL0     C23496   0.524   7.830   6.651  0.7309  0.5633 -0.0055
  175MOL0     C23497   0.663   7.854   6.635  0.9021  0.3321  0.3560
  175MOL0     O23498   0.752   7.752   6.605 -0.0631 -0.0147 -0.0557
  175MOL0     C23499   0.697   7.620   6.582  0.2906 -0.1251 -0.5695
  175MOL0     C23500   0.817   7.529   6.531 -1.3024  0.2137 -0.2475
  175MOL0     C23501   0.931   7.522   6.634 -0.7231  0.3616 -0.0506
  175MOL0     C23502   1.039   7.413   6.593 -0.4493 -0.0954 -0.4056
  175MOL0     C23503   1.171   7.448   6.666  0.6167 -0.7536  0.9712
  175MOL0     C23504   1.263   7.334   6.638 -0.0352 -0.2058 -0.5582
  175MOL0     C23505   1.403   7.355   6.690  0.4880  0.4505 -0.4733
  175MOL0     C23506   1.504   7.256   6.634 -0.6458 -0.3961  0.4640
  175MOL0     N23507   1.645   7.299   6.671 -0.0187 -0.0749  0.1815
  175MOL0     C23508   1.724   7.394   6.601  0.6644 -0.1068 -1.4105
  175MOL0     C23509   1.835   7.413   6.683 -0.4337 -0.7112 -0.9562
  175MOL0     C23510   1.946   7.510   6.665 -0.1688  0.1253 -0.1728
  175MOL0     C23511   2.068   7.414   6.664 -0.1449 -0.0284 -0.0913
  175MOL0     C23512   2.199   7.499   6.659 -0.3536 -0.2839 -0.2106
  175MOL0     C23513   2.249   7.539   6.800  0.0961 -0.1550  0.3538
  175MOL0     O23514   2.321   7.427   6.859 -0.0004 -0.0515  0.5682
  175MOL0     C23515   2.459   7.407   6.822  0.3832 -0.6816 -0.1603
  175MOL0     C23516   2.517   7.479   6.718 -1.0027 -0.8363  0.1090
  175MOL0     C23517   2.649   7.460   6.688 -0.2394  0.6232  0.5682
  175MOL0     C23518   2.726   7.363   6.750 -1.0946 -0.1733  0.3789
  175MOL0     C23519   2.873   7.344   6.710 -0.8821 -0.1472 -0.4151
  175MOL0     O23520   2.958   7.277   6.790 -0.1574  0.0739 -0.3727
  175MOL0     C23521   3.075   7.231   6.729  0.6281  0.7138  0.1998
  175MOL0     C23522   3.088   7.090   6.690  0.4487 -0.9782 -0.2094
  175MOL0     C23523   3.206   7.035   6.629  0.2591 -0.4134  0.3684
  175MOL0     C23524   3.316   7.125   6.604 -0.2477  0.3961  0.2047
  175MOL0     O23525   3.431   7.098   6.536  0.2142 -0.1261  0.0446
  175MOL0     C23526   3.490   6.975   6.572  0.9859  0.1092 -0.3930
  175MOL0     C23527   3.629   6.976   6.523  0.6863  0.4423  0.4051
  175MOL0     C23528   3.718   7.085   6.594 -0.6768 -0.6150  0.4353
  175MOL0     C23529   3.866   7.034   6.594  0.3511 -0.6308  0.1171
  175MOL0     C23530   3.961   7.141   6.655  0.4775  0.5186  0.3510
  175MOL0     C23531   3.994   7.244   6.550 -0.2115  0.4473  0.1438
  175MOL0     C23532   4.112   7.199   6.453 -0.6400 -0.7197  0.8756
  175MOL0     C23533   4.142   7.327   6.365 -0.2072  0.1932  0.5517
  175MOL0    Cl23534   4.035   7.344   6.228  0.4616  0.2502  0.4010
  175MOL0     C23535   3.297   7.257   6.641 -0.3689 -0.2753  0.8022
  175MOL0     C23536   3.181   7.308   6.698 -0.3427 -0.3556 -0.2782
  175MOL0     O23537   2.907   7.394   6.604 -0.1484  0.3650 -0.4728
  175MOL0     C23538   2.667   7.279   6.842  1.0771 -0.2802  0.2664
  175MOL0     C23539   2.531   7.304   6.881  0.2836  0.3473  0.1064
  175MOL0     N23540   1.808   7.336   6.796  0.2581 -0.0726  0.1213
  175MOL0     N23541   1.694   7.283   6.792  0.4816 -0.4204 -0.1686
  175MOL0     C23542   0.704   7.988   6.629  0.5890  0.0124  0.0418
  175MOL0     C23543   0.611   8.088   6.671 -0.0059  0.1086 -0.2489
  175MOL0     C23544   0.240   8.331   6.644 -0.4407 -0.3228  0.2785
  175MOL0     C23545   0.288   8.453   6.598  0.0297  0.0529 -0.0628
  175MOL0     C23546   0.207   8.570   6.601 -0.0193 -0.1597 -0.0551
  175MOL0     C23547   0.078   8.554   6.655 -0.1831  0.1625 -0.7221
  175MOL0     O23548   0.002   8.665   6.647  0.0268  0.9098 -0.2056
  175MOL0     C23549  -0.102   8.682   6.747  0.1753  0.2519 -0.4134
  175MOL0     C23550  -0.136   8.834   6.734 -0.5978  0.2869 -0.6117
  175MOL0     C23551  -0.206   8.860   6.599  0.2577 -0.8741  0.6241
  175MOL0     C23552  -0.290   8.982   6.605  0.3158 -0.1560 -0.0529
  175MOL0     C23553  -0.423   8.953   6.662 -0.6163 -0.4038 -0.0629
  175MOL0     C23554  -0.539   8.950   6.692  0.8372 -0.2374  0.3042
  175MOL0     C23555   0.035   8.430   6.710 -0.3323  0.0403 -0.6684
  175MOL0     C23556   0.115   8.314   6.698  0.8503 -0.5934  0.5919
  175MOL0     C23557   0.067   8.195   6.766 -0.3461  0.4106 -0.3031
  175MOL0     H23558   0.325   7.919   6.690 -1.0390  4.5633  0.9782
  175MOL0     H23559   0.481   7.735   6.622  0.0778  0.9153 -0.2048
  175MOL0     H23560   0.649   7.590   6.675  1.8325 -0.0800  0.2801
  175MOL0     H23561   0.627   7.629   6.498  0.9108 -2.2210 -1.3675
  175MOL0     H23562   0.851   7.574   6.437  2.8197 -1.0961  0.3909
  175MOL0     H23563   0.783   7.428   6.507  0.6723 -0.7067  0.6063
  175MOL0     H23564   0.890   7.527   6.735 -0.3239  0.7028  0.1023
  175MOL0     H23565   0.981   7.620   6.628  0.9763 -0.4171  0.8092
  175MOL0     H23566   1.007   7.314   6.627  0.1647 -0.5990 -1.2455
  175MOL0     H23567   1.064   7.402   6.487  0.5984  2.2954 -0.4828
  175MOL0     H23568   1.203   7.544   6.624 -0.3621 -1.2404 -1.0624
  175MOL0     H23569   1.143   7.452   6.772 -2.3290 -2.4812  0.3635
  175MOL0     H23570   1.224   7.242   6.685  0.9818  1.2917  3.6650
  175MOL0     H23571   1.263   7.319   6.530 -1.6864  2.0584 -0.9319
  175MOL0     H23572   1.409   7.351   6.799 -3.9082  0.1152 -0.0932
  175MOL0     H23573   1.444   7.452   6.659  0.7441  0.8437  1.0319
  175MOL0     H23574   1.482   7.157   6.673 -0.2767 -0.0576  1.5537
  175MOL0     H23575   1.495   7.247   6.525 -2.4421 -0.8064  0.6028
  175MOL0     H23576   1.706   7.434   6.502  0.8275  1.9727 -0.6445
  175MOL0     H23577   1.925   7.569   6.576  1.1943 -0.1323 -0.6862
  175MOL0     H23578   1.951   7.580   6.749 -0.8948  0.6092 -0.5282
  175MOL0     H23579   2.072   7.346   6.750  1.4445 -0.1374 -0.2184
  175MOL0     H23580   2.071   7.362   6.568  1.8614  0.5808 -0.3896
  175MOL0     H23581   2.182   7.589   6.601  0.4851 -0.2449 -0.4159
  175MOL0     H23582   2.279   7.448   6.603  0.5260  0.3743  0.4193
  175MOL0     H23583   2.165   7.571   6.863  0.2296  2.0478 -0.5049
  175MOL0     H23584   2.315   7.625   6.785  2.7761 -2.1603 -0.1428
  175MOL0     H23585   2.463   7.558   6.667  2.5099 -0.2161 -3.1117
  175MOL0     H23586   2.683   7.534   6.616 -2.9323  0.8474 -0.6228
  175MOL0     H23587   3.012   7.018   6.716  0.6886 -0.8249  0.9863
  175MOL0     H23588   3.220   6.931   6.601 -0.4560  0.1772 -2.5577
  175MOL0     H23589   3.486   6.961   6.680 -0.1077 -0.2246 -0.4594
  175MOL0     H23590   3.434   6.888   6.534  0.1987 -0.5180  2.0089
  175MOL0     H23591   3.667   6.876   6.547  1.2816  0.3425 -0.8517
  175MOL0     H23592   3.625   6.982   6.414 -2.1147 -1.6092  0.2921
  175MOL0     H23593   3.706   7.180   6.542  1.9885  0.4410  1.5706
  175MOL0     H23594   3.679   7.115   6.692 -0.9878 -1.1343  0.4742
  175MOL0     H23595   3.899   6.993   6.499  1.4974 -1.1891  0.7349
  175MOL0     H23596   3.867   6.954   6.670 -2.4179 -0.9470 -0.0621
  175MOL0     H23597   4.050   7.095   6.697  0.0990  0.6732  1.3708
  175MOL0     H23598   3.907   7.194   6.734  0.4026  2.5594 -0.9962
  175MOL0     H23599   3.911   7.271   6.484  0.2654 -1.9860 -1.5961
  175MOL0     H23600   4.026   7.330   6.610  0.2670 -1.3508  2.6381
  175MOL0     H23601   4.072   7.117   6.393 -2.7898  0.6096  0.4100
  175MOL0     H23602   4.197   7.162   6.512 -1.3529 -0.7988  1.8772
  175MOL0     H23603   4.128   7.419   6.423  0.8355 -0.0499  1.2140
  175MOL0     H23604   4.247   7.315   6.336 -0.4223 -1.2826  0.3266
  175MOL0     H23605   3.377   7.328   6.624 -0.6303 -0.3342 -0.8331
  175MOL0     H23606   3.180   7.417   6.707 -0.5765 -0.4952  1.8396
  175MOL0     H23607   2.722   7.200   6.892 -1.4959 -1.1167  2.0068
  175MOL0     H23608   2.472   7.240   6.946 -1.4623  1.2471 -0.5274
  175MOL0     H23609   0.810   8.007   6.612  0.9455 -0.3546  1.6635
  175MOL0     H23610   0.645   8.190   6.680 -3.4861  1.5953 -2.0302
  175MOL0     H23611   0.380   8.457   6.540  0.1213 -0.0993  0.0749
  175MOL0     H23612   0.240   8.670   6.577 -0.7147  0.3947  1.1756
  175MOL0     H23613  -0.067   8.681   6.851  0.0495  2.3012 -0.3078
  175MOL0     H23614  -0.192   8.623   6.728  0.2741  0.0144 -0.1545
  175MOL0     H23615  -0.039   8.884   6.739 -0.0905 -0.7538  0.2398
  175MOL0     H23616  -0.205   8.854   6.816 -2.6346 -2.4596 -1.4962
  175MOL0     H23617  -0.266   8.779   6.557 -1.9373  2.1217 -2.5094
  175MOL0     H23618  -0.128   8.871   6.523  0.4110  1.1570  1.0124
  175MOL0     H23619  -0.237   9.057   6.665 -0.3049 -1.3810  2.1750
  175MOL0     H23620  -0.300   9.022   6.504  1.4581 -1.7896 -0.8484
  175MOL0     H23621  -0.645   8.942   6.697  0.3058 -1.0036 -5.3516
  175MOL0     H23622  -0.063   8.419   6.755 -0.5132 -1.1679 -1.2993
  175MOL0     H23623  -0.042   8.195   6.772 -0.3994 -0.8372 -0.9652
  175MOL0     H23624   0.076   8.109   6.699 -4.1875  0.0170 -0.5560
  175MOL0     H23625   0.126   8.172   6.855 -1.1656 -1.4087 -0.1872
  176MOL0     O23626   3.659   6.475   8.824  0.0456 -0.6928  0.5904
  176MOL0     C23627   3.760   6.546   8.823 -0.1324 -0.0135  0.3403
  176MOL0     O23628   3.766   6.684   8.841  1.0683  0.3161  0.0216
  176MOL0     C23629   3.658   6.751   8.782 -0.3534 -1.1058  0.0961
  176MOL0     C23630   3.556   6.800   8.863  0.2013 -0.2681 -0.4575
  176MOL0     C23631   3.461   6.882   8.811 -0.6704 -1.0314  0.3083
  176MOL0     C23632   3.457   6.912   8.672 -0.3213  0.0065  0.3966
  176MOL0     O23633   3.365   6.991   8.606  0.2980  0.4275  0.9589
  176MOL0     C23634   3.252   7.042   8.679 -0.2647  0.6626 -0.2874
  176MOL0     C23635   3.140   7.072   8.581 -0.5656 -0.5751  0.3116
  176MOL0     C23636   3.081   6.949   8.517 -0.1519  0.3590 -0.7335
  176MOL0     C23637   2.937   6.963   8.470  0.4435 -0.0972  0.8925
  176MOL0     C23638   2.869   6.841   8.416  0.4158  0.3251 -0.1774
  176MOL0     C23639   2.728   6.901   8.381  0.0710  0.3722 -0.5022
  176MOL0     C23640   2.638   6.790   8.331  0.4434  0.0607  0.6296
  176MOL0     C23641   2.507   6.846   8.291  0.3591 -0.2068 -0.2179
  176MOL0     N23642   2.511   6.880   8.145  0.0247  0.2032  0.1874
  176MOL0     C23643   2.493   6.797   8.043 -0.0253  0.3854  0.0468
  176MOL0     C23644   2.512   6.875   7.938 -0.1364  0.4020  0.8492
  176MOL0     C23645   2.498   6.840   7.786 -0.0461  0.1142  0.1673
  176MOL0     C23646   2.640   6.849   7.723  0.5789  0.1346 -0.2428
  176MOL0     C23647   2.641   6.831   7.564 -0.2037  0.0780 -0.8156
  176MOL0     C23648   2.773   6.859   7.500  0.7025 -0.0915 -0.4086
  176MOL0     O23649   2.883   6.778   7.548  0.0541 -1.6499  0.4069
  176MOL0     C23650   3.010   6.782   7.490 -1.3189  0.3312  0.6412
  176MOL0     C23651   3.121   6.720   7.555  0.1731 -0.7156 -0.7789
  176MOL0     C23652   3.243   6.713   7.499 -0.5930  0.0659 -0.7037
  176MOL0     C23653   3.275   6.764   7.376  0.1100  0.3277 -0.3212
  176MOL0     C23654   3.407   6.751   7.311  0.0792 -0.0576  0.3633
  176MOL0     O23655   3.436   6.807   7.184  0.2244  0.0564  0.3021
  176MOL0     C23656   3.564   6.827   7.138 -0.7702  0.2592  0.5471
  176MOL0     C23657   3.688   6.825   7.210 -0.3929  0.0331  0.1017
  176MOL0     C23658   3.807   6.863   7.145 -0.4143 -0.5981 -0.3925
  176MOL0     C23659   3.813   6.894   7.009  0.2314 -0.4497 -0.7309
  176MOL0     O23660   3.929   6.929   6.943  0.4030 -0.3481 -0.1325
  176MOL0     C23661   4.045   6.951   7.022  0.2836  0.0748  0.0006
  176MOL0     C23662   4.163   6.980   6.928  0.4364 -0.2041 -0.5014
  176MOL0     C23663   4.291   6.959   7.003 -0.1498  0.1041 -0.3099
  176MOL0     C23664   4.412   6.956   6.910  0.2340 -1.2225 -0.2150
  176MOL0     C23665   4.535   6.918   6.991 -0.6870  1.1277  0.0631
  176MOL0     C23666   4.604   7.038   7.052 -0.1278  0.2293 -0.4958
  176MOL0     C23667   4.732   7.000   7.116  0.8356 -0.5166 -0.6398
  176MOL0     C23668   4.809   7.126   7.137 -0.1043  0.0697  0.0801
  176MOL0    Cl23669   4.968   7.100   7.236 -0.1895 -0.4037 -0.1582
  176MOL0     C23670   3.688   6.903   6.948 -0.1161  0.3144  0.0765
  176MOL0     C23671   3.560   6.872   7.012 -0.0980  0.0815  0.4017
  176MOL0     O23672   3.487   6.675   7.373  0.1497  0.0997  0.3773
  176MOL0     C23673   3.165   6.821   7.305 -0.5031  0.6979  0.5780
  176MOL0     C23674   3.041   6.834   7.360  0.1112  0.1833 -0.0236
  176MOL0     N23675   2.533   7.012   7.978  0.7373  0.0907 -0.7680
  176MOL0     N23676   2.536   7.005   8.102 -0.9047 -0.2117 -0.4334
  176MOL0     C23677   3.551   6.852   8.594  0.0527  0.8495  0.5336
  176MOL0     C23678   3.650   6.776   8.648  0.0238  0.2093  0.6490
  176MOL0     C23679   3.889   6.471   8.824  0.1604  0.4716 -0.1933
  176MOL0     C23680   3.886   6.334   8.798 -0.4956  0.6361 -0.0067
  176MOL0     C23681   3.995   6.249   8.800 -0.3107 -0.0743  0.3036
  176MOL0     C23682   4.116   6.297   8.834  0.3677 -1.1435  0.4830
  176MOL0     O23683   4.211   6.206   8.830  0.4480  0.4629  0.0222
  176MOL0     C23684   4.349   6.231   8.845  0.2381 -0.0253  1.1874
  176MOL0     C23685   4.395   6.293   8.715  0.6293  0.0010 -0.2571
  176MOL0     C23686   4.546   6.324   8.750  0.7681  0.4073  0.1706
  176MOL0     C23687   4.626   6.381   8.634  0.6224  0.1527  0.5655
  176MOL0     C23688   4.567   6.505   8.582 -0.3873  0.7956 -1.0515
  176MOL0     C23689   4.512   6.598   8.531 -0.6216 -0.4732 -0.3516
  176MOL0     C23690   4.126   6.427   8.886  0.2838 -0.5488  0.1669
  176MOL0     C23691   4.012   6.513   8.874  1.2220 -0.5141  0.9423
  176MOL0     C23692   4.033   6.657   8.928  0.1952 -0.1882  0.1628
  176MOL0     H23693   3.545   6.780   8.970 -1.9122  1.3595 -0.2936
  176MOL0     H23694   3.381   6.920   8.874  1.3822  1.0048  1.8569
  176MOL0     H23695   3.205   6.972   8.750 -0.1019  0.7879 -0.0541
  176MOL0     H23696   3.274   7.126   8.745 -1.9327  1.2261 -0.4090
  176MOL0     H23697   3.187   7.143   8.512 -4.2608  1.9732  0.1356
  176MOL0     H23698   3.056   7.118   8.635  0.6475  0.4424  1.4281
  176MOL0     H23699   3.097   6.855   8.572 -2.1611  0.1554 -0.4230
  176MOL0     H23700   3.133   6.930   8.422  1.4021  0.0502  0.1389
  176MOL0     H23701   2.882   7.000   8.558  0.7313 -2.1579  2.0070
  176MOL0     H23702   2.931   7.043   8.396  3.4987  0.5346  1.2129
  176MOL0     H23703   2.925   6.812   8.327  0.0436 -2.6222  0.4326
  176MOL0     H23704   2.860   6.755   8.483  2.2096 -1.1804 -1.7562
  176MOL0     H23705   2.677   6.932   8.473  1.9424 -1.8059  1.4067
  176MOL0     H23706   2.730   6.988   8.316  1.9781  0.6647 -0.1287
  176MOL0     H23707   2.611   6.712   8.404 -1.6096 -1.5638 -1.6939
  176MOL0     H23708   2.678   6.732   8.247 -0.0618  2.4590 -1.4025
  176MOL0     H23709   2.430   6.771   8.313  2.0341 -2.5594 -1.8953
  176MOL0     H23710   2.471   6.934   8.345 -0.1371 -0.4934 -0.0735
  176MOL0     H23711   2.492   6.689   8.047  2.8965  0.3040  0.2869
  176MOL0     H23712   2.456   6.740   7.779  1.4877 -0.4850 -0.9418
  176MOL0     H23713   2.426   6.907   7.739 -1.4178  0.5710  2.7275
  176MOL0     H23714   2.676   6.951   7.737  2.0697 -0.0053 -2.5460
  176MOL0     H23715   2.707   6.774   7.765  0.2283 -0.3024 -0.4460
  176MOL0     H23716   2.564   6.891   7.514 -1.0252 -0.4596 -0.1988
  176MOL0     H23717   2.614   6.728   7.540 -0.1853  0.3245 -1.9675
  176MOL0     H23718   2.797   6.964   7.521  1.1136  0.1350 -1.8769
  176MOL0     H23719   2.762   6.856   7.391  2.2844  2.2798 -0.7176
  176MOL0     H23720   3.108   6.668   7.649  0.7018  1.4834  0.5818
  176MOL0     H23721   3.317   6.654   7.553 -1.8700  0.9211  2.1761
  176MOL0     H23722   3.681   6.806   7.316 -0.9386 -1.8556 -0.2413
  176MOL0     H23723   3.897   6.863   7.206  0.2539 -2.9100 -1.2561
  176MOL0     H23724   4.055   7.031   7.096  4.5153 -0.0093 -0.2270
  176MOL0     H23725   4.061   6.858   7.077  1.4078  1.2988  1.8337
  176MOL0     H23726   4.161   6.904   6.849  2.4863 -1.4727  0.5943
  176MOL0     H23727   4.153   7.080   6.886 -3.8928  0.5962  1.7738
  176MOL0     H23728   4.304   7.032   7.083 -1.7555  0.2672 -0.1751
  176MOL0     H23729   4.287   6.858   7.046 -1.8457 -0.6826 -2.1393
  176MOL0     H23730   4.425   7.054   6.861 -1.7139  0.0453  1.6374
  176MOL0     H23731   4.398   6.881   6.831  0.0174 -1.1890 -0.2101
  176MOL0     H23732   4.612   6.885   6.920 -0.4571  2.0484 -0.1324
  176MOL0     H23733   4.523   6.839   7.065 -0.1741 -0.0466 -1.0614
  176MOL0     H23734   4.614   7.118   6.979 -0.1324 -1.7634 -2.8027
  176MOL0     H23735   4.529   7.077   7.122 -4.1857  0.9058 -4.7402
  176MOL0     H23736   4.785   6.937   7.044 -1.5879 -0.6319 -2.4493
  176MOL0     H23737   4.730   6.943   7.209  1.4324  2.2598  1.2014
  176MOL0     H23738   4.813   7.172   7.038 -2.6777  2.0202  0.7531
  176MOL0     H23739   4.746   7.193   7.197 -0.1355 -0.4797  0.6655
  176MOL0     H23740   3.689   6.941   6.846  2.1388 -2.4591 -1.0693
  176MOL0     H23741   3.469   6.881   6.954 -0.6685 -4.4569  0.2167
  176MOL0     H23742   3.176   6.855   7.203 -1.8342 -3.2198 -1.0376
  176MOL0     H23743   2.954   6.868   7.305 -1.1165 -0.7680  1.2481
  176MOL0     H23744   3.557   6.862   8.486 -0.2386 -0.1416  0.4106
  176MOL0     H23745   3.721   6.740   8.574  0.3196  4.1266 -1.2054
  176MOL0     H23746   3.789   6.294   8.769 -0.1183 -1.4181  1.3351
  176MOL0     H23747   3.969   6.150   8.765  0.2012  0.1976 -0.9225
  176MOL0     H23748   4.400   6.136   8.863  1.0390  0.3195  0.7920
  176MOL0     H23749   4.349   6.300   8.931 -2.1192  1.2139  0.2817
  176MOL0     H23750   4.344   6.387   8.694  0.4657 -0.1358 -0.4702
  176MOL0     H23751   4.386   6.216   8.638  3.2050 -1.6783  0.9713
  176MOL0     H23752   4.588   6.230   8.788 -1.2698 -1.1603 -1.1923
  176MOL0     H23753   4.551   6.377   8.845 -1.1772 -2.8110  2.2838
  176MOL0     H23754   4.722   6.411   8.679 -0.0586  4.5935 -0.4297
  176MOL0     H23755   4.641   6.301   8.562 -3.7186 -0.5307  0.2023
  176MOL0     H23756   4.463   6.665   8.463  0.5415  1.1683  0.3577
  176MOL0     H23757   4.217   6.463   8.933 -0.8968  1.8450  0.7895
  176MOL0     H23758   4.134   6.687   8.957 -0.9157  1.7521  2.3276
  176MOL0     H23759   4.003   6.732   8.854  1.7847  1.1715  0.8248
  176MOL0     H23760   3.970   6.680   9.014  0.0381 -3.3457  0.9870
  177MOL0     O23761   1.631   3.290   1.150  1.1451  0.0276 -0.1771
  177MOL0     C23762   1.587   3.313   1.264 -0.8445  0.3327  0.0148
  177MOL0     O23763   1.653   3.377   1.367  0.5150 -0.3405  0.2008
  177MOL0     C23764   1.785   3.391   1.347  0.1005  0.4442 -0.2470
  177MOL0     C23765   1.839   3.517   1.306  0.3706 -0.7557  0.4184
  177MOL0     C23766   1.972   3.539   1.275 -0.1381 -0.6657  0.4836
  177MOL0     C23767   2.069   3.440   1.311 -0.0206 -0.2960 -0.6943
  177MOL0     O23768   2.200   3.438   1.285  0.6989 -0.4246 -0.2328
  177MOL0     C23769   2.249   3.533   1.190 -0.0085  0.8620  0.5190
  177MOL0     C23770   2.395   3.541   1.178  0.1835 -0.2699  0.1708
  177MOL0     C23771   2.463   3.455   1.071  1.1390 -0.9214 -0.5726
  177MOL0     C23772   2.611   3.448   1.075 -0.0340  0.2112  0.6553
  177MOL0     C23773   2.657   3.340   0.973  0.2258 -1.4053 -0.3244
  177MOL0     C23774   2.802   3.300   1.010  0.4897  0.5462 -0.8325
  177MOL0     C23775   2.859   3.197   0.910  0.1175 -0.0573 -0.7398
  177MOL0     C23776   2.850   3.225   0.759  1.8203  0.1580  0.3277
  177MOL0     N23777   2.904   3.359   0.727 -0.0458  0.1602  0.5145
  177MOL0     C23778   3.034   3.396   0.725 -0.1915 -0.0210  0.4094
  177MOL0     C23779   3.029   3.529   0.714  0.5620  0.1077 -0.3787
  177MOL0     C23780   3.156   3.618   0.695  0.5035 -0.0039 -0.0900
  177MOL0     C23781   3.188   3.645   0.543  0.0305 -0.1209 -0.3483
  177MOL0     C23782   3.240   3.521   0.477  0.3560 -0.3489 -0.5222
  177MOL0     C23783   3.388   3.497   0.498  0.3476  0.0420 -0.3076
  177MOL0     O23784   3.451   3.622   0.492 -0.5526 -0.0100  0.1847
  177MOL0     C23785   3.586   3.621   0.473  1.3047 -0.4199  0.4447
  177MOL0     C23786   3.636   3.750   0.457  0.0861 -0.0670  0.1072
  177MOL0     C23787   3.772   3.771   0.413  1.0508 -0.2969  0.3180
  177MOL0     C23788   3.861   3.657   0.410  0.6336  0.0491 -0.8916
  177MOL0     C23789   4.001   3.673   0.367  0.1702 -0.0717  0.3429
  177MOL0     O23790   4.051   3.802   0.358  0.6447  0.2014  0.3028
  177MOL0     C23791   4.191   3.820   0.335  0.2790 -0.2327 -0.6796
  177MOL0     C23792   4.293   3.740   0.391  0.7995  0.0641  0.0168
  177MOL0     C23793   4.427   3.755   0.364  0.1565 -0.1801 -0.0154
  177MOL0     C23794   4.468   3.863   0.280 -0.3405 -0.6041 -0.6972
  177MOL0     O23795   4.605   3.875   0.257  0.4580  0.0442  0.1940
  177MOL0     C23796   4.669   3.974   0.174  0.1873 -0.0678  0.6293
  177MOL0     C23797   4.816   3.929   0.156 -0.8681 -0.2767 -0.6897
  177MOL0     C23798   4.894   4.016   0.055  0.3575 -0.0403  0.9693
  177MOL0     C23799   5.030   3.950   0.029  0.5653  0.0839  1.0082
  177MOL0     C23800   5.111   4.026  -0.085 -0.1431 -0.7623 -0.0639
  177MOL0     C23801   5.251   3.968  -0.097 -0.4156 -0.9697  0.7873
  177MOL0     C23802   5.270   3.907  -0.233 -0.1865  0.0944 -0.3326
  177MOL0     C23803   5.385   3.805  -0.241  0.0537 -0.5952  0.7089
  177MOL0    Cl23804   5.417   3.763  -0.419 -0.2069 -0.1995 -0.5020
  177MOL0     C23805   4.373   3.964   0.246  0.2639  0.8267 -0.2288
  177MOL0     C23806   4.233   3.939   0.268 -0.9702  1.0454 -0.0369
  177MOL0     O23807   4.059   3.571   0.337  0.7701  0.3340  0.2867
  177MOL0     C23808   3.806   3.529   0.447  1.4710  0.7412 -0.0247
  177MOL0     C23809   3.674   3.516   0.482  0.2506  0.8484 -0.3602
  177MOL0     N23810   2.896   3.573   0.690 -0.0184 -0.4340 -0.5139
  177MOL0     N23811   2.830   3.468   0.701  0.5773 -0.7703  0.4712
  177MOL0     C23812   2.017   3.315   1.365 -1.1297 -0.0315 -0.4187
  177MOL0     C23813   1.879   3.298   1.383 -0.4244 -0.3067 -0.5194
  177MOL0     C23814   1.448   3.266   1.288  0.2950 -0.2109 -0.3880
  177MOL0     C23815   1.415   3.233   1.424 -0.2584 -1.1960 -0.9008
  177MOL0     C23816   1.300   3.172   1.469 -0.6709  0.1331  0.6910
  177MOL0     C23817   1.203   3.144   1.372  0.3144  0.1917 -0.4427
  177MOL0     O23818   1.088   3.081   1.411  0.2823  0.3340 -0.0544
  177MOL0     C23819   1.019   2.992   1.328  0.3380  0.0084  0.7392
  177MOL0     C23820   0.911   2.922   1.408  0.7747 -0.2357 -0.2282
  177MOL0     C23821   0.962   2.830   1.510  0.5979  0.0987  0.1976
  177MOL0     C23822   0.848   2.762   1.594  0.3815 -0.3023  0.1587
  177MOL0     C23823   0.798   2.644   1.531  0.0999  0.1635  0.6371
  177MOL0     C23824   0.763   2.536   1.488  0.2738 -0.1724 -0.0884
  177MOL0     C23825   1.224   3.177   1.234  0.0059  0.2545 -0.7511
  177MOL0     C23826   1.345   3.241   1.188 -0.3528 -0.3043 -0.9745
  177MOL0     C23827   1.349   3.277   1.048  0.0036 -0.2935  0.8275
  177MOL0     H23828   1.768   3.596   1.282 -1.3327 -2.5483 -0.6905
  177MOL0     H23829   2.006   3.634   1.236 -0.8270  0.1176  1.7198
  177MOL0     H23830   2.201   3.511   1.094  2.1165 -1.7842 -0.0439
  177MOL0     H23831   2.220   3.635   1.217  0.3102  0.9534  0.5211
  177MOL0     H23832   2.440   3.508   1.272  0.7202 -2.6486 -0.8683
  177MOL0     H23833   2.421   3.647   1.164 -0.1167  0.4260  3.8770
  177MOL0     H23834   2.431   3.486   0.972 -0.6421 -3.9813 -1.1020
  177MOL0     H23835   2.420   3.357   1.095  0.4369 -0.0772  1.9914
  177MOL0     H23836   2.660   3.541   1.047  2.3316 -1.7702 -2.4514
  177MOL0     H23837   2.648   3.420   1.174  0.1598  0.0797  0.5465
  177MOL0     H23838   2.590   3.255   0.987 -0.6896 -0.8829 -1.3985
  177MOL0     H23839   2.650   3.393   0.878  0.8735  0.1292  0.4453
  177MOL0     H23840   2.860   3.393   1.007 -2.5138  2.5659 -1.6677
  177MOL0     H23841   2.811   3.263   1.112 -0.8398  1.0354 -0.5051
  177MOL0     H23842   2.799   3.109   0.937 -3.1207  1.7374 -1.5924
  177MOL0     H23843   2.962   3.170   0.933  0.0641  0.7465  0.5458
  177MOL0     H23844   2.892   3.149   0.694  0.9548  0.6965 -0.8939
  177MOL0     H23845   2.742   3.228   0.747  1.8564 -0.4051 -0.1363
  177MOL0     H23846   3.127   3.340   0.730 -0.8969 -1.3344 -0.5836
  177MOL0     H23847   3.154   3.717   0.741 -1.0541  1.4235 -2.9246
  177MOL0     H23848   3.244   3.571   0.741  0.1835  0.9160  1.5443
  177MOL0     H23849   3.096   3.684   0.499  0.1338  0.8139  0.2117
  177MOL0     H23850   3.252   3.734   0.543 -0.3386  0.1518 -0.8548
  177MOL0     H23851   3.221   3.542   0.371 -0.6982 -0.3527 -0.3459
  177MOL0     H23852   3.184   3.429   0.499  2.1534 -1.5591 -0.7329
  177MOL0     H23853   3.419   3.437   0.413 -3.2668  1.0125 -2.5206
  177MOL0     H23854   3.416   3.455   0.596  0.6416 -0.8354 -0.7568
  177MOL0     H23855   3.563   3.830   0.446  0.2713  0.4274  1.9804
  177MOL0     H23856   3.802   3.868   0.376  1.6542 -0.5229  0.2009
  177MOL0     H23857   4.265   3.662   0.461  1.1637  1.1806  1.4728
  177MOL0     H23858   4.504   3.691   0.406 -1.5345 -0.6388  2.6424
  177MOL0     H23859   4.618   3.981   0.078 -0.7284  0.1895  1.1236
  177MOL0     H23860   4.671   4.076   0.215  2.3635  0.4436 -0.5649
  177MOL0     H23861   4.864   3.926   0.254 -0.6670  0.3402 -0.7692
  177MOL0     H23862   4.808   3.827   0.117  0.4054 -0.3610 -0.7779
  177MOL0     H23863   4.837   4.028  -0.037  1.0367  0.0341  0.5475
  177MOL0     H23864   4.901   4.117   0.096 -1.0939  1.2548 -1.7474
  177MOL0     H23865   5.006   3.849  -0.007  0.2416  0.5942 -0.2812
  177MOL0     H23866   5.085   3.949   0.123  0.9411 -0.1927  0.7881
  177MOL0     H23867   5.125   4.132  -0.061  0.6562 -0.4918 -1.5756
  177MOL0     H23868   5.056   4.016  -0.179 -1.6206 -3.6442  0.9847
  177MOL0     H23869   5.322   4.048  -0.072  0.7047 -1.1389 -1.5236
  177MOL0     H23870   5.264   3.897  -0.015 -1.5927 -2.9309 -0.6387
  177MOL0     H23871   5.300   3.988  -0.300 -0.0569  2.3203  2.2405
  177MOL0     H23872   5.178   3.858  -0.267 -0.0746 -2.8657  3.0146
  177MOL0     H23873   5.481   3.850  -0.215  0.9105  0.2643 -3.2718
  177MOL0     H23874   5.376   3.708  -0.192  2.7953  0.0197  2.6624
  177MOL0     H23875   4.397   4.055   0.192 -2.5909  0.6287 -2.0613
  177MOL0     H23876   4.156   4.009   0.238 -2.6033 -0.9059 -0.5476
  177MOL0     H23877   3.868   3.440   0.445  1.9690  1.0085  1.8516
  177MOL0     H23878   3.637   3.419   0.513  0.9145  0.8681  0.5473
  177MOL0     H23879   2.071   3.223   1.386 -2.5099 -1.4695 -2.6641
  177MOL0     H23880   1.848   3.203   1.427  1.2528 -0.7054 -0.1105
  177MOL0     H23881   1.489   3.247   1.502 -0.7786  1.0754 -0.7391
  177MOL0     H23882   1.291   3.147   1.575 -2.4494  3.5790  1.4966
  177MOL0     H23883   1.082   2.914   1.284 -3.1726 -1.3431 -2.3923
  177MOL0     H23884   0.977   3.055   1.249  1.4856  0.3565  0.3918
  177MOL0     H23885   0.850   2.861   1.341  1.3834  0.5209 -1.5197
  177MOL0     H23886   0.852   2.996   1.463 -0.3713 -1.6839  0.5820
  177MOL0     H23887   1.018   2.895   1.578 -2.7472  2.0052  1.3652
  177MOL0     H23888   1.012   2.740   1.472 -1.3746 -0.0475 -2.3179
  177MOL0     H23889   0.881   2.741   1.697 -0.5055  0.5059  0.6138
  177MOL0     H23890   0.778   2.844   1.609  2.3758  1.5535 -0.1382
  177MOL0     H23891   0.744   2.436   1.456  1.2799 -1.3519  2.7161
  177MOL0     H23892   1.150   3.158   1.156 -0.1500  0.3329 -0.6240
  177MOL0     H23893   1.356   3.386   1.038 -1.0622 -0.4031 -2.3309
  177MOL0     H23894   1.437   3.233   1.001  0.7698  0.4331  1.5400
  177MOL0     H23895   1.261   3.263   0.984  1.9884 -0.4872 -2.0363
  178MOL0     O23896   9.583   9.993  10.040 -0.2775 -0.7599  0.1685
  178MOL0     C23897   9.534   9.916  10.122 -0.3300 -0.4078  0.2868
  178MOL0     O23898   9.601   9.814  10.178 -0.4346  0.2513 -0.7970
  178MOL0     C23899   9.736   9.801  10.153  0.9481 -0.0705  0.1264
  178MOL0     C23900   9.829   9.863  10.233 -0.1034  0.2829 -0.6618
  178MOL0     C23901   9.967   9.843  10.205 -0.0572 -0.7444  0.1092
  178MOL0     C23902  10.011   9.759  10.097  0.6381 -0.1326 -1.3508
  178MOL0     O23903  10.142   9.736  10.083 -0.0736 -0.3171 -0.3414
  178MOL0     C23904  10.182   9.617  10.021  0.4997 -0.0091  0.6892
  178MOL0     C23905  10.342   9.614  10.039 -0.0223  0.5390 -0.0451
  178MOL0     C23906  10.395   9.482   9.984 -0.0010  0.2146 -0.4835
  178MOL0     C23907  10.544   9.466  10.008 -0.1305 -0.1305  0.6753
  178MOL0     C23908  10.596   9.343   9.932 -0.0247 -0.3459 -0.1660
  178MOL0     C23909  10.745   9.370   9.903  0.0034  0.5146 -1.2680
  178MOL0     C23910  10.815   9.250   9.832  0.2303 -0.3634 -0.0565
  178MOL0     C23911  10.969   9.259   9.865  0.6508 -0.9430 -0.1429
  178MOL0     N23912  10.989   9.232  10.010  0.7622 -0.3310  0.0840
  178MOL0     C23913  11.082   9.290  10.092 -0.5149 -0.3185  0.8189
  178MOL0     C23914  11.089   9.223  10.206  0.4173 -0.2199 -0.6439
  178MOL0     C23915  11.178   9.249  10.325 -0.4082  0.1909 -0.3892
  178MOL0     C23916  11.114   9.368  10.409  0.0284 -0.3542  0.0055
  178MOL0     C23917  11.121   9.351  10.557  0.0943  0.5324  0.2850
  178MOL0     C23918  11.267   9.348  10.605  0.0201 -0.5755  0.4099
  178MOL0     O23919  11.330   9.469  10.547  0.3227 -0.1799 -0.3355
  178MOL0     C23920  11.455   9.517  10.586  0.4767 -0.5622 -0.0699
  178MOL0     C23921  11.504   9.634  10.534  0.3269  0.2986  0.1959
  178MOL0     C23922  11.625   9.691  10.566 -0.3828 -0.1107 -0.7567
  178MOL0     C23923  11.705   9.634  10.658  0.3151  0.3228  0.3508
  178MOL0     C23924  11.836   9.705  10.694  0.7288 -0.3524 -0.1977
  178MOL0     O23925  11.850   9.835  10.651 -0.2066 -0.1205  0.2844
  178MOL0     C23926  11.967   9.896  10.684 -0.8590 -0.9183 -0.3373
  178MOL0     C23927  12.031   9.968  10.578 -0.1211  0.7130  0.3570
  178MOL0     C23928  12.147  10.035  10.606  0.4044 -0.5413  0.1905
  178MOL0     C23929  12.217  10.031  10.730 -0.1593  0.1859  0.3965
  178MOL0     O23930  12.339  10.098  10.743 -0.1637  0.5383 -0.0493
  178MOL0     C23931  12.430  10.058  10.842 -1.2012 -0.5246  0.0785
  178MOL0     C23932  12.474  10.169  10.939 -0.4556 -0.0923  0.0452
  178MOL0     C23933  12.543  10.287  10.872 -0.0204 -0.4777  0.4830
  178MOL0     C23934  12.690  10.260  10.834 -0.1599 -0.1280 -0.5124
  178MOL0     C23935  12.751  10.373  10.735  0.6470 -0.8926  0.2337
  178MOL0     C23936  12.770  10.509  10.812 -0.3041  0.5277 -0.2416
  178MOL0     C23937  12.849  10.611  10.728  0.0278 -0.0192  0.9851
  178MOL0     C23938  12.881  10.740  10.788  1.1873  0.1492 -0.1248
  178MOL0    Cl23939  12.949  10.729  10.966  0.0441  0.0284 -0.3290
  178MOL0     C23940  12.148   9.958  10.826 -0.1364 -0.5399  0.4129
  178MOL0     C23941  12.024   9.898  10.809  0.0251 -0.1296  0.5485
  178MOL0     O23942  11.917   9.638  10.760 -0.0931  0.0255  0.3347
  178MOL0     C23943  11.669   9.511  10.706 -0.4055  0.1051 -0.6120
  178MOL0     C23944  11.540   9.453  10.675 -0.1430  1.0661  0.1524
  178MOL0     N23945  10.985   9.132  10.198 -0.0768  0.1172  0.5155
  178MOL0     N23946  10.929   9.129  10.080 -0.1181 -0.1777 -0.3442
  178MOL0     C23947   9.907   9.710  10.016  0.6025  0.0322 -0.0257
  178MOL0     C23948   9.774   9.729  10.048  0.0655  1.0127  0.6084
  178MOL0     C23949   9.394   9.935  10.166 -0.1127  0.1848 -0.4613
  178MOL0     C23950   9.337   9.835  10.241  0.3485  0.5827 -0.1190
  178MOL0     C23951   9.209   9.845  10.288  0.2720  0.2248 -0.3183
  178MOL0     C23952   9.128   9.954  10.267  0.0819  0.6281 -0.1779
  178MOL0     O23953   8.999   9.967  10.317 -0.2824 -0.5835 -0.4856
  178MOL0     C23954   8.903  10.039  10.224  0.1490  0.1079  0.3597
  178MOL0     C23955   8.763   9.978  10.250 -0.9385 -0.0821 -0.2439
  178MOL0     C23956   8.711  10.045  10.382  0.2913  0.0066  0.0474
  178MOL0     C23957   8.573  10.011  10.436  0.1800  0.5890  0.5842
  178MOL0     C23958   8.464  10.057  10.340 -1.0095 -0.5381 -0.2936
  178MOL0     C23959   8.373  10.091  10.264  0.6738  0.6922 -0.1552
  178MOL0     C23960   9.188  10.056  10.191 -0.4379  0.0742  0.6434
  178MOL0     C23961   9.323  10.049  10.142 -0.0369 -0.3065 -0.6315
  178MOL0     C23962   9.382  10.178  10.082  0.0528 -0.6006 -0.1886
  178MOL0     H23963   9.795   9.924  10.315 -3.7936  0.3758 -2.0639
  178MOL0     H23964  10.035   9.892  10.274 -1.2260  0.0022  0.7523
  178MOL0     H23965  10.139   9.533  10.076  0.5827  0.9051  2.2167
  178MOL0     H23966  10.148   9.612   9.918 -4.8387  1.4885  2.0762
  178MOL0     H23967  10.357   9.612  10.148  0.6213 -0.0486 -0.1388
  178MOL0     H23968  10.399   9.698   9.999  2.0432 -1.4090 -1.4355
  178MOL0     H23969  10.366   9.476   9.879 -0.4715 -2.5765 -0.2560
  178MOL0     H23970  10.331   9.403  10.024  2.4105 -2.2096 -1.1352
  178MOL0     H23971  10.596   9.556   9.973  0.4918 -0.7255  0.0472
  178MOL0     H23972  10.572   9.454  10.113 -4.4482 -1.5693  1.8615
  178MOL0     H23973  10.584   9.253   9.994  0.5401  0.0223  0.5003
  178MOL0     H23974  10.545   9.335   9.836 -1.8218 -3.1809  0.8775
  178MOL0     H23975  10.768   9.455   9.838  4.5962 -2.1407 -3.5962
  178MOL0     H23976  10.790   9.381  10.002 -0.2204 -0.1992 -1.0787
  178MOL0     H23977  10.798   9.239   9.725 -2.8093  3.0364 -0.1068
  178MOL0     H23978  10.780   9.161   9.886  0.0621 -0.0401  0.3803
  178MOL0     H23979  11.027   9.186   9.808 -0.2028 -2.3075  0.6675
  178MOL0     H23980  11.004   9.358   9.832 -0.2230 -0.6488 -0.2201
  178MOL0     H23981  11.141   9.377  10.064 -1.6507 -0.0439 -0.8622
  178MOL0     H23982  11.188   9.162  10.390 -3.4324 -0.4859 -0.7120
  178MOL0     H23983  11.281   9.270  10.295  0.0916 -2.4856 -0.8417
  178MOL0     H23984  11.152   9.462  10.369 -1.2991  0.2988  0.2271
  178MOL0     H23985  11.007   9.368  10.386 -0.4661 -2.1859  1.9708
  178MOL0     H23986  11.074   9.256  10.584  2.5338 -0.5130  1.1955
  178MOL0     H23987  11.074   9.430  10.615 -0.2958  1.2475 -0.9587
  178MOL0     H23988  11.317   9.256  10.574 -0.6380 -1.0229  0.6337
  178MOL0     H23989  11.268   9.353  10.714 -0.3566  2.6965  0.3505
  178MOL0     H23990  11.440   9.679  10.459 -0.0647  1.1856  1.0445
  178MOL0     H23991  11.641   9.793  10.532  2.1133  0.0672  0.7298
  178MOL0     H23992  11.990   9.964  10.478  2.6909 -3.2082 -0.8754
  178MOL0     H23993  12.196  10.101  10.534 -1.3588  2.3680  1.4742
  178MOL0     H23994  12.394   9.976  10.906 -1.2104  0.4341  1.3437
  178MOL0     H23995  12.523  10.015  10.802 -0.1007 -0.9927  2.8955
  178MOL0     H23996  12.393  10.215  10.996 -0.8871 -0.8328  0.0532
  178MOL0     H23997  12.538  10.123  11.016 -2.2137 -2.0799  0.4279
  178MOL0     H23998  12.484  10.323  10.787  1.2040 -2.0882 -1.1359
  178MOL0     H23999  12.527  10.367  10.944 -0.9867  1.0360 -1.3171
  178MOL0     H24000  12.683  10.168  10.775 -0.4161 -0.6698  0.3561
  178MOL0     H24001  12.750  10.239  10.922 -2.9508  1.4800  1.9513
  178MOL0     H24002  12.681  10.390  10.653  2.3816 -3.9857 -2.0811
  178MOL0     H24003  12.843  10.338  10.687 -0.2220 -2.6024 -0.2559
  178MOL0     H24004  12.673  10.554  10.835  0.7083  2.1446  1.0380
  178MOL0     H24005  12.832  10.504  10.902 -1.7306 -1.8536  0.7038
  178MOL0     H24006  12.797  10.637  10.635 -1.1739  1.1800  1.9640
  178MOL0     H24007  12.946  10.563  10.707  0.2096  0.3607  0.9498
  178MOL0     H24008  12.950  10.791  10.720 -0.0793 -0.9968 -2.3812
  178MOL0     H24009  12.795  10.805  10.805  1.1878  0.3325 -0.8007
  178MOL0     H24010  12.205   9.964  10.919  2.0036 -0.5139 -0.8234
  178MOL0     H24011  11.962   9.859  10.889 -1.5223 -0.4601 -0.7558
  178MOL0     H24012  11.740   9.462  10.773 -2.8339 -1.8931  0.7092
  178MOL0     H24013  11.509   9.353  10.703 -0.7169  1.7741  2.2196
  178MOL0     H24014   9.930   9.649   9.930  3.5602  2.1377 -0.9157
  178MOL0     H24015   9.695   9.685   9.989  0.8143  3.1571 -2.2579
  178MOL0     H24016   9.385   9.741  10.269  0.4547  1.2619  2.2225
  178MOL0     H24017   9.159   9.762  10.335  2.7603 -0.7816  0.7049
  178MOL0     H24018   8.924  10.020  10.118 -1.4867  2.1291 -0.3986
  178MOL0     H24019   8.905  10.147  10.238 -0.1047 -0.0516  1.7839
  178MOL0     H24020   8.767   9.871  10.272  0.5161  0.4158  2.3420
  178MOL0     H24021   8.691   9.997  10.171 -1.4142 -1.9313 -0.2991
  178MOL0     H24022   8.711  10.154  10.384 -0.9009  0.0288  2.9051
  178MOL0     H24023   8.794  10.022  10.450  1.5891 -0.3455 -1.5718
  178MOL0     H24024   8.557   9.903  10.443 -0.0475  0.6086  0.3851
  178MOL0     H24025   8.553  10.053  10.535  0.1956  0.5565  0.6007
  178MOL0     H24026   8.311  10.112  10.180 -0.5070 -0.9644  0.2438
  178MOL0     H24027   9.132  10.142  10.155  1.6571  1.1722 -0.1532
  178MOL0     H24028   9.411  10.158   9.979  0.9582 -4.7790  0.6933
  178MOL0     H24029   9.309  10.259  10.091  1.2445  0.5973 -0.8940
  178MOL0     H24030   9.469  10.211  10.140  0.8802  0.6740 -2.0529
  179MOL0     O24031  11.183   9.714   3.299 -0.2168 -0.2114  0.1636
  179MOL0     C24032  11.108   9.628   3.338  0.2005 -0.4752  1.0942
  179MOL0     O24033  11.135   9.502   3.345  0.9190  0.3408  0.1087
  179MOL0     C24034  11.266   9.451   3.338 -0.2020  0.3720  0.4236
  179MOL0     C24035  11.285   9.318   3.295 -0.3711 -0.5325  0.9232
  179MOL0     C24036  11.414   9.275   3.292  0.1724  0.2834  0.3796
  179MOL0     C24037  11.529   9.354   3.323 -0.5420 -0.0039  0.1748
  179MOL0     O24038  11.645   9.291   3.295 -1.0281 -0.3627  0.3773
  179MOL0     C24039  11.773   9.356   3.320 -0.3653  0.0694  0.4750
  179MOL0     C24040  11.886   9.255   3.314  0.7576  0.2978  0.1056
  179MOL0     C24041  11.905   9.202   3.170  0.2170 -0.4144 -0.1061
  179MOL0     C24042  12.032   9.114   3.147  0.7866 -0.0086  0.1102
  179MOL0     C24043  12.166   9.189   3.168  0.1314 -0.1924 -0.0503
  179MOL0     C24044  12.193   9.303   3.071  0.6811 -0.3410  0.0506
  179MOL0     C24045  12.347   9.335   3.057  0.8336 -0.0625  0.4554
  179MOL0     C24046  12.369   9.467   2.986  0.2987 -0.1272 -0.0422
  179MOL0     N24047  12.517   9.484   2.949  1.2071  1.0800 -0.4607
  179MOL0     C24048  12.567   9.432   2.835  0.2983  0.4489  0.2932
  179MOL0     C24049  12.696   9.451   2.852 -0.7202 -0.8354  0.1871
  179MOL0     C24050  12.809   9.407   2.766 -0.4029  0.1294 -0.2953
  179MOL0     C24051  12.796   9.470   2.631  0.1690 -0.0492  0.0790
  179MOL0     C24052  12.923   9.466   2.545  0.0694  0.3244  0.1798
  179MOL0     C24053  12.951   9.317   2.505 -0.9020  0.4386 -0.1282
  179MOL0     O24054  13.035   9.302   2.388 -0.1788 -0.4386  0.4277
  179MOL0     C24055  13.167   9.327   2.391 -0.5392  0.4931 -0.8232
  179MOL0     C24056  13.229   9.342   2.266  0.6729 -0.3624  0.5261
  179MOL0     C24057  13.365   9.373   2.255  0.2998 -0.1634  0.1498
  179MOL0     C24058  13.443   9.399   2.375 -0.0089  0.6091 -0.3110
  179MOL0     C24059  13.584   9.443   2.349 -0.1923  0.1694  0.2245
  179MOL0     O24060  13.631   9.455   2.222 -0.5427  0.7067 -0.3204
  179MOL0     C24061  13.767   9.478   2.220  0.0124 -0.3829 -0.2569
  179MOL0     C24062  13.819   9.604   2.194 -0.3921 -0.3634 -0.4685
  179MOL0     C24063  13.958   9.622   2.193 -0.6951 -0.4765 -1.0682
  179MOL0     C24064  14.045   9.518   2.207 -0.6625  0.8773  0.3066
  179MOL0     O24065  14.185   9.540   2.191  0.5425 -0.1846 -0.6994
  179MOL0     C24066  14.287   9.452   2.249 -0.7429  0.2669  0.2625
  179MOL0     C24067  14.405   9.544   2.269  0.1026 -0.1663 -0.5611
  179MOL0     C24068  14.527   9.459   2.295 -1.1600 -0.8295 -0.0770
  179MOL0     C24069  14.642   9.553   2.335  0.0457 -0.8204  0.1832
  179MOL0     C24070  14.617   9.629   2.466 -0.2875  0.0624  0.8143
  179MOL0     C24071  14.754   9.646   2.546  0.6176 -0.5280 -0.0203
  179MOL0     C24072  14.854   9.742   2.475  0.2051  0.2417 -0.6321
  179MOL0     C24073  14.985   9.773   2.556  0.0390 -0.4553 -0.2846
  179MOL0    Cl24074  15.098   9.646   2.569  0.5002  0.0843 -0.3418
  179MOL0     C24075  13.993   9.383   2.228  0.4921 -0.5878  0.6169
  179MOL0     C24076  13.853   9.363   2.232 -0.6010 -0.0277 -0.0575
  179MOL0     O24077  13.645   9.454   2.447 -1.0476 -0.8014 -0.1609
  179MOL0     C24078  13.385   9.377   2.508 -0.3728  0.0492 -0.1152
  179MOL0     C24079  13.245   9.338   2.514  0.5334  0.5401  0.0687
  179MOL0     N24080  12.718   9.521   2.966 -0.5084  0.2152 -0.6891
  179MOL0     N24081  12.615   9.534   3.031  0.5754  0.2841 -0.9129
  179MOL0     C24082  11.509   9.484   3.368  0.3676 -0.7302 -0.5185
  179MOL0     C24083  11.375   9.527   3.374  0.0736  0.7942 -0.6726
  179MOL0     C24084  10.964   9.671   3.364  0.0927 -0.1408 -0.5516
  179MOL0     C24085  10.917   9.798   3.308 -0.5438  0.1297 -0.8921
  179MOL0     C24086  10.787   9.835   3.332  0.0108  0.3019  0.4453
  179MOL0     C24087  10.707   9.762   3.411 -0.0184  0.5637  0.1038
  179MOL0     O24088  10.580   9.815   3.435  0.4459 -0.2345 -0.6328
  179MOL0     C24089  10.472   9.735   3.489  0.8972 -0.1517 -0.1726
  179MOL0     C24090  10.340   9.793   3.433  0.5905  0.1594  0.1887
  179MOL0     C24091  10.222   9.699   3.485  0.5931 -0.6701 -0.1652
  179MOL0     C24092  10.087   9.738   3.424  0.0065  0.2280  0.2051
  179MOL0     C24093  10.092   9.718   3.277 -0.9004  0.2816  0.4477
  179MOL0     C24094  10.094   9.697   3.157 -0.5249  0.8502  0.0183
  179MOL0     C24095  10.749   9.650   3.471  1.0826  0.2845 -0.0886
  179MOL0     C24096  10.879   9.606   3.459 -0.6354 -0.2573  0.7662
  179MOL0     C24097  10.942   9.518   3.570  0.2218  0.2849 -0.0693
  179MOL0     H24098  11.211   9.245   3.262  1.6105 -2.3828  0.2782
  179MOL0     H24099  11.432   9.170   3.272  0.4799  0.3648  0.2233
  179MOL0     H24100  11.789   9.439   3.251  2.3089  0.9246  1.9505
  179MOL0     H24101  11.776   9.386   3.426  1.4278 -0.1613  0.5178
  179MOL0     H24102  11.863   9.166   3.373 -2.0359 -0.4072 -1.8483
  179MOL0     H24103  11.967   9.316   3.355 -0.3394  0.7249  1.7190
  179MOL0     H24104  11.920   9.296   3.114 -1.2638 -0.5808 -0.8232
  179MOL0     H24105  11.813   9.156   3.133 -0.1822  0.8438 -0.7402
  179MOL0     H24106  12.031   9.020   3.204  0.1697 -0.3576 -0.4714
  179MOL0     H24107  12.029   9.082   3.043 -3.8881  1.1246 -0.2945
  179MOL0     H24108  12.161   9.222   3.272 -1.5012 -0.6500  0.0412
  179MOL0     H24109  12.244   9.112   3.160  1.1132  0.8520 -0.8222
  179MOL0     H24110  12.155   9.286   2.970  1.4048 -2.8997  0.1476
  179MOL0     H24111  12.147   9.385   3.126  2.1657 -1.2640  2.8165
  179MOL0     H24112  12.395   9.253   3.002 -2.3407  0.2903 -3.2876
  179MOL0     H24113  12.390   9.349   3.156  0.0606  0.7650  0.6868
  179MOL0     H24114  12.296   9.462   2.904 -0.3499  2.5605  0.2566
  179MOL0     H24115  12.337   9.541   3.060 -1.9761  0.3059 -1.3795
  179MOL0     H24116  12.521   9.383   2.750  1.4645  2.2518 -1.4893
  179MOL0     H24117  12.906   9.439   2.805 -0.2671 -0.4006 -0.1909
  179MOL0     H24118  12.821   9.298   2.757 -1.8880 -0.2945  1.9393
  179MOL0     H24119  12.704   9.433   2.585 -0.0762  1.5051 -0.7395
  179MOL0     H24120  12.781   9.577   2.648  0.9892 -0.3930  3.5869
  179MOL0     H24121  13.001   9.512   2.607 -0.3841  1.0575  0.2264
  179MOL0     H24122  12.906   9.538   2.464  0.7038  0.8716  0.5243
  179MOL0     H24123  12.857   9.262   2.491 -0.5540 -0.1403 -0.2341
  179MOL0     H24124  13.004   9.266   2.586 -0.0121 -0.0259 -0.9833
  179MOL0     H24125  13.165   9.331   2.179  1.2583 -0.6992  0.1252
  179MOL0     H24126  13.414   9.392   2.160 -1.0875  0.2628 -0.5127
  179MOL0     H24127  13.745   9.678   2.168  2.6591  3.0291 -0.3283
  179MOL0     H24128  14.009   9.718   2.179 -0.4198 -0.4885 -0.2273
  179MOL0     H24129  14.251   9.398   2.337 -1.4468 -1.2267 -0.8900
  179MOL0     H24130  14.321   9.384   2.171 -0.7420  0.2428  0.2844
  179MOL0     H24131  14.426   9.614   2.189  1.0377  1.2878  0.8929
  179MOL0     H24132  14.371   9.606   2.353 -1.3321  0.3919 -1.5020
  179MOL0     H24133  14.493   9.395   2.377  1.3037 -2.1549 -0.0022
  179MOL0     H24134  14.564   9.398   2.213  0.3700 -1.1357  0.8076
  179MOL0     H24135  14.663   9.626   2.256  1.7701  0.1346  1.4574
  179MOL0     H24136  14.727   9.485   2.349 -1.3924 -2.1425  4.0738
  179MOL0     H24137  14.552   9.565   2.528  0.9749 -1.5355  0.5579
  179MOL0     H24138  14.563   9.721   2.443  1.2698  0.4842 -1.5346
  179MOL0     H24139  14.742   9.674   2.651  0.9667 -3.6232  0.9537
  179MOL0     H24140  14.803   9.548   2.545  3.4533  0.7616  1.5520
  179MOL0     H24141  14.792   9.829   2.451 -2.2680 -1.1482  0.3606
  179MOL0     H24142  14.881   9.701   2.377  1.2561  0.6259 -0.5135
  179MOL0     H24143  15.037   9.857   2.510 -1.0628  0.7846  0.6582
  179MOL0     H24144  14.949   9.798   2.656  0.0447  1.8146 -0.7823
  179MOL0     H24145  14.065   9.304   2.247  0.4757 -1.5816 -2.7994
  179MOL0     H24146  13.811   9.264   2.241 -1.1022 -0.0532 -2.1374
  179MOL0     H24147  13.459   9.384   2.588  0.4304 -1.1008 -0.7332
  179MOL0     H24148  13.208   9.309   2.612  3.9232 -0.4751  1.2052
  179MOL0     H24149  11.596   9.545   3.387  0.3044 -0.5852 -0.6980
  179MOL0     H24150  11.364   9.628   3.412  1.6188  0.8263 -0.2212
  179MOL0     H24151  10.986   9.844   3.238 -1.2196 -2.5156 -3.4911
  179MOL0     H24152  10.741   9.925   3.291 -1.0525  0.5221  2.0454
  179MOL0     H24153  10.471   9.746   3.598 -0.0108  0.4363 -0.2336
  179MOL0     H24154  10.482   9.631   3.457 -3.4781 -0.6383 -0.6564
  179MOL0     H24155  10.348   9.787   3.324 -0.3098 -0.6614  0.1613
  179MOL0     H24156  10.336   9.898   3.463  0.9553  0.7064 -1.5541
  179MOL0     H24157  10.211   9.715   3.593  1.5959 -0.5530 -0.0712
  179MOL0     H24158  10.247   9.599   3.450 -2.2554 -0.7920 -2.2117
  179MOL0     H24159  10.008   9.670   3.457  0.6835 -0.0015  1.3860
  179MOL0     H24160  10.054   9.841   3.442  1.3803  0.5396  1.0794
  179MOL0     H24161  10.108   9.682   3.052  1.4163  0.7206  0.2631
  179MOL0     H24162  10.695   9.599   3.551  1.4688  1.0154  0.6606
  179MOL0     H24163  10.887   9.510   3.664  1.3131  2.7743  0.8698
  179MOL0     H24164  10.958   9.421   3.521 -0.4860  0.9530 -1.7166
  179MOL0     H24165  11.040   9.560   3.589 -0.1015  3.0723 -3.4685
  180MOL0     O24166  10.529  10.273   8.320 -0.3467  0.3967  0.1014
  180MOL0     C24167  10.528  10.394   8.309 -0.5449 -0.5735  0.1637
  180MOL0     O24168  10.628  10.477   8.344 -0.6786 -0.8155  0.6473
  180MOL0     C24169  10.759  10.436   8.354 -0.3219 -0.0449  0.3890
  180MOL0     C24170  10.836  10.489   8.459 -0.0948  0.7820  0.3510
  180MOL0     C24171  10.971  10.451   8.465 -0.0591 -0.2889  0.6658
  180MOL0     C24172  11.031  10.365   8.376  0.5242  0.2702 -0.2727
  180MOL0     O24173  11.160  10.329   8.386 -0.7437 -0.0518  0.3305
  180MOL0     C24174  11.259  10.401   8.458 -0.3454 -0.3107 -0.5844
  180MOL0     C24175  11.391  10.332   8.480 -0.0991 -0.1489 -0.6654
  180MOL0     C24176  11.483  10.427   8.571 -0.0360 -0.6692  0.0506
  180MOL0     C24177  11.556  10.349   8.675  0.0429 -0.1757 -0.0387
  180MOL0     C24178  11.668  10.434   8.736  1.5057 -0.5300 -0.1573
  180MOL0     C24179  11.783  10.484   8.649 -0.2000  0.5660  0.4021
  180MOL0     C24180  11.915  10.512   8.733 -0.3052 -0.0017  0.2376
  180MOL0     C24181  11.982  10.389   8.801 -0.2424  0.6672  0.0834
  180MOL0     N24182  12.052  10.295   8.715  0.6626 -0.1627  0.1999
  180MOL0     C24183  11.990  10.183   8.666 -0.0667  0.8425  0.0708
  180MOL0     C24184  12.077  10.134   8.571  0.0812  0.1459 -0.3057
  180MOL0     C24185  12.073  10.009   8.486  0.3486  0.5710  0.3547
  180MOL0     C24186  12.212   9.975   8.426 -0.1185 -0.1315  0.6734
  180MOL0     C24187  12.206   9.861   8.335  0.0000  0.1571  0.6763
  180MOL0     C24188  12.333   9.778   8.296  0.3863 -0.1961  0.3416
  180MOL0     O24189  12.391   9.824   8.172  0.0998 -0.3012  0.4005
  180MOL0     C24190  12.503   9.765   8.113 -0.7589  0.4752 -0.5271
  180MOL0     C24191  12.580   9.841   8.033 -0.5838 -0.2450  0.2833
  180MOL0     C24192  12.705   9.788   7.982  0.0910 -0.6102 -0.9773
  180MOL0     C24193  12.751   9.667   8.006  0.3734  0.8710 -0.0694
  180MOL0     C24194  12.881   9.629   7.958 -0.4653 -1.0383 -0.4192
  180MOL0     O24195  12.942   9.718   7.872  0.1320 -0.6028  0.1286
  180MOL0     C24196  13.072   9.686   7.840 -0.1271  0.1172 -0.0947
  180MOL0     C24197  13.100   9.628   7.719  0.2558 -0.8135  0.0723
  180MOL0     C24198  13.230   9.607   7.677 -1.0150  0.5532  0.6051
  180MOL0     C24199  13.338   9.622   7.764  0.1028 -0.5531  0.0403
  180MOL0     O24200  13.471   9.597   7.735 -0.0019 -0.4001 -0.3124
  180MOL0     C24201  13.506   9.566   7.602  0.4583 -0.3088  0.1508
  180MOL0     C24202  13.652   9.521   7.583  0.8799  0.1536 -0.5575
  180MOL0     C24203  13.741   9.651   7.567  0.1916 -0.0516  0.2747
  180MOL0     C24204  13.883   9.608   7.538  0.2465  0.6197 -0.4800
  180MOL0     C24205  13.968   9.736   7.525  0.5494 -0.0251 -0.4410
  180MOL0     C24206  14.109   9.722   7.466 -0.1613  0.0908  0.2076
  180MOL0     C24207  14.103   9.730   7.315 -0.6359  0.6737  0.2344
  180MOL0     C24208  14.254   9.740   7.255  0.9715 -0.0670  0.2664
  180MOL0    Cl24209  14.329   9.889   7.291 -0.2234  0.0162  0.4742
  180MOL0     C24210  13.313   9.678   7.891  0.7848  0.1022 -0.1331
  180MOL0     C24211  13.181   9.722   7.920  0.8926 -0.9727 -0.4057
  180MOL0     O24212  12.930   9.529   8.014 -0.1038 -0.5023 -0.3121
  180MOL0     C24213  12.667   9.586   8.083 -0.6273 -0.6229  0.6153
  180MOL0     C24214  12.547   9.631   8.141 -0.9924 -0.0881  0.2150
  180MOL0     N24215  12.185  10.214   8.564 -0.2259 -0.2525 -0.1306
  180MOL0     N24216  12.169  10.308   8.649  0.5541  0.0261 -0.3972
  180MOL0     C24217  10.960  10.303   8.273  0.5394  0.7994 -0.3809
  180MOL0     C24218  10.821  10.337   8.267 -0.5959 -0.0029  0.2682
  180MOL0     C24219  10.402  10.456   8.255  0.0587 -0.0804  0.0063
  180MOL0     C24220  10.315  10.383   8.176  0.4802 -0.1206 -0.4553
  180MOL0     C24221  10.194  10.436   8.132 -0.4818  0.1114  1.1122
  180MOL0     C24222  10.153  10.564   8.174 -0.0508  0.1054 -0.0048
  180MOL0     O24223  10.023  10.588   8.137  0.4068  0.3434 -1.0695
  180MOL0     C24224   9.952  10.698   8.195 -0.0045 -0.5886 -0.0760
  180MOL0     C24225   9.891  10.654   8.329 -0.1450  0.2927 -0.2042
  180MOL0     C24226   9.762  10.721   8.361  0.0203 -0.0210  0.0342
  180MOL0     C24227   9.738  10.731   8.509  0.5480 -0.2619  0.8216
  180MOL0     C24228   9.843  10.788   8.596  0.0573 -1.7968 -0.0839
  180MOL0     C24229   9.925  10.843   8.669  0.2284  0.1970 -0.1291
  180MOL0     C24230  10.239  10.642   8.254 -0.7454  0.8605  0.9757
  180MOL0     C24231  10.364  10.592   8.283  0.2408  0.1280  0.0116
  180MOL0     C24232  10.444  10.692   8.370 -0.5190  0.9025  0.4375
  180MOL0     H24233  10.791  10.568   8.518  0.3429  2.3779 -1.3523
  180MOL0     H24234  11.026  10.497   8.547 -0.9374  0.4266  0.8697
  180MOL0     H24235  11.278  10.495   8.406 -0.5461  0.7473  1.1726
  180MOL0     H24236  11.229  10.434   8.558  4.3828  0.8235  0.7414
  180MOL0     H24237  11.443  10.296   8.390  1.1781  3.0449 -1.3167
  180MOL0     H24238  11.371  10.238   8.532  1.6355  0.3581  1.0010
  180MOL0     H24239  11.415  10.496   8.623 -0.9354 -1.6503  0.2106
  180MOL0     H24240  11.546  10.487   8.505  2.4764  0.6714  3.4227
  180MOL0     H24241  11.485  10.319   8.753 -1.5227  0.2323 -1.2425
  180MOL0     H24242  11.607  10.261   8.634  2.7121  0.1964  2.1491
  180MOL0     H24243  11.617  10.527   8.763  1.9395  0.5577 -2.7455
  180MOL0     H24244  11.695  10.388   8.831  2.3577 -0.9243 -0.5874
  180MOL0     H24245  11.810  10.407   8.575  2.3521 -0.1753  1.9726
  180MOL0     H24246  11.747  10.575   8.601 -1.6010  0.2800  0.8555
  180MOL0     H24247  11.893  10.578   8.817 -1.6303 -0.3593  0.2064
  180MOL0     H24248  11.979  10.568   8.665 -1.3507  4.0151  2.2559
  180MOL0     H24249  12.049  10.425   8.880 -1.3586  1.5818  0.6332
  180MOL0     H24250  11.906  10.332   8.856 -2.2568  1.6804 -1.5062
  180MOL0     H24251  11.895  10.139   8.692  0.0891  0.9684  0.8589
  180MOL0     H24252  12.033   9.929   8.550  2.7669 -2.2139 -1.3613
  180MOL0     H24253  12.006  10.032   8.402  1.6006  1.7954 -0.3352
  180MOL0     H24254  12.265  10.060   8.383  0.5528 -0.7398  0.2621
  180MOL0     H24255  12.267   9.945   8.516  0.3577  1.1214  0.8136
  180MOL0     H24256  12.156   9.890   8.242 -0.2923 -0.9910  0.4684
  180MOL0     H24257  12.135   9.796   8.387 -0.0850 -0.2358  0.0673
  180MOL0     H24258  12.304   9.674   8.283  0.1829  0.0957 -1.7513
  180MOL0     H24259  12.405   9.768   8.378  1.0063 -0.9527 -0.2899
  180MOL0     H24260  12.538   9.939   8.010 -0.5224 -0.6502 -1.6958
  180MOL0     H24261  12.770   9.855   7.926  0.2703  0.9857  1.0314
  180MOL0     H24262  13.014   9.598   7.660  1.3038  0.6354 -2.3489
  180MOL0     H24263  13.240   9.545   7.589  2.4958 -0.2850  1.4273
  180MOL0     H24264  13.437   9.483   7.579  0.1816 -0.2096  0.6145
  180MOL0     H24265  13.489   9.651   7.535  4.5465  0.0839 -0.6559
  180MOL0     H24266  13.672   9.460   7.672  1.3617 -1.4012 -1.6913
  180MOL0     H24267  13.671   9.452   7.500  1.2485 -0.2139 -0.1740
  180MOL0     H24268  13.705   9.717   7.487 -1.3736  1.4939  2.1425
  180MOL0     H24269  13.738   9.703   7.663 -0.7876 -0.9067  0.7271
  180MOL0     H24270  13.889   9.543   7.450  0.7699 -0.4619  0.3409
  180MOL0     H24271  13.923   9.550   7.621 -0.5588  0.7366  0.0033
  180MOL0     H24272  13.966   9.772   7.628 -0.9109  2.4298 -1.2520
  180MOL0     H24273  13.917   9.803   7.456 -0.1399 -1.9546 -1.9063
  180MOL0     H24274  14.164   9.803   7.515 -1.3519  1.1032 -0.0666
  180MOL0     H24275  14.143   9.622   7.493  0.7867 -0.5185 -2.8748
  180MOL0     H24276  14.053   9.812   7.264 -1.3002  0.2727  0.2310
  180MOL0     H24277  14.055   9.636   7.285  2.3124 -2.0057  3.0140
  180MOL0     H24278  14.312   9.654   7.287 -1.0803 -1.8269 -0.5013
  180MOL0     H24279  14.249   9.729   7.146  1.3009 -0.7701  0.3205
  180MOL0     H24280  13.396   9.684   7.961 -1.0923 -2.2356  2.5528
  180MOL0     H24281  13.150   9.783   8.005 -1.1493  2.9511 -3.6405
  180MOL0     H24282  12.691   9.482   8.103 -2.0324 -0.7506  1.8236
  180MOL0     H24283  12.500   9.569   8.216 -1.3475  0.2435  0.2738
  180MOL0     H24284  10.995  10.233   8.198  1.9208  2.3081 -1.2021
  180MOL0     H24285  10.764  10.293   8.185 -1.7380 -1.6127  1.8468
  180MOL0     H24286  10.322  10.277   8.156  0.7920 -0.3058  0.6033
  180MOL0     H24287  10.125  10.360   8.095  0.3406 -0.2279  0.2324
  180MOL0     H24288   9.873  10.726   8.125  0.2242  3.2140  0.9678
  180MOL0     H24289  10.020  10.783   8.202  0.9905 -1.3663  0.0602
  180MOL0     H24290   9.974  10.684   8.394 -1.2513  2.5848  0.2880
  180MOL0     H24291   9.858  10.550   8.330 -0.5024  0.3999 -0.5035
  180MOL0     H24292   9.679  10.675   8.308  0.2151 -0.7443  0.3501
  180MOL0     H24293   9.750  10.823   8.323 -3.6141 -0.7486 -1.1312
  180MOL0     H24294   9.643  10.784   8.515 -0.5759 -1.0816 -4.6694
  180MOL0     H24295   9.716  10.632   8.551 -2.2045  0.0005  0.2144
  180MOL0     H24296  10.006  10.884   8.724 -0.4146 -0.4998  1.4088
  180MOL0     H24297  10.217  10.741   8.292  1.5568  1.6032  0.5789
  180MOL0     H24298  10.386  10.779   8.403  0.9823  1.2176  2.4180
  180MOL0     H24299  10.480  10.654   8.466 -1.2290 -1.7364 -0.2797
  180MOL0     H24300  10.533  10.724   8.314 -0.3892 -1.3467 -0.7708
  181MOL0     O24301  11.218   2.628   6.230  0.4695  0.1854  0.6004
  181MOL0     C24302  11.123   2.627   6.152  0.0657 -0.3874  0.3653
  181MOL0     O24303  11.090   2.736   6.072  0.9074  0.3790 -0.0798
  181MOL0     C24304  11.180   2.838   6.064 -0.2544 -0.2173 -0.9921
  181MOL0     C24305  11.172   2.949   6.143  0.7127 -0.4890 -0.3093
  181MOL0     C24306  11.264   3.049   6.124  0.3311 -0.2613 -0.0217
  181MOL0     C24307  11.381   3.033   6.055 -0.8337 -0.3916 -0.7551
  181MOL0     O24308  11.474   3.139   6.071  0.4239  0.8656 -0.3635
  181MOL0     C24309  11.565   3.169   5.972  0.2155  0.3062  0.0769
  181MOL0     C24310  11.699   3.229   6.018  1.2765 -0.2157  0.3911
  181MOL0     C24311  11.696   3.372   6.066  0.2879 -0.7614  0.2373
  181MOL0     C24312  11.841   3.428   6.097 -0.2894  0.5876  0.1328
  181MOL0     C24313  11.903   3.346   6.211 -0.8336 -1.0154 -0.7222
  181MOL0     C24314  12.038   3.401   6.253 -0.1945  0.2424 -0.2555
  181MOL0     C24315  12.147   3.373   6.148  0.0970  0.7199  0.0559
  181MOL0     C24316  12.280   3.437   6.181  0.2395  1.0558  0.2120
  181MOL0     N24317  12.377   3.396   6.078  0.3862  0.2801  0.0832
  181MOL0     C24318  12.436   3.277   6.066 -1.2240  0.3845  0.2434
  181MOL0     C24319  12.517   3.292   5.956 -0.4313  0.7447 -0.0501
  181MOL0     C24320  12.606   3.186   5.903  0.5387 -0.0137 -0.3332
  181MOL0     C24321  12.746   3.189   5.966 -0.5572 -0.1481  0.1009
  181MOL0     C24322  12.846   3.287   5.906  0.4990  0.8162 -0.5229
  181MOL0     C24323  12.989   3.260   5.954 -0.9297 -0.3427  0.4993
  181MOL0     O24324  13.076   3.351   5.887  0.2001 -0.8191  0.4052
  181MOL0     C24325  13.205   3.313   5.888 -0.3276 -0.3461  0.2632
  181MOL0     C24326  13.278   3.353   5.998 -0.3831  0.9554 -0.3479
  181MOL0     C24327  13.423   3.338   5.996  0.7591 -0.4007 -0.1835
  181MOL0     C24328  13.482   3.256   5.893  1.0767 -0.6672  0.1215
  181MOL0     C24329  13.628   3.226   5.882  0.1856  0.5906  0.3681
  181MOL0     O24330  13.709   3.296   5.967  1.0387  0.0578 -0.3552
  181MOL0     C24331  13.840   3.305   5.967 -0.6636  0.0452 -0.7937
  181MOL0     C24332  13.892   3.397   6.059 -0.4808 -0.0790  0.2301
  181MOL0     C24333  14.030   3.415   6.075 -0.5634 -0.1274 -0.1319
  181MOL0     C24334  14.119   3.350   5.998 -0.8050 -0.1388  0.2696
  181MOL0     O24335  14.252   3.381   6.004 -0.7890 -0.2260  0.9227
  181MOL0     C24336  14.345   3.347   5.902 -0.0451  0.7338 -0.0257
  181MOL0     C24337  14.479   3.400   5.929  0.9218 -0.1231 -0.7593
  181MOL0     C24338  14.567   3.359   5.817  0.4926 -0.7455 -0.0479
  181MOL0     C24339  14.714   3.409   5.844  0.4359 -0.3458 -0.6234
  181MOL0     C24340  14.815   3.365   5.732 -0.5300 -0.2755 -0.0577
  181MOL0     C24341  14.954   3.428   5.756  0.0767 -0.5268 -0.1485
  181MOL0     C24342  15.040   3.375   5.643  1.3857 -0.1722 -0.2977
  181MOL0     C24343  15.178   3.350   5.700 -1.1124 -0.2753  0.1643
  181MOL0    Cl24344  15.283   3.496   5.728 -0.0927  0.5099 -0.1893
  181MOL0     C24345  14.068   3.265   5.900  0.3430  0.0818 -0.3656
  181MOL0     C24346  13.930   3.230   5.894 -0.1258 -0.4355 -0.1780
  181MOL0     O24347  13.674   3.153   5.793  0.3892 -0.4160  0.0749
  181MOL0     C24348  13.393   3.215   5.786 -0.1605 -0.2023  0.0078
  181MOL0     C24349  13.257   3.238   5.784 -0.8308 -0.0873 -0.5636
  181MOL0     N24350  12.505   3.414   5.903 -0.3121 -0.5244  0.1449
  181MOL0     N24351  12.416   3.475   5.972  0.2874 -0.1650  0.1101
  181MOL0     C24352  11.392   2.916   5.974 -0.1067 -0.5422 -0.0196
  181MOL0     C24353  11.284   2.819   5.976  0.6509 -0.6466 -0.8470
  181MOL0     C24354  11.042   2.507   6.138  0.1809  0.2739 -0.1926
  181MOL0     C24355  10.949   2.509   6.029  0.4995  0.1867 -0.4605
  181MOL0     C24356  10.870   2.397   6.004  0.2042  0.2061 -0.2398
  181MOL0     C24357  10.881   2.278   6.076 -0.2853  0.4645  0.4125
  181MOL0     O24358  10.805   2.166   6.055 -0.5964 -0.4796  0.6826
  181MOL0     C24359  10.698   2.162   5.958  0.6313 -1.0672  0.4889
  181MOL0     C24360  10.646   2.016   5.947  0.3453 -0.4195  0.3058
  181MOL0     C24361  10.515   2.015   5.867  0.2651 -1.2816 -0.4004
  181MOL0     C24362  10.438   1.891   5.887  0.1138  0.2525  0.0409
  181MOL0     C24363  10.480   1.789   5.793  0.1358 -0.5263 -0.7649
  181MOL0     C24364  10.521   1.724   5.699  0.2783  0.0026  1.1573
  181MOL0     C24365  10.974   2.275   6.184  0.1141  0.6367 -0.2034
  181MOL0     C24366  11.051   2.385   6.217  0.7687 -0.2910 -0.2504
  181MOL0     C24367  11.150   2.370   6.332 -0.4543 -0.1319  0.5136
  181MOL0     H24368  11.091   2.967   6.213  0.7372 -0.5008 -0.2780
  181MOL0     H24369  11.249   3.140   6.181 -0.3887 -1.7104  2.2182
  181MOL0     H24370  11.588   3.075   5.922 -0.7831 -0.2526  0.6472
  181MOL0     H24371  11.522   3.222   5.886  0.4568  0.1733 -0.1277
  181MOL0     H24372  11.772   3.227   5.936  0.7147  3.6280 -0.4036
  181MOL0     H24373  11.738   3.164   6.097  3.4796  2.1573  1.3981
  181MOL0     H24374  11.634   3.379   6.156 -0.2180 -0.3561 -0.1336
  181MOL0     H24375  11.655   3.434   5.986  3.8207 -1.7117 -2.5694
  181MOL0     H24376  11.901   3.418   6.006 -0.7075 -0.4495 -0.0410
  181MOL0     H24377  11.817   3.530   6.127 -0.8425  0.3480  0.5046
  181MOL0     H24378  11.840   3.362   6.299  0.6718  0.4310  0.1576
  181MOL0     H24379  11.907   3.238   6.195  1.1113 -1.2063  0.6336
  181MOL0     H24380  12.032   3.510   6.256  3.5505  0.5811  0.3738
  181MOL0     H24381  12.059   3.373   6.356  3.4832  2.8989 -0.0913
  181MOL0     H24382  12.101   3.397   6.051 -1.2189  0.0004  0.4812
  181MOL0     H24383  12.155   3.265   6.138 -0.3920  0.8662 -2.6942
  181MOL0     H24384  12.269   3.545   6.175 -0.5590  0.9842  0.2859
  181MOL0     H24385  12.311   3.401   6.280 -1.0595 -0.7964 -0.0013
  181MOL0     H24386  12.434   3.183   6.121  0.7473  0.4946  0.5836
  181MOL0     H24387  12.564   3.086   5.913 -1.9762  0.6802 -2.8646
  181MOL0     H24388  12.617   3.196   5.795 -2.7157  0.3111 -0.7235
  181MOL0     H24389  12.737   3.193   6.075  0.4529  0.1337  0.1888
  181MOL0     H24390  12.790   3.091   5.945 -0.3868  0.3103 -1.9861
  181MOL0     H24391  12.820   3.389   5.936 -1.1178  0.2387  0.1428
  181MOL0     H24392  12.828   3.278   5.799 -0.6586 -1.2808 -0.2044
  181MOL0     H24393  13.026   3.159   5.933 -0.1681 -0.2377  1.2541
  181MOL0     H24394  12.997   3.280   6.062 -2.3552 -0.0341  0.5763
  181MOL0     H24395  13.229   3.407   6.079 -2.0064 -1.8596  0.7192
  181MOL0     H24396  13.482   3.377   6.078 -0.8136 -1.6626  1.6337
  181MOL0     H24397  13.830   3.460   6.122  0.8498 -0.9659  2.5297
  181MOL0     H24398  14.074   3.490   6.141 -0.2057  0.5524 -1.1174
  181MOL0     H24399  14.356   3.239   5.892  0.2564  0.8801 -1.4686
  181MOL0     H24400  14.320   3.382   5.802 -1.0060 -2.4129 -1.0109
  181MOL0     H24401  14.468   3.508   5.936  0.3872 -0.2837  2.7863
  181MOL0     H24402  14.518   3.357   6.023 -1.3807 -1.9700 -0.5484
  181MOL0     H24403  14.575   3.250   5.810  1.1085 -0.9476  2.7710
  181MOL0     H24404  14.537   3.414   5.727 -2.6185 -0.8851  0.8080
  181MOL0     H24405  14.755   3.373   5.938 -3.9639  1.2476  2.1937
  181MOL0     H24406  14.714   3.518   5.848  1.2697 -0.3325 -0.8090
  181MOL0     H24407  14.776   3.405   5.638 -1.7408 -2.9500 -0.8063
  181MOL0     H24408  14.817   3.256   5.725 -1.0614 -0.1662 -3.9035
  181MOL0     H24409  14.962   3.537   5.754  1.8480 -0.6400 -0.6172
  181MOL0     H24410  15.002   3.399   5.850 -0.0686  3.4439  1.3333
  181MOL0     H24411  15.041   3.448   5.561  0.6305 -0.7114 -0.8007
  181MOL0     H24412  14.992   3.284   5.607  1.1207 -0.9729  1.9236
  181MOL0     H24413  15.185   3.284   5.788  0.4669 -0.1219  0.1828
  181MOL0     H24414  15.232   3.284   5.632 -1.5276  0.5406 -0.9795
  181MOL0     H24415  14.131   3.213   5.829  0.0997 -1.6180  0.6005
  181MOL0     H24416  13.905   3.160   5.814  1.4775  0.7517 -1.8118
  181MOL0     H24417  13.447   3.160   5.710 -0.4832  0.3678 -0.6380
  181MOL0     H24418  13.188   3.212   5.704 -1.0822 -1.1787 -0.0159
  181MOL0     H24419  11.479   2.903   5.911  0.6203  4.1216 -0.3069
  181MOL0     H24420  11.295   2.733   5.912 -0.1607 -0.5088 -1.1814
  181MOL0     H24421  10.929   2.593   5.963  0.4883  1.9146  1.6686
  181MOL0     H24422  10.801   2.405   5.921  1.4596  1.5486 -1.2067
  181MOL0     H24423  10.721   2.207   5.860  1.5734 -0.2316  1.0790
  181MOL0     H24424  10.621   2.223   6.005  1.5349  1.6561 -1.2688
  181MOL0     H24425  10.637   1.965   6.044  0.9963 -2.0622 -0.4566
  181MOL0     H24426  10.713   1.963   5.879 -0.9813  0.2439 -1.5801
  181MOL0     H24427  10.540   2.032   5.761  2.2188 -4.2350 -0.5300
  181MOL0     H24428  10.456   2.101   5.898  0.5678 -0.8724 -0.9308
  181MOL0     H24429  10.452   1.852   5.988 -1.7782  0.8338  0.5633
  181MOL0     H24430  10.332   1.910   5.865  0.4120  0.3520 -1.4335
  181MOL0     H24431  10.548   1.664   5.614  1.3923  0.0107  1.4980
  181MOL0     H24432  10.981   2.184   6.243 -1.6760  1.1549  0.8825
  181MOL0     H24433  11.119   2.276   6.379  1.3826  0.0894  2.3181
  181MOL0     H24434  11.252   2.363   6.291 -0.4512 -2.2542  0.7800
  181MOL0     H24435  11.144   2.455   6.400 -1.4683  1.1837 -1.1398
  182MOL0     O24436   4.279   0.260   5.139  0.1554 -0.3137  0.8773
  182MOL0     C24437   4.312   0.284   5.021  0.4072 -0.3082 -0.3522
  182MOL0     O24438   4.240   0.347   4.933 -0.1543 -0.8312  0.1955
  182MOL0     C24439   4.119   0.394   4.975 -0.4114  0.2926  1.1981
  182MOL0     C24440   4.011   0.319   4.947  0.1386  0.3014 -0.1463
  182MOL0     C24441   3.885   0.370   4.959  0.2876  0.5476 -0.2198
  182MOL0     C24442   3.856   0.503   4.990 -0.4769  1.0523 -0.0169
  182MOL0     O24443   3.723   0.534   4.967 -0.1561  0.3980 -0.3568
  182MOL0     C24444   3.702   0.671   4.952 -0.3707  0.5763  0.2660
  182MOL0     C24445   3.550   0.688   4.938  0.5592 -0.9542  1.2049
  182MOL0     C24446   3.456   0.604   5.023 -0.0596 -0.4300 -0.8735
  182MOL0     C24447   3.311   0.636   4.988 -0.9847 -0.2915 -0.3610
  182MOL0     C24448   3.209   0.588   5.098  0.1710  0.5958 -0.5025
  182MOL0     C24449   3.067   0.638   5.069 -0.5395 -0.3895 -0.1177
  182MOL0     C24450   2.972   0.577   5.170 -0.3074  0.1555  0.0555
  182MOL0     C24451   2.834   0.636   5.167  1.1584 -0.4496 -0.3500
  182MOL0     N24452   2.731   0.581   5.251  0.0148 -0.5614  0.3241
  182MOL0     C24453   2.631   0.504   5.213 -0.0589 -0.6569  0.5091
  182MOL0     C24454   2.555   0.483   5.321  0.1384  0.3647  0.2913
  182MOL0     C24455   2.426   0.405   5.328 -0.6666 -0.4749 -0.3449
  182MOL0     C24456   2.452   0.256   5.346  0.1112  1.0252  0.5506
  182MOL0     C24457   2.539   0.232   5.477 -0.1369 -0.4530  0.8692
  182MOL0     C24458   2.636   0.118   5.479  0.2130 -0.2108 -0.1984
  182MOL0     O24459   2.740   0.147   5.381  0.6269  0.2218 -0.0870
  182MOL0     C24460   2.845   0.056   5.368  0.0001  0.3227  0.8854
  182MOL0     C24461   2.926   0.078   5.259  0.0674  0.3278  0.5450
  182MOL0     C24462   3.026  -0.016   5.229  0.0903  0.0752  0.6967
  182MOL0     C24463   3.046  -0.132   5.316  0.6213  0.0198  0.5667
  182MOL0     C24464   3.172  -0.210   5.294 -0.7291  0.5473 -1.0044
  182MOL0     O24465   3.226  -0.213   5.170  0.2989  0.9216 -0.3668
  182MOL0     C24466   3.340  -0.293   5.151 -0.3341 -0.0396 -0.5627
  182MOL0     C24467   3.323  -0.425   5.119  0.1228 -0.2505  0.4755
  182MOL0     C24468   3.438  -0.505   5.103  0.4851  0.2176 -0.2202
  182MOL0     C24469   3.566  -0.448   5.098 -1.1077 -0.6615 -0.3782
  182MOL0     O24470   3.673  -0.521   5.055  0.7246  0.0223  0.8173
  182MOL0     C24471   3.696  -0.626   5.149 -0.4672  0.3564  0.6804
  182MOL0     C24472   3.842  -0.669   5.136  0.1952 -0.3137  0.5264
  182MOL0     C24473   3.921  -0.552   5.179  0.4701 -0.0690  0.3828
  182MOL0     C24474   4.077  -0.583   5.163  0.8625  0.1826  0.3671
  182MOL0     C24475   4.166  -0.462   5.164  0.4538 -0.0139  0.7567
  182MOL0     C24476   4.178  -0.407   5.300  0.8263  0.3314 -0.5449
  182MOL0     C24477   4.063  -0.332   5.364 -0.9966 -0.5277  0.5319
  182MOL0     C24478   4.099  -0.214   5.459  0.1638  0.3665 -0.3615
  182MOL0    Cl24479   4.235  -0.254   5.567  0.0283 -0.1287 -0.0430
  182MOL0     C24480   3.582  -0.319   5.142 -0.2276 -0.9191 -0.0615
  182MOL0     C24481   3.467  -0.239   5.164 -0.1579  0.2489 -0.0725
  182MOL0     O24482   3.233  -0.248   5.399  0.5477  0.0934 -0.5911
  182MOL0     C24483   2.962  -0.150   5.422  0.6338 -0.8547  0.1694
  182MOL0     C24484   2.859  -0.059   5.442 -0.1734 -0.0136  0.8462
  182MOL0     N24485   2.602   0.572   5.426  0.3325  0.7859  0.0176
  182MOL0     N24486   2.714   0.621   5.380  0.6936  0.3591 -1.0444
  182MOL0     C24487   3.964   0.591   5.011 -0.3331  0.1194  0.6920
  182MOL0     C24488   4.100   0.531   5.006 -0.1312 -0.2688  0.0136
  182MOL0     C24489   4.441   0.244   4.979  0.8988  0.1373 -0.3455
  182MOL0     C24490   4.473   0.228   4.839 -0.8935 -0.1908  0.0204
  182MOL0     C24491   4.603   0.186   4.801 -0.9257 -0.5241 -0.4774
  182MOL0     C24492   4.703   0.135   4.894  0.3476 -0.9147  0.6520
  182MOL0     O24493   4.828   0.080   4.872  0.4026  0.0354  1.0164
  182MOL0     C24494   4.868   0.044   4.745 -0.5101  0.3414  0.0572
  182MOL0     C24495   4.984  -0.060   4.761 -0.0591  0.4881 -0.4088
  182MOL0     C24496   4.923  -0.189   4.815 -0.3310  1.1367 -0.3223
  182MOL0     C24497   5.024  -0.303   4.789  0.4649  0.2171  0.4005
  182MOL0     C24498   5.134  -0.302   4.889 -0.0348 -0.5199 -0.1956
  182MOL0     C24499   5.226  -0.317   4.965  0.1666 -0.2285  0.6163
  182MOL0     C24500   4.670   0.151   5.023 -0.0045  0.7580 -0.3141
  182MOL0     C24501   4.544   0.199   5.073 -0.0302  0.2140  0.6320
  182MOL0     C24502   4.523   0.182   5.225  0.5809 -0.3131 -0.3517
  182MOL0     H24503   4.022   0.218   4.911 -2.5609 -0.3932  0.7646
  182MOL0     H24504   3.801   0.311   4.925  0.7982 -1.0417  1.1743
  182MOL0     H24505   3.731   0.730   5.039  2.9267 -1.5514  0.7641
  182MOL0     H24506   3.750   0.697   4.857  1.0658 -3.4587 -0.3220
  182MOL0     H24507   3.513   0.668   4.836 -0.5324 -0.0063  1.3985
  182MOL0     H24508   3.526   0.794   4.940 -1.8611 -1.4486  1.5898
  182MOL0     H24509   3.467   0.626   5.130 -2.5995  0.5322 -0.7216
  182MOL0     H24510   3.473   0.500   4.996 -1.4823 -0.5292 -1.5143
  182MOL0     H24511   3.309   0.742   4.962  0.4154 -0.1572 -0.0259
  182MOL0     H24512   3.291   0.570   4.903  3.2883 -2.5321  0.0630
  182MOL0     H24513   3.212   0.479   5.101  2.0969  0.6265  0.7055
  182MOL0     H24514   3.231   0.620   5.201  0.0062 -0.3386 -0.1646
  182MOL0     H24515   3.073   0.747   5.077 -0.8584 -0.4333  0.8967
  182MOL0     H24516   3.035   0.615   4.967 -0.4054 -2.4615  0.2596
  182MOL0     H24517   3.013   0.590   5.271 -2.6966  2.5026  0.8279
  182MOL0     H24518   2.977   0.470   5.146  0.9885  0.3377 -0.5592
  182MOL0     H24519   2.839   0.741   5.196 -1.1178 -1.2129  3.5961
  182MOL0     H24520   2.806   0.640   5.062 -0.6329  0.8328  0.1340
  182MOL0     H24521   2.627   0.460   5.114 -0.0772  0.7974 -0.1650
  182MOL0     H24522   2.366   0.451   5.407  1.7715  0.6725  0.9725
  182MOL0     H24523   2.371   0.416   5.234 -1.5384  0.6125  0.2566
  182MOL0     H24524   2.364   0.192   5.355  1.4336 -1.1942 -1.3268
  182MOL0     H24525   2.501   0.217   5.256 -2.7810 -0.1945 -0.6167
  182MOL0     H24526   2.470   0.220   5.561  0.5494 -0.6247  1.4188
  182MOL0     H24527   2.598   0.319   5.508  0.5970  0.0874 -1.7758
  182MOL0     H24528   2.591   0.018   5.468  2.3572 -1.2810  0.2530
  182MOL0     H24529   2.679   0.092   5.576  1.5272 -1.7177 -1.1295
  182MOL0     H24530   2.917   0.171   5.204 -1.1849  0.4209  0.8756
  182MOL0     H24531   3.090   0.011   5.146 -0.9583 -0.0859 -0.1797
  182MOL0     H24532   3.225  -0.469   5.108 -0.2785  0.7886 -0.2157
  182MOL0     H24533   3.425  -0.599   5.049  0.4027 -0.0528  0.2635
  182MOL0     H24534   3.673  -0.576   5.243 -1.2003  0.3426  0.5119
  182MOL0     H24535   3.634  -0.716   5.143  1.9965 -1.5323  1.6042
  182MOL0     H24536   3.857  -0.750   5.207  2.5581 -0.3831  0.0149
  182MOL0     H24537   3.873  -0.706   5.038 -0.7641  1.9861 -0.7319
  182MOL0     H24538   3.904  -0.470   5.109 -1.2312 -1.1007 -0.4426
  182MOL0     H24539   3.884  -0.527   5.279 -0.4751 -0.7290  0.2065
  182MOL0     H24540   4.085  -0.633   5.066 -1.7859  0.9422 -0.3334
  182MOL0     H24541   4.112  -0.660   5.232 -1.0589  0.7650  2.1086
  182MOL0     H24542   4.148  -0.376   5.099  3.9020 -0.3080 -0.8321
  182MOL0     H24543   4.264  -0.497   5.131  1.9098  4.5100 -0.4516
  182MOL0     H24544   4.215  -0.488   5.363  1.0962  0.4231 -0.5855
  182MOL0     H24545   4.250  -0.327   5.283  0.4574  1.1262  1.3804
  182MOL0     H24546   4.015  -0.407   5.427 -0.4412 -1.6216 -0.3192
  182MOL0     H24547   3.988  -0.306   5.289  0.2300  2.9093  0.3207
  182MOL0     H24548   4.109  -0.119   5.405  0.4522 -0.3959 -1.6990
  182MOL0     H24549   4.014  -0.199   5.526 -0.2012 -1.8267 -0.2760
  182MOL0     H24550   3.678  -0.271   5.159 -0.6573  0.6998 -1.8995
  182MOL0     H24551   3.479  -0.138   5.204 -0.0696 -0.4652  1.8003
  182MOL0     H24552   2.990  -0.230   5.489  0.4256  0.8385  2.4088
  182MOL0     H24553   2.797  -0.092   5.525  2.3359 -2.2149  2.0060
  182MOL0     H24554   3.948   0.697   5.031  0.1781 -0.0506  2.1587
  182MOL0     H24555   4.190   0.591   5.015 -0.3222 -0.0149  0.2461
  182MOL0     H24556   4.407   0.260   4.758 -1.7671 -1.6550  0.1104
  182MOL0     H24557   4.621   0.174   4.695  0.7036 -3.9552  0.0410
  182MOL0     H24558   4.906   0.132   4.694 -0.1627 -0.6488 -1.4627
  182MOL0     H24559   4.786   0.006   4.683 -1.6283  2.9869 -0.2290
  182MOL0     H24560   5.067  -0.022   4.822 -1.6750 -0.1374  2.3397
  182MOL0     H24561   5.025  -0.066   4.660  1.8834  1.5900  0.2562
  182MOL0     H24562   4.826  -0.218   4.773 -0.1205 -2.1422  1.1079
  182MOL0     H24563   4.923  -0.196   4.924  0.6053  0.0261 -0.3674
  182MOL0     H24564   4.963  -0.392   4.799  0.5603  0.2399  1.3142
  182MOL0     H24565   5.070  -0.293   4.690  0.6948 -1.5687  0.3101
  182MOL0     H24566   5.301  -0.338   5.039 -0.4206  3.7915  2.6325
  182MOL0     H24567   4.739   0.130   5.104 -0.5009 -1.0309 -0.3147
  182MOL0     H24568   4.444   0.109   5.243  2.3674 -2.0646  0.7672
  182MOL0     H24569   4.610   0.143   5.278  0.6285  0.5785  0.2619
  182MOL0     H24570   4.495   0.281   5.264  2.0591 -0.1465  0.3648
  183MOL0     O24571   9.536   4.409   0.783  0.1536  0.2562  0.2332
  183MOL0     C24572   9.475   4.464   0.880  0.0862 -0.3778  0.5347
  183MOL0     O24573   9.527   4.546   0.964 -0.4986  0.2240 -0.1117
  183MOL0     C24574   9.669   4.554   0.982  0.1592  0.3689 -0.3456
  183MOL0     C24575   9.732   4.477   1.078 -0.1025 -0.2978  0.3868
  183MOL0     C24576   9.865   4.463   1.090 -0.2764 -0.1893 -0.2906
  183MOL0     C24577   9.951   4.539   1.012 -0.0296 -0.2288  0.6788
  183MOL0     O24578  10.086   4.528   1.044  0.2062 -0.1871  0.0030
  183MOL0     C24579  10.180   4.618   0.986 -1.1798 -0.7424 -0.5893
  183MOL0     C24580  10.307   4.603   1.068 -0.2123  0.0521  0.0776
  183MOL0     C24581  10.432   4.658   0.991 -0.0441  0.2770 -0.1225
  183MOL0     C24582  10.558   4.607   1.045 -0.4381  0.3828  0.0719
  183MOL0     C24583  10.670   4.688   0.982  0.6617 -0.2104  1.0186
  183MOL0     C24584  10.808   4.658   1.041  0.4769 -0.4584  0.2121
  183MOL0     C24585  10.916   4.745   0.973  0.2193  0.8082 -0.1015
  183MOL0     C24586  11.060   4.705   1.018 -0.3774 -0.2588  0.3862
  183MOL0     N24587  11.152   4.795   0.943 -1.0872 -0.0923 -0.7570
  183MOL0     C24588  11.164   4.935   0.953  0.6738 -0.1820  0.4578
  183MOL0     C24589  11.235   4.971   0.847  0.1123 -0.0681 -0.1533
  183MOL0     C24590  11.264   5.119   0.832  0.8241 -1.3968 -0.3359
  183MOL0     C24591  11.361   5.184   0.934  0.2738 -0.2671 -0.0761
  183MOL0     C24592  11.500   5.125   0.925  0.4684  0.5339 -0.4868
  183MOL0     C24593  11.580   5.145   1.051  0.2091  0.0472 -0.0169
  183MOL0     O24594  11.716   5.106   1.015  1.1789 -0.4547 -0.2658
  183MOL0     C24595  11.819   5.155   1.094  0.7019 -0.3176 -0.1374
  183MOL0     C24596  11.820   5.280   1.149 -0.0466  0.3889 -0.9296
  183MOL0     C24597  11.938   5.316   1.222 -0.0263 -0.0278 -0.0876
  183MOL0     C24598  12.046   5.231   1.240 -0.0806  0.0290 -0.7477
  183MOL0     C24599  12.160   5.287   1.323 -0.2652 -0.2486 -0.0994
  183MOL0     O24600  12.136   5.386   1.418 -0.6706  0.7753  0.6671
  183MOL0     C24601  12.238   5.441   1.492  0.5301  0.3711 -0.0123
  183MOL0     C24602  12.372   5.435   1.464  0.2982  0.0510  0.1240
  183MOL0     C24603  12.467   5.492   1.549 -0.2843  0.3134  0.7383
  183MOL0     C24604  12.434   5.542   1.679  0.2112  0.5740  0.9365
  183MOL0     O24605  12.518   5.586   1.776 -0.2988  0.2724  0.0199
  183MOL0     C24606  12.655   5.605   1.744 -0.4863 -0.0180  0.6611
  183MOL0     C24607  12.719   5.679   1.858 -0.8945  0.3085 -0.1465
  183MOL0     C24608  12.871   5.673   1.836  0.1832 -0.1598 -1.0265
  183MOL0     C24609  12.948   5.617   1.958  0.1452 -0.4497  0.4982
  183MOL0     C24610  13.103   5.617   1.934  0.4245  0.2941  0.8517
  183MOL0     C24611  13.175   5.557   2.064  0.4307 -0.2192  0.0739
  183MOL0     C24612  13.324   5.544   2.037 -0.5970  0.1636 -0.1914
  183MOL0     C24613  13.375   5.415   2.102  0.1507  0.4769  0.8329
  183MOL0    Cl24614  13.530   5.353   2.061 -0.2897 -0.1629  0.2474
  183MOL0     C24615  12.295   5.550   1.700 -0.1846  0.2432  0.6037
  183MOL0     C24616  12.201   5.499   1.612  1.0907 -0.4945 -0.4690
  183MOL0     O24617  12.259   5.218   1.311  0.7595  0.1406  1.3519
  183MOL0     C24618  12.035   5.107   1.181  0.0138  0.1744 -0.8332
  183MOL0     C24619  11.924   5.069   1.110  0.3753  0.1236  0.2648
  183MOL0     N24620  11.256   4.867   0.761 -1.1193 -0.9300  0.1269
  183MOL0     N24621  11.202   4.762   0.815 -0.2591  0.7574  0.4515
  183MOL0     C24622   9.894   4.630   0.919 -0.5047 -0.7054 -0.1152
  183MOL0     C24623   9.752   4.638   0.903  0.2558  0.8060 -0.7581
  183MOL0     C24624   9.326   4.444   0.895 -0.1316 -0.3910  0.7827
  183MOL0     C24625   9.264   4.472   1.020 -0.7713  0.8703 -0.4121
  183MOL0     C24626   9.128   4.460   1.046 -1.0392 -0.7077 -0.7287
  183MOL0     C24627   9.036   4.419   0.950  0.1499  0.0219 -0.1053
  183MOL0     O24628   8.906   4.407   0.983 -0.1124  0.1906 -0.0197
  183MOL0     C24629   8.831   4.326   0.899  0.6259 -0.4237  0.2217
  183MOL0     C24630   8.686   4.308   0.964 -0.3484 -0.8843  0.0804
  183MOL0     C24631   8.618   4.203   0.874 -0.6966 -0.3649 -0.1538
  183MOL0     C24632   8.492   4.166   0.942  0.4294  0.2769 -0.6307
  183MOL0     C24633   8.430   4.039   0.893 -0.1680 -0.5556  0.9422
  183MOL0     C24634   8.391   3.929   0.858  0.3394  0.0106 -0.5529
  183MOL0     C24635   9.089   4.390   0.819 -0.0875  0.2112  0.8997
  183MOL0     C24636   9.235   4.398   0.798  0.0026  0.2481  0.0682
  183MOL0     C24637   9.281   4.354   0.653 -0.0028  0.2732  0.7788
  183MOL0     H24638   9.660   4.411   1.126 -0.2245 -0.0878  0.4902
  183MOL0     H24639   9.899   4.393   1.166  0.2331  0.6637  0.2880
  183MOL0     H24640  10.210   4.587   0.885  2.3279  0.0766  0.0888
  183MOL0     H24641  10.144   4.721   0.987 -0.8916 -0.6440  0.2151
  183MOL0     H24642  10.337   4.499   1.084 -0.2691 -0.7018 -3.8304
  183MOL0     H24643  10.296   4.652   1.165 -1.6999 -0.7426  0.3324
  183MOL0     H24644  10.428   4.767   0.983 -1.5440  0.2729  0.2669
  183MOL0     H24645  10.439   4.617   0.889  2.0671  0.2893 -0.0202
  183MOL0     H24646  10.569   4.635   1.150 -0.7205  0.7646  0.0008
  183MOL0     H24647  10.574   4.500   1.029  0.2522  0.3575  0.8703
  183MOL0     H24648  10.670   4.670   0.874 -1.3123  1.4602  0.6897
  183MOL0     H24649  10.648   4.792   1.007 -2.8441 -0.6513  0.2338
  183MOL0     H24650  10.804   4.689   1.146 -0.0230 -0.0997  0.0941
  183MOL0     H24651  10.824   4.552   1.022  1.6042 -0.3237  0.3522
  183MOL0     H24652  10.900   4.852   0.992 -0.9497  0.5549  0.4180
  183MOL0     H24653  10.916   4.723   0.866 -0.4183 -0.3859  0.1277
  183MOL0     H24654  11.064   4.700   1.128 -0.1631  3.0951  0.6249
  183MOL0     H24655  11.080   4.604   0.982 -1.0354 -0.6515  1.0778
  183MOL0     H24656  11.123   5.000   1.030 -2.7210  0.4426 -1.6915
  183MOL0     H24657  11.307   5.141   0.734  1.0593 -0.1489  0.0353
  183MOL0     H24658  11.168   5.171   0.841 -0.2969 -3.2305 -1.1770
  183MOL0     H24659  11.372   5.291   0.916  1.8255 -0.4264 -0.2136
  183MOL0     H24660  11.312   5.178   1.032 -1.9274 -2.0127 -1.1920
  183MOL0     H24661  11.557   5.161   0.839  0.4980 -1.1706 -1.2257
  183MOL0     H24662  11.500   5.017   0.912  1.0274  0.6856 -1.8862
  183MOL0     H24663  11.541   5.067   1.117 -1.3173  0.3129 -0.5661
  183MOL0     H24664  11.574   5.248   1.088  4.7917  0.7138 -0.5285
  183MOL0     H24665  11.738   5.350   1.141 -0.8131 -0.3522  0.0677
  183MOL0     H24666  11.940   5.416   1.264 -1.3541  0.7705 -1.7977
  183MOL0     H24667  12.393   5.404   1.362 -2.2310 -1.5842 -0.0023
  183MOL0     H24668  12.573   5.488   1.524 -0.4024 -2.1500  0.4050
  183MOL0     H24669  12.701   5.508   1.724  2.2621  1.6402 -1.9165
  183MOL0     H24670  12.664   5.667   1.654 -1.0934 -1.0242 -0.1148
  183MOL0     H24671  12.679   5.781   1.854  0.1047  0.6683 -1.5609
  183MOL0     H24672  12.700   5.637   1.957  2.3059  1.9498  1.3401
  183MOL0     H24673  12.894   5.620   1.743 -1.4411 -1.2007 -0.8842
  183MOL0     H24674  12.905   5.775   1.818 -0.5574 -0.0743 -2.0744
  183MOL0     H24675  12.911   5.520   1.990 -0.4042  0.2317  2.0328
  183MOL0     H24676  12.934   5.693   2.035  2.1471  1.6627 -1.0710
  183MOL0     H24677  13.154   5.712   1.915 -0.5688  1.1530  2.2636
  183MOL0     H24678  13.118   5.554   1.846  0.8913 -1.9983  2.4756
  183MOL0     H24679  13.156   5.629   2.143  0.5919  2.2009 -1.9456
  183MOL0     H24680  13.126   5.465   2.096 -1.1280  1.3023  2.2926
  183MOL0     H24681  13.375   5.628   2.085  0.9293  0.3949 -2.0878
  183MOL0     H24682  13.345   5.551   1.930 -0.1543  0.7813 -0.0725
  183MOL0     H24683  13.358   5.424   2.210 -0.1656 -0.1464  0.8390
  183MOL0     H24684  13.310   5.335   2.064  0.8822  0.7860 -1.1576
  183MOL0     H24685  12.265   5.594   1.794 -0.5053  2.2182 -0.3611
  183MOL0     H24686  12.099   5.500   1.648  1.1397  0.7158 -0.3224
  183MOL0     H24687  12.117   5.037   1.193  1.5056  2.0309  0.3662
  183MOL0     H24688  11.917   4.973   1.061  0.2254 -0.4831  1.4259
  183MOL0     H24689   9.955   4.698   0.859 -1.2139 -0.0344 -0.0865
  183MOL0     H24690   9.713   4.715   0.837  3.3576  1.6311 -1.7893
  183MOL0     H24691   9.335   4.494   1.099 -0.0667 -1.5502 -0.2925
  183MOL0     H24692   9.097   4.488   1.146  0.3651 -1.7561  0.0358
  183MOL0     H24693   8.873   4.226   0.886  0.9500 -0.9119  3.9557
  183MOL0     H24694   8.829   4.364   0.796  0.8963 -0.8505  0.0602
  183MOL0     H24695   8.639   4.407   0.962 -1.9121 -1.5716  0.7981
  183MOL0     H24696   8.702   4.270   1.065 -0.4239 -1.8348 -0.2465
  183MOL0     H24697   8.677   4.111   0.864 -2.7881 -1.5985 -1.9894
  183MOL0     H24698   8.594   4.246   0.777 -3.9240  1.5304  1.3267
  183MOL0     H24699   8.513   4.140   1.046  1.6070 -0.1104 -0.9567
  183MOL0     H24700   8.421   4.249   0.953 -1.3482 -1.3729  0.8819
  183MOL0     H24701   8.359   3.830   0.835 -5.9887  0.9213  2.2095
  183MOL0     H24702   9.023   4.363   0.738 -1.5354  0.1446  2.0602
  183MOL0     H24703   9.200   4.314   0.592  1.2420 -0.3815 -0.4948
  183MOL0     H24704   9.333   4.436   0.603  2.6377 -0.9702  1.3370
  183MOL0     H24705   9.351   4.270   0.660  2.8678  2.3032 -1.2695
  184MOL0     O24706   9.392   8.246   1.021  0.1719  0.1706 -0.1951
  184MOL0     C24707   9.326   8.319   1.098 -0.7035  0.1681  0.3924
  184MOL0     O24708   9.378   8.382   1.209  0.1538 -0.0330  0.6060
  184MOL0     C24709   9.514   8.355   1.234  0.3639 -0.7172 -0.1921
  184MOL0     C24710   9.621   8.413   1.164  0.3885 -0.5587 -0.8491
  184MOL0     C24711   9.751   8.378   1.205  0.6128  0.3321 -0.7811
  184MOL0     C24712   9.778   8.295   1.312 -0.1953 -0.1670 -0.0895
  184MOL0     O24713   9.909   8.256   1.329 -0.2160  0.2674 -0.6843
  184MOL0     C24714   9.942   8.170   1.436 -0.3373  0.4216  0.7546
  184MOL0     C24715  10.095   8.148   1.427  0.3162  0.3742 -0.3222
  184MOL0     C24716  10.113   8.044   1.318 -1.0228  0.6463  0.2676
  184MOL0     C24717  10.255   8.062   1.248  0.9733  0.4972  0.2044
  184MOL0     C24718  10.320   7.939   1.184  0.0847 -0.3116  0.9284
  184MOL0     C24719  10.450   7.955   1.114  0.0717  0.0807  0.6621
  184MOL0     C24720  10.509   7.824   1.076  0.0086  0.2573 -0.2186
  184MOL0     C24721  10.549   7.741   1.209 -0.6792 -0.0906  0.2459
  184MOL0     N24722  10.683   7.683   1.195 -0.0723 -0.0801 -0.1229
  184MOL0     C24723  10.763   7.655   1.308  0.5635 -0.2892  0.3694
  184MOL0     C24724  10.886   7.642   1.268 -0.2840  0.3143  0.0850
  184MOL0     C24725  11.005   7.644   1.366  0.4120  0.0412 -0.1659
  184MOL0     C24726  11.128   7.664   1.282 -0.8749  0.4232  0.4879
  184MOL0     C24727  11.253   7.663   1.367 -0.4622  0.1606  0.0220
  184MOL0     C24728  11.362   7.739   1.294 -1.3880 -0.1976  0.3433
  184MOL0     O24729  11.407   7.678   1.171  0.2239 -0.0393  0.8326
  184MOL0     C24730  11.538   7.677   1.128 -0.1193 -0.1858 -0.2802
  184MOL0     C24731  11.573   7.586   1.036 -0.5187  0.0876  0.5419
  184MOL0     C24732  11.704   7.576   0.992 -0.4977  0.2580 -0.4501
  184MOL0     C24733  11.798   7.672   1.035 -0.3827  0.0226  0.4472
  184MOL0     C24734  11.938   7.671   0.987  0.4663  0.1316  0.0280
  184MOL0     O24735  12.031   7.766   1.043  0.5750 -0.2127  0.6090
  184MOL0     C24736  12.152   7.783   0.985  0.0756 -0.1705  0.1704
  184MOL0     C24737  12.261   7.810   1.072  0.2065  1.3766  0.6498
  184MOL0     C24738  12.398   7.809   1.034  0.0696 -0.5331 -0.0417
  184MOL0     C24739  12.434   7.799   0.908 -0.4229 -0.7407  0.0940
  184MOL0     O24740  12.558   7.803   0.859 -0.1829  0.5508  0.4537
  184MOL0     C24741  12.658   7.792   0.952 -0.7526  0.2283  0.0769
  184MOL0     C24742  12.803   7.756   0.899  0.1412  0.1634 -0.2402
  184MOL0     C24743  12.870   7.875   0.825 -0.4502  1.1771 -0.7413
  184MOL0     C24744  12.993   7.846   0.730  0.4719 -0.7036 -1.0693
  184MOL0     C24745  13.117   7.802   0.805 -0.1395  0.5107  0.2713
  184MOL0     C24746  13.229   7.750   0.722 -0.1474  0.7275 -0.9871
  184MOL0     C24747  13.350   7.741   0.814 -0.5340  0.0083  0.9351
  184MOL0     C24748  13.410   7.865   0.873 -0.2611 -0.4456  0.0031
  184MOL0    Cl24749  13.414   7.990   0.750  0.2014  0.6409 -0.0383
  184MOL0     C24750  12.329   7.790   0.814 -0.4369  0.8191 -0.3271
  184MOL0     C24751  12.197   7.779   0.851 -0.3215  0.3970 -1.1469
  184MOL0     O24752  11.964   7.591   0.897  0.6675  0.9428  0.5850
  184MOL0     C24753  11.753   7.779   1.109 -0.2631  0.2149 -0.1433
  184MOL0     C24754  11.630   7.775   1.162  0.1771 -0.3788 -0.4517
  184MOL0     N24755  10.886   7.655   1.126  0.2601  0.0863  0.2210
  184MOL0     N24756  10.769   7.687   1.086  0.0456  0.0745  0.0924
  184MOL0     C24757   9.670   8.241   1.386  0.0200 -0.2786 -0.0831
  184MOL0     C24758   9.547   8.279   1.347 -0.6589  0.4962 -0.7758
  184MOL0     C24759   9.188   8.344   1.061  0.8003  0.4502 -0.2947
  184MOL0     C24760   9.148   8.481   1.071  0.2485  0.4783  0.7836
  184MOL0     C24761   9.011   8.502   1.036 -0.0941 -1.0733 -0.6278
  184MOL0     C24762   8.932   8.401   0.989  0.8310  0.0561  0.6593
  184MOL0     O24763   8.811   8.443   0.934 -0.0913 -0.1118 -0.1818
  184MOL0     C24764   8.705   8.355   0.887 -0.0267 -0.5184 -0.1030
  184MOL0     C24765   8.576   8.422   0.859  0.8635 -0.1633  0.3900
  184MOL0     C24766   8.586   8.533   0.757 -0.6993 -1.0959  0.6452
  184MOL0     C24767   8.460   8.609   0.746 -0.8020  0.0905  0.0474
  184MOL0     C24768   8.356   8.520   0.697  0.3138 -0.0384  0.5694
  184MOL0     C24769   8.276   8.446   0.648  0.9002 -0.5895  0.3876
  184MOL0     C24770   8.978   8.271   0.971 -0.0816 -0.1232  0.1379
  184MOL0     C24771   9.109   8.242   1.012 -0.1083  0.1040 -0.6671
  184MOL0     C24772   9.158   8.091   1.000  0.0755 -0.1328  0.3224
  184MOL0     H24773   9.602   8.482   1.082 -2.1094 -0.1094  0.0193
  184MOL0     H24774   9.837   8.413   1.149 -0.4280  2.8432 -0.9604
  184MOL0     H24775   9.918   8.231   1.523 -0.4044  2.5124 -0.6574
  184MOL0     H24776   9.884   8.078   1.424  0.3228  0.1848 -0.9703
  184MOL0     H24777  10.129   8.109   1.523  0.2011  1.0814  0.0136
  184MOL0     H24778  10.144   8.245   1.415  0.2850  0.3334 -0.8348
  184MOL0     H24779  10.028   8.050   1.249 -1.9819 -1.8534  1.1022
  184MOL0     H24780  10.107   7.949   1.372 -0.2862  1.4507  1.8292
  184MOL0     H24781  10.243   8.135   1.167  0.5843  3.2391  2.5636
  184MOL0     H24782  10.328   8.109   1.315  1.6827 -1.5555  0.9484
  184MOL0     H24783  10.318   7.855   1.255 -1.6152 -1.7649 -0.7505
  184MOL0     H24784  10.255   7.916   1.099  0.8591  2.4995 -0.5341
  184MOL0     H24785  10.438   8.028   1.034 -2.7581  0.2016  1.0775
  184MOL0     H24786  10.520   8.006   1.182 -1.1258  0.9266  1.3028
  184MOL0     H24787  10.596   7.849   1.015  2.3562 -0.5755  2.5586
  184MOL0     H24788  10.434   7.769   1.019 -0.4682  2.6416 -2.0678
  184MOL0     H24789  10.538   7.806   1.296  1.2501 -0.1553  0.5706
  184MOL0     H24790  10.476   7.662   1.229  0.2171 -0.7077  1.1081
  184MOL0     H24791  10.734   7.645   1.413  1.8778  0.8929  0.8730
  184MOL0     H24792  10.995   7.724   1.440  0.7823  1.0923 -1.2200
  184MOL0     H24793  10.998   7.550   1.421 -4.4462  0.2873  0.0283
  184MOL0     H24794  11.125   7.585   1.205 -2.1382  1.3300 -0.4312
  184MOL0     H24795  11.127   7.763   1.235  1.2009 -0.0410 -0.6560
  184MOL0     H24796  11.283   7.559   1.383  0.0624 -0.0998 -2.2753
  184MOL0     H24797  11.235   7.698   1.469 -3.6417  1.0998 -0.7403
  184MOL0     H24798  11.447   7.744   1.363 -0.3262 -2.2678 -0.7346
  184MOL0     H24799  11.333   7.842   1.272  4.9107  1.9270 -0.0544
  184MOL0     H24800  11.506   7.510   0.997 -0.0460  0.1389 -0.4022
  184MOL0     H24801  11.734   7.495   0.926  0.7724 -0.8705  1.4089
  184MOL0     H24802  12.242   7.813   1.179  1.3597  0.7933  0.8832
  184MOL0     H24803  12.460   7.824   1.122 -1.9426  0.6800  1.2469
  184MOL0     H24804  12.676   7.885   1.007  0.9457 -0.5661  0.9605
  184MOL0     H24805  12.624   7.723   1.030 -0.3947  1.5768  1.4888
  184MOL0     H24806  12.865   7.745   0.987 -2.2592 -0.5521  1.4694
  184MOL0     H24807  12.810   7.662   0.844  1.1233 -0.2148  0.5079
  184MOL0     H24808  12.794   7.913   0.757 -0.3763  1.0140 -0.9144
  184MOL0     H24809  12.899   7.947   0.902  0.4307 -3.4995  3.8480
  184MOL0     H24810  13.007   7.943   0.681 -0.0178  0.5954  1.2299
  184MOL0     H24811  12.977   7.765   0.658  1.5762 -0.7919 -1.2292
  184MOL0     H24812  13.084   7.723   0.873  0.1269 -0.9254 -1.2047
  184MOL0     H24813  13.150   7.889   0.862  0.7851 -0.2324  0.8782
  184MOL0     H24814  13.216   7.650   0.679  0.1845  0.6741 -0.9607
  184MOL0     H24815  13.246   7.821   0.640 -2.9040  1.7331 -0.8120
  184MOL0     H24816  13.430   7.705   0.749 -1.3973 -1.7374  0.7719
  184MOL0     H24817  13.333   7.672   0.898 -1.0924 -1.9363 -0.7043
  184MOL0     H24818  13.353   7.884   0.964 -0.7163 -1.8135  0.0264
  184MOL0     H24819  13.515   7.851   0.901  0.1187  0.3014 -0.9724
  184MOL0     H24820  12.349   7.779   0.708 -1.2366 -1.1398 -0.3217
  184MOL0     H24821  12.119   7.763   0.778 -2.0564  0.5791  0.5712
  184MOL0     H24822  11.828   7.854   1.134  2.3856 -2.6442  1.0465
  184MOL0     H24823  11.602   7.862   1.219 -2.3586 -1.3376 -0.0816
  184MOL0     H24824   9.694   8.171   1.465  2.3748  0.7145  0.1750
  184MOL0     H24825   9.463   8.239   1.403 -1.0224  2.2638  0.0119
  184MOL0     H24826   9.220   8.560   1.090 -1.1988  1.4256  2.7996
  184MOL0     H24827   8.977   8.605   1.032  2.4787 -0.1962 -1.8056
  184MOL0     H24828   8.686   8.289   0.972  0.7656  2.9783  3.0570
  184MOL0     H24829   8.744   8.305   0.798 -0.5467  0.9656 -1.2138
  184MOL0     H24830   8.539   8.471   0.950 -1.2500 -0.5193 -0.2296
  184MOL0     H24831   8.499   8.348   0.837  1.1597 -0.8447  1.5850
  184MOL0     H24832   8.611   8.490   0.660 -2.6114 -1.1809  0.1611
  184MOL0     H24833   8.671   8.595   0.789  0.3185 -0.9285 -2.1523
  184MOL0     H24834   8.423   8.648   0.841 -0.3300  1.5460 -0.3553
  184MOL0     H24835   8.476   8.686   0.671  0.9558 -1.0149 -0.7989
  184MOL0     H24836   8.202   8.383   0.604  1.5065 -1.2118  0.2411
  184MOL0     H24837   8.917   8.192   0.929 -1.6473 -0.8047  3.3256
  184MOL0     H24838   9.194   8.047   1.093 -1.5470 -1.5582  0.3366
  184MOL0     H24839   9.074   8.025   0.973 -0.0254 -0.0126  0.3455
  184MOL0     H24840   9.230   8.076   0.919 -1.6597 -2.0835 -0.9896
  185MOL0     O24841   4.812   4.151   9.746  0.6443  0.2323  0.7633
  185MOL0     C24842   4.764   4.181   9.637 -0.4550  0.3991  0.4882
  185MOL0     O24843   4.811   4.281   9.562  0.4575 -0.8438 -0.2366
  185MOL0     C24844   4.912   4.362   9.605  0.6242 -0.4662 -0.1988
  185MOL0     C24845   4.892   4.499   9.624 -0.2418 -0.3566  0.9627
  185MOL0     C24846   5.001   4.581   9.668 -0.3093  0.1531 -0.3206
  185MOL0     C24847   5.135   4.526   9.685 -0.2580 -0.0796 -0.3659
  185MOL0     O24848   5.248   4.599   9.728  0.1010 -0.1110  0.5799
  185MOL0     C24849   5.230   4.712   9.811  0.1715  0.9207  0.7226
  185MOL0     C24850   5.365   4.763   9.858 -0.1825  0.7446 -1.2334
  185MOL0     C24851   5.431   4.643   9.925 -0.3262 -0.4281 -0.0063
  185MOL0     C24852   5.553   4.681  10.007 -0.4075  0.6380 -0.1762
  185MOL0     C24853   5.544   4.714  10.156  0.1596  0.4641 -1.0431
  185MOL0     C24854   5.665   4.786  10.210 -0.9638  0.3905 -0.0660
  185MOL0     C24855   5.807   4.726  10.183  0.3360  0.7817  0.5261
  185MOL0     C24856   5.820   4.576  10.218  0.1394 -0.0589 -0.2266
  185MOL0     N24857   5.959   4.523  10.187  0.9756 -0.6230 -0.1125
  185MOL0     C24858   6.066   4.514  10.268 -0.2270 -0.6545 -0.0844
  185MOL0     C24859   6.162   4.473  10.185 -0.5523 -0.3816 -0.1511
  185MOL0     C24860   6.305   4.448  10.220 -0.3717 -0.2215 -0.0973
  185MOL0     C24861   6.391   4.556  10.151  0.9262 -0.1125  0.8158
  185MOL0     C24862   6.541   4.535  10.175  0.0234  0.4759 -0.1106
  185MOL0     C24863   6.603   4.421  10.082 -0.2170 -0.2261  0.5169
  185MOL0     O24864   6.742   4.443  10.090 -0.1537  0.1848 -0.0936
  185MOL0     C24865   6.811   4.418  10.206  0.6519  0.3477 -0.2243
  185MOL0     C24866   6.941   4.453  10.208 -0.5814 -0.1938 -0.6659
  185MOL0     C24867   7.021   4.439  10.318  0.3329  0.4086  0.3827
  185MOL0     C24868   6.965   4.387  10.439 -0.7460 -0.1942 -0.0157
  185MOL0     C24869   7.054   4.356  10.551  0.3742 -0.7609  0.3199
  185MOL0     O24870   7.172   4.419  10.550 -0.8208 -0.0659 -0.1955
  185MOL0     C24871   7.252   4.416  10.663  0.5288  0.2178  0.1815
  185MOL0     C24872   7.313   4.538  10.708  0.0875  0.1734  0.2539
  185MOL0     C24873   7.395   4.540  10.819  0.9469 -0.1444  0.2574
  185MOL0     C24874   7.429   4.414  10.885 -0.1755 -0.4582  0.8397
  185MOL0     O24875   7.504   4.398  11.000  0.1857 -0.4500 -0.1603
  185MOL0     C24876   7.597   4.505  11.030 -0.0531 -0.1482  0.4354
  185MOL0     C24877   7.691   4.459  11.141 -0.6030 -0.5394  0.2032
  185MOL0     C24878   7.629   4.472  11.280 -0.0577 -0.4836 -0.3590
  185MOL0     C24879   7.742   4.473  11.381 -0.2063  0.4862 -1.2159
  185MOL0     C24880   7.706   4.525  11.524  0.5317  0.7225  0.0817
  185MOL0     C24881   7.816   4.492  11.623  0.3538  0.1353  0.4047
  185MOL0     C24882   7.876   4.619  11.680  0.4093 -0.5158 -0.0836
  185MOL0     C24883   7.988   4.610  11.775  0.9875  0.9778 -0.5885
  185MOL0    Cl24884   8.025   4.765  11.848  0.0351  0.0098  0.2320
  185MOL0     C24885   7.369   4.298  10.833  0.0379  0.0487 -0.1984
  185MOL0     C24886   7.277   4.295  10.723 -0.9024  0.5421 -0.5518
  185MOL0     O24887   7.008   4.288  10.639 -0.1351  0.5042 -0.4494
  185MOL0     C24888   6.847   4.322  10.427  1.0196  0.3071 -0.4967
  185MOL0     C24889   6.761   4.351  10.316  0.2984 -0.0560  0.3877
  185MOL0     N24890   6.117   4.451  10.059 -0.7094  0.9481  0.4393
  185MOL0     N24891   5.988   4.485  10.058  0.5646  0.8224 -0.5978
  185MOL0     C24892   5.151   4.393   9.662  0.4901  0.3508 -0.4017
  185MOL0     C24893   5.039   4.309   9.632 -0.4212  0.1458  0.2831
  185MOL0     C24894   4.632   4.107   9.593  0.1152 -0.1481  0.2677
  185MOL0     C24895   4.608   4.095   9.453 -0.2181 -0.2257 -0.0385
  185MOL0     C24896   4.493   4.031   9.403 -0.5755  0.9733  0.4131
  185MOL0     C24897   4.405   3.961   9.489 -0.0642  0.1065  0.4690
  185MOL0     O24898   4.294   3.908   9.428 -0.1825  0.0571 -0.4455
  185MOL0     C24899   4.234   3.799   9.514  0.7850 -0.3623 -0.3321
  185MOL0     C24900   4.109   3.750   9.450  0.2746  0.0150 -0.9735
  185MOL0     C24901   4.048   3.627   9.527 -1.2998 -0.4050  0.3328
  185MOL0     C24902   3.917   3.579   9.454 -0.2256 -0.3334  0.3904
  185MOL0     C24903   3.950   3.512   9.333 -0.0420 -0.2682 -0.5904
  185MOL0     C24904   3.992   3.440   9.252  0.0486  0.2005 -0.0052
  185MOL0     C24905   4.427   3.975   9.622 -0.0429  0.3498 -0.5084
  185MOL0     C24906   4.541   4.046   9.679  0.8590  0.2406  0.3103
  185MOL0     C24907   4.541   4.061   9.831  0.7760  0.7850  0.2014
  185MOL0     H24908   4.796   4.541   9.596  0.5715  0.3536 -0.9361
  185MOL0     H24909   4.983   4.687   9.687  1.4818  0.7954 -1.8854
  185MOL0     H24910   5.186   4.796   9.757  1.3977  0.8967 -0.3780
  185MOL0     H24911   5.166   4.679   9.893 -1.0782  0.4172 -0.4182
  185MOL0     H24912   5.351   4.833   9.941  3.6792 -2.5557  2.7308
  185MOL0     H24913   5.425   4.823   9.789  1.4927  1.9440  1.1237
  185MOL0     H24914   5.469   4.576   9.847  2.0091  0.3822  0.3527
  185MOL0     H24915   5.352   4.597   9.986 -2.8319 -0.3185 -2.9312
  185MOL0     H24916   5.623   4.597  10.006  0.0646  1.0089  0.4921
  185MOL0     H24917   5.611   4.758   9.954 -0.3752 -0.0877 -1.2307
  185MOL0     H24918   5.452   4.772  10.166 -1.4232 -1.8465 -1.4808
  185MOL0     H24919   5.538   4.627  10.221  1.0872  2.1190  1.3906
  185MOL0     H24920   5.663   4.885  10.162 -0.4452  0.2064 -0.4819
  185MOL0     H24921   5.657   4.807  10.317 -0.4831 -1.7601  0.4390
  185MOL0     H24922   5.881   4.788  10.235  1.4039 -0.6422  0.7382
  185MOL0     H24923   5.814   4.728  10.074  0.7303 -0.5626  0.5159
  185MOL0     H24924   5.794   4.566  10.323 -0.1050  2.8197  0.0588
  185MOL0     H24925   5.752   4.516  10.157  1.0478 -0.5626 -0.7763
  185MOL0     H24926   6.075   4.541  10.373  1.4247 -0.0187 -0.3657
  185MOL0     H24927   6.328   4.464  10.326 -0.6491  3.0043 -0.4360
  185MOL0     H24928   6.350   4.351  10.195  1.7183  0.6518  0.1207
  185MOL0     H24929   6.365   4.559  10.045 -2.5614  0.8872  1.5386
  185MOL0     H24930   6.369   4.657  10.188  3.1705  0.3000  1.1368
  185MOL0     H24931   6.558   4.508  10.280  1.5132 -2.4371 -0.9921
  185MOL0     H24932   6.588   4.630  10.152  3.1227 -1.3016 -1.7985
  185MOL0     H24933   6.567   4.427   9.979  0.0502 -3.7957  0.0811
  185MOL0     H24934   6.577   4.317  10.106  3.5274 -2.0536 -2.2902
  185MOL0     H24935   6.986   4.498  10.120  1.2562  0.2088  0.4097
  185MOL0     H24936   7.123   4.476  10.321  0.3873  0.4132 -0.9252
  185MOL0     H24937   7.287   4.630  10.656 -0.6710 -0.2916 -0.2150
  185MOL0     H24938   7.419   4.636  10.864  3.1919 -1.2723  1.6354
  185MOL0     H24939   7.657   4.530  10.942 -1.1574  1.3489  0.0629
  185MOL0     H24940   7.534   4.589  11.062  1.5457  1.4989 -0.5340
  185MOL0     H24941   7.720   4.356  11.117  1.3487 -0.1613  0.7132
  185MOL0     H24942   7.786   4.513  11.147 -0.0614 -1.4466  0.0202
  185MOL0     H24943   7.578   4.569  11.288  0.1877 -0.1913 -2.0745
  185MOL0     H24944   7.566   4.387  11.307 -1.9212  1.1549  0.7763
  185MOL0     H24945   7.830   4.533  11.358  0.6499 -0.2610  0.0112
  185MOL0     H24946   7.787   4.373  11.380  3.2831  1.9024 -0.2618
  185MOL0     H24947   7.617   4.470  11.555 -1.0577  1.0815 -3.3428
  185MOL0     H24948   7.675   4.629  11.518 -2.9575 -0.1482  0.9694
  185MOL0     H24949   7.777   4.422  11.698  1.2932 -0.2958  0.5088
  185MOL0     H24950   7.898   4.438  11.575  0.1925  2.7807 -3.1738
  185MOL0     H24951   7.799   4.685  11.720  1.5519  1.1515 -0.5141
  185MOL0     H24952   7.909   4.686  11.600  0.4670  0.5692  0.8230
  185MOL0     H24953   7.960   4.541  11.855  2.3148  1.1165  0.0210
  185MOL0     H24954   8.080   4.570  11.731  0.4157 -1.8884  0.5809
  185MOL0     H24955   7.389   4.202  10.880 -1.8821 -0.5569 -0.5267
  185MOL0     H24956   7.222   4.207  10.693 -1.5290  0.6763  0.1746
  185MOL0     H24957   6.802   4.260  10.504 -1.3184  0.7370 -1.4459
  185MOL0     H24958   6.660   4.311  10.303 -1.2989  3.6335  0.0385
  185MOL0     H24959   5.247   4.345   9.680  0.8800  0.9234 -0.8595
  185MOL0     H24960   5.061   4.204   9.622  3.0706  0.8447 -0.5281
  185MOL0     H24961   4.681   4.137   9.384 -0.2751  1.0074  0.6178
  185MOL0     H24962   4.482   4.016   9.296  1.0152  0.6652  0.2685
  185MOL0     H24963   4.193   3.845   9.604 -3.6432 -0.7111 -1.8817
  185MOL0     H24964   4.308   3.724   9.543  2.3740  1.0879 -0.4863
  185MOL0     H24965   4.137   3.728   9.346  0.8207  0.3908 -0.9066
  185MOL0     H24966   4.042   3.836   9.450  0.0737 -0.1403 -1.0739
  185MOL0     H24967   4.022   3.656   9.629  0.1337  0.0280  0.6059
  185MOL0     H24968   4.123   3.548   9.528 -1.0805 -0.1985  0.4282
  185MOL0     H24969   3.865   3.505   9.515  0.1484 -1.8907 -1.1148
  185MOL0     H24970   3.855   3.667   9.435 -0.3723 -0.8307 -1.6637
  185MOL0     H24971   4.021   3.364   9.182 -1.7733  1.0141 -1.7439
  185MOL0     H24972   4.363   3.918   9.689 -2.9142 -0.7272 -3.8565
  185MOL0     H24973   4.581   4.159   9.860  0.7377  0.5401  1.1019
  185MOL0     H24974   4.438   4.059   9.866 -0.1462  1.1678 -2.2695
  185MOL0     H24975   4.598   3.977   9.872  0.1572  0.3571  0.1998
  186MOL0     O24976   7.835   0.310   6.950 -0.8488 -0.0319  0.4734
  186MOL0     C24977   7.825   0.259   6.838 -0.3838  0.1133  1.2080
  186MOL0     O24978   7.914   0.265   6.735 -0.1808 -0.2130  0.1820
  186MOL0     C24979   8.031   0.336   6.749 -1.0655  0.0970  0.0574
  186MOL0     C24980   8.107   0.349   6.867 -0.4694  0.2429 -0.0368
  186MOL0     C24981   8.225   0.425   6.860  0.1808 -0.2748  0.3496
  186MOL0     C24982   8.268   0.485   6.741  0.4678  1.2573  0.0561
  186MOL0     O24983   8.384   0.551   6.731  0.8685 -0.3369 -0.9987
  186MOL0     C24984   8.385   0.669   6.812 -0.7908 -0.0403 -0.0573
  186MOL0     C24985   8.503   0.749   6.766  0.3319 -1.1113 -0.3942
  186MOL0     C24986   8.565   0.839   6.876  0.1712 -0.8889 -0.5538
  186MOL0     C24987   8.685   0.928   6.843  0.3527  0.2859  0.1128
  186MOL0     C24988   8.722   1.014   6.966 -0.6713 -0.7847  0.1325
  186MOL0     C24989   8.828   1.117   6.917  0.6214  0.6917  0.1624
  186MOL0     C24990   8.951   1.068   6.831 -0.1745  0.3242  0.0927
  186MOL0     C24991   9.028   0.947   6.893 -0.0158  0.4812 -0.3461
  186MOL0     N24992   9.104   0.976   7.018  0.3744  0.1643 -0.1078
  186MOL0     C24993   9.102   0.897   7.126 -0.1733 -0.8785 -1.1864
  186MOL0     C24994   9.186   0.959   7.212 -0.0500  0.4017  0.1401
  186MOL0     C24995   9.223   0.913   7.343 -0.4859  0.5553 -0.7531
  186MOL0     C24996   9.363   0.948   7.402  0.0528 -0.6571  0.6737
  186MOL0     C24997   9.475   0.931   7.307 -0.2702  0.0460  0.0025
  186MOL0     C24998   9.610   0.965   7.371  0.6099 -0.6171 -0.1162
  186MOL0     O24999   9.712   0.901   7.307  0.2568 -0.1438  0.3054
  186MOL0     C25000   9.841   0.939   7.340  0.0262 -0.2681  0.6212
  186MOL0     C25001   9.886   0.950   7.469 -0.4050  0.9827  0.7277
  186MOL0     C25002  10.019   0.985   7.506  1.6798  0.5684  0.6971
  186MOL0     C25003  10.109   1.007   7.398 -0.1532 -0.3890  0.0403
  186MOL0     C25004  10.244   1.048   7.439  0.1132  1.0357 -0.1452
  186MOL0     O25005  10.324   1.068   7.340 -0.0416  0.4226  0.2323
  186MOL0     C25006  10.442   1.135   7.346 -0.1057  0.0336 -0.3423
  186MOL0     C25007  10.484   1.221   7.456  0.1066  0.2606  0.7063
  186MOL0     C25008  10.603   1.290   7.446  0.1668  0.7899  0.3383
  186MOL0     C25009  10.691   1.269   7.333  0.0363  0.2724 -0.4882
  186MOL0     O25010  10.826   1.308   7.324 -0.0921  0.7616  0.4620
  186MOL0     C25011  10.896   1.335   7.446 -0.3312  0.3119  0.0638
  186MOL0     C25012  11.044   1.376   7.427  0.5544  0.0954 -0.0501
  186MOL0     C25013  11.139   1.260   7.379 -0.0036 -0.3441 -0.4985
  186MOL0     C25014  11.286   1.291   7.400 -0.4679 -1.2534  0.3477
  186MOL0     C25015  11.364   1.162   7.359  0.0685  0.0730  0.1488
  186MOL0     C25016  11.509   1.156   7.407 -0.1466  0.0991 -0.5564
  186MOL0     C25017  11.604   1.258   7.336 -0.0702 -0.3502  0.5562
  186MOL0     C25018  11.760   1.222   7.362  0.0514 -0.2601  0.2251
  186MOL0    Cl25019  11.822   1.069   7.310 -0.0868 -0.0182  0.3318
  186MOL0     C25020  10.647   1.192   7.227  0.2098  0.5730  0.5729
  186MOL0     C25021  10.517   1.134   7.234  1.0034 -0.1511 -0.0424
  186MOL0     O25022  10.262   1.066   7.562 -0.0968  0.6142  0.2948
  186MOL0     C25023  10.067   0.999   7.263  0.2658  0.2454 -0.0706
  186MOL0     C25024   9.929   0.972   7.240 -0.5555  0.0458 -0.0519
  186MOL0     N25025   9.215   1.077   7.168 -1.1232 -0.3542 -0.3290
  186MOL0     N25026   9.169   1.087   7.045  0.2060 -1.3494  0.7278
  186MOL0     C25027   8.181   0.476   6.636 -1.0887 -0.2497  0.1313
  186MOL0     C25028   8.067   0.405   6.637  0.3068  0.1803 -0.0594
  186MOL0     C25029   7.685   0.228   6.798  0.9134 -0.4509 -0.3777
  186MOL0     C25030   7.595   0.184   6.895  0.8070 -0.2405  0.7979
  186MOL0     C25031   7.468   0.140   6.864 -0.4938 -0.0457  0.0584
  186MOL0     C25032   7.418   0.172   6.738 -0.3019  0.4703  0.2305
  186MOL0     O25033   7.293   0.145   6.683 -0.6769 -0.5606  0.2668
  186MOL0     C25034   7.187   0.126   6.774 -0.7932  0.5956  0.6218
  186MOL0     C25035   7.056   0.111   6.696 -0.6554  0.5200 -0.0435
  186MOL0     C25036   6.941   0.108   6.797 -0.1656 -0.6222 -0.2470
  186MOL0     C25037   6.804   0.113   6.725  0.1713 -0.9116  0.5052
  186MOL0     C25038   6.694   0.110   6.826  0.1439 -0.1375 -1.0285
  186MOL0     C25039   6.608   0.123   6.906  0.0943  0.2297  0.1110
  186MOL0     C25040   7.499   0.223   6.637 -0.2840 -0.3479  0.1303
  186MOL0     C25041   7.640   0.242   6.661 -0.5755  0.1516 -0.1370
  186MOL0     C25042   7.720   0.290   6.549  0.4006  0.4314  0.5625
  186MOL0     H25043   8.065   0.314   6.960 -0.0497  0.2630  0.1627
  186MOL0     H25044   8.284   0.432   6.950 -2.2355  3.2537  1.8727
  186MOL0     H25045   8.286   0.717   6.815  0.1407  2.0110  0.0337
  186MOL0     H25046   8.404   0.631   6.913  0.4057  0.3534 -0.1168
  186MOL0     H25047   8.470   0.811   6.683  1.1746  1.0127  0.7823
  186MOL0     H25048   8.576   0.679   6.724  2.3849  0.7342 -0.1139
  186MOL0     H25049   8.606   0.777   6.957  0.3776  0.7172  0.6222
  186MOL0     H25050   8.474   0.885   6.916 -1.3680 -2.2690 -2.3005
  186MOL0     H25051   8.765   0.855   6.825  1.0361  1.2605 -0.9526
  186MOL0     H25052   8.674   0.995   6.757 -1.1805  0.7803  0.6558
  186MOL0     H25053   8.642   1.070   7.015  1.4276  3.1020 -0.4157
  186MOL0     H25054   8.768   0.950   7.042  0.4029 -2.5545 -1.9019
  186MOL0     H25055   8.767   1.180   6.851 -0.2822 -3.3654 -3.3095
  186MOL0     H25056   8.865   1.164   7.008  2.7372 -0.2713 -0.1564
  186MOL0     H25057   9.022   1.146   6.801  0.9628 -1.2423 -1.5465
  186MOL0     H25058   8.907   1.027   6.740 -0.6910 -0.1922  0.5721
  186MOL0     H25059   8.962   0.863   6.916  0.9671 -1.0529 -2.7288
  186MOL0     H25060   9.102   0.919   6.817 -0.9426  2.7269 -2.2138
  186MOL0     H25061   9.069   0.795   7.142 -0.4969 -0.3673  2.1902
  186MOL0     H25062   9.142   0.942   7.411 -1.6211 -0.0040 -1.8332
  186MOL0     H25063   9.226   0.803   7.339  0.6159  0.4551  1.2175
  186MOL0     H25064   9.354   1.055   7.424  0.7477 -0.6337  0.8985
  186MOL0     H25065   9.375   0.890   7.494 -1.4628 -0.3603  1.0772
  186MOL0     H25066   9.449   0.995   7.222 -1.6190  0.9026  1.0238
  186MOL0     H25067   9.489   0.825   7.281 -0.7320 -0.7708  2.7701
  186MOL0     H25068   9.611   0.944   7.478 -4.8244 -1.1202  0.1154
  186MOL0     H25069   9.613   1.074   7.364  1.4904 -0.5889  0.6098
  186MOL0     H25070   9.819   0.917   7.548 -0.0627  3.0748  1.9691
  186MOL0     H25071  10.047   0.988   7.611  0.4232 -0.5064  1.0994
  186MOL0     H25072  10.434   1.230   7.552 -0.1304  1.4004  0.4841
  186MOL0     H25073  10.636   1.353   7.527  2.2911 -2.4934  2.2250
  186MOL0     H25074  10.851   1.409   7.513  2.9038 -1.3869  4.5928
  186MOL0     H25075  10.887   1.244   7.504  2.3353  0.3303  0.6465
  186MOL0     H25076  11.044   1.456   7.353  1.8357 -0.9456 -1.2271
  186MOL0     H25077  11.086   1.419   7.519  1.4964  0.1404 -0.4840
  186MOL0     H25078  11.113   1.163   7.423 -1.2594  0.5201  0.7740
  186MOL0     H25079  11.122   1.241   7.273 -0.7730  0.1777 -0.4773
  186MOL0     H25080  11.298   1.304   7.508  2.8861 -2.7107  0.2561
  186MOL0     H25081  11.324   1.378   7.348 -1.5040 -0.5489  0.7291
  186MOL0     H25082  11.378   1.160   7.251  2.2084 -0.3102  0.3849
  186MOL0     H25083  11.311   1.072   7.390  0.9250 -0.3619  0.4031
  186MOL0     H25084  11.514   1.191   7.511  3.1970  1.0076 -0.9021
  186MOL0     H25085  11.553   1.057   7.392  1.9962  0.6360  1.5511
  186MOL0     H25086  11.565   1.357   7.360  0.3115 -0.1795  0.4829
  186MOL0     H25087  11.586   1.249   7.228 -2.4901 -0.1612  0.8943
  186MOL0     H25088  11.805   1.301   7.301 -0.8308 -1.9516 -2.8269
  186MOL0     H25089  11.781   1.235   7.469  1.7319  0.0489 -0.1043
  186MOL0     H25090  10.719   1.166   7.150 -0.6496 -1.5368  0.4239
  186MOL0     H25091  10.478   1.072   7.154  0.8344  1.3621 -1.1740
  186MOL0     H25092  10.129   1.023   7.177 -2.3705  0.0587 -2.1720
  186MOL0     H25093   9.885   0.984   7.142  0.6659  1.1620 -0.4926
  186MOL0     H25094   8.215   0.512   6.539 -0.9265  3.5433  1.4519
  186MOL0     H25095   8.004   0.392   6.550  1.6483 -0.2172 -0.9954
  186MOL0     H25096   7.628   0.166   6.997  0.5004  0.6896  1.0692
  186MOL0     H25097   7.408   0.102   6.947 -0.9491 -1.0070 -0.6948
  186MOL0     H25098   7.182   0.220   6.831  1.1472  1.1526 -0.0517
  186MOL0     H25099   7.216   0.043   6.839  0.5242 -0.1697 -0.8926
  186MOL0     H25100   7.053   0.018   6.637  1.2640  0.4253 -0.0641
  186MOL0     H25101   7.048   0.201   6.634  2.6058  1.8403  1.2317
  186MOL0     H25102   6.940   0.199   6.857 -2.5615  0.1140 -1.2568
  186MOL0     H25103   6.944   0.018   6.860 -2.2268 -0.0079  0.8305
  186MOL0     H25104   6.786   0.194   6.655  0.4127 -1.4619 -0.1998
  186MOL0     H25105   6.778   0.024   6.667  1.2243 -1.1198  0.3435
  186MOL0     H25106   6.537   0.129   6.986  2.4261 -3.4694  2.7521
  186MOL0     H25107   7.455   0.240   6.539 -3.0036 -0.5548  1.2355
  186MOL0     H25108   7.659   0.314   6.461  1.9112 -0.8352 -0.8822
  186MOL0     H25109   7.769   0.382   6.579  1.9969 -0.6859  1.5175
  186MOL0     H25110   7.789   0.212   6.515 -0.7281 -0.3931  0.0846
  187MOL0     O25111   2.571   6.745   9.458 -0.6308  0.0054  0.4136
  187MOL0     C25112   2.644   6.650   9.452 -0.2157 -0.4708 -0.8609
  187MOL0     O25113   2.600   6.521   9.444  0.0051  0.1923 -0.3931
  187MOL0     C25114   2.483   6.498   9.377  0.7783  0.2204 -0.6033
  187MOL0     C25115   2.456   6.570   9.255 -0.7375 -0.3674 -0.5415
  187MOL0     C25116   2.341   6.559   9.174 -0.1033  0.4586 -0.7029
  187MOL0     C25117   2.250   6.464   9.217  0.3847 -0.5057 -0.5269
  187MOL0     O25118   2.128   6.445   9.163 -0.3127 -0.7905 -0.9826
  187MOL0     C25119   2.098   6.506   9.035  0.4012 -0.2392  0.3356
  187MOL0     C25120   1.970   6.452   8.974  0.0672  0.1259 -0.5381
  187MOL0     C25121   1.968   6.301   8.957  0.8406  0.4013 -0.2754
  187MOL0     C25122   1.836   6.267   8.891  0.5163  0.4155  0.8715
  187MOL0     C25123   1.764   6.145   8.965  0.4704 -0.1206  0.0003
  187MOL0     C25124   1.861   6.021   8.992 -0.4376  0.1600  0.0611
  187MOL0     C25125   1.944   5.979   8.862  0.1153  0.0158 -0.1502
  187MOL0     C25126   2.019   5.849   8.879  1.1711  0.2259  0.5814
  187MOL0     N25127   2.112   5.827   8.770  0.4289 -0.0830  0.4041
  187MOL0     C25128   2.114   5.738   8.660  0.4678 -0.4349 -0.1489
  187MOL0     C25129   2.233   5.746   8.598  0.2096  0.7031 -0.6212
  187MOL0     C25130   2.286   5.666   8.482  0.0512 -0.1691 -1.7813
  187MOL0     C25131   2.446   5.662   8.488  0.1900 -0.4026  0.1043
  187MOL0     C25132   2.507   5.573   8.375  0.1948  0.2189  0.4833
  187MOL0     C25133   2.656   5.556   8.396 -0.1767  0.5192  0.1543
  187MOL0     O25134   2.672   5.479   8.513 -0.4403 -0.4384 -0.4032
  187MOL0     C25135   2.787   5.395   8.528  0.0127 -0.7646 -0.4880
  187MOL0     C25136   2.901   5.401   8.453  0.7865 -0.3661 -0.0651
  187MOL0     C25137   3.015   5.336   8.481 -0.2672 -0.0111 -0.0676
  187MOL0     C25138   3.031   5.273   8.606  0.2718  0.3118 -0.1761
  187MOL0     C25139   3.160   5.211   8.641  0.6756 -0.0249 -0.5209
  187MOL0     O25140   3.271   5.244   8.571 -0.5426  0.0981 -0.1669
  187MOL0     C25141   3.395   5.185   8.598  1.1332  0.4132  0.2964
  187MOL0     C25142   3.495   5.263   8.655  0.3627 -0.3499 -0.3819
  187MOL0     C25143   3.625   5.213   8.683  0.4837 -0.4473  0.4184
  187MOL0     C25144   3.661   5.078   8.646 -0.6077  0.6746 -0.6235
  187MOL0     O25145   3.782   5.029   8.690 -0.2427 -0.8807  0.5457
  187MOL0     C25146   3.812   4.890   8.711  0.2732 -0.4596  0.2061
  187MOL0     C25147   3.714   4.819   8.810  0.2953 -0.0223 -0.1775
  187MOL0     C25148   3.678   4.919   8.917 -0.0897  0.0764  0.2320
  187MOL0     C25149   3.610   4.841   9.035  0.1409  0.2660  0.3459
  187MOL0     C25150   3.595   4.937   9.150  0.6154 -1.1196  0.1718
  187MOL0     C25151   3.519   4.883   9.265 -0.4833  0.4265 -0.5840
  187MOL0     C25152   3.588   4.769   9.340 -0.2839 -0.5132  0.4327
  187MOL0     C25153   3.537   4.756   9.481  0.3620 -0.1244  0.4145
  187MOL0    Cl25154   3.622   4.633   9.581 -0.2993 -0.1172  0.4443
  187MOL0     C25155   3.562   5.008   8.586  0.1342 -0.2701 -1.2251
  187MOL0     C25156   3.429   5.058   8.570 -0.2698  0.2892  0.3574
  187MOL0     O25157   3.150   5.118   8.719  0.0124  0.1728  0.5292
  187MOL0     C25158   2.916   5.262   8.688  0.4932 -0.1508  0.3257
  187MOL0     C25159   2.794   5.314   8.642 -0.4568  0.2126 -0.5369
  187MOL0     N25160   2.303   5.854   8.657  0.3073 -0.0901  0.0320
  187MOL0     N25161   2.227   5.904   8.757  0.4512 -0.3741  0.6821
  187MOL0     C25162   2.277   6.382   9.331 -0.2479  0.0936 -0.5727
  187MOL0     C25163   2.387   6.404   9.408  0.0148  0.2995 -0.2944
  187MOL0     C25164   2.787   6.674   9.482  1.1718 -0.1220  1.2044
  187MOL0     C25165   2.859   6.566   9.514 -0.2018  0.6567  0.3783
  187MOL0     C25166   2.993   6.573   9.541  0.3209  0.5223 -0.5158
  187MOL0     C25167   3.064   6.685   9.527 -0.6185  0.3668 -0.0501
  187MOL0     O25168   3.202   6.684   9.551 -0.4591  0.7462  0.1220
  187MOL0     C25169   3.269   6.802   9.598  0.0134 -0.5211  0.2292
  187MOL0     C25170   3.413   6.769   9.631  0.0366  0.7411  0.2392
  187MOL0     C25171   3.492   6.685   9.529 -0.2050  0.0888 -0.1460
  187MOL0     C25172   3.642   6.678   9.552 -0.2335  0.4013 -0.0052
  187MOL0     C25173   3.718   6.616   9.442 -0.9156 -0.2557 -0.0768
  187MOL0     C25174   3.781   6.575   9.348  0.0993 -0.7155  0.2081
  187MOL0     C25175   2.987   6.802   9.495 -0.6666 -0.4549  0.0430
  187MOL0     C25176   2.850   6.796   9.476  0.9348  0.0893 -0.1392
  187MOL0     C25177   2.790   6.933   9.439 -0.0023 -0.0665 -0.3814
  187MOL0     H25178   2.520   6.651   9.224 -0.6746 -0.8801 -1.8017
  187MOL0     H25179   2.321   6.619   9.086 -2.2165  1.1319  0.1599
  187MOL0     H25180   2.086   6.615   9.031  0.7064 -0.2349 -0.8536
  187MOL0     H25181   2.180   6.478   8.968  0.5258 -0.0413  0.4036
  187MOL0     H25182   1.937   6.498   8.880 -1.6195  0.1978  0.0433
  187MOL0     H25183   1.893   6.482   9.046  2.2959 -1.2244  2.6011
  187MOL0     H25184   1.966   6.259   9.058 -0.9457  0.1919 -0.3804
  187MOL0     H25185   2.061   6.272   8.906  1.3311  0.5574  0.5041
  187MOL0     H25186   1.771   6.354   8.878  0.4281  0.0375 -1.7069
  187MOL0     H25187   1.867   6.238   8.790  3.0159 -1.8527  2.1808
  187MOL0     H25188   1.714   6.177   9.056 -1.5807 -1.4633 -0.5932
  187MOL0     H25189   1.687   6.105   8.898 -1.7465 -1.2049  2.9726
  187MOL0     H25190   1.945   6.036   9.061  0.6905 -1.8535 -0.7677
  187MOL0     H25191   1.804   5.938   9.033  1.4497 -0.1051  2.3478
  187MOL0     H25192   2.017   6.058   8.843 -0.0437  0.8620  2.3176
  187MOL0     H25193   1.876   5.970   8.777 -1.3408 -1.7003  1.1009
  187MOL0     H25194   2.074   5.847   8.974  0.1233  1.4134  1.2390
  187MOL0     H25195   1.950   5.767   8.899 -0.1505  1.1203 -0.2035
  187MOL0     H25196   2.047   5.654   8.642  2.2092 -1.8402 -0.3345
  187MOL0     H25197   2.248   5.563   8.485 -1.3248  0.2828  1.9988
  187MOL0     H25198   2.241   5.703   8.389 -2.0088  0.8340 -0.4644
  187MOL0     H25199   2.494   5.760   8.489 -0.3657 -0.1357  0.4650
  187MOL0     H25200   2.475   5.610   8.579 -0.7472 -0.1850  0.5354
  187MOL0     H25201   2.492   5.609   8.273  0.1373  0.4694  0.5798
  187MOL0     H25202   2.462   5.473   8.377  1.5984 -0.5175 -1.3157
  187MOL0     H25203   2.693   5.659   8.400 -0.1644  0.5384 -0.4433
  187MOL0     H25204   2.684   5.498   8.308  1.2846 -1.2852  1.7019
  187MOL0     H25205   2.897   5.445   8.354  2.9403 -1.8928 -0.9113
  187MOL0     H25206   3.103   5.352   8.420  0.8072  1.4403  1.7792
  187MOL0     H25207   3.452   5.361   8.674  0.7042 -0.2219 -0.2648
  187MOL0     H25208   3.686   5.279   8.745 -1.3406  0.9430  0.8135
  187MOL0     H25209   3.815   4.837   8.616 -0.5292  0.9603 -0.6453
  187MOL0     H25210   3.911   4.885   8.758  0.1368 -0.0667  0.5471
  187MOL0     H25211   3.621   4.792   8.758 -0.2125 -0.3977  0.8918
  187MOL0     H25212   3.760   4.724   8.839  0.5525  0.5927  1.5290
  187MOL0     H25213   3.767   4.965   8.960 -0.2824 -0.0746  0.7989
  187MOL0     H25214   3.612   4.996   8.874  0.3217  0.8196  0.9053
  187MOL0     H25215   3.672   4.754   9.055  0.3682 -0.5119 -3.1221
  187MOL0     H25216   3.515   4.802   8.996  0.9429  0.4920 -2.0032
  187MOL0     H25217   3.544   5.025   9.111 -0.4404 -1.9507 -0.3569
  187MOL0     H25218   3.693   4.975   9.180 -0.7223  2.0952  0.9491
  187MOL0     H25219   3.490   4.956   9.340 -2.6262 -2.2454  1.3821
  187MOL0     H25220   3.428   4.841   9.222  0.2959 -2.4507  0.3316
  187MOL0     H25221   3.695   4.790   9.342 -0.0461 -1.6408  0.2761
  187MOL0     H25222   3.570   4.680   9.279  1.0284  0.3460 -1.2974
  187MOL0     H25223   3.527   4.848   9.539 -0.1237 -1.0341  1.8328
  187MOL0     H25224   3.436   4.720   9.462  0.2899  1.2317 -2.0664
  187MOL0     H25225   3.579   4.906   8.556 -1.3679 -0.5340 -1.2770
  187MOL0     H25226   3.352   4.992   8.530  1.6752 -2.8628  1.4903
  187MOL0     H25227   2.928   5.212   8.784  4.8097 -1.2481 -0.5416
  187MOL0     H25228   2.715   5.319   8.716 -0.5787  0.5163 -0.6865
  187MOL0     H25229   2.208   6.308   9.371  0.6193  0.1658  1.1024
  187MOL0     H25230   2.390   6.350   9.502 -3.0192 -3.2811 -1.9886
  187MOL0     H25231   2.818   6.467   9.528  4.0266 -1.3132  0.2789
  187MOL0     H25232   3.035   6.476   9.568  1.9040  1.6468  1.3132
  187MOL0     H25233   3.221   6.852   9.682  1.2698  2.3273 -0.6039
  187MOL0     H25234   3.275   6.883   9.524 -0.7187 -0.1854  0.5260
  187MOL0     H25235   3.405   6.714   9.725  2.5634  0.8709  0.6005
  187MOL0     H25236   3.471   6.853   9.670 -2.8233  0.9515  4.8298
  187MOL0     H25237   3.481   6.727   9.429 -0.7768  1.3823  0.4222
  187MOL0     H25238   3.446   6.586   9.527 -1.7339  0.7669 -0.4646
  187MOL0     H25239   3.677   6.782   9.560 -0.2595  0.4099 -0.0050
  187MOL0     H25240   3.665   6.629   9.647  4.5731  1.6954 -0.2048
  187MOL0     H25241   3.837   6.533   9.266 -0.3560 -2.9687  0.9970
  187MOL0     H25242   3.046   6.893   9.490 -0.7061 -0.4911 -1.6830
  187MOL0     H25243   2.718   6.966   9.514  1.2971  0.0029  0.8938
  187MOL0     H25244   2.868   7.009   9.430 -1.1484  1.0642 -0.9198
  187MOL0     H25245   2.739   6.924   9.343 -1.7642 -2.3439  0.6640
  188MOL0     O25246   8.771   6.725   9.229 -0.8888  0.0858 -0.7024
  188MOL0     C25247   8.758   6.748   9.112 -0.1318 -0.0960 -0.5312
  188MOL0     O25248   8.862   6.797   9.041  0.1371 -0.6809  0.7248
  188MOL0     C25249   8.984   6.833   9.106  0.1411  0.9554  0.6150
  188MOL0     C25250   9.099   6.814   9.022  0.8644 -0.0788  0.4426
  188MOL0     C25251   9.226   6.823   9.076  0.1152  0.2958  0.7609
  188MOL0     C25252   9.248   6.866   9.211 -0.1482 -0.0117 -0.0804
  188MOL0     O25253   9.378   6.864   9.253  0.2920  0.1413  0.7200
  188MOL0     C25254   9.412   6.879   9.388 -0.3271  0.7631 -0.2302
  188MOL0     C25255   9.559   6.843   9.401  0.2437  0.3115  0.6868
  188MOL0     C25256   9.639   6.948   9.316 -0.7826  0.6216 -0.3651
  188MOL0     C25257   9.784   6.916   9.358 -0.0503  0.3296  0.0225
  188MOL0     C25258   9.875   7.027   9.298 -0.9852  0.0940 -0.0479
  188MOL0     C25259  10.022   7.012   9.342  0.6675 -0.6884  0.3164
  188MOL0     C25260  10.120   7.119   9.286 -0.4950  0.8085 -0.0530
  188MOL0     C25261  10.260   7.108   9.349 -0.0978  0.1635  0.6066
  188MOL0     N25262  10.362   7.201   9.302 -0.3748 -0.5819  0.7223
  188MOL0     C25263  10.452   7.178   9.206 -0.0394  1.1027  0.1700
  188MOL0     C25264  10.546   7.264   9.238  0.4269 -0.0274 -0.3996
  188MOL0     C25265  10.661   7.256   9.141  0.0686 -0.0628  0.2042
  188MOL0     C25266  10.787   7.314   9.199 -0.2486 -0.1156  0.1157
  188MOL0     C25267  10.893   7.316   9.096 -0.3429  0.5130  0.2746
  188MOL0     C25268  11.021   7.391   9.150 -0.3464  0.8968 -0.5593
  188MOL0     O25269  11.106   7.431   9.041  0.5431 -0.2937 -0.3189
  188MOL0     C25270  11.239   7.453   9.060 -0.0550  1.2031 -0.2687
  188MOL0     C25271  11.283   7.521   9.167  0.2645 -0.4330  0.5784
  188MOL0     C25272  11.420   7.536   9.195  0.6731  1.0002 -0.5657
  188MOL0     C25273  11.518   7.501   9.104  0.7585 -0.3799  0.3916
  188MOL0     C25274  11.663   7.522   9.127  0.0762 -0.6731 -0.6843
  188MOL0     O25275  11.751   7.435   9.062 -0.2308 -0.2366  0.0125
  188MOL0     C25276  11.889   7.450   9.098 -0.4815  0.9332  0.8141
  188MOL0     C25277  11.962   7.569   9.136  0.2535  1.2441  0.2011
  188MOL0     C25278  12.105   7.555   9.152  1.3221 -0.2485  0.1576
  188MOL0     C25279  12.176   7.436   9.139 -0.5928 -0.0325 -0.5684
  188MOL0     O25280  12.308   7.425   9.178  0.8325  0.1125 -0.0189
  188MOL0     C25281  12.355   7.510   9.286 -0.3806 -0.1719 -0.2654
  188MOL0     C25282  12.479   7.454   9.357 -0.1785 -0.3272  0.9403
  188MOL0     C25283  12.587   7.441   9.250  0.2251 -0.1988 -0.2923
  188MOL0     C25284  12.726   7.391   9.312 -0.3764 -0.5658  0.0792
  188MOL0     C25285  12.728   7.249   9.382  0.2025  0.5932  0.7461
  188MOL0     C25286  12.864   7.232   9.448  0.0765 -0.2180 -0.1030
  188MOL0     C25287  12.972   7.187   9.350 -1.2535  0.3087 -0.3663
  188MOL0     C25288  13.107   7.173   9.420 -0.1838  0.4593  0.8149
  188MOL0    Cl25289  13.078   7.063   9.553  0.0665 -0.0359  0.0678
  188MOL0     C25290  12.103   7.321   9.105 -0.4097 -1.2129 -0.5372
  188MOL0     C25291  11.966   7.332   9.090 -0.2409  0.2131 -0.4759
  188MOL0     O25292  11.695   7.613   9.204  0.0164 -0.4563  0.4256
  188MOL0     C25293  11.473   7.441   8.987 -0.3503  0.0336  0.4284
  188MOL0     C25294  11.336   7.415   8.963 -0.2127  0.3249  0.0077
  188MOL0     N25295  10.510   7.350   9.338  0.1144  0.2079  0.4301
  188MOL0     N25296  10.400   7.308   9.373 -0.4684 -0.6912  0.3343
  188MOL0     C25297   9.137   6.902   9.285  0.5088  0.1541 -0.4393
  188MOL0     C25298   9.005   6.886   9.233 -0.1679 -0.1810  0.1321
  188MOL0     C25299   8.630   6.724   9.041 -0.1632  0.0675  0.1085
  188MOL0     C25300   8.632   6.748   8.903  0.0239 -0.1029  0.1971
  188MOL0     C25301   8.525   6.730   8.814  0.7414 -0.1035  0.0188
  188MOL0     C25302   8.398   6.700   8.863 -0.4068 -0.2468  0.1102
  188MOL0     O25303   8.290   6.694   8.779 -0.1933  0.0329  0.0119
  188MOL0     C25304   8.164   6.753   8.821  0.5267 -0.4637  0.1911
  188MOL0     C25305   8.047   6.705   8.737 -0.2900 -0.3324 -0.3591
  188MOL0     C25306   8.074   6.751   8.593 -0.6099  0.4755  0.1907
  188MOL0     C25307   7.970   6.689   8.498  0.0018 -0.3041  0.4439
  188MOL0     C25308   7.973   6.757   8.363  0.0702  0.0777  0.6711
  188MOL0     C25309   7.964   6.796   8.248  0.2873 -1.4416 -0.5283
  188MOL0     C25310   8.393   6.674   9.002  0.1033 -0.3001 -0.8673
  188MOL0     C25311   8.505   6.670   9.090  0.1847 -0.9809 -1.0422
  188MOL0     C25312   8.478   6.611   9.237 -0.5080  0.8376 -0.2977
  188MOL0     H25313   9.083   6.777   8.922  0.0059  1.3207  0.0349
  188MOL0     H25314   9.311   6.799   9.012  1.9120  5.0696  0.9036
  188MOL0     H25315   9.403   6.986   9.413  1.3644  0.8954 -0.0873
  188MOL0     H25316   9.351   6.822   9.458  0.1520  0.4783 -0.0409
  188MOL0     H25317   9.564   6.745   9.352 -2.0825  0.2294  0.5112
  188MOL0     H25318   9.590   6.842   9.506  1.2038  0.5647  0.4183
  188MOL0     H25319   9.610   7.047   9.352  0.1345 -0.1225  2.6650
  188MOL0     H25320   9.627   6.938   9.207  0.8947 -0.5540 -0.4761
  188MOL0     H25321   9.784   6.912   9.467  2.1967 -1.9731  0.0188
  188MOL0     H25322   9.813   6.817   9.320  2.9179  1.4150 -0.7506
  188MOL0     H25323   9.869   7.027   9.189  2.8933 -2.1348 -0.4473
  188MOL0     H25324   9.840   7.126   9.326 -2.9932  0.6506 -3.8590
  188MOL0     H25325  10.034   7.017   9.450 -0.9409 -0.6852  0.5072
  188MOL0     H25326  10.061   6.919   9.298  0.2444 -0.6868 -0.0676
  188MOL0     H25327  10.069   7.214   9.307 -2.1911  0.2802 -1.5905
  188MOL0     H25328  10.119   7.113   9.177 -1.8811  0.0964 -0.0123
  188MOL0     H25329  10.256   7.114   9.458  0.3594  3.6008  0.5578
  188MOL0     H25330  10.298   7.008   9.329 -0.5951 -0.0232  0.5767
  188MOL0     H25331  10.451   7.099   9.132  0.9573  1.3328 -0.1108
  188MOL0     H25332  10.679   7.152   9.115  1.3245  0.2409 -0.2016
  188MOL0     H25333  10.627   7.306   9.049 -0.1505 -2.1500 -0.9026
  188MOL0     H25334  10.772   7.413   9.244 -1.1733 -0.9323  1.6837
  188MOL0     H25335  10.813   7.248   9.283  2.7849 -0.8637 -1.2719
  188MOL0     H25336  10.863   7.374   9.008 -0.1998  0.5527  0.2529
  188MOL0     H25337  10.928   7.215   9.072  3.1272  0.7510  3.5394
  188MOL0     H25338  11.069   7.319   9.217 -1.4075 -1.2056 -1.9491
  188MOL0     H25339  10.990   7.479   9.207 -1.2175 -0.3179  0.9346
  188MOL0     H25340  11.213   7.565   9.237 -1.8941 -2.5836 -0.1217
  188MOL0     H25341  11.445   7.593   9.284  1.7610 -0.9994  0.4873
  188MOL0     H25342  11.915   7.667   9.136 -1.4347  0.4885 -0.0377
  188MOL0     H25343  12.146   7.652   9.178 -0.3078  0.6822 -0.5742
  188MOL0     H25344  12.363   7.613   9.249 -3.5265 -0.1025 -1.0642
  188MOL0     H25345  12.284   7.510   9.369 -0.5551 -0.2843 -0.4123
  188MOL0     H25346  12.508   7.527   9.433 -0.9464  0.8879  0.1059
  188MOL0     H25347  12.454   7.362   9.411  2.6087 -0.4101  2.2248
  188MOL0     H25348  12.549   7.380   9.168  1.0377  0.0649 -0.8735
  188MOL0     H25349  12.597   7.542   9.210 -0.4707 -1.3199 -3.5433
  188MOL0     H25350  12.764   7.464   9.384  5.2802 -0.7813 -2.2276
  188MOL0     H25351  12.808   7.400   9.240  0.3046 -0.9141  0.8053
  188MOL0     H25352  12.706   7.166   9.313  1.6465 -0.2670  1.2896
  188MOL0     H25353  12.661   7.241   9.468  0.7722 -1.3090  1.0475
  188MOL0     H25354  12.894   7.323   9.500  2.4657 -1.4272  0.7747
  188MOL0     H25355  12.841   7.150   9.517 -1.4718 -1.5290 -2.0283
  188MOL0     H25356  12.993   7.250   9.263  1.2891 -1.9956 -1.5861
  188MOL0     H25357  12.951   7.085   9.316  2.2038 -0.4686 -0.5143
  188MOL0     H25358  13.183   7.128   9.354 -2.0447 -2.0087  0.2099
  188MOL0     H25359  13.146   7.271   9.452  2.2134 -0.8804  2.2887
  188MOL0     H25360  12.151   7.228   9.078 -0.4770 -1.0098 -1.3971
  188MOL0     H25361  11.904   7.246   9.063  2.3878 -2.1652  0.5280
  188MOL0     H25362  11.543   7.422   8.907 -2.0342 -0.6766 -0.9559
  188MOL0     H25363  11.305   7.380   8.866  2.9959 -0.7536 -0.7511
  188MOL0     H25364   9.156   6.950   9.380  1.1240  0.3707 -0.6666
  188MOL0     H25365   8.926   6.925   9.297  0.0744 -1.3745  1.2138
  188MOL0     H25366   8.727   6.774   8.857 -0.1955  1.9292  0.7876
  188MOL0     H25367   8.533   6.741   8.706  1.9654  0.2307  0.1262
  188MOL0     H25368   8.157   6.861   8.838 -0.5094 -0.6734  1.2086
  188MOL0     H25369   8.137   6.707   8.917  0.3876  0.7417  0.7525
  188MOL0     H25370   7.951   6.742   8.774 -2.2755 -2.7873 -2.6286
  188MOL0     H25371   8.039   6.596   8.740  1.1658 -0.4486  2.3872
  188MOL0     H25372   8.174   6.725   8.556  0.7549  0.7542  3.3736
  188MOL0     H25373   8.073   6.860   8.590 -1.1806  0.4857 -3.1224
  188MOL0     H25374   7.996   6.583   8.493 -0.0831 -0.3082 -3.5164
  188MOL0     H25375   7.869   6.689   8.541 -0.3982 -1.0323 -0.4349
  188MOL0     H25376   7.973   6.836   8.149  1.9574 -0.3126  0.0255
  188MOL0     H25377   8.305   6.635   9.053  0.1930 -1.4776 -1.5722
  188MOL0     H25378   8.416   6.522   9.228 -0.6308  1.1033 -3.1348
  188MOL0     H25379   8.573   6.589   9.287 -0.3240 -2.1942 -1.7563
  188MOL0     H25380   8.434   6.690   9.298  0.0688  0.8345  0.1247
  189MOL0     O25381   9.376   1.701   0.228 -0.1719 -0.5077 -0.1538
  189MOL0     C25382   9.361   1.716   0.346 -0.1197  0.5812  0.1843
  189MOL0     O25383   9.466   1.708   0.435 -0.1580 -0.7167 -0.3992
  189MOL0     C25384   9.591   1.694   0.391  0.0170  1.3030  0.7611
  189MOL0     C25385   9.643   1.793   0.310  0.5849  0.0246  0.6638
  189MOL0     C25386   9.771   1.767   0.250  0.4396 -0.4381  0.1966
  189MOL0     C25387   9.836   1.652   0.281 -0.2387 -0.2696 -0.1195
  189MOL0     O25388   9.961   1.623   0.220  0.2917  0.1939  0.7778
  189MOL0     C25389  10.075   1.685   0.294  0.1263 -0.2162  0.4708
  189MOL0     C25390  10.214   1.635   0.249  0.1263  0.4448 -0.9443
  189MOL0     C25391  10.242   1.669   0.102 -0.4087 -0.9007 -0.3162
  189MOL0     C25392  10.385   1.718   0.088 -0.6782  0.4064  0.2401
  189MOL0     C25393  10.485   1.610   0.105 -0.1221  0.9729  0.8828
  189MOL0     C25394  10.627   1.669   0.090 -0.0795 -0.0176  1.0163
  189MOL0     C25395  10.748   1.571   0.056  0.6986 -0.1300  0.4654
  189MOL0     C25396  10.875   1.649   0.090 -0.6117  0.7297 -0.0230
  189MOL0     N25397  11.004   1.581   0.056  0.6183 -0.4264 -0.3892
  189MOL0     C25398  11.106   1.550   0.143  0.0960  1.0071 -0.3242
  189MOL0     C25399  11.195   1.487   0.063 -0.0161 -0.8590  0.1564
  189MOL0     C25400  11.337   1.445   0.102 -0.6292 -0.6159 -0.1261
  189MOL0     C25401  11.345   1.363   0.223  0.6662 -0.5437  0.1471
  189MOL0     C25402  11.287   1.226   0.196  0.2083  0.5341 -0.3045
  189MOL0     C25403  11.270   1.130   0.310  0.4919  0.3774 -0.1867
  189MOL0     O25404  11.376   1.134   0.395 -0.9864  0.1822 -0.5861
  189MOL0     C25405  11.498   1.088   0.348  0.1589 -0.2140 -0.5414
  189MOL0     C25406  11.602   1.117   0.440 -0.2519 -0.2681 -0.2127
  189MOL0     C25407  11.735   1.077   0.411 -0.9533 -0.4043 -0.9417
  189MOL0     C25408  11.767   1.015   0.293  0.0816  0.5243 -0.4756
  189MOL0     C25409  11.906   0.987   0.253  0.2324 -0.3584 -0.0325
  189MOL0     O25410  11.995   0.990   0.353  0.1566  0.3993 -0.1942
  189MOL0     C25411  12.128   0.962   0.323  0.5032  0.2765 -0.1457
  189MOL0     C25412  12.173   0.825   0.320 -0.7843 -0.0928 -0.3596
  189MOL0     C25413  12.301   0.790   0.294 -0.2691 -1.0076  0.3468
  189MOL0     C25414  12.387   0.897   0.260  0.3767 -0.1969 -0.4627
  189MOL0     O25415  12.518   0.879   0.223 -0.1579 -0.7698 -0.6865
  189MOL0     C25416  12.577   0.750   0.225 -0.8434  0.1125  0.4040
  189MOL0     C25417  12.727   0.759   0.193  0.0156 -0.0509  0.0250
  189MOL0     C25418  12.791   0.628   0.223  0.0363  0.4631  0.1067
  189MOL0     C25419  12.942   0.633   0.199  0.3929 -0.9714 -0.2557
  189MOL0     C25420  13.018   0.508   0.247  0.0261  0.0664  0.4736
  189MOL0     C25421  13.158   0.501   0.191  0.4837 -1.1006 -0.2700
  189MOL0     C25422  13.241   0.399   0.269 -1.4509  0.1859 -1.0069
  189MOL0     C25423  13.385   0.391   0.207  0.4733  0.0673  0.0905
  189MOL0    Cl25424  13.478   0.559   0.215 -0.1337 -0.2443 -0.5581
  189MOL0     C25425  12.351   1.034   0.278  0.0031 -0.7633  1.1037
  189MOL0     C25426  12.213   1.070   0.299  0.5155  0.4454  0.0693
  189MOL0     O25427  11.928   0.977   0.137 -0.1245  0.3947  0.4470
  189MOL0     C25428  11.660   0.978   0.207 -0.2975 -0.9204  0.3969
  189MOL0     C25429  11.526   1.017   0.236  0.7246 -0.8778  0.5467
  189MOL0     N25430  11.143   1.482  -0.067 -0.4288 -0.2209 -0.2537
  189MOL0     N25431  11.030   1.535  -0.063 -0.0074  1.0764 -0.1980
  189MOL0     C25432   9.788   1.560   0.373  0.1948  0.1655 -0.4002
  189MOL0     C25433   9.661   1.582   0.427  0.3511  0.4613  0.9941
  189MOL0     C25434   9.225   1.725   0.392 -0.5237  0.6160 -0.2837
  189MOL0     C25435   9.163   1.603   0.399 -0.2903  0.5742 -0.4184
  189MOL0     C25436   9.031   1.602   0.443  1.7789  0.0012  0.1546
  189MOL0     C25437   8.952   1.718   0.472 -0.2373  0.0894 -0.1741
  189MOL0     O25438   8.818   1.701   0.504  0.2217 -0.5329  0.4737
  189MOL0     C25439   8.726   1.802   0.523  0.3902  0.1153 -0.2209
  189MOL0     C25440   8.682   1.865   0.390  0.0509 -0.0528  0.2826
  189MOL0     C25441   8.555   1.949   0.406 -0.5401 -0.1170 -0.0292
  189MOL0     C25442   8.426   1.871   0.387 -0.2478  0.7280  0.0428
  189MOL0     C25443   8.388   1.826   0.261 -0.5749  0.3614  0.0845
  189MOL0     C25444   8.388   1.798   0.142 -0.3066  0.3695  0.4031
  189MOL0     C25445   9.019   1.838   0.456 -0.4558 -0.4662 -0.0467
  189MOL0     C25446   9.160   1.847   0.420  0.2674  1.2707 -0.2440
  189MOL0     C25447   9.226   1.978   0.435 -0.0656 -0.0944 -0.0864
  189MOL0     H25448   9.597   1.887   0.282  1.3907  0.3648  0.4322
  189MOL0     H25449   9.809   1.822   0.165 -2.1264 -0.8826 -1.3246
  189MOL0     H25450  10.060   1.793   0.287  1.8095  0.1519  1.8587
  189MOL0     H25451  10.066   1.660   0.401 -0.8534 -1.5080  0.1231
  189MOL0     H25452  10.216   1.528   0.272 -0.1358  0.8213  1.0301
  189MOL0     H25453  10.285   1.692   0.310 -1.4391  1.6990 -0.2438
  189MOL0     H25454  10.180   1.749   0.061 -1.5931  0.6047  3.8543
  189MOL0     H25455  10.220   1.579   0.043  1.3663 -3.1747  2.1776
  189MOL0     H25456  10.402   1.754  -0.015  0.9519  1.9927  0.9925
  189MOL0     H25457  10.400   1.808   0.148 -3.3743 -0.0834  1.7994
  189MOL0     H25458  10.484   1.557   0.201 -0.0468 -0.9994 -0.1641
  189MOL0     H25459  10.462   1.538   0.026 -2.4862  1.1948  1.2868
  189MOL0     H25460  10.618   1.722  -0.005 -1.4030 -1.9823 -0.0364
  189MOL0     H25461  10.658   1.722   0.181  1.1609 -3.2677  2.6845
  189MOL0     H25462  10.743   1.536  -0.048  1.6180 -2.7563  1.2324
  189MOL0     H25463  10.747   1.493   0.133 -0.3270 -0.4797  0.1148
  189MOL0     H25464  10.885   1.746   0.039  2.4029  0.4957 -0.0516
  189MOL0     H25465  10.870   1.659   0.199 -2.7094 -3.1538  0.4004
  189MOL0     H25466  11.118   1.569   0.249  5.0314 -2.2189 -0.0094
  189MOL0     H25467  11.378   1.396   0.013 -2.9814 -0.4524 -1.3743
  189MOL0     H25468  11.392   1.539   0.104 -0.2240 -0.8638  1.8628
  189MOL0     H25469  11.448   1.355   0.257  0.2178  0.9437  2.0930
  189MOL0     H25470  11.291   1.424   0.296  3.2872  2.1182  0.0556
  189MOL0     H25471  11.333   1.174   0.111 -2.0064  1.0910 -1.9211
  189MOL0     H25472  11.184   1.241   0.163  0.0910 -0.1294 -0.2700
  189MOL0     H25473  11.263   1.033   0.259  0.6357  0.8917 -1.2248
  189MOL0     H25474  11.177   1.149   0.364 -1.9314 -3.7958 -2.3935
  189MOL0     H25475  11.570   1.169   0.529 -4.8386 -1.4647 -0.9049
  189MOL0     H25476  11.821   1.104   0.472 -1.0123  1.2580 -1.5516
  189MOL0     H25477  12.098   0.749   0.333 -0.9852  0.3800  1.5781
  189MOL0     H25478  12.332   0.686   0.291 -1.2760 -1.3230  0.5641
  189MOL0     H25479  12.552   0.704   0.321  1.3306 -1.5246  0.2440
  189MOL0     H25480  12.530   0.705   0.138  0.3947 -2.6880  1.0772
  189MOL0     H25481  12.750   0.780   0.088  3.0701 -0.4853  0.5149
  189MOL0     H25482  12.775   0.843   0.243  2.0891 -0.2834 -1.4445
  189MOL0     H25483  12.774   0.611   0.330  0.8537 -0.6466  0.0741
  189MOL0     H25484  12.745   0.545   0.168 -1.3385  1.8367 -0.9218
  189MOL0     H25485  12.992   0.720   0.244  3.5693 -1.5064 -2.3776
  189MOL0     H25486  12.962   0.652   0.093 -2.1218  3.1779 -0.2381
  189MOL0     H25487  12.958   0.426   0.206  0.1436 -1.3254  2.9049
  189MOL0     H25488  13.022   0.502   0.356  0.1752  2.1832  0.6285
  189MOL0     H25489  13.148   0.466   0.088  0.4294 -0.1188 -0.6049
  189MOL0     H25490  13.198   0.602   0.205  1.6956 -1.5880 -0.0711
  189MOL0     H25491  13.199   0.298   0.259  0.3072 -0.7058  0.1083
  189MOL0     H25492  13.242   0.413   0.378  1.3756  0.8640 -1.0463
  189MOL0     H25493  13.443   0.307   0.246 -0.2417 -1.0818 -1.2476
  189MOL0     H25494  13.371   0.371   0.101 -0.2449  0.7963  0.0370
  189MOL0     H25495  12.426   1.110   0.260 -2.0006  1.1258  0.2775
  189MOL0     H25496  12.188   1.176   0.299  0.1214  0.3698  1.4025
  189MOL0     H25497  11.674   0.930   0.111 -0.4058  2.6139 -1.5495
  189MOL0     H25498  11.444   0.995   0.169  1.0467  2.0262 -0.9833
  189MOL0     H25499   9.845   1.467   0.378  0.3934  0.2317 -1.2544
  189MOL0     H25500   9.616   1.504   0.489 -0.4217 -0.1483 -0.2938
  189MOL0     H25501   9.207   1.508   0.372 -0.5358  0.0495  0.9625
  189MOL0     H25502   8.970   1.512   0.452  0.9554  0.5150 -0.2183
  189MOL0     H25503   8.758   1.876   0.597  0.2165 -1.7524  1.8507
  189MOL0     H25504   8.639   1.762   0.578  1.3147  0.5970  1.6940
  189MOL0     H25505   8.653   1.788   0.318 -1.5412  0.9388 -0.1687
  189MOL0     H25506   8.770   1.922   0.358  0.4771 -0.3736  0.8478
  189MOL0     H25507   8.550   2.022   0.325 -0.4304 -0.1264 -0.0448
  189MOL0     H25508   8.549   1.985   0.509 -0.9287 -0.6986  0.1549
  189MOL0     H25509   8.426   1.779   0.447 -1.3656  1.3065  0.9605
  189MOL0     H25510   8.349   1.936   0.431  0.5287  0.3711  2.0776
  189MOL0     H25511   8.370   1.767   0.041  3.0368 -0.4947 -0.0635
  189MOL0     H25512   8.958   1.923   0.484 -0.2188 -0.8696  1.8052
  189MOL0     H25513   9.247   1.993   0.541  0.4944 -1.0534 -0.0521
  189MOL0     H25514   9.318   1.995   0.377 -1.2651  1.6462 -1.6026
  189MOL0     H25515   9.169   2.061   0.392  1.9158  0.3187 -2.1339
  190MOL0     O25516   2.754   1.930   5.562 -0.0950 -0.8261 -0.4466
  190MOL0     C25517   2.761   2.016   5.651  0.3122  0.2574  0.0450
  190MOL0     O25518   2.882   2.059   5.704  0.2737  0.7149 -0.2222
  190MOL0     C25519   2.995   1.974   5.699 -0.0560 -0.3507  0.7813
  190MOL0     C25520   2.987   1.851   5.765 -0.0012  0.8345 -0.2609
  190MOL0     C25521   3.093   1.760   5.760 -0.5933 -0.1795  0.7347
  190MOL0     C25522   3.209   1.791   5.667 -0.4452  0.3647 -0.9931
  190MOL0     O25523   3.325   1.710   5.662 -0.5363 -0.5631  1.4614
  190MOL0     C25524   3.331   1.601   5.764  0.5280 -0.5449 -0.1371
  190MOL0     C25525   3.464   1.534   5.765  0.1381  0.7331 -0.0622
  190MOL0     C25526   3.574   1.648   5.786 -0.8432 -0.1143  0.3878
  190MOL0     C25527   3.704   1.614   5.722 -0.9145  0.8633  0.9268
  190MOL0     C25528   3.814   1.721   5.739 -0.2279  0.1247  0.2931
  190MOL0     C25529   3.782   1.874   5.735  0.0192  0.2159 -0.3381
  190MOL0     C25530   3.907   1.965   5.728  0.3943  0.4308  0.2531
  190MOL0     C25531   3.975   1.944   5.583 -0.9118 -0.1089  0.5496
  190MOL0     N25532   4.061   2.060   5.537  0.0480 -0.6531  0.9895
  190MOL0     C25533   4.055   2.198   5.570 -0.2414 -0.4768  1.1507
  190MOL0     C25534   4.148   2.262   5.496 -0.0758 -0.2334 -0.0937
  190MOL0     C25535   4.180   2.408   5.511 -0.4819  0.1709 -0.1661
  190MOL0     C25536   4.073   2.491   5.452 -0.5043  0.2700 -0.4391
  190MOL0     C25537   4.111   2.641   5.431  0.4021  0.9370 -0.2395
  190MOL0     C25538   4.217   2.664   5.320  0.1002 -0.5812 -0.7273
  190MOL0     O25539   4.347   2.663   5.374  0.5260  0.1033 -0.1626
  190MOL0     C25540   4.463   2.640   5.296  0.4003  0.3575 -0.8080
  190MOL0     C25541   4.467   2.670   5.156  0.1394  0.0201 -0.3304
  190MOL0     C25542   4.582   2.636   5.086 -1.5256 -0.3494  0.0959
  190MOL0     C25543   4.693   2.582   5.146 -0.3269  0.3920  0.0623
  190MOL0     C25544   4.822   2.567   5.079 -0.4643 -0.0270 -0.8918
  190MOL0     O25545   4.833   2.621   4.951 -0.1105 -0.3056  1.2796
  190MOL0     C25546   4.955   2.627   4.885 -0.6748 -0.2986 -0.1615
  190MOL0     C25547   5.067   2.544   4.901  0.1558 -0.1514  0.0985
  190MOL0     C25548   5.184   2.569   4.824  0.3895 -0.1412 -0.0145
  190MOL0     C25549   5.186   2.662   4.721 -0.3177 -0.1740  0.0588
  190MOL0     O25550   5.305   2.684   4.661 -0.0622  0.4048  0.1308
  190MOL0     C25551   5.309   2.750   4.532  0.6190 -0.7205  0.3245
  190MOL0     C25552   5.425   2.698   4.455  0.1334  0.0142 -0.1360
  190MOL0     C25553   5.468   2.788   4.334  0.1455 -0.7495 -0.2300
  190MOL0     C25554   5.584   2.731   4.251 -0.4079 -0.8276  0.1813
  190MOL0     C25555   5.660   2.816   4.146  0.4818 -0.3003  0.0641
  190MOL0     C25556   5.772   2.889   4.217  0.9711 -0.2806 -0.1404
  190MOL0     C25557   5.903   2.814   4.243 -0.1667  0.6219 -0.2092
  190MOL0     C25558   6.027   2.909   4.268  0.6493  0.4369  0.0077
  190MOL0    Cl25559   6.163   2.801   4.326  0.3692  0.1503 -0.1242
  190MOL0     C25560   5.071   2.739   4.700  0.4181 -0.1648 -0.1865
  190MOL0     C25561   4.957   2.724   4.780 -0.2331 -0.5153 -1.1118
  190MOL0     O25562   4.919   2.518   5.142  0.2194 -0.1837  0.9240
  190MOL0     C25563   4.687   2.553   5.285 -0.2056  0.2586  1.0459
  190MOL0     C25564   4.571   2.583   5.359  1.1270 -0.3784 -0.0783
  190MOL0     N25565   4.203   2.165   5.410  0.1720 -0.1151 -0.5382
  190MOL0     N25566   4.158   2.048   5.438  0.7271  0.6585 -1.1530
  190MOL0     C25567   3.212   1.912   5.604  0.2545  0.3452  0.0212
  190MOL0     C25568   3.102   2.004   5.613 -0.5079 -0.1074  0.6266
  190MOL0     C25569   2.645   2.117   5.661 -0.0406  0.2686  0.2224
  190MOL0     C25570   2.663   2.242   5.719 -0.0086 -0.3824  1.0761
  190MOL0     C25571   2.560   2.345   5.723  0.3030  0.4158  0.6724
  190MOL0     C25572   2.426   2.313   5.691  0.3794  0.4159 -0.5224
  190MOL0     O25573   2.323   2.407   5.708 -0.3089 -0.0632  0.2131
  190MOL0     C25574   2.187   2.362   5.678 -0.9195  0.6301  0.3169
  190MOL0     C25575   2.076   2.463   5.721  0.1079 -0.2320 -0.0464
  190MOL0     C25576   1.942   2.464   5.645  0.4950  0.0772  0.3753
  190MOL0     C25577   1.865   2.327   5.677  0.0803  0.2676 -0.0880
  190MOL0     C25578   1.829   2.308   5.817 -0.0328 -0.4433  0.1714
  190MOL0     C25579   1.814   2.288   5.935  0.4942  0.2339  0.4329
  190MOL0     C25580   2.408   2.178   5.650 -0.6977  0.2803  0.1277
  190MOL0     C25581   2.515   2.085   5.621  0.3543  0.2653 -0.2870
  190MOL0     C25582   2.475   1.947   5.574 -0.3999 -0.0305  0.2048
  190MOL0     H25583   2.903   1.843   5.833 -0.3839 -1.4301 -0.9328
  190MOL0     H25584   3.087   1.669   5.819  0.2740 -1.5374 -1.1686
  190MOL0     H25585   3.318   1.633   5.868 -1.3644 -1.6498  0.0070
  190MOL0     H25586   3.255   1.530   5.732  0.6029 -0.3174 -0.8367
  190MOL0     H25587   3.481   1.486   5.669  2.1891 -1.8675  1.4524
  190MOL0     H25588   3.466   1.462   5.847  1.2415  1.9405  1.0334
  190MOL0     H25589   3.591   1.669   5.892  1.9325  4.8332 -0.7121
  190MOL0     H25590   3.532   1.737   5.738 -3.0294 -1.1157  0.3111
  190MOL0     H25591   3.750   1.526   5.767 -0.2604  1.9908  2.5998
  190MOL0     H25592   3.687   1.588   5.617  1.3024 -2.0000  1.1651
  190MOL0     H25593   3.858   1.705   5.838  1.5952 -1.0235 -0.6339
  190MOL0     H25594   3.894   1.695   5.669 -0.4931  2.8107 -1.1196
  190MOL0     H25595   3.720   1.891   5.646  2.7379  0.9929 -2.1954
  190MOL0     H25596   3.711   1.897   5.816  0.4753 -0.7039  0.3432
  190MOL0     H25597   3.973   1.929   5.808  0.5616  1.6268  0.6688
  190MOL0     H25598   3.878   2.070   5.738 -2.3006 -0.3553  1.5709
  190MOL0     H25599   4.029   1.850   5.581  1.7318  1.2744  1.7126
  190MOL0     H25600   3.896   1.949   5.507  0.0760  0.8933 -0.4499
  190MOL0     H25601   3.989   2.253   5.637 -0.2294  2.8716 -1.3235
  190MOL0     H25602   4.178   2.423   5.619  1.8927 -3.0754  0.4815
  190MOL0     H25603   4.278   2.435   5.470 -0.1083 -2.4529 -1.1806
  190MOL0     H25604   4.045   2.445   5.357  1.4902 -3.0092  0.3871
  190MOL0     H25605   3.985   2.488   5.517 -0.8253 -1.6763 -0.9094
  190MOL0     H25606   4.141   2.694   5.521 -2.0494  2.1417 -0.0558
  190MOL0     H25607   4.014   2.685   5.404 -1.2437 -1.2329  1.7558
  190MOL0     H25608   4.197   2.762   5.275  1.5406 -0.1031 -0.3853
  190MOL0     H25609   4.211   2.596   5.235 -2.6099  0.4065 -1.4298
  190MOL0     H25610   4.384   2.721   5.107  1.5974  1.7341 -1.1754
  190MOL0     H25611   4.597   2.660   4.982  0.5388  3.4921  1.0555
  190MOL0     H25612   5.076   2.468   4.978  0.7881 -0.0961  0.0872
  190MOL0     H25613   5.274   2.512   4.842  0.4757  0.8840  3.6038
  190MOL0     H25614   5.217   2.746   4.472 -0.8696 -2.2009  2.5888
  190MOL0     H25615   5.327   2.856   4.551  1.9054 -0.2891 -2.6358
  190MOL0     H25616   5.512   2.681   4.520  0.3398 -1.8975 -0.8420
  190MOL0     H25617   5.389   2.601   4.421  1.5418 -0.5856  0.0247
  190MOL0     H25618   5.385   2.798   4.264  2.1922 -1.9732 -3.0332
  190MOL0     H25619   5.499   2.883   4.378  1.1865 -1.7177  1.1975
  190MOL0     H25620   5.546   2.649   4.189  1.5394 -0.4377 -1.6320
  190MOL0     H25621   5.667   2.702   4.315  1.6645  0.0187 -1.9709
  190MOL0     H25622   5.596   2.879   4.083  0.8322 -2.3775 -2.5582
  190MOL0     H25623   5.704   2.749   4.071  1.4380 -1.6560  1.7538
  190MOL0     H25624   5.789   2.973   4.148 -3.2143  0.6033 -0.3884
  190MOL0     H25625   5.732   2.920   4.314 -2.4992 -1.2623 -1.1100
  190MOL0     H25626   5.922   2.739   4.165 -2.9407  0.7216 -1.0749
  190MOL0     H25627   5.878   2.766   4.338 -2.5058 -1.4846 -1.7703
  190MOL0     H25628   6.046   2.966   4.177 -2.0474 -0.5339 -1.2903
  190MOL0     H25629   5.996   2.980   4.344  0.1795 -1.6224  1.8507
  190MOL0     H25630   5.070   2.818   4.626  0.8869  0.5370  0.5362
  190MOL0     H25631   4.868   2.784   4.764  0.0468 -0.1333 -1.2547
  190MOL0     H25632   4.774   2.505   5.327 -0.6578 -2.0322 -0.4397
  190MOL0     H25633   4.564   2.549   5.462 -2.0839 -1.9670 -0.7083
  190MOL0     H25634   3.304   1.938   5.552  2.2794 -3.2940  1.4265
  190MOL0     H25635   3.093   2.105   5.574 -3.7215 -0.1007  1.1255
  190MOL0     H25636   2.763   2.271   5.752 -0.1080  0.2470  0.8519
  190MOL0     H25637   2.579   2.446   5.757  1.5935  0.9128 -1.4122
  190MOL0     H25638   2.167   2.272   5.738 -0.5039  0.6123  0.4363
  190MOL0     H25639   2.174   2.352   5.570  2.4660 -0.2426 -0.1406
  190MOL0     H25640   2.124   2.561   5.724  1.7020 -0.9961  1.2786
  190MOL0     H25641   2.057   2.446   5.827 -2.1620  0.3256 -0.3132
  190MOL0     H25642   1.970   2.457   5.540  2.0156 -1.5255  0.8314
  190MOL0     H25643   1.889   2.558   5.660 -0.3989  0.2850 -3.2444
  190MOL0     H25644   1.767   2.334   5.628 -0.3250  1.6723  0.8661
  190MOL0     H25645   1.906   2.233   5.639 -3.8612 -1.6054 -0.1960
  190MOL0     H25646   1.782   2.270   6.036  2.2344  1.5451  1.2639
  190MOL0     H25647   2.305   2.154   5.625 -0.8350 -0.3798  1.2788
  190MOL0     H25648   2.532   1.900   5.494 -0.6472 -1.3219  0.7679
  190MOL0     H25649   2.478   1.876   5.656 -0.2760  0.5895  0.7496
  190MOL0     H25650   2.374   1.958   5.534 -0.2060  2.2660  0.2111
  191MOL0     O25651  11.121   4.750   3.113 -0.5026 -0.6244 -0.2057
  191MOL0     C25652  11.118   4.793   3.228  0.3472 -0.5766 -0.5322
  191MOL0     O25653  11.179   4.908   3.260  0.3206 -0.4392 -0.3180
  191MOL0     C25654  11.200   5.000   3.159  0.2778  1.1733  0.7016
  191MOL0     C25655  11.099   5.080   3.116 -0.1486 -0.2516 -0.5682
  191MOL0     C25656  11.125   5.167   3.012 -0.3257 -0.3103  0.1184
  191MOL0     C25657  11.251   5.179   2.944  0.1173  0.9403 -1.0423
  191MOL0     O25658  11.262   5.258   2.838 -0.1485  0.5352 -0.2490
  191MOL0     C25659  11.368   5.231   2.741 -0.7188 -0.6610  1.5677
  191MOL0     C25660  11.367   5.355   2.640  0.2290  1.0256 -0.6699
  191MOL0     C25661  11.241   5.357   2.554 -0.5644  0.0968 -0.4794
  191MOL0     C25662  11.234   5.504   2.512 -0.4919  0.3354 -0.1277
  191MOL0     C25663  11.127   5.530   2.408  0.2172 -0.6884  0.9484
  191MOL0     C25664  11.182   5.524   2.265 -0.1368  0.0310  0.3405
  191MOL0     C25665  11.074   5.552   2.157 -0.4238 -0.5961 -0.8141
  191MOL0     C25666  11.020   5.692   2.151  0.3291 -0.8163 -0.6158
  191MOL0     N25667  10.942   5.706   2.024 -0.5128 -1.0024 -0.6523
  191MOL0     C25668  10.967   5.803   1.929 -0.1215 -0.5298  0.7022
  191MOL0     C25669  10.878   5.777   1.832 -0.1622 -0.3591 -0.0006
  191MOL0     C25670  10.860   5.856   1.707  0.2688  0.2938  0.4654
  191MOL0     C25671  10.709   5.879   1.667  0.3109  0.6231 -0.4686
  191MOL0     C25672  10.679   5.988   1.562 -0.0583 -0.3469 -0.1999
  191MOL0     C25673  10.534   6.008   1.548  0.7761  0.2613  0.0249
  191MOL0     O25674  10.506   6.125   1.469 -0.1830 -0.2921 -0.5126
  191MOL0     C25675  10.379   6.171   1.444 -0.0364  0.4199 -0.3196
  191MOL0     C25676  10.265   6.131   1.505  1.1160 -0.4438 -0.5575
  191MOL0     C25677  10.141   6.185   1.470  0.4253  0.0813 -0.7474
  191MOL0     C25678  10.137   6.288   1.375 -0.1095 -0.1542  0.5427
  191MOL0     C25679  10.002   6.334   1.326 -0.5419  0.2848 -0.5962
  191MOL0     O25680   9.896   6.265   1.374 -0.2242 -0.1501  0.4796
  191MOL0     C25681   9.767   6.302   1.331  0.2492  0.1614 -0.3199
  191MOL0     C25682   9.725   6.280   1.195  0.4671  1.5105  0.0878
  191MOL0     C25683   9.602   6.323   1.149  0.3811  0.6331 -0.1195
  191MOL0     C25684   9.505   6.367   1.252  0.0526 -0.0495 -0.8534
  191MOL0     O25685   9.380   6.418   1.223 -0.5041 -0.0994 -0.7346
  191MOL0     C25686   9.317   6.362   1.109  0.1146  0.1757  0.2430
  191MOL0     C25687   9.172   6.406   1.101  0.2154 -0.1483 -0.3950
  191MOL0     C25688   9.117   6.357   0.972  0.7085  0.2424 -0.0319
  191MOL0     C25689   8.978   6.406   0.937 -0.6961  0.4932 -0.1456
  191MOL0     C25690   8.877   6.358   1.033  0.4797  0.4827  0.4019
  191MOL0     C25691   8.742   6.395   0.970  0.3134  0.5814  0.0796
  191MOL0     C25692   8.633   6.396   1.076  0.2334 -0.6426  0.2919
  191MOL0     C25693   8.489   6.390   1.021  0.0846 -0.7229  0.6832
  191MOL0    Cl25694   8.460   6.241   0.933  0.2325  0.3053  0.0046
  191MOL0     C25695   9.546   6.378   1.382  0.2268 -0.0904 -0.0210
  191MOL0     C25696   9.676   6.357   1.425  0.3320  0.0781  1.3375
  191MOL0     O25697  10.000   6.440   1.258  0.2330 -0.1396  0.0536
  191MOL0     C25698  10.261   6.335   1.314  0.8215 -0.2691  0.0752
  191MOL0     C25699  10.376   6.270   1.347  0.1858 -0.5454 -0.4326
  191MOL0     N25700  10.806   5.669   1.871  0.3543 -0.0532  0.2283
  191MOL0     N25701  10.844   5.626   1.979 -1.2761 -0.1347 -0.1497
  191MOL0     C25702  11.346   5.090   2.994  0.4531  0.1164 -0.0464
  191MOL0     C25703  11.332   5.005   3.100  1.1121  0.3196 -0.0817
  191MOL0     C25704  11.067   4.707   3.340 -0.5654  1.2415  0.0289
  191MOL0     C25705  11.049   4.771   3.465  0.7865 -0.0828  0.4597
  191MOL0     C25706  10.999   4.707   3.575  0.2863 -0.6258 -0.4429
  191MOL0     C25707  10.967   4.570   3.567  0.9817 -0.0976  0.0967
  191MOL0     O25708  10.938   4.508   3.684  0.1359  0.3218 -0.3367
  191MOL0     C25709  10.886   4.376   3.681  0.6303  0.1594  0.2320
  191MOL0     C25710  10.815   4.345   3.818  0.5799  0.0218 -0.2314
  191MOL0     C25711  10.680   4.432   3.831  0.5003 -0.3704 -0.6020
  191MOL0     C25712  10.600   4.404   3.964  0.1648  0.6658 -0.3051
  191MOL0     C25713  10.655   4.465   4.085  0.3468 -0.5767 -0.6644
  191MOL0     C25714  10.690   4.530   4.186  0.1101  1.0780  0.0491
  191MOL0     C25715  10.997   4.501   3.451  0.4981  0.5920 -0.1405
  191MOL0     C25716  11.050   4.567   3.334  0.9866  0.2109 -1.1126
  191MOL0     C25717  11.081   4.477   3.222 -0.2843  0.0137 -0.5628
  191MOL0     H25718  10.996   5.082   3.151 -0.4870  1.5655 -1.4878
  191MOL0     H25719  11.041   5.225   2.976 -0.9047 -2.6896 -2.7540
  191MOL0     H25720  11.466   5.212   2.785  0.0574 -2.0716 -0.6605
  191MOL0     H25721  11.337   5.141   2.688  1.6018 -3.4135  4.4715
  191MOL0     H25722  11.450   5.338   2.571 -0.2177  0.9849 -1.2039
  191MOL0     H25723  11.373   5.447   2.698 -1.2615  0.3512  0.6375
  191MOL0     H25724  11.147   5.329   2.604 -1.1314  1.3753 -0.7867
  191MOL0     H25725  11.249   5.282   2.475  3.0534 -0.0728 -0.0989
  191MOL0     H25726  11.217   5.559   2.604  5.6367 -0.6897  2.0869
  191MOL0     H25727  11.332   5.539   2.478  0.1551 -1.6411 -0.4610
  191MOL0     H25728  11.035   5.476   2.431  1.1443 -3.1803 -0.7659
  191MOL0     H25729  11.109   5.636   2.427  0.7797 -0.5290  0.6311
  191MOL0     H25730  11.272   5.585   2.251  0.3708 -0.8142 -0.2386
  191MOL0     H25731  11.212   5.422   2.238 -2.0246 -0.0869 -1.5182
  191MOL0     H25732  11.000   5.476   2.183 -2.0049  1.0749 -0.2843
  191MOL0     H25733  11.117   5.532   2.058  2.1650  1.0792 -0.1350
  191MOL0     H25734  10.957   5.727   2.233  0.3817 -0.0804 -0.8824
  191MOL0     H25735  11.101   5.766   2.141  1.7420 -2.3872 -1.2556
  191MOL0     H25736  11.045   5.879   1.933 -0.2041 -0.4260  0.3381
  191MOL0     H25737  10.917   5.948   1.721  0.6036 -0.1867  2.6566
  191MOL0     H25738  10.899   5.797   1.623 -0.1712 -0.0940  0.5282
  191MOL0     H25739  10.665   5.787   1.626  4.5455 -2.6631  1.6692
  191MOL0     H25740  10.661   5.914   1.758  1.6695 -0.5818  0.7585
  191MOL0     H25741  10.725   5.953   1.470  1.2146 -2.0238  1.0024
  191MOL0     H25742  10.714   6.085   1.598 -2.0542 -0.8042  3.4647
  191MOL0     H25743  10.477   6.017   1.641  0.3440 -0.9988 -0.0936
  191MOL0     H25744  10.488   5.925   1.494 -0.3548  2.2316 -2.2327
  191MOL0     H25745  10.263   6.052   1.578  0.2534  0.4747  0.4504
  191MOL0     H25746  10.057   6.158   1.532  3.0942  0.8843  3.7273
  191MOL0     H25747   9.799   6.231   1.133 -0.6227 -2.9178  1.8984
  191MOL0     H25748   9.570   6.307   1.047 -3.2426  2.2468  0.6058
  191MOL0     H25749   9.363   6.397   1.016  0.1752  3.7790  1.4539
  191MOL0     H25750   9.317   6.253   1.119 -1.5611  0.2151  0.8862
  191MOL0     H25751   9.114   6.376   1.188  0.8724  2.5283  1.0708
  191MOL0     H25752   9.179   6.514   1.113 -1.9616 -0.2162  2.3753
  191MOL0     H25753   9.178   6.395   0.890 -0.7950  2.4092 -0.2183
  191MOL0     H25754   9.117   6.247   0.972 -1.6904  0.1802  1.0679
  191MOL0     H25755   8.955   6.368   0.838  2.8078  1.3965 -1.4768
  191MOL0     H25756   8.993   6.514   0.927  0.3915  0.1596 -3.0440
  191MOL0     H25757   8.902   6.397   1.132  3.3739  0.1278 -0.1056
  191MOL0     H25758   8.866   6.250   1.045 -0.4667  0.8506  3.9280
  191MOL0     H25759   8.743   6.492   0.920  0.8673  0.9551  0.7989
  191MOL0     H25760   8.708   6.329   0.890  2.1014 -0.0870 -0.1667
  191MOL0     H25761   8.652   6.493   1.125 -0.7315 -0.2688 -0.0492
  191MOL0     H25762   8.650   6.318   1.151 -1.8762  1.0376  2.7003
  191MOL0     H25763   8.421   6.409   1.104  0.7391  0.1213  1.0372
  191MOL0     H25764   8.476   6.473   0.950 -4.3391 -1.0252  0.8462
  191MOL0     H25765   9.461   6.415   1.439 -2.4543  1.1494 -4.3276
  191MOL0     H25766   9.713   6.375   1.526  1.5425  0.7163  0.7982
  191MOL0     H25767  10.252   6.406   1.231 -0.0317  4.6900  3.9249
  191MOL0     H25768  10.464   6.309   1.298 -1.4674  1.7425 -1.8193
  191MOL0     H25769  11.445   5.096   2.950  0.9417 -1.7671  0.7308
  191MOL0     H25770  11.413   4.944   3.140 -1.5794 -4.8948 -1.6131
  191MOL0     H25771  11.068   4.877   3.477  3.1623 -0.7929  4.4133
  191MOL0     H25772  10.979   4.761   3.667 -2.4850  0.8502 -1.7919
  191MOL0     H25773  10.970   4.312   3.654  1.3175 -0.0450  2.6018
  191MOL0     H25774  10.817   4.367   3.597 -0.6868 -0.7234  1.3561
  191MOL0     H25775  10.879   4.365   3.904 -1.9186 -3.1024  2.6625
  191MOL0     H25776  10.783   4.241   3.822 -2.5305  0.8723 -0.1106
  191MOL0     H25777  10.616   4.410   3.746  1.6436 -2.3341 -1.0261
  191MOL0     H25778  10.701   4.539   3.836  0.1501 -0.3398  0.6132
  191MOL0     H25779  10.506   4.454   3.942 -0.1740  0.4619  0.6338
  191MOL0     H25780  10.592   4.296   3.983  1.6970  0.7267  0.9267
  191MOL0     H25781  10.707   4.575   4.282 -0.2145  0.4095  0.4281
  191MOL0     H25782  10.972   4.397   3.434 -0.5567  0.6749  0.8046
  191MOL0     H25783  11.187   4.492   3.198 -1.0614  2.8570 -2.6206
  191MOL0     H25784  11.072   4.372   3.254  0.5960 -0.1449 -0.8144
  191MOL0     H25785  11.017   4.500   3.137 -0.0448  1.6429 -0.3295
  192MOL0     O25786   5.625  11.239   8.930  0.0900  0.9435 -1.0226
  192MOL0     C25787   5.611  11.115   8.909 -0.4181  0.2625  0.9618
  192MOL0     O25788   5.713  11.026   8.912  0.0786 -0.6640 -0.1595
  192MOL0     C25789   5.821  11.062   8.997  0.5302 -0.3905  0.4096
  192MOL0     C25790   5.836  11.004   9.127  0.7476 -0.3640  0.4200
  192MOL0     C25791   5.947  11.051   9.198 -0.7145  0.4822 -0.0269
  192MOL0     C25792   6.039  11.130   9.143 -1.2661 -0.1615 -0.4636
  192MOL0     O25793   6.143  11.187   9.222 -0.4670  0.2042 -0.2254
  192MOL0     C25794   6.234  11.090   9.258 -0.5339  0.4593  0.0356
  192MOL0     C25795   6.372  11.150   9.276  0.0787 -0.7870 -0.2161
  192MOL0     C25796   6.486  11.040   9.277 -0.5666 -0.3471 -0.5565
  192MOL0     C25797   6.623  11.107   9.310 -0.1292  0.0222  1.1995
  192MOL0     C25798   6.739  11.012   9.318 -0.5040  0.8730  0.1302
  192MOL0     C25799   6.865  11.082   9.368  0.3959 -0.4008  0.1748
  192MOL0     C25800   6.988  11.006   9.332  0.0742 -0.6365  0.5388
  192MOL0     C25801   7.024  11.003   9.186 -1.3735  0.9542 -0.3793
  192MOL0     N25802   7.167  10.993   9.159 -0.2950 -0.0467 -1.4695
  192MOL0     C25803   7.245  10.880   9.162  0.3094  0.1186 -0.2046
  192MOL0     C25804   7.367  10.928   9.122  0.3975  0.0542  0.1381
  192MOL0     C25805   7.498  10.864   9.141 -0.5026  0.5221 -0.2710
  192MOL0     C25806   7.535  10.848   9.287  0.4268  0.3984 -0.4472
  192MOL0     C25807   7.531  10.974   9.368 -0.0235  0.1808  0.6107
  192MOL0     C25808   7.632  11.075   9.307 -0.2323  0.0552  0.8111
  192MOL0     O25809   7.765  11.021   9.322 -0.6992 -0.7149  0.6603
  192MOL0     C25810   7.852  11.042   9.210  0.0401  0.2920 -0.1307
  192MOL0     C25811   7.932  10.930   9.174 -1.4332  0.3478 -0.3178
  192MOL0     C25812   8.029  10.936   9.072  0.3087  0.8963 -0.0668
  192MOL0     C25813   8.051  11.061   9.010 -0.3060  0.0023 -0.1607
  192MOL0     C25814   8.157  11.072   8.909 -0.0690  0.5353 -0.5180
  192MOL0     O25815   8.225  10.958   8.883  0.1000 -0.3746 -0.2264
  192MOL0     C25816   8.346  10.962   8.819  0.2511  0.1883  0.3573
  192MOL0     C25817   8.373  10.871   8.713  0.1342 -0.4014 -0.8719
  192MOL0     C25818   8.497  10.877   8.646 -0.0105 -0.1411 -0.4172
  192MOL0     C25819   8.584  10.981   8.675  0.2975  0.7566 -0.2875
  192MOL0     O25820   8.705  11.012   8.605 -0.3035  0.5363  0.0695
  192MOL0     C25821   8.752  10.930   8.498 -0.0814  0.0136  0.0040
  192MOL0     C25822   8.883  10.983   8.442  0.0423 -0.3875  0.0091
  192MOL0     C25823   8.959  10.899   8.337 -0.3544 -0.5266 -0.7785
  192MOL0     C25824   9.080  10.977   8.298 -0.1064  0.8021  0.1602
  192MOL0     C25825   9.164  10.906   8.200 -0.1361 -0.0657  0.0798
  192MOL0     C25826   9.282  10.996   8.168  0.2283 -0.0046 -0.8544
  192MOL0     C25827   9.403  10.973   8.255  0.8273  0.1761 -0.4204
  192MOL0     C25828   9.503  11.089   8.273 -0.5856  0.1121  0.8321
  192MOL0    Cl25829   9.533  11.146   8.105 -0.0027  0.3147  0.3995
  192MOL0     C25830   8.558  11.072   8.780  0.1313  0.4178  0.0819
  192MOL0     C25831   8.442  11.058   8.854  0.0508 -0.0074 -0.6286
  192MOL0     O25832   8.173  11.167   8.841 -0.3905  0.9724  0.5944
  192MOL0     C25833   7.957  11.164   9.037  0.6280  0.4970  0.0788
  192MOL0     C25834   7.851  11.157   9.130 -0.3719 -0.0011 -0.5416
  192MOL0     N25835   7.357  11.065   9.091  0.1869  0.3418 -0.1704
  192MOL0     N25836   7.239  11.101   9.115 -0.3406  0.1355 -0.7471
  192MOL0     C25837   6.033  11.171   9.016  0.2504 -0.2453 -0.8254
  192MOL0     C25838   5.921  11.135   8.942 -0.0771 -0.6351 -0.5258
  192MOL0     C25839   5.486  11.068   8.854 -0.1884 -0.3646  0.0926
  192MOL0     C25840   5.445  10.942   8.886  0.8249  0.0584  0.6818
  192MOL0     C25841   5.316  10.890   8.868  0.2680 -0.4764  0.1305
  192MOL0     C25842   5.225  10.969   8.791 -0.1513 -0.6544  0.0541
  192MOL0     O25843   5.098  10.927   8.748  0.0167  0.6012 -0.2644
  192MOL0     C25844   5.058  10.799   8.802  0.1092  0.6037  0.0283
  192MOL0     C25845   4.923  10.755   8.761  0.0767  0.1140  0.5033
  192MOL0     C25846   4.823  10.859   8.801  0.4644  0.5353 -0.5080
  192MOL0     C25847   4.683  10.815   8.770 -0.0876  0.3478  0.2481
  192MOL0     C25848   4.572  10.880   8.843 -1.0201  0.2877 -0.1150
  192MOL0     C25849   4.490  10.936   8.910 -0.0797 -0.4093 -0.2781
  192MOL0     C25850   5.263  11.103   8.760  0.2554  1.0309  0.2587
  192MOL0     C25851   5.386  11.154   8.786  0.1629 -0.0847 -0.3468
  192MOL0     C25852   5.418  11.297   8.739 -0.0508 -1.0632 -0.3239
  192MOL0     H25853   5.755  10.942   9.165 -1.8543  1.9756 -0.8940
  192MOL0     H25854   5.945  11.026   9.304 -0.2163  1.1512  0.1488
  192MOL0     H25855   6.204  11.055   9.357 -0.4160 -1.1348 -0.4762
  192MOL0     H25856   6.234  11.001   9.195 -0.4427  0.8213 -0.4910
  192MOL0     H25857   6.371  11.183   9.381 -0.9200 -0.3424 -0.3527
  192MOL0     H25858   6.394  11.233   9.209  2.7876 -1.8758 -0.8159
  192MOL0     H25859   6.510  11.001   9.178 -0.0855  0.9105 -0.9585
  192MOL0     H25860   6.465  10.967   9.356  2.9520  0.4380  1.3222
  192MOL0     H25861   6.645  11.185   9.237 -1.0554 -2.8154 -2.4572
  192MOL0     H25862   6.629  11.157   9.407  1.3045 -3.4523  3.0989
  192MOL0     H25863   6.711  10.920   9.370  3.4169 -0.1712  0.7661
  192MOL0     H25864   6.765  10.969   9.220  2.2052  3.0182 -0.2055
  192MOL0     H25865   6.870  11.185   9.330  3.1891  0.5327  2.6815
  192MOL0     H25866   6.856  11.115   9.472 -1.2676  4.1432 -1.1346
  192MOL0     H25867   6.987  10.901   9.363 -0.3436 -1.9372 -3.4094
  192MOL0     H25868   7.067  11.059   9.387 -0.9077  1.2409  0.2120
  192MOL0     H25869   6.978  10.910   9.151  1.6097 -1.0259  0.6111
  192MOL0     H25870   6.995  11.095   9.133  0.4744  0.4854 -2.3606
  192MOL0     H25871   7.214  10.781   9.193  0.1465 -0.5973 -2.4712
  192MOL0     H25872   7.508  10.760   9.109  3.1970  0.1226  1.5964
  192MOL0     H25873   7.576  10.924   9.093  0.1081 -0.7205 -0.8770
  192MOL0     H25874   7.455  10.785   9.327  0.4627  0.7840  0.2433
  192MOL0     H25875   7.638  10.810   9.289  0.0833 -0.7972 -2.4734
  192MOL0     H25876   7.551  10.946   9.472 -0.5182 -1.8585  0.1923
  192MOL0     H25877   7.431  11.017   9.359 -0.1397 -0.2791 -0.4040
  192MOL0     H25878   7.632  11.170   9.362 -0.2540  0.0783  0.7714
  192MOL0     H25879   7.609  11.103   9.204  2.7326  1.1549  0.3552
  192MOL0     H25880   7.942  10.841   9.235  0.2057 -0.4561 -1.6662
  192MOL0     H25881   8.094  10.849   9.061  1.7732  1.7165  1.7196
  192MOL0     H25882   8.304  10.792   8.685  3.1344 -2.7035 -2.3399
  192MOL0     H25883   8.511  10.827   8.550  1.2165  4.3888 -2.8642
  192MOL0     H25884   8.761  10.827   8.533  1.1322  0.5378  1.3244
  192MOL0     H25885   8.679  10.917   8.417  1.0737 -2.0542 -0.8053
  192MOL0     H25886   8.875  11.085   8.401  0.6953  0.3423  1.6187
  192MOL0     H25887   8.955  10.980   8.524  0.3719 -1.1765 -0.3043
  192MOL0     H25888   8.997  10.806   8.382 -1.3988 -1.5197 -1.8872
  192MOL0     H25889   8.893  10.872   8.254  1.4414  0.1970 -2.5174
  192MOL0     H25890   9.152  10.988   8.380  2.3492  0.3152 -1.7983
  192MOL0     H25891   9.045  11.075   8.264 -2.1458  0.5628  1.4363
  192MOL0     H25892   9.103  10.893   8.110  0.0450  2.2015 -0.4418
  192MOL0     H25893   9.204  10.810   8.232  0.6860 -0.2526 -1.3845
  192MOL0     H25894   9.296  10.999   8.059 -0.4823 -1.9185 -1.0276
  192MOL0     H25895   9.245  11.098   8.184 -2.6441 -1.0255 -0.3330
  192MOL0     H25896   9.458  10.891   8.209  1.5674  1.3402 -1.6903
  192MOL0     H25897   9.372  10.938   8.354  1.3194 -1.5889 -0.8540
  192MOL0     H25898   9.456  11.172   8.327 -0.9121 -0.4393  1.3913
  192MOL0     H25899   9.595  11.051   8.319  1.7430  2.3281 -1.5763
  192MOL0     H25900   8.634  11.149   8.789 -0.1426  0.4527  2.9145
  192MOL0     H25901   8.412  11.117   8.940 -2.1419 -1.8407 -0.0430
  192MOL0     H25902   7.957  11.258   8.983  1.3920 -0.7011 -2.1338
  192MOL0     H25903   7.791  11.244   9.156 -0.9927 -0.2524 -1.0898
  192MOL0     H25904   6.108  11.233   8.967  0.7479 -0.5067 -0.3971
  192MOL0     H25905   5.915  11.162   8.837 -2.3192 -1.0381 -0.5393
  192MOL0     H25906   5.516  10.875   8.935  1.0944 -0.9045 -0.9644
  192MOL0     H25907   5.286  10.790   8.895  0.2165 -1.2780 -2.5844
  192MOL0     H25908   5.052  10.813   8.910 -0.7953  0.9138 -0.0521
  192MOL0     H25909   5.134  10.725   8.776  0.4080  0.6528  0.7322
  192MOL0     H25910   4.905  10.652   8.794 -0.1007  0.2852  0.9525
  192MOL0     H25911   4.921  10.740   8.652  2.2664 -0.2747  0.4696
  192MOL0     H25912   4.850  10.948   8.743  4.0653  0.2477  0.4784
  192MOL0     H25913   4.826  10.882   8.908  0.2094  0.3312 -0.4571
  192MOL0     H25914   4.667  10.832   8.664 -3.5038 -0.8216  0.4763
  192MOL0     H25915   4.677  10.707   8.785  3.0462 -0.2726 -2.0250
  192MOL0     H25916   4.402  10.978   8.955  0.7954 -0.8441  1.9617
  192MOL0     H25917   5.190  11.156   8.699  1.7760  0.8861 -1.7782
  192MOL0     H25918   5.434  11.350   8.833 -0.0754  1.4794 -1.6683
  192MOL0     H25919   5.514  11.294   8.687  1.1068 -1.6846  1.7404
  192MOL0     H25920   5.345  11.350   8.677  0.3461 -1.1059 -0.8289
  193MOL0     O25921   4.790   6.264   9.215  0.1203  0.3602  0.0665
  193MOL0     C25922   4.687   6.297   9.161 -0.3643 -0.4488 -0.4431
  193MOL0     O25923   4.661   6.419   9.105 -0.9663 -0.0060 -0.1513
  193MOL0     C25924   4.740   6.527   9.135  0.3072 -0.1696 -0.1374
  193MOL0     C25925   4.811   6.594   9.033 -0.1965 -0.7186 -0.0012
  193MOL0     C25926   4.874   6.715   9.073  0.0071 -0.3824  0.6172
  193MOL0     C25927   4.865   6.762   9.200 -0.6342  0.0324  0.0731
  193MOL0     O25928   4.924   6.888   9.238  0.2197  0.9580 -0.5755
  193MOL0     C25929   5.042   6.871   9.320 -0.4057  0.3017 -0.5332
  193MOL0     C25930   5.159   6.869   9.227 -0.1872 -0.3071 -0.5119
  193MOL0     C25931   5.235   7.011   9.219  0.1000  0.2406 -0.3467
  193MOL0     C25932   5.353   7.005   9.117  0.6832 -0.0741  0.2167
  193MOL0     C25933   5.447   7.121   9.107  0.0366 -0.2639  0.5487
  193MOL0     C25934   5.546   7.097   8.990 -0.1711 -0.5904  0.5221
  193MOL0     C25935   5.650   7.211   8.981 -0.3778 -0.1362  0.6390
  193MOL0     C25936   5.725   7.198   8.844 -1.0246  0.2823 -1.1108
  193MOL0     N25937   5.849   7.282   8.850 -0.0153 -0.5305 -0.0629
  193MOL0     C25938   5.951   7.267   8.931  0.2897  0.0407  1.1498
  193MOL0     C25939   6.014   7.383   8.948  0.9724 -0.4977  1.1062
  193MOL0     C25940   6.130   7.427   9.033  0.2993  0.3189 -0.5445
  193MOL0     C25941   6.253   7.336   9.010 -0.1371  0.0081 -0.8951
  193MOL0     C25942   6.372   7.392   9.089  0.4179  0.1320 -0.0557
  193MOL0     C25943   6.501   7.311   9.080 -0.2169  0.5161  0.4993
  193MOL0     O25944   6.612   7.371   9.155 -0.2910 -0.1436 -0.3193
  193MOL0     C25945   6.732   7.303   9.156 -0.1555  0.0096  0.3054
  193MOL0     C25946   6.743   7.167   9.143 -0.5996  0.5195 -0.5344
  193MOL0     C25947   6.861   7.096   9.144 -0.1954  0.6182  0.0009
  193MOL0     C25948   6.982   7.164   9.155  0.1578  0.1071 -0.1757
  193MOL0     C25949   7.110   7.092   9.147  0.6949  1.6678  0.3717
  193MOL0     O25950   7.223   7.168   9.161  0.5558  0.2237 -0.2336
  193MOL0     C25951   7.349   7.119   9.141 -1.2302 -0.4891  0.2369
  193MOL0     C25952   7.440   7.227   9.131 -0.3174 -0.6404  0.2808
  193MOL0     C25953   7.571   7.202   9.117  0.0135 -0.1461  0.6994
  193MOL0     C25954   7.621   7.070   9.108 -0.1845 -0.8179  0.2722
  193MOL0     O25955   7.748   7.034   9.062 -0.3159  0.0746 -0.3739
  193MOL0     C25956   7.849   7.130   9.033 -0.6202 -0.8408  0.7128
  193MOL0     C25957   7.936   7.073   8.921 -0.0436 -0.5881 -0.7531
  193MOL0     C25958   7.866   7.062   8.789  0.4071 -0.2506  0.1378
  193MOL0     C25959   7.938   7.123   8.668 -0.7596  0.4742  0.0919
  193MOL0     C25960   7.877   7.063   8.533  0.0997 -0.1932  0.2964
  193MOL0     C25961   7.740   7.123   8.490 -0.6843  0.0594 -0.3308
  193MOL0     C25962   7.678   7.048   8.372 -0.2899  0.6506  0.2353
  193MOL0     C25963   7.747   7.071   8.240 -0.4759  0.5522 -0.1251
  193MOL0    Cl25964   7.751   7.237   8.180  0.0760 -0.2769 -0.2483
  193MOL0     C25965   7.530   6.970   9.131 -0.7265 -0.4796 -0.8029
  193MOL0     C25966   7.389   6.989   9.146 -0.8452  0.4705  0.2417
  193MOL0     O25967   7.105   6.975   9.095 -0.3396 -0.2104 -0.3716
  193MOL0     C25968   6.973   7.300   9.168  0.2223 -0.6569 -0.3653
  193MOL0     C25969   6.849   7.375   9.173  0.0866 -0.0614  0.1504
  193MOL0     N25970   5.961   7.460   8.841 -0.1301  0.2458  0.8440
  193MOL0     N25971   5.865   7.393   8.782 -0.2888  0.0167  0.3011
  193MOL0     C25972   4.801   6.687   9.299 -0.3807  0.3991 -0.2429
  193MOL0     C25973   4.732   6.575   9.267  0.2937 -0.7528 -0.3314
  193MOL0     C25974   4.580   6.192   9.154 -0.3197  0.2561 -1.1946
  193MOL0     C25975   4.622   6.064   9.113  0.4045 -0.4412 -0.6886
  193MOL0     C25976   4.540   5.950   9.123  0.1721 -0.3767 -0.0821
  193MOL0     C25977   4.407   5.960   9.170  0.2785 -0.0200  0.1682
  193MOL0     O25978   4.332   5.849   9.190  0.5719 -0.4240 -1.1752
  193MOL0     C25979   4.196   5.857   9.242 -0.7863 -0.1195  0.6021
  193MOL0     C25980   4.154   5.716   9.257  0.6286  0.0597 -0.5946
  193MOL0     C25981   4.251   5.647   9.354  0.2858  1.2326  0.2346
  193MOL0     C25982   4.204   5.502   9.369  0.5425  0.0061 -0.0026
  193MOL0     C25983   4.314   5.427   9.430 -0.1294  0.5936 -0.3233
  193MOL0     C25984   4.396   5.356   9.490  0.4423  0.3648 -0.3431
  193MOL0     C25985   4.367   6.085   9.220  0.7677 -0.1379 -0.1382
  193MOL0     C25986   4.449   6.205   9.209 -0.7913  0.4943  0.2598
  193MOL0     C25987   4.397   6.334   9.262 -0.2434 -0.3549 -0.0158
  193MOL0     H25988   4.804   6.546   8.936 -1.0254 -1.2202  0.3045
  193MOL0     H25989   4.931   6.768   8.997 -0.5517 -0.6281  0.0087
  193MOL0     H25990   5.048   6.953   9.392 -0.1018  0.8965 -1.2389
  193MOL0     H25991   5.046   6.782   9.385  1.6849  1.1639  0.6108
  193MOL0     H25992   5.123   6.845   9.127 -0.3611 -1.4092 -0.1928
  193MOL0     H25993   5.228   6.792   9.263 -0.8047  0.1509  1.8453
  193MOL0     H25994   5.269   7.035   9.320 -0.0155  1.4073 -0.5706
  193MOL0     H25995   5.162   7.085   9.188  0.2039 -0.5569 -2.6800
  193MOL0     H25996   5.413   6.916   9.135 -1.7830 -3.1702 -4.5555
  193MOL0     H25997   5.311   6.981   9.019  2.6292  3.3939 -1.6873
  193MOL0     H25998   5.392   7.213   9.082 -0.9989 -1.3111 -1.2658
  193MOL0     H25999   5.504   7.125   9.200  1.1405  0.2797 -0.1356
  193MOL0     H26000   5.600   7.003   8.998 -0.0857 -0.8978 -2.4574
  193MOL0     H26001   5.489   7.091   8.897 -2.6395 -1.0953  2.0009
  193MOL0     H26002   5.726   7.194   9.058  0.4002 -1.1215 -0.3082
  193MOL0     H26003   5.601   7.307   8.996 -0.4960 -0.5093  2.9223
  193MOL0     H26004   5.761   7.095   8.831 -0.8414 -0.3930  3.1687
  193MOL0     H26005   5.654   7.227   8.766 -1.5374 -2.3743 -1.7417
  193MOL0     H26006   5.977   7.175   8.984  2.3299 -1.4462 -2.1126
  193MOL0     H26007   6.155   7.531   9.009  0.1806 -0.3052 -3.8396
  193MOL0     H26008   6.104   7.426   9.139  2.7319 -0.4357  0.1035
  193MOL0     H26009   6.230   7.236   9.048 -1.6473 -0.8090 -3.6797
  193MOL0     H26010   6.280   7.326   8.904  0.0342 -2.8331 -0.6574
  193MOL0     H26011   6.349   7.384   9.196  2.3083  1.7638  0.5376
  193MOL0     H26012   6.388   7.498   9.069  1.7014 -0.1102 -0.3737
  193MOL0     H26013   6.522   7.307   8.972 -0.2140 -0.1308  0.5214
  193MOL0     H26014   6.480   7.209   9.112  0.6018  0.2470  0.2111
  193MOL0     H26015   6.657   7.101   9.147  1.4685 -2.2736  1.6095
  193MOL0     H26016   6.855   6.989   9.126  1.8821  0.8367 -2.6542
  193MOL0     H26017   7.404   7.329   9.120 -0.2613 -0.9016 -4.3503
  193MOL0     H26018   7.634   7.290   9.105 -0.2077  0.0248  0.7767
  193MOL0     H26019   7.801   7.218   8.989 -1.2249 -0.9686  1.1074
  193MOL0     H26020   7.912   7.157   9.118  1.9458 -2.3992 -0.5740
  193MOL0     H26021   8.032   7.123   8.902  0.0502 -0.9713 -1.2870
  193MOL0     H26022   7.962   6.975   8.961 -1.8122 -1.8908 -2.6513
  193MOL0     H26023   7.864   6.956   8.761  1.8341  0.5335 -3.3523
  193MOL0     H26024   7.764   7.102   8.801  0.8004  0.5787  0.8622
  193MOL0     H26025   8.041   7.087   8.671 -1.3755 -1.3222  2.1556
  193MOL0     H26026   7.930   7.232   8.675  2.0453  0.7727 -0.3393
  193MOL0     H26027   7.867   6.955   8.540 -2.0856  0.0704  2.1026
  193MOL0     H26028   7.949   7.087   8.453 -0.9900 -0.4029 -0.7678
  193MOL0     H26029   7.682   7.122   8.582  0.6931  0.2794  0.5787
  193MOL0     H26030   7.752   7.227   8.459 -0.6897  0.5225  1.1338
  193MOL0     H26031   7.577   7.082   8.347 -0.8994 -2.2735 -1.9405
  193MOL0     H26032   7.677   6.939   8.380  2.6302  0.4255 -1.0052
  193MOL0     H26033   7.850   7.034   8.239 -0.1415  1.3230  1.8600
  193MOL0     H26034   7.688   7.018   8.164 -0.6228 -0.7728  0.8651
  193MOL0     H26035   7.565   6.867   9.131 -0.6024 -0.4367 -0.1426
  193MOL0     H26036   7.327   6.900   9.135  1.7967 -1.3868 -0.9677
  193MOL0     H26037   7.061   7.363   9.182  0.9504 -1.8306  0.5803
  193MOL0     H26038   6.833   7.483   9.176 -0.0748 -0.1002  0.9715
  193MOL0     H26039   4.799   6.719   9.403  0.0260 -2.5190  0.7655
  193MOL0     H26040   4.658   6.519   9.325 -1.8272 -0.6954 -2.7957
  193MOL0     H26041   4.726   6.060   9.081  0.7816  4.6810 -0.9091
  193MOL0     H26042   4.585   5.855   9.094  0.9302  0.1106 -0.5170
  193MOL0     H26043   4.124   5.902   9.173 -1.2399 -1.5493  0.0933
  193MOL0     H26044   4.211   5.915   9.333  1.1220 -0.6620  0.6762
  193MOL0     H26045   4.154   5.670   9.158 -1.0077 -2.1910  0.3836
  193MOL0     H26046   4.050   5.706   9.289  0.4032  1.6798 -0.7500
  193MOL0     H26047   4.250   5.700   9.450 -1.1549 -0.6016  1.2979
  193MOL0     H26048   4.354   5.650   9.316 -0.0106  0.1793 -0.7017
  193MOL0     H26049   4.111   5.497   9.426 -0.2627 -4.5805 -1.2772
  193MOL0     H26050   4.173   5.462   9.272  0.1902  0.1018  0.0694
  193MOL0     H26051   4.451   5.275   9.534  1.9218  1.3816 -0.2722
  193MOL0     H26052   4.263   6.101   9.247  0.5584  2.5789 -2.0733
  193MOL0     H26053   4.422   6.413   9.191  2.7208  0.7986  2.1152
  193MOL0     H26054   4.290   6.325   9.282  0.2071 -1.3006  2.2054
  193MOL0     H26055   4.454   6.369   9.348  1.6227  1.2301 -1.7725
  194MOL0     O26056   2.392   1.494   8.028  0.5972 -0.2176 -0.0465
  194MOL0     C26057   2.299   1.532   7.949  0.3348  0.5909 -0.5196
  194MOL0     O26058   2.317   1.564   7.811 -0.7546 -0.9740  0.0484
  194MOL0     C26059   2.447   1.569   7.765 -0.1287  0.2033 -0.9607
  194MOL0     C26060   2.534   1.679   7.792  0.5394 -0.3087 -0.8341
  194MOL0     C26061   2.660   1.682   7.738  0.5191 -0.6098  0.9162
  194MOL0     C26062   2.710   1.569   7.663  0.8425  0.2786  0.4859
  194MOL0     O26063   2.842   1.569   7.617 -0.8836 -0.4665  0.4068
  194MOL0     C26064   2.854   1.588   7.470 -0.1706 -0.2089 -0.5866
  194MOL0     C26065   2.974   1.512   7.400 -0.0701  0.7107  0.7533
  194MOL0     C26066   3.103   1.574   7.461 -0.3437 -0.1955 -0.1459
  194MOL0     C26067   3.236   1.530   7.409 -1.1480  0.7899  0.1158
  194MOL0     C26068   3.255   1.372   7.398  0.4911 -0.9722  0.5288
  194MOL0     C26069   3.397   1.325   7.373  0.2840  0.3477 -0.8963
  194MOL0     C26070   3.500   1.365   7.478 -0.6290  0.1756 -0.1334
  194MOL0     C26071   3.627   1.296   7.423 -0.4809  0.2189 -0.3037
  194MOL0     N26072   3.708   1.397   7.353 -0.5216 -0.4880  0.3580
  194MOL0     C26073   3.745   1.521   7.401  0.6050  0.0485 -0.2535
  194MOL0     C26074   3.815   1.578   7.299  0.0716  0.3933  0.4401
  194MOL0     C26075   3.899   1.701   7.324  0.7471 -0.0062  0.3149
  194MOL0     C26076   4.043   1.679   7.286 -0.0824  0.0017  0.2326
  194MOL0     C26077   4.122   1.806   7.324  0.1079 -0.2413 -0.1369
  194MOL0     C26078   4.260   1.821   7.242  0.3257 -0.1363 -0.6014
  194MOL0     O26079   4.295   1.962   7.252 -0.4941  0.9495  0.5173
  194MOL0     C26080   4.417   1.996   7.197  0.8481  0.4081 -0.3583
  194MOL0     C26081   4.437   2.132   7.193 -0.4503  0.1045  0.1694
  194MOL0     C26082   4.552   2.189   7.145 -0.1069 -0.3171  0.0991
  194MOL0     C26083   4.648   2.102   7.085 -0.3462 -0.3938  0.3665
  194MOL0     C26084   4.758   2.169   7.011 -0.4945  0.1860 -0.3538
  194MOL0     O26085   4.772   2.303   7.001 -0.1197  0.1229  0.4120
  194MOL0     C26086   4.876   2.344   6.928  0.9042 -0.4347  0.7156
  194MOL0     C26087   4.851   2.426   6.817  0.7417 -0.4674  0.5794
  194MOL0     C26088   4.951   2.486   6.734 -0.0002 -0.4291 -0.3039
  194MOL0     C26089   5.081   2.452   6.762  0.9791 -0.1375  0.8673
  194MOL0     O26090   5.180   2.508   6.680  0.7421  0.4272  0.4501
  194MOL0     C26091   5.319   2.477   6.684 -0.8921 -0.0411  0.2527
  194MOL0     C26092   5.383   2.548   6.561 -0.2399  0.0428  0.0338
  194MOL0     C26093   5.541   2.530   6.565  0.8067  1.1122 -0.1622
  194MOL0     C26094   5.604   2.552   6.427  0.2354 -0.8296 -0.4624
  194MOL0     C26095   5.748   2.524   6.434 -0.5733 -0.1891 -0.0640
  194MOL0     C26096   5.776   2.374   6.426 -0.3700  0.5822 -0.2998
  194MOL0     C26097   5.918   2.338   6.465  0.7423 -0.7596  0.6419
  194MOL0     C26098   5.942   2.185   6.467  0.0668 -0.8220  1.0264
  194MOL0    Cl26099   6.122   2.172   6.507 -0.1816  0.2042 -0.4966
  194MOL0     C26100   5.115   2.368   6.868 -0.9756 -0.3665 -0.4291
  194MOL0     C26101   5.013   2.310   6.949  0.0153 -0.6947 -0.2079
  194MOL0     O26102   4.838   2.087   6.960  0.0316  0.1579  0.8502
  194MOL0     C26103   4.631   1.961   7.089 -0.1726 -0.7733 -0.3431
  194MOL0     C26104   4.514   1.906   7.139 -0.5590  0.1504 -0.3734
  194MOL0     N26105   3.829   1.492   7.197  0.3753  1.7640 -0.1756
  194MOL0     N26106   3.771   1.379   7.229 -0.1525 -0.3462 -1.0521
  194MOL0     C26107   2.632   1.454   7.658  0.5308 -0.4135 -0.4415
  194MOL0     C26108   2.498   1.460   7.709 -0.6004 -0.1463  0.7501
  194MOL0     C26109   2.161   1.549   8.019 -0.5582 -0.3061 -0.2180
  194MOL0     C26110   2.139   1.461   8.124 -0.4453  0.0531 -0.1715
  194MOL0     C26111   2.018   1.463   8.186 -0.0386 -0.2519 -0.3780
  194MOL0     C26112   1.918   1.548   8.150 -0.3200  0.8108  0.4862
  194MOL0     O26113   1.802   1.530   8.227 -0.2087 -0.1673  0.3148
  194MOL0     C26114   1.687   1.619   8.203 -0.1139  0.1808  0.5626
  194MOL0     C26115   1.583   1.603   8.321 -0.7856  0.1191 -0.1540
  194MOL0     C26116   1.454   1.675   8.277  0.1451  0.2436 -0.4138
  194MOL0     C26117   1.343   1.648   8.375  0.2405  0.1945 -0.5430
  194MOL0     C26118   1.288   1.515   8.349  0.4305 -0.2002 -0.5074
  194MOL0     C26119   1.249   1.411   8.333  0.2882  0.4334 -0.0622
  194MOL0     C26120   1.937   1.630   8.046  1.3635  0.4008  0.8817
  194MOL0     C26121   2.057   1.631   7.980 -0.7359  1.0873  0.0292
  194MOL0     C26122   2.084   1.721   7.877  0.2898 -0.2005  1.8874
  194MOL0     H26123   2.499   1.767   7.845  2.5059  1.0620 -1.6856
  194MOL0     H26124   2.720   1.773   7.741 -1.9656  1.1003  2.1878
  194MOL0     H26125   2.758   1.557   7.427 -0.7517  0.3301  0.2751
  194MOL0     H26126   2.868   1.695   7.451  0.4241 -0.1716  0.0155
  194MOL0     H26127   2.969   1.526   7.291  1.0925  0.1184  0.6032
  194MOL0     H26128   2.968   1.403   7.415  2.8466 -0.1104 -2.5197
  194MOL0     H26129   3.104   1.563   7.570 -0.0079 -2.0829 -0.3091
  194MOL0     H26130   3.093   1.682   7.445 -0.4888  0.3442  2.9837
  194MOL0     H26131   3.248   1.574   7.309 -5.0168  3.4478  0.5883
  194MOL0     H26132   3.309   1.586   7.469 -0.8645  0.9580 -0.3776
  194MOL0     H26133   3.211   1.331   7.489 -1.4821  0.8583  0.4950
  194MOL0     H26134   3.192   1.335   7.316  1.6230  0.0338 -0.8532
  194MOL0     H26135   3.383   1.219   7.351  0.5530 -0.3721  2.0081
  194MOL0     H26136   3.422   1.371   7.277  1.9600  0.9386 -0.2142
  194MOL0     H26137   3.465   1.316   7.569 -0.4311 -1.3993 -0.8650
  194MOL0     H26138   3.508   1.474   7.481 -1.1042  0.2396 -0.9745
  194MOL0     H26139   3.686   1.261   7.508 -0.0995 -0.6624 -0.9138
  194MOL0     H26140   3.602   1.204   7.369 -0.1529 -0.8772  1.3064
  194MOL0     H26141   3.716   1.564   7.496 -0.2092  0.1959 -0.5601
  194MOL0     H26142   3.847   1.786   7.280 -2.0193 -1.7755 -0.0923
  194MOL0     H26143   3.902   1.728   7.430 -0.8459  0.6588  0.2195
  194MOL0     H26144   4.081   1.598   7.349  2.0511  0.1325 -0.8260
  194MOL0     H26145   4.052   1.653   7.180 -1.5862 -1.3493  0.3926
  194MOL0     H26146   4.148   1.818   7.430  1.0947 -1.3814 -0.2280
  194MOL0     H26147   4.060   1.893   7.300  1.0146  0.1946 -0.9649
  194MOL0     H26148   4.246   1.778   7.142 -1.2747  2.0809 -1.4193
  194MOL0     H26149   4.335   1.766   7.300 -1.4385  0.8590  2.8985
  194MOL0     H26150   4.360   2.196   7.235  1.4933  2.1409  0.8157
  194MOL0     H26151   4.574   2.296   7.151  2.3505 -0.6931 -0.9140
  194MOL0     H26152   4.747   2.455   6.804  1.5736  2.8672  0.5246
  194MOL0     H26153   4.917   2.549   6.652 -1.7792 -1.0492 -0.0835
  194MOL0     H26154   5.367   2.519   6.773 -1.2991 -1.3756  1.1274
  194MOL0     H26155   5.333   2.369   6.689 -0.3161  0.0534  0.9561
  194MOL0     H26156   5.336   2.510   6.470  0.1916 -2.8556  0.9261
  194MOL0     H26157   5.360   2.653   6.582 -0.1692  0.3541 -1.3745
  194MOL0     H26158   5.581   2.593   6.644 -3.0765  1.3610  1.8421
  194MOL0     H26159   5.565   2.425   6.585  1.3630  0.8871 -1.8241
  194MOL0     H26160   5.583   2.657   6.402 -1.3347 -0.3248  2.4888
  194MOL0     H26161   5.560   2.497   6.343 -0.5910  0.9845 -1.2861
  194MOL0     H26162   5.786   2.571   6.525 -1.6427 -3.0489  2.0226
  194MOL0     H26163   5.793   2.573   6.348 -0.7349 -1.9140 -1.1866
  194MOL0     H26164   5.708   2.325   6.496  0.6847 -0.1482  0.2368
  194MOL0     H26165   5.760   2.325   6.330 -0.1053  2.2725 -1.2505
  194MOL0     H26166   5.948   2.379   6.561  3.4344 -2.3692  0.5681
  194MOL0     H26167   5.990   2.384   6.397 -1.6897  2.1609 -0.1838
  194MOL0     H26168   5.883   2.130   6.542 -0.3079  0.0791  1.3992
  194MOL0     H26169   5.916   2.146   6.368  0.9953  0.8597  0.0776
  194MOL0     H26170   5.214   2.332   6.893 -0.9432  0.1342  0.1957
  194MOL0     H26171   5.038   2.244   7.032 -1.0974  1.3965  1.8951
  194MOL0     H26172   4.701   1.895   7.040  2.0783  0.5147  0.9585
  194MOL0     H26173   4.484   1.802   7.128  1.3147 -0.2515 -2.7645
  194MOL0     H26174   2.674   1.365   7.612  0.9218  0.0631 -1.0214
  194MOL0     H26175   2.443   1.367   7.711 -0.0282 -0.4860  2.2826
  194MOL0     H26176   2.218   1.393   8.154 -0.8444 -0.2303  0.2472
  194MOL0     H26177   2.003   1.390   8.264  0.4615  1.3388  1.2671
  194MOL0     H26178   1.649   1.609   8.101  0.3734  0.6815  0.3255
  194MOL0     H26179   1.722   1.723   8.203 -2.3837  0.9985  0.2069
  194MOL0     H26180   1.613   1.658   8.410  1.6394  0.0749 -0.8713
  194MOL0     H26181   1.563   1.498   8.341  1.5586 -0.2719  0.3565
  194MOL0     H26182   1.429   1.630   8.180  0.4717 -1.5090  0.2750
  194MOL0     H26183   1.482   1.780   8.271  2.4319 -0.3843 -2.1844
  194MOL0     H26184   1.374   1.647   8.480  0.7930  2.0700 -0.6475
  194MOL0     H26185   1.262   1.721   8.360 -1.3793 -1.5181 -0.5498
  194MOL0     H26186   1.215   1.311   8.315  0.7218  0.4440 -0.9526
  194MOL0     H26187   1.854   1.691   8.012  1.6614  2.2575  3.1982
  194MOL0     H26188   2.020   1.810   7.872 -0.3147 -0.6861  0.5889
  194MOL0     H26189   2.185   1.762   7.888  0.8896 -1.7721  2.3967
  194MOL0     H26190   2.081   1.670   7.780  0.3270 -1.6062  2.6004
  195MOL0     O26191   2.034   0.049   3.098 -0.0530  0.2564 -0.2650
  195MOL0     C26192   2.036  -0.014   2.998  0.3457 -0.6372 -0.1453
  195MOL0     O26193   2.144  -0.022   2.913 -0.3797  0.2715  0.3952
  195MOL0     C26194   2.238   0.082   2.925 -0.9086 -0.8121  0.2235
  195MOL0     C26195   2.370   0.049   2.968  0.6938 -0.5348 -0.8420
  195MOL0     C26196   2.476   0.144   2.987  0.3445  0.3794  0.6196
  195MOL0     C26197   2.444   0.277   2.963  0.5116  0.1974  0.3709
  195MOL0     O26198   2.548   0.367   2.954 -0.8436 -0.0347 -0.1674
  195MOL0     C26199   2.548   0.456   3.066 -0.3714 -0.0959 -0.8408
  195MOL0     C26200   2.584   0.386   3.200  0.0259 -0.1656  0.1053
  195MOL0     C26201   2.586   0.467   3.325  0.0801  0.7546  0.6013
  195MOL0     C26202   2.686   0.585   3.322  0.6712  0.4726  0.0255
  195MOL0     C26203   2.712   0.661   3.457  0.8857  0.0298 -0.7173
  195MOL0     C26204   2.743   0.565   3.570 -0.2328  0.0084 -0.9697
  195MOL0     C26205   2.752   0.656   3.697  0.2457  0.2227  1.1919
  195MOL0     C26206   2.760   0.570   3.824  0.6067  0.9247  0.7162
  195MOL0     N26207   2.900   0.527   3.846  0.3116  0.4453  0.5942
  195MOL0     C26208   2.995   0.611   3.892  0.0692 -0.4292 -0.7822
  195MOL0     C26209   3.102   0.526   3.912  0.8171 -0.1713  0.1027
  195MOL0     C26210   3.245   0.550   3.968 -0.8800  1.2132 -0.4702
  195MOL0     C26211   3.267   0.453   4.090 -0.0127  0.1866  0.2828
  195MOL0     C26212   3.385   0.477   4.179 -0.4962 -0.4599  0.6686
  195MOL0     C26213   3.514   0.465   4.096  0.0673  0.5737 -0.0418
  195MOL0     O26214   3.625   0.497   4.181 -0.5357  0.3662  0.6595
  195MOL0     C26215   3.751   0.491   4.126  0.0073  0.3731 -0.5628
  195MOL0     C26216   3.788   0.442   4.003 -0.2985 -0.7705 -1.2740
  195MOL0     C26217   3.931   0.413   3.981  0.5365  0.1992 -0.3176
  195MOL0     C26218   4.032   0.461   4.059  0.6104  0.2576  0.6786
  195MOL0     C26219   4.171   0.462   4.014  0.0480 -0.5980 -0.7217
  195MOL0     O26220   4.261   0.508   4.106 -0.7641  0.2477 -0.4617
  195MOL0     C26221   4.393   0.521   4.064 -0.1441  0.3539 -0.5011
  195MOL0     C26222   4.430   0.627   3.977  0.6076  0.0459  0.7266
  195MOL0     C26223   4.557   0.638   3.928 -0.3196  0.1993 -0.2321
  195MOL0     C26224   4.662   0.561   3.983  0.4071 -0.0811  1.0616
  195MOL0     O26225   4.780   0.572   3.929 -0.4960  0.3440  0.3025
  195MOL0     C26226   4.894   0.539   4.014  0.2473 -0.1010  0.0105
  195MOL0     C26227   5.017   0.611   3.964 -0.4215 -0.4516 -1.1036
  195MOL0     C26228   5.148   0.566   4.037 -0.8917  0.5086  0.0847
  195MOL0     C26229   5.268   0.646   3.986 -0.2172  0.2290  0.0596
  195MOL0     C26230   5.403   0.605   4.054 -0.3567 -0.7722 -0.4202
  195MOL0     C26231   5.516   0.707   4.030  0.1018  0.7568  0.6745
  195MOL0     C26232   5.618   0.688   4.143 -1.3192 -1.1973 -0.4729
  195MOL0     C26233   5.727   0.803   4.122  0.0680  0.2308 -0.1636
  195MOL0    Cl26234   5.842   0.802   4.260 -0.0636  0.6618  0.4849
  195MOL0     C26235   4.626   0.461   4.075 -0.4566 -0.5261 -0.3134
  195MOL0     C26236   4.496   0.444   4.123 -0.0430 -0.7217 -0.8052
  195MOL0     O26237   4.204   0.413   3.903 -0.3521 -0.2284  0.3819
  195MOL0     C26238   3.987   0.513   4.185  0.0640 -0.4186  0.7885
  195MOL0     C26239   3.852   0.523   4.216  0.3667 -0.2708  1.0104
  195MOL0     N26240   3.067   0.401   3.878 -0.5944  0.1484 -0.0046
  195MOL0     N26241   2.946   0.402   3.838 -0.1823 -0.3409 -0.3934
  195MOL0     C26242   2.306   0.314   2.944 -0.1315  1.1769 -0.5351
  195MOL0     C26243   2.211   0.212   2.923  0.4835 -0.2935 -0.8284
  195MOL0     C26244   1.923  -0.108   2.978  1.0404 -0.3335  0.0385
  195MOL0     C26245   1.923  -0.162   2.847  0.0484 -0.5325 -0.3570
  195MOL0     C26246   1.823  -0.251   2.807 -0.1277 -0.7325 -0.4134
  195MOL0     C26247   1.727  -0.292   2.905  0.5793  0.5546  0.0854
  195MOL0     O26248   1.621  -0.380   2.879  0.5239 -0.1037  0.6939
  195MOL0     C26249   1.528  -0.325   2.773 -0.8611  0.5734  0.6219
  195MOL0     C26250   1.536  -0.433   2.659  1.2927 -0.3217 -0.4602
  195MOL0     C26251   1.457  -0.564   2.699 -0.4959 -0.3343 -0.5692
  195MOL0     C26252   1.431  -0.651   2.573 -0.3810 -0.3515  0.0794
  195MOL0     C26253   1.405  -0.789   2.604 -0.0099 -0.1487 -0.2761
  195MOL0     C26254   1.362  -0.904   2.625 -1.0535 -0.3013 -0.2753
  195MOL0     C26255   1.739  -0.245   3.040 -0.2261  0.0060  0.1502
  195MOL0     C26256   1.832  -0.149   3.078 -0.2456 -0.1092  0.3334
  195MOL0     C26257   1.833  -0.104   3.220  0.4981  0.0640  0.0958
  195MOL0     H26258   2.401  -0.055   2.971 -1.7342 -1.3029  0.7297
  195MOL0     H26259   2.581   0.118   2.992  0.0902 -0.9142 -0.2789
  195MOL0     H26260   2.631   0.522   3.037  0.7865 -0.6218  1.0741
  195MOL0     H26261   2.458   0.515   3.085 -1.1550 -1.3724 -0.4409
  195MOL0     H26262   2.677   0.332   3.178  0.5972  0.7578  0.2179
  195MOL0     H26263   2.512   0.305   3.215 -3.8664  2.6473 -1.5691
  195MOL0     H26264   2.621   0.400   3.405 -1.0277 -2.1451 -1.1920
  195MOL0     H26265   2.488   0.503   3.357  1.2680  2.1983  2.8678
  195MOL0     H26266   2.786   0.557   3.287  1.8695  3.6469  0.5537
  195MOL0     H26267   2.640   0.653   3.249  1.6070 -0.0818 -1.1171
  195MOL0     H26268   2.801   0.722   3.439  1.0886 -0.5491 -1.7580
  195MOL0     H26269   2.626   0.722   3.486 -3.0926 -5.7569  1.5890
  195MOL0     H26270   2.660   0.494   3.578  0.5579 -1.0791 -2.0910
  195MOL0     H26271   2.838   0.517   3.546  0.7508  2.0655 -1.3773
  195MOL0     H26272   2.671   0.728   3.705  0.1859  0.0787  1.8729
  195MOL0     H26273   2.838   0.724   3.689  0.2888  0.0126 -0.8708
  195MOL0     H26274   2.719   0.624   3.910 -1.3650 -2.3499  2.0460
  195MOL0     H26275   2.704   0.478   3.803  1.2173  0.6748  0.1674
  195MOL0     H26276   2.993   0.718   3.909  0.7266 -0.4314 -0.6729
  195MOL0     H26277   3.322   0.528   3.894 -1.1574  0.6349 -0.5971
  195MOL0     H26278   3.250   0.655   3.997 -2.1257  1.1174  0.1767
  195MOL0     H26279   3.180   0.460   4.155  1.6870  3.1862  2.5143
  195MOL0     H26280   3.272   0.352   4.048  1.6462  1.0263 -1.7142
  195MOL0     H26281   3.395   0.404   4.260  2.3042  0.2453  1.0657
  195MOL0     H26282   3.385   0.572   4.234 -1.8702 -1.2732  2.1398
  195MOL0     H26283   3.522   0.543   4.020 -0.0434  0.5190 -0.1083
  195MOL0     H26284   3.526   0.362   4.062 -1.1053 -0.0623  1.3593
  195MOL0     H26285   3.719   0.412   3.925 -0.2758 -2.3697 -0.7059
  195MOL0     H26286   3.969   0.367   3.891  0.8530  1.3291 -0.7785
  195MOL0     H26287   4.355   0.696   3.940 -0.7392 -1.4824  0.4983
  195MOL0     H26288   4.584   0.720   3.861 -0.7141  0.1197 -0.4900
  195MOL0     H26289   4.876   0.562   4.119 -1.5347 -2.6187  0.3409
  195MOL0     H26290   4.922   0.434   4.003  1.5882  0.2372 -0.0160
  195MOL0     H26291   5.023   0.599   3.856  3.1891  0.7054 -1.1544
  195MOL0     H26292   5.001   0.712   4.003  2.4429 -0.6684  0.9635
  195MOL0     H26293   5.139   0.586   4.144 -2.2401  2.1982 -0.2961
  195MOL0     H26294   5.165   0.459   4.023 -0.8834  0.5517 -0.2461
  195MOL0     H26295   5.244   0.752   3.997  0.2133  0.3596 -0.1987
  195MOL0     H26296   5.262   0.624   3.879 -1.6879  0.1527  0.1390
  195MOL0     H26297   5.426   0.505   4.014 -0.5087  0.0066 -2.5900
  195MOL0     H26298   5.391   0.595   4.162 -1.5334  1.3661 -0.3078
  195MOL0     H26299   5.562   0.692   3.932  2.3805 -2.8937  2.0791
  195MOL0     H26300   5.463   0.803   4.034  0.5207  1.1900 -1.9800
  195MOL0     H26301   5.666   0.591   4.126 -0.6378 -1.1111  0.8669
  195MOL0     H26302   5.573   0.693   4.243  0.0293  0.6669  0.1154
  195MOL0     H26303   5.776   0.783   4.027 -2.9157 -0.5022 -1.6742
  195MOL0     H26304   5.674   0.898   4.108 -2.4833 -1.0967 -0.2312
  195MOL0     H26305   4.697   0.398   4.127  0.2578  0.1369 -0.4744
  195MOL0     H26306   4.474   0.371   4.201 -1.4004 -0.0355 -0.5130
  195MOL0     H26307   4.058   0.541   4.263  1.0969 -1.8342  0.3988
  195MOL0     H26308   3.816   0.556   4.313 -0.6568 -0.6275  0.7642
  195MOL0     H26309   2.274   0.417   2.934 -0.4258  0.8984 -2.9024
  195MOL0     H26310   2.114   0.253   2.900 -2.5041 -3.2530  4.4983
  195MOL0     H26311   2.007  -0.137   2.783  1.3087  2.0314  2.0686
  195MOL0     H26312   1.814  -0.284   2.704 -2.5841  1.8319 -1.1354
  195MOL0     H26313   1.565  -0.233   2.726  0.7539 -1.1215 -1.6286
  195MOL0     H26314   1.427  -0.322   2.816 -1.0275 -1.8684  0.5176
  195MOL0     H26315   1.641  -0.448   2.629  1.6331 -1.3687  1.1416
  195MOL0     H26316   1.480  -0.388   2.576 -0.8871  2.4969  2.3045
  195MOL0     H26317   1.370  -0.559   2.764  0.4421  0.0330  0.6887
  195MOL0     H26318   1.536  -0.614   2.756 -2.3633 -3.9365 -0.8520
  195MOL0     H26319   1.356  -0.616   2.501 -0.2613 -0.9423 -0.3364
  195MOL0     H26320   1.520  -0.659   2.510 -0.0251 -1.8706  0.7219
  195MOL0     H26321   1.357  -1.008   2.653  1.1168 -0.5630 -0.6966
  195MOL0     H26322   1.663  -0.273   3.113 -2.4388  1.5454 -1.3928
  195MOL0     H26323   1.771  -0.166   3.285 -1.3181  0.9569 -0.6939
  195MOL0     H26324   1.938  -0.108   3.249  0.8877  0.6149 -1.1664
  195MOL0     H26325   1.799  -0.001   3.229 -1.1838 -0.6778  4.1391
  196MOL0     O26326   4.632  10.649   8.493  0.4173 -0.4777  0.2917
  196MOL0     C26327   4.613  10.559   8.413 -0.0778  0.2195 -0.1125
  196MOL0     O26328   4.706  10.473   8.365 -0.2878 -0.8209 -0.9676
  196MOL0     C26329   4.822  10.465   8.438  1.2704 -0.0534  0.1193
  196MOL0     C26330   4.921  10.564   8.433 -0.5027  0.5443  1.2010
  196MOL0     C26331   5.045  10.545   8.494 -0.2581  0.0309  0.1731
  196MOL0     C26332   5.066  10.440   8.587  0.3035 -0.0971 -0.2180
  196MOL0     O26333   5.180  10.410   8.663  0.5165  0.4781  0.0090
  196MOL0     C26334   5.300  10.484   8.624  0.4849 -0.1677 -0.5391
  196MOL0     C26335   5.422  10.384   8.632  0.9825  0.3456  0.1642
  196MOL0     C26336   5.551  10.456   8.598  0.0559 -0.4581 -0.2783
  196MOL0     C26337   5.680  10.372   8.626  0.7332 -0.2074 -0.0059
  196MOL0     C26338   5.797  10.473   8.611  0.1456  0.4429 -1.2177
  196MOL0     C26339   5.934  10.405   8.616 -0.2910  0.2783 -0.2647
  196MOL0     C26340   6.035  10.518   8.592  0.3841  0.5344  0.3441
  196MOL0     C26341   6.177  10.487   8.632 -0.0475  0.7515  0.0369
  196MOL0     N26342   6.258  10.434   8.524 -0.5356 -0.0963 -0.1057
  196MOL0     C26343   6.356  10.489   8.440  0.0135 -0.3006 -0.6630
  196MOL0     C26344   6.381  10.390   8.350 -0.5279  0.4395 -0.2894
  196MOL0     C26345   6.469  10.386   8.225 -0.5576 -0.0276  0.5254
  196MOL0     C26346   6.614  10.396   8.260  0.2976  0.1595 -0.0828
  196MOL0     C26347   6.660  10.278   8.346 -0.2233  0.0115 -0.6573
  196MOL0     C26348   6.811  10.285   8.372  0.1852 -0.3988 -0.1852
  196MOL0     O26349   6.852  10.364   8.482  0.2049 -0.2193 -0.2791
  196MOL0     C26350   6.857  10.315   8.606 -0.4697  0.3339  0.1807
  196MOL0     C26351   6.807  10.192   8.655  0.2627  0.3159  0.4916
  196MOL0     C26352   6.832  10.149   8.788  1.0331  0.2477 -0.1179
  196MOL0     C26353   6.893  10.236   8.877  0.1361 -0.6321 -1.1228
  196MOL0     C26354   6.922  10.201   9.016  0.5998 -0.1532  0.0837
  196MOL0     O26355   6.953  10.066   9.021  0.0274  0.2105 -0.8347
  196MOL0     C26356   6.978  10.007   9.139 -0.2438  0.1819 -0.6833
  196MOL0     C26357   6.937   9.875   9.157 -0.5336  0.1145  0.3244
  196MOL0     C26358   6.953   9.817   9.278 -0.0714  0.9950 -0.5272
  196MOL0     C26359   7.028   9.869   9.384  0.0228 -0.0896 -0.5970
  196MOL0     O26360   7.043   9.814   9.507  0.1731  0.0351 -0.3377
  196MOL0     C26361   7.030   9.672   9.508  0.7541  0.5828  0.3961
  196MOL0     C26362   7.058   9.619   9.647 -0.5764  0.2341  0.4571
  196MOL0     C26363   7.045   9.465   9.638  0.7778 -0.8326 -0.4744
  196MOL0     C26364   6.897   9.433   9.666  0.3404 -0.2053  0.3533
  196MOL0     C26365   6.869   9.283   9.673  0.4891 -1.3978  0.6753
  196MOL0     C26366   6.942   9.195   9.774  0.3236  0.4970 -0.2800
  196MOL0     C26367   6.876   9.057   9.795  0.2761 -0.0198  0.6548
  196MOL0     C26368   6.908   9.012   9.937  0.2960 -0.0847 -0.1290
  196MOL0    Cl26369   6.857   8.844   9.972 -0.1338 -0.3097 -0.1528
  196MOL0     C26370   7.070  10.003   9.363  0.1621 -0.5167  0.5874
  196MOL0     C26371   7.041  10.073   9.244 -0.0499 -0.0533 -0.2271
  196MOL0     O26372   6.910  10.283   9.108  0.2787  0.0836  0.2002
  196MOL0     C26373   6.931  10.361   8.838  0.4105 -0.3881  0.1918
  196MOL0     C26374   6.913  10.400   8.702  0.2700 -0.1265  0.1826
  196MOL0     N26375   6.287  10.285   8.359  0.6433 -0.5736 -0.0959
  196MOL0     N26376   6.216  10.319   8.464  0.1415 -1.2374 -0.0563
  196MOL0     C26377   4.958  10.350   8.609 -0.6847  0.8498 -0.3539
  196MOL0     C26378   4.842  10.357   8.526  0.2332 -0.3646 -0.5141
  196MOL0     C26379   4.481  10.554   8.347 -0.1241  0.3826  0.3798
  196MOL0     C26380   4.367  10.521   8.421  0.6001 -0.3105 -0.4353
  196MOL0     C26381   4.235  10.516   8.362 -0.3327 -0.2800  0.4995
  196MOL0     C26382   4.222  10.524   8.228 -0.1107 -0.2216  0.8260
  196MOL0     O26383   4.091  10.511   8.179  0.6169 -0.1735 -0.4471
  196MOL0     C26384   4.063  10.480   8.042 -0.4081  0.4481  0.4491
  196MOL0     C26385   3.926  10.422   8.046 -0.1087  0.5823  0.0094
  196MOL0     C26386   3.889  10.344   7.919  0.3419  0.5047 -0.1456
  196MOL0     C26387   3.754  10.274   7.916 -0.1463  0.2328  0.6072
  196MOL0     C26388   3.650  10.367   7.963 -0.1185  0.2123 -0.7569
  196MOL0     C26389   3.572  10.446   8.007  0.1959  0.1800 -0.0513
  196MOL0     C26390   4.335  10.555   8.146  0.5169 -0.6100  0.1147
  196MOL0     C26391   4.463  10.569   8.206  0.6068 -0.5017  0.1743
  196MOL0     C26392   4.575  10.584   8.096 -0.3186 -0.1998 -0.5545
  196MOL0     H26393   4.910  10.642   8.359 -2.7044 -0.2633  0.6199
  196MOL0     H26394   5.128  10.612   8.479  0.3534  0.3070  3.7880
  196MOL0     H26395   5.294  10.504   8.517  1.0683  1.1418 -0.3411
  196MOL0     H26396   5.307  10.576   8.683 -3.7460  1.0786 -1.5914
  196MOL0     H26397   5.396  10.309   8.557  0.7388  0.3424  0.2531
  196MOL0     H26398   5.415  10.347   8.735 -1.2193 -5.8453 -1.7677
  196MOL0     H26399   5.563  10.540   8.667  1.3953 -1.6055  0.9468
  196MOL0     H26400   5.551  10.490   8.493  0.8753 -0.8345 -0.4056
  196MOL0     H26401   5.683  10.329   8.727 -0.9859  0.0365  0.1684
  196MOL0     H26402   5.694  10.290   8.555 -2.0548 -0.8320  0.0437
  196MOL0     H26403   5.782  10.521   8.513  1.4348  1.8110 -0.7899
  196MOL0     H26404   5.783  10.548   8.690 -1.1332 -1.1685  0.1586
  196MOL0     H26405   5.946  10.347   8.708  4.6157  1.4276  0.0852
  196MOL0     H26406   5.934  10.334   8.533 -1.2296  1.0104 -0.9154
  196MOL0     H26407   6.012  10.613   8.642  0.8879  1.8334 -1.7795
  196MOL0     H26408   6.035  10.554   8.489  1.4594  1.8858  0.7674
  196MOL0     H26409   6.221  10.582   8.664 -2.7566  0.9809  3.6045
  196MOL0     H26410   6.183  10.415   8.714 -0.4465  0.1004 -0.4923
  196MOL0     H26411   6.389  10.592   8.447 -1.0818  0.0378 -0.2166
  196MOL0     H26412   6.451  10.293   8.170 -0.6783  0.5708 -0.4726
  196MOL0     H26413   6.435  10.469   8.163  3.3964 -0.0465 -2.0938
  196MOL0     H26414   6.668  10.415   8.167  0.7412  6.1183  0.9871
  196MOL0     H26415   6.638  10.487   8.317  0.8891  0.3827 -0.6795
  196MOL0     H26416   6.647  10.183   8.295 -0.3269 -0.7104  0.6710
  196MOL0     H26417   6.607  10.266   8.441  2.3823 -1.2091  0.7794
  196MOL0     H26418   6.862  10.328   8.286  1.8968 -0.2128  0.8922
  196MOL0     H26419   6.841  10.181   8.382  0.9192 -0.5347 -3.1439
  196MOL0     H26420   6.744  10.131   8.591  1.7088 -3.8475  2.6971
  196MOL0     H26421   6.785  10.058   8.823 -2.5927  1.9970  0.0394
  196MOL0     H26422   6.890   9.819   9.076  1.3230 -0.9411 -0.1003
  196MOL0     H26423   6.904   9.721   9.288 -0.5459  1.0162 -2.3046
  196MOL0     H26424   6.925   9.648   9.485  1.4739 -1.3610 -1.0956
  196MOL0     H26425   7.095   9.631   9.431 -1.0769 -0.8358 -0.4828
  196MOL0     H26426   7.162   9.640   9.674  1.0889 -2.5801 -3.0394
  196MOL0     H26427   6.984   9.670   9.710 -1.8657 -0.4660 -0.4692
  196MOL0     H26428   7.071   9.427   9.539 -1.6471 -2.6234 -0.5272
  196MOL0     H26429   7.107   9.413   9.712 -0.3386  1.4019  2.2138
  196MOL0     H26430   6.827   9.472   9.591 -1.3066 -0.9024  1.4666
  196MOL0     H26431   6.861   9.486   9.755 -2.2581  1.0061 -1.2928
  196MOL0     H26432   6.893   9.237   9.576  0.2282 -0.8412  0.3429
  196MOL0     H26433   6.761   9.273   9.687 -0.1129  2.2133 -0.4730
  196MOL0     H26434   7.046   9.182   9.745  0.6339 -0.6955  1.2427
  196MOL0     H26435   6.945   9.246   9.871  0.8123 -0.9079  0.4644
  196MOL0     H26436   6.907   8.984   9.720  0.2614  2.8325 -2.3545
  196MOL0     H26437   6.769   9.076   9.784  0.2677 -0.2617  0.3117
  196MOL0     H26438   7.015   9.012   9.960  0.5809  0.6787 -1.3984
  196MOL0     H26439   6.858   9.084  10.003  1.2140  0.5890 -0.1542
  196MOL0     H26440   7.128  10.046   9.444  1.0487  1.7724 -1.1606
  196MOL0     H26441   7.081  10.172   9.225  1.3672  0.2314  3.4526
  196MOL0     H26442   6.978  10.434   8.903  1.4602 -0.7792 -0.1135
  196MOL0     H26443   6.957  10.493   8.668 -0.1180  0.3359  0.9056
  196MOL0     H26444   4.968  10.261   8.671  2.4669  0.8319 -0.7162
  196MOL0     H26445   4.766  10.281   8.539  0.2493 -0.0658  1.8440
  196MOL0     H26446   4.388  10.493   8.524  2.3490 -1.7973 -1.1600
  196MOL0     H26447   4.149  10.496   8.425  0.9866 -1.6916  1.9428
  196MOL0     H26448   4.138  10.411   8.003 -0.4382 -1.0858  2.8986
  196MOL0     H26449   4.075  10.566   7.976  3.5072  0.8974  1.4889
  196MOL0     H26450   3.854  10.505   8.052  0.7669  1.3938 -0.3968
  196MOL0     H26451   3.916  10.352   8.129 -0.0609 -0.1435 -0.5881
  196MOL0     H26452   3.962  10.263   7.912 -1.5571 -1.1797 -1.7878
  196MOL0     H26453   3.902  10.407   7.830 -1.3769  0.8779 -0.1667
  196MOL0     H26454   3.726  10.255   7.812 -0.3008  0.4718  0.6043
  196MOL0     H26455   3.755  10.183   7.976 -0.5137  1.1394  2.0429
  196MOL0     H26456   3.505  10.518   8.049 -0.0255  0.1629 -0.3700
  196MOL0     H26457   4.330  10.550   8.038 -1.6318 -1.1368  0.2018
  196MOL0     H26458   4.605  10.482   8.071 -0.0506  0.1569 -1.7440
  196MOL0     H26459   4.547  10.646   8.010 -0.1383 -1.1157 -1.2752
  196MOL0     H26460   4.666  10.636   8.127  1.2941 -2.2280 -1.7133
  197MOL0     O26461   4.236   8.046   4.030  0.0025  0.3727 -0.3248
  197MOL0     C26462   4.241   7.933   4.080 -0.8888 -0.5349  0.0435
  197MOL0     O26463   4.362   7.866   4.111  0.8029  0.6458  0.4220
  197MOL0     C26464   4.472   7.931   4.057 -0.2495  0.3168 -0.5357
  197MOL0     C26465   4.549   7.874   3.964 -0.0316 -0.1622  0.2142
  197MOL0     C26466   4.660   7.935   3.903 -0.0824 -0.7018  0.1709
  197MOL0     C26467   4.710   8.052   3.950 -0.1396 -0.0504 -0.2477
  197MOL0     O26468   4.833   8.082   3.898 -0.2871  0.0256 -0.6953
  197MOL0     C26469   4.877   8.216   3.930 -0.4943  0.0065  0.0060
  197MOL0     C26470   5.019   8.221   3.869  0.1007  0.0705 -0.2760
  197MOL0     C26471   5.089   8.352   3.879  0.2842 -0.2767  0.5226
  197MOL0     C26472   5.235   8.344   3.865  0.0957 -0.6166 -0.0570
  197MOL0     C26473   5.298   8.482   3.883 -0.1601 -0.0789  0.3329
  197MOL0     C26474   5.450   8.479   3.835  0.4708 -0.5801  0.8193
  197MOL0     C26475   5.525   8.598   3.900 -0.5058  0.6003  0.0345
  197MOL0     C26476   5.491   8.739   3.856 -0.7564  0.2259  0.9622
  197MOL0     N26477   5.605   8.829   3.886 -0.8151 -0.0290 -0.5168
  197MOL0     C26478   5.633   8.881   4.012  0.2660 -0.0037 -0.5227
  197MOL0     C26479   5.754   8.942   3.998 -0.2496  0.5204  0.2075
  197MOL0     C26480   5.826   9.019   4.107 -0.5373 -0.2989 -0.4666
  197MOL0     C26481   5.960   9.088   4.072  0.9943 -0.6305  0.5762
  197MOL0     C26482   5.951   9.239   4.042 -0.3147 -0.3276 -0.3856
  197MOL0     C26483   5.939   9.322   4.168  0.3605  0.6380  0.2766
  197MOL0     O26484   6.065   9.320   4.244  0.0320  0.2108  0.0570
  197MOL0     C26485   6.183   9.388   4.202 -0.5061  0.3873 -0.0080
  197MOL0     C26486   6.301   9.359   4.267 -0.3138  0.2890 -0.6019
  197MOL0     C26487   6.423   9.420   4.225  0.1111 -0.9415  0.9729
  197MOL0     C26488   6.423   9.524   4.120  0.4185 -0.0495  0.4853
  197MOL0     C26489   6.535   9.590   4.079 -0.6950 -1.2498 -0.4016
  197MOL0     O26490   6.629   9.609   4.174 -0.4334 -0.0353  0.2648
  197MOL0     C26491   6.743   9.690   4.170  0.4431 -0.0653  0.3923
  197MOL0     C26492   6.755   9.801   4.084  0.6005  0.2417 -0.1910
  197MOL0     C26493   6.875   9.873   4.078 -0.7953 -1.2529  0.4157
  197MOL0     C26494   6.978   9.838   4.167  0.5444  0.1684 -0.5024
  197MOL0     O26495   7.109   9.888   4.172 -0.1069  0.4135 -0.4889
  197MOL0     C26496   7.156   9.928   4.044  0.2690 -0.5464 -0.0516
  197MOL0     C26497   7.305   9.960   4.057 -0.1920 -0.4490  0.5097
  197MOL0     C26498   7.382   9.840   4.108 -1.0988 -0.2683  0.0785
  197MOL0     C26499   7.534   9.862   4.103  0.3714 -0.3450  1.4849
  197MOL0     C26500   7.619   9.744   4.144  0.4691 -0.2217  0.4834
  197MOL0     C26501   7.773   9.769   4.154  0.6209  0.0784  1.2689
  197MOL0     C26502   7.871   9.644   4.178  0.1357 -0.3812  0.7468
  197MOL0     C26503   7.846   9.560   4.297  0.8477  0.0539 -0.4732
  197MOL0    Cl26504   7.977   9.439   4.318 -0.5589 -0.3110 -0.2662
  197MOL0     C26505   6.954   9.739   4.263 -0.1321  0.1740 -0.3341
  197MOL0     C26506   6.836   9.668   4.266  0.2059  0.0717 -0.1812
  197MOL0     O26507   6.549   9.630   3.962 -0.1736  0.1764 -0.1790
  197MOL0     C26508   6.303   9.549   4.053 -0.3048 -0.1744 -0.3470
  197MOL0     C26509   6.186   9.479   4.086 -0.2701 -0.4144 -0.0895
  197MOL0     N26510   5.788   8.932   3.864 -0.3133  0.4317 -0.5196
  197MOL0     N26511   5.706   8.857   3.802  0.3831  0.1996 -0.2505
  197MOL0     C26512   4.642   8.113   4.052  0.7412 -0.2344  0.4844
  197MOL0     C26513   4.525   8.055   4.112 -0.7332 -0.0787 -0.2418
  197MOL0     C26514   4.118   7.866   4.126 -0.5824  0.4762 -0.7487
  197MOL0     C26515   4.137   7.737   4.191 -0.9927 -0.6758  0.1957
  197MOL0     C26516   4.032   7.659   4.226  0.2385  0.1551  0.0531
  197MOL0     C26517   3.900   7.700   4.228 -0.0296 -1.0014 -0.1678
  197MOL0     O26518   3.804   7.614   4.287 -0.0409  0.3991  1.0326
  197MOL0     C26519   3.691   7.678   4.350  0.2337 -0.1542 -0.1975
  197MOL0     C26520   3.604   7.587   4.435 -0.3981  0.5896 -0.9044
  197MOL0     C26521   3.490   7.650   4.506  0.0688  0.0314 -0.0823
  197MOL0     C26522   3.367   7.632   4.430  0.4877  1.1852 -0.3378
  197MOL0     C26523   3.256   7.694   4.506 -0.3758 -0.0486  0.0870
  197MOL0     C26524   3.158   7.728   4.569 -0.1235 -0.3356  0.2231
  197MOL0     C26525   3.874   7.831   4.171  0.2487  0.5145 -0.0083
  197MOL0     C26526   3.979   7.913   4.118  0.0761  0.4408  0.2009
  197MOL0     C26527   3.959   8.051   4.066 -0.2433  0.2956 -0.4034
  197MOL0     H26528   4.518   7.774   3.935 -1.5150 -0.1658  1.6644
  197MOL0     H26529   4.708   7.878   3.824  0.6420  0.7749 -0.4906
  197MOL0     H26530   4.821   8.292   3.873 -3.0128 -0.2753  1.9031
  197MOL0     H26531   4.881   8.238   4.037 -0.3506 -1.6219  0.3620
  197MOL0     H26532   5.018   8.174   3.770 -1.7156 -3.6548  1.3177
  197MOL0     H26533   5.079   8.151   3.928 -3.3123 -1.9018  1.1498
  197MOL0     H26534   5.059   8.408   3.969  1.9947  3.3962 -0.9936
  197MOL0     H26535   5.045   8.409   3.797 -2.7211 -3.0091  0.0026
  197MOL0     H26536   5.281   8.275   3.937 -0.9154  1.1133  2.3811
  197MOL0     H26537   5.250   8.303   3.765 -3.0986  0.0317 -0.8886
  197MOL0     H26538   5.247   8.559   3.824  1.5262 -1.3082 -2.9893
  197MOL0     H26539   5.286   8.508   3.988 -0.7769  2.8499 -0.3830
  197MOL0     H26540   5.504   8.394   3.879  0.7569 -1.6378 -1.4562
  197MOL0     H26541   5.450   8.481   3.726 -0.0806  2.0159  0.8040
  197MOL0     H26542   5.630   8.586   3.871 -1.0517 -2.3012 -1.0746
  197MOL0     H26543   5.512   8.589   4.008  0.1735 -1.4835 -0.0090
  197MOL0     H26544   5.474   8.735   3.748 -0.9396  1.4394  0.9422
  197MOL0     H26545   5.399   8.770   3.907 -1.5993 -1.7867  0.7627
  197MOL0     H26546   5.580   8.881   4.106 -1.6575  1.5016 -1.5179
  197MOL0     H26547   5.755   9.077   4.167  0.6991  1.1113 -0.3157
  197MOL0     H26548   5.848   8.938   4.177 -1.2959  1.2392  1.6853
  197MOL0     H26549   6.029   9.077   4.156  0.5165 -0.6178  0.9786
  197MOL0     H26550   6.002   9.038   3.985  0.9367 -0.3819  0.4046
  197MOL0     H26551   5.857   9.253   3.989 -1.5996 -0.7259  1.7067
  197MOL0     H26552   6.034   9.276   3.979  1.1676  0.6644  2.0032
  197MOL0     H26553   5.867   9.270   4.232  0.0932  0.6029 -0.0505
  197MOL0     H26554   5.907   9.423   4.141  0.9399  0.9128  0.5960
  197MOL0     H26555   6.298   9.295   4.355  0.0303 -0.3984 -1.0879
  197MOL0     H26556   6.513   9.382   4.271 -0.6839  0.6568  4.1149
  197MOL0     H26557   6.668   9.811   4.019  1.9512 -1.4553 -2.4414
  197MOL0     H26558   6.889   9.953   4.006  0.6948 -0.7091  1.2797
  197MOL0     H26559   7.148   9.851   3.967 -1.5429  0.8174 -1.3069
  197MOL0     H26560   7.106  10.023   4.020  1.4794 -0.3920 -2.2539
  197MOL0     H26561   7.341   9.984   3.956  1.2184 -2.2050  0.5559
  197MOL0     H26562   7.323  10.049   4.118  0.0992  0.4067 -0.7775
  197MOL0     H26563   7.357   9.821   4.213  1.8880  2.0622  1.3669
  197MOL0     H26564   7.370   9.754   4.042  1.0247 -1.0518  0.6321
  197MOL0     H26565   7.561   9.950   4.162  0.6933  0.4718  0.1621
  197MOL0     H26566   7.553   9.887   3.998 -1.7200 -0.1758  1.1024
  197MOL0     H26567   7.603   9.671   4.064  0.7732  1.6711 -1.3823
  197MOL0     H26568   7.591   9.707   4.243 -2.0410 -3.9507 -1.3692
  197MOL0     H26569   7.807   9.809   4.058  5.3288 -1.3293  2.0926
  197MOL0     H26570   7.785   9.844   4.232 -0.6111 -0.4898  2.0330
  197MOL0     H26571   7.973   9.684   4.182  0.2453 -0.6432  0.6039
  197MOL0     H26572   7.856   9.582   4.089 -2.7599  1.4932 -0.2160
  197MOL0     H26573   7.827   9.622   4.385 -1.6899 -0.9626 -0.2082
  197MOL0     H26574   7.753   9.509   4.269  0.5001  1.0072 -1.1041
  197MOL0     H26575   7.031   9.721   4.338 -2.9880 -0.3375  2.6933
  197MOL0     H26576   6.820   9.592   4.341  1.7372 -1.3964 -1.2833
  197MOL0     H26577   6.311   9.616   3.968 -1.4460  1.8459  1.0570
  197MOL0     H26578   6.107   9.487   4.012 -1.4388 -0.6877  1.0817
  197MOL0     H26579   4.678   8.206   4.095 -0.1775  0.7031 -0.6848
  197MOL0     H26580   4.478   8.109   4.193  2.3649  4.8004 -1.2941
  197MOL0     H26581   4.235   7.692   4.198 -0.7593 -0.6982 -2.3806
  197MOL0     H26582   4.050   7.567   4.280 -2.3941 -0.1431  0.5589
  197MOL0     H26583   3.621   7.726   4.281 -0.9754  0.2876  1.2922
  197MOL0     H26584   3.737   7.756   4.411 -1.4329  0.8403 -0.1446
  197MOL0     H26585   3.667   7.534   4.507 -0.2572 -4.2221 -4.0882
  197MOL0     H26586   3.565   7.511   4.367 -0.8502 -1.2796  1.3200
  197MOL0     H26587   3.517   7.756   4.511  2.3544 -0.3040 -2.8495
  197MOL0     H26588   3.482   7.611   4.608  1.1203  0.4047  0.1533
  197MOL0     H26589   3.379   7.691   4.338  1.3816 -1.4693 -2.0606
  197MOL0     H26590   3.347   7.525   4.412 -0.2441  1.1667  0.5017
  197MOL0     H26591   3.072   7.757   4.626 -0.4930  2.8840 -1.7335
  197MOL0     H26592   3.771   7.862   4.180 -0.0422 -0.8908  3.3943
  197MOL0     H26593   3.858   8.084   4.094  0.9438  1.8931  2.4463
  197MOL0     H26594   4.020   8.128   4.115  1.5693 -0.8338 -0.7965
  197MOL0     H26595   3.975   8.053   3.958 -0.1870 -0.3605 -0.4078
  198MOL0     O26596   1.652   4.147   7.192  0.8418 -0.5187  0.4559
  198MOL0     C26597   1.567   4.135   7.102 -0.1382 -0.2326 -0.2287
  198MOL0     O26598   1.603   4.102   6.969 -0.0329 -0.6324  0.1433
  198MOL0     C26599   1.723   4.034   6.954  0.1477 -1.0598  1.0068
  198MOL0     C26600   1.713   3.896   6.934 -0.4563 -0.8749 -0.4519
  198MOL0     C26601   1.834   3.828   6.912  0.3656 -0.4506 -0.0124
  198MOL0     C26602   1.960   3.894   6.899 -0.3720  0.6312 -0.1099
  198MOL0     O26603   2.078   3.838   6.866 -0.2160 -0.6036 -0.0585
  198MOL0     C26604   2.111   3.716   6.939  0.3646 -0.1410  0.0722
  198MOL0     C26605   2.258   3.729   6.983 -0.4013 -0.1309  0.2045
  198MOL0     C26606   2.307   3.841   7.072 -0.5862 -0.1017  0.3461
  198MOL0     C26607   2.437   3.802   7.146  0.0975  1.1511 -1.3262
  198MOL0     C26608   2.490   3.908   7.232  1.1421  0.0391  0.8821
  198MOL0     C26609   2.610   3.870   7.317 -0.4344 -0.1330 -0.1617
  198MOL0     C26610   2.692   3.977   7.392 -0.0911 -0.1285  0.6688
  198MOL0     C26611   2.771   3.915   7.509  0.4295 -0.3085  0.3309
  198MOL0     N26612   2.875   4.006   7.568  1.1689 -0.0348  0.1012
  198MOL0     C26613   2.951   3.959   7.669 -0.3861 -0.3421 -0.6115
  198MOL0     C26614   3.033   4.065   7.687 -0.0082  0.5065  0.5612
  198MOL0     C26615   3.149   4.070   7.787 -0.0393  0.4064 -0.1379
  198MOL0     C26616   3.246   4.188   7.761  0.3456  0.0131  0.0050
  198MOL0     C26617   3.358   4.167   7.856  0.3304  0.3397 -0.3903
  198MOL0     C26618   3.465   4.277   7.850  0.1960 -0.3270 -0.0494
  198MOL0     O26619   3.421   4.417   7.867  0.0688 -0.2300  0.2493
  198MOL0     C26620   3.363   4.454   7.992 -0.4192 -0.5991  0.4262
  198MOL0     C26621   3.321   4.587   7.996  0.3460  0.7223 -0.8087
  198MOL0     C26622   3.287   4.651   8.122 -0.6134  0.0339  0.4246
  198MOL0     C26623   3.279   4.580   8.243 -0.6811 -0.0287  0.2107
  198MOL0     C26624   3.245   4.639   8.370  0.0749  0.2146  1.4849
  198MOL0     O26625   3.242   4.563   8.477 -0.8050 -0.0253  0.5262
  198MOL0     C26626   3.206   4.639   8.584 -0.1334  0.1364 -0.7798
  198MOL0     C26627   3.080   4.637   8.632  1.0587 -0.0524  0.1472
  198MOL0     C26628   3.056   4.697   8.758 -0.5660 -0.2837  0.0681
  198MOL0     C26629   3.144   4.779   8.834  0.0946  0.2407 -0.6240
  198MOL0     O26630   3.111   4.818   8.963  1.3519  0.1494 -0.3693
  198MOL0     C26631   2.972   4.864   8.985  0.0617 -0.3891 -0.0578
  198MOL0     C26632   2.982   4.971   9.102 -0.8389 -0.3013  0.1982
  198MOL0     C26633   3.060   5.094   9.059  0.5968 -0.0992  0.3942
  198MOL0     C26634   3.065   5.205   9.158  0.0831  0.6460 -0.3214
  198MOL0     C26635   3.160   5.315   9.127 -0.5419 -1.1858  0.1194
  198MOL0     C26636   3.302   5.264   9.118 -0.6690  0.5781 -0.3359
  198MOL0     C26637   3.405   5.379   9.100 -0.2972  0.0849  0.0513
  198MOL0     C26638   3.523   5.321   9.032 -0.4887 -0.7360  0.2197
  198MOL0    Cl26639   3.641   5.452   9.019  0.0443 -0.8092  0.1009
  198MOL0     C26640   3.276   4.775   8.785  0.5368 -0.0581  0.1453
  198MOL0     C26641   3.310   4.714   8.658 -0.0175  0.3259  0.2772
  198MOL0     O26642   3.235   4.764   8.364  0.0841 -0.1280  0.1720
  198MOL0     C26643   3.319   4.449   8.230  0.4607  0.1572 -0.2518
  198MOL0     C26644   3.359   4.384   8.116  0.5837  0.0693  0.2046
  198MOL0     N26645   2.997   4.169   7.606 -0.1130 -0.0780  0.3238
  198MOL0     N26646   2.907   4.129   7.523  0.2635  0.0351  0.3120
  198MOL0     C26647   1.959   4.033   6.926 -0.0559  0.5544 -0.4214
  198MOL0     C26648   1.844   4.097   6.967 -0.5433 -1.0370 -0.9631
  198MOL0     C26649   1.415   4.145   7.112  0.1468  0.6366 -0.5583
  198MOL0     C26650   1.330   4.101   7.008  0.0582 -0.4937 -0.6029
  198MOL0     C26651   1.188   4.112   7.021 -1.2209  0.3694 -0.9822
  198MOL0     C26652   1.121   4.155   7.135 -0.0880  1.0573  0.3044
  198MOL0     O26653   0.986   4.165   7.125  0.4776  0.5289  0.6616
  198MOL0     C26654   0.907   4.207   7.240 -0.5470  0.3561  0.2780
  198MOL0     C26655   0.763   4.191   7.211 -0.3698  1.1801 -0.1782
  198MOL0     C26656   0.730   4.049   7.156 -0.4154  0.2965  0.0025
  198MOL0     C26657   0.602   4.028   7.096  0.8000  0.0483 -0.0544
  198MOL0     C26658   0.496   4.032   7.201  0.0948 -0.2231  0.4240
  198MOL0     C26659   0.406   4.032   7.283 -0.5638 -0.0902  0.6595
  198MOL0     C26660   1.207   4.203   7.235  0.1353  0.5007 -0.1275
  198MOL0     C26661   1.351   4.203   7.220 -0.4410 -0.1606 -0.9038
  198MOL0     C26662   1.434   4.272   7.331 -0.0397  0.3524  0.0729
  198MOL0     H26663   1.615   3.849   6.943 -0.4741 -0.6304  0.9546
  198MOL0     H26664   1.836   3.719   6.908 -0.7373 -0.6469  2.7688
  198MOL0     H26665   2.047   3.706   7.028 -0.2566 -1.6398 -0.5090
  198MOL0     H26666   2.101   3.632   6.869 -1.3951 -1.5304  1.8727
  198MOL0     H26667   2.306   3.727   6.885  0.0981 -0.9615  0.4587
  198MOL0     H26668   2.282   3.635   7.034 -0.2012 -0.9758 -1.3768
  198MOL0     H26669   2.231   3.865   7.147  0.8627 -0.4790  1.9706
  198MOL0     H26670   2.319   3.933   7.014 -2.5698  0.4657  0.7376
  198MOL0     H26671   2.405   3.715   7.204  0.3845  0.9435 -1.4760
  198MOL0     H26672   2.512   3.751   7.084  1.4222 -1.7248  2.2576
  198MOL0     H26673   2.514   3.995   7.170  1.2419  0.0057  0.8745
  198MOL0     H26674   2.416   3.930   7.309 -0.0105 -1.9027  0.3903
  198MOL0     H26675   2.561   3.812   7.396 -1.3874  1.2600  0.3113
  198MOL0     H26676   2.671   3.802   7.257 -0.3317 -0.3026  0.1300
  198MOL0     H26677   2.629   4.056   7.433  1.3084  1.0172  0.7071
  198MOL0     H26678   2.763   4.030   7.327  0.8879 -0.2022  1.6456
  198MOL0     H26679   2.707   3.862   7.580 -0.8511 -1.1380 -1.3882
  198MOL0     H26680   2.829   3.836   7.460 -3.1205 -3.8822  1.3970
  198MOL0     H26681   2.956   3.873   7.735  2.9212  2.4334  3.2465
  198MOL0     H26682   3.099   4.072   7.885 -1.2440 -1.0881 -0.6900
  198MOL0     H26683   3.205   3.976   7.783  1.1579  0.9592  1.9276
  198MOL0     H26684   3.285   4.174   7.660  0.4118  0.7352 -0.0702
  198MOL0     H26685   3.198   4.286   7.764 -1.9140 -1.0341  0.0581
  198MOL0     H26686   3.410   4.077   7.823  1.5716  1.2585 -1.0281
  198MOL0     H26687   3.311   4.144   7.952 -3.3806 -0.7229 -2.2825
  198MOL0     H26688   3.516   4.267   7.753  1.8943  1.3410  0.6022
  198MOL0     H26689   3.541   4.264   7.927 -0.3925 -4.2185  0.0567
  198MOL0     H26690   3.302   4.626   7.897  0.0182  1.5187 -0.4402
  198MOL0     H26691   3.275   4.759   8.125 -0.6162  0.0451  0.0521
  198MOL0     H26692   3.002   4.588   8.575  0.5291  0.1303  0.7040
  198MOL0     H26693   2.957   4.690   8.800 -0.3874 -0.3245  0.4888
  198MOL0     H26694   2.955   4.909   8.887  2.7912  0.4621 -0.2410
  198MOL0     H26695   2.908   4.778   9.005  1.8864 -1.7090  0.3188
  198MOL0     H26696   2.883   4.995   9.140 -0.7842  2.7537 -1.2936
  198MOL0     H26697   3.027   4.915   9.184 -1.3144 -0.2333  0.5073
  198MOL0     H26698   3.161   5.061   9.035  1.2995  1.2407  1.3919
  198MOL0     H26699   3.006   5.129   8.970 -0.3217  0.9018  1.3143
  198MOL0     H26700   3.074   5.170   9.262  0.5147  0.7714 -0.3141
  198MOL0     H26701   2.965   5.248   9.163 -1.6575 -3.0609  0.1365
  198MOL0     H26702   3.157   5.367   9.223  1.0667 -0.7378 -0.0341
  198MOL0     H26703   3.133   5.383   9.046  1.7614 -0.3016  0.0177
  198MOL0     H26704   3.327   5.198   9.202  0.8604 -0.2369 -1.3709
  198MOL0     H26705   3.311   5.215   9.021  4.4068  1.1723 -0.4296
  198MOL0     H26706   3.428   5.424   9.197 -2.6744  1.0987  0.2226
  198MOL0     H26707   3.360   5.463   9.046  1.6943  1.8030  0.9072
  198MOL0     H26708   3.567   5.249   9.102 -1.5524 -1.9662 -0.3584
  198MOL0     H26709   3.501   5.272   8.937  2.9218 -2.0402 -0.0239
  198MOL0     H26710   3.353   4.831   8.837  0.7156  0.6182 -0.8292
  198MOL0     H26711   3.409   4.712   8.615 -0.3036 -2.4080 -0.4351
  198MOL0     H26712   3.308   4.388   8.319  1.9183  0.5632  0.2333
  198MOL0     H26713   3.395   4.282   8.126 -1.8497 -0.9852 -0.9725
  198MOL0     H26714   2.055   4.081   6.938 -0.2118  1.1385 -1.4406
  198MOL0     H26715   1.852   4.198   7.005  0.0806 -0.0307 -3.5187
  198MOL0     H26716   1.367   4.059   6.915  4.8687 -0.9195  1.1947
  198MOL0     H26717   1.140   4.089   6.927  0.0311 -0.1574 -1.5176
  198MOL0     H26718   0.927   4.310   7.269 -0.4340  0.7974 -1.2482
  198MOL0     H26719   0.931   4.142   7.325  3.2374 -0.5212 -1.2526
  198MOL0     H26720   0.729   4.262   7.134 -1.6455 -0.5297 -1.2748
  198MOL0     H26721   0.716   4.216   7.307 -0.9657 -3.1576  0.8773
  198MOL0     H26722   0.744   3.973   7.233 -0.7255  1.5357  1.3170
  198MOL0     H26723   0.796   4.020   7.074 -2.5034 -1.3679 -1.1826
  198MOL0     H26724   0.570   4.112   7.034  2.0420 -0.3691 -1.2975
  198MOL0     H26725   0.597   3.929   7.049 -1.4631 -0.1305  0.4444
  198MOL0     H26726   0.330   4.018   7.357  0.1448 -0.6705  1.2876
  198MOL0     H26727   1.168   4.237   7.330 -2.4936 -4.6224  1.0237
  198MOL0     H26728   1.380   4.353   7.382 -1.3352 -1.0092  0.9703
  198MOL0     H26729   1.466   4.199   7.407  1.4016 -0.2812 -1.0980
  198MOL0     H26730   1.514   4.330   7.284  1.7219 -3.5159 -2.1803
  199MOL0     O26731   7.787  10.024  10.402 -0.0731  0.4096 -0.5692
  199MOL0     C26732   7.683   9.957  10.389  0.1417 -0.2656 -0.8701
  199MOL0     O26733   7.658   9.846  10.467  0.1948 -0.5854  0.2893
  199MOL0     C26734   7.718   9.833  10.590 -0.2556 -0.3615 -0.3387
  199MOL0     C26735   7.633   9.846  10.700 -0.5238  0.0541 -0.4788
  199MOL0     C26736   7.683   9.823  10.830  0.2595  0.6651  0.2150
  199MOL0     C26737   7.812   9.797  10.846 -0.3486  0.9396  0.1079
  199MOL0     O26738   7.843   9.772  10.975  0.7852 -0.1055  0.2543
  199MOL0     C26739   7.942   9.673  11.008  0.3058  0.4924  0.1308
  199MOL0     C26740   7.893   9.607  11.135  0.5686  0.1513  0.0295
  199MOL0     C26741   7.982   9.482  11.181 -0.1480  0.7231  0.4134
  199MOL0     C26742   8.015   9.491  11.325 -0.1370  0.2035 -0.1134
  199MOL0     C26743   8.105   9.371  11.362  0.1968  0.0317  0.6463
  199MOL0     C26744   8.156   9.378  11.507 -0.8175  0.7069  0.1753
  199MOL0     C26745   8.220   9.245  11.556 -0.8312 -0.4918  0.0590
  199MOL0     C26746   8.288   9.254  11.695  0.5900 -0.4784 -0.0210
  199MOL0     N26747   8.430   9.284  11.681  0.3117 -0.3204 -0.3737
  199MOL0     C26748   8.532   9.194  11.697 -0.4727 -0.4911 -0.4952
  199MOL0     C26749   8.639   9.273  11.714 -0.4767  0.2365 -0.6047
  199MOL0     C26750   8.781   9.214  11.751  0.2579 -0.1342  0.4673
  199MOL0     C26751   8.902   9.317  11.728 -0.4391 -0.8303  0.9688
  199MOL0     C26752   9.028   9.229  11.735 -0.1066  0.0789  1.0751
  199MOL0     C26753   9.139   9.292  11.638  0.1578  0.5393 -0.0128
  199MOL0     O26754   9.244   9.204  11.622 -0.4403  0.8768  0.9243
  199MOL0     C26755   9.364   9.242  11.571  0.2493 -0.2052 -0.4052
  199MOL0     C26756   9.466   9.151  11.566  0.1384  0.3348  0.3355
  199MOL0     C26757   9.586   9.180  11.512  0.0205 -0.3522 -0.3291
  199MOL0     C26758   9.616   9.299  11.457  0.1308  0.6515 -0.1296
  199MOL0     C26759   9.757   9.330  11.414  0.9868  0.3403 -0.6895
  199MOL0     O26760   9.786   9.467  11.400 -0.6779 -0.0611  0.2788
  199MOL0     C26761   9.917   9.501  11.392  0.0639 -0.1611  0.1618
  199MOL0     C26762   9.972   9.584  11.488  0.7079  0.2489  0.3184
  199MOL0     C26763  10.109   9.601  11.489 -0.0880 -0.1688  0.1885
  199MOL0     C26764  10.198   9.547  11.389 -0.2244 -0.2422  0.0155
  199MOL0     O26765  10.333   9.571  11.374  0.3760  0.8654  0.0472
  199MOL0     C26766  10.402   9.660  11.460 -0.9364 -0.0766  0.1411
  199MOL0     C26767  10.553   9.653  11.419 -0.0117  0.1081  0.1768
  199MOL0     C26768  10.637   9.775  11.471  0.7846  0.9905  0.0593
  199MOL0     C26769  10.784   9.768  11.415  0.1023 -0.1226  0.0076
  199MOL0     C26770  10.857   9.894  11.448 -0.5748 -0.3229 -0.1897
  199MOL0     C26771  10.994   9.865  11.388  0.3574  0.6909  0.8346
  199MOL0     C26772  11.105   9.969  11.433 -0.0469 -0.1884  0.6734
  199MOL0     C26773  11.076  10.113  11.450  0.2548 -0.1715  0.4789
  199MOL0    Cl26774  11.232  10.206  11.444 -0.0591 -0.4008 -0.0466
  199MOL0     C26775  10.136   9.476  11.288  0.8349  0.2239  0.0324
  199MOL0     C26776  10.002   9.447  11.298 -0.3302  0.0822  0.0031
  199MOL0     O26777   9.838   9.236  11.402  0.5345  0.5273  0.9656
  199MOL0     C26778   9.507   9.395  11.458 -0.1702  0.9080 -0.0597
  199MOL0     C26779   9.386   9.367  11.518  0.2340 -0.0242  0.1957
  199MOL0     N26780   8.610   9.410  11.692  0.1558  0.1413  0.2671
  199MOL0     N26781   8.485   9.409  11.679  1.0221 -0.3469 -0.4573
  199MOL0     C26782   7.901   9.792  10.733  0.0594 -0.3693  0.6604
  199MOL0     C26783   7.852   9.804  10.603 -0.0069  0.0065  0.3198
  199MOL0     C26784   7.589   9.975  10.270 -0.9220 -0.1697 -0.2159
  199MOL0     C26785   7.630  10.070  10.179 -0.5790  0.1309  0.2109
  199MOL0     C26786   7.563  10.090  10.055 -0.0635  0.2981 -0.0442
  199MOL0     C26787   7.451  10.012  10.028  0.6080 -0.0256  0.8760
  199MOL0     O26788   7.402  10.016   9.898 -0.0336 -0.7961 -0.6103
  199MOL0     C26789   7.268   9.974   9.872  0.5293 -0.3095  0.4660
  199MOL0     C26790   7.202  10.056   9.757 -0.1987 -0.9112 -0.0347
  199MOL0     C26791   7.227  10.210   9.776 -0.4469  0.9980 -0.5944
  199MOL0     C26792   7.168  10.290   9.654 -0.2166 -0.6391 -0.0793
  199MOL0     C26793   7.251  10.266   9.538  0.9579 -0.0941  0.1648
  199MOL0     C26794   7.331  10.251   9.447 -0.4303  0.8070 -0.6911
  199MOL0     C26795   7.405   9.916  10.119  0.1849 -0.3341 -0.3448
  199MOL0     C26796   7.476   9.896  10.243 -0.3796  0.6911 -0.2230
  199MOL0     C26797   7.412   9.809  10.350 -0.0303 -0.2615 -0.4416
  199MOL0     H26798   7.526   9.864  10.698 -0.6841 -0.8607 -0.5883
  199MOL0     H26799   7.622   9.815  10.919  1.7630  1.8760  1.4042
  199MOL0     H26800   7.945   9.599  10.926 -0.2382  0.5931  0.0149
  199MOL0     H26801   8.038   9.718  11.035  1.2918 -1.2722 -0.2175
  199MOL0     H26802   7.789   9.581  11.112  0.0140  1.1566  1.2969
  199MOL0     H26803   7.891   9.685  11.212 -0.5887  2.0759 -1.8581
  199MOL0     H26804   8.070   9.480  11.116  1.1328  1.0420  2.0974
  199MOL0     H26805   7.928   9.389  11.159 -0.0885  0.1667  2.4985
  199MOL0     H26806   8.061   9.586  11.353 -1.9585  0.5927  1.8523
  199MOL0     H26807   7.921   9.480  11.381 -1.0071 -0.4119 -1.6362
  199MOL0     H26808   8.055   9.275  11.345  1.9871 -0.7274 -0.7566
  199MOL0     H26809   8.187   9.380  11.290 -1.0767  1.7469 -0.6590
  199MOL0     H26810   8.233   9.456  11.512  2.3761 -2.2768  2.0777
  199MOL0     H26811   8.070   9.397  11.572 -2.7143  0.7464 -2.2056
  199MOL0     H26812   8.297   9.237  11.479 -1.4725  2.3976 -0.9997
  199MOL0     H26813   8.158   9.155  11.556  2.5816 -3.0361 -1.3344
  199MOL0     H26814   8.245   9.337  11.752  0.9876 -1.2847  1.5039
  199MOL0     H26815   8.258   9.166  11.753 -0.5385  0.6123  1.0894
  199MOL0     H26816   8.527   9.086  11.708  0.1928 -0.4342  0.4544
  199MOL0     H26817   8.768   9.189  11.857  0.4316  1.0971  0.7914
  199MOL0     H26818   8.797   9.125  11.689  0.7656  0.0992  0.2498
  199MOL0     H26819   8.889   9.359  11.628 -0.1021 -1.8920  0.4569
  199MOL0     H26820   8.905   9.400  11.798  3.0649  0.3915 -0.4325
  199MOL0     H26821   9.009   9.123  11.716 -3.1946  0.8207 -0.6351
  199MOL0     H26822   9.067   9.228  11.837  0.7871 -0.6901  0.7435
  199MOL0     H26823   9.159   9.385  11.692 -3.1529  1.5656 -0.3183
  199MOL0     H26824   9.096   9.303  11.538 -1.5712  0.0947  0.6378
  199MOL0     H26825   9.443   9.051  11.601 -2.3310  0.6377 -0.2108
  199MOL0     H26826   9.658   9.101  11.530  2.4508  1.4986 -1.3467
  199MOL0     H26827   9.902   9.628  11.558 -1.1165 -2.4825  0.3713
  199MOL0     H26828  10.151   9.675  11.557 -1.9569  1.9971 -0.9022
  199MOL0     H26829  10.355   9.759  11.460  1.0468  0.9971  2.9138
  199MOL0     H26830  10.393   9.626  11.563  2.1825  0.5685  0.7345
  199MOL0     H26831  10.585   9.560  11.469  1.8137 -1.1249 -3.0299
  199MOL0     H26832  10.565   9.643  11.311 -2.0368 -2.1004  0.0630
  199MOL0     H26833  10.593   9.873  11.450  0.5455  1.2729  1.7880
  199MOL0     H26834  10.637   9.774  11.580  0.4962 -0.3265  0.0639
  199MOL0     H26835  10.785   9.737  11.310 -2.6030 -1.7360  0.3448
  199MOL0     H26836  10.835   9.690  11.472  0.3122 -2.3931 -3.0427
  199MOL0     H26837  10.860   9.920  11.554  1.5588  1.4626 -0.6119
  199MOL0     H26838  10.810   9.978  11.395 -0.0220  2.1461  2.9051
  199MOL0     H26839  11.016   9.772  11.441  0.0505 -0.1685 -0.4888
  199MOL0     H26840  10.984   9.851  11.280 -2.3881 -3.5629  1.4299
  199MOL0     H26841  11.187   9.964  11.361 -1.1068 -0.6444 -0.5330
  199MOL0     H26842  11.147   9.925  11.524 -1.9112 -2.1151  0.6685
  199MOL0     H26843  11.020  10.143  11.360  1.1649 -2.6656 -1.0174
  199MOL0     H26844  11.023  10.136  11.543  1.8063 -1.5592  1.7588
  199MOL0     H26845  10.187   9.415  11.213 -1.5529 -0.8779 -0.8174
  199MOL0     H26846   9.966   9.378  11.222  0.2499 -0.1331 -0.0791
  199MOL0     H26847   9.519   9.482  11.395 -1.9476  0.3804 -1.1906
  199MOL0     H26848   9.306   9.441  11.521  0.5080  0.5454 -3.0548
  199MOL0     H26849   8.004   9.765  10.754  0.3472 -0.1585 -0.3975
  199MOL0     H26850   7.911   9.808  10.512  0.8025  1.6133  0.8744
  199MOL0     H26851   7.727  10.117  10.194  0.7373 -2.6270  0.9679
  199MOL0     H26852   7.601  10.152   9.975 -2.0943  0.0953 -1.2338
  199MOL0     H26853   7.200   9.998   9.954  0.2173 -1.1390  0.4526
  199MOL0     H26854   7.254   9.872   9.837  1.9179  0.3401 -2.3168
  199MOL0     H26855   7.094  10.044   9.767 -0.4307  2.0285  2.6264
  199MOL0     H26856   7.241  10.024   9.660  0.4253  1.1627 -0.5081
  199MOL0     H26857   7.335  10.209   9.791 -0.4423 -1.0877 -0.5929
  199MOL0     H26858   7.184  10.242   9.871  2.5470 -1.8634  1.9092
  199MOL0     H26859   7.065  10.262   9.629  0.5401 -0.7977 -3.3468
  199MOL0     H26860   7.170  10.397   9.677 -0.9924 -0.3374 -1.3351
  199MOL0     H26861   7.410  10.234   9.376 -1.5015 -3.0295 -1.2005
  199MOL0     H26862   7.321   9.858  10.083  0.2416 -0.6583  0.0403
  199MOL0     H26863   7.423   9.851  10.450  1.3703  1.0510 -1.1038
  199MOL0     H26864   7.306   9.788  10.330  0.0328 -0.3831 -0.6537
  199MOL0     H26865   7.468   9.715  10.343  1.9045  0.4415  3.2674
  200MOL0     O26866   9.464   1.106   2.282 -0.2586  0.0032  0.0898
  200MOL0     C26867   9.397   1.199   2.236 -0.3972 -0.8200  0.1305
  200MOL0     O26868   9.448   1.326   2.210  0.1922  0.0728  0.1123
  200MOL0     C26869   9.582   1.358   2.213 -0.3566 -0.6244  0.0145
  200MOL0     C26870   9.620   1.495   2.213 -0.4038 -0.7546 -0.6597
  200MOL0     C26871   9.759   1.537   2.220  0.6103  0.2323  0.1123
  200MOL0     C26872   9.856   1.440   2.206  0.1141  0.1696 -0.3020
  200MOL0     O26873   9.986   1.480   2.197  0.1641  0.5615  0.0773
  200MOL0     C26874  10.057   1.455   2.073  0.2353 -0.0423  0.3307
  200MOL0     C26875  10.051   1.573   1.974  0.6606 -0.2826 -0.7346
  200MOL0     C26876  10.123   1.545   1.847 -0.3059 -0.2784  0.0236
  200MOL0     C26877  10.107   1.651   1.742  0.7248 -0.4898 -0.7135
  200MOL0     C26878  10.183   1.622   1.614 -0.4920 -0.2455 -0.0977
  200MOL0     C26879  10.332   1.633   1.622  0.3377 -1.0741 -0.6331
  200MOL0     C26880  10.395   1.621   1.484 -0.6419 -0.1888  1.0890
  200MOL0     C26881  10.405   1.758   1.406 -0.5524 -0.0432 -0.8006
  200MOL0     N26882  10.539   1.814   1.438 -0.2232 -1.1366 -0.6448
  200MOL0     C26883  10.563   1.922   1.519 -0.4618  0.1318  0.0282
  200MOL0     C26884  10.700   1.946   1.505 -0.1888 -0.3470 -0.4844
  200MOL0     C26885  10.768   2.048   1.589 -0.1870 -0.4672  0.5367
  200MOL0     C26886  10.904   2.006   1.662  1.0124 -0.3606 -0.5011
  200MOL0     C26887  11.021   2.012   1.558 -0.1838  0.4772  1.0726
  200MOL0     C26888  11.147   1.957   1.628 -0.2288 -0.3615  0.8228
  200MOL0     O26889  11.236   1.907   1.525 -0.3965  0.2590  0.1404
  200MOL0     C26890  11.372   1.905   1.547  0.4222 -0.5274 -0.8814
  200MOL0     C26891  11.457   1.894   1.432  0.4938 -0.0027  0.1191
  200MOL0     C26892  11.600   1.873   1.440  0.3115 -0.2689 -0.5079
  200MOL0     C26893  11.660   1.867   1.572  0.4068  0.5331 -0.6844
  200MOL0     C26894  11.805   1.843   1.592  0.8929 -0.9805  0.0584
  200MOL0     O26895  11.852   1.828   1.716 -0.1151  0.2310 -0.2481
  200MOL0     C26896  11.980   1.793   1.748  0.3164 -0.2222 -0.4962
  200MOL0     C26897  12.045   1.696   1.678 -1.0618  0.0744  0.2177
  200MOL0     C26898  12.173   1.645   1.714  0.3160 -0.1545 -0.0864
  200MOL0     C26899  12.234   1.691   1.829  0.0848 -0.2012 -0.0242
  200MOL0     O26900  12.365   1.641   1.858  0.6350  0.1313  0.7379
  200MOL0     C26901  12.413   1.664   1.989  0.3668  0.5733  0.2083
  200MOL0     C26902  12.562   1.627   1.991 -0.5663 -0.3746 -1.3125
  200MOL0     C26903  12.579   1.476   1.996  0.4671  0.3758  0.2004
  200MOL0     C26904  12.731   1.438   2.025 -0.1962 -0.6985 -0.3917
  200MOL0     C26905  12.748   1.296   1.973 -0.5965 -0.0258  0.7374
  200MOL0     C26906  12.893   1.245   1.999 -0.2676  0.3164  0.5283
  200MOL0     C26907  12.906   1.180   2.143 -0.3316 -0.3417  0.0157
  200MOL0     C26908  13.035   1.118   2.165 -0.4038  0.4898 -0.3177
  200MOL0    Cl26909  13.088   1.004   2.040 -0.2167  0.2674 -0.1333
  200MOL0     C26910  12.160   1.780   1.910 -0.4252 -0.3913  0.3079
  200MOL0     C26911  12.032   1.826   1.875  0.1938  0.3728  0.6117
  200MOL0     O26912  11.872   1.850   1.490 -0.6314  0.0919  0.1084
  200MOL0     C26913  11.574   1.885   1.685  0.5069  0.4697 -0.7363
  200MOL0     C26914  11.430   1.907   1.677 -0.2419 -0.0709 -0.7258
  200MOL0     N26915  10.761   1.847   1.422  1.1107 -0.5420  0.4425
  200MOL0     N26916  10.656   1.783   1.377  0.3289 -0.2482  0.1591
  200MOL0     C26917   9.822   1.306   2.205  0.2404  0.5862 -0.6073
  200MOL0     C26918   9.690   1.262   2.213 -0.5234 -0.0875  0.1159
  200MOL0     C26919   9.251   1.182   2.220  0.2977  0.1674 -0.0458
  200MOL0     C26920   9.172   1.289   2.247 -0.1981  0.2457 -0.6098
  200MOL0     C26921   9.032   1.280   2.226 -0.0828 -1.0780 -0.1353
  200MOL0     C26922   8.974   1.162   2.187  0.0928  0.6851  0.1390
  200MOL0     O26923   8.843   1.159   2.162  0.9760 -0.2483 -0.1545
  200MOL0     C26924   8.782   1.070   2.065  0.0333  0.5268  0.3444
  200MOL0     C26925   8.637   1.087   2.084 -0.1367  0.2547 -0.7432
  200MOL0     C26926   8.607   1.043   2.227 -0.0210  1.4172 -0.9591
  200MOL0     C26927   8.458   1.047   2.250  0.1812  0.1401  0.6537
  200MOL0     C26928   8.411   0.931   2.178  0.1317  0.2438 -0.3608
  200MOL0     C26929   8.373   0.832   2.114  0.5988  0.1708 -0.1953
  200MOL0     C26930   9.046   1.044   2.183 -0.3069 -0.1893  0.7913
  200MOL0     C26931   9.191   1.054   2.200  0.3203  0.1898  0.0998
  200MOL0     C26932   9.266   0.926   2.182 -0.6653 -0.2595 -0.2320
  200MOL0     H26933   9.540   1.569   2.209 -1.2152 -1.5037  0.8665
  200MOL0     H26934   9.793   1.639   2.230  3.7758 -0.8518  2.0683
  200MOL0     H26935  10.161   1.431   2.096  0.0557 -0.6883  0.4882
  200MOL0     H26936  10.022   1.361   2.029  1.0244 -0.3902  0.4335
  200MOL0     H26937  10.098   1.659   2.022 -0.3454  0.1746 -0.5478
  200MOL0     H26938   9.945   1.596   1.965  0.1346 -0.5081  3.2167
  200MOL0     H26939  10.095   1.445   1.811  0.7343  0.4294 -3.0971
  200MOL0     H26940  10.228   1.552   1.877 -1.2478  2.2618  3.3437
  200MOL0     H26941  10.001   1.664   1.716 -0.0278 -3.5462  0.3978
  200MOL0     H26942  10.141   1.749   1.776 -1.1095  0.1988 -0.7237
  200MOL0     H26943  10.158   1.522   1.576  1.6886 -0.3258 -1.4816
  200MOL0     H26944  10.150   1.685   1.530  0.3880 -2.1727 -1.9793
  200MOL0     H26945  10.357   1.725   1.675 -3.0738 -0.7818  0.7361
  200MOL0     H26946  10.371   1.556   1.689  2.3066  0.5996  0.2749
  200MOL0     H26947  10.351   1.537   1.428 -1.7820  1.3924 -0.4988
  200MOL0     H26948  10.500   1.591   1.495  0.0150  1.0196 -1.1703
  200MOL0     H26949  10.402   1.740   1.298  0.0386 -0.2870 -0.7768
  200MOL0     H26950  10.324   1.830   1.424  0.7789  1.1176  0.8559
  200MOL0     H26951  10.495   1.980   1.581 -2.6210 -0.8650 -1.2603
  200MOL0     H26952  10.782   2.128   1.515 -2.0307  0.5343  1.1953
  200MOL0     H26953  10.698   2.086   1.665 -0.4839  2.1339 -0.9072
  200MOL0     H26954  10.923   2.087   1.734  1.9892  1.7651 -2.9741
  200MOL0     H26955  10.900   1.914   1.721  0.7634  1.1213  1.9146
  200MOL0     H26956  11.031   2.112   1.516 -0.3826 -0.4038 -1.1942
  200MOL0     H26957  11.000   1.946   1.474  0.6400  1.1767  0.2945
  200MOL0     H26958  11.117   1.879   1.698 -1.0503  0.3509  1.2778
  200MOL0     H26959  11.198   2.033   1.687  2.0333 -0.0650 -1.3214
  200MOL0     H26960  11.412   1.905   1.334  0.6331 -0.6839 -0.0278
  200MOL0     H26961  11.657   1.871   1.347  1.7710  1.1073  0.3039
  200MOL0     H26962  12.017   1.662   1.579  0.1113 -0.2615 -0.0196
  200MOL0     H26963  12.221   1.576   1.644 -1.3764 -1.7286  0.2221
  200MOL0     H26964  12.400   1.773   1.997  0.3666  0.6705 -0.9330
  200MOL0     H26965  12.349   1.631   2.072  0.5344  1.9465  0.9216
  200MOL0     H26966  12.612   1.671   1.905 -1.2737 -0.0134 -1.5514
  200MOL0     H26967  12.602   1.673   2.081 -0.5393 -3.4160  0.3671
  200MOL0     H26968  12.517   1.423   2.069 -0.2665  1.9443  0.7443
  200MOL0     H26969  12.547   1.435   1.900 -2.4687 -1.8155  1.9561
  200MOL0     H26970  12.743   1.437   2.133 -0.0800 -0.5841 -0.4037
  200MOL0     H26971  12.797   1.514   1.981  1.2307 -2.2544 -1.0450
  200MOL0     H26972  12.734   1.282   1.865  0.4398  1.7282  0.3285
  200MOL0     H26973  12.667   1.238   2.016 -1.0698 -1.6685 -2.1140
  200MOL0     H26974  12.906   1.172   1.919 -0.3203  0.0861  0.7292
  200MOL0     H26975  12.969   1.321   1.979 -1.3410  1.3775  0.2917
  200MOL0     H26976  12.828   1.103   2.145  0.2002 -0.9426 -1.2062
  200MOL0     H26977  12.886   1.255   2.220  3.1151 -1.0242  1.7878
  200MOL0     H26978  13.114   1.190   2.191 -0.5427  0.3425  0.5589
  200MOL0     H26979  13.022   1.050   2.250 -0.7692  0.4382 -0.4136
  200MOL0     H26980  12.193   1.822   2.005 -3.1775  1.6751  0.4766
  200MOL0     H26981  11.994   1.898   1.947 -1.8201  0.5881 -0.5783
  200MOL0     H26982  11.624   1.868   1.780  0.8331 -3.6820 -1.4623
  200MOL0     H26983  11.372   1.898   1.768  0.0944  1.5655 -0.3211
  200MOL0     H26984   9.889   1.224   2.181 -1.4301 -0.8215 -0.7100
  200MOL0     H26985   9.678   1.154   2.224 -0.2440 -0.1330 -0.0373
  200MOL0     H26986   9.208   1.385   2.281 -1.0656  1.3828 -2.7409
  200MOL0     H26987   8.969   1.366   2.243  1.4538 -0.0086  0.3323
  200MOL0     H26988   8.807   0.965   2.081  4.8339  1.0704 -1.7551
  200MOL0     H26989   8.809   1.077   1.959 -0.6582 -2.2829 -0.0938
  200MOL0     H26990   8.583   1.031   2.007  0.4139  0.8810 -1.5996
  200MOL0     H26991   8.611   1.192   2.072 -2.6568 -0.2868 -0.5455
  200MOL0     H26992   8.658   1.106   2.300 -0.8408  2.1080 -0.9591
  200MOL0     H26993   8.641   0.942   2.251  1.5105  2.4484  1.6034
  200MOL0     H26994   8.429   1.050   2.355 -2.1910 -1.1196  0.1060
  200MOL0     H26995   8.406   1.134   2.208  2.2358  1.6299  1.0593
  200MOL0     H26996   8.336   0.746   2.062 -2.7169  0.5374  1.2964
  200MOL0     H26997   9.003   0.951   2.148 -0.3029  0.8466 -2.2580
  200MOL0     H26998   9.363   0.945   2.135  0.3491  0.9344  2.1430
  200MOL0     H26999   9.288   0.881   2.279  0.7882  0.2187 -0.3078
  200MOL0     H27000   9.223   0.846   2.121 -0.8789  0.9676 -1.7685
  201MOL0     O27001   5.462   0.388   3.129  0.2204  0.3324 -0.5305
  201MOL0     C27002   5.392   0.489   3.146  0.5389  0.8446 -0.7694
  201MOL0     O27003   5.431   0.604   3.200 -0.2476 -0.1878  0.0506
  201MOL0     C27004   5.573   0.629   3.199  0.8760  0.2620  0.2412
  201MOL0     C27005   5.636   0.676   3.313 -0.1184 -0.7909 -0.8349
  201MOL0     C27006   5.771   0.702   3.322 -0.6123 -0.2505  0.0810
  201MOL0     C27007   5.853   0.680   3.208  0.9463 -0.5288  0.4635
  201MOL0     O27008   5.990   0.710   3.198  0.1910  0.3155  0.1846
  201MOL0     C27009   6.063   0.717   3.319 -1.0583 -0.3737  1.9825
  201MOL0     C27010   6.210   0.692   3.278  0.3976  0.1935  0.0792
  201MOL0     C27011   6.289   0.685   3.403 -0.3550 -0.1354  0.5051
  201MOL0     C27012   6.441   0.662   3.380  0.2252  0.2048  0.2755
  201MOL0     C27013   6.513   0.603   3.504 -0.9293  0.7297  0.5926
  201MOL0     C27014   6.483   0.686   3.636 -0.2535  0.0157  0.8825
  201MOL0     C27015   6.573   0.637   3.755 -0.5397 -0.5941 -0.4385
  201MOL0     C27016   6.499   0.657   3.891 -1.0389 -0.3822  0.7851
  201MOL0     N27017   6.589   0.621   4.005  0.3307 -1.2532  0.1854
  201MOL0     C27018   6.622   0.491   4.038  0.3339  0.1309 -0.3691
  201MOL0     C27019   6.652   0.507   4.170 -0.5947 -0.5146 -0.2484
  201MOL0     C27020   6.706   0.397   4.253 -0.4046  0.0515  0.5552
  201MOL0     C27021   6.842   0.434   4.318  0.3291 -0.0334  0.0341
  201MOL0     C27022   6.954   0.485   4.218  0.2013 -0.0311  0.3590
  201MOL0     C27023   7.099   0.469   4.265  0.8655 -0.3641 -0.6811
  201MOL0     O27024   7.130   0.332   4.283 -0.2398  0.1557  0.7988
  201MOL0     C27025   7.270   0.311   4.272  0.1176 -0.5411  0.5753
  201MOL0     C27026   7.373   0.409   4.295 -0.8415 -0.5001 -1.1252
  201MOL0     C27027   7.507   0.369   4.319  0.3074 -0.0726 -0.6467
  201MOL0     C27028   7.541   0.229   4.312 -0.0091 -0.1575 -0.2850
  201MOL0     C27029   7.674   0.172   4.328 -0.0588 -0.9260  0.1528
  201MOL0     O27030   7.685   0.041   4.324 -0.5640  0.1867  0.1955
  201MOL0     C27031   7.774  -0.027   4.405  0.0578 -0.6172 -0.0865
  201MOL0     C27032   7.908  -0.016   4.388 -0.0127  0.4548 -0.8743
  201MOL0     C27033   7.997  -0.100   4.453  0.4863  0.4752  0.7791
  201MOL0     C27034   7.957  -0.198   4.548 -0.3443 -0.6582 -0.3593
  201MOL0     O27035   8.048  -0.274   4.618  0.6029  0.4309  0.0491
  201MOL0     C27036   8.012  -0.418   4.624  0.4061 -1.0538  0.8984
  201MOL0     C27037   8.135  -0.493   4.657 -0.3866 -0.8804 -0.2078
  201MOL0     C27038   8.244  -0.461   4.558 -0.4291 -0.2748  0.2265
  201MOL0     C27039   8.344  -0.576   4.573 -0.2262  0.0322  0.8553
  201MOL0     C27040   8.442  -0.545   4.458  1.3403 -0.0841  0.3375
  201MOL0     C27041   8.570  -0.633   4.485 -0.4198 -0.0463  0.0845
  201MOL0     C27042   8.678  -0.617   4.378  0.3754  0.8090  0.1206
  201MOL0     C27043   8.625  -0.645   4.236 -0.3858 -1.3806  0.1104
  201MOL0    Cl27044   8.522  -0.791   4.221  0.1309  0.1172 -0.1036
  201MOL0     C27045   7.823  -0.211   4.554  0.6370  0.3137  1.3577
  201MOL0     C27046   7.731  -0.134   4.481 -0.1467 -0.6533  0.0324
  201MOL0     O27047   7.755   0.246   4.378  0.2705  0.0091 -0.0400
  201MOL0     C27048   7.436   0.141   4.287 -0.2259 -0.1728 -0.2334
  201MOL0     C27049   7.306   0.179   4.274  0.1883  0.4058 -0.5657
  201MOL0     N27050   6.639   0.644   4.211 -0.9659  0.1794  0.3135
  201MOL0     N27051   6.605   0.711   4.110  0.4486  0.3927  0.2495
  201MOL0     C27052   5.788   0.630   3.095  0.2401 -1.1063 -0.1026
  201MOL0     C27053   5.649   0.601   3.088 -0.4583 -0.0071  0.1271
  201MOL0     C27054   5.246   0.465   3.121 -0.9823  0.8564 -0.5769
  201MOL0     C27055   5.165   0.572   3.163 -0.9364  0.3444  0.1211
  201MOL0     C27056   5.035   0.577   3.131  0.2290 -0.1258  0.2993
  201MOL0     C27057   4.967   0.475   3.072 -0.1944  0.3804  0.1934
  201MOL0     O27058   4.833   0.478   3.044 -0.0486 -0.6118 -0.1712
  201MOL0     C27059   4.772   0.594   2.992 -0.5079 -0.2252 -0.7629
  201MOL0     C27060   4.644   0.551   2.911 -0.2176  0.0484 -0.0148
  201MOL0     C27061   4.552   0.472   2.999  0.0468 -0.2185 -0.3656
  201MOL0     C27062   4.422   0.457   2.926  0.7018  0.1530  0.8396
  201MOL0     C27063   4.397   0.350   2.839  0.2587  1.1719  0.1796
  201MOL0     C27064   4.388   0.257   2.753  0.5801 -0.3072  0.3773
  201MOL0     C27065   5.037   0.355   3.046  0.3016  0.3645 -0.3544
  201MOL0     C27066   5.172   0.343   3.091  0.3124  0.1129 -0.6240
  201MOL0     C27067   5.240   0.215   3.087  0.7210  0.8266 -0.0457
  201MOL0     H27068   5.576   0.700   3.401 -0.2188  3.0540 -1.7704
  201MOL0     H27069   5.818   0.733   3.414 -1.1254 -1.6481  0.8364
  201MOL0     H27070   6.065   0.817   3.362  1.0492  0.5878 -0.1574
  201MOL0     H27071   6.023   0.646   3.393 -1.3221  0.5013  2.7050
  201MOL0     H27072   6.251   0.770   3.213  3.0290  0.7128  2.2057
  201MOL0     H27073   6.202   0.601   3.217 -0.8552 -0.6073  1.3817
  201MOL0     H27074   6.244   0.600   3.456 -1.2688  0.9668  1.5577
  201MOL0     H27075   6.276   0.777   3.461 -0.2817 -0.6875  1.4308
  201MOL0     H27076   6.456   0.607   3.287 -1.5494  0.1362 -0.0021
  201MOL0     H27077   6.477   0.764   3.367 -1.1760  0.6169 -0.5435
  201MOL0     H27078   6.486   0.498   3.512  3.8551 -0.8572 -0.5351
  201MOL0     H27079   6.620   0.591   3.480 -1.4370 -2.3809 -0.5197
  201MOL0     H27080   6.519   0.787   3.618 -0.7197  0.5495  2.7837
  201MOL0     H27081   6.378   0.687   3.668 -0.3451  0.6215  0.5829
  201MOL0     H27082   6.672   0.681   3.767 -0.7238  0.2465 -1.8364
  201MOL0     H27083   6.602   0.532   3.745  2.2621  0.2494 -2.4604
  201MOL0     H27084   6.472   0.763   3.890 -0.5738 -0.1976 -2.1209
  201MOL0     H27085   6.408   0.596   3.891 -1.0921 -0.3585 -0.6985
  201MOL0     H27086   6.625   0.403   3.976  1.6898  2.8738 -4.6560
  201MOL0     H27087   6.637   0.367   4.333  0.4534  0.8740  1.6409
  201MOL0     H27088   6.729   0.311   4.190 -1.7052  1.9776 -2.8080
  201MOL0     H27089   6.816   0.519   4.382 -2.3257  1.5704 -2.8948
  201MOL0     H27090   6.884   0.352   4.377  2.6761  1.3350  0.4204
  201MOL0     H27091   6.950   0.594   4.208  2.6426  0.0242 -0.8516
  201MOL0     H27092   6.952   0.430   4.123  2.5162 -1.8826  1.2913
  201MOL0     H27093   7.108   0.512   4.366  0.7639 -2.8768  0.4791
  201MOL0     H27094   7.153   0.530   4.192 -1.7311  1.0625 -1.5343
  201MOL0     H27095   7.352   0.515   4.296  2.5020  0.2708  1.0517
  201MOL0     H27096   7.585   0.444   4.333  1.6141 -1.6746  1.1012
  201MOL0     H27097   7.939   0.053   4.311 -1.4316  1.1243 -0.8889
  201MOL0     H27098   8.101  -0.087   4.425  0.0008  1.1007 -0.8268
  201MOL0     H27099   7.929  -0.439   4.693 -0.7338 -1.2456 -0.4869
  201MOL0     H27100   7.974  -0.442   4.525 -0.7365  0.6645  0.8812
  201MOL0     H27101   8.176  -0.470   4.755 -3.5883  0.7874  0.8857
  201MOL0     H27102   8.102  -0.597   4.650 -0.6531 -0.7681 -0.7119
  201MOL0     H27103   8.199  -0.440   4.461 -0.5362  1.0773  0.5493
  201MOL0     H27104   8.282  -0.360   4.575 -2.4413  1.6046 -4.6632
  201MOL0     H27105   8.301  -0.676   4.559  0.1538  0.0551 -0.6121
  201MOL0     H27106   8.394  -0.570   4.670  1.4532  2.0231 -0.0533
  201MOL0     H27107   8.465  -0.439   4.448 -2.5813  0.8208 -0.9223
  201MOL0     H27108   8.387  -0.575   4.368  1.3363  1.5126 -0.2083
  201MOL0     H27109   8.621  -0.595   4.574 -3.0538 -0.7486  2.0194
  201MOL0     H27110   8.531  -0.732   4.511 -2.3709  1.6248  4.5724
  201MOL0     H27111   8.772  -0.670   4.391 -0.3937 -0.6263  0.0293
  201MOL0     H27112   8.692  -0.511   4.398 -1.3678  0.8179  1.5890
  201MOL0     H27113   8.554  -0.568   4.202 -1.0298 -2.0048  0.0232
  201MOL0     H27114   8.709  -0.648   4.166 -0.8604  0.9443 -0.6501
  201MOL0     H27115   7.780  -0.283   4.624 -0.1177 -2.5862 -1.8076
  201MOL0     H27116   7.625  -0.152   4.495 -0.4900  0.8031 -0.5960
  201MOL0     H27117   7.454   0.034   4.287  2.3984  0.2051 -0.4832
  201MOL0     H27118   7.222   0.110   4.273 -0.0608  0.7061 -0.5161
  201MOL0     H27119   5.847   0.609   3.007  1.6089  1.4069  0.1263
  201MOL0     H27120   5.611   0.567   2.992  1.0816  0.9674 -0.8778
  201MOL0     H27121   5.201   0.662   3.211  0.6218  0.7354 -1.6451
  201MOL0     H27122   4.985   0.672   3.147  0.2185 -0.0598 -0.1351
  201MOL0     H27123   4.845   0.647   2.930  1.7631 -1.3704  0.7852
  201MOL0     H27124   4.748   0.670   3.068  0.3326  1.3951 -2.0679
  201MOL0     H27125   4.684   0.484   2.835 -1.1150  0.7149 -1.1120
  201MOL0     H27126   4.592   0.639   2.871  0.4131  0.5080  0.1671
  201MOL0     H27127   4.538   0.528   3.092 -0.6271 -1.2082  0.1427
  201MOL0     H27128   4.597   0.375   3.020 -0.5725 -0.1183  1.6640
  201MOL0     H27129   4.341   0.455   3.000 -0.2874  1.5340 -0.1459
  201MOL0     H27130   4.414   0.547   2.865  3.0125 -0.6004 -0.6964
  201MOL0     H27131   4.379   0.194   2.667 -4.0088  1.5661 -0.7865
  201MOL0     H27132   4.981   0.270   3.008 -1.6788  1.1805  0.5825
  201MOL0     H27133   5.290   0.213   3.184 -0.2238 -0.9644  0.4432
  201MOL0     H27134   5.171   0.130   3.093  0.6585  0.8284 -0.6479
  201MOL0     H27135   5.303   0.193   3.000 -0.9828 -3.0240 -0.5255
  202MOL0     O27136   7.890  10.543   4.730 -0.1769  0.0721 -0.2427
  202MOL0     C27137   7.805  10.490   4.803 -0.5598  0.0914 -0.1875
  202MOL0     O27138   7.833  10.391   4.904 -0.4423  0.8331  0.1207
  202MOL0     C27139   7.955  10.326   4.919 -0.1973 -0.1500 -0.3595
  202MOL0     C27140   8.036  10.287   4.811  0.5196 -0.7605  0.0894
  202MOL0     C27141   8.158  10.220   4.831 -0.5622  0.1965 -0.0052
  202MOL0     C27142   8.205  10.206   4.957 -0.7337 -0.0318 -0.0626
  202MOL0     O27143   8.329  10.152   4.975 -0.1892 -0.4799 -0.1476
  202MOL0     C27144   8.412  10.200   5.081 -0.6313 -0.9251 -0.3936
  202MOL0     C27145   8.562  10.179   5.045  0.5731 -0.1934  0.0252
  202MOL0     C27146   8.645  10.245   5.161 -0.1021  0.0545  0.2390
  202MOL0     C27147   8.796  10.222   5.117 -0.7110 -0.3304  0.4485
  202MOL0     C27148   8.885  10.272   5.231  0.1337 -0.1565  0.1967
  202MOL0     C27149   9.030  10.274   5.185 -0.0570 -0.1264  0.1393
  202MOL0     C27150   9.095  10.130   5.159  0.8953  0.4779 -0.8316
  202MOL0     C27151   9.209  10.140   5.069  0.3340 -0.7306  0.5599
  202MOL0     N27152   9.274  10.009   5.064 -0.0098  0.4812 -0.1280
  202MOL0     C27153   9.367   9.977   5.154  0.7031  0.5431  0.6031
  202MOL0     C27154   9.442   9.881   5.096 -0.1263  0.0910 -0.2320
  202MOL0     C27155   9.563   9.808   5.157  0.8252  0.0246 -0.2753
  202MOL0     C27156   9.663   9.896   5.225 -1.0502 -0.7065 -0.6754
  202MOL0     C27157   9.779   9.802   5.280 -0.0227 -0.0082 -1.0629
  202MOL0     C27158   9.887   9.885   5.357  1.0559  0.2741  0.1423
  202MOL0     O27159   9.983   9.790   5.394 -0.7652 -0.3047 -0.3039
  202MOL0     C27160  10.094   9.841   5.451 -1.0630 -0.5217  0.5254
  202MOL0     C27161  10.128   9.977   5.475  0.8548  0.2706 -0.1308
  202MOL0     C27162  10.249  10.024   5.521 -0.4239  0.2558 -0.8313
  202MOL0     C27163  10.359   9.938   5.545 -0.4638 -0.1016 -0.2015
  202MOL0     C27164  10.491   9.992   5.586  0.9386  0.9220 -0.5795
  202MOL0     O27165  10.585   9.896   5.622  0.4425  0.3322  0.2701
  202MOL0     C27166  10.706   9.927   5.673 -0.7622 -0.2737  0.1963
  202MOL0     C27167  10.743  10.040   5.743  0.2869 -0.1369  0.3883
  202MOL0     C27168  10.874  10.073   5.766 -0.3342  0.0884 -0.2982
  202MOL0     C27169  10.975   9.974   5.771 -0.0832  0.0384  0.1790
  202MOL0     O27170  11.106   9.976   5.807 -0.4835  0.1332  0.8579
  202MOL0     C27171  11.135  10.086   5.895  0.5031 -1.0016 -0.6486
  202MOL0     C27172  11.285  10.089   5.920  0.1002 -0.2508  0.0498
  202MOL0     C27173  11.354  10.157   5.804  0.4577 -0.1765  0.1016
  202MOL0     C27174  11.504  10.182   5.832  1.7912  0.2195 -0.3251
  202MOL0     C27175  11.562  10.257   5.706  0.1539  1.2893 -0.7131
  202MOL0     C27176  11.697  10.307   5.752 -0.5526 -0.7331  0.1258
  202MOL0     C27177  11.782  10.363   5.641  0.2953  0.2199  0.8641
  202MOL0     C27178  11.911  10.415   5.692 -1.4820  0.1610 -0.0549
  202MOL0    Cl27179  12.053  10.305   5.750  0.2807 -0.3208  0.1068
  202MOL0     C27180  10.935   9.854   5.713 -0.6558  0.5151  0.2725
  202MOL0     C27181  10.807   9.826   5.662  0.4708 -0.7146 -0.6525
  202MOL0     O27182  10.499  10.115   5.587 -0.7527  0.7551 -0.3907
  202MOL0     C27183  10.326   9.802   5.525  0.3601  0.1488 -0.0465
  202MOL0     C27184  10.201   9.753   5.477  0.2026 -0.2097  0.1682
  202MOL0     N27185   9.391   9.856   4.973  0.2581 -0.4387  0.5419
  202MOL0     N27186   9.284   9.927   4.955 -0.2963 -0.5638  0.6264
  202MOL0     C27187   8.121  10.230   5.066 -0.4431 -0.3770  0.4519
  202MOL0     C27188   7.986  10.283   5.049  0.5913 -1.0956 -0.6272
  202MOL0     C27189   7.663  10.532   4.791 -0.0538 -0.0739  0.2263
  202MOL0     C27190   7.579  10.502   4.900 -0.1272  0.2398  0.0016
  202MOL0     C27191   7.449  10.539   4.900 -0.4637  0.0423 -0.4812
  202MOL0     C27192   7.387  10.600   4.793 -0.2611  0.1079  0.8999
  202MOL0     O27193   7.256  10.631   4.782  0.3302 -1.0011 -0.0400
  202MOL0     C27194   7.156  10.568   4.865  1.1515 -0.6595  0.9981
  202MOL0     C27195   7.022  10.621   4.817 -0.3329  0.0011  0.4209
  202MOL0     C27196   7.004  10.600   4.666 -0.2915  0.6284  0.6992
  202MOL0     C27197   6.875  10.645   4.615 -0.6314 -0.1207  0.2208
  202MOL0     C27198   6.753  10.601   4.686 -0.1307  0.0637  0.3871
  202MOL0     C27199   6.640  10.594   4.732 -0.5115 -0.3558  0.1709
  202MOL0     C27200   7.467  10.627   4.686 -0.8163 -1.4677  0.5477
  202MOL0     C27201   7.604  10.599   4.683 -0.2182 -0.8278  0.2868
  202MOL0     C27202   7.676  10.645   4.560 -0.4651 -0.4271 -0.7377
  202MOL0     H27203   7.992  10.319   4.717 -0.6803 -0.5375  0.7015
  202MOL0     H27204   8.231  10.190   4.757  1.2115 -2.5478  2.6365
  202MOL0     H27205   8.380  10.304   5.090 -0.2761 -0.8951  0.5491
  202MOL0     H27206   8.394  10.142   5.172  2.2492 -1.6144 -0.1576
  202MOL0     H27207   8.578  10.223   4.946  3.1191  0.1314  0.4942
  202MOL0     H27208   8.572  10.071   5.029 -1.5351 -0.1123 -2.7491
  202MOL0     H27209   8.627  10.190   5.253 -2.7983 -0.5696 -0.5609
  202MOL0     H27210   8.622  10.351   5.179 -2.8417 -0.1053 -1.6558
  202MOL0     H27211   8.817  10.117   5.093 -1.8330 -0.3252 -0.6098
  202MOL0     H27212   8.806  10.284   5.028 -0.9552 -1.0835 -0.1047
  202MOL0     H27213   8.850  10.368   5.269 -0.1825 -1.4120  3.4604
  202MOL0     H27214   8.870  10.199   5.312 -1.9034  0.4072  0.3994
  202MOL0     H27215   9.024  10.332   5.093 -0.4171  0.1119  0.3101
  202MOL0     H27216   9.089  10.318   5.266 -0.9036  1.2391  0.0506
  202MOL0     H27217   9.023  10.064   5.110  0.7191  0.2567 -0.2824
  202MOL0     H27218   9.119  10.079   5.253 -1.3209  1.0832  0.1198
  202MOL0     H27219   9.177  10.172   4.970 -0.7887 -1.4828  0.6714
  202MOL0     H27220   9.273  10.223   5.102  0.3200 -0.7237  0.5699
  202MOL0     H27221   9.378  10.022   5.252  1.2396 -0.5859  1.0775
  202MOL0     H27222   9.520   9.732   5.223  1.6306 -1.1451 -1.0639
  202MOL0     H27223   9.615   9.754   5.077  1.3851  1.9543 -1.2592
  202MOL0     H27224   9.705   9.961   5.147  0.8423  0.7921  1.4582
  202MOL0     H27225   9.625   9.957   5.308  2.7481  1.6022 -0.3970
  202MOL0     H27226   9.819   9.741   5.199 -1.0833 -1.3967 -0.5711
  202MOL0     H27227   9.734   9.742   5.360  2.8406 -0.6417  0.1776
  202MOL0     H27228   9.839   9.927   5.446  2.8166  0.6370  0.9503
  202MOL0     H27229   9.925   9.964   5.292 -0.3142 -0.3528 -1.5078
  202MOL0     H27230  10.057  10.059   5.465  0.2802 -0.1592  0.3234
  202MOL0     H27231  10.251  10.130   5.544 -1.3861  0.1654 -0.2888
  202MOL0     H27232  10.668  10.116   5.767  0.8714  0.8214 -0.7022
  202MOL0     H27233  10.905  10.168   5.808 -0.4680  1.3263 -2.8298
  202MOL0     H27234  11.099  10.187   5.872  0.6451 -0.8966 -0.4070
  202MOL0     H27235  11.082  10.064   5.988  0.6935  1.8913  0.2451
  202MOL0     H27236  11.301  10.145   6.013  0.3061 -0.0561 -0.1009
  202MOL0     H27237  11.327   9.990   5.937  0.5377 -0.3689 -1.5010
  202MOL0     H27238  11.346  10.098   5.712 -1.7501  1.1101 -0.6289
  202MOL0     H27239  11.299  10.249   5.780 -0.4037 -0.5005  0.7628
  202MOL0     H27240  11.555  10.086   5.839 -1.9704 -1.9971 -0.9635
  202MOL0     H27241  11.512  10.250   5.918 -0.8038 -0.7527  0.7674
  202MOL0     H27242  11.498  10.342   5.681 -1.0353  0.8847  0.7779
  202MOL0     H27243  11.564  10.183   5.625 -1.9427 -0.7661  0.9617
  202MOL0     H27244  11.678  10.386   5.826 -0.0979 -0.7462  0.2546
  202MOL0     H27245  11.750  10.226   5.803 -1.2106 -0.6934  0.8967
  202MOL0     H27246  11.741  10.455   5.599  0.8768 -0.3773 -1.0875
  202MOL0     H27247  11.801  10.289   5.563  4.8210 -0.5051  2.3012
  202MOL0     H27248  11.956  10.458   5.602 -0.2735  1.4716  1.1034
  202MOL0     H27249  11.898  10.499   5.762  0.0405 -1.3730  2.2209
  202MOL0     H27250  11.010   9.776   5.717  1.7240  2.6914  0.9918
  202MOL0     H27251  10.785   9.732   5.611 -0.0286 -1.2399  0.4883
  202MOL0     H27252  10.397   9.721   5.543 -1.0349 -1.4129 -1.2703
  202MOL0     H27253  10.196   9.648   5.450 -1.3260  0.0363 -0.6407
  202MOL0     H27254   8.165  10.221   5.165 -0.4841  1.2342  0.6377
  202MOL0     H27255   7.926  10.298   5.138  0.3290 -3.0703 -0.4187
  202MOL0     H27256   7.619  10.455   4.989  1.0620  1.1790 -0.0069
  202MOL0     H27257   7.407  10.516   4.997  0.9343 -0.5834 -0.0013
  202MOL0     H27258   7.164  10.583   4.973  0.5814 -2.0721  1.2647
  202MOL0     H27259   7.154  10.460   4.846 -2.2677 -0.8523  1.8534
  202MOL0     H27260   7.012  10.728   4.839  0.7256 -0.0973  1.5063
  202MOL0     H27261   6.951  10.558   4.872 -2.6297 -2.3070 -4.6002
  202MOL0     H27262   7.011  10.492   4.648 -0.0351  0.8601 -0.7154
  202MOL0     H27263   7.075  10.657   4.606 -0.4871 -0.1978 -0.3579
  202MOL0     H27264   6.890  10.753   4.606  2.9030 -0.5978 -1.6100
  202MOL0     H27265   6.869  10.603   4.515  1.3915  0.7070 -0.3069
  202MOL0     H27266   6.541  10.596   4.773 -0.6288  0.0332 -0.1331
  202MOL0     H27267   7.420  10.687   4.609 -0.5993 -1.0302  0.7546
  202MOL0     H27268   7.735  10.560   4.524 -1.9484 -2.0078  0.4454
  202MOL0     H27269   7.611  10.686   4.482 -0.6295  1.6678  0.4222
  202MOL0     H27270   7.745  10.721   4.598 -1.5490 -0.8820  2.3852
  203MOL0     O27271   2.070   1.135   6.577  0.6046  0.6819  0.3349
  203MOL0     C27272   1.986   1.041   6.590 -0.4931 -0.6451  0.2321
  203MOL0     O27273   1.864   1.051   6.655 -0.8193  0.2701  0.0851
  203MOL0     C27274   1.815   1.163   6.719 -0.5246 -0.3374  0.2876
  203MOL0     C27275   1.681   1.154   6.751 -0.0975  0.1307 -0.1373
  203MOL0     C27276   1.618   1.243   6.832  0.1678  0.1250  0.0892
  203MOL0     C27277   1.692   1.353   6.885 -0.2865 -0.3790  0.1390
  203MOL0     O27278   1.643   1.427   6.987  0.3312  0.0188  0.2491
  203MOL0     C27279   1.516   1.490   6.977  0.7210 -0.1415  0.7016
  203MOL0     C27280   1.536   1.633   6.925  0.2878 -0.7019  0.0299
  203MOL0     C27281   1.411   1.705   6.869 -0.7018 -0.0337  0.7842
  203MOL0     C27282   1.436   1.853   6.853  0.0537 -0.3823 -0.3966
  203MOL0     C27283   1.320   1.936   6.810 -0.2096  0.3178  0.2398
  203MOL0     C27284   1.347   2.077   6.791  0.3315 -0.6301  0.0695
  203MOL0     C27285   1.255   2.148   6.689 -0.2919  0.8531 -0.0926
  203MOL0     C27286   1.286   2.295   6.658  0.6805 -0.3797  0.2672
  203MOL0     N27287   1.427   2.307   6.623  0.8512 -0.3995  0.0977
  203MOL0     C27288   1.487   2.238   6.527 -0.3441 -0.4608  0.3400
  203MOL0     C27289   1.612   2.274   6.537 -0.5195 -0.2085  0.3921
  203MOL0     C27290   1.728   2.216   6.450 -0.2593 -0.5881 -0.3567
  203MOL0     C27291   1.722   2.065   6.467  0.5644 -0.0420 -0.6117
  203MOL0     C27292   1.847   1.986   6.444  0.4280 -0.7184  0.3857
  203MOL0     C27293   1.921   2.015   6.312 -0.1317 -0.8944  0.2051
  203MOL0     O27294   2.057   1.971   6.313  0.2998  0.1746 -0.6008
  203MOL0     C27295   2.173   2.040   6.364  0.5573 -0.4733 -0.1021
  203MOL0     C27296   2.177   2.147   6.451  0.5613  0.4020  0.7900
  203MOL0     C27297   2.303   2.189   6.489 -0.0788 -0.0361  0.1025
  203MOL0     C27298   2.430   2.131   6.447  0.1616  1.0870  0.2430
  203MOL0     C27299   2.566   2.170   6.502 -1.0589  0.2082 -0.4647
  203MOL0     O27300   2.677   2.103   6.452 -0.5862 -0.0601 -1.1543
  203MOL0     C27301   2.795   2.166   6.483  0.6946  0.9960 -0.7389
  203MOL0     C27302   2.839   2.303   6.481  0.7252 -0.1662 -0.7350
  203MOL0     C27303   2.972   2.337   6.493  0.0964 -0.3480  0.1623
  203MOL0     C27304   3.072   2.241   6.496  0.3317  0.3212 -0.7968
  203MOL0     O27305   3.198   2.280   6.523  0.3562 -0.2373  0.1594
  203MOL0     C27306   3.299   2.230   6.436 -0.5913  1.4265 -0.6731
  203MOL0     C27307   3.432   2.291   6.482 -0.2944  0.5971  0.4587
  203MOL0     C27308   3.559   2.214   6.453 -0.0406 -0.2076  0.0140
  203MOL0     C27309   3.683   2.280   6.509 -0.2039  0.7819 -0.8532
  203MOL0     C27310   3.812   2.242   6.434  0.7736 -0.2429 -0.4309
  203MOL0     C27311   3.927   2.270   6.534  0.5848 -0.0220 -0.1716
  203MOL0     C27312   4.059   2.237   6.470  0.5464  0.9129 -0.1103
  203MOL0     C27313   4.094   2.083   6.471  0.0937  0.4580  0.1928
  203MOL0    Cl27314   4.265   2.050   6.433 -0.0100  0.0287  0.1615
  203MOL0     C27315   3.031   2.107   6.501 -0.0951 -0.2912 -0.2788
  203MOL0     C27316   2.898   2.073   6.488  0.6848 -0.6221 -0.5193
  203MOL0     O27317   2.570   2.267   6.586  0.3383 -0.2206 -0.0071
  203MOL0     C27318   2.418   2.029   6.349  0.2955  0.5188 -0.4616
  203MOL0     C27319   2.292   1.988   6.309 -0.8048  0.6874  0.3934
  203MOL0     N27320   1.629   2.367   6.637 -0.0783  0.0014 -0.1690
  203MOL0     N27321   1.515   2.375   6.691  0.2302 -0.9111 -0.3977
  203MOL0     C27322   1.832   1.367   6.856 -0.1206  0.3245 -0.5185
  203MOL0     C27323   1.895   1.267   6.776  0.1030  0.4347 -0.4211
  203MOL0     C27324   2.023   0.906   6.539 -0.0854 -0.9096 -0.5411
  203MOL0     C27325   1.926   0.818   6.500  0.4862 -0.2702  0.0547
  203MOL0     C27326   1.946   0.693   6.454 -0.3044 -0.1446  0.5444
  203MOL0     C27327   2.073   0.647   6.429  0.1653 -0.1392  0.0523
  203MOL0     O27328   2.085   0.525   6.374 -0.3640 -0.2760  0.2928
  203MOL0     C27329   2.187   0.442   6.426 -0.5098 -0.3807 -0.6762
  203MOL0     C27330   2.167   0.403   6.570 -0.4863  0.3123  0.6336
  203MOL0     C27331   2.056   0.301   6.582  0.1221  0.1648 -0.4077
  203MOL0     C27332   2.021   0.266   6.726 -0.5779  0.0666 -0.8411
  203MOL0     C27333   2.066   0.131   6.748  0.4318 -0.1327  0.1289
  203MOL0     C27334   2.106   0.017   6.755  0.5701  0.1750  0.3493
  203MOL0     C27335   2.182   0.735   6.469  0.5151 -0.4939  0.1722
  203MOL0     C27336   2.160   0.864   6.514  0.2374  0.3801  0.7580
  203MOL0     C27337   2.285   0.955   6.529 -0.1612 -0.0010 -0.4939
  203MOL0     H27338   1.619   1.081   6.701 -0.1698  0.3703 -0.4016
  203MOL0     H27339   1.513   1.231   6.856  0.4162  0.1254  1.2284
  203MOL0     H27340   1.448   1.436   6.912 -1.3050  0.1619  2.4600
  203MOL0     H27341   1.463   1.490   7.073 -1.2709  1.8771 -0.3258
  203MOL0     H27342   1.611   1.644   6.845 -0.0693  1.8507 -0.0544
  203MOL0     H27343   1.572   1.687   7.014 -1.6441 -2.0954  1.7287
  203MOL0     H27344   1.330   1.682   6.938 -0.6108  1.1591  1.3087
  203MOL0     H27345   1.385   1.668   6.769  3.3673 -2.4722  0.3735
  203MOL0     H27346   1.481   1.885   6.947  0.1153 -1.1328 -0.1604
  203MOL0     H27347   1.524   1.874   6.791  0.4734 -0.5269  0.1381
  203MOL0     H27348   1.290   1.896   6.713 -1.1320 -0.9384  1.0066
  203MOL0     H27349   1.237   1.934   6.882  2.0301  1.4633  3.0144
  203MOL0     H27350   1.351   2.125   6.890  0.6580 -0.9739  0.2237
  203MOL0     H27351   1.448   2.100   6.756 -0.8093  4.8029 -0.6013
  203MOL0     H27352   1.149   2.146   6.716 -0.0093  1.3802  1.0984
  203MOL0     H27353   1.263   2.087   6.598  0.2317 -1.3157  1.3273
  203MOL0     H27354   1.231   2.325   6.568  1.8185  1.6240  0.1680
  203MOL0     H27355   1.262   2.363   6.741  1.4459  0.4850 -0.1953
  203MOL0     H27356   1.431   2.173   6.460 -2.1542  2.0710 -0.7434
  203MOL0     H27357   1.707   2.233   6.344 -0.3929 -2.0932 -0.6011
  203MOL0     H27358   1.822   2.263   6.478 -0.0703 -1.5827  0.7746
  203MOL0     H27359   1.697   2.053   6.573  2.0141  2.1681  0.0808
  203MOL0     H27360   1.651   2.021   6.397  2.6460 -0.9602 -2.2377
  203MOL0     H27361   1.824   1.880   6.431  2.8313 -1.2107 -0.3234
  203MOL0     H27362   1.918   2.009   6.524 -0.5317  0.8222  0.8311
  203MOL0     H27363   1.925   2.122   6.291  2.3398 -0.8032  0.8154
  203MOL0     H27364   1.870   1.970   6.226 -1.0006 -1.3374  0.9364
  203MOL0     H27365   2.084   2.189   6.488 -0.2075  0.4292 -1.0211
  203MOL0     H27366   2.306   2.277   6.553  3.1137  1.3813 -1.7698
  203MOL0     H27367   2.765   2.382   6.485  0.4724 -0.4221 -0.1401
  203MOL0     H27368   3.009   2.439   6.492  1.5156 -0.8394  0.6210
  203MOL0     H27369   3.296   2.121   6.444 -0.5222  1.4896  0.2901
  203MOL0     H27370   3.285   2.261   6.332 -1.9626 -3.4662 -2.2349
  203MOL0     H27371   3.444   2.394   6.446  1.8299 -0.7663 -3.3140
  203MOL0     H27372   3.428   2.294   6.591 -0.5464  1.5682  0.4276
  203MOL0     H27373   3.543   2.115   6.496 -2.1830  0.7523  1.6495
  203MOL0     H27374   3.580   2.214   6.346  4.2465  0.3107  0.6900
  203MOL0     H27375   3.688   2.253   6.615  1.9887 -0.5193 -1.2218
  203MOL0     H27376   3.667   2.388   6.500 -2.2451  0.9482  2.8358
  203MOL0     H27377   3.827   2.305   6.345  2.7358  1.4309  0.9748
  203MOL0     H27378   3.807   2.135   6.413 -1.0367 -0.4174  0.6529
  203MOL0     H27379   3.920   2.370   6.576  2.2045  0.1915 -0.3552
  203MOL0     H27380   3.909   2.201   6.617  0.6495 -2.0269 -1.7290
  203MOL0     H27381   4.141   2.279   6.530  0.1123  0.0373  1.1358
  203MOL0     H27382   4.065   2.272   6.367  0.0417 -2.0047 -1.1997
  203MOL0     H27383   4.065   2.051   6.572  1.5020  0.7667  0.7198
  203MOL0     H27384   4.030   2.035   6.396  0.6419 -1.0069  0.6270
  203MOL0     H27385   3.096   2.020   6.511 -0.7428 -1.2432 -3.3918
  203MOL0     H27386   2.877   1.967   6.478  3.7636 -1.4758  0.9192
  203MOL0     H27387   2.511   1.992   6.306  0.4383  0.8541 -0.4453
  203MOL0     H27388   2.296   1.912   6.233  1.3031 -0.0843  1.2050
  203MOL0     H27389   1.894   1.446   6.896  0.3523 -0.1844 -0.2336
  203MOL0     H27390   2.003   1.278   6.764  0.0420  1.7515  0.0012
  203MOL0     H27391   1.824   0.855   6.496 -0.0061 -1.6123 -0.5723
  203MOL0     H27392   1.856   0.634   6.444 -0.6552  0.4293  0.2133
  203MOL0     H27393   2.288   0.481   6.409 -0.6177  1.0261  1.5563
  203MOL0     H27394   2.177   0.356   6.360 -0.6506 -0.9125  0.0297
  203MOL0     H27395   2.146   0.497   6.622  0.2978  1.0176 -0.2873
  203MOL0     H27396   2.258   0.363   6.617 -1.1065  0.5256  2.0727
  203MOL0     H27397   2.071   0.208   6.526 -1.3799 -0.0180 -0.5630
  203MOL0     H27398   1.964   0.343   6.540 -0.5543 -0.4258  0.4316
  203MOL0     H27399   2.070   0.333   6.796  1.0346 -0.3772 -1.5093
  203MOL0     H27400   1.912   0.263   6.737 -0.4472 -1.6357  0.5137
  203MOL0     H27401   2.146  -0.081   6.773  2.6715  0.8345 -0.4271
  203MOL0     H27402   2.283   0.698   6.455 -0.6772 -3.6326 -0.8585
  203MOL0     H27403   2.306   0.983   6.632  1.3940 -0.8092 -0.5571
  203MOL0     H27404   2.377   0.900   6.506  1.5576  2.1563  0.8152
  203MOL0     H27405   2.265   1.045   6.470 -3.6199  1.0312  1.9214
  204MOL0     O27406   9.383   1.973   7.985 -0.2365  0.3400 -0.5043
  204MOL0     C27407   9.328   1.994   8.096  0.0161 -0.5748 -0.2071
  204MOL0     O27408   9.367   1.948   8.219 -0.2945 -0.1840 -0.2595
  204MOL0     C27409   9.482   1.880   8.239 -0.2369  0.1452 -0.3833
  204MOL0     C27410   9.572   1.919   8.345  0.5280  0.6936 -0.4723
  204MOL0     C27411   9.697   1.876   8.352 -0.2863 -0.0884 -0.1581
  204MOL0     C27412   9.749   1.779   8.270  0.6638  0.0898  0.8943
  204MOL0     O27413   9.878   1.748   8.298 -0.0724 -0.1584 -1.1612
  204MOL0     C27414   9.931   1.630   8.242  0.7978  0.4765  0.6675
  204MOL0     C27415  10.071   1.586   8.292 -0.2582  0.2187 -0.0739
  204MOL0     C27416  10.181   1.668   8.235  0.0577 -0.4227  1.0440
  204MOL0     C27417  10.318   1.616   8.255  0.2101 -0.5740 -0.2504
  204MOL0     C27418  10.415   1.727   8.231 -0.1860 -0.6012 -0.4723
  204MOL0     C27419  10.544   1.702   8.305  0.8034  0.5624  0.0170
  204MOL0     C27420  10.654   1.810   8.269 -0.0831  1.1556  0.5270
  204MOL0     C27421  10.770   1.811   8.365 -0.3549  0.5769  0.1609
  204MOL0     N27422  10.837   1.681   8.369 -0.6716 -0.4650 -0.4848
  204MOL0     C27423  10.927   1.634   8.283  0.2808  0.4901 -0.0261
  204MOL0     C27424  10.965   1.513   8.336 -0.1535 -0.2846  0.2027
  204MOL0     C27425  11.056   1.416   8.269 -0.2583  0.7089 -0.0728
  204MOL0     C27426  11.198   1.419   8.319 -0.3641 -0.1626 -0.2219
  204MOL0     C27427  11.292   1.323   8.250 -0.6204  0.3052  0.9761
  204MOL0     C27428  11.431   1.345   8.278 -0.2162 -0.6832 -1.0434
  204MOL0     O27429  11.525   1.256   8.219 -0.2432 -0.8187 -0.2862
  204MOL0     C27430  11.628   1.206   8.292  0.1457 -0.6578  0.5447
  204MOL0     C27431  11.693   1.097   8.229 -0.0322  0.0802  0.1168
  204MOL0     C27432  11.815   1.056   8.274  0.2600  0.2098  0.4010
  204MOL0     C27433  11.877   1.116   8.382  0.1342 -0.1037 -0.6149
  204MOL0     C27434  12.015   1.076   8.425  0.2952  0.0226 -0.7278
  204MOL0     O27435  12.046   0.943   8.424 -0.9568  0.1849 -0.6158
  204MOL0     C27436  12.182   0.921   8.443 -0.3944 -0.2632  0.5850
  204MOL0     C27437  12.283   0.937   8.351  0.0928 -0.7830  0.2433
  204MOL0     C27438  12.420   0.932   8.381  0.0273 -0.1887  0.1721
  204MOL0     C27439  12.463   0.899   8.506  0.0615  0.0504  0.2782
  204MOL0     O27440  12.596   0.899   8.546 -0.7453  1.0127 -0.0333
  204MOL0     C27441  12.701   0.916   8.444 -0.5538 -0.9403 -0.2469
  204MOL0     C27442  12.846   0.891   8.494  0.0367 -0.3329 -0.1861
  204MOL0     C27443  12.878   0.746   8.519  0.2688  0.4656 -0.2544
  204MOL0     C27444  12.991   0.713   8.627 -0.2597 -0.5197  0.1263
  204MOL0     C27445  13.129   0.745   8.572 -0.3062  0.2129 -0.2213
  204MOL0     C27446  13.243   0.705   8.662  0.1244  0.3189  0.9418
  204MOL0     C27447  13.365   0.777   8.618 -0.0793  0.1196 -0.1760
  204MOL0     C27448  13.479   0.765   8.723  0.1724  0.3478  0.5565
  204MOL0    Cl27449  13.573   0.622   8.683  0.1002  0.3451  0.2006
  204MOL0     C27450  12.367   0.860   8.597  0.0504  0.5131 -0.7186
  204MOL0     C27451  12.225   0.870   8.567 -0.6294 -0.5560  0.5192
  204MOL0     O27452  12.095   1.167   8.427 -0.6481 -0.9479  0.0838
  204MOL0     C27453  11.808   1.213   8.453  0.8958  0.2143  0.6780
  204MOL0     C27454  11.684   1.258   8.409 -0.2351  0.2452 -0.2012
  204MOL0     N27455  10.909   1.491   8.455  0.4887 -0.5548 -0.8109
  204MOL0     N27456  10.832   1.597   8.475  0.2087 -0.1106 -1.0610
  204MOL0     C27457   9.663   1.723   8.174  0.1869 -0.2531  0.1783
  204MOL0     C27458   9.533   1.778   8.160 -1.2070 -0.0598  0.1023
  204MOL0     C27459   9.197   2.064   8.093  0.0671 -0.1451  0.5578
  204MOL0     C27460   9.136   2.099   8.216 -0.3496 -0.7653  0.0304
  204MOL0     C27461   9.014   2.171   8.223  0.0095  0.1614  0.4157
  204MOL0     C27462   8.950   2.220   8.107  0.1976 -0.0127 -0.2134
  204MOL0     O27463   8.833   2.302   8.128  0.1942 -0.1844 -0.1192
  204MOL0     C27464   8.748   2.332   8.023  0.1655 -0.4971  0.2375
  204MOL0     C27465   8.615   2.395   8.077  0.1251 -0.3731 -0.0069
  204MOL0     C27466   8.512   2.430   7.967 -0.2834  0.6688  0.2413
  204MOL0     C27467   8.376   2.466   8.028  0.0853 -0.0490 -0.0313
  204MOL0     C27468   8.262   2.431   7.938 -0.4839 -0.0752 -0.2390
  204MOL0     C27469   8.163   2.404   7.869  0.8426 -0.2110 -1.2675
  204MOL0     C27470   9.021   2.196   7.985  0.3745  0.2137 -0.1736
  204MOL0     C27471   9.127   2.109   7.977  0.4659 -0.1344  0.7574
  204MOL0     C27472   9.185   2.085   7.838 -0.0048  0.2120 -0.7484
  204MOL0     H27473   9.529   1.994   8.411  0.4233 -0.0373  0.3028
  204MOL0     H27474   9.761   1.916   8.430  2.2645  0.2528 -2.2759
  204MOL0     H27475   9.860   1.548   8.255  0.5238  0.9754  2.9184
  204MOL0     H27476   9.932   1.652   8.135  1.8516  0.2201  0.6196
  204MOL0     H27477  10.085   1.482   8.262 -2.2748  0.0335 -0.5087
  204MOL0     H27478  10.080   1.601   8.400  2.4858 -0.8827 -0.0697
  204MOL0     H27479  10.185   1.761   8.292  0.2774  1.0409 -1.2163
  204MOL0     H27480  10.165   1.683   8.128 -0.7007 -0.6431  1.1218
  204MOL0     H27481  10.331   1.585   8.360  0.9358  0.0437 -0.1489
  204MOL0     H27482  10.345   1.527   8.198  0.3990  0.9745 -2.7280
  204MOL0     H27483  10.432   1.730   8.123 -1.1911 -2.1907 -0.7074
  204MOL0     H27484  10.360   1.816   8.262 -1.3342 -0.3747 -2.8703
  204MOL0     H27485  10.523   1.698   8.412 -2.6421 -0.3891 -0.5552
  204MOL0     H27486  10.591   1.607   8.276 -0.3889  0.0161 -0.1931
  204MOL0     H27487  10.604   1.907   8.279  0.5314  1.3764  1.6426
  204MOL0     H27488  10.685   1.803   8.165 -0.1934 -0.8417  0.5898
  204MOL0     H27489  10.840   1.877   8.312 -0.4133  0.1837 -0.4151
  204MOL0     H27490  10.747   1.846   8.466  0.1598 -1.2331  0.9564
  204MOL0     H27491  10.957   1.682   8.191  0.1865 -0.4081 -0.5286
  204MOL0     H27492  11.033   1.313   8.297  0.6629  0.3777 -0.4827
  204MOL0     H27493  11.045   1.429   8.161  1.4506  0.5314 -0.3009
  204MOL0     H27494  11.239   1.520   8.306 -2.8144  0.9270 -0.0616
  204MOL0     H27495  11.198   1.386   8.423  4.0661  0.3292  0.1055
  204MOL0     H27496  11.269   1.336   8.144 -2.9153 -0.1508  1.3632
  204MOL0     H27497  11.268   1.219   8.275 -1.1979  0.3687  0.7098
  204MOL0     H27498  11.440   1.348   8.387  0.1569 -1.3823 -1.0454
  204MOL0     H27499  11.443   1.443   8.231 -1.3485 -1.2162 -2.5307
  204MOL0     H27500  11.654   1.051   8.138  0.0512  1.5879 -0.7055
  204MOL0     H27501  11.867   0.970   8.231  1.4709 -0.3100  2.7195
  204MOL0     H27502  12.258   0.964   8.249 -0.5779  1.6639  0.9834
  204MOL0     H27503  12.488   0.930   8.296  0.1860  0.1636  0.2914
  204MOL0     H27504  12.690   0.846   8.361 -0.6039 -0.2414 -0.8419
  204MOL0     H27505  12.699   1.018   8.404  0.8964 -1.0853 -0.7359
  204MOL0     H27506  12.918   0.941   8.429  0.1619 -0.5387 -0.2075
  204MOL0     H27507  12.855   0.939   8.592 -1.0359  1.7516 -1.0448
  204MOL0     H27508  12.786   0.696   8.552  0.2464  2.0305  2.3229
  204MOL0     H27509  12.898   0.710   8.418 -1.1194  1.4354 -0.9091
  204MOL0     H27510  12.984   0.610   8.664 -0.7904 -1.1862 -1.7085
  204MOL0     H27511  12.965   0.777   8.711 -0.8468  1.6581 -1.6237
  204MOL0     H27512  13.131   0.848   8.533 -0.3582  0.5193  0.5743
  204MOL0     H27513  13.145   0.683   8.483 -1.2746  0.1275 -0.3449
  204MOL0     H27514  13.222   0.713   8.769 -0.6259  0.6121  0.7778
  204MOL0     H27515  13.273   0.603   8.637  0.0118 -0.3129  3.1586
  204MOL0     H27516  13.325   0.879   8.616 -0.5265 -0.0615 -1.0424
  204MOL0     H27517  13.399   0.761   8.515 -1.7049 -1.5380 -0.5019
  204MOL0     H27518  13.548   0.850   8.721 -0.6362  1.0160 -1.0242
  204MOL0     H27519  13.448   0.753   8.827  1.2239  0.7407  0.9310
  204MOL0     H27520  12.399   0.836   8.697 -2.6171 -1.3364 -0.2129
  204MOL0     H27521  12.144   0.851   8.637 -2.3218  2.4838 -0.4260
  204MOL0     H27522  11.855   1.272   8.532 -0.3750  0.8876  0.9541
  204MOL0     H27523  11.636   1.342   8.458 -3.7598 -1.6158 -0.1404
  204MOL0     H27524   9.695   1.656   8.095 -0.9429 -1.6784  0.8842
  204MOL0     H27525   9.486   1.749   8.067  0.8351 -3.2773 -0.0589
  204MOL0     H27526   9.175   2.068   8.313  1.8445  2.4385  0.3363
  204MOL0     H27527   8.969   2.196   8.318 -0.5534  3.2152 -0.5554
  204MOL0     H27528   8.722   2.253   7.952  1.2804 -2.1626  1.5958
  204MOL0     H27529   8.795   2.406   7.959  0.2828 -2.6902 -2.3985
  204MOL0     H27530   8.645   2.486   8.130  0.1480 -0.2246 -0.2751
  204MOL0     H27531   8.563   2.329   8.147  0.2752 -0.3721  0.1071
  204MOL0     H27532   8.494   2.333   7.920  0.2226 -0.6873  2.6498
  204MOL0     H27533   8.557   2.497   7.894  1.0784  0.8891  1.2347
  204MOL0     H27534   8.362   2.406   8.118  2.2905 -2.0752 -0.9294
  204MOL0     H27535   8.377   2.567   8.070 -0.2802 -0.1373  0.1909
  204MOL0     H27536   8.081   2.378   7.805  0.7381 -1.3841 -0.6890
  204MOL0     H27537   8.971   2.239   7.899 -3.4661  0.2275  1.8744
  204MOL0     H27538   9.191   1.977   7.829  1.0307  0.4028 -2.8173
  204MOL0     H27539   9.117   2.118   7.759 -2.0266 -2.9661 -0.4885
  204MOL0     H27540   9.281   2.136   7.826  1.1024 -2.2063 -3.2586
  205MOL0     O27541   5.611  10.869  10.770  1.4559  0.2007 -0.5179
  205MOL0     C27542   5.550  10.883  10.659  0.3152  0.6134  0.3330
  205MOL0     O27543   5.605  10.866  10.535 -1.1258  0.3125 -0.3048
  205MOL0     C27544   5.737  10.833  10.540 -0.3158  0.2792  1.2328
  205MOL0     C27545   5.779  10.702  10.516 -0.9616  0.1376 -0.6227
  205MOL0     C27546   5.917  10.668  10.516 -0.2882  0.2506  0.2614
  205MOL0     C27547   6.019  10.765  10.530  0.5562  0.0236 -0.3267
  205MOL0     O27548   6.145  10.713  10.544  0.2241 -0.5203  0.4728
  205MOL0     C27549   6.256  10.805  10.553  0.2188 -0.2885  0.3402
  205MOL0     C27550   6.379  10.718  10.572  1.5327  0.6173 -0.4598
  205MOL0     C27551   6.499  10.799  10.618 -0.5261 -0.3461  0.2921
  205MOL0     C27552   6.641  10.730  10.611 -0.6278 -0.2844 -0.0873
  205MOL0     C27553   6.717  10.697  10.741 -0.1373  0.0476 -0.5183
  205MOL0     C27554   6.621  10.603  10.831 -0.0321  0.4104 -0.3357
  205MOL0     C27555   6.703  10.538  10.941 -0.2437  0.4154 -0.3241
  205MOL0     C27556   6.617  10.473  11.043 -0.2764  0.4254 -1.1540
  205MOL0     N27557   6.689  10.456  11.172  0.4034 -0.5236  0.0402
  205MOL0     C27558   6.754  10.341  11.199 -0.1344 -0.0273  0.0969
  205MOL0     C27559   6.789  10.354  11.332 -2.1690 -0.5724  0.2047
  205MOL0     C27560   6.865  10.244  11.419  1.1919  0.1273  0.3163
  205MOL0     C27561   7.002  10.289  11.477 -0.8560 -0.2916  0.4808
  205MOL0     C27562   7.043  10.201  11.589 -0.6216 -0.2784 -0.2838
  205MOL0     C27563   7.173  10.264  11.652 -0.2877  0.3387  0.0749
  205MOL0     O27564   7.286  10.251  11.560 -0.0454 -0.8365 -0.1479
  205MOL0     C27565   7.412  10.265  11.600 -0.1765 -0.3396 -0.4236
  205MOL0     C27566   7.516  10.228  11.515 -0.3876 -0.6231  0.3554
  205MOL0     C27567   7.648  10.239  11.555  0.5823  0.2390 -0.6177
  205MOL0     C27568   7.680  10.295  11.681 -0.7222 -0.1434 -0.4337
  205MOL0     C27569   7.827  10.310  11.722  0.6348 -0.1685  0.1067
  205MOL0     O27570   7.916  10.237  11.651 -0.3382  0.0683  0.0571
  205MOL0     C27571   8.048  10.265  11.670  0.2104  0.2429  0.0461
  205MOL0     C27572   8.142  10.162  11.690  0.7820  0.3778  0.5885
  205MOL0     C27573   8.276  10.187  11.712 -0.8349  0.1820 -1.0577
  205MOL0     C27574   8.322  10.316  11.689 -0.1359 -0.4969  0.8609
  205MOL0     O27575   8.455  10.338  11.707 -0.2996 -0.4530  0.0908
  205MOL0     C27576   8.547  10.287  11.614  0.3700  0.2093  0.6024
  205MOL0     C27577   8.538  10.375  11.486 -0.2149  0.0217 -0.1310
  205MOL0     C27578   8.640  10.356  11.380  0.3131  0.1204 -0.1435
  205MOL0     C27579   8.669  10.484  11.313 -0.5091 -0.1297  0.2645
  205MOL0     C27580   8.771  10.473  11.193  0.1763  0.2261  0.6268
  205MOL0     C27581   8.914  10.446  11.231 -0.5463  1.1415  0.1023
  205MOL0     C27582   9.013  10.439  11.118 -0.1807 -0.2859 -0.3786
  205MOL0     C27583   9.078  10.579  11.099 -0.2251 -1.1898  0.1702
  205MOL0    Cl27584   9.238  10.550  11.013 -0.0038 -0.2612  0.6712
  205MOL0     C27585   8.234  10.417  11.662  0.1196 -0.1115  0.2254
  205MOL0     C27586   8.096  10.395  11.654  0.0311 -0.1671  0.6733
  205MOL0     O27587   7.853  10.384  11.819  0.3476 -0.3483  0.7361
  205MOL0     C27588   7.578  10.327  11.772  0.0041 -0.2069 -0.2105
  205MOL0     C27589   7.445  10.312  11.728  0.9328  0.4907 -0.2651
  205MOL0     N27590   6.762  10.490  11.362 -0.1654  0.4201 -0.4299
  205MOL0     N27591   6.689  10.544  11.278 -0.1078 -0.1280  0.3736
  205MOL0     C27592   5.969  10.897  10.559 -0.1542  0.4499 -0.2585
  205MOL0     C27593   5.836  10.930  10.557 -0.0965 -0.2909 -0.3992
  205MOL0     C27594   5.396  10.882  10.667 -0.4841  0.0678  0.7283
  205MOL0     C27595   5.326  10.882  10.544 -0.8674  0.5956 -0.0249
  205MOL0     C27596   5.186  10.884  10.550 -1.0956 -0.8401 -0.8306
  205MOL0     C27597   5.112  10.882  10.667  0.1530  0.4020  0.4737
  205MOL0     O27598   4.967  10.883  10.674 -0.4865 -0.2775 -0.4453
  205MOL0     C27599   4.896  10.915  10.553 -1.6146 -0.1957 -0.2216
  205MOL0     C27600   4.749  10.925  10.580 -0.4593  0.8583 -0.1770
  205MOL0     C27601   4.666  10.940  10.446 -0.3244 -0.5560 -0.3006
  205MOL0     C27602   4.653  10.816  10.363 -0.2234  0.1280 -0.0311
  205MOL0     C27603   4.570  10.721  10.430  0.4396  1.0003 -0.5811
  205MOL0     C27604   4.509  10.643  10.498 -0.3218  0.6144  0.1027
  205MOL0     C27605   5.181  10.884  10.784 -0.4342  0.4154 -0.1921
  205MOL0     C27606   5.324  10.885  10.791  0.4612  0.6958  0.0647
  205MOL0     C27607   5.383  10.907  10.926  0.4421  0.3990  0.2603
  205MOL0     H27608   5.708  10.624  10.488 -1.3080  0.4345 -0.5843
  205MOL0     H27609   5.943  10.564  10.501 -2.7696 -0.6783  1.8362
  205MOL0     H27610   6.266  10.852  10.454 -1.6674 -3.5328 -1.5870
  205MOL0     H27611   6.241  10.875  10.636 -0.2087  0.3028 -0.2148
  205MOL0     H27612   6.410  10.665  10.482 -2.1561 -0.9061 -0.9992
  205MOL0     H27613   6.356  10.642  10.647  0.4548 -0.1034 -1.4865
  205MOL0     H27614   6.479  10.834  10.720  1.1356 -1.2602  0.9757
  205MOL0     H27615   6.511  10.880  10.546  1.9136 -2.1047 -1.4701
  205MOL0     H27616   6.622  10.637  10.557  0.9018 -0.0979 -0.9966
  205MOL0     H27617   6.710  10.789  10.550  1.3925 -0.0383  2.2616
  205MOL0     H27618   6.806  10.644  10.707  0.6751 -0.1058  1.6728
  205MOL0     H27619   6.747  10.788  10.793 -0.6343 -1.0071  1.7385
  205MOL0     H27620   6.542  10.664  10.876  1.9146  1.9679  1.1377
  205MOL0     H27621   6.575  10.529  10.765  2.3504 -0.1554 -1.4560
  205MOL0     H27622   6.760  10.620  10.984 -0.3229  0.4252 -0.2385
  205MOL0     H27623   6.769  10.460  10.902 -1.4961  0.5552 -2.9669
  205MOL0     H27624   6.526  10.532  11.061 -1.3602 -1.4151 -0.2288
  205MOL0     H27625   6.582  10.376  11.005 -4.5517  0.5755  1.6107
  205MOL0     H27626   6.760  10.252  11.137  0.5562  0.3095 -0.3276
  205MOL0     H27627   6.788  10.236  11.496  0.4526  0.8477 -0.3198
  205MOL0     H27628   6.872  10.149  11.366  3.3685 -0.6245  1.8642
  205MOL0     H27629   7.085  10.298  11.407 -1.9517 -2.5249 -1.2449
  205MOL0     H27630   6.991  10.395  11.502 -0.1896  0.3936 -1.8661
  205MOL0     H27631   7.061  10.106  11.539  1.6296  1.3087 -2.8105
  205MOL0     H27632   6.961  10.191  11.661 -1.5276 -2.5615 -1.5476
  205MOL0     H27633   7.195  10.215  11.748  1.7245  0.1504 -0.4394
  205MOL0     H27634   7.162  10.369  11.682  1.0984 -0.2672  3.2247
  205MOL0     H27635   7.494  10.180  11.421 -0.3015 -1.1094  0.5841
  205MOL0     H27636   7.724  10.199  11.488 -1.2019  0.1404 -2.6819
  205MOL0     H27637   8.098  10.062  11.690  0.9838  0.2864  0.1947
  205MOL0     H27638   8.343  10.104  11.731 -1.2015  0.1766  0.3461
  205MOL0     H27639   8.650  10.291  11.650  0.8011  0.9946 -0.6729
  205MOL0     H27640   8.532  10.185  11.578  0.8107  0.6934 -1.0139
  205MOL0     H27641   8.440  10.361  11.439 -0.8158  1.5747  0.5834
  205MOL0     H27642   8.536  10.476  11.527 -2.1662  0.2111 -0.5746
  205MOL0     H27643   8.734  10.332  11.430  1.8260  0.2588 -2.7356
  205MOL0     H27644   8.618  10.277  11.307  0.5513 -0.4440  0.3865
  205MOL0     H27645   8.713  10.551  11.388  1.3892 -0.6864 -0.2821
  205MOL0     H27646   8.574  10.527  11.279 -0.4937  0.1837  0.6106
  205MOL0     H27647   8.763  10.566  11.137 -1.3498  1.0053  2.0446
  205MOL0     H27648   8.747  10.392  11.123 -0.3295  1.1783 -0.3257
  205MOL0     H27649   8.946  10.516  11.308  1.3223  2.1352 -1.4731
  205MOL0     H27650   8.908  10.343  11.268 -0.0064  1.5806  1.4696
  205MOL0     H27651   8.970  10.411  11.021 -0.4501  2.2480 -1.0565
  205MOL0     H27652   9.086  10.362  11.145 -0.2482 -0.7476 -1.4824
  205MOL0     H27653   9.021  10.657  11.047  3.7992  0.0547 -2.8106
  205MOL0     H27654   9.099  10.630  11.193 -1.4900 -1.4223  0.6098
  205MOL0     H27655   8.273  10.518  11.654 -0.9714  0.6080  2.7730
  205MOL0     H27656   8.031  10.482  11.647  0.5544  0.2082  0.3469
  205MOL0     H27657   7.600  10.363  11.872 -2.0145 -2.4584  1.1563
  205MOL0     H27658   7.369  10.357  11.791  2.6086 -0.4067  2.6279
  205MOL0     H27659   6.034  10.975  10.596 -0.0498  0.0150  0.4766
  205MOL0     H27660   5.813  11.032  10.584 -0.5891 -0.5407  0.1412
  205MOL0     H27661   5.373  10.870  10.447 -1.6695 -1.8500 -0.1942
  205MOL0     H27662   5.135  10.890  10.454 -0.2197 -0.9701 -1.3107
  205MOL0     H27663   4.920  10.840  10.477 -1.7610 -0.9358  0.4460
  205MOL0     H27664   4.918  11.017  10.520 -2.2188 -0.3222 -1.0334
  205MOL0     H27665   4.731  11.012  10.645 -0.3409  2.3490 -2.0656
  205MOL0     H27666   4.709  10.836  10.630  1.5633 -0.1138 -0.2067
  205MOL0     H27667   4.704  11.016  10.378 -1.5258  0.2631 -0.0901
  205MOL0     H27668   4.564  10.977  10.459 -1.6120 -2.3145 -4.0199
  205MOL0     H27669   4.609  10.845  10.267 -0.0959  2.3899  0.5382
  205MOL0     H27670   4.749  10.771  10.339  0.6952  2.0871 -0.2277
  205MOL0     H27671   4.451  10.587  10.569 -1.5352 -2.0518 -2.7391
  205MOL0     H27672   5.133  10.900  10.880 -1.6190 -0.0150 -0.6968
  205MOL0     H27673   5.443  10.998  10.916 -0.6831  1.1757  0.3556
  205MOL0     H27674   5.307  10.924  11.003  0.2877 -0.4475  0.3009
  205MOL0     H27675   5.445  10.822  10.955 -0.6529 -0.1487  1.0953
  206MOL0     O27676   2.292   1.276   5.767  0.4469  0.4314  0.2843
  206MOL0     C27677   2.221   1.344   5.696 -0.2219  0.2607 -0.0884
  206MOL0     O27678   2.264   1.423   5.592 -0.6448  0.7739 -0.3363
  206MOL0     C27679   2.399   1.433   5.559  0.5779 -0.2072  0.1126
  206MOL0     C27680   2.459   1.553   5.522 -0.4362 -0.0358 -0.7140
  206MOL0     C27681   2.596   1.568   5.492  0.3806  0.5472  0.0972
  206MOL0     C27682   2.677   1.451   5.490  0.0704 -0.1736  0.1772
  206MOL0     O27683   2.814   1.451   5.480  0.1894 -0.2784 -0.8164
  206MOL0     C27684   2.885   1.576   5.450  0.4728 -0.3111  0.5604
  206MOL0     C27685   3.040   1.566   5.426 -0.2299 -0.9613 -0.0164
  206MOL0     C27686   3.089   1.475   5.314  0.1881  0.2909  0.4675
  206MOL0     C27687   3.163   1.356   5.363  0.1002 -0.8868  0.1229
  206MOL0     C27688   3.305   1.379   5.400 -0.5608  0.4970 -0.8036
  206MOL0     C27689   3.363   1.265   5.479 -0.4536  0.4800 -0.0848
  206MOL0     C27690   3.511   1.261   5.469  0.3356 -0.3112  0.7952
  206MOL0     C27691   3.568   1.187   5.591 -0.5459 -0.4401  0.5929
  206MOL0     N27692   3.714   1.172   5.581  0.0298 -0.3872  0.6126
  206MOL0     C27693   3.785   1.060   5.543 -0.1146 -0.0336  0.6110
  206MOL0     C27694   3.913   1.097   5.535  0.9352 -0.4164  0.9922
  206MOL0     C27695   4.030   1.012   5.506 -1.0041  0.1333 -0.1659
  206MOL0     C27696   4.104   0.962   5.634  0.4419 -0.8949 -0.4328
  206MOL0     C27697   4.154   1.066   5.733  0.5535  0.3177  0.5786
  206MOL0     C27698   4.243   1.169   5.658  0.0825  0.2930  0.6615
  206MOL0     O27699   4.339   1.113   5.568  0.0260  0.6178  0.3362
  206MOL0     C27700   4.457   1.083   5.624 -0.4005  0.6499 -0.0381
  206MOL0     C27701   4.517   1.118   5.750  0.6593  0.3742 -0.3164
  206MOL0     C27702   4.653   1.088   5.777  0.2812 -0.4557 -0.2400
  206MOL0     C27703   4.735   1.028   5.682 -0.6780 -0.0627  0.7121
  206MOL0     C27704   4.875   1.005   5.703  0.6728 -0.6991  0.3809
  206MOL0     O27705   4.921   1.038   5.828  1.0008 -0.3644  0.1070
  206MOL0     C27706   5.044   1.008   5.872  0.7341  0.2968 -0.2360
  206MOL0     C27707   5.064   0.872   5.906 -0.1579 -0.1666  0.4433
  206MOL0     C27708   5.184   0.835   5.968 -0.1002 -0.1930  0.7949
  206MOL0     C27709   5.293   0.934   5.974 -0.6222 -0.1243  0.4039
  206MOL0     O27710   5.417   0.926   6.035  0.2952  0.1792  0.2738
  206MOL0     C27711   5.455   0.792   6.061 -0.5140 -0.4969  0.8036
  206MOL0     C27712   5.581   0.781   6.150  0.5269 -0.0850 -0.1197
  206MOL0     C27713   5.692   0.869   6.096 -0.9296  1.0574  0.0606
  206MOL0     C27714   5.829   0.818   6.153 -0.3962  0.9888 -0.8096
  206MOL0     C27715   5.953   0.883   6.091  0.4642  0.0312 -0.3640
  206MOL0     C27716   6.069   0.868   6.186 -0.1951 -0.0238 -0.3544
  206MOL0     C27717   6.196   0.922   6.125  0.2007  0.1315 -0.2741
  206MOL0     C27718   6.310   0.915   6.227  0.7796 -0.2867  0.2479
  206MOL0    Cl27719   6.343   0.752   6.283 -0.2257  0.1669  0.3190
  206MOL0     C27720   5.272   1.064   5.928  0.7015  0.2555 -0.5502
  206MOL0     C27721   5.143   1.103   5.884 -0.0805  0.2625 -0.3823
  206MOL0     O27722   4.936   0.948   5.616 -0.5242 -0.0872 -0.7212
  206MOL0     C27723   4.670   0.977   5.567 -0.5262 -0.6308  0.0642
  206MOL0     C27724   4.539   1.009   5.543  0.0507  0.1158 -0.0579
  206MOL0     N27725   3.917   1.231   5.553 -0.4860 -0.4426  0.4942
  206MOL0     N27726   3.807   1.277   5.582  0.3085 -1.4106 -0.2431
  206MOL0     C27727   2.621   1.330   5.529  0.2686  0.1220  0.0326
  206MOL0     C27728   2.484   1.320   5.556  0.9818  0.0015  0.5145
  206MOL0     C27729   2.075   1.317   5.719 -0.0709  0.4212  0.0799
  206MOL0     C27730   1.990   1.408   5.779 -0.1151  0.0838  0.2654
  206MOL0     C27731   1.860   1.376   5.809  0.2954  0.8535  0.5951
  206MOL0     C27732   1.799   1.262   5.773 -1.0128 -0.0774  0.0467
  206MOL0     O27733   1.666   1.245   5.810  0.0478  0.1785 -0.0579
  206MOL0     C27734   1.598   1.123   5.785 -0.0054 -0.0371 -0.1561
  206MOL0     C27735   1.443   1.158   5.798 -0.0848  0.7853 -0.4839
  206MOL0     C27736   1.368   1.027   5.787 -0.2673 -0.0140  1.0048
  206MOL0     C27737   1.226   1.047   5.827  0.1677  0.3087  0.3651
  206MOL0     C27738   1.172   0.911   5.851 -0.7247 -0.4243 -0.1492
  206MOL0     C27739   1.134   0.792   5.869 -0.2506 -0.4482  0.6689
  206MOL0     C27740   1.886   1.161   5.722 -0.5135 -0.5093  0.8942
  206MOL0     C27741   2.023   1.186   5.703 -0.3366 -0.4438  0.3350
  206MOL0     C27742   2.102   1.071   5.660 -0.6372  0.4742 -0.6662
  206MOL0     H27743   2.411   1.649   5.536  1.2573  1.1015 -2.4201
  206MOL0     H27744   2.646   1.663   5.475 -0.5826  0.9486 -0.5753
  206MOL0     H27745   2.846   1.626   5.361 -0.1160 -0.4254  0.7512
  206MOL0     H27746   2.877   1.642   5.537 -0.7027 -0.2741  0.4320
  206MOL0     H27747   3.085   1.523   5.516  3.1006 -1.5860 -1.8288
  206MOL0     H27748   3.087   1.665   5.420 -0.0197 -1.0427  0.2717
  206MOL0     H27749   3.158   1.532   5.251 -0.1182  1.0555  0.8133
  206MOL0     H27750   3.008   1.441   5.249  0.4166 -0.0144  0.3391
  206MOL0     H27751   3.105   1.311   5.444  0.1744  1.7708  1.7594
  206MOL0     H27752   3.178   1.288   5.279  1.9140 -0.8111  0.3457
  206MOL0     H27753   3.361   1.401   5.309 -0.6645 -0.1904 -1.0434
  206MOL0     H27754   3.303   1.472   5.457  2.3356 -0.7595  1.5970
  206MOL0     H27755   3.318   1.276   5.578 -1.9384  5.1178 -1.0044
  206MOL0     H27756   3.342   1.166   5.438  2.7596  0.3797 -1.8696
  206MOL0     H27757   3.536   1.367   5.475  0.3511 -0.2793  0.2579
  206MOL0     H27758   3.542   1.221   5.372 -1.6841  0.3045 -0.1621
  206MOL0     H27759   3.542   1.239   5.683 -1.8037 -1.0431  0.6008
  206MOL0     H27760   3.519   1.090   5.604  0.2757 -0.8479  0.7152
  206MOL0     H27761   3.749   0.959   5.524  1.7081 -1.0853  2.4496
  206MOL0     H27762   3.994   0.925   5.450  0.5962  0.4106 -1.7077
  206MOL0     H27763   4.104   1.047   5.433  0.2780 -1.9491  0.0468
  206MOL0     H27764   4.036   0.888   5.677 -1.4127  0.5059 -0.8677
  206MOL0     H27765   4.192   0.897   5.629  0.3795 -1.1113  0.8227
  206MOL0     H27766   4.204   1.005   5.808 -2.5603 -1.5257  1.2825
  206MOL0     H27767   4.065   1.114   5.775  0.5740 -0.0054  0.9851
  206MOL0     H27768   4.288   1.243   5.725  1.9084 -1.3369  1.3379
  206MOL0     H27769   4.178   1.229   5.593  1.7028  1.0539 -0.3541
  206MOL0     H27770   4.457   1.146   5.836  1.2655 -1.4692  0.7711
  206MOL0     H27771   4.684   1.124   5.874  0.4472 -0.2263 -0.3782
  206MOL0     H27772   4.986   0.798   5.894 -1.1079  0.9582 -0.5636
  206MOL0     H27773   5.193   0.737   6.015 -0.0378  0.4972  2.2778
  206MOL0     H27774   5.374   0.745   6.118 -3.0671  2.1842 -0.3670
  206MOL0     H27775   5.476   0.749   5.963  1.6570  1.7114  0.2194
  206MOL0     H27776   5.562   0.810   6.253  3.0470  3.3558 -0.4298
  206MOL0     H27777   5.606   0.675   6.140  1.8670  0.2987 -1.0405
  206MOL0     H27778   5.683   0.860   5.987  0.0305  1.8256 -0.0961
  206MOL0     H27779   5.678   0.972   6.129 -1.4149  0.8875  0.3980
  206MOL0     H27780   5.843   0.709   6.153 -1.9081  0.7782 -1.5545
  206MOL0     H27781   5.831   0.846   6.259 -3.1806  1.0498 -0.7062
  206MOL0     H27782   5.931   0.988   6.071  1.7571  0.3247 -0.3379
  206MOL0     H27783   5.974   0.840   5.992 -2.1004  1.6695 -1.7336
  206MOL0     H27784   6.057   0.912   6.285 -1.5091 -2.1614  0.5215
  206MOL0     H27785   6.072   0.759   6.199 -0.1055 -0.1109 -1.0972
  206MOL0     H27786   6.181   1.025   6.091 -0.0997  0.4607  0.7849
  206MOL0     H27787   6.215   0.869   6.032 -3.4519  1.7731 -2.1533
  206MOL0     H27788   6.399   0.951   6.176  1.3506 -1.6192  0.2668
  206MOL0     H27789   6.288   0.985   6.308 -0.0242  0.6822 -0.7823
  206MOL0     H27790   5.342   1.146   5.921 -0.4312  1.4109  0.9681
  206MOL0     H27791   5.130   1.209   5.864 -1.6524  0.3517  0.9481
  206MOL0     H27792   4.726   0.915   5.497 -0.5383 -0.8114  0.2140
  206MOL0     H27793   4.499   0.965   5.452 -0.4890 -0.8218  0.6197
  206MOL0     H27794   2.684   1.242   5.528 -0.1787 -0.2184  0.9076
  206MOL0     H27795   2.456   1.217   5.574 -0.1527 -0.6128 -3.7303
  206MOL0     H27796   2.021   1.498   5.832 -2.1007  1.9898 -1.6367
  206MOL0     H27797   1.801   1.442   5.872 -1.4972  1.2112 -1.3428
  206MOL0     H27798   1.638   1.053   5.859  1.6064  0.5370 -0.4437
  206MOL0     H27799   1.618   1.084   5.685  0.3694 -0.3788  0.0511
  206MOL0     H27800   1.414   1.233   5.724  1.2019  2.6786  0.8300
  206MOL0     H27801   1.424   1.200   5.897  1.2669 -1.6281  0.8918
  206MOL0     H27802   1.415   0.955   5.854 -0.7959 -0.0909  1.2993
  206MOL0     H27803   1.378   0.989   5.684  1.5486  2.3239  0.2331
  206MOL0     H27804   1.217   1.119   5.909 -0.3922  1.9020 -1.0126
  206MOL0     H27805   1.168   1.102   5.752 -0.1841 -1.0350 -0.3864
  206MOL0     H27806   1.106   0.689   5.872 -0.2843 -0.5210 -0.9515
  206MOL0     H27807   1.856   1.066   5.679 -0.1453  0.6287 -2.1055
  206MOL0     H27808   2.186   1.108   5.601  2.6601 -1.5464  2.3517
  206MOL0     H27809   2.142   1.012   5.743 -2.2039 -0.7034 -0.7060
  206MOL0     H27810   2.039   1.001   5.604 -0.8478 -0.8658  1.1458
  207MOL0     O27811   0.750   0.896   1.247 -0.2634 -0.0271 -0.0495
  207MOL0     C27812   0.722   0.858   1.127 -0.3126 -0.3880 -0.3030
  207MOL0     O27813   0.809   0.876   1.026  0.4756  0.1932 -0.5373
  207MOL0     C27814   0.936   0.914   1.047 -0.7639  0.8321  0.0496
  207MOL0     C27815   1.027   0.822   1.009 -0.5725 -0.0663 -0.4243
  207MOL0     C27816   1.166   0.844   1.023 -0.0157  0.6169  0.3455
  207MOL0     C27817   1.212   0.958   1.093 -0.6077  0.6682  0.1926
  207MOL0     O27818   1.351   0.981   1.109 -0.1255 -0.2359  0.4339
  207MOL0     C27819   1.422   0.883   1.187 -0.1260  0.0610 -0.0380
  207MOL0     C27820   1.577   0.908   1.182 -0.1421 -0.3678  0.3717
  207MOL0     C27821   1.621   0.867   1.043 -0.0054 -0.1886 -0.0611
  207MOL0     C27822   1.768   0.879   1.024  1.0025 -0.2929 -0.6127
  207MOL0     C27823   1.828   0.740   1.035 -0.3197 -0.5736  0.0586
  207MOL0     C27824   1.972   0.728   0.979 -0.5612  0.4200 -0.2327
  207MOL0     C27825   2.022   0.587   0.997  0.2370  0.7969 -0.2180
  207MOL0     C27826   2.170   0.568   0.959  0.3060 -0.2761 -0.0109
  207MOL0     N27827   2.214   0.611   0.817  0.3826  0.3989 -0.1866
  207MOL0     C27828   2.307   0.705   0.780 -0.5861  0.1792 -0.4974
  207MOL0     C27829   2.327   0.681   0.649  1.2383  0.3625  0.9466
  207MOL0     C27830   2.421   0.759   0.563 -0.7296 -0.0104  0.2824
  207MOL0     C27831   2.348   0.837   0.450  0.8272 -0.1304  0.9108
  207MOL0     C27832   2.439   0.888   0.343  0.7931 -0.3736 -0.4103
  207MOL0     C27833   2.385   1.005   0.268 -0.2251 -0.0515 -0.1303
  207MOL0     O27834   2.381   1.129   0.334  0.0189 -0.5924  0.4022
  207MOL0     C27835   2.502   1.194   0.355  0.0384 -0.5421 -0.6570
  207MOL0     C27836   2.496   1.274   0.473 -0.4780 -0.1728  0.0803
  207MOL0     C27837   2.609   1.355   0.496  0.5981 -0.1446 -0.0501
  207MOL0     C27838   2.720   1.374   0.409 -0.1308  1.1315  0.5394
  207MOL0     C27839   2.834   1.473   0.419 -0.4186  1.1889 -0.0329
  207MOL0     O27840   2.831   1.555   0.531 -0.4974 -0.5249 -0.1494
  207MOL0     C27841   2.945   1.632   0.563  0.2976 -0.0240 -0.2611
  207MOL0     C27842   2.909   1.768   0.591  0.4560 -0.6062  0.9069
  207MOL0     C27843   3.011   1.851   0.652  0.0640 -0.0519 -0.4708
  207MOL0     C27844   3.127   1.791   0.703 -0.6060 -0.3078  0.5943
  207MOL0     O27845   3.233   1.852   0.762 -0.4161  0.4158  0.0394
  207MOL0     C27846   3.227   1.994   0.776 -0.3828  1.4415  0.8169
  207MOL0     C27847   3.353   2.038   0.849  0.4604  0.1660  0.6506
  207MOL0     C27848   3.474   2.023   0.756 -0.8994  0.4159  0.3336
  207MOL0     C27849   3.615   2.025   0.828 -0.7898  0.3497 -0.5157
  207MOL0     C27850   3.716   1.927   0.758  0.1100 -0.2785 -0.9719
  207MOL0     C27851   3.854   1.939   0.829  0.6153  0.1569  0.3827
  207MOL0     C27852   3.935   1.812   0.779  0.3044  0.3218 -0.2712
  207MOL0     C27853   4.063   1.789   0.862  0.7926 -0.0687 -0.3714
  207MOL0    Cl27854   4.140   1.643   0.796  0.2737 -0.2951 -0.0374
  207MOL0     C27855   3.154   1.654   0.664 -0.0149 -0.7897 -0.2898
  207MOL0     C27856   3.061   1.574   0.594 -0.9476  0.4239 -0.4765
  207MOL0     O27857   2.916   1.468   0.335 -0.4138  0.0982  0.3924
  207MOL0     C27858   2.721   1.288   0.293  0.1398  1.2719  0.9178
  207MOL0     C27859   2.615   1.197   0.278 -0.0999  0.1806  0.2678
  207MOL0     N27860   2.246   0.581   0.606  0.3801  0.2625  0.3471
  207MOL0     N27861   2.183   0.538   0.706 -0.4214  0.0685 -0.7544
  207MOL0     C27862   1.116   1.053   1.129  0.2069 -0.9550  0.2111
  207MOL0     C27863   0.980   1.041   1.101  0.0827 -0.5637  0.6062
  207MOL0     C27864   0.597   0.790   1.097 -0.6747  0.1002  0.6087
  207MOL0     C27865   0.599   0.717   0.982  0.1818  0.2693  0.1506
  207MOL0     C27866   0.488   0.641   0.943 -0.8622 -0.4528 -0.5344
  207MOL0     C27867   0.369   0.644   1.026 -0.8266  0.8498 -1.0391
  207MOL0     O27868   0.260   0.578   0.978  0.0740 -0.0664  0.6712
  207MOL0     C27869   0.134   0.622   1.026  0.2401 -0.2621  0.6913
  207MOL0     C27870   0.026   0.576   0.925  0.4045  0.3288 -0.7646
  207MOL0     C27871  -0.108   0.577   1.013 -0.1815  0.5454  0.0283
  207MOL0     C27872  -0.229   0.571   0.917  0.1961  0.5116  0.4218
  207MOL0     C27873  -0.351   0.626   0.994 -0.5721 -0.3235 -0.1858
  207MOL0     C27874  -0.437   0.651   1.080 -0.2335  0.3797  0.2107
  207MOL0     C27875   0.367   0.718   1.145  0.1816 -0.4746  0.8427
  207MOL0     C27876   0.486   0.787   1.189 -0.6154 -0.0174  0.7024
  207MOL0     C27877   0.466   0.860   1.315  0.8319  0.1149 -0.5405
  207MOL0     H27878   0.989   0.726   0.974  2.0960 -0.3718 -2.8700
  207MOL0     H27879   1.234   0.767   0.987 -0.0118  0.6770  0.2238
  207MOL0     H27880   1.396   0.889   1.293  1.8950 -1.6244  0.6197
  207MOL0     H27881   1.404   0.782   1.150  2.4225 -0.3905 -0.2619
  207MOL0     H27882   1.624   0.850   1.262  4.0660  1.4209 -0.5824
  207MOL0     H27883   1.607   1.012   1.200  0.6109 -0.1456 -1.9164
  207MOL0     H27884   1.576   0.932   0.967  1.9181  2.2324  0.7101
  207MOL0     H27885   1.590   0.768   1.009 -0.2302  0.3074 -1.3578
  207MOL0     H27886   1.795   0.912   0.924 -0.0781  1.3031 -0.4214
  207MOL0     H27887   1.814   0.949   1.094 -2.4379  2.7959 -1.1222
  207MOL0     H27888   1.828   0.707   1.140 -1.4540 -0.5190  0.0924
  207MOL0     H27889   1.763   0.670   0.981  0.2721 -0.6101 -0.6263
  207MOL0     H27890   1.969   0.759   0.874 -2.1848 -1.7231 -0.8995
  207MOL0     H27891   2.045   0.792   1.029  0.6283 -2.1788  1.5576
  207MOL0     H27892   1.964   0.515   0.939  1.1923 -0.5133  0.4150
  207MOL0     H27893   2.020   0.557   1.102  3.5927 -1.1211 -0.5569
  207MOL0     H27894   2.235   0.618   1.032 -2.3210  4.1621 -0.3573
  207MOL0     H27895   2.187   0.461   0.948  0.0029 -0.1990 -1.4602
  207MOL0     H27896   2.364   0.779   0.836 -1.8999 -0.3321  1.6407
  207MOL0     H27897   2.490   0.821   0.621 -1.3050  2.4090 -1.4780
  207MOL0     H27898   2.481   0.684   0.510  0.3185  0.9197  0.1161
  207MOL0     H27899   2.265   0.774   0.417  1.8366 -1.1286  0.1956
  207MOL0     H27900   2.303   0.925   0.495  0.6022  0.1080  0.2258
  207MOL0     H27901   2.469   0.804   0.280  0.3367  0.8826 -2.3580
  207MOL0     H27902   2.528   0.926   0.394 -0.0668 -0.7958  1.5217
  207MOL0     H27903   2.291   0.969   0.225  0.8794 -2.1195 -0.9644
  207MOL0     H27904   2.449   1.016   0.180  0.0435  0.7882  0.1625
  207MOL0     H27905   2.413   1.285   0.541 -1.1000 -1.3379 -0.4588
  207MOL0     H27906   2.604   1.421   0.582 -2.7354 -0.1509 -0.1311
  207MOL0     H27907   2.819   1.806   0.545  0.5698 -0.5097  0.7601
  207MOL0     H27908   2.993   1.957   0.662 -2.5514 -0.4677 -0.2320
  207MOL0     H27909   3.236   2.041   0.678  1.4923 -3.8166 -1.9048
  207MOL0     H27910   3.138   2.009   0.838 -0.9897 -0.7056  0.5605
  207MOL0     H27911   3.342   2.137   0.896 -1.4847 -0.5730  1.8634
  207MOL0     H27912   3.356   1.964   0.930 -1.9407 -0.1507  0.5279
  207MOL0     H27913   3.461   1.929   0.702 -2.8060  0.8795 -0.0616
  207MOL0     H27914   3.477   2.105   0.684 -0.7666  0.7960  0.7659
  207MOL0     H27915   3.602   1.996   0.932 -2.9759 -2.0423 -1.3258
  207MOL0     H27916   3.659   2.125   0.831  1.5431 -0.6591  1.4934
  207MOL0     H27917   3.718   1.962   0.655  0.2102  0.9686 -0.5690
  207MOL0     H27918   3.679   1.824   0.756  1.1199 -0.6675 -4.0785
  207MOL0     H27919   3.905   2.028   0.793 -1.5280  0.0504 -3.4468
  207MOL0     H27920   3.862   1.943   0.938  0.3273 -2.7538  0.6008
  207MOL0     H27921   3.950   1.825   0.671 -0.2778  1.3599 -0.2452
  207MOL0     H27922   3.868   1.725   0.787 -0.0985  0.3665 -2.4491
  207MOL0     H27923   4.130   1.873   0.841 -2.4532  2.9073  0.1044
  207MOL0     H27924   4.029   1.779   0.965 -1.4480  0.6360 -0.9685
  207MOL0     H27925   3.249   1.612   0.694 -0.8553 -2.1333  0.6319
  207MOL0     H27926   3.089   1.473   0.567 -0.2414  0.5332 -0.1633
  207MOL0     H27927   2.818   1.276   0.245  0.6630 -1.9346  2.5230
  207MOL0     H27928   2.623   1.116   0.207  0.2717 -0.0644  0.5796
  207MOL0     H27929   1.148   1.136   1.191  0.2074 -0.0756 -0.9251
  207MOL0     H27930   0.916   1.124   1.131  1.5757  0.2585  1.6666
  207MOL0     H27931   0.681   0.728   0.912  0.1575 -1.4840 -0.1983
  207MOL0     H27932   0.496   0.585   0.850  2.2157 -0.8236 -0.1339
  207MOL0     H27933   0.127   0.731   1.034  3.0013  0.0270  0.2497
  207MOL0     H27934   0.118   0.582   1.127 -2.0358 -0.7854  0.1638
  207MOL0     H27935   0.042   0.482   0.872 -1.3664 -0.1914 -0.4388
  207MOL0     H27936   0.021   0.660   0.856  0.1079 -0.9075 -2.2909
  207MOL0     H27937  -0.111   0.676   1.059 -0.1948  0.1027  1.0300
  207MOL0     H27938  -0.103   0.501   1.092 -0.8522  0.4809  0.0115
  207MOL0     H27939  -0.205   0.624   0.825  1.9259 -0.9828 -0.0688
  207MOL0     H27940  -0.244   0.465   0.894  2.4167  0.1540  0.3943
  207MOL0     H27941  -0.501   0.660   1.165  0.6015  1.2435  0.7778
  207MOL0     H27942   0.275   0.711   1.202 -1.7299 -0.3634 -2.0200
  207MOL0     H27943   0.368   0.849   1.362  1.8674 -2.1574  1.3482
  207MOL0     H27944   0.545   0.844   1.389 -0.2156  0.2296  0.6386
  207MOL0     H27945   0.478   0.966   1.292 -0.5257  0.0117 -1.8381
  208MOL0     O27946  10.661   5.491   5.509  0.6334  0.3256  0.0032
  208MOL0     C27947  10.673   5.397   5.433  1.0553  0.3179  0.7801
  208MOL0     O27948  10.787   5.336   5.397  0.2690  0.6451  0.6890
  208MOL0     C27949  10.908   5.385   5.429 -0.1243  0.1053 -0.8622
  208MOL0     C27950  10.969   5.493   5.361 -0.5192 -0.3276  0.2237
  208MOL0     C27951  11.100   5.531   5.387  0.7777  0.5156 -0.1749
  208MOL0     C27952  11.167   5.473   5.487  0.3959  0.0898  0.1684
  208MOL0     O27953  11.297   5.514   5.476 -0.7462  0.1196 -0.3388
  208MOL0     C27954  11.391   5.406   5.495  0.8131 -0.6698  0.2424
  208MOL0     C27955  11.523   5.459   5.465  0.2226  0.8825  0.4776
  208MOL0     C27956  11.633   5.353   5.494 -0.3944 -0.4351  0.3204
  208MOL0     C27957  11.637   5.233   5.401  0.4439 -0.5643 -0.3451
  208MOL0     C27958  11.772   5.152   5.400  0.9134 -0.1830 -0.4665
  208MOL0     C27959  11.787   5.066   5.281  0.3314  0.9443  0.2052
  208MOL0     C27960  11.929   5.003   5.278 -0.1460  0.5841  0.2091
  208MOL0     C27961  11.931   4.860   5.233  0.1110 -0.0573  0.2136
  208MOL0     N27962  11.899   4.854   5.087  0.0922 -0.2453 -0.2456
  208MOL0     C27963  11.974   4.786   4.999 -0.0568 -0.2486  0.8458
  208MOL0     C27964  11.924   4.816   4.876  0.6449 -0.4503  0.6618
  208MOL0     C27965  11.992   4.764   4.752  0.7281  0.2058  0.6564
  208MOL0     C27966  11.996   4.877   4.643  0.7359  0.0316  0.2083
  208MOL0     C27967  12.019   4.817   4.504  0.3571  0.5653  0.0356
  208MOL0     C27968  12.015   4.908   4.380 -0.5821 -0.6611 -0.6755
  208MOL0     O27969  12.020   4.844   4.255  0.2889 -0.2108  0.1712
  208MOL0     C27970  12.144   4.792   4.233  0.2505 -0.8951  0.1380
  208MOL0     C27971  12.166   4.656   4.255 -0.1432  0.6731 -0.1086
  208MOL0     C27972  12.293   4.591   4.236  0.6901  0.3520  0.5096
  208MOL0     C27973  12.402   4.659   4.187  0.1750  0.2091 -0.5578
  208MOL0     C27974  12.535   4.601   4.157  1.3798  0.6570 -0.1705
  208MOL0     O27975  12.634   4.677   4.108 -0.7586 -0.3226 -0.2481
  208MOL0     C27976  12.762   4.620   4.104  0.1651 -0.6178  0.1406
  208MOL0     C27977  12.839   4.681   4.004  0.3576 -0.2080 -0.7812
  208MOL0     C27978  12.982   4.633   3.982  1.1153  0.2968 -0.0380
  208MOL0     C27979  13.035   4.525   4.063 -0.3228  0.6195 -0.1254
  208MOL0     O27980  13.163   4.464   4.039  0.4008 -0.3571  0.4399
  208MOL0     C27981  13.212   4.497   3.913 -0.6767 -0.9023 -0.3112
  208MOL0     C27982  13.326   4.405   3.898 -0.3221  0.0081 -0.1050
  208MOL0     C27983  13.367   4.395   3.754 -0.2185  0.8748  0.6061
  208MOL0     C27984  13.489   4.307   3.741 -0.7795  0.3974  0.1585
  208MOL0     C27985  13.525   4.279   3.585  0.3333 -1.0162 -0.1067
  208MOL0     C27986  13.672   4.235   3.564 -0.1916 -0.8819  0.2023
  208MOL0     C27987  13.753   4.364   3.538 -0.3950 -0.2486  0.0351
  208MOL0     C27988  13.897   4.324   3.514 -0.7548  0.0564 -0.6256
  208MOL0    Cl27989  13.960   4.270   3.684  0.3351 -0.4608  0.4209
  208MOL0     C27990  12.954   4.473   4.162  1.0709 -0.8164  0.3735
  208MOL0     C27991  12.818   4.519   4.180  0.3261 -1.3838  0.3005
  208MOL0     O27992  12.535   4.481   4.163 -0.3851  0.6089 -0.1873
  208MOL0     C27993  12.381   4.802   4.161  0.1378  0.1216 -0.2913
  208MOL0     C27994  12.251   4.859   4.179  0.2648 -0.4651  0.3650
  208MOL0     N27995  11.811   4.892   4.893 -0.1598  0.4670  0.6057
  208MOL0     N27996  11.807   4.923   5.021  0.0075 -0.3480  0.3120
  208MOL0     C27997  11.116   5.368   5.564  0.8947 -0.0107  0.0076
  208MOL0     C27998  10.977   5.328   5.538 -1.1614 -1.1467 -0.8044
  208MOL0     C27999  10.541   5.336   5.381 -0.3045 -0.6924 -0.7370
  208MOL0     C28000  10.428   5.385   5.439  0.2528  0.6351 -0.7008
  208MOL0     C28001  10.305   5.317   5.412  0.0211  0.2989 -0.0674
  208MOL0     C28002  10.297   5.214   5.319  0.3412 -0.1313  1.1131
  208MOL0     O28003  10.172   5.173   5.281 -0.1029  0.3383 -0.1838
  208MOL0     C28004  10.159   5.055   5.205  1.0022  0.8289 -0.2970
  208MOL0     C28005  10.193   4.922   5.271 -0.1647 -0.4005  0.2133
  208MOL0     C28006  10.154   4.803   5.185 -0.4405 -0.3931 -0.3701
  208MOL0     C28007  10.187   4.676   5.270  0.7631 -0.2432  0.5319
  208MOL0     C28008  10.132   4.552   5.205  0.8995  0.2871  0.7120
  208MOL0     C28009  10.089   4.455   5.146  0.7995 -0.0768  0.5507
  208MOL0     C28010  10.414   5.176   5.257  0.1185  0.3512  0.4003
  208MOL0     C28011  10.535   5.234   5.287 -0.1418 -0.0932 -0.9702
  208MOL0     C28012  10.646   5.171   5.226 -0.2382  0.1999 -0.6682
  208MOL0     H28013  10.924   5.535   5.271  0.5143  0.5203  0.0871
  208MOL0     H28014  11.144   5.607   5.323 -2.3733  2.4811 -0.2574
  208MOL0     H28015  11.392   5.360   5.595 -0.4839 -1.5104 -0.1125
  208MOL0     H28016  11.377   5.329   5.419  1.3480 -0.1960 -0.3496
  208MOL0     H28017  11.543   5.553   5.518 -1.1961  0.8367  1.1448
  208MOL0     H28018  11.529   5.492   5.361  0.0216  0.6659  0.3949
  208MOL0     H28019  11.626   5.320   5.598  0.5869  1.1924  0.9553
  208MOL0     H28020  11.727   5.410   5.490 -0.0054 -1.0832  0.1746
  208MOL0     H28021  11.557   5.161   5.420 -2.8517  2.4687 -1.6363
  208MOL0     H28022  11.624   5.264   5.297 -2.3162 -1.7930 -0.4338
  208MOL0     H28023  11.851   5.228   5.399 -0.5497  1.3962 -0.9559
  208MOL0     H28024  11.785   5.094   5.491  1.7788  2.7436  1.4220
  208MOL0     H28025  11.704   4.995   5.278  1.5595 -0.5713  0.8403
  208MOL0     H28026  11.770   5.119   5.187  1.2137  0.3985 -0.2801
  208MOL0     H28027  11.963   5.000   5.382 -1.3164  0.3583  0.5984
  208MOL0     H28028  12.001   5.067   5.227  0.0289  0.6765  0.5695
  208MOL0     H28029  12.025   4.812   5.262 -1.0382 -2.4316  0.2544
  208MOL0     H28030  11.850   4.808   5.285 -1.0242  0.1857 -1.2364
  208MOL0     H28031  12.069   4.734   5.001  0.0326 -0.0986  0.5699
  208MOL0     H28032  12.098   4.739   4.768  1.3162  1.5004 -0.8731
  208MOL0     H28033  11.929   4.679   4.724 -0.6608  1.6885 -0.9291
  208MOL0     H28034  11.901   4.933   4.642  0.3783 -0.5040 -2.2762
  208MOL0     H28035  12.079   4.944   4.668 -0.3590  2.0039 -1.1567
  208MOL0     H28036  11.940   4.744   4.484 -3.5578  4.3364  0.5266
  208MOL0     H28037  12.110   4.755   4.506  0.7003  0.8021 -3.0567
  208MOL0     H28038  12.100   4.977   4.387 -0.2860 -1.1705  3.1049
  208MOL0     H28039  11.921   4.963   4.391 -0.8618 -1.5815  2.5090
  208MOL0     H28040  12.074   4.603   4.280  0.0740  0.7696  0.9485
  208MOL0     H28041  12.305   4.487   4.266  2.9558  0.4636  0.1893
  208MOL0     H28042  12.799   4.762   3.943  1.6959  1.1108  0.0282
  208MOL0     H28043  13.037   4.682   3.902  0.0667  2.3214  0.3963
  208MOL0     H28044  13.141   4.482   3.831  0.8666 -0.5746 -1.7687
  208MOL0     H28045  13.249   4.599   3.895 -2.0004 -0.5573 -1.2228
  208MOL0     H28046  13.416   4.439   3.951  0.6172 -2.3994  0.0153
  208MOL0     H28047  13.301   4.306   3.939  0.2420 -0.1553 -0.1410
  208MOL0     H28048  13.292   4.362   3.681 -0.8573  3.2792  0.0836
  208MOL0     H28049  13.384   4.492   3.706 -0.2060  0.1826 -0.8631
  208MOL0     H28050  13.470   4.212   3.791 -0.4578 -0.8384 -1.9716
  208MOL0     H28051  13.570   4.362   3.791 -2.3610  2.4329  0.6383
  208MOL0     H28052  13.501   4.368   3.527  1.3050 -0.2582  0.6219
  208MOL0     H28053  13.467   4.194   3.548  1.4355 -1.3942 -1.0278
  208MOL0     H28054  13.714   4.188   3.653  5.8214  1.4108 -0.9256
  208MOL0     H28055  13.670   4.174   3.473 -2.4624 -0.4866 -0.0846
  208MOL0     H28056  13.740   4.431   3.624 -2.1010 -1.4920  0.7959
  208MOL0     H28057  13.718   4.423   3.453 -0.1721 -0.2865 -0.0851
  208MOL0     H28058  13.916   4.241   3.446  4.2055  0.2706  0.1286
  208MOL0     H28059  13.960   4.408   3.482  0.4230 -1.0004 -1.1606
  208MOL0     H28060  12.980   4.389   4.225 -2.0900 -1.4517  1.0072
  208MOL0     H28061  12.766   4.475   4.264 -1.0096 -1.5802 -0.6004
  208MOL0     H28062  12.459   4.872   4.137 -2.1622  2.9013 -0.1340
  208MOL0     H28063  12.232   4.965   4.170  2.2031 -0.2263 -1.8180
  208MOL0     H28064  11.181   5.323   5.639  0.4189  1.4273  1.3372
  208MOL0     H28065  10.935   5.241   5.586 -2.4157 -1.4310 -2.3289
  208MOL0     H28066  10.420   5.465   5.513 -1.3841  0.5761 -0.7754
  208MOL0     H28067  10.211   5.357   5.449  1.2363  2.9414  0.4070
  208MOL0     H28068  10.214   5.052   5.111  0.1413 -3.3177 -0.8556
  208MOL0     H28069  10.055   5.043   5.174  0.3934  0.8250  1.5624
  208MOL0     H28070  10.133   4.918   5.362 -2.5310 -0.0477 -1.2586
  208MOL0     H28071  10.297   4.923   5.304  0.2575  2.8461 -0.8819
  208MOL0     H28072  10.219   4.802   5.097 -0.3215  3.1729 -0.4390
  208MOL0     H28073  10.053   4.798   5.144  0.4150 -1.1834 -2.5332
  208MOL0     H28074  10.295   4.675   5.285  0.7633  2.9487  1.4069
  208MOL0     H28075  10.148   4.675   5.372  1.6038 -0.2084  0.8533
  208MOL0     H28076  10.050   4.370   5.093  0.7629 -0.8838  1.8169
  208MOL0     H28077  10.404   5.109   5.172 -0.9100 -0.8984  1.4557
  208MOL0     H28078  10.617   5.098   5.149 -0.2244 -0.1395 -0.3551
  208MOL0     H28079  10.718   5.240   5.180  2.1143 -1.0733  0.8942
  208MOL0     H28080  10.697   5.121   5.309 -1.4014  3.5314  2.3100
  209MOL0     O28081   3.779   9.654   3.888  0.4825  0.8547  0.8031
  209MOL0     C28082   3.689   9.648   3.805  0.5440 -0.2413 -0.6450
  209MOL0     O28083   3.708   9.611   3.675 -0.2094  0.1268 -0.1508
  209MOL0     C28084   3.825   9.550   3.646  0.2589  0.5489 -0.0143
  209MOL0     C28085   3.845   9.413   3.651 -0.3316 -0.0659 -0.2112
  209MOL0     C28086   3.965   9.357   3.611  0.3773 -0.2689 -0.0906
  209MOL0     C28087   4.072   9.437   3.577 -0.3957 -0.1967 -0.7276
  209MOL0     O28088   4.185   9.374   3.533 -1.1234 -0.1361  0.4980
  209MOL0     C28089   4.305   9.449   3.574  0.2059 -0.3053  0.8866
  209MOL0     C28090   4.420   9.345   3.608  0.1460  0.4079  0.0559
  209MOL0     C28091   4.497   9.316   3.476  0.3416 -0.1162  0.8997
  209MOL0     C28092   4.636   9.253   3.500  0.5822  0.4494 -0.3958
  209MOL0     C28093   4.713   9.235   3.367  0.3504  0.1647 -0.2437
  209MOL0     C28094   4.858   9.206   3.399  1.0372  0.3418 -0.6280
  209MOL0     C28095   4.946   9.221   3.268 -0.5350  0.3031  0.2962
  209MOL0     C28096   5.095   9.165   3.293 -0.7714 -1.4048  0.2504
  209MOL0     N28097   5.176   9.270   3.352  0.2482 -0.1833  0.1491
  209MOL0     C28098   5.264   9.356   3.299 -0.0812 -0.1330  0.4928
  209MOL0     C28099   5.344   9.406   3.408  0.1046  0.2383 -0.3218
  209MOL0     C28100   5.457   9.505   3.397 -0.2827 -0.4714 -0.7340
  209MOL0     C28101   5.581   9.458   3.315  0.4156 -0.0871  0.0686
  209MOL0     C28102   5.690   9.569   3.326  0.3844 -0.1367  0.2806
  209MOL0     C28103   5.823   9.546   3.257 -0.0100  0.5652  0.0464
  209MOL0     O28104   5.921   9.630   3.325 -0.1548  0.3925  0.4566
  209MOL0     C28105   6.056   9.613   3.293  0.6758  0.0492  0.1005
  209MOL0     C28106   6.162   9.695   3.339  0.7750 -0.0674 -0.8331
  209MOL0     C28107   6.302   9.659   3.327  0.3564 -0.8577  0.4291
  209MOL0     C28108   6.343   9.551   3.251 -0.0546  0.2501 -0.3878
  209MOL0     C28109   6.481   9.509   3.233 -0.2178 -0.7676 -0.2755
  209MOL0     O28110   6.576   9.609   3.269  0.3593 -0.1279  0.2822
  209MOL0     C28111   6.704   9.582   3.240 -0.1355  0.8828  0.0436
  209MOL0     C28112   6.773   9.485   3.308 -0.0754 -0.1501 -0.0094
  209MOL0     C28113   6.896   9.448   3.268 -0.6582 -0.4858 -0.4107
  209MOL0     C28114   6.973   9.517   3.175  0.3944  0.5486 -0.3940
  209MOL0     O28115   7.087   9.451   3.141 -0.5464 -0.0888  0.4109
  209MOL0     C28116   7.174   9.534   3.060 -0.3280 -0.2470  0.3969
  209MOL0     C28117   7.238   9.658   3.130 -0.5163  0.7522  0.0055
  209MOL0     C28118   7.306   9.628   3.265  0.1504 -1.1506  1.0490
  209MOL0     C28119   7.346   9.756   3.329  0.2658  0.1117 -0.8073
  209MOL0     C28120   7.487   9.791   3.295 -0.4174 -0.0361 -0.0853
  209MOL0     C28121   7.516   9.929   3.357  0.3090  0.2822 -0.7286
  209MOL0     C28122   7.659   9.973   3.318 -0.1321 -0.5182 -0.1219
  209MOL0     C28123   7.766   9.937   3.422  0.0675  0.1286 -0.3585
  209MOL0    Cl28124   7.920   9.997   3.362 -0.0175  0.2751  0.2042
  209MOL0     C28125   6.904   9.624   3.104 -0.1805  0.6121 -0.0069
  209MOL0     C28126   6.767   9.652   3.134  0.1090 -0.3982  0.0303
  209MOL0     O28127   6.507   9.406   3.173  0.0425 -0.2897  0.0686
  209MOL0     C28128   6.233   9.468   3.192  0.7186 -0.0793 -0.3170
  209MOL0     C28129   6.094   9.501   3.209 -0.3590 -0.2888 -0.3863
  209MOL0     N28130   5.284   9.356   3.524 -0.0670 -0.5268  0.6053
  209MOL0     N28131   5.174   9.292   3.490 -1.0469  0.7275  0.2836
  209MOL0     C28132   4.053   9.575   3.576 -0.0314  0.0564 -0.0020
  209MOL0     C28133   3.928   9.638   3.603  0.6259  0.1323 -0.1825
  209MOL0     C28134   3.552   9.699   3.846 -0.0605 -0.8860  0.1176
  209MOL0     C28135   3.469   9.770   3.752 -1.0867 -0.0587 -0.2560
  209MOL0     C28136   3.342   9.816   3.789 -0.1138  0.9417  0.3123
  209MOL0     C28137   3.280   9.776   3.913  0.0029 -0.3398  0.1634
  209MOL0     O28138   3.157   9.818   3.955  0.9617 -0.5080 -0.2517
  209MOL0     C28139   3.082   9.893   3.865  0.6787 -1.0346  0.6136
  209MOL0     C28140   2.949   9.930   3.927 -0.2942  0.8949  0.5178
  209MOL0     C28141   2.879   9.800   3.969 -0.3955  0.1046 -0.7090
  209MOL0     C28142   2.750   9.829   4.044  0.3074  0.0604 -0.3950
  209MOL0     C28143   2.672   9.706   4.070 -0.7142 -0.0163 -0.3889
  209MOL0     C28144   2.609   9.606   4.107 -0.1800  1.1254  0.6224
  209MOL0     C28145   3.367   9.709   4.003  0.3954 -0.7166 -0.2442
  209MOL0     C28146   3.495   9.672   3.976 -0.6462 -0.1361  0.0493
  209MOL0     C28147   3.565   9.584   4.071 -0.1815  0.3628 -0.6651
  209MOL0     H28148   3.760   9.350   3.674 -1.4123  1.4433  0.1393
  209MOL0     H28149   3.965   9.249   3.603  1.2964 -0.3825  1.2099
  209MOL0     H28150   4.331   9.524   3.499 -2.9151  1.5901  1.5271
  209MOL0     H28151   4.281   9.502   3.666 -2.1982 -0.1261  0.2194
  209MOL0     H28152   4.370   9.254   3.643  1.9028  0.1065  1.9947
  209MOL0     H28153   4.492   9.383   3.681  1.9759  0.4378 -1.6606
  209MOL0     H28154   4.502   9.411   3.421  1.7665 -1.4927 -1.4918
  209MOL0     H28155   4.430   9.260   3.410 -1.6560  2.0586  0.9295
  209MOL0     H28156   4.696   9.317   3.564  1.6477  1.4361 -2.2780
  209MOL0     H28157   4.624   9.158   3.553  2.5961  1.5408  2.2366
  209MOL0     H28158   4.668   9.151   3.313  1.6581 -1.3531  0.9402
  209MOL0     H28159   4.704   9.319   3.297 -1.6060 -1.5264 -2.1841
  209MOL0     H28160   4.905   9.276   3.468  1.3541 -0.4020 -0.0742
  209MOL0     H28161   4.865   9.106   3.443  1.3157  0.3892 -0.5643
  209MOL0     H28162   4.967   9.325   3.242  0.2658  0.0325 -0.1890
  209MOL0     H28163   4.889   9.165   3.194 -0.9101 -0.8242  1.3988
  209MOL0     H28164   5.094   9.079   3.360  0.7675 -1.8229 -0.2183
  209MOL0     H28165   5.142   9.140   3.197  0.1012  0.4384  0.1468
  209MOL0     H28166   5.279   9.392   3.197  0.6760  0.5563  0.8374
  209MOL0     H28167   5.414   9.593   3.349 -2.9024  0.2806  2.5774
  209MOL0     H28168   5.481   9.534   3.500  0.7308 -1.1927 -0.7494
  209MOL0     H28169   5.613   9.360   3.352 -0.7376 -0.5601 -0.1141
  209MOL0     H28170   5.549   9.439   3.212  0.3552  0.0874  0.0549
  209MOL0     H28171   5.724   9.580   3.430  4.2792 -1.7256 -0.6337
  209MOL0     H28172   5.655   9.666   3.290 -0.0745 -0.8572 -1.2775
  209MOL0     H28173   5.823   9.571   3.151  2.4364  2.2343  0.3550
  209MOL0     H28174   5.848   9.442   3.283  2.0969  0.6287 -1.4597
  209MOL0     H28175   6.133   9.781   3.399 -3.2309 -2.5070  1.1404
  209MOL0     H28176   6.377   9.721   3.375 -0.4453  1.2924 -0.9481
  209MOL0     H28177   6.726   9.438   3.394  0.9331 -1.3775 -0.0922
  209MOL0     H28178   6.945   9.362   3.313  0.6682  1.0723  1.2432
  209MOL0     H28179   7.261   9.478   3.027  1.0142  1.8871  0.1556
  209MOL0     H28180   7.123   9.566   2.969  0.7867  1.7450  0.4295
  209MOL0     H28181   7.307   9.707   3.062 -1.6578  4.0923  1.0298
  209MOL0     H28182   7.155   9.729   3.144 -1.7671 -0.7131  0.3085
  209MOL0     H28183   7.238   9.565   3.323 -1.3945  0.7057  1.3194
  209MOL0     H28184   7.392   9.563   3.246  1.8007  0.6196  2.0932
  209MOL0     H28185   7.339   9.745   3.438 -2.9200  3.0376 -0.5207
  209MOL0     H28186   7.286   9.843   3.300 -0.4155  0.1477  0.6098
  209MOL0     H28187   7.502   9.800   3.187  2.5545  1.3699  0.3440
  209MOL0     H28188   7.552   9.716   3.341 -0.3390 -0.5436 -1.0057
  209MOL0     H28189   7.442  10.006   3.336 -0.2888  2.0508  5.7279
  209MOL0     H28190   7.498   9.915   3.464 -0.0398  1.0866 -0.6772
  209MOL0     H28191   7.646  10.081   3.324 -0.0133 -0.5856  2.3257
  209MOL0     H28192   7.693   9.935   3.221 -1.6660 -2.3901  0.0164
  209MOL0     H28193   7.741   9.970   3.523  0.4478 -0.2783 -0.1335
  209MOL0     H28194   7.782   9.829   3.429 -0.2898  0.1645  1.7132
  209MOL0     H28195   6.956   9.692   3.038 -2.0444  0.8555 -1.2920
  209MOL0     H28196   6.715   9.732   3.082  1.5147 -0.2015 -1.1238
  209MOL0     H28197   6.256   9.397   3.113 -0.1677 -1.2546  0.4601
  209MOL0     H28198   6.023   9.423   3.182 -2.1589  0.9513  0.5864
  209MOL0     H28199   4.125   9.649   3.543 -1.0557 -0.2552 -3.2892
  209MOL0     H28200   3.912   9.745   3.592  2.8135  0.9749  3.1537
  209MOL0     H28201   3.513   9.814   3.664 -1.6613  2.3364  0.5705
  209MOL0     H28202   3.293   9.880   3.717 -0.5158 -1.5584 -1.7850
  209MOL0     H28203   3.062   9.847   3.767 -0.5784  2.9854 -1.2429
  209MOL0     H28204   3.138   9.983   3.837 -1.8496  0.6046  0.4565
  209MOL0     H28205   2.892   9.989   3.856  3.0162  2.1620 -1.2984
  209MOL0     H28206   2.971   9.999   4.009  0.6338 -0.5893  1.5656
  209MOL0     H28207   2.939   9.740   4.038 -1.5751  2.2995  2.4366
  209MOL0     H28208   2.860   9.742   3.878  0.0467 -1.2278  0.0187
  209MOL0     H28209   2.763   9.873   4.144 -1.4289 -1.0222  0.3652
  209MOL0     H28210   2.687   9.901   3.991 -0.2569  1.3862  1.9407
  209MOL0     H28211   2.574   9.508   4.130  0.3392  0.9829  0.8035
  209MOL0     H28212   3.335   9.690   4.105 -0.1864  2.0138  0.1634
  209MOL0     H28213   3.609   9.500   4.017  3.2390  0.2806  1.8613
  209MOL0     H28214   3.635   9.636   4.137 -2.0242  1.0367  0.8498
  209MOL0     H28215   3.487   9.537   4.130 -0.2658  1.2926 -0.0079
  210MOL0     O28216  11.267   3.883   1.600 -0.1473  0.3477  0.2813
  210MOL0     C28217  11.254   3.854   1.716 -0.4120 -0.5017  0.3212
  210MOL0     O28218  11.350   3.852   1.811 -0.5094  0.3831  0.3941
  210MOL0     C28219  11.482   3.898   1.789  0.8117  0.5240 -0.5675
  210MOL0     C28220  11.551   3.924   1.907 -0.6413 -1.5460 -0.7232
  210MOL0     C28221  11.684   3.973   1.893 -0.2458 -0.5147 -0.3881
  210MOL0     C28222  11.751   3.995   1.769  0.5750  0.0387  0.5461
  210MOL0     O28223  11.881   4.051   1.777 -0.5155 -0.1397 -0.4495
  210MOL0     C28224  11.973   3.993   1.692  0.0116 -0.4892 -0.0394
  210MOL0     C28225  12.098   3.958   1.777 -0.1837 -0.5770  0.3853
  210MOL0     C28226  12.208   4.056   1.756 -1.0807 -0.4904 -0.3328
  210MOL0     C28227  12.342   4.007   1.830 -0.0404  0.0096 -0.0065
  210MOL0     C28228  12.458   4.100   1.807  0.0192 -0.0558  0.4348
  210MOL0     C28229  12.585   4.038   1.872 -0.1681 -0.5061  0.1266
  210MOL0     C28230  12.697   4.122   1.822  0.0823 -0.6493  0.4618
  210MOL0     C28231  12.834   4.066   1.866 -0.0032  0.5202  0.5018
  210MOL0     N28232  12.856   3.936   1.809  0.1576  0.2589 -1.2636
  210MOL0     C28233  12.889   3.902   1.679 -0.0366  0.1216 -0.4773
  210MOL0     C28234  12.879   3.766   1.673  0.3480  0.1686  0.1467
  210MOL0     C28235  12.877   3.689   1.546  0.4889 -0.3559 -0.2833
  210MOL0     C28236  12.734   3.641   1.510 -1.1614 -0.0845  0.4207
  210MOL0     C28237  12.704   3.645   1.359  0.3484 -0.2757 -0.4456
  210MOL0     C28238  12.571   3.582   1.327 -0.4815  0.0537 -1.1933
  210MOL0     O28239  12.559   3.563   1.180  0.1081  0.5455 -0.1051
  210MOL0     C28240  12.431   3.568   1.127 -0.3116 -0.8942 -0.2168
  210MOL0     C28241  12.393   3.633   1.008 -0.9359 -0.9796 -0.0590
  210MOL0     C28242  12.265   3.633   0.959  0.6524  0.2670 -0.5841
  210MOL0     C28243  12.156   3.562   1.027  0.1741 -0.1044 -0.0812
  210MOL0     C28244  12.012   3.557   0.981 -0.2974  0.2463  0.2589
  210MOL0     O28245  11.912   3.466   1.027 -0.2812 -0.1744 -0.0559
  210MOL0     C28246  11.782   3.492   0.995  0.2159 -0.1039 -0.1958
  210MOL0     C28247  11.697   3.576   1.067  0.3365  0.1681 -0.0906
  210MOL0     C28248  11.559   3.571   1.041  0.0339 -0.0387 -0.4949
  210MOL0     C28249  11.512   3.492   0.930 -0.0861  0.4187  0.0606
  210MOL0     O28250  11.381   3.502   0.900  0.3244 -0.0697 -0.3015
  210MOL0     C28251  11.317   3.403   0.836  0.2102  0.3031 -0.0486
  210MOL0     C28252  11.171   3.431   0.848  0.2626 -0.4808 -0.5415
  210MOL0     C28253  11.116   3.388   0.985  0.9138 -0.1797  0.5401
  210MOL0     C28254  10.969   3.418   0.989  0.0077  0.8679  0.7055
  210MOL0     C28255  10.881   3.329   0.900  0.1577 -0.7653 -0.0502
  210MOL0     C28256  10.726   3.352   0.916 -0.0493  0.1242 -0.6744
  210MOL0     C28257  10.678   3.301   1.051  0.2749 -0.5629  0.9740
  210MOL0     C28258  10.520   3.304   1.066 -0.2338  0.4499 -0.0853
  210MOL0    Cl28259  10.441   3.466   1.010 -0.2114 -0.2140 -0.4244
  210MOL0     C28260  11.599   3.418   0.844  0.3948  0.9309 -0.1727
  210MOL0     C28261  11.732   3.427   0.882  0.0547  0.6628 -0.1014
  210MOL0     O28262  11.988   3.643   0.903  0.2037 -0.0557  0.2624
  210MOL0     C28263  12.192   3.501   1.150 -0.4174 -0.3485  0.5611
  210MOL0     C28264  12.325   3.513   1.202 -0.4544 -0.1090  0.6924
  210MOL0     N28265  12.847   3.722   1.798 -1.0176  0.5456 -0.9955
  210MOL0     N28266  12.829   3.819   1.875  0.4743  0.6900  0.3813
  210MOL0     C28267  11.680   3.962   1.650 -1.1334 -0.5705 -0.3387
  210MOL0     C28268  11.548   3.912   1.666  0.5273 -0.1283  0.0449
  210MOL0     C28269  11.123   3.824   1.772  0.9593  0.3228  0.1907
  210MOL0     C28270  11.078   3.871   1.904  0.0275 -0.1476 -0.3192
  210MOL0     C28271  10.950   3.853   1.951 -0.0717  1.0076  0.2558
  210MOL0     C28272  10.851   3.794   1.869 -0.3806 -0.2266  0.1982
  210MOL0     O28273  10.724   3.777   1.917 -0.5090  0.0326  0.1046
  210MOL0     C28274  10.650   3.655   1.883 -0.1795 -0.8927 -0.6316
  210MOL0     C28275  10.550   3.636   1.989  0.2840 -0.0550 -0.4846
  210MOL0     C28276  10.449   3.752   1.985 -0.1179 -0.4279 -0.7630
  210MOL0     C28277  10.336   3.757   2.081 -0.5978  0.3490 -0.0550
  210MOL0     C28278  10.220   3.698   2.021  0.4149  0.3005 -0.6967
  210MOL0     C28279  10.125   3.647   1.966 -0.1005 -0.2379  0.1156
  210MOL0     C28280  10.893   3.745   1.746 -0.0967 -0.5095  0.3590
  210MOL0     C28281  11.021   3.748   1.697 -0.3790 -0.5164  0.1210
  210MOL0     C28282  11.035   3.680   1.564  0.1933 -0.4775  0.7530
  210MOL0     H28283  11.510   3.911   2.007  0.1853 -1.0028 -0.3094
  210MOL0     H28284  11.732   4.000   1.986  0.8753  0.0277 -1.1021
  210MOL0     H28285  11.947   3.893   1.654  0.7729 -0.2064 -1.3782
  210MOL0     H28286  12.008   4.059   1.612 -0.5090  0.2766  0.3534
  210MOL0     H28287  12.132   3.856   1.760 -1.7788 -1.3279  1.5085
  210MOL0     H28288  12.069   3.955   1.883 -2.6189  0.7503 -0.1711
  210MOL0     H28289  12.187   4.157   1.790 -0.0694  0.2882 -1.8995
  210MOL0     H28290  12.227   4.066   1.649 -0.8400 -1.4136 -0.3889
  210MOL0     H28291  12.326   3.983   1.936 -0.3666 -1.0688 -0.2883
  210MOL0     H28292  12.354   3.907   1.788 -1.2111 -0.0621 -0.2144
  210MOL0     H28293  12.469   4.102   1.699  1.0286 -1.0415  0.4959
  210MOL0     H28294  12.441   4.199   1.850 -0.5433 -0.7058  1.7693
  210MOL0     H28295  12.585   4.039   1.981  0.5380 -1.5115  0.1507
  210MOL0     H28296  12.596   3.936   1.832  1.9036  0.7788 -3.0488
  210MOL0     H28297  12.670   4.227   1.838 -2.8939 -1.3610  0.6686
  210MOL0     H28298  12.700   4.100   1.715  3.5183 -0.3439  0.3881
  210MOL0     H28299  12.915   4.133   1.839  1.3489  0.1915  3.3499
  210MOL0     H28300  12.843   4.057   1.975 -1.3722 -0.5461  0.5620
  210MOL0     H28301  12.904   3.976   1.601  0.7098  1.5593  0.9737
  210MOL0     H28302  12.912   3.761   1.472 -2.4927  1.7667  0.2121
  210MOL0     H28303  12.942   3.601   1.545 -0.0071 -0.7431 -1.4634
  210MOL0     H28304  12.734   3.538   1.546 -1.8050  0.2117  1.3301
  210MOL0     H28305  12.660   3.702   1.562 -0.8846  0.1060  0.5927
  210MOL0     H28306  12.776   3.593   1.296  1.8734  0.7418  0.3955
  210MOL0     H28307  12.704   3.747   1.319  0.4893 -0.6262 -1.3627
  210MOL0     H28308  12.491   3.642   1.371 -1.0045 -0.8675 -0.8551
  210MOL0     H28309  12.571   3.487   1.381  2.8345  1.7524  2.2906
  210MOL0     H28310  12.464   3.690   0.950 -1.1852 -1.4489 -0.8419
  210MOL0     H28311  12.240   3.689   0.870  0.0157 -1.4654 -1.5383
  210MOL0     H28312  11.736   3.634   1.150  1.1465  1.4677 -1.3293
  210MOL0     H28313  11.487   3.638   1.087 -1.7349  0.0857 -3.2233
  210MOL0     H28314  11.349   3.404   0.731  0.0095 -0.0616 -0.1140
  210MOL0     H28315  11.351   3.311   0.884 -0.5055  0.6510  1.1570
  210MOL0     H28316  11.156   3.538   0.836 -2.8333 -0.6811  0.6288
  210MOL0     H28317  11.132   3.379   0.760  1.2706 -0.8429 -0.7946
  210MOL0     H28318  11.135   3.281   0.991 -0.6119 -0.4081  2.0369
  210MOL0     H28319  11.167   3.436   1.069  2.3347  0.3030 -0.5438
  210MOL0     H28320  10.949   3.524   0.968 -2.5771  0.5810  1.3094
  210MOL0     H28321  10.936   3.403   1.092 -1.3235 -0.2597  0.1504
  210MOL0     H28322  10.895   3.223   0.923 -3.3293 -0.8649  2.4592
  210MOL0     H28323  10.909   3.330   0.794 -0.5716  0.4778 -0.2467
  210MOL0     H28324  10.704   3.459   0.916 -1.2323 -0.0816 -2.2146
  210MOL0     H28325  10.671   3.291   0.844 -0.4735 -0.2312 -0.0678
  210MOL0     H28326  10.723   3.366   1.127  2.6433  0.2144 -0.9848
  210MOL0     H28327  10.712   3.200   1.074 -0.8435 -1.1285  0.2279
  210MOL0     H28328  10.486   3.216   1.011  1.5383 -1.2006  1.3626
  210MOL0     H28329  10.489   3.289   1.170  2.8844 -2.7543  0.5629
  210MOL0     H28330  11.568   3.365   0.754 -2.7588  0.5801  1.0032
  210MOL0     H28331  11.796   3.374   0.814 -0.5015  0.1530 -0.2330
  210MOL0     H28332  12.116   3.452   1.209  1.2421 -1.3190  2.0091
  210MOL0     H28333  12.334   3.459   1.296 -2.1948 -1.0271  0.3819
  210MOL0     H28334  11.714   3.987   1.550 -0.7174  0.1055 -0.0366
  210MOL0     H28335  11.499   3.890   1.572 -0.9786 -0.1561  0.8019
  210MOL0     H28336  11.158   3.917   1.961  1.0623  1.3742 -2.8121
  210MOL0     H28337  10.921   3.881   2.052  1.8512  1.6612  0.6637
  210MOL0     H28338  10.710   3.563   1.881  0.4895 -0.4636 -0.4255
  210MOL0     H28339  10.611   3.663   1.781 -1.0240 -1.3828 -0.3536
  210MOL0     H28340  10.600   3.628   2.086  1.1054  0.4477 -0.8613
  210MOL0     H28341  10.494   3.542   1.982  1.4133 -1.0143  2.2487
  210MOL0     H28342  10.403   3.743   1.886  2.1529 -3.2694 -1.7136
  210MOL0     H28343  10.501   3.847   2.001  0.3885 -0.9530  0.9707
  210MOL0     H28344  10.360   3.694   2.168  0.1199 -0.7940 -1.0491
  210MOL0     H28345  10.301   3.850   2.127  1.3534 -0.0142  2.4135
  210MOL0     H28346  10.049   3.604   1.904  0.4104 -0.4377 -0.3788
  210MOL0     H28347  10.812   3.711   1.682  0.7104 -2.0850  0.1259
  210MOL0     H28348  11.052   3.744   1.476 -0.1804 -3.1973 -1.4574
  210MOL0     H28349  11.121   3.612   1.567 -0.9921 -2.0429  0.6598
  210MOL0     H28350  10.944   3.625   1.538  1.6042 -1.0900 -3.8160
  211MOL0     O28351   2.870   6.316   6.122  0.1608  0.5963 -0.2140
  211MOL0     C28352   2.967   6.326   6.196 -0.0037 -0.5480 -0.0880
  211MOL0     O28353   2.971   6.303   6.337 -0.4276  0.0804 -0.1446
  211MOL0     C28354   2.849   6.291   6.397  0.7014  1.7307  0.3413
  211MOL0     C28355   2.772   6.400   6.441 -0.1634 -0.0074  0.1382
  211MOL0     C28356   2.660   6.376   6.520  0.9318 -0.1587  0.0998
  211MOL0     C28357   2.628   6.249   6.567  0.6595  0.1980 -0.6948
  211MOL0     O28358   2.520   6.215   6.647 -0.0303  0.4847  0.0848
  211MOL0     C28359   2.390   6.266   6.624 -0.4603  0.4297 -0.5543
  211MOL0     C28360   2.299   6.202   6.737  0.1102 -0.6055 -0.1775
  211MOL0     C28361   2.175   6.282   6.784 -1.0076  0.2478 -0.2540
  211MOL0     C28362   2.070   6.301   6.673 -0.6276 -0.1535 -0.0932
  211MOL0     C28363   1.956   6.371   6.738 -0.5241 -0.5749  0.3846
  211MOL0     C28364   1.852   6.420   6.638  0.6797  0.1838 -0.7818
  211MOL0     C28365   1.733   6.323   6.641  0.8358  0.1262 -0.5485
  211MOL0     C28366   1.630   6.365   6.751  0.5048 -0.4551  0.1201
  211MOL0     N28367   1.561   6.496   6.725  0.1857 -0.2103  0.5273
  211MOL0     C28368   1.529   6.593   6.823  0.0966 -0.0445 -0.6645
  211MOL0     C28369   1.451   6.682   6.758  0.4717 -0.2373  0.4263
  211MOL0     C28370   1.375   6.794   6.825  0.0400  0.5669 -0.5157
  211MOL0     C28371   1.475   6.903   6.861 -0.2990  0.3573 -0.0534
  211MOL0     C28372   1.536   6.885   6.997 -0.4866  0.0895  0.1587
  211MOL0     C28373   1.674   6.921   7.000  1.0119 -0.1430  0.4570
  211MOL0     O28374   1.753   6.830   6.933 -0.7325  0.3468 -0.1247
  211MOL0     C28375   1.884   6.869   6.895  0.1320  0.5379 -0.1948
  211MOL0     C28376   1.941   6.996   6.884 -0.2453  0.6409 -0.1029
  211MOL0     C28377   2.075   7.009   6.846  0.9835 -0.3844 -0.5190
  211MOL0     C28378   2.160   6.902   6.795  0.8390 -0.8248 -0.9137
  211MOL0     C28379   2.294   6.927   6.747  0.5116 -0.0966  1.3650
  211MOL0     O28380   2.361   6.812   6.699 -0.6636 -0.4590  0.5725
  211MOL0     C28381   2.489   6.831   6.657  0.6652  0.7129 -0.0960
  211MOL0     C28382   2.590   6.849   6.752 -0.2765  0.4685  0.5752
  211MOL0     C28383   2.723   6.822   6.710  0.4114  0.1401 -0.5365
  211MOL0     C28384   2.756   6.790   6.577 -1.1718 -0.4299 -0.1489
  211MOL0     O28385   2.890   6.778   6.552 -0.1588  0.6045 -0.0533
  211MOL0     C28386   2.939   6.753   6.420  0.6968 -0.4513  1.0312
  211MOL0     C28387   3.068   6.667   6.432  1.2710 -0.2558 -0.2575
  211MOL0     C28388   3.133   6.647   6.302  0.0588 -0.4715 -0.0600
  211MOL0     C28389   3.233   6.759   6.276  0.4510 -0.1091 -0.3313
  211MOL0     C28390   3.337   6.722   6.167  0.0728 -0.0218 -0.5619
  211MOL0     C28391   3.412   6.842   6.118 -0.4570 -0.8026 -0.4806
  211MOL0     C28392   3.546   6.796   6.052 -0.0129 -0.0382  0.0830
  211MOL0     C28393   3.614   6.919   5.990 -1.3010  0.0760 -0.3053
  211MOL0    Cl28394   3.677   7.038   6.111 -0.3037 -0.3094 -0.1324
  211MOL0     C28395   2.655   6.795   6.476 -0.1119  0.4770 -0.6013
  211MOL0     C28396   2.519   6.824   6.524  0.0666 -0.4727 -0.2805
  211MOL0     O28397   2.339   7.033   6.761 -0.3202 -0.6233  0.6523
  211MOL0     C28398   2.095   6.776   6.801 -0.7894  0.3174 -0.2812
  211MOL0     C28399   1.962   6.767   6.845 -0.3800  0.4241  0.2919
  211MOL0     N28400   1.434   6.638   6.629  0.3487  0.4264 -0.2695
  211MOL0     N28401   1.510   6.540   6.607  0.8681  0.4041  0.9945
  211MOL0     C28402   2.697   6.136   6.519 -0.1811 -0.7277 -0.3904
  211MOL0     C28403   2.800   6.153   6.425 -0.4220  0.0034  0.1782
  211MOL0     C28404   3.102   6.357   6.135  0.4836  0.8944  1.3727
  211MOL0     C28405   3.214   6.321   6.209 -0.0592  1.2412  0.5268
  211MOL0     C28406   3.337   6.352   6.159  0.1681 -0.0702 -0.1291
  211MOL0     C28407   3.356   6.414   6.031  0.1493 -0.9410  0.1019
  211MOL0     O28408   3.485   6.417   5.990 -0.5621 -0.7266 -0.3056
  211MOL0     C28409   3.502   6.422   5.849  0.4536 -0.2250 -0.2814
  211MOL0     C28410   3.641   6.409   5.808  0.4273 -0.5424  0.0196
  211MOL0     C28411   3.729   6.511   5.883  0.1322 -0.1192  0.3738
  211MOL0     C28412   3.880   6.484   5.831 -0.3347  0.5622  0.0848
  211MOL0     C28413   3.965   6.601   5.845 -0.2147 -0.8520  0.0481
  211MOL0     C28414   4.051   6.686   5.868  0.2714 -0.2890  0.2346
  211MOL0     C28415   3.237   6.450   5.964 -0.1965  0.1703  0.9927
  211MOL0     C28416   3.114   6.419   6.011  0.6222  0.3129 -0.0569
  211MOL0     C28417   3.005   6.463   5.923  0.7978  0.5598  0.5285
  211MOL0     H28418   2.814   6.498   6.420  2.6652 -1.6866 -3.0668
  211MOL0     H28419   2.591   6.459   6.534 -0.3674 -1.3454  1.1402
  211MOL0     H28420   2.389   6.374   6.637 -1.1314  0.1260  2.8244
  211MOL0     H28421   2.348   6.233   6.528 -0.9135  0.3538 -0.3319
  211MOL0     H28422   2.360   6.169   6.822 -3.3505 -1.4862  2.1632
  211MOL0     H28423   2.262   6.106   6.700  0.2859 -0.9276  0.4742
  211MOL0     H28424   2.205   6.381   6.819 -1.6621  0.3068  0.1522
  211MOL0     H28425   2.118   6.239   6.867 -1.7815  1.3444 -0.2053
  211MOL0     H28426   2.118   6.359   6.594 -2.1731 -0.1600 -1.0838
  211MOL0     H28427   2.029   6.209   6.629 -0.8009 -0.5668  0.9076
  211MOL0     H28428   1.901   6.311   6.812  0.7231 -2.6307 -0.2627
  211MOL0     H28429   2.001   6.460   6.783 -2.3314  0.9834 -0.7111
  211MOL0     H28430   1.818   6.519   6.672  0.6885 -0.5502  1.4794
  211MOL0     H28431   1.896   6.432   6.538  2.0693  5.1285  0.1405
  211MOL0     H28432   1.771   6.221   6.648  0.8542  0.0772 -1.3204
  211MOL0     H28433   1.676   6.330   6.549 -0.6314  0.4102  0.3481
  211MOL0     H28434   1.544   6.297   6.748  1.5194 -1.9809  2.4423
  211MOL0     H28435   1.672   6.365   6.852 -1.0699  0.6365  0.8119
  211MOL0     H28436   1.555   6.586   6.928 -0.8277 -3.9332 -0.5471
  211MOL0     H28437   1.293   6.828   6.761  2.4114  1.1302 -3.5301
  211MOL0     H28438   1.333   6.751   6.917  1.9801  0.4674  0.3662
  211MOL0     H28439   1.548   6.918   6.781 -0.0859 -1.1620 -0.1709
  211MOL0     H28440   1.428   7.002   6.858 -0.2274  0.3953  0.0562
  211MOL0     H28441   1.514   6.785   7.034 -1.0616  0.8091  1.8346
  211MOL0     H28442   1.493   6.958   7.066  0.4379  0.7458  0.0550
  211MOL0     H28443   1.711   6.942   7.101 -0.7117  2.6211  0.6248
  211MOL0     H28444   1.698   7.017   6.954  4.1332  0.3010  2.6432
  211MOL0     H28445   1.891   7.090   6.907  0.0596  0.2920  2.2757
  211MOL0     H28446   2.118   7.107   6.863  0.5894 -0.5063  1.4430
  211MOL0     H28447   2.579   6.866   6.858  0.6446 -0.0608  0.7714
  211MOL0     H28448   2.800   6.829   6.787 -0.4174 -3.6534  0.8695
  211MOL0     H28449   2.862   6.701   6.363  0.5303  1.2038 -0.3290
  211MOL0     H28450   2.962   6.850   6.375 -2.2865 -0.2902 -0.4010
  211MOL0     H28451   3.128   6.731   6.498  1.0965 -0.6255  0.2616
  211MOL0     H28452   3.057   6.567   6.474  1.7046 -1.1626 -2.1769
  211MOL0     H28453   3.189   6.553   6.311 -1.6339 -1.5222  0.1289
  211MOL0     H28454   3.061   6.633   6.220  1.9479  0.3827 -1.9452
  211MOL0     H28455   3.295   6.782   6.364 -0.0371  0.0192 -0.0193
  211MOL0     H28456   3.172   6.845   6.246 -1.2237 -1.5076 -1.0991
  211MOL0     H28457   3.278   6.672   6.089 -0.9270  0.7795 -0.3423
  211MOL0     H28458   3.411   6.650   6.204  0.6311  0.6324 -0.3809
  211MOL0     H28459   3.356   6.910   6.053 -0.3451 -0.0423  0.2003
  211MOL0     H28460   3.438   6.898   6.209 -0.7364 -4.3246  1.9772
  211MOL0     H28461   3.520   6.724   5.974 -1.9494 -1.0410  1.5902
  211MOL0     H28462   3.610   6.756   6.131 -0.3829 -0.9623 -0.0828
  211MOL0     H28463   3.704   6.900   5.931  1.2462  1.5378  2.7917
  211MOL0     H28464   3.547   6.958   5.913 -0.4476  0.8867 -0.6547
  211MOL0     H28465   2.666   6.790   6.368  1.7152  1.7275 -0.5092
  211MOL0     H28466   2.438   6.824   6.452 -1.2364 -1.0184  1.1312
  211MOL0     H28467   2.167   6.697   6.785  1.8707  1.7121  3.3909
  211MOL0     H28468   1.914   6.670   6.854 -0.1691  0.4253  1.7541
  211MOL0     H28469   2.677   6.036   6.558 -0.2731  0.2730  2.3281
  211MOL0     H28470   2.863   6.070   6.395  2.2407  1.2991  1.8302
  211MOL0     H28471   3.205   6.268   6.303 -0.6123 -2.4620 -1.4323
  211MOL0     H28472   3.426   6.305   6.199 -1.4942 -2.6186  0.8353
  211MOL0     H28473   3.465   6.519   5.815  1.1157 -0.0528 -0.5195
  211MOL0     H28474   3.437   6.341   5.814  0.4801  0.0526 -0.9810
  211MOL0     H28475   3.651   6.427   5.700 -0.6447 -0.0552 -0.0172
  211MOL0     H28476   3.666   6.311   5.849 -3.5265 -1.4152  0.7888
  211MOL0     H28477   3.721   6.486   5.989  1.1709 -1.1749  0.2283
  211MOL0     H28478   3.699   6.616   5.874 -0.7102 -0.4356 -0.6149
  211MOL0     H28479   3.923   6.401   5.887 -1.2350 -1.4084 -2.0119
  211MOL0     H28480   3.881   6.472   5.722 -0.2353 -0.8555  0.2324
  211MOL0     H28481   4.130   6.757   5.883  0.0505  0.2543 -1.0684
  211MOL0     H28482   3.227   6.496   5.867 -2.0385 -1.3999  0.3598
  211MOL0     H28483   3.029   6.543   5.852 -2.3831  1.5049  0.3932
  211MOL0     H28484   2.960   6.375   5.877  1.8636  0.8887 -1.2147
  211MOL0     H28485   2.919   6.499   5.980 -0.3733 -3.5261  1.6927
  212MOL0     O28486   9.916   0.431   3.476 -0.0702  0.1098  0.7121
  212MOL0     C28487   9.852   0.355   3.397  0.5948  0.3570 -0.4537
  212MOL0     O28488   9.912   0.270   3.308  0.1548  0.0162  0.0651
  212MOL0     C28489  10.047   0.254   3.318 -0.2499  1.2346 -0.5040
  212MOL0     C28490  10.131   0.319   3.221  0.0675  0.4807  0.7852
  212MOL0     C28491  10.270   0.300   3.223  0.2875  0.7351 -0.5365
  212MOL0     C28492  10.331   0.222   3.319 -0.4556  0.8819 -0.2968
  212MOL0     O28493  10.469   0.200   3.336  0.1931  0.2058 -0.4710
  212MOL0     C28494  10.556   0.256   3.246  0.0816  0.1973  0.1983
  212MOL0     C28495  10.692   0.238   3.282  0.2068 -0.0560 -0.0766
  212MOL0     C28496  10.782   0.274   3.164 -0.4202 -0.1788  0.5138
  212MOL0     C28497  10.934   0.228   3.195 -0.1173 -0.7845 -0.2771
  212MOL0     C28498  11.028   0.300   3.105 -0.1772  0.1510 -0.7965
  212MOL0     C28499  11.166   0.312   3.171  0.2305 -0.4169  0.5579
  212MOL0     C28500  11.255   0.407   3.080 -0.4272 -0.0058 -0.5143
  212MOL0     C28501  11.320   0.339   2.955 -0.0744  0.3600  0.2853
  212MOL0     N28502  11.412   0.422   2.890 -0.0943  0.5454  0.5414
  212MOL0     C28503  11.535   0.470   2.925 -0.0803 -0.7350 -0.2998
  212MOL0     C28504  11.563   0.569   2.835 -0.2582  0.9254 -1.4986
  212MOL0     C28505  11.693   0.650   2.830  0.0826  0.1002 -0.1733
  212MOL0     C28506  11.799   0.596   2.738  0.4182  0.7382  1.2564
  212MOL0     C28507  11.937   0.662   2.726  0.4923  1.2379 -0.9705
  212MOL0     C28508  12.027   0.649   2.858 -0.1929 -0.0575  0.2990
  212MOL0     O28509  12.148   0.698   2.816 -0.0965  0.3267  0.2937
  212MOL0     C28510  12.264   0.661   2.882  1.5245  0.8685  0.5380
  212MOL0     C28511  12.267   0.613   3.015  0.1662  0.3309 -0.2553
  212MOL0     C28512  12.391   0.589   3.076  0.3061 -0.2241 -0.1464
  212MOL0     C28513  12.514   0.617   3.010 -0.0374 -0.5708 -0.1806
  212MOL0     C28514  12.642   0.598   3.087  0.1189  0.2523 -0.5333
  212MOL0     O28515  12.749   0.674   3.056 -0.7203  0.0993 -0.2852
  212MOL0     C28516  12.848   0.711   3.148 -0.0317 -0.1300  0.9738
  212MOL0     C28517  12.858   0.678   3.276  0.3199  0.2499  0.1229
  212MOL0     C28518  12.965   0.725   3.351 -0.1535  0.4736  0.3509
  212MOL0     C28519  13.067   0.804   3.298 -0.5101 -0.5589  0.8290
  212MOL0     O28520  13.184   0.842   3.368 -0.1478  0.0941 -0.4703
  212MOL0     C28521  13.163   0.908   3.498  0.4035  0.6603 -1.1522
  212MOL0     C28522  13.176   0.814   3.615 -0.2243 -0.5421  0.5316
  212MOL0     C28523  13.268   0.874   3.724 -0.5336  0.5816  0.1678
  212MOL0     C28524  13.277   0.752   3.826  1.0104 -0.3623  0.2204
  212MOL0     C28525  13.339   0.785   3.959 -0.1080 -0.4363 -0.4565
  212MOL0     C28526  13.488   0.812   3.958  0.5357 -0.2033  0.8009
  212MOL0     C28527  13.567   0.683   3.908 -0.9589 -0.1821  0.0191
  212MOL0     C28528  13.719   0.731   3.894 -0.3368 -1.1048  0.6772
  212MOL0    Cl28529  13.791   0.745   4.065 -0.2694  0.1262 -0.1038
  212MOL0     C28530  13.050   0.843   3.163 -0.3347  0.0404 -0.2162
  212MOL0     C28531  12.940   0.801   3.087  0.4001 -0.2832 -1.6854
  212MOL0     O28532  12.644   0.502   3.163 -0.7748  0.4620  0.6619
  212MOL0     C28533  12.504   0.677   2.886  0.3953 -0.6557 -0.3490
  212MOL0     C28534  12.382   0.698   2.819  0.4841  0.2941 -0.2284
  212MOL0     N28535  11.457   0.571   2.741  0.5238 -0.4465  0.3398
  212MOL0     N28536  11.372   0.477   2.769 -0.4309  0.0079  0.2137
  212MOL0     C28537  10.247   0.164   3.416  0.5323 -0.4650 -0.4857
  212MOL0     C28538  10.102   0.167   3.406  0.3584  0.5890 -0.8734
  212MOL0     C28539   9.703   0.372   3.393  0.7958  0.3263  0.6965
  212MOL0     C28540   9.654   0.448   3.497  0.4012 -0.6318  0.0278
  212MOL0     C28541   9.521   0.491   3.493  0.3735  0.0666 -0.2069
  212MOL0     C28542   9.435   0.461   3.396  0.5575  0.0999 -0.0830
  212MOL0     O28543   9.306   0.499   3.420 -0.1104  0.3647 -0.0230
  212MOL0     C28544   9.206   0.477   3.313  0.0759 -0.6800  0.3522
  212MOL0     C28545   9.060   0.525   3.355 -0.1559 -0.2879  0.3894
  212MOL0     C28546   9.006   0.437   3.470 -1.6175  0.0639 -0.0013
  212MOL0     C28547   8.863   0.466   3.508  0.6921  0.3675 -0.1008
  212MOL0     C28548   8.835   0.413   3.641 -0.0898 -0.2213  0.1386
  212MOL0     C28549   8.830   0.370   3.753  0.2940  0.1238  0.4228
  212MOL0     C28550   9.475   0.379   3.287 -0.3626 -0.4978 -0.5177
  212MOL0     C28551   9.615   0.340   3.283  0.2060  0.2516 -0.5133
  212MOL0     C28552   9.657   0.278   3.157  0.1423 -0.0200 -1.1191
  212MOL0     H28553  10.092   0.390   3.150  1.8800 -1.4474 -2.3903
  212MOL0     H28554  10.334   0.357   3.158  0.7961 -1.3540 -1.9911
  212MOL0     H28555  10.533   0.212   3.149 -2.9593  2.6663 -0.3573
  212MOL0     H28556  10.543   0.365   3.254 -1.6475 -0.1124  2.4196
  212MOL0     H28557  10.701   0.131   3.304 -1.7559 -0.1175  0.5857
  212MOL0     H28558  10.704   0.298   3.373 -1.6657 -1.5063  1.2067
  212MOL0     H28559  10.778   0.383   3.152 -3.2296 -0.0774  1.6089
  212MOL0     H28560  10.739   0.228   3.073 -1.7141  2.3126 -0.2366
  212MOL0     H28561  10.956   0.250   3.300 -4.0045  1.8725  0.1806
  212MOL0     H28562  10.943   0.122   3.170  0.8035 -0.2082 -2.6720
  212MOL0     H28563  11.054   0.258   3.007  0.4374 -1.2349 -0.0670
  212MOL0     H28564  10.986   0.400   3.089 -2.5635 -0.4625  1.1994
  212MOL0     H28565  11.158   0.359   3.269  0.4766 -0.2432  0.4958
  212MOL0     H28566  11.213   0.213   3.171  2.6672  0.6614  0.3335
  212MOL0     H28567  11.338   0.446   3.139  0.3392  1.2765 -2.3432
  212MOL0     H28568  11.198   0.494   3.045  1.6103  1.1420 -1.1791
  212MOL0     H28569  11.375   0.251   2.991 -0.6373  0.5256  1.5841
  212MOL0     H28570  11.236   0.319   2.888 -0.6701  0.2185  1.0669
  212MOL0     H28571  11.593   0.434   3.009  1.4754  3.4049  0.6474
  212MOL0     H28572  11.688   0.756   2.800  1.1594  0.4871  0.8942
  212MOL0     H28573  11.731   0.654   2.933 -0.5317  2.1347  0.0385
  212MOL0     H28574  11.823   0.497   2.778 -0.2617 -0.9827 -2.2293
  212MOL0     H28575  11.761   0.591   2.636  0.5634 -0.0290  1.2349
  212MOL0     H28576  11.933   0.768   2.699  1.3644  1.0873 -1.7668
  212MOL0     H28577  11.984   0.604   2.646  0.6029  0.7033 -0.5164
  212MOL0     H28578  12.035   0.548   2.899 -1.6907  0.2663  1.5159
  212MOL0     H28579  11.991   0.722   2.931  1.8255 -0.1049  1.4118
  212MOL0     H28580  12.180   0.583   3.072  1.3525 -4.1736 -0.4084
  212MOL0     H28581  12.394   0.530   3.167 -1.0435 -2.0339 -1.2148
  212MOL0     H28582  12.786   0.615   3.327 -0.7596  2.1818  1.0922
  212MOL0     H28583  12.962   0.693   3.454  2.4912 -1.4063 -0.0401
  212MOL0     H28584  13.228   0.994   3.518  0.0104  0.5007  1.0893
  212MOL0     H28585  13.057   0.932   3.505  0.7447  2.3281 -1.2672
  212MOL0     H28586  13.074   0.791   3.646 -1.7254  2.6335 -1.5670
  212MOL0     H28587  13.229   0.725   3.580  0.6182  1.1951 -3.1700
  212MOL0     H28588  13.368   0.894   3.685 -0.4939 -1.7747 -1.1329
  212MOL0     H28589  13.222   0.952   3.785  0.3021  1.0664  0.1978
  212MOL0     H28590  13.332   0.672   3.776  2.9742  2.2278 -2.1184
  212MOL0     H28591  13.176   0.712   3.843  0.6140  0.3549 -0.3712
  212MOL0     H28592  13.334   0.700   4.027  1.3984  0.7827  1.2883
  212MOL0     H28593  13.297   0.869   4.016  0.0516  0.1331 -1.1566
  212MOL0     H28594  13.508   0.901   3.899  1.7422 -0.0579  1.4053
  212MOL0     H28595  13.516   0.834   4.061 -0.1431  1.5983  0.6240
  212MOL0     H28596  13.533   0.656   3.808 -0.2813 -0.1111 -0.2383
  212MOL0     H28597  13.564   0.597   3.976  1.0612 -1.1383 -0.9907
  212MOL0     H28598  13.782   0.659   3.839  0.7972 -0.5297  1.1808
  212MOL0     H28599  13.733   0.825   3.839 -1.3927  0.6767  3.2942
  212MOL0     H28600  13.131   0.906   3.127  0.5477  0.3675  2.1362
  212MOL0     H28601  12.915   0.832   2.987  1.0403 -0.4570 -1.9094
  212MOL0     H28602  12.585   0.722   2.830 -0.2429 -1.2312 -1.7844
  212MOL0     H28603  12.386   0.751   2.725 -2.8114 -0.9761 -1.2274
  212MOL0     H28604  10.299   0.103   3.490  1.4205  0.4890 -0.2891
  212MOL0     H28605  10.038   0.120   3.480  0.4922  0.0762 -1.0780
  212MOL0     H28606   9.702   0.473   3.591 -3.1120 -1.9035  2.3622
  212MOL0     H28607   9.478   0.563   3.561 -0.4698  1.1159 -1.7903
  212MOL0     H28608   9.194   0.376   3.272 -2.9786  0.2530 -1.3974
  212MOL0     H28609   9.231   0.541   3.228 -2.7043 -0.5764 -0.4926
  212MOL0     H28610   8.996   0.526   3.267 -3.3154  3.0826  2.4282
  212MOL0     H28611   9.063   0.627   3.395 -0.1365 -0.0753 -0.1540
  212MOL0     H28612   9.073   0.450   3.556  0.5110  1.8540 -1.8078
  212MOL0     H28613   9.014   0.332   3.440  1.2126  0.4722 -0.9572
  212MOL0     H28614   8.841   0.573   3.504 -3.7909 -0.3934 -2.2198
  212MOL0     H28615   8.789   0.426   3.437  1.3945 -1.4420  0.1267
  212MOL0     H28616   8.842   0.339   3.855  3.1883 -1.4314 -0.2830
  212MOL0     H28617   9.425   0.355   3.194 -0.3464 -1.3017 -0.3258
  212MOL0     H28618   9.671   0.170   3.168 -0.0021  0.0368 -0.3121
  212MOL0     H28619   9.580   0.297   3.081 -1.9451  0.5986  1.0149
  212MOL0     H28620   9.751   0.327   3.132 -0.2312  1.2383 -0.1514
  213MOL0     O28621   8.888   1.725   4.243  0.1427  0.6285 -0.1331
  213MOL0     C28622   8.829   1.824   4.207  0.2638  0.2499  0.0166
  213MOL0     O28623   8.878   1.948   4.198 -1.2222 -0.7829  0.2142
  213MOL0     C28624   9.014   1.971   4.219  0.7571  0.2565  0.5664
  213MOL0     C28625   9.083   2.056   4.135 -0.8462 -0.3767 -1.1507
  213MOL0     C28626   9.218   2.096   4.163 -0.1006  0.2762  0.3103
  213MOL0     C28627   9.290   2.043   4.279  0.0910  0.2064 -0.3903
  213MOL0     O28628   9.419   2.068   4.317  0.5309  0.3050  0.1509
  213MOL0     C28629   9.494   2.144   4.228 -1.0014  0.0611  0.2453
  213MOL0     C28630   9.642   2.129   4.269 -0.1664  0.1403  0.6066
  213MOL0     C28631   9.727   2.222   4.188  0.2696 -0.3354 -0.3537
  213MOL0     C28632   9.878   2.218   4.246  0.8176 -0.0915  0.3609
  213MOL0     C28633   9.891   2.318   4.365 -0.2403 -0.7547  0.2666
  213MOL0     C28634  10.029   2.305   4.437 -0.1250  0.1213 -0.0935
  213MOL0     C28635  10.071   2.414   4.539 -0.6430  0.9971  0.1342
  213MOL0     C28636   9.973   2.420   4.657 -0.1146 -0.5205  0.0544
  213MOL0     N28637   9.976   2.548   4.731  0.4145 -0.7566  0.5247
  213MOL0     C28638  10.082   2.595   4.805 -0.4170 -0.2039  0.4142
  213MOL0     C28639  10.038   2.712   4.854 -0.7536  0.3244 -0.3056
  213MOL0     C28640  10.128   2.796   4.942  0.3186 -0.1226  0.6924
  213MOL0     C28641  10.173   2.918   4.857 -0.2240  0.8374  0.4777
  213MOL0     C28642  10.235   3.023   4.941 -0.4117  0.2524  0.3519
  213MOL0     C28643  10.286   3.138   4.853  0.2374  0.0918 -0.3390
  213MOL0     O28644  10.396   3.086   4.788 -0.1097  0.4411  0.0409
  213MOL0     C28645  10.486   3.178   4.732  0.8042 -0.1499  0.2619
  213MOL0     C28646  10.442   3.300   4.682  0.2939  0.6904  0.5353
  213MOL0     C28647  10.525   3.387   4.620 -0.4190 -0.4907 -0.7298
  213MOL0     C28648  10.662   3.360   4.600  0.0730 -0.3174 -0.4137
  213MOL0     C28649  10.753   3.461   4.532  0.6938  0.3795 -0.8452
  213MOL0     O28650  10.878   3.432   4.523 -0.0551  0.6046 -0.5024
  213MOL0     C28651  10.976   3.523   4.496  0.9989  0.5843 -0.5934
  213MOL0     C28652  10.977   3.621   4.391  0.0214  0.0758 -0.5109
  213MOL0     C28653  11.082   3.697   4.359  0.1571 -0.1669  0.5084
  213MOL0     C28654  11.199   3.696   4.432 -1.0277  0.7740  0.2068
  213MOL0     O28655  11.299   3.785   4.397 -0.4920  0.2079 -0.0188
  213MOL0     C28656  11.421   3.787   4.470  0.1483  0.0761  0.3636
  213MOL0     C28657  11.527   3.856   4.379 -0.0166 -0.2009  0.3700
  213MOL0     C28658  11.666   3.802   4.374 -0.6557 -0.2698  0.8592
  213MOL0     C28659  11.741   3.797   4.508  0.5589 -0.3659  1.0918
  213MOL0     C28660  11.779   3.936   4.566 -0.2860 -0.1400 -0.5329
  213MOL0     C28661  11.842   3.933   4.704 -0.1256 -0.1947 -0.2920
  213MOL0     C28662  11.907   4.067   4.748 -0.0015  0.4406  0.1779
  213MOL0     C28663  11.972   4.042   4.877 -0.1148 -0.5029  0.2158
  213MOL0    Cl28664  12.132   3.964   4.842 -0.3351  0.6198  0.0582
  213MOL0     C28665  11.205   3.599   4.534 -0.0551  0.2634 -0.0877
  213MOL0     C28666  11.093   3.519   4.566 -0.0729  0.6306 -0.4459
  213MOL0     O28667  10.699   3.558   4.494  0.0529 -0.4062 -0.1475
  213MOL0     C28668  10.703   3.236   4.649  0.3212 -1.2683  0.4503
  213MOL0     C28669  10.625   3.147   4.719 -0.1515 -0.5136  0.5351
  213MOL0     N28670   9.897   2.725   4.825  0.3683  0.0565 -0.6803
  213MOL0     N28671   9.866   2.628   4.741 -0.0223 -0.0443 -0.2418
  213MOL0     C28672   9.214   1.955   4.360  0.2740 -0.4116 -0.6133
  213MOL0     C28673   9.080   1.919   4.332 -1.0879  0.3326 -1.1553
  213MOL0     C28674   8.683   1.812   4.172  0.5720  0.5342 -0.5328
  213MOL0     C28675   8.657   1.697   4.108 -0.5519  0.5717  0.6060
  213MOL0     C28676   8.525   1.669   4.063  1.1159 -0.3634 -0.0501
  213MOL0     C28677   8.421   1.754   4.096  0.7135 -0.6697 -0.5048
  213MOL0     O28678   8.293   1.717   4.065 -0.0446  0.2607 -0.3379
  213MOL0     C28679   8.234   1.615   4.153  0.4126 -0.1971  0.1202
  213MOL0     C28680   8.095   1.561   4.106 -0.0665 -0.2205  0.7797
  213MOL0     C28681   8.008   1.678   4.084  0.1264 -0.4002 -0.1248
  213MOL0     C28682   7.879   1.657   4.161 -0.7292 -0.5257  0.3085
  213MOL0     C28683   7.782   1.565   4.108 -0.5381  0.3140 -0.6112
  213MOL0     C28684   7.696   1.500   4.053 -0.4080 -0.2759  0.5856
  213MOL0     C28685   8.449   1.876   4.153  0.0779 -0.3347  0.6782
  213MOL0     C28686   8.581   1.908   4.188  0.0109  0.1634  0.6578
  213MOL0     C28687   8.604   2.046   4.241  0.0285 -0.1568  0.2241
  213MOL0     H28688   9.017   2.103   4.063 -0.7243  2.4343  0.3972
  213MOL0     H28689   9.269   2.165   4.096  0.3864 -2.1602 -1.9909
  213MOL0     H28690   9.487   2.117   4.123 -3.3185 -3.5286  1.1479
  213MOL0     H28691   9.473   2.250   4.247 -2.2205 -0.1520  0.2062
  213MOL0     H28692   9.681   2.027   4.255 -0.2856  0.2445 -0.5412
  213MOL0     H28693   9.668   2.139   4.375  1.5967  2.0861  0.0616
  213MOL0     H28694   9.687   2.323   4.196 -2.7247 -1.4426 -0.2498
  213MOL0     H28695   9.711   2.204   4.082  0.4506 -1.0740 -0.2610
  213MOL0     H28696   9.909   2.118   4.280  1.9185 -0.1294 -0.6849
  213MOL0     H28697   9.944   2.248   4.164  1.0409  2.2812  1.3467
  213MOL0     H28698   9.871   2.421   4.332  0.8949 -0.4479  0.5046
  213MOL0     H28699   9.815   2.291   4.439 -3.3222  1.4314 -1.8035
  213MOL0     H28700  10.030   2.204   4.478  0.9141  0.6363  1.2525
  213MOL0     H28701  10.100   2.305   4.353 -2.0742 -1.7914 -1.8541
  213MOL0     H28702  10.082   2.515   4.499  0.4361  0.4082 -1.1484
  213MOL0     H28703  10.169   2.384   4.576 -1.2286  0.3485  1.2015
  213MOL0     H28704   9.870   2.397   4.629  0.7008 -2.0810 -1.8825
  213MOL0     H28705  10.000   2.342   4.729 -0.3715 -1.3477 -0.7269
  213MOL0     H28706  10.178   2.544   4.809  0.7787  1.8606  0.0171
  213MOL0     H28707  10.062   2.834   5.020  0.3875  0.8337  0.2952
  213MOL0     H28708  10.213   2.746   4.989 -0.1267 -1.5145  0.0775
  213MOL0     H28709  10.239   2.884   4.777  1.4779  2.0697  1.2986
  213MOL0     H28710  10.079   2.960   4.818 -0.7783 -0.2427  0.6126
  213MOL0     H28711  10.315   2.991   5.009 -0.3707  0.0124  0.1909
  213MOL0     H28712  10.154   3.067   4.999 -1.0441  0.2513 -0.5244
  213MOL0     H28713  10.310   3.222   4.918  0.6451 -0.3669  0.1161
  213MOL0     H28714  10.204   3.171   4.789  0.6334 -0.4735 -1.1500
  213MOL0     H28715  10.337   3.330   4.687 -0.0487  0.0948 -1.7947
  213MOL0     H28716  10.488   3.486   4.595  1.4286  1.2436  2.6980
  213MOL0     H28717  10.883   3.611   4.338  0.7408 -2.4753 -1.4809
  213MOL0     H28718  11.071   3.767   4.277 -4.3158 -1.2509 -0.0971
  213MOL0     H28719  11.417   3.826   4.572 -0.5624  2.3503 -0.4804
  213MOL0     H28720  11.448   3.681   4.482 -0.8051 -0.3283 -0.9027
  213MOL0     H28721  11.490   3.859   4.276  0.6048 -2.3109  0.0336
  213MOL0     H28722  11.524   3.962   4.409 -1.1870  0.2540 -1.2339
  213MOL0     H28723  11.658   3.696   4.346 -2.1928 -0.1819  0.9029
  213MOL0     H28724  11.730   3.856   4.304  0.4199  0.5711  2.4300
  213MOL0     H28725  11.822   3.725   4.495  1.0100  0.2880  0.2053
  213MOL0     H28726  11.679   3.742   4.580  1.3291 -2.5464  0.1812
  213MOL0     H28727  11.702   4.013   4.575 -1.3234 -1.3975  3.4370
  213MOL0     H28728  11.855   3.978   4.499  0.7072 -1.8696 -0.5504
  213MOL0     H28729  11.756   3.911   4.769 -0.7815  0.2743 -0.9847
  213MOL0     H28730  11.916   3.854   4.718  0.3406  0.5084  1.6329
  213MOL0     H28731  11.823   4.135   4.763 -1.5930 -1.7632  1.8448
  213MOL0     H28732  11.972   4.111   4.672 -0.0123  0.0324 -0.0714
  213MOL0     H28733  11.993   4.134   4.932 -2.9308  1.9876 -2.4628
  213MOL0     H28734  11.909   3.975   4.938 -1.7093  0.6326 -0.1219
  213MOL0     H28735  11.297   3.595   4.592 -0.2129 -2.6610  0.0891
  213MOL0     H28736  11.089   3.451   4.651  0.0473  1.1822  0.0028
  213MOL0     H28737  10.807   3.206   4.645  0.3295 -1.1530 -0.5061
  213MOL0     H28738  10.659   3.048   4.748  0.0297 -1.4516 -2.5378
  213MOL0     H28739   9.258   1.927   4.455  0.2895  0.9022 -0.2092
  213MOL0     H28740   9.039   1.845   4.400  4.7581 -1.7726  0.6684
  213MOL0     H28741   8.727   1.616   4.089 -1.7154 -0.5740  1.0086
  213MOL0     H28742   8.512   1.585   3.996  3.3413  0.6561 -1.9340
  213MOL0     H28743   8.224   1.668   4.248 -0.8110 -0.8080  0.3540
  213MOL0     H28744   8.307   1.534   4.168  0.9649  0.6199  2.0811
  213MOL0     H28745   8.065   1.479   4.171  0.6304 -1.4183 -0.3741
  213MOL0     H28746   8.106   1.517   4.007  4.1639 -1.1048  1.4489
  213MOL0     H28747   7.980   1.689   3.979  1.8964 -2.1082 -0.8304
  213MOL0     H28748   8.044   1.777   4.112 -0.1535 -0.7925  1.7663
  213MOL0     H28749   7.899   1.624   4.263 -1.2588 -1.7859  0.0256
  213MOL0     H28750   7.834   1.756   4.161  0.2911  0.1534 -4.2926
  213MOL0     H28751   7.635   1.448   3.981 -1.6414 -1.5914  2.4855
  213MOL0     H28752   8.363   1.936   4.181 -1.1553 -2.7556  2.5100
  213MOL0     H28753   8.664   2.100   4.167 -0.9547 -2.6726 -2.6221
  213MOL0     H28754   8.508   2.098   4.250 -0.3707 -1.1956  2.6670
  213MOL0     H28755   8.646   2.048   4.342  0.0466 -0.0512  0.2151
  214MOL0     O28756   2.427  10.335   0.740  0.2035 -0.3913 -0.1294
  214MOL0     C28757   2.340  10.421   0.708 -0.3967  0.0065 -0.1213
  214MOL0     O28758   2.320  10.461   0.584  0.1655  0.6205  0.4846
  214MOL0     C28759   2.381  10.402   0.478  0.1175  0.1109 -0.5481
  214MOL0     C28760   2.455  10.484   0.382  0.7425  0.9007 -0.7685
  214MOL0     C28761   2.512  10.413   0.273 -0.1268 -0.4563 -0.2652
  214MOL0     C28762   2.494  10.277   0.253 -0.7382 -0.0777  0.6676
  214MOL0     O28763   2.540  10.226   0.133 -0.0930  0.1610 -0.3054
  214MOL0     C28764   2.478  10.103   0.090 -0.1820 -0.0121  0.0941
  214MOL0     C28765   2.472  10.084  -0.061  0.4537 -0.1672 -0.3766
  214MOL0     C28766   2.614  10.074  -0.115 -0.0063  0.8713 -0.1621
  214MOL0     C28767   2.621  10.054  -0.264 -0.2984  0.5802  0.4152
  214MOL0     C28768   2.770  10.026  -0.300 -1.2614 -0.0712  0.4117
  214MOL0     C28769   2.767   9.947  -0.430  0.8721 -0.7708  0.0546
  214MOL0     C28770   2.907   9.922  -0.486 -0.4771  0.1663  0.3346
  214MOL0     C28771   2.896   9.847  -0.614  0.2171 -0.3768 -0.0759
  214MOL0     N28772   3.027   9.773  -0.640  0.3546 -1.0625  0.8816
  214MOL0     C28773   3.089   9.681  -0.557 -0.2628 -0.5334 -0.3158
  214MOL0     C28774   3.213   9.682  -0.603 -0.5367  0.0572  0.0729
  214MOL0     C28775   3.321   9.601  -0.549 -0.4587  0.5508 -0.1104
  214MOL0     C28776   3.417   9.688  -0.482 -0.2730 -0.0678  0.0451
  214MOL0     C28777   3.377   9.718  -0.331  0.0911  0.6252  1.0967
  214MOL0     C28778   3.493   9.782  -0.251  0.7340 -0.3071  0.1400
  214MOL0     O28779   3.615   9.722  -0.302 -0.4905 -0.1859  0.1397
  214MOL0     C28780   3.733   9.779  -0.256 -0.8770 -0.3496  0.2010
  214MOL0     C28781   3.744   9.876  -0.154 -0.4613 -0.4432  0.2797
  214MOL0     C28782   3.879   9.931  -0.135  1.0380 -0.5763  0.6704
  214MOL0     C28783   3.995   9.873  -0.195  0.2767  0.0238 -0.2802
  214MOL0     C28784   4.126   9.933  -0.178 -0.1760 -0.0565  0.5813
  214MOL0     O28785   4.223   9.902  -0.272  0.2228  0.2455 -0.0635
  214MOL0     C28786   4.350   9.953  -0.269 -0.0132 -0.7503 -0.1365
  214MOL0     C28787   4.454   9.893  -0.193 -0.1917 -0.2957  0.1325
  214MOL0     C28788   4.584   9.940  -0.199  1.1732 -1.1044  0.4640
  214MOL0     C28789   4.610  10.054  -0.269  0.1273  0.1712  0.6312
  214MOL0     O28790   4.742  10.092  -0.263  0.0088  0.3445 -0.2786
  214MOL0     C28791   4.795  10.176  -0.363  0.1585  0.2829  0.3705
  214MOL0     C28792   4.823  10.117  -0.499 -0.0946 -0.4390  0.1531
  214MOL0     C28793   4.931  10.204  -0.576  0.2823 -0.0453 -0.8063
  214MOL0     C28794   4.957  10.146  -0.716 -0.1798 -0.6143  0.8000
  214MOL0     C28795   5.070  10.232  -0.778 -0.1890 -0.6847  0.5822
  214MOL0     C28796   5.021  10.380  -0.802 -0.1339  0.3570 -0.0431
  214MOL0     C28797   5.134  10.464  -0.872  0.0194 -0.6820  0.4868
  214MOL0     C28798   5.099  10.605  -0.909  0.2451 -0.0909 -1.1245
  214MOL0    Cl28799   4.959  10.618  -1.002  0.2335 -0.0632  0.2711
  214MOL0     C28800   4.504  10.118  -0.341 -0.2513 -0.2344 -0.0547
  214MOL0     C28801   4.372  10.070  -0.338 -0.3611  0.3753  0.1858
  214MOL0     O28802   4.149   9.994  -0.081  0.0010  0.4774  0.9446
  214MOL0     C28803   3.976   9.780  -0.296 -0.1262  0.5946  0.0112
  214MOL0     C28804   3.851   9.729  -0.321  0.1067  1.1170  0.5616
  214MOL0     N28805   3.235   9.771  -0.706 -0.6433 -0.3035 -0.6335
  214MOL0     N28806   3.126   9.816  -0.728  0.6640 -0.4885 -0.4965
  214MOL0     C28807   2.410  10.205   0.342  0.7304 -0.5568  0.3300
  214MOL0     C28808   2.360  10.264   0.456 -1.1440 -0.3454 -0.1560
  214MOL0     C28809   2.264  10.485   0.820 -0.1083 -0.2586 -0.1220
  214MOL0     C28810   2.349  10.518   0.929 -0.0508 -0.0105 -0.6942
  214MOL0     C28811   2.293  10.582   1.040 -0.3107 -0.1797  0.1752
  214MOL0     C28812   2.159  10.619   1.054 -0.3750  0.1936  0.1820
  214MOL0     O28813   2.123  10.703   1.151  0.6904 -0.0854  0.8157
  214MOL0     C28814   2.042  10.640   1.259  0.5887 -0.0087 -0.2267
  214MOL0     C28815   2.127  10.549   1.349 -0.6856  0.3859  0.2927
  214MOL0     C28816   2.251  10.603   1.424 -0.7422 -0.6962 -0.3547
  214MOL0     C28817   2.241  10.690   1.545  0.1921 -0.1845 -0.6815
  214MOL0     C28818   2.373  10.697   1.599  0.1456  0.1785 -0.9597
  214MOL0     C28819   2.480  10.713   1.642  0.0613  0.4029 -0.7704
  214MOL0     C28820   2.078  10.583   0.941  0.0373  0.7924  0.4818
  214MOL0     C28821   2.124  10.516   0.822  0.4732  0.0344 -0.5496
  214MOL0     C28822   2.034  10.496   0.702  0.2339  0.1071 -0.6047
  214MOL0     H28823   2.458  10.592   0.382 -0.1328  1.0009  2.2657
  214MOL0     H28824   2.568  10.464   0.195  0.6173 -0.0199  0.5505
  214MOL0     H28825   2.516  10.015   0.142  0.8309  0.8869  0.9238
  214MOL0     H28826   2.372  10.118   0.116 -0.2204 -0.5251  0.2289
  214MOL0     H28827   2.439  10.168  -0.123  3.2489  0.8766 -0.6120
  214MOL0     H28828   2.398  10.004  -0.072  0.2622 -0.1130  0.5132
  214MOL0     H28829   2.659   9.989  -0.062 -1.7577 -0.7727 -1.1832
  214MOL0     H28830   2.663  10.168  -0.089  2.7797 -0.7564  0.9078
  214MOL0     H28831   2.554   9.974  -0.294  0.8306  0.7099 -2.9333
  214MOL0     H28832   2.599  10.146  -0.320  1.7437  1.5906  1.1621
  214MOL0     H28833   2.828  10.118  -0.313 -0.5101 -0.6848 -0.9156
  214MOL0     H28834   2.826   9.972  -0.224 -1.7454  1.2142  1.7226
  214MOL0     H28835   2.718   9.853  -0.404 -0.5630  0.2086  1.0825
  214MOL0     H28836   2.703   9.999  -0.502  0.1904 -1.4194  0.1776
  214MOL0     H28837   2.957   9.857  -0.413 -1.2206 -0.3901  0.3611
  214MOL0     H28838   2.958  10.018  -0.499 -1.6154  0.6585 -0.6266
  214MOL0     H28839   2.821   9.767  -0.601  2.0406 -2.2842 -0.7203
  214MOL0     H28840   2.863   9.918  -0.691  0.8651  2.0328  1.7543
  214MOL0     H28841   3.044   9.631  -0.472 -0.8715 -0.6274 -0.6840
  214MOL0     H28842   3.277   9.515  -0.499  0.9601 -1.7045 -2.4709
  214MOL0     H28843   3.375   9.563  -0.637  2.8346 -0.6065  2.2309
  214MOL0     H28844   3.507   9.626  -0.492  0.0944  0.5369 -0.4608
  214MOL0     H28845   3.426   9.784  -0.535  1.4063  1.9658  3.6024
  214MOL0     H28846   3.363   9.621  -0.282 -0.8205  0.5469  0.7075
  214MOL0     H28847   3.288   9.781  -0.319  0.6197  1.5010  0.5072
  214MOL0     H28848   3.476   9.754  -0.147 -0.1572  1.8120  0.6119
  214MOL0     H28849   3.495   9.891  -0.261 -1.3701 -0.1458  0.7800
  214MOL0     H28850   3.657   9.920  -0.105  1.5044  3.5808  0.6357
  214MOL0     H28851   3.884  10.012  -0.063 -1.1177 -0.4134  0.6975
  214MOL0     H28852   4.421   9.806  -0.137  0.4560 -0.1328  0.7742
  214MOL0     H28853   4.664   9.897  -0.141  2.1701 -0.4001 -0.3434
  214MOL0     H28854   4.726  10.260  -0.371 -1.8004 -1.2685 -0.0803
  214MOL0     H28855   4.888  10.204  -0.314 -1.2337  1.5767  2.4694
  214MOL0     H28856   4.848  10.011  -0.487  0.4827 -0.1784  1.3372
  214MOL0     H28857   4.723  10.122  -0.544 -0.6160 -4.4492  0.4829
  214MOL0     H28858   4.906  10.310  -0.576  0.6601  0.0442 -0.7851
  214MOL0     H28859   5.030  10.193  -0.530  0.6434 -0.3984 -1.6525
  214MOL0     H28860   4.869  10.154  -0.781 -0.1116  2.0184  0.9505
  214MOL0     H28861   4.991  10.043  -0.704 -0.1548 -0.6089  0.7774
  214MOL0     H28862   5.101  10.182  -0.870  2.6044  0.0107  1.0729
  214MOL0     H28863   5.159  10.232  -0.715 -0.1713  0.3855  0.5717
  214MOL0     H28864   4.924  10.395  -0.849 -0.9306 -5.6809 -1.2264
  214MOL0     H28865   5.003  10.430  -0.706  1.3856  1.2969 -0.2104
  214MOL0     H28866   5.154  10.417  -0.969  1.7997  2.6852 -0.9339
  214MOL0     H28867   5.226  10.462  -0.813 -0.7120 -2.9758  1.6836
  214MOL0     H28868   5.070  10.656  -0.816 -1.7205 -0.1412 -1.6551
  214MOL0     H28869   5.176  10.661  -0.963 -0.2613  2.3462  0.5249
  214MOL0     H28870   4.513  10.207  -0.403  1.3075 -0.9705 -0.9339
  214MOL0     H28871   4.293  10.117  -0.395 -0.4208 -1.8522 -1.7200
  214MOL0     H28872   4.054   9.725  -0.348 -1.0675 -0.5581 -0.2279
  214MOL0     H28873   3.837   9.649  -0.393  0.2426  0.7982  0.8878
  214MOL0     H28874   2.384  10.101   0.327 -1.9974  0.1974 -0.9112
  214MOL0     H28875   2.315  10.201   0.532  0.3342 -0.0357  1.0097
  214MOL0     H28876   2.454  10.491   0.935  0.2412  0.4775 -2.8093
  214MOL0     H28877   2.345  10.614   1.130  1.0361 -1.9968  0.1061
  214MOL0     H28878   1.953  10.585   1.226  1.2815 -2.3166  1.5109
  214MOL0     H28879   2.016  10.727   1.320  3.2452 -0.6800  2.0604
  214MOL0     H28880   2.170  10.474   1.283 -2.2842  1.7506 -2.4907
  214MOL0     H28881   2.061  10.496   1.419 -1.4869 -0.2031 -0.8825
  214MOL0     H28882   2.305  10.661   1.349 -0.5962 -2.5382 -1.7432
  214MOL0     H28883   2.308  10.514   1.455 -2.0743 -1.0770  1.1762
  214MOL0     H28884   2.211  10.793   1.528  1.3233  0.0913 -1.1352
  214MOL0     H28885   2.174  10.639   1.615  0.7183  0.6774  0.4769
  214MOL0     H28886   2.566  10.725   1.705 -2.2867 -2.9809  3.6651
  214MOL0     H28887   1.972  10.606   0.942  0.0584  0.8825  1.7334
  214MOL0     H28888   1.929  10.488   0.731  0.0961 -0.5716 -1.2415
  214MOL0     H28889   2.042  10.584   0.638 -0.2244 -0.8909 -2.0948
  214MOL0     H28890   2.072  10.417   0.637  0.4728  0.4850 -0.9269
  215MOL0     O28891   6.040   1.777   7.185  0.1181  0.0097 -0.3518
  215MOL0     C28892   5.953   1.825   7.118  0.1862  0.3943  0.3084
  215MOL0     O28893   5.981   1.894   6.996 -0.8771 -1.3028  0.6248
  215MOL0     C28894   6.118   1.907   6.957  0.0950 -0.6372 -1.0307
  215MOL0     C28895   6.158   1.851   6.834  0.1308  0.2436 -0.1163
  215MOL0     C28896   6.284   1.858   6.782 -0.7158 -0.0673  0.1953
  215MOL0     C28897   6.388   1.914   6.860 -0.5729  0.2061 -0.0249
  215MOL0     O28898   6.512   1.900   6.803  0.5031 -0.5205 -0.4326
  215MOL0     C28899   6.622   1.908   6.891 -0.0114  0.6386 -0.2147
  215MOL0     C28900   6.747   1.849   6.830 -0.3236  0.0688  0.2884
  215MOL0     C28901   6.873   1.849   6.923 -0.0484  0.5252 -0.1761
  215MOL0     C28902   6.947   1.984   6.970 -0.2201  1.2394 -0.4882
  215MOL0     C28903   7.090   1.948   7.022 -1.1373  0.1615 -0.0550
  215MOL0     C28904   7.166   2.075   7.072  0.4676  0.0067  0.0748
  215MOL0     C28905   7.305   2.051   7.132 -0.4589 -0.5506 -0.3104
  215MOL0     C28906   7.396   2.032   7.012 -0.2878 -0.2952  0.7239
  215MOL0     N28907   7.542   2.027   7.055  0.5410  0.5054  0.0803
  215MOL0     C28908   7.603   1.903   7.091  0.2728  0.5449 -0.1575
  215MOL0     C28909   7.725   1.943   7.140  1.0887  0.1607  0.7221
  215MOL0     C28910   7.823   1.853   7.214 -0.0872  0.1540  0.3477
  215MOL0     C28911   7.841   1.895   7.361  0.7844  0.2874  0.9809
  215MOL0     C28912   7.949   1.999   7.395 -0.1993 -0.3282 -0.0118
  215MOL0     C28913   8.094   1.951   7.378 -0.3155 -0.5396 -0.5598
  215MOL0     O28914   8.176   2.068   7.381 -0.7963  0.1476  0.5795
  215MOL0     C28915   8.311   2.055   7.348  0.5723 -0.7402  0.1943
  215MOL0     C28916   8.382   1.939   7.333 -0.0832  0.4473 -0.1392
  215MOL0     C28917   8.514   1.947   7.288  0.3320 -0.2282 -0.5406
  215MOL0     C28918   8.582   2.062   7.244  0.5369  0.2308 -0.5275
  215MOL0     C28919   8.722   2.052   7.197  0.5348  0.0945  0.7743
  215MOL0     O28920   8.764   1.921   7.177  0.8210  0.1932  0.8195
  215MOL0     C28921   8.890   1.901   7.121  0.2138  0.3339  0.0242
  215MOL0     C28922   8.997   1.864   7.201 -0.3106 -0.8650 -0.5299
  215MOL0     C28923   9.130   1.863   7.138  0.2514 -0.5443 -0.2118
  215MOL0     C28924   9.145   1.894   7.003 -0.5780  0.1898  0.4692
  215MOL0     O28925   9.265   1.895   6.941 -0.1174  0.3395  0.5826
  215MOL0     C28926   9.378   1.893   7.023 -0.3067  0.3491  0.1600
  215MOL0     C28927   9.496   1.903   6.931 -0.1018 -0.2198 -0.7106
  215MOL0     C28928   9.628   1.880   7.003 -0.0332  0.9832 -0.3654
  215MOL0     C28929   9.746   1.880   6.901 -0.1687  0.6514  0.0528
  215MOL0     C28930   9.785   2.019   6.852  0.0414  0.1736 -0.1317
  215MOL0     C28931   9.930   2.014   6.790 -0.5306 -0.6082  0.7899
  215MOL0     C28932   9.982   2.148   6.730  0.0462 -0.5769  0.3395
  215MOL0     C28933  10.109   2.136   6.652  0.6148 -0.1879  0.2372
  215MOL0    Cl28934  10.159   2.294   6.586  0.1752  0.0344 -0.5311
  215MOL0     C28935   9.030   1.920   6.925  0.0832 -0.7987 -0.4638
  215MOL0     C28936   8.902   1.924   6.979 -0.6027  0.2120  0.1803
  215MOL0     O28937   8.781   2.151   7.154 -0.3788 -0.3004 -0.8287
  215MOL0     C28938   8.515   2.186   7.269 -0.1943 -0.2608  0.3351
  215MOL0     C28939   8.378   2.178   7.311 -0.6419 -0.0277  0.9558
  215MOL0     N28940   7.743   2.079   7.118  0.2884 -0.2387 -0.4465
  215MOL0     N28941   7.631   2.122   7.065  0.7567 -0.0360 -0.3211
  215MOL0     C28942   6.357   1.985   6.981  0.2026  0.2374 -0.5565
  215MOL0     C28943   6.216   1.989   7.024 -0.1157 -0.4517  0.4877
  215MOL0     C28944   5.820   1.782   7.165  0.1506 -0.0035 -0.1805
  215MOL0     C28945   5.808   1.734   7.295  0.5935  0.2508  0.0967
  215MOL0     C28946   5.688   1.683   7.344  0.4997  0.6716  0.2395
  215MOL0     C28947   5.566   1.681   7.269 -0.1478  0.0979 -0.2068
  215MOL0     O28948   5.449   1.630   7.308 -0.1917 -0.5250  0.4013
  215MOL0     C28949   5.361   1.731   7.360 -0.7308  0.3892 -0.1503
  215MOL0     C28950   5.292   1.810   7.249  0.4570 -0.2485 -0.1423
  215MOL0     C28951   5.193   1.908   7.305 -0.3871 -0.9821 -0.3184
  215MOL0     C28952   5.136   2.014   7.205  0.8686  0.2046  0.1892
  215MOL0     C28953   5.048   2.092   7.290  0.3906  0.0972  0.0132
  215MOL0     C28954   4.964   2.166   7.339  0.8541 -0.1275  1.0625
  215MOL0     C28955   5.579   1.741   7.138  0.0493  0.8458 -1.0018
  215MOL0     C28956   5.705   1.798   7.090  0.3652 -0.0249  0.0380
  215MOL0     C28957   5.698   1.873   6.956 -0.3384 -0.3316 -1.0698
  215MOL0     H28958   6.090   1.802   6.765  1.3855 -0.9122 -0.5807
  215MOL0     H28959   6.312   1.813   6.687 -0.1932 -1.1812  0.8569
  215MOL0     H28960   6.637   2.013   6.915  0.0558  1.0105 -1.7840
  215MOL0     H28961   6.589   1.866   6.986 -1.0251  1.7582 -0.0493
  215MOL0     H28962   6.767   1.905   6.738 -1.2897 -0.8957 -0.5476
  215MOL0     H28963   6.736   1.744   6.802  1.0056  0.3368 -1.4024
  215MOL0     H28964   6.940   1.793   6.858  0.5761 -1.4207  1.9878
  215MOL0     H28965   6.841   1.790   7.010 -1.0423 -0.8843 -1.4597
  215MOL0     H28966   6.958   2.054   6.887 -1.4628  1.2614 -0.6501
  215MOL0     H28967   6.886   2.038   7.044 -2.8228 -0.9048 -0.9167
  215MOL0     H28968   7.081   1.877   7.105 -2.0365  0.4037  0.0634
  215MOL0     H28969   7.152   1.913   6.939 -1.9370 -0.9158 -0.2292
  215MOL0     H28970   7.165   2.152   6.994  0.6006  0.9037  0.9372
  215MOL0     H28971   7.115   2.109   7.163 -0.8876 -0.5843 -0.4238
  215MOL0     H28972   7.309   1.964   7.198  3.0468  0.7688  1.4893
  215MOL0     H28973   7.340   2.141   7.183  0.0472 -0.7118 -0.3633
  215MOL0     H28974   7.368   1.936   6.966  3.0804 -0.5747 -1.0636
  215MOL0     H28975   7.383   2.104   6.931  3.9050 -0.7087 -0.5624
  215MOL0     H28976   7.556   1.807   7.109  1.7465 -0.3161 -0.7731
  215MOL0     H28977   7.790   1.749   7.209  0.7678 -0.0552 -1.7140
  215MOL0     H28978   7.919   1.867   7.165  0.6262 -1.6623  1.1468
  215MOL0     H28979   7.745   1.941   7.388  1.8489  5.0143 -2.0446
  215MOL0     H28980   7.862   1.804   7.417 -1.0022 -1.3842 -0.8861
  215MOL0     H28981   7.935   2.030   7.499 -0.4956  2.0711 -0.7102
  215MOL0     H28982   7.934   2.085   7.329  0.6668 -0.6655 -0.6752
  215MOL0     H28983   8.095   1.892   7.287  1.0723 -1.8362  0.2608
  215MOL0     H28984   8.127   1.884   7.458  2.0608 -0.3224 -1.2745
  215MOL0     H28985   8.355   1.838   7.362  1.2761 -0.8172 -2.9785
  215MOL0     H28986   8.562   1.849   7.281 -0.1149 -0.7054  2.1093
  215MOL0     H28987   8.988   1.837   7.306 -0.0455 -0.9981 -0.5412
  215MOL0     H28988   9.217   1.839   7.199 -0.2533 -2.0035 -0.0113
  215MOL0     H28989   9.380   1.983   7.085  1.0064 -0.7581  1.8430
  215MOL0     H28990   9.392   1.801   7.081  2.2307 -0.0029 -0.8845
  215MOL0     H28991   9.491   1.835   6.846  1.0767  1.0150 -1.8286
  215MOL0     H28992   9.499   2.005   6.892 -0.7820 -0.7862 -2.3029
  215MOL0     H28993   9.645   1.956   7.080  1.4476 -0.4687  0.8304
  215MOL0     H28994   9.617   1.786   7.059  0.7749 -0.2765 -2.2100
  215MOL0     H28995   9.733   1.818   6.812  2.2333  3.6955 -2.6648
  215MOL0     H28996   9.833   1.834   6.950  2.1262  0.7782 -3.5626
  215MOL0     H28997   9.783   2.078   6.944 -0.2649  1.1518 -0.7519
  215MOL0     H28998   9.714   2.053   6.776  0.2458 -1.4909 -1.1329
  215MOL0     H28999  10.002   1.980   6.864  0.1270  1.9876  1.4169
  215MOL0     H29000   9.920   1.944   6.706  1.3866 -1.8951  1.5687
  215MOL0     H29001   9.995   2.228   6.804 -0.3736  0.2043 -0.4026
  215MOL0     H29002   9.909   2.196   6.663  1.7291  0.5079 -0.7892
  215MOL0     H29003  10.186   2.088   6.713  0.2987 -0.4325  0.4446
  215MOL0     H29004  10.091   2.079   6.560 -3.7895  0.6458  0.3864
  215MOL0     H29005   9.038   1.940   6.819 -0.9831  1.4276 -0.1758
  215MOL0     H29006   8.815   1.949   6.920  0.3570  1.2302 -0.8596
  215MOL0     H29007   8.552   2.285   7.244  2.4929 -1.5288 -1.0468
  215MOL0     H29008   8.321   2.271   7.307 -0.1375  0.2403 -1.9643
  215MOL0     H29009   6.443   2.032   7.029  1.3548  0.0686 -2.3545
  215MOL0     H29010   6.193   2.040   7.117  2.6916  1.4072  0.2778
  215MOL0     H29011   5.888   1.733   7.369  0.6542  0.6926  0.0350
  215MOL0     H29012   5.694   1.650   7.448  1.8843  1.8220  0.5502
  215MOL0     H29013   5.409   1.798   7.432 -0.3495  2.6614 -2.3624
  215MOL0     H29014   5.282   1.678   7.413  0.3461  0.3417  1.4627
  215MOL0     H29015   5.250   1.739   7.177  0.4496  1.3158 -1.7549
  215MOL0     H29016   5.367   1.869   7.196 -1.8021  3.9497  0.9405
  215MOL0     H29017   5.240   1.973   7.380 -0.9178  0.9891 -1.6107
  215MOL0     H29018   5.111   1.850   7.350 -0.9191 -0.3873 -0.4973
  215MOL0     H29019   5.214   2.078   7.164  1.5706 -0.2103  0.8441
  215MOL0     H29020   5.084   1.962   7.124  2.2758 -3.3590  1.3807
  215MOL0     H29021   4.900   2.240   7.384 -0.6644  1.0836 -2.6427
  215MOL0     H29022   5.489   1.737   7.077 -0.9004 -0.0317  0.4172
  215MOL0     H29023   5.597   1.861   6.915 -0.9627  2.0139 -0.3654
  215MOL0     H29024   5.724   1.978   6.973  1.6765 -0.5022 -2.7603
  215MOL0     H29025   5.776   1.844   6.885 -1.1778 -0.7592 -1.8478
  216MOL0     O29026   1.183   1.111   3.903 -0.3833  0.2049  0.1856
  216MOL0     C29027   1.210   1.165   3.793  0.2832 -0.4957  0.9294
  216MOL0     O29028   1.335   1.175   3.737 -0.4795  0.1590 -0.7603
  216MOL0     C29029   1.438   1.140   3.826  0.3920 -1.3205  0.9640
  216MOL0     C29030   1.517   1.023   3.812  0.0710 -0.1536  0.0741
  216MOL0     C29031   1.616   1.005   3.905  0.3373 -0.1035 -0.5839
  216MOL0     C29032   1.659   1.102   3.998  0.6527  0.0175  0.3361
  216MOL0     O29033   1.776   1.074   4.071  0.2019  0.8428 -0.5219
  216MOL0     C29034   1.814   1.173   4.159  0.1035  0.5310  0.1643
  216MOL0     C29035   1.963   1.181   4.165 -0.0140 -0.4097 -0.0575
  216MOL0     C29036   2.018   1.300   4.241 -0.6853 -0.1373 -0.0791
  216MOL0     C29037   2.115   1.255   4.358  0.5766  0.3384 -0.0942
  216MOL0     C29038   2.221   1.348   4.411  0.3038  0.5824  0.4654
  216MOL0     C29039   2.322   1.273   4.501 -0.9513  0.0308 -0.5306
  216MOL0     C29040   2.411   1.367   4.584  0.0985 -0.4974  0.1876
  216MOL0     C29041   2.516   1.289   4.668  0.2664  0.3790 -0.1539
  216MOL0     N29042   2.633   1.251   4.597  0.7073  0.6417 -0.0373
  216MOL0     C29043   2.729   1.337   4.544  0.1891 -0.9166  0.2269
  216MOL0     C29044   2.814   1.259   4.477 -0.2127  0.2209  0.1353
  216MOL0     C29045   2.913   1.326   4.385  1.0079  0.5695  0.2286
  216MOL0     C29046   3.042   1.371   4.454 -0.0189  0.0254 -0.6184
  216MOL0     C29047   3.134   1.254   4.442  0.1100  0.4254  0.0157
  216MOL0     C29048   3.252   1.247   4.540 -0.0339  0.3328  0.4622
  216MOL0     O29049   3.310   1.375   4.548  0.3976 -0.8176  0.1590
  216MOL0     C29050   3.449   1.379   4.537 -0.3017  0.2778 -0.5848
  216MOL0     C29051   3.531   1.432   4.644 -0.1583 -0.2027 -0.4334
  216MOL0     C29052   3.670   1.429   4.643 -0.5274  0.2567 -0.2223
  216MOL0     C29053   3.732   1.374   4.523  0.2679 -0.5555 -0.5560
  216MOL0     C29054   3.881   1.375   4.510 -0.4363  0.5364 -0.4408
  216MOL0     O29055   3.943   1.402   4.624 -0.0332  1.0009  0.4410
  216MOL0     C29056   4.082   1.407   4.634  0.4314  0.6470  0.0123
  216MOL0     C29057   4.179   1.392   4.537  0.1458 -0.2091 -0.0296
  216MOL0     C29058   4.317   1.408   4.568 -0.2120 -0.2426 -0.0580
  216MOL0     C29059   4.354   1.452   4.698  0.0692 -0.9490  0.9842
  216MOL0     O29060   4.485   1.475   4.739  0.4684 -0.2395  0.7339
  216MOL0     C29061   4.593   1.426   4.651 -0.3345 -0.2497 -0.4454
  216MOL0     C29062   4.733   1.472   4.685 -0.0105 -0.1194  0.0406
  216MOL0     C29063   4.783   1.611   4.671  0.1475 -0.2544 -0.4118
  216MOL0     C29064   4.789   1.654   4.527 -0.2636 -0.0133  0.5267
  216MOL0     C29065   4.783   1.808   4.511 -0.2419 -0.4196  0.8882
  216MOL0     C29066   4.762   1.834   4.360 -0.8486  0.4541 -0.5707
  216MOL0     C29067   4.874   1.784   4.274  0.5064  0.6598 -0.7541
  216MOL0     C29068   4.862   1.831   4.124  0.1077  0.0664 -0.5540
  216MOL0    Cl29069   4.925   1.991   4.109 -0.5850 -0.1353 -0.2837
  216MOL0     C29070   4.253   1.465   4.792  0.0424  0.0360 -0.2300
  216MOL0     C29071   4.122   1.436   4.770  0.0990 -0.0037  0.1480
  216MOL0     O29072   3.933   1.356   4.399  0.4655  0.5807 -0.4668
  216MOL0     C29073   3.648   1.324   4.417 -0.4098  0.1223 -0.0633
  216MOL0     C29074   3.510   1.332   4.429  0.5914  0.4800  0.1354
  216MOL0     N29075   2.768   1.124   4.486 -0.5864 -0.6038  0.5529
  216MOL0     N29076   2.660   1.119   4.557 -0.8794 -0.1552 -0.1612
  216MOL0     C29077   1.572   1.224   4.006 -0.3001 -0.2813  0.4222
  216MOL0     C29078   1.474   1.245   3.910  0.8058  0.0763 -0.6465
  216MOL0     C29079   1.096   1.221   3.715  0.3421  0.1193 -0.5591
  216MOL0     C29080   0.974   1.150   3.721 -0.1732 -0.5061 -0.0347
  216MOL0     C29081   0.857   1.199   3.659 -0.8298 -0.0203  0.0744
  216MOL0     C29082   0.864   1.321   3.589  0.7094  0.1177  0.2636
  216MOL0     O29083   0.751   1.371   3.520 -0.2664 -0.3888  0.2971
  216MOL0     C29084   0.774   1.493   3.442  0.9151  0.1348 -0.7773
  216MOL0     C29085   0.640   1.526   3.374  0.6041 -0.8559 -0.1784
  216MOL0     C29086   0.526   1.550   3.471 -0.6323  0.9902  0.6022
  216MOL0     C29087   0.400   1.577   3.392  0.4966  0.1137  0.2295
  216MOL0     C29088   0.291   1.623   3.478  0.1274 -0.6317 -0.2055
  216MOL0     C29089   0.196   1.657   3.546 -0.4411 -0.8858  0.1770
  216MOL0     C29090   0.980   1.403   3.606  1.1553  0.8745  0.0312
  216MOL0     C29091   1.096   1.348   3.668 -0.6791  0.1325 -0.2005
  216MOL0     C29092   1.222   1.429   3.673  0.0422 -0.0507  0.3828
  216MOL0     H29093   1.500   0.945   3.739  0.3321  1.5484 -1.8936
  216MOL0     H29094   1.678   0.916   3.909 -0.0521 -0.4481 -1.8755
  216MOL0     H29095   1.782   1.268   4.116 -0.0058  1.1208  1.4912
  216MOL0     H29096   1.773   1.161   4.260 -0.3000 -0.2330 -0.0822
  216MOL0     H29097   2.000   1.187   4.062 -1.1639 -3.3537 -0.7210
  216MOL0     H29098   2.008   1.092   4.210  1.9239 -0.1501 -1.3180
  216MOL0     H29099   1.941   1.367   4.281 -0.1344  0.8930 -0.6909
  216MOL0     H29100   2.078   1.361   4.173 -2.0008  0.0464 -1.1130
  216MOL0     H29101   2.046   1.214   4.432  0.3528 -3.7595 -2.3085
  216MOL0     H29102   2.168   1.167   4.321 -1.8050 -1.1544 -0.1388
  216MOL0     H29103   2.277   1.382   4.323  0.9899 -1.6306 -0.0107
  216MOL0     H29104   2.176   1.432   4.465 -1.6056  0.3126 -0.5859
  216MOL0     H29105   2.269   1.204   4.568 -0.3780  0.7288  0.6711
  216MOL0     H29106   2.377   1.201   4.440 -2.3786  0.3074 -2.2251
  216MOL0     H29107   2.339   1.409   4.655 -0.2037 -0.7115  0.0136
  216MOL0     H29108   2.440   1.449   4.518 -1.6513  0.0489  0.0503
  216MOL0     H29109   2.539   1.340   4.762 -0.7834 -1.7929  1.3626
  216MOL0     H29110   2.467   1.204   4.716  0.0988  0.6976  0.2541
  216MOL0     H29111   2.717   1.444   4.549 -0.8095 -1.0220  0.3151
  216MOL0     H29112   2.939   1.252   4.308  1.5035  0.6494  0.3112
  216MOL0     H29113   2.867   1.407   4.329  0.7672 -0.6375 -1.4191
  216MOL0     H29114   3.090   1.455   4.403  1.1059 -0.5078 -0.4566
  216MOL0     H29115   3.022   1.390   4.560  3.6823 -1.7093  0.5530
  216MOL0     H29116   3.180   1.248   4.343 -0.5647  1.5775 -0.3821
  216MOL0     H29117   3.082   1.159   4.460  2.1044 -0.1766  3.5547
  216MOL0     H29118   3.322   1.164   4.525 -3.5314 -2.7579 -0.0523
  216MOL0     H29119   3.212   1.227   4.640 -2.6096 -0.7306 -0.7204
  216MOL0     H29120   3.469   1.476   4.721  1.0769 -2.4003  1.9690
  216MOL0     H29121   3.725   1.456   4.732 -0.8995  0.0369  0.0787
  216MOL0     H29122   4.159   1.347   4.440 -0.1129 -0.6929  0.2474
  216MOL0     H29123   4.387   1.379   4.490  0.2458 -1.7223  0.8693
  216MOL0     H29124   4.593   1.317   4.660  1.1836 -0.1299  1.7862
  216MOL0     H29125   4.577   1.459   4.548  0.5216 -0.9774 -0.8309
  216MOL0     H29126   4.745   1.451   4.791  1.9186 -1.6691 -0.4212
  216MOL0     H29127   4.806   1.405   4.638 -0.2713  0.2488 -0.9245
  216MOL0     H29128   4.713   1.674   4.727  1.5901  0.6911  0.4085
  216MOL0     H29129   4.885   1.616   4.711 -0.3532  2.1504  0.7462
  216MOL0     H29130   4.707   1.600   4.479 -0.6593 -2.6864  3.8449
  216MOL0     H29131   4.886   1.613   4.500  1.4606  2.5884  2.2426
  216MOL0     H29132   4.883   1.840   4.542 -0.0752 -0.6641  0.5976
  216MOL0     H29133   4.699   1.864   4.554  0.8046  0.6095  1.6630
  216MOL0     H29134   4.675   1.779   4.324  0.1697 -1.6256  0.0155
  216MOL0     H29135   4.746   1.941   4.343  1.3075  0.6569 -1.6804
  216MOL0     H29136   4.861   1.676   4.282 -0.9590  0.9641  2.9290
  216MOL0     H29137   4.971   1.811   4.318  1.0868 -0.1360 -1.5185
  216MOL0     H29138   4.911   1.767   4.051 -0.3866 -0.2358 -0.6224
  216MOL0     H29139   4.757   1.839   4.094  0.5529 -0.1309 -2.2744
  216MOL0     H29140   4.291   1.489   4.891 -1.1863 -1.3801  0.6434
  216MOL0     H29141   4.058   1.469   4.851  0.8980  0.8403  0.4521
  216MOL0     H29142   3.692   1.280   4.329 -1.1685  2.3077 -1.6277
  216MOL0     H29143   3.460   1.299   4.338  1.4910 -1.2439  0.2366
  216MOL0     H29144   1.592   1.306   4.074 -0.9926  1.0596 -0.9452
  216MOL0     H29145   1.409   1.331   3.909  2.1106  1.1994  1.5444
  216MOL0     H29146   0.977   1.054   3.773  3.2847  0.3731  1.6975
  216MOL0     H29147   0.764   1.143   3.662 -0.5514 -0.6079 -1.3619
  216MOL0     H29148   0.849   1.467   3.367  0.9581 -1.9909 -0.0548
  216MOL0     H29149   0.795   1.583   3.501 -0.0329 -0.1271 -0.0109
  216MOL0     H29150   0.610   1.446   3.305 -1.0044 -2.3919  2.1326
  216MOL0     H29151   0.654   1.607   3.302  2.2781 -0.9004  0.0499
  216MOL0     H29152   0.562   1.629   3.537  1.1972  0.9505 -0.2920
  216MOL0     H29153   0.511   1.456   3.525 -3.6670  1.1770  0.2702
  216MOL0     H29154   0.417   1.643   3.306  1.7972 -0.3098  0.1449
  216MOL0     H29155   0.376   1.485   3.338  2.6396  0.0269 -0.7004
  216MOL0     H29156   0.113   1.671   3.612 -0.2486  0.7354  0.0983
  216MOL0     H29157   0.993   1.504   3.570 -0.4060  1.7581  1.7589
  216MOL0     H29158   1.260   1.435   3.775  1.4880 -0.6525 -0.0906
  216MOL0     H29159   1.308   1.397   3.612  1.6099  1.7630  1.5121
  216MOL0     H29160   1.200   1.533   3.646  1.4853  1.1219  3.3035
  217MOL0     O29161  10.198   4.927   5.731  0.3901 -0.4018 -0.1141
  217MOL0     C29162  10.087   4.925   5.678  0.4493  0.0451  0.1086
  217MOL0     O29163  10.019   5.033   5.631  0.5781  0.3065  0.0943
  217MOL0     C29164  10.039   5.165   5.677 -0.8163  0.7456  0.4336
  217MOL0     C29165   9.952   5.263   5.618 -0.1111 -0.4229  1.1789
  217MOL0     C29166   9.964   5.398   5.658 -0.4173 -0.4520  0.0269
  217MOL0     C29167  10.070   5.438   5.747  0.4299  0.4866  0.6955
  217MOL0     O29168  10.094   5.574   5.786 -0.7561 -0.0752 -0.3646
  217MOL0     C29169  10.079   5.662   5.670  0.6155 -0.1283  0.5411
  217MOL0     C29170  10.157   5.794   5.702 -0.0320  0.4488 -0.4707
  217MOL0     C29171  10.299   5.775   5.650  0.0789 -0.7199  0.2063
  217MOL0     C29172  10.394   5.885   5.698  0.3132 -0.1214  0.7463
  217MOL0     C29173  10.530   5.872   5.624 -0.4765 -0.1435  0.2489
  217MOL0     C29174  10.521   5.904   5.472 -0.2895  0.1760 -0.3244
  217MOL0     C29175  10.659   5.939   5.424 -0.7769  0.7613 -0.0343
  217MOL0     C29176  10.738   5.812   5.405 -0.6587  0.0714 -0.5674
  217MOL0     N29177  10.874   5.836   5.379 -0.7794  0.0757 -0.0757
  217MOL0     C29178  10.965   5.900   5.459 -0.0817 -0.4759  0.2537
  217MOL0     C29179  11.088   5.890   5.405  0.4477  0.0825  0.1530
  217MOL0     C29180  11.214   5.948   5.452 -0.9045  0.4312  0.0960
  217MOL0     C29181  11.235   6.099   5.417  0.3530 -0.0121 -0.7367
  217MOL0     C29182  11.129   6.202   5.467 -0.3003  0.6822 -0.1129
  217MOL0     C29183  11.132   6.228   5.616  0.2178  0.5552  0.8089
  217MOL0     O29184  11.059   6.142   5.694  0.7015  0.3215 -0.0222
  217MOL0     C29185  10.928   6.165   5.716  0.2555 -0.0762  0.3709
  217MOL0     C29186  10.839   6.262   5.655 -0.6125  0.0767  0.4563
  217MOL0     C29187  10.704   6.270   5.695  0.2957  0.8014 -0.4792
  217MOL0     C29188  10.655   6.188   5.796  0.5838 -0.9633 -0.3490
  217MOL0     C29189  10.513   6.203   5.847  0.0380  1.0609 -0.1685
  217MOL0     O29190  10.438   6.296   5.783 -0.0205  0.1646  1.0961
  217MOL0     C29191  10.303   6.284   5.803  0.4077  0.7057  0.2478
  217MOL0     C29192  10.232   6.321   5.922 -0.9720 -0.9052 -0.3282
  217MOL0     C29193  10.095   6.291   5.943  0.3578  0.3451  0.0849
  217MOL0     C29194  10.030   6.209   5.844 -0.1723 -0.3841 -0.0869
  217MOL0     O29195   9.900   6.171   5.864 -0.1326 -0.0997  0.5616
  217MOL0     C29196   9.874   6.046   5.798 -0.0198 -0.7350 -0.2456
  217MOL0     C29197   9.748   5.989   5.849  0.1176  0.1289 -0.2140
  217MOL0     C29198   9.718   5.854   5.784  0.2236 -0.9621 -0.5365
  217MOL0     C29199   9.579   5.813   5.827  0.0688  0.8184 -0.5121
  217MOL0     C29200   9.548   5.677   5.762  0.2960 -0.2910  0.4515
  217MOL0     C29201   9.399   5.651   5.791  0.1411 -0.4854 -0.0378
  217MOL0     C29202   9.343   5.512   5.746 -0.2756 -0.2364 -0.4989
  217MOL0     C29203   9.395   5.486   5.603  0.3650  0.4266  0.3823
  217MOL0    Cl29204   9.298   5.584   5.483  0.1829 -0.1938 -0.5516
  217MOL0     C29205  10.090   6.196   5.716  0.2811 -0.5448 -0.8685
  217MOL0     C29206  10.230   6.217   5.702 -0.5794  0.3444  0.6066
  217MOL0     O29207  10.475   6.119   5.922  0.4604 -0.2566 -0.0545
  217MOL0     C29208  10.738   6.093   5.862 -0.2196 -0.4530  0.2512
  217MOL0     C29209  10.873   6.085   5.818  0.1866  0.5309 -0.5941
  217MOL0     N29210  11.067   5.838   5.278 -0.1767  0.2831 -0.1497
  217MOL0     N29211  10.941   5.803   5.264  0.4630  0.3495  0.2541
  217MOL0     C29212  10.162   5.344   5.792  0.7678  0.4419 -0.2526
  217MOL0     C29213  10.142   5.210   5.773  0.0014 -0.2386 -0.0640
  217MOL0     C29214  10.033   4.788   5.647  0.2687  0.1267 -0.2620
  217MOL0     C29215   9.905   4.776   5.582  0.3977  0.3096  0.7373
  217MOL0     C29216   9.871   4.652   5.530  0.6832  0.0598  0.1370
  217MOL0     C29217   9.945   4.541   5.559 -0.1423  0.1838 -0.6536
  217MOL0     O29218   9.925   4.413   5.510 -0.5798  0.5123  0.0863
  217MOL0     C29219   9.846   4.391   5.392  0.1352 -0.1944 -0.2891
  217MOL0     C29220   9.698   4.346   5.433  1.0141  0.0696  0.1885
  217MOL0     C29221   9.709   4.214   5.529 -0.2156 -0.0820  0.6787
  217MOL0     C29222   9.579   4.159   5.593 -0.7039 -1.2121 -0.3815
  217MOL0     C29223   9.502   4.090   5.487  0.8607 -0.1127 -0.1691
  217MOL0     C29224   9.422   4.035   5.415  0.9657  0.4829 -0.5398
  217MOL0     C29225  10.058   4.546   5.629 -0.5718 -0.3361  0.0588
  217MOL0     C29226  10.112   4.670   5.669  0.1089 -0.5202  0.7328
  217MOL0     C29227  10.254   4.655   5.723 -0.4666  1.2520  0.0350
  217MOL0     H29228   9.864   5.233   5.560 -1.5706  3.2760  1.2304
  217MOL0     H29229   9.891   5.465   5.615 -0.7915 -1.0907 -0.3566
  217MOL0     H29230  10.112   5.613   5.578  1.3815  0.3259  0.5650
  217MOL0     H29231   9.970   5.670   5.660  0.6117 -2.0238 -1.9764
  217MOL0     H29232  10.148   5.819   5.808 -0.8996  2.7914 -1.0303
  217MOL0     H29233  10.104   5.877   5.656 -0.0230  0.9998  0.4857
  217MOL0     H29234  10.288   5.776   5.541 -1.4521  0.5127  0.3453
  217MOL0     H29235  10.336   5.676   5.680  0.2657 -1.1152 -1.2135
  217MOL0     H29236  10.351   5.984   5.679 -0.7973 -0.8057 -0.4339
  217MOL0     H29237  10.405   5.882   5.807  1.7240 -1.7496  0.5934
  217MOL0     H29238  10.603   5.939   5.670  1.1130 -1.9010  0.4495
  217MOL0     H29239  10.565   5.768   5.633 -1.8545 -0.7799 -1.2321
  217MOL0     H29240  10.482   5.820   5.413  1.9275 -1.5856  0.5772
  217MOL0     H29241  10.455   5.990   5.454  1.0813  1.5409  0.8750
  217MOL0     H29242  10.712   6.020   5.475  1.0108  0.3464 -1.1394
  217MOL0     H29243  10.651   5.984   5.325 -0.3970  2.0067  0.4897
  217MOL0     H29244  10.739   5.755   5.498  0.1071 -0.1086 -0.6797
  217MOL0     H29245  10.706   5.750   5.321  3.1102 -2.0599 -0.6435
  217MOL0     H29246  10.951   5.934   5.561 -1.0391  0.5275 -0.1865
  217MOL0     H29247  11.211   5.937   5.560  1.4689 -1.1058  0.0633
  217MOL0     H29248  11.295   5.885   5.415 -1.6161 -0.1959 -0.4521
  217MOL0     H29249  11.332   6.128   5.459 -0.9134  0.9021  1.7845
  217MOL0     H29250  11.243   6.099   5.308  1.0239 -1.4939 -0.7124
  217MOL0     H29251  11.026   6.174   5.445  0.6453 -3.1046 -0.3473
  217MOL0     H29252  11.147   6.302   5.425 -0.4204  1.5683  1.8281
  217MOL0     H29253  11.096   6.331   5.629 -1.3097  0.0612  0.6318
  217MOL0     H29254  11.240   6.227   5.634  0.6863  3.3339 -1.1647
  217MOL0     H29255  10.879   6.326   5.577  0.8299 -0.4672  0.7312
  217MOL0     H29256  10.646   6.352   5.655 -2.2475 -0.2315  0.8700
  217MOL0     H29257  10.289   6.378   5.994  0.3510 -2.3614 -0.1682
  217MOL0     H29258  10.054   6.315   6.041 -0.2135  1.1381 -0.3347
  217MOL0     H29259   9.848   6.055   5.692 -4.2694 -0.7009  0.6436
  217MOL0     H29260   9.949   5.969   5.818 -0.0165 -1.2276 -1.9959
  217MOL0     H29261   9.761   5.983   5.958 -0.4353  1.4718 -0.0607
  217MOL0     H29262   9.666   6.059   5.831  0.5074  0.2055 -1.8212
  217MOL0     H29263   9.740   5.865   5.678  0.9568  1.8961 -0.1787
  217MOL0     H29264   9.781   5.776   5.828 -1.0308 -1.1852  0.9709
  217MOL0     H29265   9.497   5.884   5.818 -0.1663  0.6596  0.2609
  217MOL0     H29266   9.581   5.801   5.936 -0.6132  0.7389 -0.5035
  217MOL0     H29267   9.611   5.598   5.803  1.2720 -0.4273 -1.2337
  217MOL0     H29268   9.590   5.687   5.662  2.3269  0.6900  1.3349
  217MOL0     H29269   9.377   5.673   5.896 -0.6330  0.5475 -0.4010
  217MOL0     H29270   9.344   5.723   5.730  0.3888 -1.4643 -1.4808
  217MOL0     H29271   9.233   5.506   5.750 -0.3445 -1.7040 -2.9463
  217MOL0     H29272   9.390   5.433   5.805 -0.4092 -1.5121 -2.0301
  217MOL0     H29273   9.498   5.515   5.583  0.3483  1.3831  1.5445
  217MOL0     H29274   9.389   5.380   5.579 -0.5385  0.0278  2.1864
  217MOL0     H29275  10.055   6.144   5.628 -1.2426  0.6420 -0.9880
  217MOL0     H29276  10.278   6.178   5.612 -0.5884 -0.4423  0.9325
  217MOL0     H29277  10.704   6.030   5.943 -0.0035 -1.2783 -0.2906
  217MOL0     H29278  10.941   6.017   5.867  1.1858  0.6472 -1.7686
  217MOL0     H29279  10.238   5.394   5.852  1.6711  1.6305 -2.3020
  217MOL0     H29280  10.203   5.135   5.821  1.0707 -0.6267 -1.9228
  217MOL0     H29281   9.838   4.859   5.562 -0.9267 -1.0709 -0.8850
  217MOL0     H29282   9.783   4.644   5.467 -0.2264  0.5231  1.3003
  217MOL0     H29283   9.883   4.311   5.327  0.5722 -0.1659 -0.0776
  217MOL0     H29284   9.833   4.485   5.337 -1.7140 -0.4644 -0.3901
  217MOL0     H29285   9.647   4.316   5.342 -0.4914  0.9593  0.6977
  217MOL0     H29286   9.642   4.425   5.484  0.9505  0.7164 -0.8753
  217MOL0     H29287   9.770   4.242   5.615  1.3385 -0.5736 -0.2190
  217MOL0     H29288   9.762   4.140   5.469  0.6617  0.5305  0.6672
  217MOL0     H29289   9.608   4.090   5.674  2.2391 -0.0027 -0.2522
  217MOL0     H29290   9.520   4.237   5.640 -0.4297 -2.7295  2.7685
  217MOL0     H29291   9.353   3.974   5.360  1.8868 -0.9637 -0.1547
  217MOL0     H29292  10.108   4.451   5.648  0.1596 -0.2162 -1.1670
  217MOL0     H29293  10.267   4.549   5.744  0.5754  0.7856 -2.6237
  217MOL0     H29294  10.332   4.695   5.657 -0.7542 -0.1207 -1.1812
  217MOL0     H29295  10.267   4.707   5.819 -0.7573 -1.3629  1.5784
  218MOL0     O29296   3.728   2.586   7.152 -0.0357 -0.2240  0.2304
  218MOL0     C29297   3.704   2.470   7.190  0.0071  0.0836  0.3176
  218MOL0     O29298   3.787   2.365   7.169 -0.3903 -0.1611 -0.2511
  218MOL0     C29299   3.905   2.369   7.098 -0.4623  0.6937  0.3244
  218MOL0     C29300   3.997   2.262   7.126 -1.1977 -0.4389  0.1008
  218MOL0     C29301   4.121   2.256   7.056  0.4377  0.3307  0.9611
  218MOL0     C29302   4.152   2.349   6.958  0.4510 -0.5634  0.7481
  218MOL0     O29303   4.282   2.344   6.920  0.1275 -0.0504 -1.3327
  218MOL0     C29304   4.327   2.467   6.865  0.2782  0.4246 -0.1048
  218MOL0     C29305   4.477   2.432   6.836 -0.0312 -0.2526  0.0383
  218MOL0     C29306   4.497   2.332   6.721 -0.6613  0.1577 -0.6562
  218MOL0     C29307   4.494   2.402   6.583 -0.0637 -0.0291 -0.9430
  218MOL0     C29308   4.548   2.310   6.478  0.1093 -0.0247  0.6129
  218MOL0     C29309   4.536   2.366   6.333 -0.2142  0.0284  0.2225
  218MOL0     C29310   4.634   2.315   6.233 -0.2804 -0.0209  0.4681
  218MOL0     C29311   4.637   2.168   6.219 -0.5566 -0.3949 -0.0129
  218MOL0     N29312   4.724   2.121   6.112 -0.6754 -0.1854  0.9936
  218MOL0     C29313   4.855   2.089   6.125  0.0395 -0.7356 -0.0026
  218MOL0     C29314   4.883   2.026   6.011 -1.0177 -0.1556  0.0470
  218MOL0     C29315   5.010   1.956   5.987 -0.3262 -0.2369  0.4481
  218MOL0     C29316   5.116   2.061   5.947 -0.4456 -0.1765  0.6669
  218MOL0     C29317   5.090   2.106   5.801 -0.2491 -0.0406 -0.1391
  218MOL0     C29318   5.206   2.205   5.762  0.1177  0.4503 -0.5169
  218MOL0     O29319   5.163   2.297   5.661  0.2028  0.8086  0.4222
  218MOL0     C29320   5.240   2.327   5.548 -0.1728  0.0883 -0.3886
  218MOL0     C29321   5.156   2.379   5.442  0.5952 -0.6226 -0.3191
  218MOL0     C29322   5.226   2.434   5.329  0.7242  0.3610 -0.3882
  218MOL0     C29323   5.365   2.427   5.314  0.7820  0.5572 -0.9911
  218MOL0     C29324   5.426   2.463   5.190 -0.5815 -0.5643 -0.0509
  218MOL0     O29325   5.568   2.475   5.180 -0.0412  0.3535  0.5579
  218MOL0     C29326   5.637   2.499   5.062 -0.2735  0.6285  0.5412
  218MOL0     C29327   5.771   2.538   5.064  0.2898  0.0090 -0.4417
  218MOL0     C29328   5.852   2.550   4.947  0.0844  0.3564  0.0345
  218MOL0     C29329   5.794   2.522   4.824  0.0476  0.0293  0.5418
  218MOL0     O29330   5.869   2.523   4.707  0.0187  0.2838  0.5401
  218MOL0     C29331   6.000   2.574   4.699  0.3603  0.2294 -0.1288
  218MOL0     C29332   6.050   2.573   4.560  0.7255 -0.4160  0.4909
  218MOL0     C29333   6.104   2.441   4.509  0.6512  0.3403  0.2014
  218MOL0     C29334   6.184   2.447   4.375  0.4853  0.3201 -0.3127
  218MOL0     C29335   6.238   2.308   4.330 -0.9376 -0.6414  0.0607
  218MOL0     C29336   6.283   2.316   4.189 -0.1999  0.1421  0.1872
  218MOL0     C29337   6.312   2.176   4.146 -0.4542  0.0249  0.3171
  218MOL0     C29338   6.380   2.173   4.013 -0.0375 -0.0863  0.4219
  218MOL0    Cl29339   6.292   2.255   3.883  0.4086  0.2619  0.0494
  218MOL0     C29340   5.657   2.483   4.826 -0.0338 -0.0243 -0.2597
  218MOL0     C29341   5.583   2.464   4.938  0.2858 -1.5526  0.2120
  218MOL0     O29342   5.350   2.492   5.096  0.3495 -0.2786 -0.4959
  218MOL0     C29343   5.438   2.379   5.424  0.1847  0.1165  0.2086
  218MOL0     C29344   5.379   2.323   5.538 -0.1167  0.1851 -0.2295
  218MOL0     N29345   4.778   2.022   5.919  0.2794 -0.2146  0.7455
  218MOL0     N29346   4.682   2.076   5.983  0.4691  0.1061  0.0823
  218MOL0     C29347   4.048   2.436   6.911 -0.3997  0.3116  0.1690
  218MOL0     C29348   3.933   2.445   6.988  0.8203 -0.9484 -0.2952
  218MOL0     C29349   3.569   2.439   7.245 -0.0390  0.0399  0.0127
  218MOL0     C29350   3.512   2.321   7.194 -0.1075 -0.2110  0.3728
  218MOL0     C29351   3.377   2.292   7.223 -0.1036  0.4195  0.4408
  218MOL0     C29352   3.301   2.369   7.301  0.2338 -0.7839 -0.0378
  218MOL0     O29353   3.172   2.330   7.311  0.5288  0.8003 -0.2831
  218MOL0     C29354   3.067   2.431   7.324  0.2511  0.7386  0.1483
  218MOL0     C29355   2.937   2.359   7.358  0.2224 -0.2984 -0.2338
  218MOL0     C29356   2.833   2.469   7.324 -0.2580  0.0254  0.1432
  218MOL0     C29357   2.688   2.429   7.339  0.2919  1.2447  0.1854
  218MOL0     C29358   2.648   2.436   7.478 -0.6885 -0.4479  0.7750
  218MOL0     C29359   2.618   2.446   7.592  0.2618  0.3140  0.0260
  218MOL0     C29360   3.357   2.484   7.363 -0.0810  0.1213  1.3769
  218MOL0     C29361   3.492   2.520   7.340  0.7422  0.1458  0.1591
  218MOL0     C29362   3.549   2.636   7.400  0.5873 -0.6099 -0.2698
  218MOL0     H29363   3.969   2.183   7.195  1.0811 -2.4753 -1.1506
  218MOL0     H29364   4.185   2.170   7.076 -2.3723 -1.4083  3.2746
  218MOL0     H29365   4.282   2.493   6.769  0.1453  1.9002  0.3309
  218MOL0     H29366   4.331   2.552   6.934  0.0068  1.6699 -1.5754
  218MOL0     H29367   4.524   2.390   6.926  3.6274  1.3153 -0.9257
  218MOL0     H29368   4.528   2.528   6.824  0.9273 -0.8690 -1.0173
  218MOL0     H29369   4.416   2.259   6.726 -1.6658  1.3356  1.2381
  218MOL0     H29370   4.591   2.276   6.729 -0.2623  0.8779 -0.1432
  218MOL0     H29371   4.387   2.419   6.576  0.1700  3.1792  1.4438
  218MOL0     H29372   4.531   2.505   6.591 -3.1980  1.1875 -1.0395
  218MOL0     H29373   4.650   2.277   6.499 -0.0422 -0.4389  0.7207
  218MOL0     H29374   4.484   2.221   6.485 -0.3695  0.2444 -0.1321
  218MOL0     H29375   4.432   2.359   6.300 -0.1878 -1.3884  0.3835
  218MOL0     H29376   4.558   2.472   6.341  0.5791 -0.2416  2.1587
  218MOL0     H29377   4.736   2.338   6.265  0.7949 -2.1738 -1.1459
  218MOL0     H29378   4.614   2.354   6.133  1.1064  1.8757  0.8588
  218MOL0     H29379   4.662   2.111   6.309  2.1433  3.2849  1.8209
  218MOL0     H29380   4.534   2.140   6.195 -1.1623  0.6386  1.2303
  218MOL0     H29381   4.924   2.111   6.205  1.7736  0.5983 -1.7844
  218MOL0     H29382   5.049   1.908   6.077  3.3826 -0.7244 -1.2360
  218MOL0     H29383   4.998   1.881   5.908 -1.1065  0.6759 -0.3351
  218MOL0     H29384   5.121   2.142   6.019 -1.8624  1.2199 -0.7003
  218MOL0     H29385   5.207   2.002   5.957  0.2071  0.5649 -0.6422
  218MOL0     H29386   4.989   2.149   5.805 -0.0648  0.3776  3.7048
  218MOL0     H29387   5.089   2.034   5.720 -1.2084  1.1495 -1.2409
  218MOL0     H29388   5.294   2.156   5.718 -1.2960 -1.0765 -1.7356
  218MOL0     H29389   5.236   2.278   5.838  1.7038  0.5745 -1.2188
  218MOL0     H29390   5.049   2.383   5.463  0.5661 -3.8952  0.7083
  218MOL0     H29391   5.169   2.464   5.242 -1.2021  2.3172  1.4579
  218MOL0     H29392   5.802   2.561   5.165 -0.7386  0.5062 -0.2214
  218MOL0     H29393   5.948   2.597   4.965  0.0237  0.6822 -0.4633
  218MOL0     H29394   6.010   2.673   4.746 -0.0710 -0.0529  0.5834
  218MOL0     H29395   6.066   2.504   4.751  0.1693  0.0910 -0.0715
  218MOL0     H29396   5.969   2.612   4.498  0.4204 -1.5486  0.1504
  218MOL0     H29397   6.135   2.642   4.559  0.8500 -0.5561  0.9238
  218MOL0     H29398   6.170   2.407   4.590  0.4771  3.0849  1.6466
  218MOL0     H29399   6.029   2.362   4.509  2.6956 -1.7802  2.2752
  218MOL0     H29400   6.273   2.511   4.379 -0.3847  1.5628  2.9575
  218MOL0     H29401   6.118   2.481   4.295  0.8445  1.5559 -0.1041
  218MOL0     H29402   6.169   2.224   4.346  0.3625 -1.6344  0.5464
  218MOL0     H29403   6.323   2.284   4.395  1.4594  2.1324 -1.8186
  218MOL0     H29404   6.205   2.355   4.123  0.1507 -3.7219 -2.9173
  218MOL0     H29405   6.369   2.382   4.183 -0.8136  1.2135  2.2278
  218MOL0     H29406   6.226   2.109   4.152  0.0205 -0.5000  1.8901
  218MOL0     H29407   6.387   2.127   4.209  1.1646  1.1235 -0.6412
  218MOL0     H29408   6.478   2.221   4.026 -0.3458  0.9991 -0.9573
  218MOL0     H29409   6.410   2.073   3.979  3.6425  0.7782  0.6422
  218MOL0     H29410   5.613   2.455   4.730 -0.5623 -0.9762  0.2425
  218MOL0     H29411   5.486   2.420   4.917  1.4807 -3.2740 -2.1509
  218MOL0     H29412   5.544   2.375   5.404 -0.0127 -3.3234 -0.7451
  218MOL0     H29413   5.438   2.287   5.622 -1.4173  1.4245  1.2718
  218MOL0     H29414   4.050   2.511   6.833 -3.3453 -1.6169 -1.9586
  218MOL0     H29415   3.860   2.519   6.957  2.4393  1.8625  2.0682
  218MOL0     H29416   3.564   2.263   7.119 -1.1185  0.0267 -0.5330
  218MOL0     H29417   3.335   2.203   7.177 -0.0257  0.8105 -0.4024
  218MOL0     H29418   3.055   2.514   7.253 -2.2011  3.1375  3.0844
  218MOL0     H29419   3.080   2.490   7.415  0.5235  0.8203  0.0597
  218MOL0     H29420   2.933   2.327   7.463 -2.5578 -0.0290 -0.1845
  218MOL0     H29421   2.924   2.273   7.291  2.7718 -1.5012  0.6877
  218MOL0     H29422   2.857   2.516   7.228  0.5062  4.0175  2.0893
  218MOL0     H29423   2.850   2.551   7.394  0.0040  0.0952  0.0009
  218MOL0     H29424   2.632   2.504   7.281  1.5247  1.6129 -0.5846
  218MOL0     H29425   2.681   2.330   7.294 -1.3379  1.6826 -0.6312
  218MOL0     H29426   2.583   2.473   7.690 -0.9335  2.8742 -1.0188
  218MOL0     H29427   3.297   2.546   7.430 -1.4207 -1.3926  1.6402
  218MOL0     H29428   3.626   2.594   7.466  1.4487  1.1184 -0.1340
  218MOL0     H29429   3.595   2.695   7.320  1.9217 -0.3722  0.6326
  218MOL0     H29430   3.469   2.690   7.451  2.6865  0.4066  2.1803
  219MOL0     O29431   8.240   9.033   3.855 -0.3851 -0.2662  0.4325
  219MOL0     C29432   8.240   9.150   3.895  0.4018 -0.4978  0.2057
  219MOL0     O29433   8.358   9.222   3.924  0.7921 -0.7351  0.4607
  219MOL0     C29434   8.345   9.332   4.009  1.0579 -0.1591  0.4285
  219MOL0     C29435   8.300   9.321   4.137  0.0597 -0.1626 -1.7864
  219MOL0     C29436   8.305   9.429   4.223  0.4110  0.2540 -0.3596
  219MOL0     C29437   8.360   9.553   4.181 -0.1903 -0.0684  0.4407
  219MOL0     O29438   8.381   9.655   4.271  0.6652 -0.2722 -0.1193
  219MOL0     C29439   8.284   9.677   4.378 -0.5459 -0.3124  0.0800
  219MOL0     C29440   8.334   9.781   4.481 -0.4347 -0.4785  0.3139
  219MOL0     C29441   8.471   9.723   4.545 -0.6242 -1.0254  0.2328
  219MOL0     C29442   8.526   9.816   4.662  0.5595  0.8234 -0.2884
  219MOL0     C29443   8.625   9.750   4.759  0.3451  0.0281 -0.3342
  219MOL0     C29444   8.633   9.837   4.884  0.1586  0.1552  0.0480
  219MOL0     C29445   8.733   9.777   4.989 -0.2135  0.1659 -0.3269
  219MOL0     C29446   8.883   9.812   4.955  1.0670  0.2287  0.4516
  219MOL0     N29447   8.978   9.768   5.058  0.5197 -0.0805 -0.2310
  219MOL0     C29448   9.054   9.658   5.060 -0.2219 -0.1209 -0.3965
  219MOL0     C29449   9.123   9.669   5.179 -1.0464  0.3808  0.2817
  219MOL0     C29450   9.250   9.589   5.208 -0.3346  0.5124  0.1886
  219MOL0     C29451   9.253   9.505   5.337 -0.8073 -0.1465 -0.1595
  219MOL0     C29452   9.290   9.585   5.466 -0.4320 -0.0039 -0.0362
  219MOL0     C29453   9.445   9.602   5.493 -0.2936 -0.2340 -0.0608
  219MOL0     O29454   9.500   9.474   5.512  0.0583 -0.5191 -0.3186
  219MOL0     C29455   9.633   9.460   5.540 -1.2738  0.4670  0.0760
  219MOL0     C29456   9.687   9.329   5.531  0.8713  0.7233 -0.0868
  219MOL0     C29457   9.829   9.308   5.562 -0.6725 -0.9143  0.5202
  219MOL0     C29458   9.908   9.414   5.611 -0.2183  0.6032 -0.2467
  219MOL0     C29459  10.054   9.386   5.635  0.3157  0.5647  0.0893
  219MOL0     O29460  10.130   9.486   5.677 -0.0688  0.0664 -0.1540
  219MOL0     C29461  10.262   9.475   5.706  0.3320 -0.3591  0.4737
  219MOL0     C29462  10.358   9.402   5.632  0.4662  0.2681 -0.4977
  219MOL0     C29463  10.494   9.406   5.653 -0.6590 -0.3305  0.1561
  219MOL0     C29464  10.543   9.477   5.765 -0.3227 -0.0892  0.3976
  219MOL0     O29465  10.679   9.492   5.771 -0.5448  0.0781  0.1893
  219MOL0     C29466  10.730   9.565   5.879 -0.1394 -0.1021 -0.8917
  219MOL0     C29467  10.893   9.547   5.891  0.0142 -0.0848 -0.2143
  219MOL0     C29468  10.952   9.645   5.999 -0.1685 -0.2879 -0.0272
  219MOL0     C29469  11.105   9.623   6.006 -0.0554 -0.3301  0.4596
  219MOL0     C29470  11.173   9.722   6.099 -0.2109 -0.3294  0.6728
  219MOL0     C29471  11.317   9.680   6.113  0.0347 -0.4576  0.9283
  219MOL0     C29472  11.399   9.774   6.207  0.2428  0.4099  0.6298
  219MOL0     C29473  11.533   9.717   6.254 -0.1674  0.1906  0.4624
  219MOL0    Cl29474  11.513   9.569   6.345  0.3623 -0.2579  0.0171
  219MOL0     C29475  10.453   9.544   5.848  0.6013 -0.3412  0.5081
  219MOL0     C29476  10.318   9.541   5.817  0.0561  1.0252  0.3247
  219MOL0     O29477  10.091   9.266   5.631  0.3773  0.0425  0.1550
  219MOL0     C29478   9.847   9.544   5.627 -0.1436  0.2846 -0.6393
  219MOL0     C29479   9.715   9.564   5.593  0.9121  0.7384 -0.3862
  219MOL0     N29480   9.075   9.770   5.254 -0.1967  0.0578  0.6909
  219MOL0     N29481   8.993   9.830   5.180  0.3065 -0.2124  0.4629
  219MOL0     C29482   8.410   9.561   4.051 -0.3332  0.2942  0.2130
  219MOL0     C29483   8.404   9.448   3.968 -0.1811  0.1171 -0.1493
  219MOL0     C29484   8.107   9.199   3.925  0.9047  0.5382  0.5653
  219MOL0     C29485   8.028   9.126   4.022  0.1169  0.0414 -0.0949
  219MOL0     C29486   7.897   9.169   4.049 -0.6652  1.3064 -0.0578
  219MOL0     C29487   7.840   9.273   3.987  0.3005  0.6243 -0.5206
  219MOL0     O29488   7.713   9.331   4.020 -0.1890 -0.6434  0.5726
  219MOL0     C29489   7.619   9.241   4.075 -0.5071 -1.0086  0.9702
  219MOL0     C29490   7.481   9.311   4.097 -0.1199 -0.1624 -0.0835
  219MOL0     C29491   7.414   9.354   3.964 -0.0198 -0.2488  1.0119
  219MOL0     C29492   7.394   9.242   3.859  0.1512 -0.4499 -0.4421
  219MOL0     C29493   7.328   9.126   3.919 -1.1466 -1.3497 -0.8042
  219MOL0     C29494   7.261   9.044   3.968  1.1574 -0.2633 -0.1382
  219MOL0     C29495   7.914   9.340   3.893 -0.5109  0.0885  0.1116
  219MOL0     C29496   8.045   9.297   3.850  1.1382  0.0388 -0.2757
  219MOL0     C29497   8.106   9.360   3.732 -0.0828 -0.1258 -0.3655
  219MOL0     H29498   8.267   9.228   4.181 -4.0781  1.8266 -0.1164
  219MOL0     H29499   8.280   9.417   4.328  3.6416  0.2154  0.5123
  219MOL0     H29500   8.189   9.719   4.344  0.2480  0.0272 -1.8430
  219MOL0     H29501   8.271   9.579   4.423 -0.1260 -1.4067 -2.0609
  219MOL0     H29502   8.263   9.797   4.563 -1.0583  0.8626 -0.4447
  219MOL0     H29503   8.355   9.878   4.435 -0.5972 -0.9921 -0.8813
  219MOL0     H29504   8.541   9.715   4.461 -3.8609 -2.2031 -2.5450
  219MOL0     H29505   8.454   9.626   4.592  1.6950 -0.6423  2.0740
  219MOL0     H29506   8.584   9.899   4.620 -1.9930  2.6160 -0.5063
  219MOL0     H29507   8.439   9.859   4.714 -0.0056  1.0856 -1.4256
  219MOL0     H29508   8.581   9.655   4.791  2.7881 -0.4396  2.0242
  219MOL0     H29509   8.717   9.740   4.701  0.2610  3.5860 -1.3080
  219MOL0     H29510   8.650   9.944   4.871  0.7596  0.2992  1.8479
  219MOL0     H29511   8.534   9.835   4.931  0.9190 -1.8102  1.7003
  219MOL0     H29512   8.720   9.669   4.997  1.6409 -0.0937 -0.3845
  219MOL0     H29513   8.724   9.814   5.091  1.2756 -0.9175  0.2308
  219MOL0     H29514   8.901   9.762   4.860 -1.4708 -0.1014  0.0900
  219MOL0     H29515   8.889   9.921   4.946  2.9562  0.0206 -1.7593
  219MOL0     H29516   9.060   9.589   4.976 -1.1716 -0.7220  0.0081
  219MOL0     H29517   9.257   9.519   5.125  1.4795 -0.9421  1.4970
  219MOL0     H29518   9.342   9.648   5.194  2.3612 -3.0091  1.4621
  219MOL0     H29519   9.155   9.459   5.346 -0.3639 -1.5884 -2.0060
  219MOL0     H29520   9.330   9.428   5.323  0.1071  0.6156  0.5029
  219MOL0     H29521   9.251   9.537   5.556 -1.4346  1.2582  0.2250
  219MOL0     H29522   9.249   9.685   5.453  1.2662  0.9867  1.7041
  219MOL0     H29523   9.457   9.665   5.582  2.1960 -0.4880 -0.1314
  219MOL0     H29524   9.485   9.660   5.409 -0.3634 -1.6460 -1.0860
  219MOL0     H29525   9.620   9.248   5.504  1.5208 -0.4657  1.6778
  219MOL0     H29526   9.871   9.209   5.560 -0.3612 -0.8503  2.1264
  219MOL0     H29527  10.321   9.343   5.548 -2.3107  1.9057 -0.5537
  219MOL0     H29528  10.560   9.341   5.597 -0.3755  1.3142 -1.5072
  219MOL0     H29529  10.696   9.669   5.878 -2.7765 -0.7785  2.1999
  219MOL0     H29530  10.693   9.522   5.972  0.9906  0.5321 -0.1191
  219MOL0     H29531  10.910   9.444   5.922  0.3747 -0.2585 -0.9529
  219MOL0     H29532  10.933   9.563   5.790 -0.3111 -2.5053 -0.7877
  219MOL0     H29533  10.931   9.748   5.969 -1.5037 -0.0157  1.6528
  219MOL0     H29534  10.904   9.635   6.097 -0.7146  0.1675 -0.2416
  219MOL0     H29535  11.159   9.622   5.911  0.7308 -2.5494  0.8571
  219MOL0     H29536  11.129   9.522   6.043 -0.3716  0.0828  1.8599
  219MOL0     H29537  11.122   9.715   6.196 -1.6050  1.1499  0.0786
  219MOL0     H29538  11.155   9.824   6.066 -0.2868 -0.4691  0.2807
  219MOL0     H29539  11.320   9.575   6.146 -1.5093 -0.8053  0.0808
  219MOL0     H29540  11.361   9.684   6.012 -2.0105  0.0923  0.0142
  219MOL0     H29541  11.339   9.784   6.299 -1.7328 -0.6656 -0.4705
  219MOL0     H29542  11.412   9.874   6.166 -3.8094  1.3516  1.1716
  219MOL0     H29543  11.590   9.693   6.164 -1.6595 -1.0890 -0.1908
  219MOL0     H29544  11.591   9.790   6.312  0.1423  1.3779 -1.2463
  219MOL0     H29545  10.490   9.616   5.920  2.9448 -1.0430  0.0581
  219MOL0     H29546  10.250   9.605   5.872 -0.2970  0.7518  0.2095
  219MOL0     H29547   9.898   9.634   5.663 -2.9305  1.7647 -0.1024
  219MOL0     H29548   9.660   9.658   5.597 -1.1433 -0.3580 -1.3201
  219MOL0     H29549   8.465   9.651   4.026  0.3016  0.5396  2.3122
  219MOL0     H29550   8.447   9.453   3.868 -2.5764  1.3904 -1.1759
  219MOL0     H29551   8.076   9.032   4.047 -1.3025 -0.3883  1.1745
  219MOL0     H29552   7.844   9.110   4.123 -0.4005  0.4666 -0.5221
  219MOL0     H29553   7.656   9.204   4.171  1.9349  0.5622  0.7151
  219MOL0     H29554   7.611   9.147   4.019 -0.4697 -0.8736  0.7348
  219MOL0     H29555   7.499   9.407   4.148 -0.4391  0.9547 -1.9742
  219MOL0     H29556   7.421   9.244   4.159 -2.3727  0.5537 -1.3693
  219MOL0     H29557   7.472   9.429   3.909 -0.2212 -0.2381  0.8114
  219MOL0     H29558   7.312   9.390   3.982 -0.2023  0.7896 -1.5445
  219MOL0     H29559   7.354   9.272   3.762  0.4991 -0.3248 -0.5504
  219MOL0     H29560   7.492   9.207   3.825  0.3294  2.8770 -4.0164
  219MOL0     H29561   7.209   8.967   4.023  3.2392 -1.1708  0.6646
  219MOL0     H29562   7.868   9.428   3.847 -0.1339  0.4653  0.4449
  219MOL0     H29563   8.198   9.312   3.698 -1.7075 -3.2041 -0.7804
  219MOL0     H29564   8.033   9.378   3.652  0.6570 -0.7061 -1.1834
  219MOL0     H29565   8.149   9.456   3.762 -1.5129  1.3700 -2.7520
  220MOL0     O29566   8.246   2.375   5.700  0.1773 -0.1417 -0.6167
  220MOL0     C29567   8.216   2.374   5.818  1.0097  0.6393  0.6280
  220MOL0     O29568   8.278   2.443   5.917 -0.4597 -0.1068  0.3213
  220MOL0     C29569   8.395   2.502   5.885 -0.6629 -0.3484  0.1260
  220MOL0     C29570   8.411   2.636   5.916 -0.0462  0.5100  0.2297
  220MOL0     C29571   8.533   2.696   5.888  0.2575 -1.4465  0.7287
  220MOL0     C29572   8.641   2.630   5.849 -0.6402 -0.2990  0.2565
  220MOL0     O29573   8.772   2.680   5.838 -0.7143 -0.2366 -0.1469
  220MOL0     C29574   8.772   2.802   5.758  0.6323  0.2406  0.3044
  220MOL0     C29575   8.930   2.826   5.746 -0.1085 -0.6472  0.3244
  220MOL0     C29576   8.997   2.863   5.874  0.2106 -0.4560  0.2172
  220MOL0     C29577   9.144   2.855   5.864 -0.7536  0.2834 -0.0001
  220MOL0     C29578   9.205   2.803   5.992  0.2019  0.0033 -0.3397
  220MOL0     C29579   9.360   2.811   5.980  0.5808  0.2328  0.0879
  220MOL0     C29580   9.430   2.749   6.097  1.0141  0.4466  0.3570
  220MOL0     C29581   9.580   2.744   6.087  0.0552  0.3767 -0.7140
  220MOL0     N29582   9.651   2.868   6.125  0.1350  0.7015  0.6668
  220MOL0     C29583   9.699   2.953   6.034 -0.2960 -0.6660  0.4156
  220MOL0     C29584   9.741   3.065   6.102  0.4422  0.7260  0.4797
  220MOL0     C29585   9.771   3.194   6.029 -0.0991  0.0466  0.0665
  220MOL0     C29586   9.918   3.232   6.023 -0.1927  1.0391 -0.0121
  220MOL0     C29587   9.988   3.256   6.154 -0.0428 -0.0308 -0.2600
  220MOL0     C29588  10.121   3.323   6.136  0.6816  0.1655  0.2072
  220MOL0     O29589  10.099   3.454   6.084  1.0503 -0.4361 -0.3022
  220MOL0     C29590  10.209   3.529   6.067  0.3648  0.2422 -0.6323
  220MOL0     C29591  10.297   3.563   6.172 -0.3278 -0.6803  0.3477
  220MOL0     C29592  10.406   3.645   6.146  1.1192 -1.4197 -1.1123
  220MOL0     C29593  10.433   3.706   6.022 -0.0282 -0.4338 -0.0136
  220MOL0     C29594  10.537   3.800   5.994 -0.4377  0.3826 -0.5707
  220MOL0     O29595  10.559   3.823   5.860 -0.5499 -0.4248  0.6174
  220MOL0     C29596  10.667   3.893   5.811  0.2374 -0.0007  0.4163
  220MOL0     C29597  10.637   3.946   5.683  0.2807 -0.3539 -0.2701
  220MOL0     C29598  10.729   4.036   5.628  0.2704  0.3070  0.0276
  220MOL0     C29599  10.853   4.050   5.693  0.2973 -1.1687 -0.5302
  220MOL0     O29600  10.939   4.152   5.652 -0.7009  0.4919 -0.0439
  220MOL0     C29601  10.902   4.237   5.547 -0.3376  0.7141  0.6858
  220MOL0     C29602  11.007   4.343   5.535  0.3605 -0.0563 -0.2041
  220MOL0     C29603  11.149   4.293   5.490 -0.2440  0.3300 -0.7236
  220MOL0     C29604  11.140   4.230   5.351 -0.0838 -0.0899  0.4647
  220MOL0     C29605  11.276   4.187   5.306 -0.6607  0.4844  0.3303
  220MOL0     C29606  11.274   4.153   5.157 -0.0321 -0.2537  0.1773
  220MOL0     C29607  11.415   4.115   5.120 -0.2405  0.5528  0.1389
  220MOL0     C29608  11.403   4.053   4.970 -1.1742 -0.4603 -0.3370
  220MOL0    Cl29609  11.554   4.040   4.889  0.1834  0.0017 -0.1363
  220MOL0     C29610  10.885   3.983   5.806 -0.1577 -0.4477 -0.4336
  220MOL0     C29611  10.790   3.907   5.871 -0.6066 -0.1692  0.1632
  220MOL0     O29612  10.600   3.841   6.090 -0.1310  0.0881 -0.4581
  220MOL0     C29613  10.346   3.663   5.922  0.5657 -0.5428 -0.2275
  220MOL0     C29614  10.230   3.591   5.944  0.1293  0.2946  0.2852
  220MOL0     N29615   9.714   3.049   6.235 -0.9010  0.0497  0.4350
  220MOL0     N29616   9.658   2.929   6.246  0.2267  0.0175 -0.2896
  220MOL0     C29617   8.622   2.493   5.813 -0.1009 -0.9040 -0.3303
  220MOL0     C29618   8.507   2.433   5.836  0.3838  0.4144  0.6671
  220MOL0     C29619   8.088   2.311   5.859  0.4223 -0.2682 -0.6739
  220MOL0     C29620   8.028   2.356   5.981  0.3019  0.7030 -0.6081
  220MOL0     C29621   7.911   2.295   6.034 -0.7903 -0.0696  0.2265
  220MOL0     C29622   7.843   2.199   5.961  0.0117 -0.3976  0.3194
  220MOL0     O29623   7.730   2.129   5.993  0.3013 -0.5028  0.8592
  220MOL0     C29624   7.633   2.175   6.088 -0.3242  0.0002 -0.2374
  220MOL0     C29625   7.612   2.051   6.195 -0.1580 -0.3654 -0.1518
  220MOL0     C29626   7.464   2.055   6.245 -0.0765  0.1398  0.5455
  220MOL0     C29627   7.452   2.161   6.356  0.4327  0.8755 -0.5580
  220MOL0     C29628   7.315   2.188   6.377  0.0195  0.4271 -0.4259
  220MOL0     C29629   7.204   2.210   6.408 -0.3708  0.1945 -1.2483
  220MOL0     C29630   7.908   2.138   5.849  0.4172 -0.1147  0.5508
  220MOL0     C29631   8.026   2.196   5.797 -0.6177 -0.9665  0.4044
  220MOL0     C29632   8.092   2.129   5.682  0.0234  0.8070  0.9743
  220MOL0     H29633   8.321   2.683   5.955  0.6320  1.9472  0.1493
  220MOL0     H29634   8.549   2.803   5.900  1.1095 -1.3139 -1.1638
  220MOL0     H29635   8.732   2.776   5.659  0.2389 -0.3567  0.6096
  220MOL0     H29636   8.716   2.882   5.806  0.0297 -0.3843  0.6761
  220MOL0     H29637   8.942   2.920   5.691 -1.0100  0.9654  2.7148
  220MOL0     H29638   8.967   2.744   5.684 -3.3460 -0.3330 -2.3370
  220MOL0     H29639   8.955   2.798   5.951  1.1636 -1.3583 -0.0077
  220MOL0     H29640   8.970   2.968   5.890  0.1476 -0.1389 -1.7228
  220MOL0     H29641   9.171   2.800   5.773 -0.7540 -0.1945  0.2865
  220MOL0     H29642   9.189   2.951   5.837 -1.4168 -0.0636 -2.6215
  220MOL0     H29643   9.176   2.861   6.080  2.7604 -1.4263  1.5872
  220MOL0     H29644   9.165   2.704   6.014  0.6926 -0.2808 -0.7107
  220MOL0     H29645   9.387   2.763   5.885 -0.9673 -1.0348  0.2395
  220MOL0     H29646   9.392   2.915   5.968  2.2941 -0.4686 -2.0603
  220MOL0     H29647   9.409   2.641   6.099 -0.8805  0.7681 -0.2136
  220MOL0     H29648   9.383   2.790   6.187 -1.5436 -1.3932 -0.0081
  220MOL0     H29649   9.602   2.673   6.167  1.2028  0.9720 -0.4637
  220MOL0     H29650   9.619   2.701   5.994 -1.5684  1.9167 -2.1854
  220MOL0     H29651   9.701   2.930   5.928  0.2898  1.8174 -0.1776
  220MOL0     H29652   9.737   3.179   5.927  0.9066  0.8696 -0.4058
  220MOL0     H29653   9.716   3.279   6.070  1.3467  1.1886 -0.2690
  220MOL0     H29654   9.967   3.151   5.967 -1.4420  0.3487 -0.1402
  220MOL0     H29655   9.930   3.323   5.964 -2.7558 -0.0535 -2.4724
  220MOL0     H29656  10.000   3.154   6.193  0.3481 -1.2913 -3.3965
  220MOL0     H29657   9.916   3.316   6.211  0.1650 -1.4898  1.6579
  220MOL0     H29658  10.181   3.269   6.062  0.1999  2.7081 -2.2510
  220MOL0     H29659  10.161   3.328   6.237 -2.1253  0.6301  1.3822
  220MOL0     H29660  10.278   3.528   6.272 -1.0391 -2.9203 -0.5170
  220MOL0     H29661  10.461   3.664   6.238 -0.2653 -0.2532 -0.4829
  220MOL0     H29662  10.542   3.932   5.633  0.0305 -1.5580  0.4968
  220MOL0     H29663  10.697   4.075   5.533 -0.0136 -1.6156 -0.7130
  220MOL0     H29664  10.896   4.171   5.461  2.2489 -0.6206  1.4153
  220MOL0     H29665  10.805   4.284   5.566 -1.5999 -0.7499 -1.7421
  220MOL0     H29666  10.975   4.429   5.475 -2.4385 -0.1582  0.9883
  220MOL0     H29667  11.018   4.390   5.634 -3.2475 -1.3236  0.9336
  220MOL0     H29668  11.220   4.376   5.496 -0.8514  0.7848  0.5470
  220MOL0     H29669  11.179   4.223   5.569 -1.0711 -1.6918 -2.1001
  220MOL0     H29670  11.096   4.310   5.290 -2.4705  1.0992  3.4917
  220MOL0     H29671  11.066   4.150   5.347 -1.4398  1.1412 -2.7273
  220MOL0     H29672  11.315   4.098   5.355 -0.7910  0.7351  0.9021
  220MOL0     H29673  11.347   4.267   5.328  1.7434 -2.0774  2.7272
  220MOL0     H29674  11.201   4.076   5.132 -0.1437  0.3533 -1.5044
  220MOL0     H29675  11.240   4.241   5.101 -2.2408 -2.6260 -2.5112
  220MOL0     H29676  11.443   4.035   5.188 -3.2712 -0.8344 -0.1111
  220MOL0     H29677  11.491   4.194   5.127  0.8237 -0.5498  1.6670
  220MOL0     H29678  11.346   3.962   4.988 -2.6827  0.0305 -2.2785
  220MOL0     H29679  11.341   4.110   4.899  2.7224  1.6611 -2.3829
  220MOL0     H29680  10.976   4.009   5.859 -0.2082  0.4736 -0.7957
  220MOL0     H29681  10.821   3.851   5.959 -0.3631 -0.9134 -0.3757
  220MOL0     H29682  10.355   3.705   5.823  1.9898 -0.5730 -0.1426
  220MOL0     H29683  10.173   3.563   5.855  0.8462  0.4691 -0.2380
  220MOL0     H29684   8.712   2.442   5.779 -0.8597 -1.8327 -1.0088
  220MOL0     H29685   8.493   2.327   5.818  0.0395  0.3089  1.5356
  220MOL0     H29686   8.064   2.447   6.028  1.3221 -0.7510  1.5564
  220MOL0     H29687   7.875   2.323   6.133 -0.9973  1.2706 -0.2084
  220MOL0     H29688   7.542   2.192   6.029 -1.9313 -1.6671  1.5947
  220MOL0     H29689   7.677   2.261   6.140  2.5709 -1.6211  0.2244
  220MOL0     H29690   7.678   2.061   6.281 -1.7323  1.8120  0.8962
  220MOL0     H29691   7.647   1.967   6.135  3.6463  1.1094 -0.2472
  220MOL0     H29692   7.433   1.960   6.290 -0.3155 -0.5406 -0.9708
  220MOL0     H29693   7.398   2.087   6.164 -2.3121  0.6041  2.4611
  220MOL0     H29694   7.492   2.121   6.449 -0.3359  0.7900 -0.2529
  220MOL0     H29695   7.507   2.252   6.329 -0.2433  0.7075 -2.6767
  220MOL0     H29696   7.110   2.242   6.447  1.0698  1.4952  1.4345
  220MOL0     H29697   7.859   2.054   5.802  0.4342  0.0689  0.2046
  220MOL0     H29698   8.199   2.109   5.689  0.1241  1.2285  0.6582
  220MOL0     H29699   8.047   2.030   5.669  1.6395  0.3025 -1.2531
  220MOL0     H29700   8.074   2.185   5.590  0.7299 -0.7247 -0.1242
  221MOL0     O29701   4.311   3.652   8.172  0.4412 -0.1876  0.6027
  221MOL0     C29702   4.341   3.713   8.065 -0.1888  1.4957 -0.5626
  221MOL0     O29703   4.467   3.729   8.013  0.3125 -0.3106  0.2417
  221MOL0     C29704   4.583   3.700   8.083  0.4665 -0.8839 -0.1232
  221MOL0     C29705   4.596   3.614   8.192  0.1562 -0.3656  0.0309
  221MOL0     C29706   4.724   3.586   8.250 -0.1377 -0.2118 -0.3852
  221MOL0     C29707   4.837   3.650   8.196  0.1751 -0.5503 -0.2393
  221MOL0     O29708   4.953   3.617   8.254 -0.1849 -0.3757  0.5458
  221MOL0     C29709   5.025   3.732   8.295  0.0123 -0.1203 -0.7575
  221MOL0     C29710   5.167   3.704   8.256 -0.6286 -0.0928 -0.7907
  221MOL0     C29711   5.259   3.812   8.309 -0.3855  0.4504 -0.4579
  221MOL0     C29712   5.403   3.765   8.293 -0.9533  0.6459 -0.0022
  221MOL0     C29713   5.499   3.876   8.347  0.1572  0.0872  0.1854
  221MOL0     C29714   5.638   3.820   8.351 -0.7974 -0.8511 -0.2194
  221MOL0     C29715   5.739   3.912   8.417 -0.2084 -0.0116  0.3332
  221MOL0     C29716   5.886   3.860   8.399  0.2315 -0.1525 -0.3961
  221MOL0     N29717   5.940   3.890   8.269 -0.0630  0.8399  0.2790
  221MOL0     C29718   5.999   4.006   8.234 -0.1014 -1.2476  0.4243
  221MOL0     C29719   6.042   3.987   8.103 -0.6422 -0.4163  0.1950
  221MOL0     C29720   6.140   4.074   8.035  0.7983 -0.0862  0.9547
  221MOL0     C29721   6.280   4.004   8.019  0.2901  0.2761 -1.0553
  221MOL0     C29722   6.378   4.102   7.967 -0.4681 -0.6567  0.3479
  221MOL0     C29723   6.355   4.121   7.812  0.6366 -0.2090  0.0965
  221MOL0     O29724   6.407   4.010   7.730  0.1115  0.0397 -0.1513
  221MOL0     C29725   6.543   4.003   7.693 -1.1104 -0.5176  0.0288
  221MOL0     C29726   6.643   4.091   7.732 -0.2640  0.1629 -1.1356
  221MOL0     C29727   6.771   4.077   7.692 -0.1056 -0.1090 -1.1138
  221MOL0     C29728   6.799   3.970   7.605 -0.1056 -0.3018  0.2814
  221MOL0     C29729   6.941   3.947   7.567  0.0655 -0.7031  0.1253
  221MOL0     O29730   6.970   3.833   7.504  0.1166 -0.3148  0.7540
  221MOL0     C29731   7.097   3.786   7.516  0.2658 -1.3472 -0.1043
  221MOL0     C29732   7.124   3.695   7.610 -1.1543 -0.2364  0.5170
  221MOL0     C29733   7.253   3.634   7.619 -0.8191 -0.2408  0.4152
  221MOL0     C29734   7.357   3.676   7.530  0.9539  0.1268  0.5422
  221MOL0     O29735   7.482   3.624   7.505 -0.2511  0.9558  0.3034
  221MOL0     C29736   7.535   3.535   7.602 -0.7229  0.4359 -1.0302
  221MOL0     C29737   7.666   3.494   7.538 -0.0255 -0.4907  0.2910
  221MOL0     C29738   7.751   3.399   7.628  0.5599 -0.0791  0.3713
  221MOL0     C29739   7.796   3.483   7.745 -1.2080 -0.4312  0.2381
  221MOL0     C29740   7.930   3.422   7.800 -0.8528 -0.3189 -0.3121
  221MOL0     C29741   7.976   3.508   7.926  0.3448 -0.4615 -0.8744
  221MOL0     C29742   8.030   3.424   8.039  0.1089  0.0087  0.5221
  221MOL0     C29743   8.119   3.499   8.139  0.0505  0.4543 -0.3386
  221MOL0    Cl29744   8.018   3.626   8.206  0.3443 -0.0150  0.0105
  221MOL0     C29745   7.328   3.775   7.439  0.3035 -0.4548 -0.6154
  221MOL0     C29746   7.192   3.817   7.426  0.3732 -0.2642  0.8500
  221MOL0     O29747   7.026   4.013   7.624 -0.1558 -0.3459  0.2321
  221MOL0     C29748   6.699   3.881   7.561  0.4846 -0.6340  0.0936
  221MOL0     C29749   6.568   3.898   7.607  0.0280  0.4133 -0.1582
  221MOL0     N29750   6.005   3.865   8.071  0.1105  0.8466  0.3880
  221MOL0     N29751   5.951   3.806   8.166  0.2828 -0.3535  0.2793
  221MOL0     C29752   4.822   3.721   8.075  0.1917  0.1261 -0.9883
  221MOL0     C29753   4.697   3.743   8.022 -0.3824 -1.5847  0.6708
  221MOL0     C29754   4.227   3.768   7.980  0.0688 -0.0169  0.5242
  221MOL0     C29755   4.262   3.818   7.860  1.2122 -0.9168 -0.5176
  221MOL0     C29756   4.172   3.881   7.778  0.1761  0.1350  0.2491
  221MOL0     C29757   4.037   3.895   7.808 -0.0045  0.6266  0.0146
  221MOL0     O29758   3.952   3.937   7.714  0.1635 -0.2892  0.5283
  221MOL0     C29759   3.825   3.986   7.751 -0.5586  0.5811  0.7476
  221MOL0     C29760   3.730   4.015   7.629 -0.4291 -0.3386  0.2696
  221MOL0     C29761   3.736   3.903   7.519 -0.5390  0.4303  0.5564
  221MOL0     C29762   3.625   3.792   7.536 -0.2970  0.0288  0.3717
  221MOL0     C29763   3.490   3.854   7.533 -0.0473  0.0808  0.4520
  221MOL0     C29764   3.381   3.903   7.516  0.0265  0.6115 -0.9416
  221MOL0     C29765   4.002   3.837   7.927  0.7940  0.1064 -1.0149
  221MOL0     C29766   4.094   3.776   8.013  0.1203  1.6271 -0.7817
  221MOL0     C29767   4.025   3.728   8.149 -0.4197 -0.7185  0.0598
  221MOL0     H29768   4.512   3.565   8.241  0.3063  0.4910  1.1805
  221MOL0     H29769   4.740   3.506   8.323 -0.4423 -0.0495 -0.1383
  221MOL0     H29770   4.992   3.822   8.243 -0.5451 -0.8521 -1.7146
  221MOL0     H29771   5.021   3.741   8.403  3.2129 -1.4689 -0.4104
  221MOL0     H29772   5.170   3.715   8.147  0.8017 -0.3913 -0.8048
  221MOL0     H29773   5.204   3.607   8.290  2.3694  2.2151  3.4007
  221MOL0     H29774   5.238   3.827   8.415 -0.7419 -1.4094 -0.2201
  221MOL0     H29775   5.253   3.905   8.253  0.5615  1.7417  1.4588
  221MOL0     H29776   5.417   3.669   8.344  3.7421 -1.2512 -4.0529
  221MOL0     H29777   5.432   3.742   8.190  1.9392 -0.5652  0.9790
  221MOL0     H29778   5.497   3.948   8.265  2.1872 -1.1537 -1.0469
  221MOL0     H29779   5.467   3.913   8.444  0.7025 -1.0497  0.8250
  221MOL0     H29780   5.634   3.731   8.415 -4.3119 -0.2072  0.6439
  221MOL0     H29781   5.678   3.804   8.250  1.5573  2.3174  0.0451
  221MOL0     H29782   5.720   3.901   8.524  1.4897  0.8031  0.7468
  221MOL0     H29783   5.724   4.015   8.383 -0.7856 -0.4970 -0.9700
  221MOL0     H29784   5.942   3.916   8.475  1.1980  0.0734 -1.2611
  221MOL0     H29785   5.906   3.753   8.413  1.5710  0.2055  0.6329
  221MOL0     H29786   6.030   4.093   8.292 -2.1673  2.2999 -3.2801
  221MOL0     H29787   6.100   4.079   7.933 -0.0797 -1.2090  1.2338
  221MOL0     H29788   6.150   4.175   8.075 -0.8905  1.4969 -2.2127
  221MOL0     H29789   6.319   3.984   8.119  1.5362  0.6210 -1.4538
  221MOL0     H29790   6.278   3.906   7.969  0.5212  0.4661 -1.4451
  221MOL0     H29791   6.481   4.069   7.980 -0.0075 -0.3282 -2.0138
  221MOL0     H29792   6.375   4.197   8.022  2.1507 -0.2920 -0.0126
  221MOL0     H29793   6.403   4.213   7.778 -1.1340  0.9459  0.6144
  221MOL0     H29794   6.251   4.131   7.782  0.6427 -3.3248 -1.3756
  221MOL0     H29795   6.614   4.185   7.779  1.0519  1.0158 -1.9613
  221MOL0     H29796   6.845   4.144   7.732 -0.4493 -0.6246  0.4545
  221MOL0     H29797   7.041   3.666   7.674 -2.7291 -0.9986 -1.7439
  221MOL0     H29798   7.282   3.566   7.699 -2.3127 -1.0366  0.3147
  221MOL0     H29799   7.545   3.579   7.702 -0.5348 -0.9766 -0.3999
  221MOL0     H29800   7.477   3.442   7.609 -1.3598  0.9342  1.3139
  221MOL0     H29801   7.641   3.434   7.450  2.5782 -4.2527  1.8709
  221MOL0     H29802   7.713   3.584   7.496 -0.0126 -0.3758  0.5494
  221MOL0     H29803   7.704   3.309   7.671  2.9567 -1.0444  1.1611
  221MOL0     H29804   7.836   3.356   7.575 -1.4524 -0.9161 -2.4089
  221MOL0     H29805   7.717   3.482   7.822 -0.8663 -0.0925  0.5987
  221MOL0     H29806   7.804   3.586   7.708 -3.7696 -0.6570 -1.1867
  221MOL0     H29807   8.010   3.423   7.726 -0.2343  0.5661  0.3466
  221MOL0     H29808   7.904   3.320   7.828 -3.3041  0.3787  0.2276
  221MOL0     H29809   8.046   3.592   7.910  1.0687 -0.1448  2.9961
  221MOL0     H29810   7.887   3.554   7.968  2.4832  0.0881  3.6279
  221MOL0     H29811   8.096   3.357   7.983 -1.9033  0.2211 -2.3546
  221MOL0     H29812   7.953   3.363   8.088 -0.5165 -3.2856 -3.9129
  221MOL0     H29813   8.158   3.442   8.224  1.1592 -0.0813 -1.1769
  221MOL0     H29814   8.210   3.535   8.091 -0.0026  2.3254  0.8815
  221MOL0     H29815   7.408   3.802   7.371 -0.3067  2.2606 -0.3689
  221MOL0     H29816   7.172   3.883   7.342 -0.2919 -0.7122  0.6464
  221MOL0     H29817   6.727   3.799   7.496 -0.5957 -2.8029  2.1793
  221MOL0     H29818   6.488   3.829   7.582 -1.6313  1.7272  1.2829
  221MOL0     H29819   4.917   3.750   8.030  2.0391 -1.5418  1.5667
  221MOL0     H29820   4.695   3.800   7.931  0.5258 -2.6048 -0.0124
  221MOL0     H29821   4.365   3.805   7.827  1.5841 -2.7758  1.1821
  221MOL0     H29822   4.194   3.908   7.675 -0.1836  0.0769  0.1569
  221MOL0     H29823   3.826   4.070   7.821 -1.9554  1.9138 -0.7366
  221MOL0     H29824   3.779   3.898   7.797  0.6983  0.4707  1.8333
  221MOL0     H29825   3.767   4.106   7.581 -0.4785 -0.2455  0.4065
  221MOL0     H29826   3.628   4.034   7.664  0.4232  2.3270  1.5537
  221MOL0     H29827   3.838   3.868   7.506  0.1759  3.1216 -2.6061
  221MOL0     H29828   3.704   3.950   7.425 -2.4191  1.1387  1.4803
  221MOL0     H29829   3.633   3.718   7.456 -0.6431  0.8677 -0.4508
  221MOL0     H29830   3.642   3.744   7.633  1.3219  0.3230  0.2672
  221MOL0     H29831   3.288   3.955   7.514 -0.7172 -0.4828  1.5402
  221MOL0     H29832   3.896   3.824   7.947  1.1114 -1.0501 -0.0205
  221MOL0     H29833   3.918   3.728   8.124 -0.6225  1.2987  0.7255
  221MOL0     H29834   4.064   3.631   8.180 -0.2265 -0.4816  0.5602
  221MOL0     H29835   4.043   3.804   8.226 -2.8286  0.2756 -0.2620
  222MOL0     O29836   4.695   5.908  10.275 -0.0516  0.3244 -0.6887
  222MOL0     C29837   4.635   5.859  10.181 -0.0290  0.2504 -0.0712
  222MOL0     O29838   4.683   5.850  10.054  0.0321 -0.1869 -0.1409
  222MOL0     C29839   4.813   5.892  10.023 -0.2978 -0.3090  0.7126
  222MOL0     C29840   4.831   5.926   9.891 -0.2002 -0.2499 -0.5194
  222MOL0     C29841   4.953   5.976   9.839  0.0461  0.1199 -0.2292
  222MOL0     C29842   5.066   5.977   9.930  0.0041 -0.2098  0.3523
  222MOL0     O29843   5.186   6.034   9.895  0.0674 -0.3463  0.5814
  222MOL0     C29844   5.237   5.978   9.774 -0.7774  0.3192  0.1577
  222MOL0     C29845   5.394   5.962   9.780  0.8068 -0.0287  0.5421
  222MOL0     C29846   5.470   6.097   9.789 -0.0177  0.2484  1.0639
  222MOL0     C29847   5.513   6.152   9.642 -0.3955 -0.3314  0.3041
  222MOL0     C29848   5.621   6.258   9.656 -0.1161  0.3015  0.5759
  222MOL0     C29849   5.638   6.339   9.525  0.1819  0.2023  0.3228
  222MOL0     C29850   5.767   6.427   9.525 -0.1856  0.2340  0.2365
  222MOL0     C29851   5.728   6.549   9.614 -0.0507 -0.5665  1.2036
  222MOL0     N29852   5.847   6.649   9.617 -0.4635  0.3608  0.8165
  222MOL0     C29853   5.914   6.696   9.726 -0.4625 -0.1100 -0.5972
  222MOL0     C29854   6.015   6.766   9.672 -0.0608 -0.5440 -0.6519
  222MOL0     C29855   6.114   6.853   9.740 -0.0488 -0.8908 -0.9197
  222MOL0     C29856   6.250   6.847   9.679 -0.5227  0.4556 -0.0313
  222MOL0     C29857   6.343   6.740   9.731 -0.5837 -0.0518 -0.6000
  222MOL0     C29858   6.496   6.760   9.696 -0.0168  0.2353 -0.0976
  222MOL0     O29859   6.586   6.687   9.793  0.3650  0.1359 -0.2134
  222MOL0     C29860   6.712   6.736   9.804  0.3156 -0.4567  0.0085
  222MOL0     C29861   6.759   6.860   9.755  0.1990 -0.1845  0.2877
  222MOL0     C29862   6.886   6.893   9.780 -0.0173 -0.0660  0.5214
  222MOL0     C29863   6.979   6.812   9.849 -0.5484  0.0195  0.1239
  222MOL0     C29864   7.117   6.868   9.888 -0.6281  0.7455 -0.2126
  222MOL0     O29865   7.175   6.815   9.997  0.5630  0.2261  0.1153
  222MOL0     C29866   7.300   6.843  10.039 -0.1287 -0.3720 -0.0951
  222MOL0     C29867   7.400   6.885   9.952 -0.6388 -0.1359  0.9933
  222MOL0     C29868   7.531   6.910  10.001 -0.6000 -0.1594  0.5627
  222MOL0     C29869   7.569   6.873  10.126  0.1819  0.6749  0.5829
  222MOL0     O29870   7.693   6.860  10.168 -0.3538 -0.4333  0.1605
  222MOL0     C29871   7.806   6.865  10.071  0.1155  0.1986 -0.1873
  222MOL0     C29872   7.937   6.861  10.147  0.0207  0.4613 -0.3709
  222MOL0     C29873   7.960   6.720  10.206  0.9604  0.9274  1.0153
  222MOL0     C29874   8.080   6.720  10.298 -0.2460 -0.2035  0.8394
  222MOL0     C29875   8.209   6.704  10.221 -0.4656 -0.6068  0.5588
  222MOL0     C29876   8.324   6.756  10.317  0.5691 -0.8693  0.4525
  222MOL0     C29877   8.444   6.715  10.224 -0.3338 -1.3119  0.2949
  222MOL0     C29878   8.575   6.704  10.308  0.3063 -0.1625  0.7825
  222MOL0    Cl29879   8.622   6.886  10.340  0.3587  0.2872  0.1303
  222MOL0     C29880   7.470   6.829  10.213 -0.0845  0.3327  0.7596
  222MOL0     C29881   7.335   6.814  10.174 -0.2890 -0.5249 -0.1225
  222MOL0     O29882   7.150   6.973   9.832 -0.2724 -0.9342  0.4039
  222MOL0     C29883   6.942   6.686   9.894 -0.5644  0.3226  0.4231
  222MOL0     C29884   6.807   6.651   9.866 -0.0393  0.8211  0.0951
  222MOL0     N29885   5.994   6.776   9.528  0.2404  0.5048  0.7024
  222MOL0     N29886   5.888   6.709   9.504 -0.7063 -0.7181 -0.6223
  222MOL0     C29887   5.049   5.925  10.058  1.3188  0.3179 -0.4353
  222MOL0     C29888   4.926   5.879  10.104  0.1030 -0.3398 -0.3780
  222MOL0     C29889   4.489   5.840  10.192  0.2692 -0.1171 -0.8661
  222MOL0     C29890   4.416   5.837  10.070 -0.0736 -0.0387 -0.2661
  222MOL0     C29891   4.278   5.837  10.062 -0.6433 -0.4155 -0.0387
  222MOL0     C29892   4.204   5.828  10.175 -0.3452  0.7511  0.4204
  222MOL0     O29893   4.067   5.829  10.184  0.3055  1.1661  0.3071
  222MOL0     C29894   3.992   5.843  10.058  0.1601  0.5110 -0.6139
  222MOL0     C29895   3.838   5.863  10.095  0.3731  1.1784  0.2858
  222MOL0     C29896   3.745   5.818   9.977 -0.5228 -0.2465 -0.0434
  222MOL0     C29897   3.596   5.840  10.010 -0.0659 -0.3406 -0.1776
  222MOL0     C29898   3.568   5.985  10.018  0.2859 -0.5181  0.3531
  222MOL0     C29899   3.535   6.101  10.007 -0.0594  0.2836  0.5370
  222MOL0     C29900   4.272   5.827  10.298  0.6314  1.3073  0.3801
  222MOL0     C29901   4.409   5.837  10.316 -0.0653 -0.2401  0.2155
  222MOL0     C29902   4.464   5.824  10.459  0.6205 -0.2222 -0.9058
  222MOL0     H29903   4.749   5.923   9.820 -0.0711  2.1989 -0.8648
  222MOL0     H29904   4.955   6.015   9.738 -2.8638  0.1167 -0.3841
  222MOL0     H29905   5.194   5.880   9.752 -0.8088  0.5995 -1.0830
  222MOL0     H29906   5.214   6.054   9.699 -1.6101  0.6136  0.6942
  222MOL0     H29907   5.421   5.903   9.692  1.8359  0.9848  0.1482
  222MOL0     H29908   5.412   5.897   9.866 -0.4691 -2.2209 -0.7785
  222MOL0     H29909   5.554   6.087   9.858  0.3803 -1.6978  0.3724
  222MOL0     H29910   5.404   6.170   9.837 -1.1963 -0.8819  1.2289
  222MOL0     H29911   5.546   6.069   9.579 -1.1689  0.6339 -1.4503
  222MOL0     H29912   5.429   6.192   9.584 -0.3408 -1.0295 -0.2688
  222MOL0     H29913   5.587   6.330   9.731 -1.1876  0.7105 -0.2733
  222MOL0     H29914   5.716   6.207   9.677 -1.2811 -2.4462 -0.3070
  222MOL0     H29915   5.647   6.271   9.440 -1.2349 -1.4647  1.4411
  222MOL0     H29916   5.544   6.394   9.512  0.0666  0.2955  1.4783
  222MOL0     H29917   5.804   6.452   9.425  1.4294  3.0218  1.4221
  222MOL0     H29918   5.847   6.378   9.580 -0.9015 -3.5973 -1.7980
  222MOL0     H29919   5.649   6.611   9.572  0.1540  0.4661  2.2585
  222MOL0     H29920   5.709   6.522   9.719  1.7627 -2.0662  1.1869
  222MOL0     H29921   5.892   6.678   9.830  0.9004 -0.0303 -0.2749
  222MOL0     H29922   6.071   6.954   9.737 -0.4965 -1.0147  0.4452
  222MOL0     H29923   6.120   6.826   9.846 -0.6755  1.1415 -0.3141
  222MOL0     H29924   6.251   6.839   9.570  1.2421  0.0619 -0.0239
  222MOL0     H29925   6.293   6.947   9.691 -2.4219  1.7607 -2.9901
  222MOL0     H29926   6.311   6.649   9.678 -0.0856  1.3147 -3.4283
  222MOL0     H29927   6.338   6.738   9.840 -2.6588  0.2472 -0.6506
  222MOL0     H29928   6.517   6.866   9.715  0.6692  0.2221 -0.7341
  222MOL0     H29929   6.523   6.736   9.593  2.0938  0.6729  0.3126
  222MOL0     H29930   6.700   6.931   9.698 -0.2828 -0.9695 -0.2135
  222MOL0     H29931   6.923   6.990   9.749 -0.2203 -0.1493  0.0020
  222MOL0     H29932   7.367   6.912   9.852  0.3818  3.2795  1.4467
  222MOL0     H29933   7.601   6.936   9.922 -2.1381  0.0943 -0.7617
  222MOL0     H29934   7.804   6.786   9.996  1.4502  1.4034 -1.5705
  222MOL0     H29935   7.803   6.963  10.023  2.3200  1.4938  2.0504
  222MOL0     H29936   8.017   6.886  10.077  2.0990 -1.0632  1.3296
  222MOL0     H29937   7.948   6.938  10.225 -0.8018  1.4778 -1.2212
  222MOL0     H29938   7.873   6.696  10.268 -1.5282  1.9789 -1.8244
  222MOL0     H29939   7.964   6.652  10.121 -2.8466  3.9013 -1.8942
  222MOL0     H29940   8.072   6.633  10.363  0.4532 -0.4951  0.5459
  222MOL0     H29941   8.086   6.804  10.367 -0.8828 -0.5390  1.3134
  222MOL0     H29942   8.215   6.763  10.129  0.3516 -4.1067 -1.8503
  222MOL0     H29943   8.213   6.596  10.203 -5.3663 -0.9757  0.4982
  222MOL0     H29944   8.318   6.865  10.321  0.4141 -0.8039 -0.9342
  222MOL0     H29945   8.328   6.707  10.414  1.7361 -1.2166  0.2473
  222MOL0     H29946   8.459   6.791  10.147  1.6963 -1.4406  0.5020
  222MOL0     H29947   8.424   6.618  10.177 -0.3617 -1.9503  1.5918
  222MOL0     H29948   8.558   6.650  10.402 -1.1668  0.6183  0.9899
  222MOL0     H29949   8.648   6.654  10.243 -1.4773 -0.9090 -0.7248
  222MOL0     H29950   7.510   6.785  10.304  0.9753  1.1818  0.7260
  222MOL0     H29951   7.261   6.781  10.247 -0.0786 -2.7816 -0.8720
  222MOL0     H29952   7.017   6.630   9.948 -0.7457 -0.0436  0.2949
  222MOL0     H29953   6.777   6.550   9.890  2.2807  0.3158  1.1841
  222MOL0     H29954   5.138   5.924  10.121  0.5811 -0.8704  0.6352
  222MOL0     H29955   4.914   5.846  10.207 -2.0106  3.1495  0.6424
  222MOL0     H29956   4.463   5.859   9.975 -0.3377 -0.0326 -0.3957
  222MOL0     H29957   4.234   5.855   9.965  1.0922 -2.3519 -1.2746
  222MOL0     H29958   4.003   5.752   9.998  0.8250 -1.4704  2.3135
  222MOL0     H29959   4.021   5.923   9.989 -1.3089 -0.5395 -2.5433
  222MOL0     H29960   3.821   5.967  10.123  2.7732  1.5264  0.7086
  222MOL0     H29961   3.816   5.799  10.181  0.1428  0.5272 -0.2479
  222MOL0     H29962   3.765   5.713   9.952  2.9717  0.7027 -1.9047
  222MOL0     H29963   3.767   5.876   9.888  0.9981  0.3258  0.6729
  222MOL0     H29964   3.535   5.789   9.935  0.2487 -0.1651 -0.5618
  222MOL0     H29965   3.573   5.795  10.107  0.2276 -1.8732 -0.7871
  222MOL0     H29966   3.498   6.199   9.985 -3.2053 -1.0076 -0.4751
  222MOL0     H29967   4.204   5.824  10.383 -0.3566  2.2625 -0.3490
  222MOL0     H29968   4.387   5.797  10.532  0.2547 -3.3503 -2.2718
  222MOL0     H29969   4.540   5.745  10.464  0.5790 -0.2065  0.7492
  222MOL0     H29970   4.514   5.918  10.485  0.6937 -0.3132 -0.7089
  223MOL0     O29971   1.004   1.557   3.901 -0.5301  0.2540 -0.3505
  223MOL0     C29972   0.968   1.578   4.012  0.1675 -0.5336  0.4099
  223MOL0     O29973   1.000   1.697   4.082  0.2836 -0.2710  0.1369
  223MOL0     C29974   1.047   1.807   4.011 -0.6671  0.1773  0.1566
  223MOL0     C29975   1.045   1.840   3.878  0.0045  0.4655  0.2426
  223MOL0     C29976   1.091   1.968   3.845 -0.5748  0.0283  0.2634
  223MOL0     C29977   1.177   2.032   3.925  0.0029  0.5729  0.1556
  223MOL0     O29978   1.252   2.142   3.889  0.3789 -0.1843  0.3086
  223MOL0     C29979   1.270   2.154   3.745  0.1012  1.3880  0.0110
  223MOL0     C29980   1.392   2.244   3.724 -0.1876 -0.4513 -0.5372
  223MOL0     C29981   1.518   2.178   3.787 -0.8300  0.0098 -0.3400
  223MOL0     C29982   1.580   2.071   3.700  0.3012  0.1953  0.4623
  223MOL0     C29983   1.695   2.005   3.775 -0.3004  0.0773  0.4790
  223MOL0     C29984   1.816   2.093   3.767  0.1822 -0.6240 -0.6008
  223MOL0     C29985   1.953   2.021   3.786  0.2697 -1.0905 -0.5013
  223MOL0     C29986   2.071   2.132   3.787  0.3079  0.6667  0.1866
  223MOL0     N29987   2.203   2.082   3.827 -0.5013  0.4730 -0.5778
  223MOL0     C29988   2.269   1.983   3.769 -0.1236  0.7078  0.8840
  223MOL0     C29989   2.387   1.959   3.841  0.3063  0.5041  0.0419
  223MOL0     C29990   2.498   1.857   3.818 -1.0962  0.1480  0.0254
  223MOL0     C29991   2.629   1.891   3.896 -0.0391  0.1615  0.1307
  223MOL0     C29992   2.717   1.993   3.814 -0.2720  0.2363 -0.1887
  223MOL0     C29993   2.852   2.008   3.872 -0.8305  0.7182 -0.3474
  223MOL0     O29994   2.941   2.065   3.771  0.5706  0.2414 -0.7817
  223MOL0     C29995   3.066   2.096   3.814 -0.7441 -0.0625  0.4771
  223MOL0     C29996   3.135   2.030   3.911 -0.1545 -0.1313 -0.4156
  223MOL0     C29997   3.271   2.057   3.943 -0.0568  0.5278 -0.2169
  223MOL0     C29998   3.339   2.157   3.879  0.4115 -0.3749  0.1663
  223MOL0     C29999   3.486   2.167   3.892 -0.2668  0.2573 -0.0233
  223MOL0     O30000   3.541   2.275   3.827 -0.1147 -0.1066 -0.3632
  223MOL0     C30001   3.675   2.293   3.821 -0.2982 -0.3310  0.0585
  223MOL0     C30002   3.716   2.396   3.902 -0.1434 -0.4050 -0.1575
  223MOL0     C30003   3.857   2.426   3.915  0.7402 -0.5284  0.6733
  223MOL0     C30004   3.951   2.339   3.849 -0.2506 -0.5715 -0.1530
  223MOL0     O30005   4.083   2.385   3.858 -0.3490 -0.3847 -0.1144
  223MOL0     C30006   4.153   2.387   3.737  0.4404  0.0813 -0.5966
  223MOL0     C30007   4.272   2.489   3.751 -0.2743  0.3781  0.0709
  223MOL0     C30008   4.408   2.424   3.794  0.3694  0.5576  0.5248
  223MOL0     C30009   4.515   2.522   3.749 -0.6245  0.0542 -0.9341
  223MOL0     C30010   4.645   2.482   3.811  0.1986 -0.0702  0.4213
  223MOL0     C30011   4.759   2.573   3.779 -1.4314  0.0662  0.0094
  223MOL0     C30012   4.895   2.516   3.810  0.4819  0.0090  0.0178
  223MOL0     C30013   4.989   2.620   3.874 -0.5566 -0.2295 -0.1770
  223MOL0    Cl30014   5.031   2.745   3.762 -0.0651  0.5199 -0.0806
  223MOL0     C30015   3.903   2.242   3.762 -0.5994  0.2536 -1.0283
  223MOL0     C30016   3.771   2.211   3.751 -0.0947  0.0239 -0.9296
  223MOL0     O30017   3.544   2.085   3.959  0.0053 -0.0409  0.4228
  223MOL0     C30018   3.271   2.226   3.777  0.1558 -0.4029 -0.9952
  223MOL0     C30019   3.137   2.196   3.745  0.3400 -0.4432  0.0265
  223MOL0     N30020   2.393   2.063   3.931 -0.4698  0.7319 -0.1106
  223MOL0     N30021   2.289   2.139   3.913 -0.4403  0.4472 -0.5589
  223MOL0     C30022   1.187   2.007   4.060  1.5235  1.0884 -0.0597
  223MOL0     C30023   1.116   1.893   4.104  0.3655 -0.7547 -0.1003
  223MOL0     C30024   0.898   1.471   4.079  0.8050  0.9045  0.2375
  223MOL0     C30025   0.949   1.345   4.059 -0.1900  0.3792 -0.4443
  223MOL0     C30026   0.904   1.235   4.136 -0.3882  0.0477 -0.3264
  223MOL0     C30027   0.790   1.249   4.220 -0.2607 -0.2371 -0.6932
  223MOL0     O30028   0.742   1.135   4.282  0.3409 -0.3506  0.5024
  223MOL0     C30029   0.610   1.085   4.244 -0.0163 -0.5911  0.1155
  223MOL0     C30030   0.615   0.945   4.185 -0.3359 -0.6083 -0.5225
  223MOL0     C30031   0.749   0.933   4.101 -0.1669 -1.2690  0.0335
  223MOL0     C30032   0.757   0.802   4.025  0.4184 -0.6875  0.5977
  223MOL0     C30033   0.886   0.783   3.962 -0.9570 -0.3180 -0.2458
  223MOL0     C30034   1.005   0.764   3.935  1.0078  0.2420  0.2114
  223MOL0     C30035   0.744   1.374   4.245  0.8905 -0.2811 -0.5024
  223MOL0     C30036   0.789   1.487   4.174 -0.5450  0.2027 -0.1911
  223MOL0     C30037   0.724   1.619   4.196  0.8592 -0.5594 -0.0133
  223MOL0     H30038   0.990   1.783   3.804  1.8254 -0.0545 -0.7457
  223MOL0     H30039   1.086   1.998   3.741  1.9241 -0.0238  0.0588
  223MOL0     H30040   1.273   2.060   3.690 -2.0971  1.6882 -0.7103
  223MOL0     H30041   1.180   2.207   3.712 -0.3494 -0.3692 -1.7758
  223MOL0     H30042   1.371   2.336   3.779 -2.3381 -1.7613  0.9736
  223MOL0     H30043   1.411   2.273   3.620  2.2597  0.2671  0.0534
  223MOL0     H30044   1.503   2.136   3.887  2.1029 -1.1313 -0.2854
  223MOL0     H30045   1.584   2.264   3.800  2.0918 -1.8733 -1.6229
  223MOL0     H30046   1.499   2.003   3.670  1.2680 -1.2450  0.9875
  223MOL0     H30047   1.621   2.112   3.608  0.2384 -1.3828 -0.3075
  223MOL0     H30048   1.676   1.981   3.880  1.4214  0.4333  0.8964
  223MOL0     H30049   1.708   1.911   3.721  0.3925  1.1950 -1.4300
  223MOL0     H30050   1.812   2.143   3.670 -1.8522  1.4229  0.4605
  223MOL0     H30051   1.802   2.163   3.849 -0.4232  1.1133 -2.1173
  223MOL0     H30052   1.967   1.941   3.712  1.1179 -0.7700 -0.7040
  223MOL0     H30053   1.968   1.979   3.886  1.8049 -0.2924 -0.3668
  223MOL0     H30054   2.083   2.170   3.685  1.3302 -1.7320 -0.6696
  223MOL0     H30055   2.039   2.196   3.870 -1.9532 -1.1409  0.8175
  223MOL0     H30056   2.225   1.932   3.684  2.7716 -0.4986 -0.0126
  223MOL0     H30057   2.461   1.761   3.855  0.4347  0.0467  1.3887
  223MOL0     H30058   2.527   1.854   3.712  3.9611  0.9688  1.1403
  223MOL0     H30059   2.595   1.938   3.988 -1.7705  0.0962 -0.4441
  223MOL0     H30060   2.679   1.795   3.911 -1.7161 -0.7098  0.2870
  223MOL0     H30061   2.671   2.092   3.820 -0.0308  0.3825 -0.7266
  223MOL0     H30062   2.718   1.958   3.711 -1.2503 -2.7806  0.7265
  223MOL0     H30063   2.884   1.906   3.893 -0.9789  1.3035  3.2600
  223MOL0     H30064   2.852   2.064   3.965 -1.2965  1.0321 -0.5339
  223MOL0     H30065   3.106   1.933   3.948  1.3349 -1.7586 -3.1626
  223MOL0     H30066   3.324   1.977   3.993 -0.5867  0.5024  0.3177
  223MOL0     H30067   3.645   2.447   3.967  1.3310  2.2381 -0.4694
  223MOL0     H30068   3.890   2.503   3.984 -1.0546  0.4270  0.5338
  223MOL0     H30069   4.206   2.293   3.718 -0.0691  0.1670 -2.6982
  223MOL0     H30070   4.083   2.421   3.660 -1.3130 -0.8859  0.4963
  223MOL0     H30071   4.289   2.541   3.656 -1.5939 -0.0233 -0.4050
  223MOL0     H30072   4.248   2.565   3.826 -0.1552 -0.2238  0.7334
  223MOL0     H30073   4.402   2.401   3.900 -3.5672 -1.7052 -0.0182
  223MOL0     H30074   4.420   2.325   3.748  0.4608  0.2424  1.2202
  223MOL0     H30075   4.477   2.623   3.764 -1.9138 -0.0101 -3.2840
  223MOL0     H30076   4.521   2.527   3.640 -1.8102  0.3459 -0.9990
  223MOL0     H30077   4.660   2.381   3.771  0.2994 -0.9494  2.5300
  223MOL0     H30078   4.640   2.467   3.919  3.4400 -0.1783  0.6678
  223MOL0     H30079   4.759   2.597   3.672  0.5358  3.2289  0.5934
  223MOL0     H30080   4.740   2.666   3.834 -1.6678 -0.2763  0.5138
  223MOL0     H30081   4.950   2.476   3.725  0.3422  0.5282 -0.3200
  223MOL0     H30082   4.871   2.435   3.880 -1.1702  0.9166  0.5501
  223MOL0     H30083   4.942   2.654   3.967  1.5206 -0.4232  1.0034
  223MOL0     H30084   5.085   2.577   3.905 -0.1063  1.9441  1.6843
  223MOL0     H30085   3.975   2.187   3.703 -1.1945 -2.2129  0.4104
  223MOL0     H30086   3.739   2.129   3.688 -0.4659  0.2651 -1.0591
  223MOL0     H30087   3.335   2.285   3.711  1.6053 -0.7165  0.0679
  223MOL0     H30088   3.078   2.246   3.669 -0.1995 -1.9311 -0.5758
  223MOL0     H30089   1.240   2.071   4.130  1.7232 -0.2296  1.0443
  223MOL0     H30090   1.103   1.875   4.210 -4.0112 -0.6476 -0.4139
  223MOL0     H30091   1.039   1.317   4.005 -0.3919 -4.5365  1.2544
  223MOL0     H30092   0.951   1.139   4.115  4.0376  1.8155  0.3792
  223MOL0     H30093   0.567   1.147   4.165 -0.3152  0.3321  0.9774
  223MOL0     H30094   0.541   1.090   4.329 -1.2852  0.2556 -0.9146
  223MOL0     H30095   0.526   0.933   4.122  0.3453  0.3461 -1.7122
  223MOL0     H30096   0.632   0.871   4.264  1.8236  1.7013  1.3460
  223MOL0     H30097   0.831   0.936   4.173  1.4476  0.0400 -1.7541
  223MOL0     H30098   0.764   1.020   4.036 -1.4741 -0.8728  0.2278
  223MOL0     H30099   0.733   0.712   4.082 -0.9007 -0.5806  0.2487
  223MOL0     H30100   0.681   0.810   3.947  1.2756  0.8437 -0.1328
  223MOL0     H30101   1.109   0.760   3.910  1.7129  3.0707  2.1497
  223MOL0     H30102   0.666   1.383   4.320  3.1651 -1.7248  2.2199
  223MOL0     H30103   0.618   1.606   4.176  0.6812  1.7278 -0.9073
  223MOL0     H30104   0.722   1.643   4.302  3.3314  0.3951 -0.1036
  223MOL0     H30105   0.763   1.696   4.127 -0.1008 -1.3460 -1.4871
  224MOL0     O30106   2.726   7.768   9.397 -0.0384 -0.5712  0.1247
  224MOL0     C30107   2.723   7.803   9.277 -0.4129  0.1076 -0.4247
  224MOL0     O30108   2.831   7.820   9.194  0.1224 -0.5306 -0.5128
  224MOL0     C30109   2.961   7.806   9.233  0.1232  1.0424 -0.3855
  224MOL0     C30110   3.051   7.770   9.133 -0.2188 -0.2516 -0.1552
  224MOL0     C30111   3.186   7.743   9.170  0.2200 -0.2588  1.0662
  224MOL0     C30112   3.233   7.753   9.305 -0.4962  0.1847  0.8045
  224MOL0     O30113   3.363   7.720   9.338  0.4337 -0.7786  0.3343
  224MOL0     C30114   3.454   7.833   9.302 -0.6102  0.5893  0.1631
  224MOL0     C30115   3.571   7.818   9.400  0.1777 -0.0881 -0.5516
  224MOL0     C30116   3.691   7.893   9.340  0.5568 -0.1386  0.4272
  224MOL0     C30117   3.815   7.869   9.423  0.3753  0.5394  0.4975
  224MOL0     C30118   3.935   7.936   9.350  0.4699  0.0296 -0.7062
  224MOL0     C30119   4.055   7.938   9.438 -0.2310 -0.1392  0.2195
  224MOL0     C30120   4.092   7.814   9.527  0.3076 -1.0132 -0.6321
  224MOL0     C30121   4.144   7.696   9.446 -0.1545  0.8317 -0.2617
  224MOL0     N30122   4.280   7.656   9.483 -0.3301 -0.0555 -0.5152
  224MOL0     C30123   4.300   7.534   9.549 -0.1727  0.1306  0.2044
  224MOL0     C30124   4.428   7.498   9.527  0.3058  0.5387  0.1151
  224MOL0     C30125   4.497   7.381   9.584  0.1526  0.5719 -0.6654
  224MOL0     C30126   4.478   7.354   9.732  0.1307 -0.9323 -0.2235
  224MOL0     C30127   4.554   7.461   9.812 -0.4753  0.3551 -0.8928
  224MOL0     C30128   4.539   7.439   9.966  0.3013 -0.2995 -0.0428
  224MOL0     O30129   4.405   7.426  10.008  0.1484  0.2956  0.0142
  224MOL0     C30130   4.309   7.518   9.975  0.0481  0.6367 -0.0677
  224MOL0     C30131   4.319   7.657   9.991 -0.4445 -0.5221  0.4872
  224MOL0     C30132   4.206   7.739   9.950 -1.1873 -0.1437 -0.7440
  224MOL0     C30133   4.080   7.690   9.917  0.2191  0.3652 -0.6373
  224MOL0     C30134   3.961   7.771   9.890  0.3650  0.1757  0.3049
  224MOL0     O30135   3.838   7.702   9.876  0.0339  0.4879 -0.4756
  224MOL0     C30136   3.718   7.762   9.859  1.0682  0.7599  0.2495
  224MOL0     C30137   3.625   7.693   9.777 -0.5010  0.5426 -0.3225
  224MOL0     C30138   3.497   7.742   9.760 -0.1008 -0.4952 -0.5165
  224MOL0     C30139   3.449   7.852   9.829  0.2941  0.1385 -0.0276
  224MOL0     O30140   3.322   7.888   9.789 -0.9229  0.5692  0.0200
  224MOL0     C30141   3.272   8.008   9.835  0.4297 -0.4406 -0.1908
  224MOL0     C30142   3.125   7.991   9.793  0.2139 -0.5297 -0.1049
  224MOL0     C30143   3.051   8.129   9.816 -0.9169  0.5102  0.6096
  224MOL0     C30144   2.906   8.121   9.789  0.8399  0.3016  0.2810
  224MOL0     C30145   2.819   8.242   9.843 -0.5401  0.3924  0.5937
  224MOL0     C30146   2.677   8.247   9.785 -0.0837 -0.1295 -0.1915
  224MOL0     C30147   2.586   8.320   9.882  1.1047 -0.0999  0.8708
  224MOL0     C30148   2.462   8.371   9.801 -0.3623 -0.6741  0.4539
  224MOL0    Cl30149   2.334   8.436   9.909  0.1493 -0.3660 -0.0893
  224MOL0     C30150   3.537   7.924   9.913 -0.3430 -0.0428  1.3227
  224MOL0     C30151   3.670   7.877   9.920 -0.9575  0.3095 -0.6445
  224MOL0     O30152   3.980   7.893   9.881  0.0099  0.0843 -0.6957
  224MOL0     C30153   4.078   7.548   9.905  0.4571 -0.7784  0.1016
  224MOL0     C30154   4.183   7.463   9.925 -0.7294  0.0596  0.0201
  224MOL0     N30155   4.492   7.596   9.449  0.3944 -0.3042  0.1158
  224MOL0     N30156   4.400   7.692   9.425  0.5577 -0.0981  0.2274
  224MOL0     C30157   3.142   7.787   9.402 -0.0263 -0.1638  0.8908
  224MOL0     C30158   3.008   7.822   9.364 -0.2121  0.0363 -0.4401
  224MOL0     C30159   2.588   7.823   9.210 -0.3688 -0.0567  0.6699
  224MOL0     C30160   2.473   7.856   9.284 -0.2340  0.0517 -0.9011
  224MOL0     C30161   2.346   7.882   9.228 -0.5230  0.3216 -0.0585
  224MOL0     C30162   2.330   7.876   9.085  0.3929  0.4938  0.1355
  224MOL0     O30163   2.217   7.922   9.035 -0.2292 -0.5203  0.0367
  224MOL0     C30164   2.175   7.920   8.897 -0.3221 -0.4486 -0.6443
  224MOL0     C30165   2.148   7.782   8.839 -0.5503 -0.7299  0.9348
  224MOL0     C30166   2.105   7.778   8.688 -0.4218  0.1151  0.4388
  224MOL0     C30167   2.217   7.822   8.591  0.4502 -0.8449  0.3177
  224MOL0     C30168   2.340   7.738   8.606  0.5460 -0.3962 -0.5933
  224MOL0     C30169   2.429   7.673   8.642 -0.5514 -0.5227  0.3961
  224MOL0     C30170   2.441   7.846   9.012 -0.1165 -0.0862 -0.4775
  224MOL0     C30171   2.564   7.811   9.070 -0.3472  0.2742  0.1944
  224MOL0     C30172   2.674   7.775   8.969 -0.0129 -0.1994  0.3007
  224MOL0     H30173   3.028   7.748   9.029 -1.3427 -1.6758  0.3679
  224MOL0     H30174   3.260   7.719   9.094  0.9765  1.9460  1.0122
  224MOL0     H30175   3.483   7.835   9.196  2.2862  1.6306  0.8898
  224MOL0     H30176   3.414   7.934   9.314 -0.1739  0.6818  0.8587
  224MOL0     H30177   3.591   7.714   9.426 -1.2393  0.1135  1.6186
  224MOL0     H30178   3.544   7.881   9.485  3.1380  1.2052 -0.4434
  224MOL0     H30179   3.660   7.997   9.349 -1.1946 -0.6354  0.5618
  224MOL0     H30180   3.709   7.872   9.234 -0.7916  1.2550 -0.1188
  224MOL0     H30181   3.819   7.908   9.525  2.5803  1.0130  0.2741
  224MOL0     H30182   3.831   7.761   9.421  0.2757  0.4924 -2.4222
  224MOL0     H30183   3.961   7.877   9.262  0.4795 -0.0479 -0.6510
  224MOL0     H30184   3.904   8.038   9.327 -1.3080  0.2072  1.9778
  224MOL0     H30185   4.142   7.951   9.373 -2.0091 -1.9578 -2.7118
  224MOL0     H30186   4.038   8.028   9.499 -0.7071 -1.5110  2.2291
  224MOL0     H30187   4.003   7.789   9.587  0.8998  0.8310  1.1678
  224MOL0     H30188   4.166   7.828   9.607 -0.9894 -3.2261  1.0750
  224MOL0     H30189   4.081   7.608   9.461  2.0538 -0.4841  1.8411
  224MOL0     H30190   4.142   7.714   9.338 -0.0109 -2.1176 -0.8258
  224MOL0     H30191   4.227   7.480   9.609  1.2182 -0.6488  1.2842
  224MOL0     H30192   4.458   7.295   9.528  0.2097  0.0183  0.1379
  224MOL0     H30193   4.604   7.393   9.568 -0.2000  2.0229 -2.2369
  224MOL0     H30194   4.371   7.343   9.752  0.0058 -1.7490 -1.2730
  224MOL0     H30195   4.523   7.256   9.753 -0.9532 -2.0986 -2.8546
  224MOL0     H30196   4.532   7.563   9.780  3.5840  1.5780 -0.4388
  224MOL0     H30197   4.662   7.451   9.799 -0.5907 -1.4048 -0.6675
  224MOL0     H30198   4.602   7.514  10.015  1.4225 -1.0983 -0.2022
  224MOL0     H30199   4.606   7.365  10.012  2.8084  1.6176 -0.3621
  224MOL0     H30200   4.408   7.709  10.026 -0.1897 -0.7841  0.2354
  224MOL0     H30201   4.220   7.842   9.978 -0.0566 -0.7543  1.1146
  224MOL0     H30202   3.654   7.608   9.715  1.8518 -0.0630  1.4396
  224MOL0     H30203   3.429   7.694   9.692 -0.6783  0.5883 -0.7235
  224MOL0     H30204   3.275   8.024   9.943  1.8170  1.2631 -0.4250
  224MOL0     H30205   3.318   8.091   9.780  0.1047 -0.4728 -0.5175
  224MOL0     H30206   3.114   7.957   9.690  0.4206 -2.5124  0.5022
  224MOL0     H30207   3.079   7.924   9.867 -0.7843 -1.3705 -1.4437
  224MOL0     H30208   3.074   8.163   9.917 -0.5613 -0.0718  0.7274
  224MOL0     H30209   3.085   8.203   9.742 -2.3150 -0.0793 -0.6812
  224MOL0     H30210   2.870   8.025   9.828  1.6507  0.7253  2.1617
  224MOL0     H30211   2.889   8.122   9.681  1.7444 -0.2414  0.1165
  224MOL0     H30212   2.873   8.334   9.820  1.5359 -1.0597 -0.6499
  224MOL0     H30213   2.811   8.227   9.951  0.2951 -0.4626  0.5453
  224MOL0     H30214   2.690   8.299   9.690  1.2014 -0.7169 -0.3615
  224MOL0     H30215   2.633   8.148   9.769 -0.2949  0.2126 -1.9439
  224MOL0     H30216   2.640   8.395   9.940  1.5369  0.9887 -0.8568
  224MOL0     H30217   2.530   8.258   9.952 -1.4452  3.0837  1.9027
  224MOL0     H30218   2.504   8.452   9.740 -0.9495 -2.0466 -1.8735
  224MOL0     H30219   2.426   8.303   9.724 -0.8091 -2.1160  1.8867
  224MOL0     H30220   3.510   8.023   9.949 -0.7265  0.7505 -0.9735
  224MOL0     H30221   3.731   7.940   9.983  2.1480 -1.6658 -1.4635
  224MOL0     H30222   3.987   7.505   9.864  1.4934  0.2844 -3.6160
  224MOL0     H30223   4.189   7.357   9.899  0.8641 -0.2812  1.5650
  224MOL0     H30224   3.183   7.790   9.502  1.4457  0.9882  0.2752
  224MOL0     H30225   2.947   7.848   9.451 -1.0651  2.6745 -1.7348
  224MOL0     H30226   2.473   7.865   9.392 -2.7554  0.9308 -0.9006
  224MOL0     H30227   2.277   7.939   9.289 -0.3391  0.3734  0.1054
  224MOL0     H30228   2.251   7.960   8.829  1.6124 -2.2213  0.3513
  224MOL0     H30229   2.089   7.986   8.884  1.1250  1.2210 -2.4639
  224MOL0     H30230   2.069   7.736   8.899  0.3454 -1.1921  1.7718
  224MOL0     H30231   2.236   7.720   8.855 -0.6524 -0.6635  1.8058
  224MOL0     H30232   2.022   7.847   8.674 -0.8626 -0.2695  1.0687
  224MOL0     H30233   2.064   7.678   8.668  1.0677 -0.7837  1.5857
  224MOL0     H30234   2.178   7.823   8.489  1.8652  0.5354 -0.2503
  224MOL0     H30235   2.237   7.927   8.612 -2.8404  0.0354 -0.3786
  224MOL0     H30236   2.511   7.609   8.667 -0.3468 -0.0115  1.0648
  224MOL0     H30237   2.440   7.860   8.904 -0.0239  1.5685 -0.2885
  224MOL0     H30238   2.626   7.741   8.877 -0.6764 -0.9952  0.9178
  224MOL0     H30239   2.730   7.866   8.946 -2.7620  1.4572 -0.3699
  224MOL0     H30240   2.747   7.702   9.005  0.5966  0.2043 -0.1100
  225MOL0     O30241   5.025   9.628   8.503 -0.3900 -0.5191 -0.5148
  225MOL0     C30242   4.961   9.703   8.588  0.1806  0.2781 -0.3086
  225MOL0     O30243   5.019   9.786   8.676 -0.2902  0.2124  0.2071
  225MOL0     C30244   5.158   9.791   8.685  0.1112 -0.1410 -0.3336
  225MOL0     C30245   5.229   9.843   8.579 -0.2088 -0.7059  0.6103
  225MOL0     C30246   5.370   9.870   8.594  0.4328 -0.4183 -1.1650
  225MOL0     C30247   5.425   9.853   8.722  0.2794 -0.0460 -0.3539
  225MOL0     O30248   5.554   9.899   8.715  0.0878  0.0545  1.0146
  225MOL0     C30249   5.630   9.885   8.835 -0.2897  0.4316 -0.6560
  225MOL0     C30250   5.764   9.959   8.816  0.0866  0.3804 -0.2173
  225MOL0     C30251   5.874   9.942   8.927 -0.8714 -0.3356 -0.5367
  225MOL0     C30252   5.949  10.070   8.943  0.5027  0.6898  0.5112
  225MOL0     C30253   6.072  10.049   9.026  0.4370 -0.0106 -0.1651
  225MOL0     C30254   6.155  10.169   9.066 -0.2139 -0.8269  0.4760
  225MOL0     C30255   6.063  10.294   9.102  0.1676  0.1381  0.2775
  225MOL0     C30256   6.151  10.394   9.167 -0.1044  0.3259  0.4526
  225MOL0     N30257   6.180  10.371   9.311 -0.3539 -0.3856  0.2059
  225MOL0     C30258   6.107  10.397   9.421  0.3476 -0.3162  0.8423
  225MOL0     C30259   6.180  10.350   9.527 -0.3390 -0.6594  0.9466
  225MOL0     C30260   6.132  10.353   9.675 -0.5504  0.0462 -0.0118
  225MOL0     C30261   6.192  10.477   9.746  0.1194  0.3758 -0.5295
  225MOL0     C30262   6.348  10.487   9.756  0.2316  0.2871  0.1481
  225MOL0     C30263   6.412  10.375   9.835 -0.1369  0.0703  0.2654
  225MOL0     O30264   6.347  10.379   9.963 -0.1429 -0.2476 -0.2450
  225MOL0     C30265   6.412  10.315  10.068  0.1039 -0.5786 -0.3050
  225MOL0     C30266   6.506  10.214  10.049 -0.2348 -0.0837  0.2150
  225MOL0     C30267   6.594  10.180  10.151  0.0629 -0.8006  0.2656
  225MOL0     C30268   6.583  10.231  10.280 -0.4682 -0.1202  0.8015
  225MOL0     C30269   6.676  10.198  10.397 -0.3305  0.3593  0.1272
  225MOL0     O30270   6.645  10.254  10.512 -0.8105  0.7618 -0.0453
  225MOL0     C30271   6.740  10.257  10.613  1.0515 -0.7414  1.4758
  225MOL0     C30272   6.730  10.164  10.707  0.4547  0.6224 -0.3484
  225MOL0     C30273   6.820  10.162  10.817  0.8894 -0.1527  0.0804
  225MOL0     C30274   6.921  10.253  10.816 -0.2073  0.6084  0.0529
  225MOL0     O30275   7.006  10.230  10.918 -0.0051 -0.3732  0.4643
  225MOL0     C30276   7.026  10.355  10.993 -0.4332  0.5665 -0.4679
  225MOL0     C30277   7.170  10.390  11.003  0.4849  0.0572 -0.7994
  225MOL0     C30278   7.247  10.292  11.094  0.0497 -1.1874  0.2338
  225MOL0     C30279   7.400  10.326  11.091 -0.4137 -0.5130 -0.5670
  225MOL0     C30280   7.442  10.478  11.144 -0.2456 -0.5197 -0.2356
  225MOL0     C30281   7.594  10.503  11.162 -0.2970 -0.3642 -0.6805
  225MOL0     C30282   7.657  10.409  11.263 -0.0655  0.4132  0.1479
  225MOL0     C30283   7.797  10.450  11.299  0.3844  0.2216  0.6469
  225MOL0    Cl30284   7.902  10.443  11.147 -0.2464  0.2416 -0.3433
  225MOL0     C30285   6.941  10.340  10.711  0.7361  1.1951 -0.4420
  225MOL0     C30286   6.842  10.346  10.613  0.0073  0.0460 -0.5819
  225MOL0     O30287   6.765  10.107  10.389 -0.1252  0.2516 -0.2381
  225MOL0     C30288   6.474  10.317  10.303  0.2040 -0.5693 -0.3651
  225MOL0     C30289   6.387  10.360  10.200  0.1561  0.0617 -0.4020
  225MOL0     N30290   6.295  10.291   9.479 -0.0175  0.7003 -0.0871
  225MOL0     N30291   6.293  10.307   9.354  0.7648 -0.3121  0.4911
  225MOL0     C30292   5.349   9.785   8.818 -0.2083 -0.1978 -0.0995
  225MOL0     C30293   5.219   9.761   8.807  0.6768  0.4976  0.2339
  225MOL0     C30294   4.815   9.672   8.590  0.5037 -0.4182 -0.2198
  225MOL0     C30295   4.758   9.612   8.473 -0.4511 -0.0402  0.5230
  225MOL0     C30296   4.616   9.617   8.451  0.0880  0.0577 -0.2698
  225MOL0     C30297   4.525   9.648   8.556 -0.0713 -0.0871 -0.2261
  225MOL0     O30298   4.391   9.628   8.536 -0.8421  0.6895  0.2708
  225MOL0     C30299   4.291   9.659   8.632  0.5912 -0.3670  0.1138
  225MOL0     C30300   4.173   9.564   8.611  0.5286  0.1687  0.2211
  225MOL0     C30301   4.096   9.594   8.481 -0.8867 -0.5079 -0.6777
  225MOL0     C30302   3.955   9.525   8.476 -0.1137 -0.5128 -0.6835
  225MOL0     C30303   3.901   9.553   8.340 -0.2327 -0.2067  0.4567
  225MOL0     C30304   3.841   9.583   8.242  0.1495  0.7159  0.4011
  225MOL0     C30305   4.585   9.695   8.674  0.0471 -0.6240  0.0896
  225MOL0     C30306   4.727   9.711   8.697  0.7720 -0.0466  0.1797
  225MOL0     C30307   4.776   9.760   8.828 -0.7016  0.4707 -0.4778
  225MOL0     H30308   5.172   9.877   8.493  3.6649  2.3204 -1.0715
  225MOL0     H30309   5.426   9.911   8.511 -1.2261 -0.9613 -2.6089
  225MOL0     H30310   5.585   9.928   8.925 -3.9722 -2.1622 -1.0387
  225MOL0     H30311   5.657   9.781   8.856  1.3105  1.1525  1.1101
  225MOL0     H30312   5.742  10.064   8.840 -1.2867 -0.5451  2.9955
  225MOL0     H30313   5.813   9.934   8.721  1.4896  2.6318 -0.1801
  225MOL0     H30314   5.941   9.859   8.903 -1.2587 -0.5306 -0.9535
  225MOL0     H30315   5.830   9.917   9.024  1.6490 -2.0488  0.2998
  225MOL0     H30316   5.973  10.124   8.851  0.2085  1.0091  0.6151
  225MOL0     H30317   5.878  10.127   9.004  1.2675 -0.5133  2.6607
  225MOL0     H30318   6.035   9.998   9.116 -2.1851  3.4008  0.9013
  225MOL0     H30319   6.143   9.977   8.984  2.4863  0.1000  2.8320
  225MOL0     H30320   6.219  10.142   9.150  0.9956 -1.5970 -0.6484
  225MOL0     H30321   6.223  10.190   8.983  1.8952  1.1010  2.5568
  225MOL0     H30322   5.980  10.262   9.166 -1.1239 -0.5943 -1.6749
  225MOL0     H30323   6.024  10.336   9.009  2.4389 -0.9867 -1.3056
  225MOL0     H30324   6.240  10.398   9.104 -1.0193 -1.4058 -1.0316
  225MOL0     H30325   6.096  10.488   9.162 -0.3885  0.0876 -1.6734
  225MOL0     H30326   6.008  10.443   9.419  0.6170  0.3984  2.4697
  225MOL0     H30327   6.023  10.350   9.677 -0.5699  0.3422 -0.5080
  225MOL0     H30328   6.162  10.260   9.723  2.1578 -0.2285 -2.0235
  225MOL0     H30329   6.171  10.566   9.687  0.7123 -0.2726 -1.7475
  225MOL0     H30330   6.138  10.487   9.841  1.2020  0.5652  0.0854
  225MOL0     H30331   6.379  10.584   9.797 -0.3491  0.1472  0.9306
  225MOL0     H30332   6.400  10.501   9.660  0.0974  1.5447  0.2447
  225MOL0     H30333   6.517  10.398   9.857  0.2085  0.6949 -1.7859
  225MOL0     H30334   6.394  10.276   9.791 -3.5803  0.4333  0.5652
  225MOL0     H30335   6.508  10.174   9.948 -0.4602 -0.9898  0.5653
  225MOL0     H30336   6.672  10.108  10.129  0.1126 -0.9404  0.8846
  225MOL0     H30337   6.643  10.099  10.706  1.6239 -1.0847  1.2630
  225MOL0     H30338   6.825  10.086  10.894  2.2744 -0.2141 -0.0465
  225MOL0     H30339   6.978  10.438  10.941 -2.1825  0.8774  1.5081
  225MOL0     H30340   6.989  10.350  11.096  0.0061 -0.0374 -0.3323
  225MOL0     H30341   7.197  10.391  10.897 -1.9443 -0.1665 -1.4971
  225MOL0     H30342   7.164  10.490  11.046  0.4833  0.4538 -1.6969
  225MOL0     H30343   7.220  10.302  11.199 -0.8470  4.8394 -0.1802
  225MOL0     H30344   7.241  10.192  11.049  2.2465 -0.7440 -1.1953
  225MOL0     H30345   7.445  10.319  10.991  2.5751  1.4542  0.5001
  225MOL0     H30346   7.442  10.248  11.154  0.7269  1.1029  0.7622
  225MOL0     H30347   7.390  10.484  11.239  0.0298 -0.4893 -0.0850
  225MOL0     H30348   7.408  10.557  11.076  1.9467  1.1606  0.4877
  225MOL0     H30349   7.643  10.485  11.065  0.3761  0.7796 -0.5700
  225MOL0     H30350   7.605  10.609  11.186  1.5103 -0.4106 -1.1172
  225MOL0     H30351   7.655  10.307  11.225 -1.8343  0.9897 -1.4459
  225MOL0     H30352   7.595  10.416  11.353 -1.7776  0.0984 -0.9663
  225MOL0     H30353   7.811  10.545  11.351 -3.2782  0.2629  1.8255
  225MOL0     H30354   7.842  10.387  11.377 -2.5115 -0.3910  1.9553
  225MOL0     H30355   7.023  10.410  10.707  2.3523 -0.1325  4.0403
  225MOL0     H30356   6.864  10.417  10.533  0.1411 -0.6405 -1.1658
  225MOL0     H30357   6.460  10.352  10.405  1.7187 -0.0994 -0.3006
  225MOL0     H30358   6.309  10.425  10.237  1.3062 -0.2061  2.7265
  225MOL0     H30359   5.399   9.761   8.912  0.7212  0.2834 -0.4528
  225MOL0     H30360   5.158   9.710   8.882  0.8411 -0.3240 -0.1776
  225MOL0     H30361   4.819   9.572   8.392 -0.0083  1.2496  0.1966
  225MOL0     H30362   4.580   9.602   8.350  0.1451  1.2833 -0.4785
  225MOL0     H30363   4.265   9.763   8.611  2.3851  0.6077  2.2434
  225MOL0     H30364   4.325   9.660   8.736 -0.5877 -0.0917  0.5144
  225MOL0     H30365   4.113   9.577   8.701  0.4032  2.1831 -0.1253
  225MOL0     H30366   4.209   9.461   8.597  0.2746  0.2100 -0.8157
  225MOL0     H30367   4.158   9.583   8.391 -1.1721  1.1612 -1.0985
  225MOL0     H30368   4.081   9.702   8.479  0.1780 -0.3410 -0.5837
  225MOL0     H30369   3.967   9.418   8.494 -2.5671 -0.6339  0.6302
  225MOL0     H30370   3.894   9.563   8.558 -0.4738  0.4555 -1.3770
  225MOL0     H30371   3.786   9.610   8.155 -0.8750 -2.4363 -0.0621
  225MOL0     H30372   4.527   9.711   8.765 -0.0883 -1.6043  0.1890
  225MOL0     H30373   4.844   9.845   8.824 -1.0214  0.7529 -0.0143
  225MOL0     H30374   4.690   9.782   8.893 -1.8723 -1.7817 -1.1696
  225MOL0     H30375   4.846   9.681   8.859  0.5956  1.4064 -0.9492
  226MOL0     O30376   5.859   5.768   9.355  0.1015  0.7735 -1.0176
  226MOL0     C30377   5.795   5.700   9.277  0.3651 -0.0985 -1.0804
  226MOL0     O30378   5.852   5.611   9.188 -0.2939  0.1768 -0.0332
  226MOL0     C30379   5.990   5.602   9.164 -0.0453 -0.2990 -0.2541
  226MOL0     C30380   6.058   5.710   9.119 -1.2950 -1.2279 -0.8348
  226MOL0     C30381   6.194   5.705   9.068 -0.3656  0.2361  0.4202
  226MOL0     C30382   6.253   5.581   9.059  0.1508 -0.4238 -0.1188
  226MOL0     O30383   6.376   5.579   9.003 -0.3635  0.6216 -0.4080
  226MOL0     C30384   6.477   5.499   9.080  0.9058 -0.5096 -0.0843
  226MOL0     C30385   6.561   5.408   8.994  0.3935 -0.0992 -0.3349
  226MOL0     C30386   6.648   5.493   8.902 -0.0724  0.0880  0.3352
  226MOL0     C30387   6.707   5.405   8.789 -0.0173 -0.1936  0.2533
  226MOL0     C30388   6.700   5.475   8.652  0.0078  0.6049 -0.1617
  226MOL0     C30389   6.793   5.425   8.544 -0.1204 -0.0942 -0.7205
  226MOL0     C30390   6.758   5.506   8.417  0.7629  0.3752 -0.4335
  226MOL0     C30391   6.855   5.495   8.307  0.1263  0.0007 -0.2838
  226MOL0     N30392   6.841   5.361   8.241  0.1132  1.0500 -0.3571
  226MOL0     C30393   6.878   5.243   8.286 -0.3468  0.5786 -1.1953
  226MOL0     C30394   6.888   5.157   8.181 -0.2484  0.4100  0.1300
  226MOL0     C30395   6.937   5.014   8.188  0.4646  0.2799  0.0167
  226MOL0     C30396   7.086   5.002   8.159  0.2019 -0.0530 -0.0245
  226MOL0     C30397   7.116   4.855   8.151  0.2119  0.6114  0.4086
  226MOL0     C30398   7.264   4.834   8.147 -0.3653  0.1442 -0.0380
  226MOL0     O30399   7.308   4.860   8.276 -0.1755  0.0808 -0.3377
  226MOL0     C30400   7.441   4.830   8.303  0.0697 -0.9027 -0.1281
  226MOL0     C30401   7.485   4.723   8.382  0.2699 -0.4675 -0.4390
  226MOL0     C30402   7.613   4.682   8.391 -0.3821 -0.0714 -1.2410
  226MOL0     C30403   7.721   4.756   8.333 -0.5664 -0.0969 -0.7373
  226MOL0     C30404   7.865   4.720   8.353  0.4198 -0.5480 -0.5806
  226MOL0     O30405   7.896   4.597   8.405 -0.4606  0.2694 -0.0929
  226MOL0     C30406   8.028   4.564   8.417  0.0765  0.4861 -0.7318
  226MOL0     C30407   8.116   4.563   8.305  1.0072 -0.2437 -0.7907
  226MOL0     C30408   8.252   4.512   8.307  0.0119  0.5067 -0.2728
  226MOL0     C30409   8.303   4.461   8.425 -0.2788 -0.2816 -0.5365
  226MOL0     O30410   8.429   4.403   8.423  0.7690  0.0528 -0.1626
  226MOL0     C30411   8.490   4.375   8.551 -0.8147 -0.0393 -0.3487
  226MOL0     C30412   8.643   4.378   8.536  0.0967 -1.0465 -0.4462
  226MOL0     C30413   8.699   4.381   8.678 -0.1044  0.8603 -0.2695
  226MOL0     C30414   8.847   4.374   8.676  0.1246 -0.2920 -0.5290
  226MOL0     C30415   8.899   4.246   8.615  0.3771 -0.0003  0.1310
  226MOL0     C30416   9.048   4.234   8.666  0.4432  0.1573  0.3378
  226MOL0     C30417   9.132   4.164   8.566 -0.0021  0.1406  0.1692
  226MOL0     C30418   9.257   4.116   8.629 -0.4456  0.7122  0.0607
  226MOL0    Cl30419   9.362   4.252   8.670 -0.0889  0.0664 -0.0562
  226MOL0     C30420   8.211   4.458   8.535 -0.2429 -0.5460 -0.2823
  226MOL0     C30421   8.080   4.509   8.534 -1.1716 -1.1946  0.4604
  226MOL0     O30422   7.946   4.804   8.305 -0.4044 -0.3585  0.0849
  226MOL0     C30423   7.678   4.855   8.249  0.0043  0.0291  0.7530
  226MOL0     C30424   7.543   4.900   8.240  0.2587 -0.0694 -0.2474
  226MOL0     N30425   6.836   5.231   8.074 -1.0089 -0.4919  0.2056
  226MOL0     N30426   6.813   5.352   8.112 -0.5982  0.2555 -0.2195
  226MOL0     C30427   6.188   5.469   9.116 -0.1765  0.2568  0.5630
  226MOL0     C30428   6.056   5.478   9.160  0.0590  0.1420 -0.9339
  226MOL0     C30429   5.641   5.729   9.276  0.1195 -0.3931 -0.2816
  226MOL0     C30430   5.602   5.851   9.337 -0.1102 -0.8687 -0.9585
  226MOL0     C30431   5.470   5.898   9.343 -0.3857  0.2333 -0.5913
  226MOL0     C30432   5.376   5.817   9.281  0.7592 -0.4882 -0.5143
  226MOL0     O30433   5.237   5.834   9.284  0.8676  0.2742  0.3321
  226MOL0     C30434   5.189   5.960   9.333  0.0468  0.7714  0.0368
  226MOL0     C30435   5.037   5.977   9.312  0.1881 -0.2732 -0.1296
  226MOL0     C30436   4.955   5.900   9.412 -0.0643  0.1660 -0.2452
  226MOL0     C30437   4.804   5.942   9.416  0.2677 -0.9088  0.0995
  226MOL0     C30438   4.741   5.886   9.537 -0.2846  0.2952 -0.3182
  226MOL0     C30439   4.699   5.802   9.620  0.2323  0.0443 -0.0128
  226MOL0     C30440   5.413   5.694   9.221  0.3278  0.2726  0.1920
  226MOL0     C30441   5.546   5.648   9.209 -0.6624 -0.1640  0.7816
  226MOL0     C30442   5.571   5.508   9.155  0.1531  0.0196 -0.4520
  226MOL0     H30443   6.011   5.808   9.124  0.6287 -0.2573 -0.9412
  226MOL0     H30444   6.243   5.791   9.024  3.7129 -3.0537 -2.2116
  226MOL0     H30445   6.542   5.566   9.136 -1.2668  0.0884  1.8543
  226MOL0     H30446   6.432   5.441   9.161 -0.1283  0.7983  0.3013
  226MOL0     H30447   6.500   5.328   8.951  1.6183 -1.4181  0.3088
  226MOL0     H30448   6.634   5.362   9.062  0.8006  1.1509  0.1228
  226MOL0     H30449   6.723   5.546   8.961  1.6005 -1.8689  0.0967
  226MOL0     H30450   6.585   5.573   8.862  1.4131  0.2462 -1.8979
  226MOL0     H30451   6.811   5.378   8.812  0.4204  1.9096  0.9871
  226MOL0     H30452   6.653   5.312   8.774 -2.3448  0.9579  0.9224
  226MOL0     H30453   6.600   5.461   8.611  0.2831  0.2188 -0.7245
  226MOL0     H30454   6.701   5.583   8.663 -2.3338  0.6030  0.6553
  226MOL0     H30455   6.898   5.441   8.573 -0.6065  0.9032  0.5797
  226MOL0     H30456   6.772   5.319   8.528 -0.9515 -0.3070  1.4068
  226MOL0     H30457   6.763   5.611   8.447  3.3566  0.4844 -1.0292
  226MOL0     H30458   6.659   5.481   8.378  0.5329  0.5797  0.0073
  226MOL0     H30459   6.828   5.580   8.244 -0.2587 -1.1951 -1.7701
  226MOL0     H30460   6.957   5.521   8.339 -0.5637  0.5892  1.5950
  226MOL0     H30461   6.901   5.219   8.389 -0.5483  0.4575 -1.1772
  226MOL0     H30462   6.910   4.969   8.284 -1.0248  1.0917 -0.0070
  226MOL0     H30463   6.879   4.965   8.110  1.1021  0.2618 -0.4567
  226MOL0     H30464   7.103   5.053   8.064 -0.2043 -0.1948 -0.1707
  226MOL0     H30465   7.143   5.046   8.242 -0.0590  1.3419 -0.5545
  226MOL0     H30466   7.071   4.810   8.062 -0.0697  0.4879  0.6099
  226MOL0     H30467   7.073   4.800   8.235  1.0736 -3.7775 -1.7306
  226MOL0     H30468   7.304   4.901   8.071 -3.0048 -0.0695 -1.7491
  226MOL0     H30469   7.290   4.732   8.118 -0.5080 -0.1612  0.8542
  226MOL0     H30470   7.407   4.660   8.424 -4.7816  2.9095 -3.7060
  226MOL0     H30471   7.631   4.590   8.447  0.3350  0.8647  0.1167
  226MOL0     H30472   8.060   4.587   8.215 -0.7358  1.6032  0.6924
  226MOL0     H30473   8.314   4.515   8.218  1.9045 -3.9354  0.6489
  226MOL0     H30474   8.455   4.450   8.623 -3.6923 -1.2952 -0.2825
  226MOL0     H30475   8.461   4.277   8.591 -2.8407 -0.4460 -2.5556
  226MOL0     H30476   8.670   4.282   8.490  1.8249 -0.1933 -1.3125
  226MOL0     H30477   8.686   4.462   8.481  0.0859 -0.1824  0.8423
  226MOL0     H30478   8.671   4.478   8.719 -2.2803  0.3017 -0.3096
  226MOL0     H30479   8.656   4.302   8.740 -0.4081  1.2276 -0.0092
  226MOL0     H30480   8.882   4.378   8.779 -1.1239  2.7260 -0.1105
  226MOL0     H30481   8.892   4.460   8.625  2.4241 -1.7081 -1.0396
  226MOL0     H30482   8.892   4.255   8.507 -3.2479  3.3643  0.4222
  226MOL0     H30483   8.840   4.165   8.659 -0.5218  0.5468 -0.0330
  226MOL0     H30484   9.087   4.336   8.679 -1.2799  1.0938 -1.2019
  226MOL0     H30485   9.055   4.180   8.760  0.5476 -1.8174 -0.7641
  226MOL0     H30486   9.152   4.231   8.482  1.9456 -0.5815  0.0081
  226MOL0     H30487   9.082   4.074   8.530  0.9489 -2.0193  3.7644
  226MOL0     H30488   9.237   4.044   8.710  2.1214  0.0320  0.1601
  226MOL0     H30489   9.301   4.052   8.552  2.6065  0.4382  1.8684
  226MOL0     H30490   8.250   4.407   8.623 -0.0379  1.4291  0.8158
  226MOL0     H30491   8.035   4.512   8.633  4.4705 -0.4374  3.4114
  226MOL0     H30492   7.754   4.902   8.187 -0.1365 -2.5202 -1.4973
  226MOL0     H30493   7.515   4.982   8.175 -0.3119  0.5214  0.7248
  226MOL0     H30494   6.239   5.374   9.128  3.9734  1.9441 -1.5412
  226MOL0     H30495   6.011   5.391   9.207 -0.0294  0.0394 -1.2024
  226MOL0     H30496   5.671   5.908   9.398 -1.7643 -0.7855  0.9637
  226MOL0     H30497   5.438   5.994   9.381 -2.0378 -0.6566  0.4007
  226MOL0     H30498   5.233   6.039   9.273 -0.3852  0.2708 -0.9654
  226MOL0     H30499   5.216   5.972   9.438 -0.5053  0.6503  0.1980
  226MOL0     H30500   5.007   5.958   9.208 -0.5063  0.6709 -0.1212
  226MOL0     H30501   5.013   6.082   9.332  1.7265  0.1078 -0.1589
  226MOL0     H30502   5.001   5.929   9.507 -2.9362  2.6133  0.5243
  226MOL0     H30503   4.967   5.793   9.389  0.9988 -0.2597  2.0293
  226MOL0     H30504   4.796   6.051   9.418  2.4904 -0.6723 -1.0129
  226MOL0     H30505   4.747   5.910   9.328 -0.7218  0.1194  0.3459
  226MOL0     H30506   4.673   5.720   9.684  1.7125 -2.0247 -1.9031
  226MOL0     H30507   5.331   5.634   9.182  1.5077 -0.6612 -0.9442
  226MOL0     H30508   5.482   5.446   9.169  0.1950  0.2590  1.1191
  226MOL0     H30509   5.600   5.521   9.051  0.5532 -0.1793 -0.3705
  226MOL0     H30510   5.645   5.459   9.219  0.9687 -0.4829 -1.7450
  227MOL0     O30511   4.055  10.741   6.050  0.3105  0.0374 -0.3866
  227MOL0     C30512   4.000  10.708   6.152 -0.2323 -0.2965 -0.9384
  227MOL0     O30513   4.037  10.602   6.234 -0.4374  0.7089 -0.1144
  227MOL0     C30514   4.159  10.538   6.214  0.5531  0.1821 -0.3927
  227MOL0     C30515   4.243  10.511   6.320 -0.5553  0.5890 -0.4266
  227MOL0     C30516   4.376  10.473   6.293  0.1711 -0.3504 -0.3569
  227MOL0     C30517   4.413  10.432   6.164 -0.2288  0.7955  0.6487
  227MOL0     O30518   4.543  10.395   6.126 -0.1533  0.2761  0.2658
  227MOL0     C30519   4.658  10.438   6.205  0.4117  0.1696  0.3573
  227MOL0     C30520   4.790  10.384   6.135 -0.1648  0.2006  0.0255
  227MOL0     C30521   4.909  10.424   6.221 -0.2087  0.8805 -0.0554
  227MOL0     C30522   5.036  10.440   6.129  0.6349 -0.5625 -0.0394
  227MOL0     C30523   5.151  10.487   6.210  0.5943 -0.2057 -0.5635
  227MOL0     C30524   5.274  10.500   6.124  0.1477 -0.3145 -1.1331
  227MOL0     C30525   5.396  10.534   6.213 -0.2531  0.1425  0.4211
  227MOL0     C30526   5.379  10.653   6.299  0.0345 -0.4903  0.9415
  227MOL0     N30527   5.510  10.687   6.368  0.0417  0.2101  0.4511
  227MOL0     C30528   5.607  10.768   6.319 -0.1678 -0.5547 -0.4425
  227MOL0     C30529   5.690  10.774   6.425  0.3763 -0.9436 -0.3750
  227MOL0     C30530   5.824  10.844   6.433  0.6387  0.2511  0.8323
  227MOL0     C30531   5.919  10.756   6.504  0.1803 -0.5608 -0.4411
  227MOL0     C30532   6.056  10.821   6.505 -0.3404 -0.4758  0.2404
  227MOL0     C30533   6.159  10.733   6.573  0.7154  0.1904  0.5075
  227MOL0     O30534   6.135  10.720   6.715 -0.0841  0.7338  1.3269
  227MOL0     C30535   6.250  10.711   6.784 -0.7584  0.9257  0.4198
  227MOL0     C30536   6.264  10.770   6.912 -0.4105 -0.2697 -0.0004
  227MOL0     C30537   6.376  10.763   6.989 -0.2173 -0.5511 -0.1266
  227MOL0     C30538   6.488  10.683   6.945  0.3392 -0.4207 -0.3353
  227MOL0     C30539   6.607  10.658   7.034 -0.2039 -0.0598  0.4704
  227MOL0     O30540   6.704  10.574   6.984  0.2997 -0.0524  0.3530
  227MOL0     C30541   6.810  10.538   7.063 -0.1764  0.9333  0.2522
  227MOL0     C30542   6.801  10.467   7.177 -0.0385  0.1971 -0.2537
  227MOL0     C30543   6.915  10.412   7.236  0.4329 -1.0616 -0.2379
  227MOL0     C30544   7.044  10.426   7.184  0.0734  0.0678  0.4248
  227MOL0     O30545   7.138  10.357   7.258 -0.1986  0.3458 -0.5498
  227MOL0     C30546   7.259  10.327   7.188 -0.2974 -0.1349 -0.3396
  227MOL0     C30547   7.345  10.221   7.250  0.0823 -0.1500  0.5994
  227MOL0     C30548   7.472  10.204   7.167 -1.3454 -1.6181  0.0964
  227MOL0     C30549   7.592  10.159   7.253  0.1363  0.5331 -0.7879
  227MOL0     C30550   7.714  10.173   7.175  0.0549 -0.0158 -0.0827
  227MOL0     C30551   7.843  10.132   7.247  0.1938  0.0077  0.0807
  227MOL0     C30552   7.971  10.145   7.150  0.1062 -0.5124 -0.7875
  227MOL0     C30553   8.084  10.082   7.231 -0.0102  0.0566  0.4870
  227MOL0    Cl30554   8.250  10.112   7.171  0.1921 -0.0976 -0.0047
  227MOL0     C30555   7.055  10.495   7.063  0.0342  0.0070 -0.9077
  227MOL0     C30556   6.943  10.549   7.008 -0.3565 -0.2633 -0.6655
  227MOL0     O30557   6.604  10.714   7.148 -0.4084  0.1299  0.6327
  227MOL0     C30558   6.477  10.626   6.816 -0.0132  0.1976  0.2102
  227MOL0     C30559   6.371  10.645   6.734 -0.5526  0.4529 -0.2805
  227MOL0     N30560   5.640  10.692   6.529 -0.7178 -0.6997  0.4234
  227MOL0     N30561   5.537  10.641   6.492 -0.1604  0.1726 -0.1046
  227MOL0     C30562   4.321  10.445   6.055 -0.4284 -0.4185 -0.0265
  227MOL0     C30563   4.198  10.501   6.076 -0.4654  0.8801 -0.4742
  227MOL0     C30564   3.864  10.765   6.177  0.0436  0.8505 -0.0241
  227MOL0     C30565   3.772  10.789   6.073  0.3326  0.5463 -0.7852
  227MOL0     C30566   3.642  10.840   6.103 -0.4534  0.1818  0.1794
  227MOL0     C30567   3.598  10.858   6.234  0.4038  0.0855  0.4421
  227MOL0     O30568   3.480  10.895   6.279  0.3083 -0.5939  0.1291
  227MOL0     C30569   3.363  10.867   6.198  0.5672  0.5427 -0.0177
  227MOL0     C30570   3.311  10.987   6.115 -0.1478 -0.2591  0.4764
  227MOL0     C30571   3.255  11.089   6.213  0.8297 -0.5851 -0.0144
  227MOL0     C30572   3.143  11.178   6.158 -1.0342 -0.2659  0.2350
  227MOL0     C30573   3.014  11.112   6.163  0.3178 -0.5451  0.7409
  227MOL0     C30574   2.899  11.070   6.168 -0.5543 -0.2230  0.6430
  227MOL0     C30575   3.698  10.828   6.330  0.0483 -0.6337  0.7648
  227MOL0     C30576   3.821  10.780   6.313 -0.6964 -0.4935  0.7589
  227MOL0     C30577   3.910  10.779   6.430  0.1588  0.3554 -0.3359
  227MOL0     H30578   4.221  10.532   6.424  0.5786 -0.4311  0.0505
  227MOL0     H30579   4.446  10.464   6.376 -0.6469  2.7144  0.8255
  227MOL0     H30580   4.663  10.547   6.199  0.5864  0.1000 -2.2665
  227MOL0     H30581   4.666  10.406   6.309 -0.6256 -0.8599  0.1358
  227MOL0     H30582   4.804  10.435   6.039  0.3045 -1.3319 -0.7556
  227MOL0     H30583   4.788  10.277   6.112 -3.2786  0.0543  0.5048
  227MOL0     H30584   4.932  10.353   6.301 -1.5945  1.0880  0.5679
  227MOL0     H30585   4.881  10.513   6.278 -1.1673 -0.0203  0.9385
  227MOL0     H30586   5.059  10.337   6.100 -1.1111 -0.4880 -1.8272
  227MOL0     H30587   5.017  10.509   6.046 -1.1094  1.5033  1.9380
  227MOL0     H30588   5.109  10.582   6.246 -1.5558  0.4432 -4.2477
  227MOL0     H30589   5.163  10.416   6.292 -0.1677  0.0767 -0.1937
  227MOL0     H30590   5.295  10.401   6.081  1.1604  0.0920 -1.6222
  227MOL0     H30591   5.261  10.584   6.056 -2.2887  0.3191  0.0081
  227MOL0     H30592   5.479  10.550   6.143 -1.9432  1.2861 -1.4435
  227MOL0     H30593   5.419  10.454   6.285 -1.0642 -1.4984 -1.0495
  227MOL0     H30594   5.358  10.740   6.236 -0.0751 -1.6873 -0.7322
  227MOL0     H30595   5.296  10.651   6.371 -1.4832  1.1134 -0.6429
  227MOL0     H30596   5.616  10.821   6.224 -0.8349 -0.0915 -0.2522
  227MOL0     H30597   5.861  10.864   6.332 -0.0669  1.0243  0.7113
  227MOL0     H30598   5.822  10.937   6.491  0.0258 -0.6285  2.2913
  227MOL0     H30599   5.877  10.747   6.605 -0.5215  2.8365 -0.3019
  227MOL0     H30600   5.923  10.657   6.458  1.5733 -0.7176 -0.0503
  227MOL0     H30601   6.048  10.920   6.550 -0.3078 -0.1302 -0.5051
  227MOL0     H30602   6.075  10.833   6.398 -0.0992  1.4399  0.4744
  227MOL0     H30603   6.259  10.776   6.557 -0.0036  1.0680 -2.0493
  227MOL0     H30604   6.166  10.638   6.520 -1.1083  0.6594 -0.6427
  227MOL0     H30605   6.170  10.808   6.951 -1.6560  1.5603 -4.2340
  227MOL0     H30606   6.364  10.815   7.084 -0.7789  0.3820 -0.6983
  227MOL0     H30607   6.707  10.452   7.229  1.1185  0.0469  1.9009
  227MOL0     H30608   6.906  10.359   7.331  1.9224 -1.8467 -0.5093
  227MOL0     H30609   7.242  10.304   7.082 -1.8583  0.4691 -0.2486
  227MOL0     H30610   7.313  10.422   7.198 -2.6474  1.3095 -0.5955
  227MOL0     H30611   7.374  10.254   7.350  2.7982 -0.1649 -0.0986
  227MOL0     H30612   7.293  10.125   7.257 -3.6051  1.7646  2.0029
  227MOL0     H30613   7.453  10.131   7.088 -0.8731 -3.0524  1.2562
  227MOL0     H30614   7.486  10.298   7.113 -1.2733 -2.3482 -1.1986
  227MOL0     H30615   7.562  10.059   7.284 -2.0618  1.4670  0.3617
  227MOL0     H30616   7.609  10.226   7.338  2.4254  0.9655 -1.5314
  227MOL0     H30617   7.734  10.270   7.127  1.3883 -0.7883 -1.1681
  227MOL0     H30618   7.704  10.104   7.091  0.6527  0.1293 -0.2755
  227MOL0     H30619   7.853  10.203   7.330 -0.1137 -0.7792  0.8017
  227MOL0     H30620   7.832  10.029   7.283 -1.6828  0.5785  1.3203
  227MOL0     H30621   7.993  10.244   7.109  2.2721  0.3042  2.0465
  227MOL0     H30622   7.951  10.081   7.064  0.6663  1.1232 -2.2028
  227MOL0     H30623   8.086  10.115   7.335  2.7438  0.9278  0.2388
  227MOL0     H30624   8.071   9.974   7.243  0.1888  0.1051  1.2207
  227MOL0     H30625   7.146  10.529   7.015 -0.6685  2.3834 -0.7122
  227MOL0     H30626   6.947  10.601   6.912  0.3904  0.4175 -0.2769
  227MOL0     H30627   6.556  10.558   6.785 -0.3470 -1.4191  2.6537
  227MOL0     H30628   6.368  10.592   6.640  2.1249  0.4371 -0.4224
  227MOL0     H30629   4.349  10.426   5.952  0.7398 -2.7855  0.6344
  227MOL0     H30630   4.143  10.521   5.985  1.3775  2.0549 -1.4039
  227MOL0     H30631   3.803  10.768   5.971 -0.1600 -0.2315 -0.7860
  227MOL0     H30632   3.589  10.873   6.014 -1.4124  1.2178  1.0939
  227MOL0     H30633   3.289  10.822   6.266  0.7326 -2.7544 -1.7994
  227MOL0     H30634   3.385  10.782   6.133 -0.1805  0.2038  0.1561
  227MOL0     H30635   3.224  10.965   6.051 -1.1154 -0.1627  1.7300
  227MOL0     H30636   3.392  11.015   6.046  1.1148 -3.5055  0.4700
  227MOL0     H30637   3.329  11.152   6.263 -0.0626  0.0555  0.5518
  227MOL0     H30638   3.209  11.026   6.290 -0.4799  1.4130  0.9442
  227MOL0     H30639   3.137  11.266   6.223 -1.2516 -0.3084  0.2739
  227MOL0     H30640   3.187  11.203   6.062  0.4106 -0.7165  0.7540
  227MOL0     H30641   2.797  11.037   6.161 -0.5799  0.0154 -0.1641
  227MOL0     H30642   3.674  10.829   6.436  1.1992 -2.9626  1.1146
  227MOL0     H30643   4.010  10.805   6.395  0.9368  1.8310  2.6026
  227MOL0     H30644   3.883  10.865   6.492 -0.1587  0.4199 -0.5603
  227MOL0     H30645   3.916  10.685   6.486 -1.5751  1.5504  2.0461
  228MOL0     O30646   2.809   4.825   0.632  0.1297  0.3884  0.4496
  228MOL0     C30647   2.747   4.913   0.568  0.0833  0.2818 -1.2773
  228MOL0     O30648   2.795   5.037   0.527 -0.1794  0.2044  0.5047
  228MOL0     C30649   2.919   5.086   0.571 -0.1148  1.1718  0.9613
  228MOL0     C30650   2.958   5.184   0.483  0.6162  0.3235  0.2167
  228MOL0     C30651   3.076   5.251   0.504  0.0205  0.8415  0.4183
  228MOL0     C30652   3.161   5.225   0.613  0.0436  0.0865 -0.5211
  228MOL0     O30653   3.277   5.288   0.653 -0.1685 -0.5879 -0.8400
  228MOL0     C30654   3.301   5.409   0.580  0.0848  0.4148  0.5308
  228MOL0     C30655   3.440   5.471   0.619 -0.9413 -0.2556  0.2207
  228MOL0     C30656   3.555   5.361   0.649  1.1402  0.1905  0.2169
  228MOL0     C30657   3.693   5.422   0.651 -0.4001  0.4586 -0.7572
  228MOL0     C30658   3.807   5.317   0.652 -0.1764 -0.4792 -0.1064
  228MOL0     C30659   3.818   5.215   0.767 -0.1975  0.0123  0.4791
  228MOL0     C30660   3.950   5.138   0.745  0.0970 -0.2051  0.4583
  228MOL0     C30661   3.959   5.032   0.860  0.2427  0.2476 -0.7181
  228MOL0     N30662   4.086   4.974   0.844 -1.2150  0.3816 -0.1149
  228MOL0     C30663   4.114   4.879   0.748 -1.4140  0.3107 -0.6364
  228MOL0     C30664   4.245   4.872   0.754  0.0294 -0.1803  0.0450
  228MOL0     C30665   4.322   4.765   0.677  0.6057  0.1466  0.2321
  228MOL0     C30666   4.477   4.775   0.680  0.2938 -0.3039 -0.2026
  228MOL0     C30667   4.542   4.666   0.593  0.1721  0.0491 -0.7670
  228MOL0     C30668   4.694   4.667   0.600  0.6877 -0.4691 -0.2120
  228MOL0     O30669   4.738   4.758   0.498 -0.2835  0.3144 -0.7036
  228MOL0     C30670   4.873   4.739   0.459  0.6790  0.5495 -0.5385
  228MOL0     C30671   4.927   4.824   0.359  0.2258 -0.3985 -0.2175
  228MOL0     C30672   5.053   4.805   0.312  0.1308 -0.0661 -0.7904
  228MOL0     C30673   5.143   4.712   0.372 -0.6653 -0.5085 -0.2063
  228MOL0     C30674   5.284   4.691   0.327 -0.6085  0.5937 -0.0867
  228MOL0     O30675   5.362   4.613   0.420 -0.4850 -0.0416 -0.1319
  228MOL0     C30676   5.493   4.598   0.377 -0.4621 -0.4189 -0.4500
  228MOL0     C30677   5.599   4.652   0.447 -0.5407 -1.0514  0.0022
  228MOL0     C30678   5.732   4.622   0.417 -0.0341 -0.6093 -0.2640
  228MOL0     C30679   5.767   4.553   0.301 -0.2227  0.4505 -0.4523
  228MOL0     O30680   5.892   4.521   0.252  0.1250  0.0663  0.2490
  228MOL0     C30681   5.991   4.623   0.279  0.9021  0.6951  0.1020
  228MOL0     C30682   6.110   4.586   0.190  0.7130 -0.0108 -0.0419
  228MOL0     C30683   6.088   4.600   0.040  0.7880  0.1405 -0.1519
  228MOL0     C30684   6.101   4.745   0.001 -0.3901 -0.2052 -0.2706
  228MOL0     C30685   6.069   4.786  -0.141 -0.0336  0.9123  0.7878
  228MOL0     C30686   6.061   4.936  -0.158 -0.6799  1.0389 -0.0981
  228MOL0     C30687   6.021   4.981  -0.302  0.4337  0.5978  0.0362
  228MOL0     C30688   6.017   5.126  -0.314  0.2290  0.0696 -0.0609
  228MOL0    Cl30689   5.948   5.178  -0.477  0.3279  0.3033  0.5125
  228MOL0     C30690   5.665   4.500   0.223 -1.7543 -0.1080 -0.3897
  228MOL0     C30691   5.529   4.522   0.264  0.3611 -0.2525  0.9964
  228MOL0     O30692   5.322   4.729   0.220 -0.2464  0.3608  0.3757
  228MOL0     C30693   5.098   4.632   0.474  0.2288 -0.1693 -0.6694
  228MOL0     C30694   4.963   4.642   0.513 -0.7499 -0.3100  0.5875
  228MOL0     N30695   4.295   4.937   0.864  0.0904 -0.3168  0.2713
  228MOL0     N30696   4.195   4.992   0.918 -0.6040 -0.2389 -0.2807
  228MOL0     C30697   3.122   5.124   0.701  0.4696  0.1827  0.8722
  228MOL0     C30698   3.007   5.054   0.680 -0.8202  0.6160 -0.0045
  228MOL0     C30699   2.617   4.873   0.512 -0.3141  0.0142 -0.6155
  228MOL0     C30700   2.550   4.761   0.569  0.5439  0.3269  0.6908
  228MOL0     C30701   2.432   4.718   0.524  0.2389  0.1057 -0.3401
  228MOL0     C30702   2.359   4.787   0.422 -0.0670 -0.2095  0.1865
  228MOL0     O30703   2.236   4.731   0.376  0.5482 -0.4325  0.1138
  228MOL0     C30704   2.140   4.820   0.305 -0.3250  0.2120  0.1670
  228MOL0     C30705   2.149   4.786   0.158 -0.0905  0.2116 -0.3676
  228MOL0     C30706   2.041   4.855   0.075 -0.2679  0.0838  0.3036
  228MOL0     C30707   2.048   5.008   0.076 -0.5013 -0.1332 -0.2145
  228MOL0     C30708   2.183   5.063   0.062  0.3398 -0.3120  0.5124
  228MOL0     C30709   2.300   5.102   0.044 -0.2917  0.6420 -0.5302
  228MOL0     C30710   2.424   4.899   0.363  0.1390  0.1190  0.3148
  228MOL0     C30711   2.548   4.948   0.410 -0.1489 -0.1649 -0.5276
  228MOL0     C30712   2.592   5.083   0.357  0.1007 -0.0593  0.2206
  228MOL0     H30713   2.891   5.208   0.401  1.1837 -1.5081 -0.8512
  228MOL0     H30714   3.103   5.329   0.432 -2.4657 -0.4630 -2.0984
  228MOL0     H30715   3.311   5.397   0.472 -0.8932  1.4278  0.3147
  228MOL0     H30716   3.217   5.477   0.594  2.4410  3.4310  1.3393
  228MOL0     H30717   3.423   5.531   0.708  2.2319  1.6383 -0.3132
  228MOL0     H30718   3.478   5.536   0.540 -1.1029 -2.2771 -1.6177
  228MOL0     H30719   3.560   5.280   0.575 -0.7290  0.8381 -0.6678
  228MOL0     H30720   3.536   5.317   0.748 -0.0261 -0.2445 -0.1906
  228MOL0     H30721   3.701   5.485   0.561  2.0992  2.3972  0.6926
  228MOL0     H30722   3.713   5.487   0.736  0.9544 -3.4649  2.2182
  228MOL0     H30723   3.812   5.268   0.554  1.9991  2.1339 -1.4653
  228MOL0     H30724   3.896   5.381   0.658 -0.5781  0.4434 -2.6162
  228MOL0     H30725   3.821   5.253   0.870 -0.5158  0.0980  0.4583
  228MOL0     H30726   3.737   5.143   0.748 -0.4464  0.6436 -0.9822
  228MOL0     H30727   4.036   5.204   0.756 -0.7179  1.8362 -3.5356
  228MOL0     H30728   3.956   5.097   0.644  0.2989  0.8481  0.0245
  228MOL0     H30729   3.947   5.086   0.955 -1.8415 -0.7453 -0.3661
  228MOL0     H30730   3.873   4.965   0.862 -1.6620  2.5918 -0.1133
  228MOL0     H30731   4.042   4.820   0.692 -0.9860  0.2512 -1.1315
  228MOL0     H30732   4.288   4.669   0.715 -2.3144  1.3507  0.9825
  228MOL0     H30733   4.287   4.787   0.575  0.6828  1.3009  0.4337
  228MOL0     H30734   4.512   4.877   0.659  2.0202 -0.2697  2.4079
  228MOL0     H30735   4.504   4.764   0.785 -0.9509  0.4326  0.2220
  228MOL0     H30736   4.515   4.675   0.487 -4.0183 -3.7295 -0.2910
  228MOL0     H30737   4.511   4.569   0.631  0.9921 -0.6817 -1.8794
  228MOL0     H30738   4.707   4.561   0.574 -0.3520 -0.2693 -1.6877
  228MOL0     H30739   4.746   4.696   0.691 -1.0946 -0.1172  0.7295
  228MOL0     H30740   4.862   4.899   0.314 -0.8503 -0.8032  0.6219
  228MOL0     H30741   5.069   4.862   0.221 -3.1410  1.2755 -0.6457
  228MOL0     H30742   5.580   4.702   0.542  0.3466  0.1227 -0.4031
  228MOL0     H30743   5.806   4.663   0.486 -0.1912  1.3514 -1.2017
  228MOL0     H30744   5.946   4.722   0.272 -2.2759 -0.5481  1.0831
  228MOL0     H30745   6.027   4.615   0.382  2.0875  0.3650 -0.3171
  228MOL0     H30746   6.186   4.656   0.227 -2.1512  1.5640  3.3777
  228MOL0     H30747   6.141   4.483   0.212 -0.9729 -0.4723  0.3119
  228MOL0     H30748   6.165   4.545  -0.015 -0.0359  0.7343 -1.9899
  228MOL0     H30749   5.991   4.557   0.015  1.7605 -4.2329  2.6591
  228MOL0     H30750   6.208   4.763   0.012 -0.5449 -0.5282  2.2399
  228MOL0     H30751   6.047   4.809   0.072 -2.0203 -3.3831  1.5677
  228MOL0     H30752   5.971   4.742  -0.160  0.2110 -0.0883  1.7791
  228MOL0     H30753   6.138   4.741  -0.214 -2.6262  0.1909 -1.3898
  228MOL0     H30754   5.982   4.963  -0.088 -2.1335 -2.9102  0.0727
  228MOL0     H30755   6.152   4.984  -0.122  0.7876  0.0766 -2.3091
  228MOL0     H30756   5.919   4.953  -0.327 -0.6857  2.8841  1.6284
  228MOL0     H30757   6.092   4.935  -0.372  3.2232  1.6969  1.9314
  228MOL0     H30758   5.964   5.166  -0.228  2.4595 -1.1788  2.0277
  228MOL0     H30759   6.120   5.164  -0.306  0.1506  0.2123  0.2735
  228MOL0     H30760   5.691   4.439   0.137  1.0752 -1.0267  0.9949
  228MOL0     H30761   5.447   4.482   0.205 -1.1858  2.1636  1.3465
  228MOL0     H30762   5.159   4.562   0.530 -1.1912 -1.4465 -0.6726
  228MOL0     H30763   4.934   4.567   0.587  0.2030  0.8579  2.1934
  228MOL0     H30764   3.199   5.095   0.773  0.6373 -2.3615 -0.2401
  228MOL0     H30765   2.988   4.972   0.749  1.4146 -0.0177 -0.0704
  228MOL0     H30766   2.593   4.697   0.645  0.5326 -0.9107 -0.3197
  228MOL0     H30767   2.391   4.625   0.561  0.6379  0.6837  1.6884
  228MOL0     H30768   2.159   4.925   0.330  1.5606 -0.0840  0.0823
  228MOL0     H30769   2.040   4.780   0.326 -0.2181 -1.0309 -1.5075
  228MOL0     H30770   2.140   4.679   0.139  0.4795 -0.5924  3.1913
  228MOL0     H30771   2.245   4.821   0.119 -1.5369  0.8026 -3.7219
  228MOL0     H30772   1.944   4.812   0.102  0.5057 -1.5341  0.6411
  228MOL0     H30773   2.057   4.823  -0.029 -0.3193 -0.0340  0.3330
  228MOL0     H30774   1.979   5.050   0.002  0.6887  3.1972  0.3750
  228MOL0     H30775   2.009   5.036   0.175  0.3495 -1.3239  0.4798
  228MOL0     H30776   2.401   5.135   0.033 -0.5247  2.0321  1.1340
  228MOL0     H30777   2.366   4.954   0.289  0.3077 -0.7645 -0.5007
  228MOL0     H30778   2.522   5.119   0.281 -0.7841  0.0239  1.0636
  228MOL0     H30779   2.609   5.162   0.430  2.7144 -0.0194 -0.3279
  228MOL0     H30780   2.692   5.081   0.312  0.5315  3.9625  0.6456
  229MOL0     O30781   7.208   3.410   0.023 -0.4475 -0.1303  0.1990
  229MOL0     C30782   7.290   3.497   0.013 -0.6956 -0.1815 -0.2788
  229MOL0     O30783   7.287   3.592  -0.080 -0.5665 -0.2775 -0.6117
  229MOL0     C30784   7.176   3.590  -0.157  0.2681 -0.7002  0.2011
  229MOL0     C30785   7.063   3.668  -0.131  0.0530  0.2352  0.3903
  229MOL0     C30786   6.956   3.666  -0.225 -0.7049 -0.0431  0.2948
  229MOL0     C30787   6.974   3.595  -0.349  1.0196  0.5563 -0.3099
  229MOL0     O30788   6.891   3.588  -0.460 -0.3097 -0.4407 -0.0577
  229MOL0     C30789   6.762   3.635  -0.448  0.2644 -0.3683  0.1626
  229MOL0     C30790   6.670   3.591  -0.567 -0.3961 -0.0788 -0.5139
  229MOL0     C30791   6.516   3.599  -0.552  0.5561 -0.3315  0.6795
  229MOL0     C30792   6.436   3.512  -0.659 -0.4426 -0.6439 -0.6675
  229MOL0     C30793   6.287   3.543  -0.656 -0.2045 -0.2828  0.0159
  229MOL0     C30794   6.191   3.461  -0.751 -0.5328  0.1368 -0.4696
  229MOL0     C30795   6.046   3.467  -0.711  0.4258  0.4256 -0.2292
  229MOL0     C30796   5.974   3.360  -0.797  0.0110 -0.1905  0.2087
  229MOL0     N30797   5.827   3.366  -0.771 -1.4498  0.1189 -0.2160
  229MOL0     C30798   5.760   3.296  -0.673  0.3130  0.1260  0.0273
  229MOL0     C30799   5.628   3.315  -0.697 -0.9264  0.4836  0.0694
  229MOL0     C30800   5.505   3.258  -0.638 -0.1941  0.0291 -0.8545
  229MOL0     C30801   5.491   3.340  -0.501 -0.1335  0.4060 -0.3985
  229MOL0     C30802   5.577   3.290  -0.379 -0.6979 -0.3204  0.6784
  229MOL0     C30803   5.523   3.364  -0.259  0.0878 -0.1937  0.0230
  229MOL0     O30804   5.573   3.500  -0.256 -0.1256 -0.7691 -0.1192
  229MOL0     C30805   5.681   3.534  -0.176 -0.1864 -0.1428 -0.4019
  229MOL0     C30806   5.758   3.444  -0.093 -0.3162 -0.2755 -0.0989
  229MOL0     C30807   5.858   3.497  -0.007  0.0149  0.5247  0.8821
  229MOL0     C30808   5.883   3.631   0.006 -0.1554  0.1313  0.7846
  229MOL0     C30809   5.988   3.682   0.092 -0.1581 -0.5048 -0.5842
  229MOL0     O30810   6.058   3.581   0.157 -0.4587 -0.6788 -0.8971
  229MOL0     C30811   6.171   3.603   0.224 -0.1722  0.4144 -0.7035
  229MOL0     C30812   6.280   3.674   0.169  0.6103  0.5883 -0.3317
  229MOL0     C30813   6.408   3.683   0.234  0.5463  0.1111 -0.2181
  229MOL0     C30814   6.422   3.628   0.360  0.1872  0.8281 -0.2787
  229MOL0     O30815   6.536   3.623   0.429 -0.7623  0.5209  0.0357
  229MOL0     C30816   6.665   3.614   0.350 -0.6247  0.1111  0.0390
  229MOL0     C30817   6.779   3.644   0.441 -0.6594 -0.0692  0.2866
  229MOL0     C30818   6.900   3.634   0.345 -0.1705  0.5055 -0.3815
  229MOL0     C30819   7.023   3.696   0.401 -0.1089 -0.1271  0.9660
  229MOL0     C30820   7.135   3.700   0.299  0.5942  0.4349  0.5247
  229MOL0     C30821   7.256   3.789   0.341  0.7291  0.6167  0.8188
  229MOL0     C30822   7.312   3.746   0.479 -0.0990  0.3936 -0.5165
  229MOL0     C30823   7.449   3.805   0.492  0.1567  0.0203 -0.1969
  229MOL0    Cl30824   7.519   3.743   0.638  0.2951  0.2390  0.0542
  229MOL0     C30825   6.315   3.556   0.419  0.5256 -0.2467 -0.0344
  229MOL0     C30826   6.184   3.552   0.354 -0.1819  0.9087  0.4596
  229MOL0     O30827   6.021   3.801   0.090 -0.2111  0.6622  0.1452
  229MOL0     C30828   5.808   3.715  -0.069 -0.3234 -0.6037 -0.4257
  229MOL0     C30829   5.721   3.669  -0.170 -0.0003  0.3394  0.5274
  229MOL0     N30830   5.619   3.395  -0.810 -0.3741  0.0289 -0.7021
  229MOL0     N30831   5.739   3.427  -0.846  0.3655 -0.4925 -0.2133
  229MOL0     C30832   7.083   3.523  -0.366 -0.8469 -0.0526 -0.2851
  229MOL0     C30833   7.183   3.507  -0.268 -0.0323  0.3877 -1.0277
  229MOL0     C30834   7.396   3.508   0.119 -0.3169  0.2446 -0.1320
  229MOL0     C30835   7.495   3.613   0.103  0.2645 -0.1612  0.4584
  229MOL0     C30836   7.597   3.620   0.197 -0.1270  0.2408  0.2238
  229MOL0     C30837   7.605   3.534   0.307  0.2497 -0.7764  0.0797
  229MOL0     O30838   7.712   3.543   0.391 -0.5876 -0.2371 -0.3643
  229MOL0     C30839   7.797   3.657   0.401  0.1466 -0.5215 -0.4206
  229MOL0     C30840   7.869   3.641   0.540  0.3238  0.4230  0.1470
  229MOL0     C30841   7.941   3.768   0.563 -0.2814 -0.4369  0.0593
  229MOL0     C30842   8.037   3.769   0.680 -0.3941  0.3002 -0.1407
  229MOL0     C30843   7.963   3.766   0.807  0.7670  0.1869  0.2912
  229MOL0     C30844   7.900   3.741   0.912  0.4552  0.4678 -0.0773
  229MOL0     C30845   7.505   3.448   0.332  0.1184  0.6958  0.5343
  229MOL0     C30846   7.399   3.435   0.241  0.1283 -0.7954 -1.6534
  229MOL0     C30847   7.313   3.315   0.266  0.6289 -0.3619 -0.5477
  229MOL0     H30848   7.063   3.710  -0.031  0.3292 -1.1371  0.9874
  229MOL0     H30849   6.865   3.721  -0.205 -1.7721 -1.8498  0.7155
  229MOL0     H30850   6.714   3.602  -0.355 -1.4900  1.4172 -0.0459
  229MOL0     H30851   6.759   3.744  -0.443 -0.0509 -0.2971 -1.3416
  229MOL0     H30852   6.694   3.486  -0.582 -0.1164 -0.1333  0.2930
  229MOL0     H30853   6.702   3.645  -0.657  0.8028 -0.2255 -0.1915
  229MOL0     H30854   6.474   3.700  -0.563 -1.5465 -1.1777  0.4648
  229MOL0     H30855   6.485   3.550  -0.459  1.6348  0.9247  1.7461
  229MOL0     H30856   6.476   3.521  -0.760 -1.0654 -2.0943 -1.0777
  229MOL0     H30857   6.435   3.408  -0.627 -1.0081 -0.1945  0.8535
  229MOL0     H30858   6.252   3.537  -0.552 -0.8007 -0.5260 -0.1924
  229MOL0     H30859   6.266   3.648  -0.675 -1.4017  0.3983  4.0983
  229MOL0     H30860   6.201   3.495  -0.854 -1.2157  1.6346 -0.0736
  229MOL0     H30861   6.222   3.356  -0.747  0.6926  0.4560 -1.0229
  229MOL0     H30862   6.014   3.568  -0.737  0.7470  0.5112 -0.2962
  229MOL0     H30863   6.045   3.451  -0.602 -1.4879  0.6154 -0.1888
  229MOL0     H30864   6.001   3.385  -0.900 -0.6672 -0.9344 -0.1628
  229MOL0     H30865   6.026   3.265  -0.780 -0.3451 -0.0676  2.1983
  229MOL0     H30866   5.805   3.234  -0.596 -3.2916 -1.2845  1.2258
  229MOL0     H30867   5.421   3.281  -0.704 -0.1582 -1.0490 -1.2967
  229MOL0     H30868   5.506   3.150  -0.616 -2.1428 -0.4547 -2.8614
  229MOL0     H30869   5.513   3.447  -0.509 -1.0154  0.5209 -1.5726
  229MOL0     H30870   5.385   3.329  -0.476 -0.4740 -1.8242 -2.5261
  229MOL0     H30871   5.682   3.317  -0.388  0.1900 -3.6216 -0.1364
  229MOL0     H30872   5.566   3.184  -0.354  0.9347 -0.1897  2.0806
  229MOL0     H30873   5.547   3.323  -0.160  3.7940  1.4378  0.0030
  229MOL0     H30874   5.415   3.374  -0.267 -0.0837  0.8193  2.5837
  229MOL0     H30875   5.742   3.337  -0.101 -3.5745  0.1055 -0.0677
  229MOL0     H30876   5.906   3.420   0.053 -1.1263 -0.0844  1.0508
  229MOL0     H30877   6.276   3.714   0.068 -0.1381 -1.7288 -1.2958
  229MOL0     H30878   6.471   3.748   0.173  0.5685  0.4903  0.2101
  229MOL0     H30879   6.670   3.510   0.318  3.2486  0.4246 -0.9046
  229MOL0     H30880   6.672   3.669   0.255 -0.9364 -0.9017 -0.5916
  229MOL0     H30881   6.774   3.750   0.469  2.7431  0.2445  0.0656
  229MOL0     H30882   6.779   3.578   0.528 -0.8416 -0.5344 -0.0608
  229MOL0     H30883   6.928   3.531   0.323 -2.3596 -0.6644  1.8708
  229MOL0     H30884   6.876   3.693   0.256 -3.4773 -1.6528 -1.1022
  229MOL0     H30885   7.056   3.633   0.484  2.5751 -2.2218 -1.4944
  229MOL0     H30886   6.995   3.798   0.431 -0.3424  0.7477 -1.9407
  229MOL0     H30887   7.105   3.740   0.202  1.9670  0.3571  0.0385
  229MOL0     H30888   7.164   3.596   0.280  0.5257  0.2953  1.1554
  229MOL0     H30889   7.326   3.796   0.257 -0.5733  3.9474 -0.1755
  229MOL0     H30890   7.212   3.889   0.342 -1.9471 -0.3558 -2.2922
  229MOL0     H30891   7.314   3.637   0.488 -3.5189  0.1107 -1.6389
  229MOL0     H30892   7.251   3.777   0.564  0.0845 -1.3994  0.3066
  229MOL0     H30893   7.506   3.777   0.403 -2.6510 -0.0270 -2.0996
  229MOL0     H30894   7.468   3.912   0.488  3.4293 -0.4814 -1.0912
  229MOL0     H30895   6.339   3.516   0.517  2.6328 -0.3755 -0.5552
  229MOL0     H30896   6.099   3.502   0.398 -0.4673 -0.7069 -1.7355
  229MOL0     H30897   5.808   3.823  -0.059 -2.4351 -0.6893  1.4228
  229MOL0     H30898   5.669   3.733  -0.240  0.5788 -1.0537 -1.2700
  229MOL0     H30899   7.101   3.469  -0.458  1.3882 -0.9568  0.6004
  229MOL0     H30900   7.274   3.455  -0.296  0.7532  1.3663 -0.3356
  229MOL0     H30901   7.499   3.677   0.015  0.7178  1.1874  1.4263
  229MOL0     H30902   7.666   3.704   0.187 -0.2200  0.7485  3.0235
  229MOL0     H30903   7.739   3.750   0.400  0.4329 -0.3319  0.4134
  229MOL0     H30904   7.871   3.664   0.321 -0.9036  2.8612 -1.2717
  229MOL0     H30905   7.941   3.559   0.530  0.8195  0.9863 -1.1079
  229MOL0     H30906   7.788   3.629   0.612 -0.7893  1.2267 -0.9299
  229MOL0     H30907   7.866   3.848   0.572  0.4749  0.3644 -0.5395
  229MOL0     H30908   8.003   3.794   0.477  1.4217 -2.5005  0.5963
  229MOL0     H30909   8.115   3.692   0.675 -2.5846 -2.0767  0.5819
  229MOL0     H30910   8.083   3.868   0.682 -4.2136  2.2418  2.0910
  229MOL0     H30911   7.828   3.732   0.991  0.7550 -0.0204  0.1447
  229MOL0     H30912   7.517   3.384   0.419  0.8057  1.1339  0.7722
  229MOL0     H30913   7.208   3.344   0.276  1.0095  0.3455  2.2483
  229MOL0     H30914   7.337   3.253   0.179  2.7499 -1.7622  0.9452
  229MOL0     H30915   7.337   3.259   0.356 -1.1514 -0.9224 -0.3755
  230MOL0     O30916   1.723   0.828   7.704  0.8803 -0.3797 -0.7270
  230MOL0     C30917   1.676   0.887   7.612 -0.2521 -0.1838  0.5488
  230MOL0     O30918   1.728   0.895   7.488 -0.1573 -0.3815  0.1148
  230MOL0     C30919   1.851   0.848   7.468  0.3020  0.1575  0.0200
  230MOL0     C30920   1.965   0.878   7.532  0.2350  0.3225 -0.2912
  230MOL0     C30921   2.091   0.828   7.498  0.6731  0.4986  0.1814
  230MOL0     C30922   2.095   0.739   7.384 -1.1480 -0.8547  0.3002
  230MOL0     O30923   2.223   0.683   7.377  0.7689 -0.2990  0.0582
  230MOL0     C30924   2.259   0.630   7.245 -0.0489  0.4298 -0.6575
  230MOL0     C30925   2.312   0.492   7.265  1.0064  1.1751  0.1227
  230MOL0     C30926   2.347   0.437   7.124  0.7376  0.7815  0.1541
  230MOL0     C30927   2.434   0.303   7.143  0.0848 -0.4465 -0.3748
  230MOL0     C30928   2.451   0.228   7.003 -0.2724 -0.6790  0.0320
  230MOL0     C30929   2.535   0.096   7.027  0.3557 -0.1478  0.5054
  230MOL0     C30930   2.564   0.024   6.890  1.2343  0.0474  0.2816
  230MOL0     C30931   2.577  -0.131   6.898  0.4374 -0.8694  0.2778
  230MOL0     N30932   2.707  -0.180   6.950  0.2128  0.2535 -0.3132
  230MOL0     C30933   2.719  -0.296   7.013  0.0025  0.4583 -0.7972
  230MOL0     C30934   2.833  -0.291   7.079  1.0953 -0.3661  0.0690
  230MOL0     C30935   2.891  -0.401   7.159 -0.3348 -0.1429 -0.1295
  230MOL0     C30936   2.961  -0.499   7.067 -0.1356 -1.2729  0.0907
  230MOL0     C30937   3.077  -0.433   6.976 -0.2050  0.5213  0.7023
  230MOL0     C30938   3.121  -0.536   6.868 -0.1056  0.2159  0.9165
  230MOL0     O30939   3.256  -0.503   6.816  0.4775 -0.2019 -0.2091
  230MOL0     C30940   3.315  -0.586   6.722 -0.0263 -0.4002 -0.8220
  230MOL0     C30941   3.238  -0.667   6.635 -0.2057 -0.2168  0.6753
  230MOL0     C30942   3.302  -0.738   6.523 -0.5641  1.1082 -0.4150
  230MOL0     C30943   3.443  -0.742   6.516  0.7434 -0.6882 -0.1506
  230MOL0     C30944   3.519  -0.831   6.423 -0.2874  0.4373  0.1432
  230MOL0     O30945   3.657  -0.829   6.439 -0.5152  0.0456  0.1250
  230MOL0     C30946   3.732  -0.895   6.343  0.0861 -0.8506 -0.4885
  230MOL0     C30947   3.712  -0.868   6.205  0.6925  0.6459  0.0889
  230MOL0     C30948   3.793  -0.941   6.116  0.1540 -0.4139 -0.4201
  230MOL0     C30949   3.898  -1.022   6.155  0.4612 -0.1803  0.1274
  230MOL0     O30950   3.974  -1.085   6.057 -0.0480  0.4014  0.3286
  230MOL0     C30951   4.090  -1.148   6.104 -0.4478 -0.0120 -0.0676
  230MOL0     C30952   4.180  -1.192   5.987 -0.1235  0.0447  0.1614
  230MOL0     C30953   4.316  -1.245   6.043 -0.5603  0.0016  0.8620
  230MOL0     C30954   4.291  -1.389   6.089  0.6400 -0.9054 -0.1380
  230MOL0     C30955   4.414  -1.462   6.116  0.0929 -0.2611 -0.6488
  230MOL0     C30956   4.473  -1.439   6.252  0.5279 -0.0992 -0.1389
  230MOL0     C30957   4.604  -1.519   6.264  0.4958 -0.5744 -0.5882
  230MOL0     C30958   4.712  -1.494   6.157 -0.3042 -0.7006 -0.1534
  230MOL0    Cl30959   4.811  -1.638   6.174  0.2920  0.2303 -0.1134
  230MOL0     C30960   3.923  -1.043   6.288 -0.0866 -0.6287  0.2959
  230MOL0     C30961   3.843  -0.972   6.379 -0.1614 -0.4816  0.0707
  230MOL0     O30962   3.453  -0.897   6.343  0.1196  0.4151  0.0728
  230MOL0     C30963   3.521  -0.663   6.599 -0.4174  0.6772  0.3243
  230MOL0     C30964   3.460  -0.583   6.702 -1.2106 -0.1531 -1.1456
  230MOL0     N30965   2.888  -0.172   7.056  0.6063 -0.2124  0.1615
  230MOL0     N30966   2.815  -0.100   6.974  0.1253  0.1953 -0.3666
  230MOL0     C30967   1.981   0.704   7.319  0.1949  0.1027 -0.1832
  230MOL0     C30968   1.859   0.768   7.354  0.3016 -0.2167  0.1893
  230MOL0     C30969   1.537   0.925   7.628  0.8854  0.3384  0.0758
  230MOL0     C30970   1.504   1.053   7.592  0.3368  0.1136 -0.7048
  230MOL0     C30971   1.377   1.100   7.614 -0.3648 -0.3945 -0.7192
  230MOL0     C30972   1.270   1.009   7.659 -0.2989  0.0586  0.3321
  230MOL0     O30973   1.137   1.039   7.652 -0.0464  0.5451  0.4908
  230MOL0     C30974   1.095   1.160   7.588 -0.0362  1.0260 -0.0363
  230MOL0     C30975   0.945   1.177   7.610 -0.2700  0.3100  0.0005
  230MOL0     C30976   0.899   1.316   7.548 -0.3231  0.7049 -0.5141
  230MOL0     C30977   0.841   1.295   7.407 -0.8126  0.1119  0.5640
  230MOL0     C30978   0.811   1.421   7.347  0.0093  0.4894 -0.0606
  230MOL0     C30979   0.807   1.530   7.289  0.4120 -0.5633  0.0181
  230MOL0     C30980   1.308   0.881   7.694  0.4304  0.0425  0.1877
  230MOL0     C30981   1.438   0.832   7.668 -0.8362  1.3712  0.0796
  230MOL0     C30982   1.468   0.692   7.713 -0.4014  0.0092  0.8380
  230MOL0     H30983   1.956   0.942   7.619 -2.3634 -0.9918  0.5131
  230MOL0     H30984   2.175   0.842   7.565  1.9347 -2.8424 -0.5204
  230MOL0     H30985   2.169   0.618   7.185 -1.1377  1.1152  0.7695
  230MOL0     H30986   2.342   0.689   7.203 -0.0493  2.8740  2.3599
  230MOL0     H30987   2.242   0.424   7.315  1.9813  1.6414  2.2266
  230MOL0     H30988   2.399   0.500   7.330  1.9523 -0.4162 -0.8728
  230MOL0     H30989   2.410   0.502   7.062 -0.3073 -0.2159 -2.0485
  230MOL0     H30990   2.255   0.414   7.071  0.6349 -2.2715  1.4658
  230MOL0     H30991   2.537   0.334   7.167 -0.2916  0.2968  0.3188
  230MOL0     H30992   2.401   0.227   7.214  0.2507 -1.8715 -1.7556
  230MOL0     H30993   2.352   0.214   6.957 -0.7917  5.0734 -1.3916
  230MOL0     H30994   2.497   0.301   6.935 -1.8388 -1.4781 -2.0102
  230MOL0     H30995   2.625   0.137   7.074 -0.9585  0.5212  2.5711
  230MOL0     H30996   2.485   0.024   7.092 -2.3774  1.9399  0.8867
  230MOL0     H30997   2.657   0.061   6.846  0.7464  0.9495 -0.0152
  230MOL0     H30998   2.478   0.047   6.826  2.6438 -1.9628 -2.5569
  230MOL0     H30999   2.492  -0.172   6.955  0.7415 -0.6686  0.8783
  230MOL0     H31000   2.570  -0.173   6.798  1.7092  0.7555 -0.5335
  230MOL0     H31001   2.644  -0.375   7.012 -0.5580  0.9876 -1.1192
  230MOL0     H31002   2.953  -0.366   7.242 -1.5569 -0.9282  1.1598
  230MOL0     H31003   2.810  -0.453   7.211 -0.8773 -0.1312 -0.9444
  230MOL0     H31004   2.990  -0.590   7.121 -2.3776 -0.9693  1.9609
  230MOL0     H31005   2.881  -0.529   6.999  1.9019 -3.8360 -1.3648
  230MOL0     H31006   3.165  -0.422   7.040 -1.9103 -2.5956  3.9729
  230MOL0     H31007   3.034  -0.349   6.922 -3.2367 -2.9209 -2.8679
  230MOL0     H31008   3.044  -0.532   6.790 -0.1419  1.5224  0.9985
  230MOL0     H31009   3.126  -0.639   6.905  1.7656  0.2775  0.9584
  230MOL0     H31010   3.130  -0.667   6.644 -0.8712 -0.0148 -4.5385
  230MOL0     H31011   3.227  -0.794   6.468  0.7318 -1.4278  0.2607
  230MOL0     H31012   3.634  -0.796   6.183 -2.1149 -1.5816  2.0115
  230MOL0     H31013   3.780  -0.943   6.008 -0.3655  0.2452 -0.3787
  230MOL0     H31014   4.147  -1.072   6.157 -0.4806 -1.2173  1.7900
  230MOL0     H31015   4.071  -1.231   6.172 -0.6447  0.1176  0.0356
  230MOL0     H31016   4.142  -1.262   5.913 -2.7417  0.2065  1.2556
  230MOL0     H31017   4.218  -1.098   5.945  1.2292  1.1851  3.5938
  230MOL0     H31018   4.392  -1.245   5.963 -1.3563  1.6271  0.0558
  230MOL0     H31019   4.353  -1.179   6.122  3.1462  3.0870 -2.8870
  230MOL0     H31020   4.233  -1.446   6.016  0.9402 -1.1997 -0.1496
  230MOL0     H31021   4.233  -1.390   6.181  2.5275  0.5579  1.1538
  230MOL0     H31022   4.472  -1.435   6.027  0.3032  1.7784  0.0650
  230MOL0     H31023   4.400  -1.571   6.106 -1.1490  0.0599 -3.3936
  230MOL0     H31024   4.493  -1.332   6.268 -0.7657  0.0420  0.7503
  230MOL0     H31025   4.395  -1.475   6.320  0.4052 -1.6604 -1.0626
  230MOL0     H31026   4.582  -1.625   6.280 -0.9565 -0.1009  0.8940
  230MOL0     H31027   4.650  -1.486   6.358  4.6420  0.6715 -2.7826
  230MOL0     H31028   4.681  -1.502   6.052  0.7026 -2.4050 -0.3405
  230MOL0     H31029   4.781  -1.409   6.162  0.1204 -0.7956 -2.9077
  230MOL0     H31030   4.005  -1.102   6.327  1.3162  2.1793  1.9618
  230MOL0     H31031   3.862  -0.972   6.486 -2.2108 -0.3472  0.4719
  230MOL0     H31032   3.629  -0.655   6.594  0.0371 -1.8770  2.9382
  230MOL0     H31033   3.529  -0.516   6.753 -0.5623 -1.2558 -0.5361
  230MOL0     H31034   1.980   0.639   7.232  0.0782 -0.1810  0.0254
  230MOL0     H31035   1.773   0.742   7.292  1.5835  0.1788 -1.8483
  230MOL0     H31036   1.578   1.124   7.557  1.9058 -0.0343  2.0277
  230MOL0     H31037   1.362   1.206   7.596  0.4845  0.1283  1.2821
  230MOL0     H31038   1.127   1.140   7.485  0.1474 -0.2177  0.2425
  230MOL0     H31039   1.151   1.250   7.613  1.4785  1.2812 -3.6382
  230MOL0     H31040   0.935   1.180   7.719  2.3711  3.7730  0.3475
  230MOL0     H31041   0.899   1.090   7.563 -0.6476 -0.1408  1.1771
  230MOL0     H31042   0.987   1.381   7.550  0.1120  0.1382  1.6478
  230MOL0     H31043   0.823   1.364   7.609 -0.3745  0.1946 -0.1752
  230MOL0     H31044   0.924   1.255   7.348  1.3344  1.2390  2.6371
  230MOL0     H31045   0.763   1.219   7.412 -0.6113 -0.0887  0.6839
  230MOL0     H31046   0.793   1.631   7.254  1.1292  0.0939  1.5440
  230MOL0     H31047   1.234   0.816   7.740  0.1527  0.8882  0.9762
  230MOL0     H31048   1.379   0.632   7.735 -1.0186 -0.5472 -2.6234
  230MOL0     H31049   1.518   0.648   7.627  0.4316  1.3912  0.5902
  230MOL0     H31050   1.537   0.693   7.798 -0.2151 -1.1497  0.7134
  231MOL0     O31051   0.271   5.071   6.138  0.0988  0.1755  0.1994
  231MOL0     C31052   0.205   4.968   6.121  0.2090  0.0093 -0.1592
  231MOL0     O31053   0.244   4.863   6.035  0.3808  0.0021 -0.2540
  231MOL0     C31054   0.359   4.871   5.970  0.1634  0.0343 -0.2467
  231MOL0     C31055   0.461   4.791   6.010 -0.8498  0.6957 -0.1582
  231MOL0     C31056   0.577   4.794   5.940  0.7847  0.1629  0.7923
  231MOL0     C31057   0.596   4.880   5.825  0.2202  0.6390  0.4071
  231MOL0     O31058   0.713   4.874   5.758 -0.9926 -0.1420 -0.7282
  231MOL0     C31059   0.719   4.800   5.634  1.0819  0.7144 -0.0979
  231MOL0     C31060   0.856   4.820   5.573  0.4304  0.5626  0.1129
  231MOL0     C31061   0.969   4.769   5.662  1.0956  0.3454 -0.7625
  231MOL0     C31062   0.978   4.616   5.698 -0.4150 -0.0815 -0.1970
  231MOL0     C31063   0.989   4.522   5.572 -0.4602 -0.4861  0.1858
  231MOL0     C31064   1.102   4.563   5.481 -0.1479  0.3348 -0.8935
  231MOL0     C31065   1.234   4.556   5.569 -0.7456  0.4789 -0.2854
  231MOL0     C31066   1.362   4.591   5.492  1.5881  1.1791  0.4633
  231MOL0     N31067   1.476   4.602   5.578 -0.0405 -0.5024 -0.9616
  231MOL0     C31068   1.516   4.722   5.631  0.2876  0.5444 -0.1918
  231MOL0     C31069   1.655   4.705   5.654  0.0423 -0.5447  0.1924
  231MOL0     C31070   1.766   4.790   5.715 -0.6812 -0.0367 -0.8704
  231MOL0     C31071   1.838   4.891   5.627  0.1055  1.0881  0.4387
  231MOL0     C31072   1.932   4.986   5.704  0.4143  1.2614 -0.2975
  231MOL0     C31073   2.052   4.907   5.754 -1.6368  0.0704  0.3291
  231MOL0     O31074   2.127   5.011   5.826  0.1335  0.1747  0.4389
  231MOL0     C31075   2.248   4.975   5.878  0.5152  0.0265  0.5283
  231MOL0     C31076   2.307   5.056   5.970  0.3434  0.0926  0.0708
  231MOL0     C31077   2.426   5.039   6.038 -1.0600 -0.0175  0.6873
  231MOL0     C31078   2.502   4.920   6.010 -0.0206 -0.4331 -1.0071
  231MOL0     C31079   2.632   4.893   6.076 -0.4394 -0.3063  0.0324
  231MOL0     O31080   2.680   4.768   6.057 -0.1073  0.0688 -0.3949
  231MOL0     C31081   2.806   4.746   6.113 -0.0804 -0.5058 -1.1346
  231MOL0     C31082   2.909   4.700   6.030 -0.4999 -0.6146  0.7103
  231MOL0     C31083   3.038   4.664   6.083 -0.1215  0.4362  0.1989
  231MOL0     C31084   3.059   4.680   6.222 -0.3486 -0.1315 -0.0921
  231MOL0     O31085   3.182   4.648   6.288  0.0762  0.3364 -0.6841
  231MOL0     C31086   3.258   4.546   6.234 -0.2613  0.0658  0.2571
  231MOL0     C31087   3.374   4.486   6.327  0.2494  0.1627  0.5072
  231MOL0     C31088   3.459   4.598   6.367 -0.0670  0.4128  0.3990
  231MOL0     C31089   3.577   4.566   6.461  0.4674 -1.0792 -0.1292
  231MOL0     C31090   3.680   4.462   6.419 -0.1424  0.2238  0.0935
  231MOL0     C31091   3.798   4.470   6.510 -0.2056 -0.2583 -0.2078
  231MOL0     C31092   3.908   4.365   6.484 -0.3757 -0.5620 -0.0593
  231MOL0     C31093   4.042   4.423   6.530  0.0128  0.2769  0.6010
  231MOL0    Cl31094   4.061   4.463   6.711 -0.1113 -0.1037  0.6640
  231MOL0     C31095   2.959   4.726   6.307  0.7233  0.4531 -0.0619
  231MOL0     C31096   2.830   4.751   6.249  0.2148 -0.1082 -0.5612
  231MOL0     O31097   2.686   4.986   6.132 -0.0035  0.1397  0.5537
  231MOL0     C31098   2.442   4.836   5.915 -0.1506  0.2258  0.9988
  231MOL0     C31099   2.319   4.861   5.854  0.9693  0.1056  0.5301
  231MOL0     N31100   1.681   4.576   5.639  0.6130 -0.4461 -0.8786
  231MOL0     N31101   1.584   4.513   5.576 -0.0800 -1.0319 -0.4173
  231MOL0     C31102   0.490   4.963   5.782  0.3768 -0.0779 -0.2137
  231MOL0     C31103   0.368   4.953   5.855  0.8577 -0.0424  0.8295
  231MOL0     C31104   0.092   4.933   6.208 -0.9562 -0.5532 -0.1828
  231MOL0     C31105   0.065   4.799   6.239  0.0552  0.4987  1.8232
  231MOL0     C31106  -0.037   4.756   6.320  1.3999 -0.2793 -0.0648
  231MOL0     C31107  -0.126   4.841   6.377 -0.3572  0.0755  0.0675
  231MOL0     O31108  -0.211   4.781   6.465  0.3440  0.1048  0.5618
  231MOL0     C31109  -0.322   4.857   6.513  0.7440 -0.0788 -0.2069
  231MOL0     C31110  -0.426   4.874   6.414  1.2998 -0.0909  0.3373
  231MOL0     C31111  -0.535   4.762   6.406  0.5574 -0.0419  0.1705
  231MOL0     C31112  -0.478   4.644   6.327 -0.3629 -0.3076 -0.2711
  231MOL0     C31113  -0.570   4.533   6.304 -0.4777 -0.6061  0.0898
  231MOL0     C31114  -0.648   4.442   6.305 -0.3672  0.1262 -0.0353
  231MOL0     C31115  -0.096   4.979   6.353 -0.4947 -0.3213  0.1760
  231MOL0     C31116   0.008   5.024   6.276 -0.3051  0.1186 -1.1652
  231MOL0     C31117   0.026   5.171   6.276 -0.0095  0.5964 -0.2884
  231MOL0     H31118   0.450   4.717   6.088  1.1887  1.3961  0.8649
  231MOL0     H31119   0.656   4.724   5.963 -1.3298 -2.1104  1.5153
  231MOL0     H31120   0.698   4.695   5.654 -1.0766  1.4807  2.0905
  231MOL0     H31121   0.640   4.843   5.573  0.2744  2.0023  1.7543
  231MOL0     H31122   0.859   4.928   5.559  0.4902  0.9302  2.5490
  231MOL0     H31123   0.873   4.778   5.474 -0.5534  3.4097 -1.3780
  231MOL0     H31124   0.954   4.823   5.756 -0.2935 -2.3028  0.6569
  231MOL0     H31125   1.068   4.791   5.621  0.6629  2.6877 -0.6977
  231MOL0     H31126   1.064   4.590   5.761  0.1644 -0.4102 -1.1135
  231MOL0     H31127   0.889   4.582   5.753 -1.8080  1.3861 -1.4595
  231MOL0     H31128   1.008   4.419   5.603 -0.1098 -0.1990  0.9484
  231MOL0     H31129   0.894   4.518   5.517 -0.2557 -3.3915 -0.1053
  231MOL0     H31130   1.114   4.485   5.404  0.2482 -0.3794 -0.1254
  231MOL0     H31131   1.089   4.661   5.435 -0.7699 -0.0248 -1.5057
  231MOL0     H31132   1.262   4.459   5.611 -0.3003  0.8360  0.2671
  231MOL0     H31133   1.228   4.640   5.639  2.3523  1.6978 -1.3073
  231MOL0     H31134   1.396   4.516   5.420  4.0762  2.0721  0.6206
  231MOL0     H31135   1.353   4.688   5.444  0.2512  1.4671  1.2410
  231MOL0     H31136   1.450   4.807   5.641  1.1181  1.0876  0.8444
  231MOL0     H31137   1.716   4.845   5.795  0.1782 -1.6744  0.8955
  231MOL0     H31138   1.828   4.723   5.776 -2.0372 -0.3984  0.1652
  231MOL0     H31139   1.896   4.841   5.549 -0.8207 -2.1900  1.7060
  231MOL0     H31140   1.758   4.943   5.573 -1.8272 -1.9897  0.1096
  231MOL0     H31141   1.873   5.033   5.783  1.5005 -0.1468  1.4068
  231MOL0     H31142   1.958   5.065   5.632  4.1221 -0.6936 -1.3486
  231MOL0     H31143   2.093   4.860   5.664 -1.3659 -1.0274  1.0042
  231MOL0     H31144   2.028   4.824   5.821 -0.7384 -0.7333 -0.3138
  231MOL0     H31145   2.251   5.148   5.981 -1.7712 -1.3550  2.6808
  231MOL0     H31146   2.467   5.113   6.105  1.3963  0.2668 -1.0084
  231MOL0     H31147   2.884   4.700   5.925 -2.3042 -0.5077  1.1193
  231MOL0     H31148   3.122   4.641   6.017 -1.2965  0.3524 -1.3399
  231MOL0     H31149   3.193   4.463   6.206  1.8652 -2.2915  1.8256
  231MOL0     H31150   3.305   4.585   6.143 -2.5088  0.9936 -0.5951
  231MOL0     H31151   3.322   4.446   6.415  0.0245  2.5302  1.5213
  231MOL0     H31152   3.437   4.406   6.288  0.4565 -0.3144  1.7781
  231MOL0     H31153   3.500   4.651   6.281  1.4174 -0.6833  0.4099
  231MOL0     H31154   3.409   4.674   6.429  1.6075  0.3493  1.8891
  231MOL0     H31155   3.541   4.536   6.560  2.1126 -0.0067  0.8404
  231MOL0     H31156   3.624   4.663   6.478  0.7749 -1.2755  0.1493
  231MOL0     H31157   3.709   4.492   6.318  1.4114  3.2934  1.3307
  231MOL0     H31158   3.632   4.364   6.430  0.5543  0.0105  1.3790
  231MOL0     H31159   3.843   4.568   6.487  0.6320 -0.7272 -0.6234
  231MOL0     H31160   3.762   4.471   6.613 -0.0180  0.3705 -0.1426
  231MOL0     H31161   3.913   4.337   6.379 -2.2691  1.0194 -0.6136
  231MOL0     H31162   3.896   4.267   6.531  1.2710 -1.4980 -1.4547
  231MOL0     H31163   4.120   4.348   6.516  0.0471 -0.3451  3.3758
  231MOL0     H31164   4.070   4.513   6.475 -1.1586  0.6405  0.5856
  231MOL0     H31165   2.974   4.731   6.415 -1.3044 -1.4109  0.3889
  231MOL0     H31166   2.752   4.783   6.318 -0.5029 -3.3989  0.3162
  231MOL0     H31167   2.491   4.740   5.902 -1.9564 -0.8412  1.7414
  231MOL0     H31168   2.278   4.791   5.781 -0.2382  1.7665 -0.4577
  231MOL0     H31169   0.497   5.040   5.706  2.9029  1.2865  1.2501
  231MOL0     H31170   0.281   5.008   5.821  0.3359 -1.3589 -0.0627
  231MOL0     H31171   0.133   4.723   6.200 -1.6852 -1.4756  2.4048
  231MOL0     H31172  -0.051   4.650   6.335  0.3830 -0.2659 -0.8206
  231MOL0     H31173  -0.279   4.951   6.546  0.7890  0.5885 -2.0435
  231MOL0     H31174  -0.358   4.797   6.598 -0.7249 -1.3592 -1.6659
  231MOL0     H31175  -0.382   4.909   6.319  0.1210 -0.5203 -0.3872
  231MOL0     H31176  -0.495   4.955   6.440 -0.4020 -1.6198  0.7427
  231MOL0     H31177  -0.620   4.808   6.355  0.8313 -3.4628 -3.9493
  231MOL0     H31178  -0.574   4.740   6.506  1.9120 -0.4864  0.6216
  231MOL0     H31179  -0.449   4.679   6.227 -1.7536  0.6288 -0.3869
  231MOL0     H31180  -0.389   4.605   6.377 -0.9155 -3.2061 -1.3290
  231MOL0     H31181  -0.709   4.354   6.308  1.3628 -1.2140 -1.6321
  231MOL0     H31182  -0.162   5.048   6.405 -0.7099 -1.3605  1.3468
  231MOL0     H31183   0.128   5.194   6.309  0.0223 -0.0106  0.0509
  231MOL0     H31184   0.007   5.191   6.170  0.8617 -0.4375 -0.6643
  231MOL0     H31185  -0.033   5.234   6.343  0.2088  1.4123 -0.8490
  232MOL0     O31186   8.221   9.726   8.139 -0.2264  0.5003  0.0796
  232MOL0     C31187   8.138   9.747   8.222 -0.9676 -0.4703 -0.3039
  232MOL0     O31188   8.159   9.715   8.356 -0.3992 -0.0978 -0.7474
  232MOL0     C31189   8.288   9.683   8.398  0.3974 -0.1969  0.3566
  232MOL0     C31190   8.363   9.783   8.451 -0.4278  0.5988 -0.0169
  232MOL0     C31191   8.493   9.755   8.491  0.3519 -0.1222  0.2316
  232MOL0     C31192   8.540   9.622   8.460  0.7807  0.2641  0.0922
  232MOL0     O31193   8.668   9.580   8.475 -0.0664  0.7082 -0.0395
  232MOL0     C31194   8.774   9.675   8.486 -0.3126  0.0121 -0.3171
  232MOL0     C31195   8.905   9.610   8.523  0.1879  0.6047  0.0575
  232MOL0     C31196   9.017   9.706   8.516  0.6371 -0.3363  0.0465
  232MOL0     C31197   9.143   9.636   8.578 -0.0710 -0.0195  0.9652
  232MOL0     C31198   9.266   9.705   8.527 -0.3275  0.1585 -0.3842
  232MOL0     C31199   9.386   9.634   8.584  0.5889  0.2480  0.1296
  232MOL0     C31200   9.375   9.614   8.740 -0.8289  0.0653 -0.7152
  232MOL0     C31201   9.494   9.539   8.803  0.7271 -0.8543  0.3823
  232MOL0     N31202   9.479   9.523   8.946  0.4072  0.6696  0.3097
  232MOL0     C31203   9.384   9.437   9.009  0.0540  0.4234 -0.9215
  232MOL0     C31204   9.406   9.461   9.143  0.1272  0.2842  0.3815
  232MOL0     C31205   9.338   9.385   9.252  0.4905  0.1710  0.4054
  232MOL0     C31206   9.200   9.457   9.273  0.6177 -0.0456  0.4953
  232MOL0     C31207   9.148   9.438   9.419 -0.8898  0.5121  0.6118
  232MOL0     C31208   9.027   9.527   9.457 -0.0615  0.1792  0.6632
  232MOL0     O31209   8.915   9.501   9.364 -0.4638  0.5152  0.5241
  232MOL0     C31210   8.787   9.551   9.392 -0.5915 -0.5561 -0.4558
  232MOL0     C31211   8.761   9.628   9.507  0.3683 -0.0059 -0.6939
  232MOL0     C31212   8.635   9.682   9.529  0.5614 -0.0076 -0.1804
  232MOL0     C31213   8.539   9.675   9.430 -0.5679 -0.8955  0.3372
  232MOL0     C31214   8.404   9.741   9.450  0.5554  0.2410 -0.4425
  232MOL0     O31215   8.308   9.691   9.370 -0.0767 -0.3567 -0.1353
  232MOL0     C31216   8.186   9.749   9.369  0.5467  0.0180  0.2207
  232MOL0     C31217   8.080   9.665   9.344 -0.5510  0.6775  0.1794
  232MOL0     C31218   7.948   9.714   9.325 -0.2974 -0.1272 -0.1483
  232MOL0     C31219   7.914   9.850   9.337 -0.2192 -0.0564  0.3424
  232MOL0     O31220   7.782   9.882   9.321 -0.3323 -0.6170 -0.5485
  232MOL0     C31221   7.719   9.972   9.424  0.1179  0.1537  0.5329
  232MOL0     C31222   7.572   9.969   9.406  0.5900  0.1110 -0.2790
  232MOL0     C31223   7.501   9.842   9.454  0.0279  0.0719 -1.1177
  232MOL0     C31224   7.483   9.813   9.609 -0.2437 -0.7372 -0.7050
  232MOL0     C31225   7.574   9.706   9.652  0.4717 -0.2659 -0.4532
  232MOL0     C31226   7.560   9.674   9.802  0.5991 -0.0762  0.3680
  232MOL0     C31227   7.428   9.620   9.848  0.1774 -0.5643 -0.2464
  232MOL0     C31228   7.412   9.591  10.002 -0.4423  0.3829  0.3059
  232MOL0    Cl31229   7.236   9.628  10.042  0.4599  0.0374 -0.0947
  232MOL0     C31230   8.018   9.933   9.386  0.9334 -0.3765 -0.1955
  232MOL0     C31231   8.147   9.886   9.389 -0.7919  0.7498 -0.4285
  232MOL0     O31232   8.391   9.825   9.536 -0.7181  0.4990  0.3124
  232MOL0     C31233   8.567   9.599   9.313  0.4297  0.3667 -0.2574
  232MOL0     C31234   8.684   9.536   9.296 -0.8452  0.2049  0.7046
  232MOL0     N31235   9.517   9.549   9.160  0.5472  0.2099  0.7928
  232MOL0     N31236   9.548   9.596   9.044  0.2613 -0.5284  0.1202
  232MOL0     C31237   8.450   9.520   8.420 -0.0676 -0.4024  0.8135
  232MOL0     C31238   8.322   9.548   8.381  0.4112 -0.2861  0.1412
  232MOL0     C31239   8.000   9.792   8.186 -0.4270 -0.7499 -0.1532
  232MOL0     C31240   7.889   9.744   8.261 -0.8401  0.9620 -0.3695
  232MOL0     C31241   7.762   9.780   8.228 -0.2310  1.1810 -0.3244
  232MOL0     C31242   7.732   9.882   8.138 -0.0481  0.3298  0.8219
  232MOL0     O31243   7.597   9.918   8.123 -0.2182 -0.4095 -0.2734
  232MOL0     C31244   7.564  10.011   8.012 -0.4193 -0.2019 -1.0256
  232MOL0     C31245   7.414  10.019   7.990 -0.0665  0.2303  0.0109
  232MOL0     C31246   7.344  10.108   8.083  0.2557  0.2125  0.4310
  232MOL0     C31247   7.335  10.047   8.223 -1.2296 -0.1566  0.1672
  232MOL0     C31248   7.245  10.128   8.305 -0.4728  0.1150  0.3903
  232MOL0     C31249   7.157  10.198   8.361  0.3049 -0.8424  0.5216
  232MOL0     C31250   7.843   9.921   8.054 -0.0733 -0.6740 -0.6490
  232MOL0     C31251   7.975   9.883   8.087 -0.2424  0.2334  0.6236
  232MOL0     C31252   8.086   9.932   7.998  0.2818 -0.9043 -0.2086
  232MOL0     H31253   8.317   9.881   8.458 -1.7350  0.1636 -1.7313
  232MOL0     H31254   8.562   9.830   8.529  0.0853  0.4264 -0.3522
  232MOL0     H31255   8.790   9.738   8.397  2.1546 -1.6181 -1.1245
  232MOL0     H31256   8.754   9.729   8.579  0.1249  0.8501 -0.6904
  232MOL0     H31257   8.917   9.512   8.475 -1.8200 -0.7758  2.1448
  232MOL0     H31258   8.895   9.574   8.626 -2.8007  0.5425 -0.1491
  232MOL0     H31259   8.999   9.797   8.575  1.7140  2.1556 -3.1905
  232MOL0     H31260   9.021   9.737   8.411  0.0965  2.3070  0.7129
  232MOL0     H31261   9.138   9.639   8.687  2.9120 -5.1532  1.5736
  232MOL0     H31262   9.146   9.532   8.543  0.2624  0.5968 -1.0094
  232MOL0     H31263   9.262   9.701   8.418  0.7060  2.3289 -0.5592
  232MOL0     H31264   9.263   9.811   8.553 -1.6564 -0.1269  0.7463
  232MOL0     H31265   9.411   9.540   8.533 -1.1150  0.3733 -1.0058
  232MOL0     H31266   9.474   9.695   8.562  0.7257  0.2795  0.7347
  232MOL0     H31267   9.284   9.560   8.765 -1.6034  1.6220 -0.0489
  232MOL0     H31268   9.373   9.707   8.798  0.9952 -1.8874  2.8828
  232MOL0     H31269   9.498   9.439   8.760  1.4281  0.0542 -1.7728
  232MOL0     H31270   9.584   9.597   8.782  0.4635 -0.6362 -0.1371
  232MOL0     H31271   9.310   9.368   8.970 -0.9321  1.6001 -1.1916
  232MOL0     H31272   9.304   9.286   9.221  0.5841  0.4791 -0.6952
  232MOL0     H31273   9.405   9.383   9.339 -2.6059 -0.0279  2.9543
  232MOL0     H31274   9.214   9.565   9.271  1.6075 -0.1000  2.3292
  232MOL0     H31275   9.121   9.440   9.198 -0.5460 -0.1287  1.7002
  232MOL0     H31276   9.228   9.449   9.492  0.3288 -1.0450 -0.4137
  232MOL0     H31277   9.115   9.333   9.420  1.2541 -0.1985  1.5484
  232MOL0     H31278   9.065   9.629   9.450 -3.3106  1.5899  1.7105
  232MOL0     H31279   8.997   9.533   9.563 -0.4055  1.8935  0.4833
  232MOL0     H31280   8.826   9.640   9.593 -0.5089  1.2091 -0.1690
  232MOL0     H31281   8.605   9.728   9.623 -1.2333  0.3021 -0.8676
  232MOL0     H31282   8.114   9.562   9.340  0.5472  1.0143  0.4675
  232MOL0     H31283   7.861   9.649   9.319 -1.2806  1.0927  0.6121
  232MOL0     H31284   7.743   9.948   9.527  0.7851 -0.4356  0.2487
  232MOL0     H31285   7.748  10.073   9.393 -3.9856  1.4133  0.2345
  232MOL0     H31286   7.525  10.059   9.449  1.1029  1.1879 -1.8870
  232MOL0     H31287   7.560   9.968   9.297  0.4455  1.0708 -0.2829
  232MOL0     H31288   7.402   9.858   9.409 -0.0369  0.3888 -0.8645
  232MOL0     H31289   7.551   9.756   9.408  0.2961 -2.0912  2.8023
  232MOL0     H31290   7.379   9.790   9.634 -0.1123 -1.3350 -0.7017
  232MOL0     H31291   7.505   9.900   9.671  1.1965 -1.8678  0.4467
  232MOL0     H31292   7.672   9.750   9.628 -0.2628  0.3445 -2.5041
  232MOL0     H31293   7.557   9.615   9.595  1.1183  0.1109 -1.2807
  232MOL0     H31294   7.641   9.604   9.827  0.7120 -0.6730 -1.4978
  232MOL0     H31295   7.571   9.760   9.868 -0.0985  1.0156 -0.8967
  232MOL0     H31296   7.411   9.527   9.794 -0.8466  0.8701 -2.5692
  232MOL0     H31297   7.350   9.692   9.821 -1.3024 -2.0990 -0.1885
  232MOL0     H31298   7.425   9.483  10.016  1.5286  0.6114  0.6395
  232MOL0     H31299   7.484   9.645  10.066  2.3834 -1.6213 -0.9527
  232MOL0     H31300   7.995  10.038   9.404  0.2095 -0.6547  0.5681
  232MOL0     H31301   8.228   9.954   9.413  1.8545 -2.5023  0.6988
  232MOL0     H31302   8.490   9.583   9.238  0.5358 -2.2962  0.1271
  232MOL0     H31303   8.686   9.462   9.217 -0.6796  0.6580  0.2829
  232MOL0     H31304   8.489   9.419   8.418  1.3410  0.0589  2.2127
  232MOL0     H31305   8.260   9.479   8.326  3.0119 -1.9914 -0.8429
  232MOL0     H31306   7.911   9.680   8.346  0.3658  1.2198 -0.4672
  232MOL0     H31307   7.686   9.726   8.284  2.6314  0.0683  2.8623
  232MOL0     H31308   7.601   9.979   7.914 -1.9950  1.0568 -2.0882
  232MOL0     H31309   7.610  10.106   8.040  1.1737 -2.1585  4.0702
  232MOL0     H31310   7.370   9.919   7.989  2.0890 -0.7927  0.6148
  232MOL0     H31311   7.408  10.058   7.888 -1.0480  1.1945  0.4159
  232MOL0     H31312   7.245  10.126   8.038  0.3532  0.5955  0.3606
  232MOL0     H31313   7.396  10.204   8.094 -0.7824  1.2287 -2.5042
  232MOL0     H31314   7.296   9.944   8.228 -2.5047  0.2825 -0.2794
  232MOL0     H31315   7.435  10.035   8.266 -1.0162  2.0745  0.3937
  232MOL0     H31316   7.083  10.268   8.393 -0.4146 -0.6521 -1.3862
  232MOL0     H31317   7.830   9.992   7.972  1.0157 -1.5989 -1.6542
  232MOL0     H31318   8.039  10.000   7.926 -2.6518 -3.8487 -1.3400
  232MOL0     H31319   8.164   9.991   8.046 -0.4977  0.7814 -0.9137
  232MOL0     H31320   8.124   9.851   7.936 -2.1717 -0.5230 -2.4242
  233MOL0     O31321   5.239   2.547   9.932  0.4929 -0.2073 -0.1509
  233MOL0     C31322   5.201   2.594  10.042 -0.3955 -1.2262  0.4468
  233MOL0     O31323   5.275   2.684  10.105  0.7612 -0.5819 -0.6280
  233MOL0     C31324   5.398   2.735  10.052 -0.2944 -0.3986 -0.3545
  233MOL0     C31325   5.394   2.830   9.958 -0.3949 -0.2278  0.8325
  233MOL0     C31326   5.510   2.857   9.888  0.2173 -0.0427  0.2737
  233MOL0     C31327   5.634   2.802   9.923 -0.0735  0.3438 -0.2919
  233MOL0     O31328   5.758   2.819   9.867 -0.3086  0.5010 -0.3023
  233MOL0     C31329   5.746   2.808   9.726  0.1332 -0.4532 -0.1753
  233MOL0     C31330   5.878   2.840   9.663 -0.2386 -0.2876  0.7069
  233MOL0     C31331   5.916   2.994   9.671  0.3855 -0.0705 -0.0639
  233MOL0     C31332   6.052   3.032   9.603  0.2262  0.2601 -0.0309
  233MOL0     C31333   6.078   3.184   9.629  0.2749  0.0165 -0.9270
  233MOL0     C31334   6.212   3.227   9.567 -0.2387 -0.9073 -0.4853
  233MOL0     C31335   6.232   3.376   9.593 -0.6050 -0.4884  0.2394
  233MOL0     C31336   6.371   3.430   9.554 -0.3231 -0.2955 -0.0354
  233MOL0     N31337   6.402   3.575   9.592  0.6073 -0.3790 -0.2403
  233MOL0     C31338   6.366   3.684   9.519  0.0947  0.3365  0.1442
  233MOL0     C31339   6.443   3.784   9.569 -0.7376 -0.0955 -0.3136
  233MOL0     C31340   6.440   3.927   9.512  0.5209  0.1307 -0.3707
  233MOL0     C31341   6.541   4.027   9.580  0.2724  0.1051  0.6874
  233MOL0     C31342   6.678   4.021   9.523 -0.2300  0.8758  0.3007
  233MOL0     C31343   6.779   4.074   9.631  0.6791  0.0241  0.8642
  233MOL0     O31344   6.912   4.069   9.577  0.3464  0.1426 -0.1147
  233MOL0     C31345   7.023   4.108   9.648  0.5637  0.1147 -0.2591
  233MOL0     C31346   7.153   4.120   9.596  0.7412  0.3888  0.2423
  233MOL0     C31347   7.253   4.185   9.672 -0.4267 -0.1073 -0.0079
  233MOL0     C31348   7.227   4.239   9.797  0.3640  0.2400 -0.9306
  233MOL0     C31349   7.332   4.296   9.882 -0.7866 -1.1311 -0.8572
  233MOL0     O31350   7.450   4.339   9.819  0.0783  0.4869  0.5052
  233MOL0     C31351   7.560   4.375   9.893  0.2613  0.1757 -0.3104
  233MOL0     C31352   7.610   4.508   9.880  0.6846  0.1247  0.4322
  233MOL0     C31353   7.708   4.557   9.964  0.1630  0.6102 -0.4583
  233MOL0     C31354   7.764   4.472  10.063 -1.1100 -0.4752  0.5280
  233MOL0     O31355   7.869   4.525  10.140 -0.0434 -0.3974  0.7740
  233MOL0     C31356   7.949   4.449  10.230  0.5007 -0.0321  0.0178
  233MOL0     C31357   8.060   4.528  10.296 -0.2538  0.2882 -0.1049
  233MOL0     C31358   8.117   4.442  10.405 -0.4789 -0.0937 -0.3143
  233MOL0     C31359   8.244   4.498  10.470  0.1084 -0.0152  0.0296
  233MOL0     C31360   8.202   4.598  10.584 -0.8255 -0.7338  0.2378
  233MOL0     C31361   8.318   4.671  10.644 -0.7367 -0.4594 -0.5464
  233MOL0     C31362   8.282   4.754  10.765  0.0436 -0.2833  0.1775
  233MOL0     C31363   8.398   4.845  10.810  0.9079  0.5032 -0.3222
  233MOL0    Cl31364   8.530   4.740  10.858  0.1379  0.0439  0.2425
  233MOL0     C31365   7.728   4.339  10.067 -0.5467 -0.7283  0.1643
  233MOL0     C31366   7.625   4.289   9.984 -0.2718  0.6263  0.6143
  233MOL0     O31367   7.304   4.303  10.002  0.7838 -0.0052  0.6506
  233MOL0     C31368   7.095   4.211   9.858 -1.1923  0.9032  0.0481
  233MOL0     C31369   7.004   4.155   9.780  0.6203  0.5314 -0.9302
  233MOL0     N31370   6.517   3.738   9.680 -0.6656  0.0402  0.2630
  233MOL0     N31371   6.489   3.615   9.692  0.0207  0.7579 -0.0848
  233MOL0     C31372   5.637   2.716  10.034 -0.6057 -0.1520 -0.1991
  233MOL0     C31373   5.522   2.675  10.097 -0.0050  0.0323 -0.2121
  233MOL0     C31374   5.069   2.557  10.090 -0.1173  0.9374  0.1618
  233MOL0     C31375   4.995   2.465  10.020  0.0203  0.1069  0.3919
  233MOL0     C31376   4.865   2.429  10.055  0.2726  0.1034  0.0395
  233MOL0     C31377   4.802   2.478  10.165  0.1345  0.2599 -0.3777
  233MOL0     O31378   4.673   2.434  10.205 -0.4996 -0.4236 -0.0012
  233MOL0     C31379   4.608   2.339  10.124 -0.2115 -0.4585 -0.0272
  233MOL0     C31380   4.464   2.304  10.178 -0.7632  0.8133  0.3182
  233MOL0     C31381   4.480   2.213  10.300 -0.0156  0.4295 -0.4902
  233MOL0     C31382   4.348   2.180  10.369 -0.8882 -0.6241  0.9983
  233MOL0     C31383   4.273   2.083  10.303  0.5542 -0.1604  0.1604
  233MOL0     C31384   4.201   1.994  10.253 -0.0002  0.1221 -0.3078
  233MOL0     C31385   4.874   2.584  10.234  0.4820 -0.3715 -0.4835
  233MOL0     C31386   5.005   2.617  10.200 -0.6777 -0.3417 -1.1334
  233MOL0     C31387   5.064   2.722  10.301 -0.2437 -0.0508  0.3688
  233MOL0     H31388   5.302   2.877   9.926 -0.7914 -1.6918 -0.2981
  233MOL0     H31389   5.510   2.935   9.813  2.2861  2.3920  2.6038
  233MOL0     H31390   5.712   2.708   9.698  1.6363 -1.4254  1.3046
  233MOL0     H31391   5.675   2.882   9.687  1.5599 -0.3515 -2.7579
  233MOL0     H31392   5.864   2.806   9.560  1.2736 -3.3443  1.3905
  233MOL0     H31393   5.960   2.782   9.706  1.4204 -0.7669 -2.7683
  233MOL0     H31394   5.912   3.020   9.777  0.8084  1.0658 -0.3131
  233MOL0     H31395   5.841   3.055   9.622 -2.4192 -1.8902  1.6679
  233MOL0     H31396   6.130   2.967   9.643 -0.4145  0.3059  1.3450
  233MOL0     H31397   6.048   3.016   9.495 -0.0601 -0.5232  0.0872
  233MOL0     H31398   6.001   3.244   9.578 -2.7352 -2.6819  0.0558
  233MOL0     H31399   6.091   3.206   9.735  4.2914 -3.0063 -0.5666
  233MOL0     H31400   6.295   3.169   9.611  0.4704  0.6978  0.3724
  233MOL0     H31401   6.217   3.220   9.458 -3.7051  0.3286 -0.8211
  233MOL0     H31402   6.224   3.398   9.700  1.6927  1.0156  0.1705
  233MOL0     H31403   6.157   3.445   9.554  0.6671  0.6622 -0.2338
  233MOL0     H31404   6.449   3.369   9.600  1.7351  0.6570 -2.0812
  233MOL0     H31405   6.391   3.416   9.447 -0.6257 -2.1289  0.1132
  233MOL0     H31406   6.298   3.688   9.435  0.6051  1.2402 -0.2467
  233MOL0     H31407   6.456   3.928   9.404  3.7546  2.6174 -0.0354
  233MOL0     H31408   6.340   3.966   9.533  0.5500 -0.0552  0.1251
  233MOL0     H31409   6.496   4.127   9.573 -0.9088 -0.4422  0.1314
  233MOL0     H31410   6.546   3.992   9.683  0.7959  1.4749  1.1546
  233MOL0     H31411   6.689   4.082   9.433 -1.9794  0.6092 -0.1139
  233MOL0     H31412   6.700   3.918   9.495  0.3963  1.5033 -1.7360
  233MOL0     H31413   6.775   4.009   9.719 -0.9706 -0.5422  0.3973
  233MOL0     H31414   6.757   4.179   9.654 -3.2566 -0.5458  0.3460
  233MOL0     H31415   7.161   4.086   9.494  0.1311 -1.0950  0.6643
  233MOL0     H31416   7.352   4.207   9.634  0.4746  0.4287  2.4430
  233MOL0     H31417   7.560   4.570   9.807 -0.0030  1.6472  2.1165
  233MOL0     H31418   7.743   4.659   9.980  0.6448  0.1881  1.4342
  233MOL0     H31419   7.890   4.392  10.302  0.9755 -1.2698 -0.5429
  233MOL0     H31420   7.999   4.371  10.173  3.2255 -1.3078  3.6923
  233MOL0     H31421   8.140   4.560  10.229  0.7388  0.0158  0.9316
  233MOL0     H31422   8.015   4.620  10.334 -0.5545 -0.2306  0.8265
  233MOL0     H31423   8.044   4.438  10.486  2.0644  1.0195  2.1930
  233MOL0     H31424   8.130   4.339  10.369  0.2251 -1.0171  2.3559
  233MOL0     H31425   8.314   4.536  10.395  0.4854 -0.3605  0.2055
  233MOL0     H31426   8.291   4.410  10.515  0.3527 -0.3574 -0.8786
  233MOL0     H31427   8.149   4.547  10.665 -0.0128  3.0483  3.4862
  233MOL0     H31428   8.139   4.678  10.544  2.5426  1.0378 -1.9793
  233MOL0     H31429   8.395   4.596  10.664 -0.0606 -0.3710 -2.5920
  233MOL0     H31430   8.358   4.740  10.570  0.4789 -0.9953 -0.3973
  233MOL0     H31431   8.251   4.694  10.850 -1.2768  2.0145  1.4059
  233MOL0     H31432   8.206   4.825  10.732 -1.3672 -1.0670  1.6264
  233MOL0     H31433   8.438   4.904  10.727 -2.5430  3.4350 -0.1364
  233MOL0     H31434   8.374   4.917  10.888  3.2589  2.9381 -1.6645
  233MOL0     H31435   7.775   4.277  10.143 -1.8433  1.4011  2.8808
  233MOL0     H31436   7.591   4.187  10.000 -1.3205  0.4672 -2.0945
  233MOL0     H31437   7.066   4.225   9.962 -2.6601 -2.1537  0.1424
  233MOL0     H31438   6.912   4.145   9.836  1.3768 -2.5838 -0.0635
  233MOL0     H31439   5.731   2.676  10.070 -0.6296  3.1120  4.3705
  233MOL0     H31440   5.538   2.606  10.180  3.8198  0.5438 -0.3048
  233MOL0     H31441   5.043   2.412   9.937  1.2069  0.5348  0.7764
  233MOL0     H31442   4.812   2.358   9.993 -0.2374 -0.0667  0.6570
  233MOL0     H31443   4.673   2.251  10.121  0.8339  0.2656  0.4370
  233MOL0     H31444   4.590   2.367  10.020  1.5856 -0.7364 -0.4548
  233MOL0     H31445   4.415   2.244  10.101  2.2613  0.6764 -1.6541
  233MOL0     H31446   4.396   2.389  10.188 -1.8459  0.0359 -0.2089
  233MOL0     H31447   4.557   2.250  10.368  1.4499 -1.0461 -1.2802
  233MOL0     H31448   4.529   2.123  10.261  1.7408  1.9212 -1.9371
  233MOL0     H31449   4.385   2.156  10.469 -1.6423 -2.9000  0.7838
  233MOL0     H31450   4.289   2.270  10.390 -1.3789 -0.4443 -0.8990
  233MOL0     H31451   4.137   1.918  10.212 -1.7505  0.2932  1.9045
  233MOL0     H31452   4.820   2.626  10.318  0.4726 -0.7684 -0.2910
  233MOL0     H31453   5.109   2.801  10.241  1.7386 -1.5588 -0.2145
  233MOL0     H31454   4.995   2.764  10.375 -1.1559 -0.2345 -0.3544
  233MOL0     H31455   5.147   2.683  10.360  1.3599  0.2583 -1.5943
  234MOL0     O31456   6.102   0.486   8.440 -0.0748  0.1477  0.5505
  234MOL0     C31457   6.069   0.604   8.420 -1.0220  0.3944  1.4275
  234MOL0     O31458   6.154   0.701   8.388 -0.5955  0.1454  0.1062
  234MOL0     C31459   6.290   0.695   8.368 -0.0671  0.5270  0.5719
  234MOL0     C31460   6.375   0.591   8.403 -0.3785  0.1317 -0.3433
  234MOL0     C31461   6.510   0.598   8.404  0.1535  0.2081  0.3659
  234MOL0     C31462   6.572   0.715   8.360 -0.5339  0.6598 -0.7817
  234MOL0     O31463   6.709   0.722   8.390  1.1515  0.6440  0.3445
  234MOL0     C31464   6.801   0.707   8.281  0.4897 -0.2958 -0.0022
  234MOL0     C31465   6.809   0.573   8.217 -0.2181  0.2107  0.3975
  234MOL0     C31466   6.902   0.474   8.298  0.1053  0.4095 -0.0151
  234MOL0     C31467   6.952   0.359   8.218  0.0232  0.0723  0.0717
  234MOL0     C31468   7.037   0.261   8.307 -0.2930 -1.8311 -0.1787
  234MOL0     C31469   7.080   0.134   8.228 -0.3774  0.1577 -1.0183
  234MOL0     C31470   7.136   0.020   8.319 -0.2889 -0.4731  0.4926
  234MOL0     C31471   7.058  -0.018   8.440 -0.2039  0.3431  0.3494
  234MOL0     N31472   7.121  -0.130   8.508 -0.2353 -0.6698 -0.0076
  234MOL0     C31473   7.253  -0.121   8.555 -0.3751  0.2181 -0.2878
  234MOL0     C31474   7.253  -0.225   8.644  0.5187  0.3092 -0.1995
  234MOL0     C31475   7.365  -0.258   8.736 -0.2796 -0.4250 -0.3380
  234MOL0     C31476   7.495  -0.280   8.658 -0.3333  1.1642 -0.1080
  234MOL0     C31477   7.612  -0.295   8.771 -0.8047 -0.0725 -0.2495
  234MOL0     C31478   7.750  -0.309   8.708 -0.1140  0.2475 -1.0365
  234MOL0     O31479   7.740  -0.415   8.616 -0.3128 -0.3503  0.8136
  234MOL0     C31480   7.854  -0.443   8.539 -0.6694  0.9722 -0.6391
  234MOL0     C31481   7.974  -0.382   8.559  0.1553  0.0671 -0.1002
  234MOL0     C31482   8.088  -0.420   8.477  0.5039  0.0419  0.7065
  234MOL0     C31483   8.068  -0.515   8.377 -0.6608  0.1850  0.1519
  234MOL0     C31484   8.184  -0.580   8.312  1.1081  0.3197 -0.5569
  234MOL0     O31485   8.289  -0.575   8.379 -0.4462  0.0252  0.2481
  234MOL0     C31486   8.407  -0.613   8.324  0.9638 -0.6570  0.1851
  234MOL0     C31487   8.473  -0.723   8.388  0.1854 -0.1651 -0.4429
  234MOL0     C31488   8.603  -0.761   8.342 -0.1050  0.6459 -0.2100
  234MOL0     C31489   8.662  -0.712   8.224 -0.6995  0.5788  1.0096
  234MOL0     O31490   8.767  -0.781   8.160  0.1975 -0.1093  0.5893
  234MOL0     C31491   8.864  -0.843   8.250  0.5172  0.2772 -0.3284
  234MOL0     C31492   8.990  -0.845   8.172 -1.2159 -0.0655  0.6565
  234MOL0     C31493   9.111  -0.853   8.273 -0.7536 -0.3179 -0.3265
  234MOL0     C31494   9.246  -0.838   8.193  0.1477  0.1434 -0.6130
  234MOL0     C31495   9.368  -0.852   8.286  0.6516 -0.4913  0.9691
  234MOL0     C31496   9.500  -0.828   8.211 -0.0228  0.3726  0.4558
  234MOL0     C31497   9.527  -0.938   8.107  0.0878  0.4683  0.8225
  234MOL0     C31498   9.564  -0.879   7.971  0.4970  0.3834  0.0290
  234MOL0    Cl31499   9.729  -0.822   7.986  0.0029 -0.2249 -0.6876
  234MOL0     C31500   8.595  -0.608   8.160 -0.6990  0.6632  0.6102
  234MOL0     C31501   8.470  -0.558   8.205  0.2114 -0.6098 -0.3753
  234MOL0     O31502   8.173  -0.632   8.201 -0.4395 -0.4333  0.5872
  234MOL0     C31503   7.942  -0.567   8.354  0.0799 -0.0950 -0.9723
  234MOL0     C31504   7.839  -0.534   8.442  0.6865  1.0067 -0.6148
  234MOL0     N31505   7.137  -0.296   8.628  0.2808 -0.0777  0.3349
  234MOL0     N31506   7.049  -0.234   8.558 -0.9906  0.3097  0.1221
  234MOL0     C31507   6.493   0.829   8.325  0.4821 -0.1120 -0.5601
  234MOL0     C31508   6.353   0.809   8.321 -0.0513 -0.0891  0.4185
  234MOL0     C31509   5.929   0.631   8.427 -0.7300 -0.4505  0.0770
  234MOL0     C31510   5.846   0.527   8.482  0.6001 -0.4589 -0.3825
  234MOL0     C31511   5.706   0.541   8.481 -0.6996 -0.4773 -0.3796
  234MOL0     C31512   5.640   0.652   8.422 -0.1573  0.1223  0.0685
  234MOL0     O31513   5.499   0.652   8.425 -0.8098  0.0709  0.0960
  234MOL0     C31514   5.427   0.740   8.338  0.3859 -0.1647 -0.0211
  234MOL0     C31515   5.269   0.716   8.343 -0.5218 -0.6162 -0.2022
  234MOL0     C31516   5.233   0.570   8.361 -0.3746  0.4806 -0.1308
  234MOL0     C31517   5.082   0.552   8.333 -0.1920  0.1545 -0.4916
  234MOL0     C31518   5.054   0.544   8.191 -0.3511  0.0845 -0.0087
  234MOL0     C31519   5.059   0.511   8.078  1.4402  0.4394  0.8543
  234MOL0     C31520   5.724   0.749   8.365  0.1266 -0.3824 -0.4758
  234MOL0     C31521   5.863   0.742   8.363 -1.0411 -0.0663 -0.1396
  234MOL0     C31522   5.929   0.865   8.290  0.2573  0.3240  0.1228
  234MOL0     H31523   6.334   0.501   8.448 -2.1669  0.0242 -2.0583
  234MOL0     H31524   6.571   0.520   8.450  1.7623  1.0085 -0.3300
  234MOL0     H31525   6.753   0.767   8.203  0.6528  0.0430  0.1579
  234MOL0     H31526   6.901   0.734   8.315  1.2022  0.0069 -2.1629
  234MOL0     H31527   6.853   0.585   8.118 -0.4598 -1.2808  0.0852
  234MOL0     H31528   6.708   0.536   8.194  0.2681 -0.7678 -0.2058
  234MOL0     H31529   6.853   0.443   8.391 -1.1623 -0.5994 -0.9783
  234MOL0     H31530   6.991   0.529   8.331  0.0413  1.3815 -1.3992
  234MOL0     H31531   6.867   0.297   8.186 -0.1467 -0.6915  1.8680
  234MOL0     H31532   7.009   0.384   8.128  0.5724 -3.1761 -0.6101
  234MOL0     H31533   7.122   0.318   8.345 -0.6720 -1.3791  0.0062
  234MOL0     H31534   6.975   0.240   8.394  0.0163  0.1716  0.6009
  234MOL0     H31535   6.989   0.098   8.178 -0.8246  0.4540 -0.4247
  234MOL0     H31536   7.148   0.159   8.145 -0.8571  2.1402 -0.8668
  234MOL0     H31537   7.235   0.050   8.356 -0.2366 -0.1485  0.0980
  234MOL0     H31538   7.142  -0.068   8.256 -1.6211  0.2306 -0.6664
  234MOL0     H31539   7.061   0.069   8.507  0.0405  0.4800  0.1633
  234MOL0     H31540   6.955  -0.042   8.413  1.0561 -3.9432 -1.3919
  234MOL0     H31541   7.332  -0.047   8.555 -0.4828  0.3345 -0.0936
  234MOL0     H31542   7.384  -0.185   8.815  2.2362 -0.5376 -0.7599
  234MOL0     H31543   7.352  -0.354   8.787  0.8220 -2.0061 -2.8090
  234MOL0     H31544   7.484  -0.366   8.592  2.2491  1.4207 -0.9893
  234MOL0     H31545   7.509  -0.194   8.592 -1.0724  2.5506  1.4783
  234MOL0     H31546   7.586  -0.378   8.837  0.1564  0.4137  0.7764
  234MOL0     H31547   7.610  -0.206   8.835 -0.4050  1.1820 -1.9042
  234MOL0     H31548   7.824  -0.330   8.786 -1.0079 -0.7410 -0.4344
  234MOL0     H31549   7.773  -0.218   8.651  1.4614  0.3608 -0.2798
  234MOL0     H31550   7.985  -0.302   8.632 -1.4776  1.2855 -1.0873
  234MOL0     H31551   8.181  -0.370   8.500 -0.1042  2.1733 -1.0933
  234MOL0     H31552   8.438  -0.775   8.476  2.8172 -0.9836  0.2036
  234MOL0     H31553   8.648  -0.850   8.384  1.6955  1.3300 -0.6281
  234MOL0     H31554   8.876  -0.779   8.339  2.5952  1.1077 -1.1592
  234MOL0     H31555   8.839  -0.945   8.280  0.0377  0.6538  0.6055
  234MOL0     H31556   9.000  -0.924   8.097  0.6144  0.7315  0.0074
  234MOL0     H31557   9.011  -0.755   8.114  0.1439 -1.8161 -1.7152
  234MOL0     H31558   9.105  -0.774   8.350  0.9138 -0.0482 -0.4392
  234MOL0     H31559   9.107  -0.948   8.327  0.9735 -0.5885 -0.6192
  234MOL0     H31560   9.247  -0.740   8.144 -1.9731  2.1008  2.8723
  234MOL0     H31561   9.248  -0.924   8.125  1.5396 -1.1977  1.0307
  234MOL0     H31562   9.358  -0.954   8.324  1.0923 -0.5741  0.8632
  234MOL0     H31563   9.365  -0.774   8.364  0.9313  0.6440 -0.1196
  234MOL0     H31564   9.505  -0.728   8.167  0.7968  0.8710  1.6168
  234MOL0     H31565   9.582  -0.820   8.283  0.8408  2.6783 -0.7129
  234MOL0     H31566   9.443  -1.006   8.088  0.4513  0.7205 -2.2329
  234MOL0     H31567   9.607  -1.002   8.146  0.0496 -1.1425 -1.5572
  234MOL0     H31568   9.566  -0.961   7.899  0.7134  0.4378 -0.0296
  234MOL0     H31569   9.498  -0.798   7.938 -2.7154 -1.5200  1.2765
  234MOL0     H31570   8.644  -0.588   8.065  1.3504  0.3588  1.5668
  234MOL0     H31571   8.420  -0.480   8.147 -1.0323 -1.5230 -0.5576
  234MOL0     H31572   7.933  -0.652   8.287  0.9816  0.2491 -1.5527
  234MOL0     H31573   7.748  -0.589   8.422 -0.1190  2.1160 -0.1299
  234MOL0     H31574   6.543   0.924   8.304 -1.3522  1.0649  0.1854
  234MOL0     H31575   6.285   0.887   8.290  0.6268 -0.2348 -1.5272
  234MOL0     H31576   5.883   0.438   8.531  0.0855  0.5372  1.9219
  234MOL0     H31577   5.640   0.472   8.532  2.2474 -3.4430 -0.2484
  234MOL0     H31578   5.464   0.723   8.237  0.5044 -0.7571  0.1112
  234MOL0     H31579   5.453   0.841   8.371 -0.8708 -0.3577  1.7009
  234MOL0     H31580   5.220   0.767   8.260 -0.9195  1.6622  1.3357
  234MOL0     H31581   5.235   0.771   8.431  1.6380  2.6686 -1.2291
  234MOL0     H31582   5.260   0.550   8.465 -0.8432  1.4768  0.1893
  234MOL0     H31583   5.295   0.509   8.295 -1.4866 -0.5820 -0.2328
  234MOL0     H31584   5.061   0.450   8.367  1.2171  0.0202  0.0402
  234MOL0     H31585   5.016   0.621   8.387  0.9884  0.7322  0.2643
  234MOL0     H31586   5.063   0.473   7.978  0.0855  1.1128  0.5202
  234MOL0     H31587   5.671   0.835   8.325 -0.5439 -1.5826 -2.2896
  234MOL0     H31588   5.991   0.907   8.370  1.4677 -1.6681  0.2887
  234MOL0     H31589   5.988   0.827   8.206  0.7262  0.2961  0.4622
  234MOL0     H31590   5.857   0.939   8.254 -0.6525 -0.5941  0.0305
  235MOL0     O31591   3.837   5.671  11.093 -0.6577  0.5714  0.0833
  235MOL0     C31592   3.765   5.697  11.187 -0.0909  1.0562  0.2648
  235MOL0     O31593   3.808   5.753  11.304  0.3910 -0.5684 -0.2672
  235MOL0     C31594   3.939   5.747  11.344  0.3783 -1.1164  0.1279
  235MOL0     C31595   3.955   5.832  11.447 -0.3555  0.0490  0.0953
  235MOL0     C31596   4.082   5.851  11.507  0.7430 -0.7914  0.1036
  235MOL0     C31597   4.189   5.791  11.463 -0.2110  0.3654  0.6819
  235MOL0     O31598   4.314   5.806  11.508 -0.5442 -0.8427 -0.7115
  235MOL0     C31599   4.350   5.857  11.633  0.4072  0.3799  0.6209
  235MOL0     C31600   4.408   5.995  11.608 -0.9963  0.5348 -0.5306
  235MOL0     C31601   4.549   5.973  11.550 -0.4371  0.1584 -0.3479
  235MOL0     C31602   4.639   6.102  11.572  0.5343  0.6153  0.5309
  235MOL0     C31603   4.725   6.139  11.449  0.2470  0.6667 -0.8330
  235MOL0     C31604   4.843   6.035  11.428  0.7291  0.2457  0.1856
  235MOL0     C31605   4.923   6.071  11.298 -0.6878  0.6778  0.0422
  235MOL0     C31606   5.022   5.961  11.272 -0.5123  0.0993  0.0329
  235MOL0     N31607   5.134   6.000  11.183  0.1259 -0.8413 -0.3273
  235MOL0     C31608   5.120   6.093  11.081  0.4887  0.1951  0.5517
  235MOL0     C31609   5.243   6.135  11.045 -0.1489  0.1544 -0.6543
  235MOL0     C31610   5.279   6.234  10.936  0.5689  0.1964 -0.0250
  235MOL0     C31611   5.348   6.171  10.814  0.4383 -0.3245 -0.1978
  235MOL0     C31612   5.478   6.093  10.840 -0.4123 -0.3296 -0.6421
  235MOL0     C31613   5.591   6.177  10.903  0.8517  0.6249 -0.1038
  235MOL0     O31614   5.627   6.285  10.813  0.0722  0.3118 -0.4506
  235MOL0     C31615   5.742   6.358  10.827  0.2722  0.2880 -0.4991
  235MOL0     C31616   5.835   6.340  10.937 -0.2337 -0.4114 -0.0310
  235MOL0     C31617   5.947   6.418  10.944 -0.2127  0.2686  0.0437
  235MOL0     C31618   5.971   6.516  10.849  0.2968 -0.6864 -0.6355
  235MOL0     C31619   6.083   6.609  10.863 -1.0755 -0.3348 -0.7240
  235MOL0     O31620   6.157   6.620  10.976  0.7350  0.2476 -0.3481
  235MOL0     C31621   6.292   6.633  10.976  0.3049 -0.5011  0.6067
  235MOL0     C31622   6.370   6.624  10.864 -0.3098  0.6523  0.2444
  235MOL0     C31623   6.508   6.661  10.878  0.5906 -0.7358 -0.3462
  235MOL0     C31624   6.570   6.690  11.004 -0.0842  0.4440  0.0985
  235MOL0     O31625   6.704   6.719  11.026 -0.6032 -0.5547 -0.7233
  235MOL0     C31626   6.779   6.704  10.909  0.5852  0.5666 -0.4085
  235MOL0     C31627   6.922   6.708  10.944  0.0533  0.1817 -0.8736
  235MOL0     C31628   6.960   6.593  11.042 -0.9285  0.5430  0.3544
  235MOL0     C31629   7.084   6.609  11.124  1.0744  0.6731 -0.8765
  235MOL0     C31630   7.119   6.487  11.205  0.3838 -0.7324  0.3554
  235MOL0     C31631   7.258   6.508  11.263 -0.7151  0.4035 -0.0297
  235MOL0     C31632   7.368   6.457  11.172 -0.6302 -0.7469 -0.1259
  235MOL0     C31633   7.500   6.519  11.200  0.7434 -0.1796 -0.5644
  235MOL0    Cl31634   7.501   6.688  11.157 -0.0234 -0.3080  0.0777
  235MOL0     C31635   6.485   6.706  11.111 -0.1872  0.0168 -0.7470
  235MOL0     C31636   6.349   6.668  11.101  0.2022 -1.3069  0.2325
  235MOL0     O31637   6.096   6.687  10.772 -0.2199 -0.3863 -0.9591
  235MOL0     C31638   5.879   6.537  10.738 -0.2698 -0.8742 -1.0947
  235MOL0     C31639   5.760   6.458  10.737  0.4588  0.1686 -0.2502
  235MOL0     N31640   5.332   6.083  11.132 -0.0063  0.4736  0.2494
  235MOL0     N31641   5.267   6.004  11.210  0.5282 -0.2012  0.8856
  235MOL0     C31642   4.177   5.703  11.358  0.2726 -0.3607  0.5782
  235MOL0     C31643   4.052   5.677  11.294  0.6596  0.0303  0.3061
  235MOL0     C31644   3.621   5.662  11.183  0.4462  0.0508 -0.1143
  235MOL0     C31645   3.545   5.713  11.289  0.6997  0.8481 -0.5683
  235MOL0     C31646   3.407   5.703  11.286  0.6678 -0.3210 -0.4269
  235MOL0     C31647   3.335   5.638  11.190 -0.5314  0.2044  0.4003
  235MOL0     O31648   3.200   5.645  11.206  0.3974 -0.1420  1.1832
  235MOL0     C31649   3.113   5.640  11.088 -0.3372  0.9624 -0.1573
  235MOL0     C31650   2.967   5.707  11.123  0.2586 -0.4463  0.1622
  235MOL0     C31651   2.914   5.651  11.248  0.2001  0.3818 -0.6511
  235MOL0     C31652   2.763   5.688  11.263  0.3263 -1.0200  0.3520
  235MOL0     C31653   2.753   5.834  11.311  0.1240  0.2204 -0.0891
  235MOL0     C31654   2.736   5.952  11.342  0.2697  0.4376 -0.3885
  235MOL0     C31655   3.412   5.584  11.078  0.7624  1.1085 -0.1913
  235MOL0     C31656   3.555   5.585  11.080  0.5167  0.4921  0.4365
  235MOL0     C31657   3.628   5.527  10.963 -0.3643 -0.2309 -0.9281
  235MOL0     H31658   3.867   5.880  11.486 -0.3525 -1.3888  2.0235
  235MOL0     H31659   4.083   5.922  11.589  0.7079 -1.0101  0.2930
  235MOL0     H31660   4.265   5.862  11.702  1.9955  2.2128  2.5972
  235MOL0     H31661   4.422   5.789  11.678 -1.4215 -1.6778  0.5998
  235MOL0     H31662   4.417   6.033  11.710  0.9786 -1.2395  0.0387
  235MOL0     H31663   4.341   6.060  11.551 -1.0384  0.6452 -0.3537
  235MOL0     H31664   4.543   5.960  11.441 -0.3153 -0.1989 -0.3126
  235MOL0     H31665   4.598   5.888  11.597 -0.2217  0.6384  0.3203
  235MOL0     H31666   4.575   6.179  11.615 -1.2846 -0.6759  0.2876
  235MOL0     H31667   4.709   6.085  11.654  2.6784 -0.5005 -1.4158
  235MOL0     H31668   4.668   6.129  11.357 -1.1068  0.6804 -0.0180
  235MOL0     H31669   4.761   6.242  11.460  0.2650  0.6631 -0.8545
  235MOL0     H31670   4.902   6.039  11.520 -1.4848 -1.4264  1.7578
  235MOL0     H31671   4.814   5.931  11.413  0.9898  0.2130 -0.1060
  235MOL0     H31672   4.979   6.164  11.311  0.8471 -0.1118 -0.7308
  235MOL0     H31673   4.857   6.089  11.212 -0.1194  1.9901 -0.1419
  235MOL0     H31674   5.070   5.917  11.360  1.0360  2.8527  0.6641
  235MOL0     H31675   4.980   5.874  11.219  0.2854 -0.5972  0.5139
  235MOL0     H31676   5.029   6.126  11.033  0.9445 -1.5436 -1.6822
  235MOL0     H31677   5.183   6.273  10.902 -1.5340 -3.5235  1.1195
  235MOL0     H31678   5.343   6.316  10.971  1.0426 -0.0557 -0.2837
  235MOL0     H31679   5.291   6.088  10.771  1.9105  0.4031 -3.9125
  235MOL0     H31680   5.360   6.240  10.730  0.9765 -0.4736 -0.2505
  235MOL0     H31681   5.525   6.046  10.754  0.1052 -0.3103 -0.3785
  235MOL0     H31682   5.458   6.009  10.907  3.5234  0.9506  2.5580
  235MOL0     H31683   5.677   6.110  10.911  1.3154  1.0953 -1.0836
  235MOL0     H31684   5.558   6.215  11.000 -3.6121  0.5536 -1.3351
  235MOL0     H31685   5.813   6.259  11.005 -2.0656 -1.0350 -1.2917
  235MOL0     H31686   6.027   6.416  11.018  0.2943 -1.3403 -0.5021
  235MOL0     H31687   6.313   6.585  10.781 -1.9315  0.5484  1.3646
  235MOL0     H31688   6.575   6.653  10.792 -0.5033 -0.1680 -1.2845
  235MOL0     H31689   6.772   6.605  10.863  1.7454 -0.2078  1.0089
  235MOL0     H31690   6.758   6.775  10.828  1.8524  1.1638 -0.2427
  235MOL0     H31691   6.975   6.695  10.849 -1.0738  0.7461 -1.6104
  235MOL0     H31692   6.948   6.807  10.985 -0.0298 -0.3562  0.5324
  235MOL0     H31693   6.881   6.584  11.116  0.3690  1.0049  1.8530
  235MOL0     H31694   6.973   6.504  10.979 -1.6808  0.7553 -0.1157
  235MOL0     H31695   7.071   6.696  11.189  0.2092  1.1930 -1.7200
  235MOL0     H31696   7.166   6.622  11.053  2.0593 -3.3387 -0.7283
  235MOL0     H31697   7.112   6.385  11.166  1.9016 -1.8285  2.6860
  235MOL0     H31698   7.054   6.486  11.294 -2.3215  0.8842 -1.4588
  235MOL0     H31699   7.281   6.611  11.289 -0.1831  0.6764 -1.5076
  235MOL0     H31700   7.257   6.458  11.360 -0.7457  0.2117 -0.1265
  235MOL0     H31701   7.335   6.463  11.068 -1.2486  1.7263  0.1509
  235MOL0     H31702   7.381   6.352  11.199  0.5575 -1.3212 -2.7011
  235MOL0     H31703   7.521   6.501  11.306 -0.3975 -0.6802 -0.4076
  235MOL0     H31704   7.573   6.463  11.141  1.4282  0.2973 -0.1976
  235MOL0     H31705   6.524   6.730  11.209  0.0624 -0.9014 -0.6182
  235MOL0     H31706   6.281   6.663  11.185 -0.3219  0.0263 -0.1015
  235MOL0     H31707   5.898   6.614  10.665 -0.5994 -1.7681 -2.1433
  235MOL0     H31708   5.685   6.484  10.663  0.1460  3.7882  1.1077
  235MOL0     H31709   4.259   5.651  11.309 -0.0273 -1.8244  1.5306
  235MOL0     H31710   4.057   5.613  11.207  1.4400  0.7808 -0.2208
  235MOL0     H31711   3.580   5.779  11.368 -1.8434  1.5634  0.0720
  235MOL0     H31712   3.342   5.738  11.366 -1.0507 -1.0552 -1.4401
  235MOL0     H31713   3.093   5.537  11.057  1.0409 -0.0017  1.9516
  235MOL0     H31714   3.162   5.692  11.005  0.2100  1.2309  0.3332
  235MOL0     H31715   2.898   5.690  11.040  0.6368  1.8423 -0.6987
  235MOL0     H31716   2.976   5.816  11.124  0.3098 -0.4535  0.5775
  235MOL0     H31717   2.966   5.700  11.331  1.1360  0.7376 -1.4280
  235MOL0     H31718   2.927   5.543  11.257  2.9548  0.6866 -0.0796
  235MOL0     H31719   2.718   5.666  11.166  1.4010  0.7888 -0.6243
  235MOL0     H31720   2.726   5.623  11.343 -3.8469  1.7678  1.0399
  235MOL0     H31721   2.712   6.052  11.373  0.2876  0.3162  0.0196
  235MOL0     H31722   3.371   5.541  10.988  0.8007  0.0805  0.2728
  235MOL0     H31723   3.709   5.463  10.999 -1.3508 -1.1855 -0.3491
  235MOL0     H31724   3.566   5.465  10.898 -2.1092 -0.7383  1.1227
  235MOL0     H31725   3.678   5.608  10.910 -0.6508  2.4515  2.5241
  236MOL0     O31726   2.608   6.647   6.166  0.1013  0.4397  0.0318
  236MOL0     C31727   2.532   6.696   6.086  0.6386  0.2618 -0.7817
  236MOL0     O31728   2.563   6.748   5.967 -0.4097  0.3441 -0.0909
  236MOL0     C31729   2.698   6.760   5.924  1.1528  0.4158 -0.5292
  236MOL0     C31730   2.717   6.758   5.783  0.2664 -0.4805 -0.4679
  236MOL0     C31731   2.841   6.787   5.733 -0.0731  0.7752  0.7366
  236MOL0     C31732   2.946   6.817   5.814  0.9384 -0.5299 -1.0968
  236MOL0     O31733   3.070   6.852   5.762  0.0813  0.7311 -0.2080
  236MOL0     C31734   3.084   6.915   5.632 -0.9045  0.5874 -0.0231
  236MOL0     C31735   3.238   6.940   5.609 -0.5746 -0.1535 -0.0062
  236MOL0     C31736   3.295   7.035   5.706 -0.8393  0.3396 -0.1093
  236MOL0     C31737   3.439   7.067   5.663 -0.4375 -0.0324  0.7632
  236MOL0     C31738   3.480   7.207   5.727 -0.0455  1.0313  0.2333
  236MOL0     C31739   3.621   7.254   5.698  0.3053 -0.0704  0.5759
  236MOL0     C31740   3.657   7.357   5.809  0.3493  0.2004 -0.4437
  236MOL0     C31741   3.789   7.429   5.776  0.0591  0.3138  0.1200
  236MOL0     N31742   3.904   7.340   5.767  0.8318  0.3843  1.0006
  236MOL0     C31743   3.979   7.306   5.876  0.8193  0.4575 -0.0791
  236MOL0     C31744   4.080   7.212   5.842 -0.6963 -0.3845 -0.3169
  236MOL0     C31745   4.150   7.114   5.921 -0.7505 -1.2929 -0.3705
  236MOL0     C31746   4.274   7.179   5.971  0.5591  0.5018 -0.7066
  236MOL0     C31747   4.366   7.105   6.069  0.3931 -0.5231 -0.8349
  236MOL0     C31748   4.498   7.171   6.113 -0.6697 -0.6740  0.2890
  236MOL0     O31749   4.579   7.080   6.189 -0.0603 -0.2960 -0.1198
  236MOL0     C31750   4.700   7.136   6.241 -0.8255  0.1319 -0.4532
  236MOL0     C31751   4.729   7.272   6.256 -0.1296  0.0965 -0.8896
  236MOL0     C31752   4.859   7.321   6.306  0.6401 -0.4518 -0.3997
  236MOL0     C31753   4.960   7.222   6.339 -0.2202 -0.1110  0.0866
  236MOL0     C31754   5.084   7.268   6.385 -0.0269  0.2122 -0.4420
  236MOL0     O31755   5.106   7.406   6.370 -0.2557 -0.1947  0.1257
  236MOL0     C31756   5.221   7.451   6.425  0.8475 -0.6752 -0.0922
  236MOL0     C31757   5.254   7.431   6.563  0.0966  0.4423 -0.2314
  236MOL0     C31758   5.361   7.509   6.622 -0.7496 -0.7512  0.5125
  236MOL0     C31759   5.441   7.588   6.538 -0.5856  0.8259  0.1433
  236MOL0     O31760   5.534   7.668   6.597  0.2710  0.0448 -0.5565
  236MOL0     C31761   5.669   7.673   6.536 -0.1403 -1.0032 -0.4503
  236MOL0     C31762   5.737   7.821   6.548  0.9712 -0.0524  0.4667
  236MOL0     C31763   5.732   7.859   6.692  1.1529  0.5564 -0.5251
  236MOL0     C31764   5.831   7.972   6.715 -0.0305  0.0374  0.0753
  236MOL0     C31765   5.845   8.002   6.867 -0.8902 -0.0579 -0.2569
  236MOL0     C31766   5.905   8.134   6.909 -0.1679  0.2710 -0.3595
  236MOL0     C31767   5.902   8.144   7.065 -0.6358  0.9272  0.4044
  236MOL0     C31768   5.972   8.261   7.131 -0.0130  0.3417  0.4000
  236MOL0    Cl31769   6.150   8.261   7.114 -0.1610  0.0601 -0.4887
  236MOL0     C31770   5.415   7.601   6.400 -0.2742 -0.0718 -0.4226
  236MOL0     C31771   5.301   7.536   6.344  0.5489  0.0191 -0.5117
  236MOL0     O31772   5.165   7.183   6.434  0.0003 -0.1686 -0.0056
  236MOL0     C31773   4.929   7.084   6.322 -0.1903  0.5808  1.4139
  236MOL0     C31774   4.798   7.044   6.279 -0.2739 -0.0656 -0.4533
  236MOL0     N31775   4.071   7.210   5.708 -0.2843  0.4986  0.0762
  236MOL0     N31776   3.968   7.280   5.659  0.6601  0.1111  0.0918
  236MOL0     C31777   2.928   6.828   5.948  0.2010 -0.6833 -0.3371
  236MOL0     C31778   2.802   6.803   6.005 -0.7667  0.7292 -0.2732
  236MOL0     C31779   2.384   6.681   6.105 -0.6186 -0.3560  0.5700
  236MOL0     C31780   2.295   6.710   5.997  0.3322 -0.0855  0.0686
  236MOL0     C31781   2.159   6.690   6.022  0.1563 -0.0057 -0.7162
  236MOL0     C31782   2.109   6.638   6.135  0.0962  0.2536 -1.1262
  236MOL0     O31783   1.973   6.604   6.135 -0.0070 -0.0198  0.4534
  236MOL0     C31784   1.906   6.576   6.261  0.3104  0.6799  0.2935
  236MOL0     C31785   1.753   6.570   6.248 -0.1852 -0.1882 -0.4868
  236MOL0     C31786   1.689   6.450   6.182  0.3716  0.5642  0.5739
  236MOL0     C31787   1.536   6.435   6.222 -0.6999  0.4023  1.2240
  236MOL0     C31788   1.458   6.560   6.224 -0.4039  0.1002  0.3378
  236MOL0     C31789   1.401   6.667   6.218  0.3010 -0.1294  0.3039
  236MOL0     C31790   2.196   6.601   6.235  1.1052  1.1779 -0.0736
  236MOL0     C31791   2.333   6.613   6.219 -0.4999 -0.1667 -0.0534
  236MOL0     C31792   2.412   6.538   6.324 -0.2175 -1.1989 -0.4654
  236MOL0     H31793   2.637   6.737   5.713 -0.4888  1.6835 -0.3150
  236MOL0     H31794   2.862   6.768   5.628  1.5928  1.2013  0.9750
  236MOL0     H31795   3.045   6.861   5.545 -0.3637  0.0870  0.0367
  236MOL0     H31796   3.037   7.014   5.622 -2.4127 -0.3344 -4.7844
  236MOL0     H31797   3.253   6.967   5.505 -0.8057 -2.9534 -0.8666
  236MOL0     H31798   3.288   6.842   5.617 -0.4301 -0.0573  0.2942
  236MOL0     H31799   3.288   7.000   5.810 -1.4999  3.1137  0.8529
  236MOL0     H31800   3.229   7.122   5.703 -3.5882 -1.5312  1.8668
  236MOL0     H31801   3.506   6.988   5.697  0.1786  0.8717  1.7336
  236MOL0     H31802   3.452   7.065   5.555  2.2586 -2.5872  1.0218
  236MOL0     H31803   3.416   7.286   5.687  0.6454  0.6653 -1.7210
  236MOL0     H31804   3.467   7.199   5.835 -0.8356 -1.0071  0.0180
  236MOL0     H31805   3.682   7.163   5.698  1.1843  0.4970 -0.1448
  236MOL0     H31806   3.621   7.297   5.597  3.3726 -0.5827  0.2703
  236MOL0     H31807   3.654   7.316   5.911  0.5470  2.1386  0.3814
  236MOL0     H31808   3.576   7.430   5.812  0.3325  0.2346 -1.3812
  236MOL0     H31809   3.775   7.493   5.689 -0.6286  1.6355  1.1496
  236MOL0     H31810   3.803   7.497   5.861 -0.7579  1.8374 -0.9179
  236MOL0     H31811   3.952   7.314   5.981  1.0884 -2.5275  0.2933
  236MOL0     H31812   4.097   7.077   6.009 -0.7308  0.8943  0.6291
  236MOL0     H31813   4.171   7.025   5.860 -0.9698 -1.9130  0.4383
  236MOL0     H31814   4.329   7.197   5.879 -1.0212  2.6666 -1.2894
  236MOL0     H31815   4.247   7.276   6.012 -2.9081  1.2516 -4.2087
  236MOL0     H31816   4.385   7.013   6.013 -3.3210 -2.2146  0.3748
  236MOL0     H31817   4.311   7.088   6.162  0.7517 -2.0770 -0.8844
  236MOL0     H31818   4.469   7.263   6.164 -1.8460 -0.2448 -1.0716
  236MOL0     H31819   4.549   7.203   6.022 -1.8619 -1.3774 -0.6713
  236MOL0     H31820   4.664   7.353   6.225 -0.1811 -0.7265 -3.0996
  236MOL0     H31821   4.877   7.427   6.325 -1.4733 -0.1076 -0.1384
  236MOL0     H31822   5.200   7.354   6.618  0.0507  0.0860 -0.7664
  236MOL0     H31823   5.398   7.518   6.724  0.9109 -0.2308 -0.0957
  236MOL0     H31824   5.730   7.610   6.602 -0.4258 -1.0725 -0.2510
  236MOL0     H31825   5.674   7.637   6.433  0.3628 -1.9353 -0.1127
  236MOL0     H31826   5.842   7.824   6.516  1.1556 -1.2640  0.8970
  236MOL0     H31827   5.688   7.895   6.485  1.8503 -0.3530 -0.5931
  236MOL0     H31828   5.629   7.889   6.716  0.1206 -3.3243  0.4814
  236MOL0     H31829   5.737   7.771   6.756  0.6639  0.3382 -0.7768
  236MOL0     H31830   5.799   8.059   6.657 -1.1728 -1.0167 -0.9384
  236MOL0     H31831   5.931   7.944   6.682  0.8490  0.0726  2.5019
  236MOL0     H31832   5.881   7.918   6.928 -2.9683  0.6712  2.1399
  236MOL0     H31833   5.742   8.007   6.904 -0.1251  4.4951  1.9910
  236MOL0     H31834   6.010   8.135   6.880 -0.2166 -2.1498 -0.8143
  236MOL0     H31835   5.851   8.214   6.857  0.3012  0.1166 -1.1013
  236MOL0     H31836   5.961   8.061   7.106 -0.8951  1.1201  1.1911
  236MOL0     H31837   5.795   8.133   7.085 -0.6609  0.3006 -0.0589
  236MOL0     H31838   5.936   8.360   7.100 -3.2048 -0.5955  0.7556
  236MOL0     H31839   5.951   8.254   7.238  0.3410  1.8664  0.5974
  236MOL0     H31840   5.459   7.669   6.329 -3.8187  2.4942 -0.4109
  236MOL0     H31841   5.276   7.557   6.240 -1.5639 -1.5915 -0.4177
  236MOL0     H31842   5.000   7.009   6.355 -0.9615 -0.4787  0.7429
  236MOL0     H31843   4.774   6.938   6.272  2.4078 -1.1297  3.4360
  236MOL0     H31844   3.020   6.860   5.997 -1.4393 -0.2155  2.7205
  236MOL0     H31845   2.790   6.799   6.113  0.7053 -2.7813 -0.0964
  236MOL0     H31846   2.319   6.756   5.902 -2.4161  1.5655  0.0658
  236MOL0     H31847   2.085   6.710   5.945  0.8674  0.8787 -1.1922
  236MOL0     H31848   1.925   6.654   6.336  1.1330 -1.8009  2.8393
  236MOL0     H31849   1.938   6.481   6.304 -1.0930  0.7001  1.4500
  236MOL0     H31850   1.717   6.656   6.190  1.2284 -0.7568 -2.3089
  236MOL0     H31851   1.716   6.589   6.349  2.2785  1.0657  0.2576
  236MOL0     H31852   1.738   6.358   6.216 -1.0889 -1.5221 -2.5599
  236MOL0     H31853   1.680   6.457   6.074  3.0827 -1.4866  0.1012
  236MOL0     H31854   1.492   6.349   6.171 -0.2716  0.8311  0.1149
  236MOL0     H31855   1.537   6.405   6.328  1.7426 -0.7446  0.9587
  236MOL0     H31856   1.358   6.760   6.188 -2.0314 -1.8107 -2.0838
  236MOL0     H31857   2.148   6.553   6.320 -0.5848  1.4705 -0.8434
  236MOL0     H31858   2.485   6.471   6.278 -0.3738 -1.6152 -0.1124
  236MOL0     H31859   2.456   6.615   6.389 -0.7638 -0.9561 -0.3734
  236MOL0     H31860   2.350   6.470   6.383  0.1957 -0.7007  0.5721
  237MOL0     O31861   2.048   3.337   4.112  0.7895  0.3284 -0.3836
  237MOL0     C31862   2.122   3.430   4.101 -0.5334  0.2086  0.0404
  237MOL0     O31863   2.255   3.423   4.057  0.4324 -0.2385 -0.5026
  237MOL0     C31864   2.323   3.310   4.036 -1.4041  0.1519 -0.3781
  237MOL0     C31865   2.446   3.333   3.971 -0.0004  0.1697  0.0111
  237MOL0     C31866   2.539   3.228   3.951  0.8238  0.3621  0.5132
  237MOL0     C31867   2.510   3.095   4.007 -0.3691 -0.2493 -0.4571
  237MOL0     O31868   2.597   2.986   3.985  0.6414  0.5232 -0.1380
  237MOL0     C31869   2.728   3.003   3.921 -0.4482 -0.7383 -0.4884
  237MOL0     C31870   2.830   3.078   4.021  0.1862 -0.6159  0.3773
  237MOL0     C31871   2.940   3.140   3.939  0.6766  0.6664 -0.2329
  237MOL0     C31872   3.078   3.140   4.008  1.0711  0.8873  0.1496
  237MOL0     C31873   3.188   3.206   3.926 -0.6853  0.4574 -0.0078
  237MOL0     C31874   3.327   3.137   3.956 -0.4365  0.2108 -0.0742
  237MOL0     C31875   3.369   3.155   4.099  0.1323 -0.8701  1.2988
  237MOL0     C31876   3.499   3.076   4.142 -0.2612  0.2584  0.6719
  237MOL0     N31877   3.618   3.153   4.100 -0.4267  0.3530  0.5156
  237MOL0     C31878   3.710   3.121   4.001 -0.9739 -0.2612 -0.0720
  237MOL0     C31879   3.815   3.209   4.020  0.8075  0.5087 -0.0760
  237MOL0     C31880   3.932   3.215   3.928 -0.4257 -0.6809 -0.4413
  237MOL0     C31881   4.059   3.197   4.014 -0.2433 -0.4318  0.6713
  237MOL0     C31882   4.182   3.214   3.928  0.8601  0.2639 -0.5060
  237MOL0     C31883   4.304   3.218   4.012  0.8576  0.3121  0.4221
  237MOL0     O31884   4.415   3.248   3.920  0.5584 -0.1232 -0.8377
  237MOL0     C31885   4.539   3.285   3.972 -0.5868  0.7013 -0.0483
  237MOL0     C31886   4.568   3.323   4.099  0.6306 -0.9440 -0.2825
  237MOL0     C31887   4.689   3.370   4.142 -1.3085  1.0431 -0.1619
  237MOL0     C31888   4.795   3.376   4.045 -0.3247 -0.3271 -0.7991
  237MOL0     C31889   4.926   3.439   4.081  0.5831  0.3074  0.2091
  237MOL0     O31890   5.004   3.474   3.978 -0.3707  0.0680 -0.1178
  237MOL0     C31891   5.119   3.547   3.999  0.1368  0.1590  0.1152
  237MOL0     C31892   5.219   3.530   3.910 -0.3607  0.8834 -0.7525
  237MOL0     C31893   5.346   3.581   3.921  0.5217  0.0504 -0.2990
  237MOL0     C31894   5.377   3.662   4.034  0.0240 -0.5391 -0.7901
  237MOL0     O31895   5.506   3.701   4.049  0.4180  0.0899  0.1929
  237MOL0     C31896   5.557   3.799   4.144  0.6382  0.1579  0.8803
  237MOL0     C31897   5.710   3.816   4.144  0.7049  0.0444 -0.0111
  237MOL0     C31898   5.757   3.880   4.013 -0.0207  0.2471 -0.2455
  237MOL0     C31899   5.904   3.888   4.019 -0.5505  0.8556  0.2930
  237MOL0     C31900   5.964   3.758   3.974  0.2455 -0.5491  0.1495
  237MOL0     C31901   6.120   3.752   3.946 -1.0497 -0.0237  0.2521
  237MOL0     C31902   6.153   3.603   3.930  0.2027 -0.6552 -0.3551
  237MOL0     C31903   6.304   3.579   3.893 -0.4549 -0.5407  0.2865
  237MOL0    Cl31904   6.307   3.559   3.715 -0.2776  0.0295  0.0399
  237MOL0     C31905   5.270   3.699   4.113  1.0191  0.0858 -0.2071
  237MOL0     C31906   5.144   3.643   4.103  0.1839 -0.0512  0.6684
  237MOL0     O31907   4.960   3.430   4.203 -0.5494  0.3171  0.2649
  237MOL0     C31908   4.764   3.349   3.909 -0.3673 -0.1990  0.0781
  237MOL0     C31909   4.637   3.302   3.877 -0.2332 -0.4891  0.7331
  237MOL0     N31910   3.780   3.295   4.125 -0.0509 -0.1707 -0.3741
  237MOL0     N31911   3.659   3.264   4.164 -0.8140 -0.7760  0.0585
  237MOL0     C31912   2.395   3.075   4.077  0.2666  0.1035  0.3869
  237MOL0     C31913   2.296   3.177   4.092 -0.1299 -0.5566 -0.8304
  237MOL0     C31914   2.086   3.573   4.135 -0.0744  0.5962 -0.8893
  237MOL0     C31915   2.190   3.660   4.183  0.1853  0.1051  0.1526
  237MOL0     C31916   2.178   3.790   4.215 -0.2071 -0.2220  0.3990
  237MOL0     C31917   2.051   3.851   4.197 -0.0313 -0.4260 -0.7554
  237MOL0     O31918   2.035   3.984   4.230 -0.1263  0.6571  0.3929
  237MOL0     C31919   2.147   4.078   4.234 -0.1240  0.0502  0.0733
  237MOL0     C31920   2.086   4.213   4.200 -1.1864  0.8412 -0.7225
  237MOL0     C31921   2.014   4.274   4.320  0.3400 -0.0983 -0.8677
  237MOL0     C31922   2.099   4.394   4.390 -0.1861  0.9603  0.9803
  237MOL0     C31923   2.225   4.350   4.446  0.2664  0.7403 -0.3503
  237MOL0     C31924   2.321   4.298   4.497 -0.6609 -0.0826 -1.2010
  237MOL0     C31925   1.944   3.777   4.162 -0.1079  0.3407 -0.2192
  237MOL0     C31926   1.964   3.638   4.124 -0.0457  0.5224 -0.4460
  237MOL0     C31927   1.843   3.569   4.068 -0.5714  0.1036 -0.6657
  237MOL0     H31928   2.473   3.434   3.942 -0.5220  0.0378 -0.9680
  237MOL0     H31929   2.633   3.246   3.900 -0.4814  0.8167 -1.8355
  237MOL0     H31930   2.763   2.900   3.909 -1.3554 -1.7966  3.9453
  237MOL0     H31931   2.713   3.045   3.821 -2.5938  0.0697  0.1032
  237MOL0     H31932   2.856   3.000   4.094 -0.1484 -1.1208 -0.0322
  237MOL0     H31933   2.781   3.161   4.073  0.0334 -1.6268  1.9206
  237MOL0     H31934   2.904   3.239   3.911 -0.2706 -0.5250 -3.7265
  237MOL0     H31935   2.956   3.083   3.847  2.2884  0.8139 -0.0698
  237MOL0     H31936   3.064   3.194   4.102  0.5933  0.2651  0.4374
  237MOL0     H31937   3.103   3.039   4.040 -2.0443 -0.2610 -0.6727
  237MOL0     H31938   3.178   3.198   3.817  1.5098 -1.7465 -0.1409
  237MOL0     H31939   3.202   3.308   3.962  0.5532  0.3388 -0.1133
  237MOL0     H31940   3.317   3.030   3.936  0.2193  0.4299 -1.7150
  237MOL0     H31941   3.409   3.171   3.893 -0.7911 -0.0946 -0.7068
  237MOL0     H31942   3.286   3.120   4.162 -0.5268 -0.1352  0.8594
  237MOL0     H31943   3.381   3.263   4.116  0.3520 -0.0166 -3.1126
  237MOL0     H31944   3.497   3.068   4.251 -3.5541 -1.6847  0.5991
  237MOL0     H31945   3.495   2.975   4.101 -0.9569  1.1701 -1.7048
  237MOL0     H31946   3.704   3.057   3.913  0.9012  1.5307 -1.6137
  237MOL0     H31947   3.924   3.137   3.851 -1.0734 -0.5821 -0.4796
  237MOL0     H31948   3.934   3.314   3.883 -2.5359 -0.0524  0.7106
  237MOL0     H31949   4.060   3.276   4.090 -0.4580  1.0081 -0.7914
  237MOL0     H31950   4.061   3.099   4.063 -3.3733 -0.7932  0.2569
  237MOL0     H31951   4.181   3.310   3.874 -0.4522 -0.4775 -1.8949
  237MOL0     H31952   4.185   3.142   3.845  0.1838 -0.4266  0.0527
  237MOL0     H31953   4.327   3.125   4.064 -0.0301  0.5400  1.2726
  237MOL0     H31954   4.304   3.291   4.094  1.0296 -0.2872  0.9593
  237MOL0     H31955   4.487   3.298   4.168 -0.7492  0.5929 -1.2911
  237MOL0     H31956   4.719   3.400   4.242  1.9864 -2.3876  0.1032
  237MOL0     H31957   5.191   3.454   3.838 -2.6871  1.0271 -0.0940
  237MOL0     H31958   5.419   3.543   3.851  0.7111 -0.8068  0.3366
  237MOL0     H31959   5.524   3.896   4.107 -4.2679 -1.2769  0.8159
  237MOL0     H31960   5.520   3.776   4.245 -2.8881 -0.0849 -0.3181
  237MOL0     H31961   5.735   3.887   4.224 -2.4559  1.9869 -0.5924
  237MOL0     H31962   5.763   3.720   4.146  0.4761 -0.2882 -3.3563
  237MOL0     H31963   5.738   3.828   3.919  3.8353  0.2109 -1.1672
  237MOL0     H31964   5.707   3.978   4.004 -0.9242 -0.1279  0.5121
  237MOL0     H31965   5.934   3.914   4.122 -0.7155 -0.4411  0.6826
  237MOL0     H31966   5.943   3.964   3.951  0.8639 -1.7503 -1.9672
  237MOL0     H31967   5.920   3.724   3.880  0.3703  0.7566 -0.4180
  237MOL0     H31968   5.937   3.687   4.052  3.8374 -1.6278  0.5962
  237MOL0     H31969   6.144   3.817   3.862  0.7261 -0.0805  0.6855
  237MOL0     H31970   6.181   3.778   4.032  0.1621 -0.0994 -0.5616
  237MOL0     H31971   6.093   3.547   3.857 -0.2931 -2.1496  1.1387
  237MOL0     H31972   6.128   3.561   4.028 -0.3297 -0.5771 -0.4517
  237MOL0     H31973   6.362   3.667   3.923 -0.9272  0.5534 -1.8295
  237MOL0     H31974   6.345   3.490   3.941  2.0952 -0.2475 -1.1846
  237MOL0     H31975   5.281   3.764   4.200  2.6573 -1.9252  1.1767
  237MOL0     H31976   5.073   3.675   4.178  1.1811  4.2507  0.0348
  237MOL0     H31977   4.840   3.379   3.837  0.3021 -4.3504 -1.1765
  237MOL0     H31978   4.611   3.293   3.772  0.5987  1.6989  0.2936
  237MOL0     H31979   2.384   2.975   4.119  0.8152  0.2277  0.8470
  237MOL0     H31980   2.205   3.151   4.145  0.7814 -1.2964  0.4282
  237MOL0     H31981   2.287   3.615   4.200  0.8833  1.3708 -0.3613
  237MOL0     H31982   2.259   3.849   4.257 -0.9871 -0.8616  2.9932
  237MOL0     H31983   2.207   4.048   4.148  0.5041  0.7369  0.2593
  237MOL0     H31984   2.214   4.087   4.320  2.0366  2.2308 -1.6781
  237MOL0     H31985   2.006   4.211   4.125 -1.0887 -1.0183 -0.8020
  237MOL0     H31986   2.161   4.284   4.164 -3.4818  1.7314 -4.3024
  237MOL0     H31987   1.991   4.200   4.397 -1.2805  2.4118  1.2487
  237MOL0     H31988   1.919   4.321   4.293 -0.3735 -0.9449  0.1153
  237MOL0     H31989   2.110   4.458   4.303 -0.6551  1.5472  1.3416
  237MOL0     H31990   2.027   4.437   4.460 -2.2699 -0.7601 -0.0022
  237MOL0     H31991   2.408   4.253   4.541 -1.0824 -1.5605 -1.8238
  237MOL0     H31992   1.844   3.820   4.158 -1.2821 -2.0207  1.2526
  237MOL0     H31993   1.871   3.474   4.021 -0.3457 -0.5551  0.7210
  237MOL0     H31994   1.775   3.538   4.148  3.2189  1.0914  3.3673
  237MOL0     H31995   1.789   3.629   3.995  0.4555  0.3578 -1.2279
  238MOL0     O31996   1.446   1.559   9.034  0.0185 -0.1596 -0.7612
  238MOL0     C31997   1.502   1.495   9.122 -0.4810 -0.9156  0.0350
  238MOL0     O31998   1.638   1.497   9.146 -0.3818 -0.3540  0.1490
  238MOL0     C31999   1.720   1.581   9.083  0.2105  0.3670 -0.0551
  238MOL0     C32000   1.770   1.696   9.150  0.4514 -0.6756  0.1830
  238MOL0     C32001   1.867   1.773   9.095 -0.1989 -1.0183 -0.5596
  238MOL0     C32002   1.909   1.765   8.967 -0.3167  0.0608 -0.1657
  238MOL0     O32003   2.005   1.853   8.935 -0.5603 -0.2303  0.8832
  238MOL0     C32004   2.075   1.857   8.803  0.9639 -0.3372 -0.9462
  238MOL0     C32005   2.189   1.750   8.808  0.9517 -0.4727  1.1332
  238MOL0     C32006   2.305   1.786   8.710 -0.1063 -0.5110 -0.1893
  238MOL0     C32007   2.361   1.666   8.645 -0.2652  0.9283  0.5990
  238MOL0     C32008   2.490   1.702   8.576 -0.5520 -0.3183 -0.5050
  238MOL0     C32009   2.542   1.597   8.475 -0.1230 -0.6344  0.1999
  238MOL0     C32010   2.656   1.652   8.381  0.4202  0.9339  0.6718
  238MOL0     C32011   2.785   1.619   8.435  0.0293  0.3435  0.8072
  238MOL0     N32012   2.804   1.684   8.560  0.2086  0.9430  0.1174
  238MOL0     C32013   2.829   1.816   8.581 -0.3188 -0.7292 -0.0053
  238MOL0     C32014   2.862   1.811   8.710  0.6876 -0.4002  0.0191
  238MOL0     C32015   2.886   1.932   8.798  0.1155 -0.1727  0.3042
  238MOL0     C32016   2.752   2.002   8.838  0.0944  0.4409  0.9301
  238MOL0     C32017   2.767   2.146   8.888 -0.7147  0.1197  0.3797
  238MOL0     C32018   2.867   2.164   9.005 -0.7046 -0.2486  0.3992
  238MOL0     O32019   2.994   2.178   8.933  0.2020 -0.4187  0.6118
  238MOL0     C32020   3.113   2.157   9.000  0.0299  0.1139  0.2758
  238MOL0     C32021   3.230   2.117   8.926 -0.0990 -0.6495  0.2977
  238MOL0     C32022   3.357   2.107   8.993 -0.6124 -0.0289  0.2262
  238MOL0     C32023   3.367   2.128   9.132 -0.2866  0.5913  0.4912
  238MOL0     C32024   3.506   2.134   9.186 -0.3452  0.0223  0.1260
  238MOL0     O32025   3.512   2.141   9.319  0.1097 -0.4867 -0.2888
  238MOL0     C32026   3.632   2.111   9.381 -0.1438 -0.1043  0.6962
  238MOL0     C32027   3.639   1.977   9.424 -0.9423  0.1175  0.6421
  238MOL0     C32028   3.763   1.925   9.472  0.1354 -0.2244  1.7976
  238MOL0     C32029   3.875   2.021   9.502  0.2010 -0.5751 -0.3214
  238MOL0     O32030   3.991   1.988   9.572 -0.3977  0.4623  0.6319
  238MOL0     C32031   4.002   1.867   9.645 -0.0406  0.7448 -0.0349
  238MOL0     C32032   4.147   1.834   9.687  0.9425  0.3017 -0.5179
  238MOL0     C32033   4.208   1.944   9.779  0.1510  0.5239  0.3635
  238MOL0     C32034   4.362   1.926   9.774 -0.2667  0.1408 -0.1898
  238MOL0     C32035   4.407   1.782   9.817 -1.1364  0.0909 -0.2394
  238MOL0     C32036   4.345   1.741   9.946 -0.3697 -0.2559 -1.0856
  238MOL0     C32037   4.436   1.624   9.998  0.1986  0.4793  0.8854
  238MOL0     C32038   4.369   1.548  10.107 -0.7114  0.5222  1.0625
  238MOL0    Cl32039   4.232   1.443  10.041 -0.3182 -0.7167  0.4121
  238MOL0     C32040   3.865   2.146   9.461 -0.5407 -1.4545 -0.1657
  238MOL0     C32041   3.746   2.192   9.399 -0.5383  0.1625 -0.3618
  238MOL0     O32042   3.604   2.117   9.109 -0.2120 -0.2280  0.3614
  238MOL0     C32043   3.248   2.155   9.200 -0.1010  0.7679 -0.7732
  238MOL0     C32044   3.129   2.182   9.133  0.4184  0.9883  0.7664
  238MOL0     N32045   2.858   1.689   8.766 -0.6926  0.0030 -0.1745
  238MOL0     N32046   2.814   1.613   8.670 -0.0991  0.2896  0.7104
  238MOL0     C32047   1.858   1.654   8.895 -0.6334  1.0435  0.0007
  238MOL0     C32048   1.775   1.561   8.959  0.1148  0.1162 -0.6652
  238MOL0     C32049   1.420   1.397   9.202  0.3829  0.3977  1.0931
  238MOL0     C32050   1.474   1.320   9.308 -0.1459  0.0237  0.0608
  238MOL0     C32051   1.403   1.229   9.391  0.2573 -0.3051  0.0617
  238MOL0     C32052   1.270   1.212   9.373  0.2207 -0.3950  0.7675
  238MOL0     O32053   1.203   1.149   9.478  0.5926  0.7257 -0.0773
  238MOL0     C32054   1.060   1.154   9.486  0.1578 -0.2092  0.3379
  238MOL0     C32055   1.005   1.074   9.610 -0.5496 -0.1693  0.2166
  238MOL0     C32056   0.850   1.051   9.605  0.0224 -0.1702  0.0825
  238MOL0     C32057   0.768   1.175   9.615 -0.0472 -0.0330 -1.0386
  238MOL0     C32058   0.622   1.134   9.620 -0.9738 -0.9286  0.5480
  238MOL0     C32059   0.504   1.106   9.623  0.2883 -0.8167 -0.2635
  238MOL0     C32060   1.212   1.275   9.259 -0.2083  0.7022  0.3338
  238MOL0     C32061   1.280   1.365   9.174  0.6440 -0.3265 -0.1373
  238MOL0     C32062   1.195   1.429   9.070 -0.3271 -0.3004  0.6327
  238MOL0     H32063   1.746   1.716   9.254  1.7961 -3.6777  1.1779
  238MOL0     H32064   1.903   1.857   9.153  1.4300 -1.9985 -0.0860
  238MOL0     H32065   1.996   1.839   8.730 -1.3411 -0.1200  1.3549
  238MOL0     H32066   2.124   1.954   8.790  1.4481 -0.6596 -1.5560
  238MOL0     H32067   2.147   1.651   8.787 -1.7353  0.6723  0.7207
  238MOL0     H32068   2.218   1.747   8.913 -1.3028  0.0294  1.8073
  238MOL0     H32069   2.380   1.840   8.767 -1.1089  0.6868  0.0277
  238MOL0     H32070   2.254   1.857   8.644 -0.5550  0.4128  1.1300
  238MOL0     H32071   2.394   1.590   8.716 -1.2830  1.1125  1.2943
  238MOL0     H32072   2.282   1.634   8.576 -0.3321 -0.1268  1.1369
  238MOL0     H32073   2.471   1.789   8.512  0.2345  0.3797  0.1785
  238MOL0     H32074   2.573   1.710   8.647 -0.3339 -0.1127 -0.7801
  238MOL0     H32075   2.582   1.516   8.537  1.1316  1.7165  2.6322
  238MOL0     H32076   2.468   1.562   8.402  0.8552  0.2017 -1.2494
  238MOL0     H32077   2.640   1.758   8.360 -4.3568  0.2085 -0.5329
  238MOL0     H32078   2.640   1.615   8.279 -0.3125  1.9035  0.4228
  238MOL0     H32079   2.788   1.512   8.455 -3.4829  0.0852  0.6618
  238MOL0     H32080   2.866   1.641   8.366 -0.9432 -0.6908 -0.7275
  238MOL0     H32081   2.834   1.891   8.503 -1.5251  0.9385  1.4493
  238MOL0     H32082   2.937   1.901   8.890 -0.1234 -0.8025  0.2277
  238MOL0     H32083   2.955   1.999   8.748  1.1049 -1.4068 -0.0321
  238MOL0     H32084   2.699   2.010   8.742  1.1454 -0.7982  0.2254
  238MOL0     H32085   2.682   1.949   8.903 -0.9465 -1.0034 -1.2425
  238MOL0     H32086   2.667   2.168   8.926 -2.4900 -3.3978 -1.7917
  238MOL0     H32087   2.793   2.211   8.804  0.8757  1.0322  1.5133
  238MOL0     H32088   2.865   2.077   9.071 -1.2581  0.1839  0.9747
  238MOL0     H32089   2.826   2.257   9.047  1.4909  0.5203  0.9710
  238MOL0     H32090   3.214   2.097   8.820  0.8307 -0.0234  0.0225
  238MOL0     H32091   3.430   2.065   8.925 -1.8812 -1.9958 -0.0075
  238MOL0     H32092   3.554   1.910   9.433 -0.8488  0.2774  4.4500
  238MOL0     H32093   3.747   1.823   9.505 -0.4103 -0.4235  0.9424
  238MOL0     H32094   3.938   1.860   9.733  0.7086 -0.1938  0.4547
  238MOL0     H32095   3.973   1.789   9.573  2.8519  2.5074 -3.4073
  238MOL0     H32096   4.156   1.737   9.737 -2.6056 -0.5931 -1.3115
  238MOL0     H32097   4.201   1.823   9.593  2.3181  0.5681  0.2192
  238MOL0     H32098   4.175   2.040   9.739 -1.8076 -0.2085  0.1107
  238MOL0     H32099   4.163   1.933   9.878  0.8919  1.0868  0.7732
  238MOL0     H32100   4.396   2.004   9.843  0.1205  0.0807 -0.3079
  238MOL0     H32101   4.402   1.939   9.673 -0.6319  0.0034 -0.3524
  238MOL0     H32102   4.516   1.781   9.819 -1.0043 -0.8048 -2.9741
  238MOL0     H32103   4.379   1.710   9.740 -1.5403 -0.4047  0.3627
  238MOL0     H32104   4.333   1.827  10.012  1.5159 -0.3058 -0.6312
  238MOL0     H32105   4.250   1.687   9.937 -1.1887  0.2644  2.6799
  238MOL0     H32106   4.529   1.668  10.037 -0.7110  1.4054  2.1182
  238MOL0     H32107   4.457   1.561   9.911 -1.2762  2.1497 -0.7755
  238MOL0     H32108   4.441   1.477  10.148 -1.6555 -1.5435 -0.7125
  238MOL0     H32109   4.349   1.612  10.194 -0.6520 -1.2439  2.4331
  238MOL0     H32110   3.954   2.205   9.481 -1.8221  0.7127 -0.5103
  238MOL0     H32111   3.753   2.291   9.356  2.9839 -0.4229 -1.4522
  238MOL0     H32112   3.272   2.178   9.303 -2.2576  2.0070 -0.4929
  238MOL0     H32113   3.049   2.228   9.190  0.0498  0.3372  0.7909
  238MOL0     H32114   1.902   1.637   8.797  1.2953  0.9465  0.8580
  238MOL0     H32115   1.736   1.480   8.897  0.1802  1.3547 -2.4234
  238MOL0     H32116   1.582   1.318   9.320 -0.2483 -1.7150  1.0066
  238MOL0     H32117   1.460   1.180   9.470  2.5188 -2.4867 -2.7201
  238MOL0     H32118   1.017   1.116   9.393 -0.0754  0.9236 -0.0307
  238MOL0     H32119   1.019   1.255   9.494 -2.0615 -0.9301 -1.2395
  238MOL0     H32120   1.041   1.124   9.700 -0.6198 -0.2696  0.3018
  238MOL0     H32121   1.051   0.974   9.617  0.8628  0.5285  1.4715
  238MOL0     H32122   0.827   0.990   9.692 -0.9480 -0.2546 -0.2248
  238MOL0     H32123   0.816   0.991   9.520 -3.6618  0.4723  0.9415
  238MOL0     H32124   0.795   1.239   9.700 -2.2127  0.0768 -0.3744
  238MOL0     H32125   0.787   1.233   9.524 -0.2181  1.0352 -0.4227
  238MOL0     H32126   0.398   1.092   9.623  0.2086 -0.2243 -0.0069
  238MOL0     H32127   1.112   1.239   9.240  0.4598 -1.1649  0.0822
  238MOL0     H32128   1.184   1.529   9.114 -1.3744 -0.8202  1.5892
  238MOL0     H32129   1.250   1.422   8.976 -1.3330 -2.6131  0.1610
  238MOL0     H32130   1.092   1.392   9.066 -0.6901  0.5869  1.4486
  239MOL0     O32131   8.810   7.025   2.159 -0.3680 -0.4087  0.4397
  239MOL0     C32132   8.758   7.120   2.108  0.4163 -0.4271  0.0534
  239MOL0     O32133   8.822   7.218   2.037 -0.1190  0.2274 -0.0510
  239MOL0     C32134   8.952   7.220   1.995 -0.2867 -0.7448  1.0897
  239MOL0     C32135   9.060   7.169   2.066 -0.8053 -0.9516  0.6606
  239MOL0     C32136   9.196   7.166   2.017  0.5203  0.4326 -0.0517
  239MOL0     C32137   9.224   7.249   1.905  0.6326 -0.3460  0.5202
  239MOL0     O32138   9.347   7.251   1.848  0.2039  0.2202 -0.8407
  239MOL0     C32139   9.462   7.222   1.935 -0.5841 -0.2003  0.4903
  239MOL0     C32140   9.587   7.226   1.851  0.2768  0.2194 -0.1254
  239MOL0     C32141   9.697   7.148   1.920  0.6000  0.5830  0.2901
  239MOL0     C32142   9.828   7.144   1.824  0.5898  0.1149  0.2252
  239MOL0     C32143   9.917   7.027   1.824 -0.3361  0.4546 -0.0543
  239MOL0     C32144   9.960   6.985   1.961  0.2500  0.2478 -0.7649
  239MOL0     C32145  10.062   6.866   1.950  0.0564 -0.4811 -0.3724
  239MOL0     C32146  10.068   6.812   2.094  0.5418 -0.0298  0.0546
  239MOL0     N32147  10.198   6.732   2.099 -0.5871  0.6716 -0.3848
  239MOL0     C32148  10.201   6.606   2.152 -0.9743 -0.6142 -0.1171
  239MOL0     C32149  10.329   6.562   2.126 -1.7625 -0.9004 -0.6458
  239MOL0     C32150  10.384   6.432   2.172  0.0159  0.4022  0.0718
  239MOL0     C32151  10.448   6.359   2.050  0.2486  0.0139 -0.1266
  239MOL0     C32152  10.513   6.229   2.095 -0.3276  0.1303  0.0658
  239MOL0     C32153  10.569   6.155   1.971 -0.7086 -0.6032 -0.4777
  239MOL0     O32154  10.666   6.237   1.907 -0.2956  0.6168  0.6129
  239MOL0     C32155  10.791   6.259   1.961  0.5787  1.0448  0.6527
  239MOL0     C32156  10.841   6.385   1.947 -0.2728  0.4455  0.4109
  239MOL0     C32157  10.975   6.423   1.984  0.0564 -0.3569  0.3111
  239MOL0     C32158  11.057   6.329   2.039 -0.0497 -0.3719  0.7165
  239MOL0     C32159  11.203   6.358   2.074  0.4771  0.3254 -0.4108
  239MOL0     O32160  11.272   6.257   2.132 -0.1478 -0.2232 -0.1461
  239MOL0     C32161  11.403   6.280   2.161 -0.4649 -0.0007  0.2809
  239MOL0     C32162  11.453   6.374   2.250 -0.2540  0.4991  0.5948
  239MOL0     C32163  11.587   6.377   2.287  0.0472  0.0472  0.7499
  239MOL0     C32164  11.673   6.284   2.237 -0.3741 -0.0122 -0.0671
  239MOL0     O32165  11.806   6.308   2.275  0.2347 -0.1587 -0.3734
  239MOL0     C32166  11.872   6.409   2.196 -0.3913 -0.0444 -0.4701
  239MOL0     C32167  11.991   6.468   2.281  0.3625 -0.4849  0.2196
  239MOL0     C32168  12.116   6.380   2.264 -1.0823  0.0599  0.1657
  239MOL0     C32169  12.231   6.455   2.334  0.5108 -0.6275  0.4233
  239MOL0     C32170  12.361   6.394   2.325  0.5021 -0.3423  0.2997
  239MOL0     C32171  12.378   6.271   2.413 -0.1335 -1.0421  0.3535
  239MOL0     C32172  12.526   6.228   2.399 -0.1739  0.0569 -0.2888
  239MOL0     C32173  12.575   6.171   2.529 -0.3695  0.8124 -0.0396
  239MOL0    Cl32174  12.736   6.116   2.514  0.2972  0.5697  0.2382
  239MOL0     C32175  11.628   6.191   2.146  0.7476 -0.4929 -0.3552
  239MOL0     C32176  11.488   6.180   2.114 -0.5409 -0.6101 -0.4419
  239MOL0     O32177  11.242   6.473   2.052  0.8548 -0.5929  0.0885
  239MOL0     C32178  11.006   6.197   2.060 -0.4967  0.7013  0.0716
  239MOL0     C32179  10.878   6.162   2.014 -0.3180 -0.0805 -0.0568
  239MOL0     N32180  10.398   6.663   2.056 -0.0083  0.0958 -0.0101
  239MOL0     N32181  10.326   6.760   2.053  0.0587  0.0431  0.0189
  239MOL0     C32182   9.113   7.310   1.839  0.7192  0.7468  0.3132
  239MOL0     C32183   8.981   7.282   1.868  0.4609 -0.4526 -0.2989
  239MOL0     C32184   8.606   7.124   2.131 -0.8551 -0.2486 -0.4265
  239MOL0     C32185   8.544   7.243   2.095 -0.5711  0.1672  0.6152
  239MOL0     C32186   8.404   7.247   2.083  0.8194 -0.2003 -1.0474
  239MOL0     C32187   8.320   7.143   2.122  0.7185 -0.5982 -0.7054
  239MOL0     O32188   8.188   7.147   2.114  0.0817  0.0175  0.3412
  239MOL0     C32189   8.125   7.259   2.166  0.9032 -1.0549  0.6300
  239MOL0     C32190   7.982   7.233   2.145 -0.0191  0.0888  0.1130
  239MOL0     C32191   7.892   7.326   2.227 -0.3988 -0.8751 -0.4764
  239MOL0     C32192   7.750   7.306   2.201  0.1855  0.2402  0.0223
  239MOL0     C32193   7.672   7.412   2.270 -0.3319 -0.3511 -0.4356
  239MOL0     C32194   7.613   7.505   2.321  0.6551  1.3914 -0.2320
  239MOL0     C32195   8.381   7.028   2.175 -0.0717 -0.9584 -0.0681
  239MOL0     C32196   8.524   7.023   2.185  0.2351 -0.4661 -0.1266
  239MOL0     C32197   8.577   6.902   2.252 -0.5995 -0.4975  0.6063
  239MOL0     H32198   9.050   7.116   2.160  2.1058 -1.1710  0.9516
  239MOL0     H32199   9.269   7.104   2.067  2.7576  0.9653 -2.4482
  239MOL0     H32200   9.476   7.289   2.020  0.2218  1.6839 -1.0433
  239MOL0     H32201   9.448   7.118   1.966  1.1314 -0.4156  0.6030
  239MOL0     H32202   9.612   7.331   1.831 -0.1632  0.4431  0.4551
  239MOL0     H32203   9.578   7.181   1.752 -3.8408  1.9781 -0.7525
  239MOL0     H32204   9.665   7.045   1.935 -0.2178  0.3339 -2.5817
  239MOL0     H32205   9.727   7.195   2.014 -0.4538 -0.1865  1.0359
  239MOL0     H32206   9.801   7.155   1.719  3.6689 -1.4745 -0.8474
  239MOL0     H32207   9.905   7.217   1.849 -0.2908  1.4711 -0.8915
  239MOL0     H32208   9.870   6.938   1.780  1.6603  0.8285 -3.2356
  239MOL0     H32209  10.004   7.038   1.759 -0.4815 -0.4336 -0.4184
  239MOL0     H32210  10.012   7.068   2.009  0.0501 -0.7092  1.2330
  239MOL0     H32211   9.878   6.958   2.028 -0.0191  0.6884 -0.9171
  239MOL0     H32212  10.163   6.896   1.921  1.1036  0.1220  3.3857
  239MOL0     H32213  10.017   6.794   1.880 -0.2356  1.9517 -2.8737
  239MOL0     H32214  10.064   6.894   2.166 -0.8579 -1.2596  1.4561
  239MOL0     H32215   9.984   6.752   2.130  0.1019  1.4365  1.5606
  239MOL0     H32216  10.131   6.550   2.214  1.0510 -3.6764 -0.3946
  239MOL0     H32217  10.463   6.451   2.246 -0.4075  1.3926  0.2927
  239MOL0     H32218  10.299   6.373   2.207  0.0670  0.1634 -0.2055
  239MOL0     H32219  10.385   6.335   1.964  0.2862 -1.2496  0.1771
  239MOL0     H32220  10.515   6.432   2.003 -1.9498  3.2276  1.3011
  239MOL0     H32221  10.446   6.162   2.148 -0.4109  0.6612  0.6436
  239MOL0     H32222  10.599   6.250   2.159 -0.5504 -0.7111  0.6468
  239MOL0     H32223  10.496   6.132   1.893  0.2712 -0.5594 -1.4308
  239MOL0     H32224  10.625   6.069   2.011  2.0985  2.0743  1.8270
  239MOL0     H32225  10.783   6.457   1.890  0.4057  0.3439 -0.4264
  239MOL0     H32226  11.003   6.525   1.960 -1.7340  1.3315  4.5250
  239MOL0     H32227  11.382   6.447   2.288 -1.8743 -0.9037  0.3570
  239MOL0     H32228  11.627   6.462   2.341  1.9696  0.8259 -1.6822
  239MOL0     H32229  11.904   6.360   2.104 -3.8579 -1.5050 -1.0564
  239MOL0     H32230  11.809   6.498   2.182  1.7322  1.8680  1.3086
  239MOL0     H32231  12.011   6.559   2.225 -2.1187 -0.6414 -1.0358
  239MOL0     H32232  11.960   6.485   2.385 -1.7258 -1.7325 -0.1346
  239MOL0     H32233  12.107   6.279   2.306 -1.8134  1.1782  2.9209
  239MOL0     H32234  12.136   6.373   2.157  0.0666 -0.0330  0.3748
  239MOL0     H32235  12.205   6.448   2.440  0.1597  1.2254  0.4980
  239MOL0     H32236  12.236   6.561   2.307  2.2184 -1.6151 -4.1178
  239MOL0     H32237  12.426   6.479   2.349  1.2973 -0.3301 -1.7252
  239MOL0     H32238  12.387   6.373   2.221  3.7175  2.2381  0.4044
  239MOL0     H32239  12.347   6.311   2.510 -1.0368  1.5071 -0.8774
  239MOL0     H32240  12.310   6.192   2.380 -1.9883  0.0329  1.4026
  239MOL0     H32241  12.591   6.309   2.363  0.5226 -0.7459 -0.8891
  239MOL0     H32242  12.523   6.147   2.326 -1.5491 -1.0870  0.9731
  239MOL0     H32243  12.558   6.244   2.609 -1.3304 -0.3684  0.8548
  239MOL0     H32244  12.518   6.085   2.566  0.3541  0.5262  0.4292
  239MOL0     H32245  11.701   6.118   2.111  1.1661 -0.4407  0.3771
  239MOL0     H32246  11.466   6.097   2.046  2.2454 -0.5894 -1.4824
  239MOL0     H32247  11.061   6.122   2.116 -1.7080 -0.1244  0.2099
  239MOL0     H32248  10.840   6.061   2.026  1.2803 -0.4357  2.9244
  239MOL0     H32249   9.133   7.360   1.745 -1.2702 -0.5688 -0.8957
  239MOL0     H32250   8.899   7.333   1.819 -0.6588 -2.6712 -0.8346
  239MOL0     H32251   8.599   7.330   2.061 -2.5121  1.7343  1.2669
  239MOL0     H32252   8.354   7.336   2.044  1.8997 -0.0205 -2.1015
  239MOL0     H32253   8.142   7.348   2.105 -0.5045  0.0382  1.7622
  239MOL0     H32254   8.162   7.276   2.268  2.1435  3.1574 -0.3020
  239MOL0     H32255   7.968   7.131   2.182 -2.2024  0.9042  1.7791
  239MOL0     H32256   7.961   7.235   2.038  0.0091 -1.3453  0.0667
  239MOL0     H32257   7.923   7.430   2.210 -1.3669 -0.6262 -0.7665
  239MOL0     H32258   7.910   7.310   2.333 -0.5543 -2.5091 -0.6678
  239MOL0     H32259   7.741   7.311   2.092  0.2451  0.0850  0.0089
  239MOL0     H32260   7.733   7.201   2.229 -0.8017 -0.2136 -2.0191
  239MOL0     H32261   7.580   7.593   2.373  2.8904  1.1350  1.8581
  239MOL0     H32262   8.307   6.955   2.208 -1.7100  1.3069  1.6399
  239MOL0     H32263   8.633   6.938   2.339 -0.4195 -0.0712  0.3140
  239MOL0     H32264   8.494   6.847   2.298 -0.4312 -0.3230  1.1246
  239MOL0     H32265   8.635   6.839   2.183  0.0093 -0.2380  0.8704
  240MOL0     O32266  10.470  10.556   6.139  0.4814  0.3276  0.4334
  240MOL0     C32267  10.451  10.432   6.117 -1.0858  0.1121  0.8093
  240MOL0     O32268  10.549  10.349   6.074 -0.1614  0.6984 -0.0421
  240MOL0     C32269  10.684  10.379   6.077 -0.1474 -0.2029 -0.8095
  240MOL0     C32270  10.733  10.421   6.190 -1.0476  0.2385 -1.2498
  240MOL0     C32271  10.872  10.462   6.191 -0.2445  0.1901  0.1208
  240MOL0     C32272  10.954  10.461   6.075 -0.2122 -0.0741  0.0225
  240MOL0     O32273  11.081  10.511   6.088 -0.2004 -0.1855  0.0460
  240MOL0     C32274  11.180  10.473   5.993 -0.0058 -0.5214 -0.3176
  240MOL0     C32275  11.305  10.530   6.042 -0.5738 -0.0366  0.6142
  240MOL0     C32276  11.298  10.680   6.081  0.7112  0.3791 -0.1410
  240MOL0     C32277  11.256  10.777   5.971  0.7762  0.1579  0.8527
  240MOL0     C32278  11.207  10.910   6.018 -0.5132  0.7159  0.2020
  240MOL0     C32279  11.327  10.991   6.083 -0.4100  0.6257  0.3501
  240MOL0     C32280  11.446  11.014   5.980 -0.6813 -0.1407 -0.4438
  240MOL0     C32281  11.567  11.080   6.051 -0.9589 -0.4830 -0.7141
  240MOL0     N32282  11.537  11.216   6.098  0.1390  0.0015  0.0394
  240MOL0     C32283  11.552  11.263   6.226 -0.2255  0.2723 -0.1001
  240MOL0     C32284  11.529  11.395   6.222  0.7230 -0.1211 -0.0855
  240MOL0     C32285  11.537  11.494   6.333 -0.2979 -0.0546 -0.3664
  240MOL0     C32286  11.663  11.577   6.334 -0.0695 -0.9343 -0.2718
  240MOL0     C32287  11.789  11.503   6.386  0.2065 -0.0492  0.2823
  240MOL0     C32288  11.915  11.588   6.401 -1.1537  0.5524 -0.0340
  240MOL0     O32289  12.023  11.497   6.445 -0.5124 -0.9187  0.1472
  240MOL0     C32290  12.125  11.552   6.526  0.6069  0.2336  0.1155
  240MOL0     C32291  12.137  11.689   6.562 -0.3293  0.3193  0.0966
  240MOL0     C32292  12.237  11.734   6.647  0.1349  0.2838  0.7044
  240MOL0     C32293  12.333  11.637   6.690 -0.0116 -0.8028 -0.1967
  240MOL0     C32294  12.447  11.675   6.775  0.3093 -0.7924 -0.4801
  240MOL0     O32295  12.501  11.587   6.861  0.6558  0.0349  0.1849
  240MOL0     C32296  12.639  11.602   6.886  1.0610  0.2982  0.4171
  240MOL0     C32297  12.683  11.509   6.984  0.2272 -0.1598 -1.2399
  240MOL0     C32298  12.820  11.517   7.017 -0.4784 -1.4737  0.2828
  240MOL0     C32299  12.915  11.609   6.946  0.3452 -0.0805  0.1724
  240MOL0     O32300  13.044  11.617   6.973  0.5738  0.2814 -0.2092
  240MOL0     C32301  13.075  11.658   7.113  0.4224 -0.3822  0.8872
  240MOL0     C32302  13.129  11.530   7.185  1.6334  0.4385 -0.2474
  240MOL0     C32303  13.255  11.465   7.126  0.2650  0.2246  0.3656
  240MOL0     C32304  13.340  11.392   7.231 -0.4592  0.5971  0.5188
  240MOL0     C32305  13.438  11.291   7.157 -0.0421  0.6501  0.2464
  240MOL0     C32306  13.372  11.162   7.105 -0.0424 -0.1135  0.0400
  240MOL0     C32307  13.465  11.045   7.109  0.1697  0.4123 -0.2241
  240MOL0     C32308  13.415  10.928   7.015 -0.0443  0.2321  0.1456
  240MOL0    Cl32309  13.473  10.960   6.845  0.2162  0.2861  0.3261
  240MOL0     C32310  12.862  11.690   6.847  0.3499  0.0698  0.0838
  240MOL0     C32311  12.727  11.680   6.814  0.2477  0.0062 -0.2045
  240MOL0     O32312  12.480  11.790   6.761 -0.0714  0.2704 -0.0691
  240MOL0     C32313  12.327  11.503   6.651  0.0198 -1.0270  0.4178
  240MOL0     C32314  12.226  11.460   6.560  0.0566 -0.0207  0.2851
  240MOL0     N32315  11.499  11.423   6.084  0.0204  0.9330 -0.8742
  240MOL0     N32316  11.505  11.315   6.017  0.4563  0.1379  0.1782
  240MOL0     C32317  10.898  10.413   5.953 -0.0790  0.5018 -0.2201
  240MOL0     C32318  10.761  10.393   5.960 -0.5994  0.1848 -0.1476
  240MOL0     C32319  10.315  10.382   6.127 -0.0259 -0.6498  0.0347
  240MOL0     C32320  10.250  10.417   6.247 -0.2695  0.7154 -0.2426
  240MOL0     C32321  10.118  10.385   6.255 -0.0611  0.3467  0.5824
  240MOL0     C32322  10.053  10.304   6.162  0.3352  1.1254 -0.1329
  240MOL0     O32323   9.928  10.247   6.174  0.9594  0.4288 -0.1613
  240MOL0     C32324   9.859  10.272   6.295 -0.4082  0.1013 -0.3168
  240MOL0     C32325   9.728  10.194   6.294  1.2556 -0.6083  0.3981
  240MOL0     C32326   9.734  10.045   6.278 -0.2868 -0.2258  0.7303
  240MOL0     C32327   9.713   9.957   6.405 -0.4817 -0.2679  0.6038
  240MOL0     C32328   9.709   9.810   6.387 -0.1733 -0.6167 -0.6522
  240MOL0     C32329   9.717   9.694   6.356  1.7237  0.8049 -0.0032
  240MOL0     C32330  10.119  10.279   6.041 -0.7604 -0.4190  0.2737
  240MOL0     C32331  10.249  10.322   6.019 -0.3915 -0.8421 -0.5790
  240MOL0     C32332  10.312  10.303   5.879 -0.6829 -1.0892  0.1009
  240MOL0     H32333  10.675  10.423   6.282  0.4323 -1.2110 -0.2113
  240MOL0     H32334  10.908  10.503   6.285 -1.7058 -1.7269  1.6174
  240MOL0     H32335  11.191  10.365   5.984 -2.9486 -0.9281  0.0759
  240MOL0     H32336  11.156  10.503   5.891 -0.0831 -0.0332 -0.1570
  240MOL0     H32337  11.389  10.517   5.973 -1.6897 -2.1152 -0.4362
  240MOL0     H32338  11.327  10.475   6.134  0.0457 -0.0003  0.4894
  240MOL0     H32339  11.395  10.712   6.121 -0.0363 -0.3664  2.4883
  240MOL0     H32340  11.229  10.694   6.165  0.8312  0.7053 -0.0938
  240MOL0     H32341  11.327  10.788   5.888 -0.4899  0.1627 -0.2640
  240MOL0     H32342  11.167  10.735   5.925  2.0142 -1.4238 -0.1918
  240MOL0     H32343  11.174  10.968   5.931  0.1840 -0.2967 -0.7488
  240MOL0     H32344  11.119  10.908   6.083 -0.6326  1.9937  0.1203
  240MOL0     H32345  11.304  11.094   6.112  0.9640  0.7547  1.0621
  240MOL0     H32346  11.359  10.943   6.176  0.9296 -1.8074 -1.2619
  240MOL0     H32347  11.420  11.073   5.891  2.3190 -0.1233 -1.4206
  240MOL0     H32348  11.487  10.920   5.942  1.9329  1.2126 -1.1909
  240MOL0     H32349  11.609  11.013   6.126  1.0368 -0.2483 -1.5766
  240MOL0     H32350  11.647  11.087   5.977  0.8133 -1.5626  1.0044
  240MOL0     H32351  11.579  11.200   6.309  1.1571 -1.4966 -1.8039
  240MOL0     H32352  11.450  11.556   6.307 -2.1566 -2.4730 -0.2850
  240MOL0     H32353  11.520  11.448   6.431  1.2894  2.1924  1.0722
  240MOL0     H32354  11.679  11.606   6.230 -0.1628  0.3943  0.0737
  240MOL0     H32355  11.639  11.666   6.393 -0.6079 -0.7918 -0.6979
  240MOL0     H32356  11.816  11.421   6.319  0.4331 -0.0398  0.3625
  240MOL0     H32357  11.770  11.458   6.483  0.0041 -0.9929 -0.1845
  240MOL0     H32358  11.898  11.672   6.468  0.4620  1.4124 -0.6511
  240MOL0     H32359  11.940  11.637   6.306 -1.5318 -1.3964 -1.2084
  240MOL0     H32360  12.072  11.759   6.512 -0.1858  0.5326  0.2088
  240MOL0     H32361  12.246  11.840   6.669 -3.0266  1.0361 -1.0248
  240MOL0     H32362  12.618  11.442   7.039  0.2892  1.0899  0.4604
  240MOL0     H32363  12.868  11.457   7.093 -2.0464 -0.9775  1.7042
  240MOL0     H32364  13.144  11.743   7.116  0.3843 -0.3220  0.2623
  240MOL0     H32365  12.984  11.694   7.163  0.7884  0.7155  0.7862
  240MOL0     H32366  13.160  11.574   7.281 -2.6343 -0.1647  1.6129
  240MOL0     H32367  13.055  11.453   7.208  0.8741  1.1955 -0.0951
  240MOL0     H32368  13.219  11.386   7.060  1.7422  0.3527 -0.6603
  240MOL0     H32369  13.307  11.533   7.058  1.4340 -1.5187 -0.5624
  240MOL0     H32370  13.278  11.334   7.300  0.6099 -0.0750  0.9584
  240MOL0     H32371  13.399  11.467   7.284  1.2736  0.2399 -0.8042
  240MOL0     H32372  13.516  11.273   7.232  2.4668 -0.7689 -2.4878
  240MOL0     H32373  13.490  11.340   7.074 -2.3713  2.3791 -0.2911
  240MOL0     H32374  13.288  11.142   7.171  0.8799  2.5794  2.2575
  240MOL0     H32375  13.337  11.185   7.004 -3.3622  0.3039  1.1688
  240MOL0     H32376  13.468  11.013   7.213 -1.4084  1.9254  0.3356
  240MOL0     H32377  13.568  11.057   7.074  0.1604 -1.1238 -0.8953
  240MOL0     H32378  13.462  10.832   7.040 -0.7551 -0.2433 -0.2918
  240MOL0     H32379  13.308  10.905   7.025 -0.1753  1.7353  4.4494
  240MOL0     H32380  12.936  11.756   6.801 -1.0017 -0.2384 -2.7253
  240MOL0     H32381  12.714  11.744   6.727  2.1401 -1.3447 -1.5807
  240MOL0     H32382  12.404  11.432   6.680  1.6879  1.1997  1.8234
  240MOL0     H32383  12.232  11.358   6.523  1.8634  0.8742 -2.1505
  240MOL0     H32384  10.948  10.406   5.857 -0.3871  0.8106 -0.4035
  240MOL0     H32385  10.701  10.380   5.870 -1.6533  0.4788  0.4878
  240MOL0     H32386  10.307  10.463   6.327  0.4999  0.8482 -0.8535
  240MOL0     H32387  10.064  10.404   6.347 -0.6925 -0.6192  0.4291
  240MOL0     H32388   9.839  10.380   6.295  0.6391  0.3072 -1.0020
  240MOL0     H32389   9.917  10.238   6.381 -0.2445  2.2393  0.4740
  240MOL0     H32390   9.657  10.239   6.224  1.4866 -0.3541  0.3256
  240MOL0     H32391   9.687  10.210   6.395  1.7964 -0.5911  0.6181
  240MOL0     H32392   9.822  10.025   6.217 -0.3553 -1.2137  0.9345
  240MOL0     H32393   9.658  10.016   6.205 -0.8611  2.3021  0.2168
  240MOL0     H32394   9.796   9.974   6.474  0.6923 -0.8451 -0.6103
  240MOL0     H32395   9.617   9.990   6.446  0.0556  0.0316  1.6320
  240MOL0     H32396   9.714   9.588   6.337 -0.9113  0.6089  1.1378
  240MOL0     H32397  10.058  10.229   5.967  0.6099 -1.0262 -0.4718
  240MOL0     H32398  10.407  10.254   5.901  0.5950  1.5125  0.7917
  240MOL0     H32399  10.244  10.251   5.811 -0.9185  0.9320 -1.3323
  240MOL0     H32400  10.329  10.399   5.829  0.4707 -0.8928  0.8502
  241MOL0     O32401   1.623   7.577  10.186  0.1896 -0.1279 -0.0960
  241MOL0     C32402   1.522   7.510  10.208 -0.0528  0.2725  0.1051
  241MOL0     O32403   1.522   7.387  10.267 -0.8728 -0.0039  0.0660
  241MOL0     C32404   1.624   7.293  10.261  0.4986 -0.5552  0.4018
  241MOL0     C32405   1.590   7.173  10.317 -0.2590 -0.3069 -0.4875
  241MOL0     C32406   1.671   7.060  10.311  0.2625 -0.5912  0.8615
  241MOL0     C32407   1.802   7.062  10.255  0.6220  1.0838  0.0322
  241MOL0     O32408   1.898   6.961  10.248  0.4346  0.2115 -0.5439
  241MOL0     C32409   1.850   6.827  10.259 -0.4193  0.2488 -0.2659
  241MOL0     C32410   1.889   6.770  10.395  0.4587  0.4791  0.4078
  241MOL0     C32411   2.029   6.701  10.384  0.1266  0.0896  0.5213
  241MOL0     C32412   2.087   6.649  10.520 -0.4587  0.3408 -1.3773
  241MOL0     C32413   2.225   6.582  10.501 -0.4074  0.9962  0.3183
  241MOL0     C32414   2.263   6.498  10.625 -0.4631  0.3279  0.1343
  241MOL0     C32415   2.408   6.445  10.620  0.8816  0.0545  0.3472
  241MOL0     C32416   2.435   6.348  10.736  0.6891 -1.0841  0.6405
  241MOL0     N32417   2.570   6.305  10.752 -0.2784 -0.1814  0.0618
  241MOL0     C32418   2.671   6.307  10.657 -0.4244  0.0418 -0.4456
  241MOL0     C32419   2.783   6.280  10.728 -0.1815 -0.3169 -0.2567
  241MOL0     C32420   2.911   6.250  10.668  0.3348 -0.2927 -0.0089
  241MOL0     C32421   2.960   6.369  10.584  0.7307  0.1803 -0.0699
  241MOL0     C32422   2.938   6.512  10.621 -0.2358  0.2685  0.4634
  241MOL0     C32423   2.983   6.540  10.767 -0.0732  0.3041 -0.4230
  241MOL0     O32424   2.939   6.662  10.828 -0.8313 -1.0104 -1.2769
  241MOL0     C32425   2.814   6.693  10.829 -0.2019  0.3621  0.4946
  241MOL0     C32426   2.714   6.620  10.906  0.0115 -0.4445 -0.0537
  241MOL0     C32427   2.579   6.663  10.913  1.0629  1.1372 -0.8775
  241MOL0     C32428   2.541   6.779  10.845 -0.3879  0.1646 -0.0990
  241MOL0     C32429   2.403   6.820  10.831  0.3096  0.3974  0.9395
  241MOL0     O32430   2.362   6.891  10.716 -0.1093  0.2192 -0.6180
  241MOL0     C32431   2.246   6.967  10.709 -0.3275  0.3456 -0.8278
  241MOL0     C32432   2.183   6.982  10.582  0.5345 -0.0294 -0.5086
  241MOL0     C32433   2.078   7.065  10.569 -0.0359  0.2582  0.8943
  241MOL0     C32434   2.033   7.147  10.670 -0.6439 -0.2522 -0.2398
  241MOL0     O32435   1.939   7.249  10.659 -0.4977  0.2072  0.6366
  241MOL0     C32436   1.825   7.216  10.576  0.4339 -0.3324 -1.3146
  241MOL0     C32437   1.700   7.287  10.633 -1.1922 -0.8856  0.6620
  241MOL0     C32438   1.702   7.434  10.595  0.0347  0.3545  0.0425
  241MOL0     C32439   1.569   7.494  10.622 -0.2688 -0.6125 -0.5878
  241MOL0     C32440   1.569   7.645  10.636  0.0902  0.6225 -0.3597
  241MOL0     C32441   1.442   7.706  10.705  1.3137  0.2632  0.3727
  241MOL0     C32442   1.449   7.855  10.717  0.9337 -0.6301 -0.5792
  241MOL0     C32443   1.339   7.905  10.809  0.6258  0.2378  0.3013
  241MOL0    Cl32444   1.167   7.880  10.745  0.6535  0.3634 -0.2586
  241MOL0     C32445   2.099   7.132  10.795 -0.5839 -0.3031  0.3962
  241MOL0     C32446   2.199   7.031  10.815 -0.1110 -0.9109 -0.4348
  241MOL0     O32447   2.322   6.765  10.913 -0.3477 -0.7893 -0.1042
  241MOL0     C32448   2.641   6.849  10.766  1.2868  0.3359 -0.2973
  241MOL0     C32449   2.772   6.805  10.764 -0.7961 -0.8292 -0.2260
  241MOL0     N32450   2.749   6.256  10.859  0.3395 -0.0364  0.3318
  241MOL0     N32451   2.625   6.278  10.872  0.0698 -0.0068 -0.9914
  241MOL0     C32452   1.836   7.184  10.202  0.0187 -0.8614  0.2707
  241MOL0     C32453   1.749   7.302  10.193 -0.1711  0.3449 -0.2301
  241MOL0     C32454   1.392   7.570  10.160 -0.1931  0.2464 -0.3174
  241MOL0     C32455   1.399   7.667  10.060 -0.3578 -0.3155  0.1601
  241MOL0     C32456   1.286   7.731  10.013  0.1997 -0.8317  1.4921
  241MOL0     C32457   1.162   7.696  10.057 -0.6534 -0.4243 -0.5632
  241MOL0     O32458   1.068   7.773   9.995  0.1043  0.0997  0.1601
  241MOL0     C32459   0.928   7.736  10.015 -0.3609 -0.0047  0.0144
  241MOL0     C32460   0.857   7.870  10.045 -0.4138  0.7524  0.6475
  241MOL0     C32461   0.716   7.849  10.096  0.3287  0.4054 -0.3972
  241MOL0     C32462   0.639   7.978  10.068  0.0519 -0.4808  0.6642
  241MOL0     C32463   0.497   7.983  10.113  0.0081  0.7039 -0.0296
  241MOL0     C32464   0.384   8.000  10.163  0.0224  0.1206  0.4787
  241MOL0     C32465   1.148   7.599  10.154  0.2204 -0.1328  0.0043
  241MOL0     C32466   1.262   7.535  10.203 -0.1288 -0.5580 -1.2167
  241MOL0     C32467   1.244   7.432  10.312  0.2195 -0.3579  1.5400
  241MOL0     H32468   1.498   7.175  10.374  1.2123 -2.0243  2.1146
  241MOL0     H32469   1.651   6.966  10.362  2.3659 -0.3529  2.2386
  241MOL0     H32470   1.742   6.814  10.246 -0.4567 -1.8664  1.4808
  241MOL0     H32471   1.902   6.760  10.190 -1.0588 -2.1541  1.4349
  241MOL0     H32472   1.822   6.690  10.430  1.2108 -1.0342 -1.4154
  241MOL0     H32473   1.867   6.847  10.469 -1.1347  0.7084 -0.2687
  241MOL0     H32474   2.095   6.778  10.344 -0.3593 -0.3526 -1.1943
  241MOL0     H32475   2.029   6.615  10.317  1.1839  0.0379  0.5648
  241MOL0     H32476   2.104   6.734  10.588 -2.2006  0.1365 -0.6464
  241MOL0     H32477   2.014   6.586  10.571 -0.5082 -0.3319 -2.2543
  241MOL0     H32478   2.234   6.516  10.414  2.2822  3.4978 -1.5105
  241MOL0     H32479   2.299   6.657  10.472  2.0486 -0.7177  1.8571
  241MOL0     H32480   2.252   6.561  10.715  0.0214  0.3156  0.2007
  241MOL0     H32481   2.196   6.412  10.628 -0.2327  0.1593  0.4845
  241MOL0     H32482   2.483   6.524  10.633 -1.2628  1.9363  2.3749
  241MOL0     H32483   2.417   6.387  10.529  1.4466 -0.5607  0.7896
  241MOL0     H32484   2.405   6.391  10.832  1.0423  0.5311  0.0515
  241MOL0     H32485   2.373   6.262  10.710  0.8864 -0.9590 -0.2850
  241MOL0     H32486   2.668   6.301  10.549 -1.5824  0.2894 -0.4375
  241MOL0     H32487   2.983   6.236  10.749 -1.1691  1.6305  1.7586
  241MOL0     H32488   2.899   6.156  10.612 -1.1730 -1.9235  2.8517
  241MOL0     H32489   3.068   6.359  10.569  1.3339  1.0053  3.1581
  241MOL0     H32490   2.928   6.361  10.479  2.0883 -0.3616 -0.4757
  241MOL0     H32491   2.831   6.530  10.607 -0.0474  1.6886  0.7280
  241MOL0     H32492   2.992   6.577  10.552 -2.4391  1.3580 -0.3173
  241MOL0     H32493   3.092   6.536  10.764 -0.0693 -0.7142  0.4077
  241MOL0     H32494   2.949   6.457  10.830  2.6379  0.1057  0.9266
  241MOL0     H32495   2.730   6.518  10.938 -0.8801 -1.4701 -2.6010
  241MOL0     H32496   2.525   6.599  10.982  2.1934 -0.0945 -1.1031
  241MOL0     H32497   2.214   6.927  10.494  1.5486  0.7943 -0.6821
  241MOL0     H32498   2.036   7.067  10.469  2.6058  0.8021 -0.3029
  241MOL0     H32499   1.838   7.250  10.472 -0.2384  0.8348 -1.0369
  241MOL0     H32500   1.794   7.111  10.577 -1.4566  0.1445  1.7823
  241MOL0     H32501   1.610   7.241  10.591 -1.0862 -0.9207  0.4700
  241MOL0     H32502   1.688   7.277  10.741 -1.2734 -1.9917  0.5539
  241MOL0     H32503   1.776   7.485  10.657  0.5151  0.1954 -0.3985
  241MOL0     H32504   1.721   7.458  10.490 -2.5967  4.0130  0.2140
  241MOL0     H32505   1.544   7.462  10.724  1.4257 -1.5550 -0.4293
  241MOL0     H32506   1.480   7.466  10.564 -0.2001  2.2098 -2.2274
  241MOL0     H32507   1.592   7.694  10.541  0.6188  1.3658  0.1394
  241MOL0     H32508   1.652   7.667  10.704 -0.8862  0.9356  0.7606
  241MOL0     H32509   1.360   7.663  10.648  1.7323 -3.3041  2.1716
  241MOL0     H32510   1.444   7.671  10.809  1.7216  1.6290  0.8471
  241MOL0     H32511   1.437   7.909  10.623  0.4725  0.3270  0.0179
  241MOL0     H32512   1.546   7.890  10.754 -1.1213  2.2807  2.6625
  241MOL0     H32513   1.346   7.856  10.907 -0.5530  1.8727  1.2635
  241MOL0     H32514   1.352   8.012  10.828 -1.5544  0.4345  1.0164
  241MOL0     H32515   2.068   7.192  10.879  0.9685 -0.9683  1.4822
  241MOL0     H32516   2.241   7.028  10.915 -0.1953  0.5961 -0.3377
  241MOL0     H32517   2.608   6.933  10.706 -1.1861  0.1907  0.7240
  241MOL0     H32518   2.848   6.856  10.705 -0.9841 -2.3345 -1.8656
  241MOL0     H32519   1.935   7.194  10.160  0.5268 -1.5922  1.2603
  241MOL0     H32520   1.787   7.386  10.136  1.0262 -0.4944 -0.7000
  241MOL0     H32521   1.495   7.705  10.025 -0.0393 -0.9034  0.3671
  241MOL0     H32522   1.290   7.799   9.929  0.3371  0.1672  2.3006
  241MOL0     H32523   0.899   7.669  10.096  1.8079 -1.7583 -0.5463
  241MOL0     H32524   0.896   7.699   9.917 -2.0190  0.7976  0.2185
  241MOL0     H32525   0.862   7.943   9.963 -5.3435  0.5095 -0.1906
  241MOL0     H32526   0.906   7.926  10.125  0.1764  1.3532 -0.1180
  241MOL0     H32527   0.724   7.832  10.204  1.8866 -2.0233 -0.8247
  241MOL0     H32528   0.660   7.768  10.048 -0.5512  1.6109 -1.4878
  241MOL0     H32529   0.688   8.065  10.113 -1.6251 -0.3678  2.4437
  241MOL0     H32530   0.639   7.990   9.960 -1.6619  2.3211  0.8802
  241MOL0     H32531   0.286   8.029  10.194 -0.3641  1.6175 -1.8447
  241MOL0     H32532   1.050   7.573  10.192  0.1317 -0.9147 -0.7315
  241MOL0     H32533   1.311   7.463  10.393  1.1119  2.4874 -0.1425
  241MOL0     H32534   1.140   7.417  10.341 -1.7406  4.9438 -1.4055
  241MOL0     H32535   1.268   7.336  10.266  0.9311  0.0900  0.9535
  242MOL0     O32536   3.850   2.634   6.683 -0.5299 -0.2166  0.8355
  242MOL0     C32537   3.791   2.658   6.579  0.1204  0.0992 -0.3137
  242MOL0     O32538   3.847   2.676   6.459 -0.2333  0.2113 -0.3922
  242MOL0     C32539   3.987   2.692   6.465 -0.1252 -0.4713  0.0054
  242MOL0     C32540   4.073   2.597   6.409 -0.7082 -1.0742  0.1175
  242MOL0     C32541   4.219   2.606   6.421  1.4324  0.0637 -0.1715
  242MOL0     C32542   4.283   2.721   6.483  0.3517 -0.6164  1.4196
  242MOL0     O32543   4.418   2.725   6.490 -0.4296  0.2495  0.7183
  242MOL0     C32544   4.493   2.839   6.531  1.0692 -0.3222 -0.2689
  242MOL0     C32545   4.623   2.783   6.591 -0.7651 -0.8333  0.3802
  242MOL0     C32546   4.717   2.904   6.610  0.1117 -0.1190 -0.8797
  242MOL0     C32547   4.821   2.902   6.504 -0.3562 -0.1880 -1.2106
  242MOL0     C32548   4.917   3.017   6.522 -0.9278 -0.2699  0.2976
  242MOL0     C32549   5.022   3.028   6.406  0.5469  0.9575  0.1926
  242MOL0     C32550   5.149   3.108   6.443 -0.5906 -0.1485 -0.0390
  242MOL0     C32551   5.277   3.073   6.362  0.3441 -0.1336 -0.7927
  242MOL0     N32552   5.397   3.135   6.425  0.4524  0.1716 -0.9097
  242MOL0     C32553   5.449   3.258   6.410 -0.4326 -0.1090 -0.1025
  242MOL0     C32554   5.555   3.262   6.495 -0.2259  0.3500 -0.2471
  242MOL0     C32555   5.658   3.367   6.515  0.2906 -0.8304  0.0095
  242MOL0     C32556   5.799   3.314   6.555  0.8695  0.4589 -0.6069
  242MOL0     C32557   5.845   3.208   6.460  0.2699  0.4433  0.5397
  242MOL0     C32558   5.998   3.183   6.458 -0.1695 -0.4974  0.1083
  242MOL0     O32559   6.058   3.301   6.411 -0.0608 -0.2162  0.6323
  242MOL0     C32560   6.193   3.296   6.414  0.2588 -0.4141  0.0384
  242MOL0     C32561   6.254   3.420   6.384 -0.1832 -0.3259  0.4510
  242MOL0     C32562   6.396   3.429   6.387  0.4499 -0.0652 -0.7686
  242MOL0     C32563   6.481   3.320   6.404  0.7584  0.0816 -0.1226
  242MOL0     C32564   6.621   3.328   6.399 -1.3982  0.0731 -0.0970
  242MOL0     O32565   6.702   3.219   6.407  0.5381 -0.2114 -0.7074
  242MOL0     C32566   6.839   3.229   6.390  0.1498 -0.4164  0.1964
  242MOL0     C32567   6.917   3.134   6.456  0.6413  0.6756 -0.2020
  242MOL0     C32568   7.057   3.136   6.440 -0.2345 -0.2606 -1.3329
  242MOL0     C32569   7.124   3.237   6.362 -0.1277  0.4804  0.0736
  242MOL0     O32570   7.259   3.255   6.335 -0.1951  1.2123  0.3186
  242MOL0     C32571   7.358   3.177   6.399 -0.2783 -0.4675 -0.5996
  242MOL0     C32572   7.481   3.206   6.335 -0.3328  1.0370  0.3804
  242MOL0     C32573   7.603   3.126   6.385  0.3192  0.3135 -0.6492
  242MOL0     C32574   7.735   3.181   6.327  0.2505 -0.2709 -0.0360
  242MOL0     C32575   7.848   3.116   6.403 -0.4767 -0.8536 -0.9441
  242MOL0     C32576   7.983   3.178   6.348  0.2881  0.0906 -0.4789
  242MOL0     C32577   8.090   3.142   6.447  0.8475  0.5304 -0.2311
  242MOL0     C32578   8.225   3.180   6.382 -0.1801  0.7517  0.2180
  242MOL0    Cl32579   8.269   3.339   6.446 -0.4928 -0.2347  0.3998
  242MOL0     C32580   7.039   3.322   6.296  0.2632 -0.3584  0.1342
  242MOL0     C32581   6.900   3.323   6.313 -0.1014 -0.4202  0.4677
  242MOL0     O32582   6.661   3.448   6.395  0.6021 -0.3298 -0.4801
  242MOL0     C32583   6.419   3.192   6.411 -0.2756  0.8800  0.8612
  242MOL0     C32584   6.283   3.182   6.426  0.4878 -0.4804 -0.4698
  242MOL0     N32585   5.570   3.140   6.557 -0.0605  0.1536 -0.1048
  242MOL0     N32586   5.477   3.068   6.507  0.0473 -0.3898 -0.1904
  242MOL0     C32587   4.190   2.819   6.525  1.4051  0.2837 -0.9000
  242MOL0     C32588   4.042   2.806   6.515  0.1272  0.1123 -0.1434
  242MOL0     C32589   3.645   2.667   6.581 -0.4518  0.7679  0.0746
  242MOL0     C32590   3.594   2.739   6.472 -0.2225 -0.4420 -0.1502
  242MOL0     C32591   3.453   2.756   6.459  0.1967 -0.3095 -0.9869
  242MOL0     C32592   3.366   2.723   6.558  0.1822 -0.0686 -0.3726
  242MOL0     O32593   3.235   2.764   6.546  0.4536  0.2178 -0.4035
  242MOL0     C32594   3.151   2.737   6.658  0.4502 -0.5358 -0.1284
  242MOL0     C32595   3.034   2.836   6.642 -0.4604 -0.2016 -0.2526
  242MOL0     C32596   2.917   2.806   6.733  0.3557  0.1626  0.2726
  242MOL0     C32597   2.801   2.903   6.696  0.2124 -0.2938 -0.0917
  242MOL0     C32598   2.817   3.029   6.777 -0.0432  0.0370  0.1314
  242MOL0     C32599   2.815   3.138   6.828  0.5800  0.2187 -0.5728
  242MOL0     C32600   3.414   2.639   6.662 -0.3302 -0.6273  0.5904
  242MOL0     C32601   3.549   2.612   6.676 -0.5168 -0.6367  0.4045
  242MOL0     C32602   3.594   2.520   6.786  0.2864 -1.3484  0.4437
  242MOL0     H32603   4.019   2.516   6.362 -2.2109  1.4387 -2.9052
  242MOL0     H32604   4.290   2.533   6.383 -0.8837 -1.4264 -1.9314
  242MOL0     H32605   4.503   2.902   6.442 -0.6909  0.5342  0.1054
  242MOL0     H32606   4.433   2.893   6.604  2.4583  2.2648 -0.9099
  242MOL0     H32607   4.668   2.702   6.533 -2.8646 -2.4613  0.8736
  242MOL0     H32608   4.598   2.731   6.684  0.4402 -2.9234 -0.4042
  242MOL0     H32609   4.769   2.895   6.706 -0.8887  0.6017 -0.2569
  242MOL0     H32610   4.661   2.998   6.610  0.3371  0.1882  3.1814
  242MOL0     H32611   4.870   2.804   6.509  0.9980  0.3289 -3.2337
  242MOL0     H32612   4.772   2.915   6.407 -3.6356  0.1297  0.3574
  242MOL0     H32613   4.871   3.115   6.537 -0.3549 -0.0184  0.4307
  242MOL0     H32614   4.969   3.003   6.616 -1.0311  0.9021  0.5365
  242MOL0     H32615   5.057   2.928   6.376 -2.8112 -0.5436  0.7292
  242MOL0     H32616   4.965   3.068   6.321  0.3658 -0.2426 -0.2858
  242MOL0     H32617   5.182   3.105   6.547 -2.6797  1.0353  0.7228
  242MOL0     H32618   5.126   3.214   6.436 -0.0154 -0.1165 -1.9732
  242MOL0     H32619   5.291   2.965   6.352 -0.9423 -0.1504 -3.3482
  242MOL0     H32620   5.266   3.111   6.259 -0.4930 -1.4783 -1.2299
  242MOL0     H32621   5.409   3.336   6.346 -0.0803 -1.2797 -1.8033
  242MOL0     H32622   5.670   3.432   6.428  1.3199  0.6697  1.2122
  242MOL0     H32623   5.626   3.421   6.604 -0.8598 -2.8624  0.8858
  242MOL0     H32624   5.866   3.399   6.542  0.4972  0.7978 -0.3332
  242MOL0     H32625   5.807   3.275   6.657  1.1342 -0.9568 -1.1479
  242MOL0     H32626   5.816   3.236   6.358 -1.0420 -0.2600  0.7001
  242MOL0     H32627   5.790   3.116   6.484 -0.2157  0.2305 -1.2265
  242MOL0     H32628   6.009   3.099   6.389  0.9954 -0.1142 -0.1883
  242MOL0     H32629   6.030   3.149   6.557  0.2788 -2.1526 -0.5718
  242MOL0     H32630   6.201   3.504   6.341 -0.5305 -0.6130  0.3156
  242MOL0     H32631   6.437   3.520   6.345 -2.4226  1.1024 -1.2692
  242MOL0     H32632   6.872   3.060   6.520  2.0761 -1.8222 -1.9185
  242MOL0     H32633   7.120   3.062   6.490 -0.5560  0.4163  0.1497
  242MOL0     H32634   7.358   3.217   6.501  0.4031 -1.1361 -0.3292
  242MOL0     H32635   7.332   3.070   6.398  0.6668 -0.7008 -1.4293
  242MOL0     H32636   7.471   3.172   6.232  2.8781 -2.7118  1.0668
  242MOL0     H32637   7.501   3.314   6.334  2.6614  0.5653  0.0785
  242MOL0     H32638   7.610   3.132   6.494 -2.9372  2.2815 -0.4045
  242MOL0     H32639   7.590   3.024   6.347 -0.4767  1.3297 -3.3694
  242MOL0     H32640   7.746   3.289   6.324 -0.0370 -0.2166  0.7572
  242MOL0     H32641   7.745   3.150   6.222  0.6458 -0.6384  0.1092
  242MOL0     H32642   7.851   3.009   6.382  2.2893 -0.6325 -2.0901
  242MOL0     H32643   7.841   3.138   6.510 -0.7620  5.0800 -1.8455
  242MOL0     H32644   8.010   3.127   6.255 -0.9517 -1.8332  0.1404
  242MOL0     H32645   7.979   3.286   6.334  2.6593  0.4514  1.0437
  242MOL0     H32646   8.092   3.033   6.453  1.1727  0.3646 -2.4840
  242MOL0     H32647   8.069   3.189   6.544  2.0022  1.9332 -0.6391
  242MOL0     H32648   8.299   3.106   6.416 -0.8699  0.1014  0.3165
  242MOL0     H32649   8.234   3.183   6.273  1.3555  1.6540  0.3328
  242MOL0     H32650   7.081   3.405   6.239  2.0221 -0.5843  1.0172
  242MOL0     H32651   6.849   3.391   6.245 -0.5774  0.0437  1.2696
  242MOL0     H32652   6.470   3.097   6.424 -1.4824  0.5297  3.4345
  242MOL0     H32653   6.227   3.089   6.433 -0.1011 -0.2404 -1.7094
  242MOL0     H32654   4.226   2.912   6.567  0.5387 -0.6871  2.2525
  242MOL0     H32655   3.964   2.872   6.551 -0.5594 -0.9653  0.3865
  242MOL0     H32656   3.642   2.801   6.397 -1.5756 -0.2312 -0.8665
  242MOL0     H32657   3.403   2.803   6.375 -2.5939  0.8442  1.1767
  242MOL0     H32658   3.201   2.759   6.752 -2.3333 -0.8147  1.5261
  242MOL0     H32659   3.117   2.633   6.653 -1.6008 -0.0766  2.1619
  242MOL0     H32660   2.994   2.832   6.540  0.3725 -0.3454 -0.5767
  242MOL0     H32661   3.077   2.934   6.665  1.0033 -0.7448 -0.5657
  242MOL0     H32662   2.944   2.813   6.839 -0.7759  1.1368  0.5284
  242MOL0     H32663   2.883   2.705   6.711  0.7582 -0.8115  3.5198
  242MOL0     H32664   2.782   2.927   6.591 -0.4260  2.3094  0.5450
  242MOL0     H32665   2.704   2.861   6.726  0.0297  0.3993  0.3141
  242MOL0     H32666   2.814   3.234   6.875 -0.6728 -1.5612  3.4344
  242MOL0     H32667   3.352   2.591   6.738  2.3554 -3.1139  1.4080
  242MOL0     H32668   3.646   2.434   6.741  0.1946 -0.6850 -0.9822
  242MOL0     H32669   3.657   2.579   6.854 -0.7473  1.8325 -1.1508
  242MOL0     H32670   3.509   2.470   6.833 -0.8278 -0.5107 -0.6376
  243MOL0     O32671   3.162   0.799   3.217 -0.1603 -0.2093 -0.3505
  243MOL0     C32672   3.054   0.829   3.265  0.4216 -0.4307 -0.3441
  243MOL0     O32673   3.035   0.887   3.391 -0.1196 -0.1051  0.5647
  243MOL0     C32674   3.128   0.858   3.490  0.5937  0.6819 -0.0433
  243MOL0     C32675   3.151   0.726   3.519  0.1403  0.1366  0.5499
  243MOL0     C32676   3.241   0.693   3.621 -0.7082  0.2065  0.0816
  243MOL0     C32677   3.296   0.792   3.707 -0.7767 -0.5668  0.4251
  243MOL0     O32678   3.388   0.755   3.801 -0.2981 -0.6472 -0.4543
  243MOL0     C32679   3.503   0.704   3.735  0.0889 -0.1116  0.5832
  243MOL0     C32680   3.628   0.741   3.813  0.0062 -0.0244  0.7945
  243MOL0     C32681   3.748   0.690   3.733  0.0913  0.6019 -0.7971
  243MOL0     C32682   3.880   0.755   3.781 -0.1664  0.4406 -0.4076
  243MOL0     C32683   4.003   0.709   3.700  0.0496  0.2077 -0.0920
  243MOL0     C32684   4.124   0.787   3.740 -0.9416 -0.0589  0.2647
  243MOL0     C32685   4.233   0.814   3.630 -0.3177  0.2577  1.6498
  243MOL0     C32686   4.290   0.677   3.578  0.1527 -0.4465  0.5466
  243MOL0     N32687   4.397   0.706   3.480  0.1507  0.2364 -0.2978
  243MOL0     C32688   4.532   0.710   3.507 -0.3509  0.1798 -0.2917
  243MOL0     C32689   4.595   0.733   3.385 -0.8891 -0.5560 -0.0565
  243MOL0     C32690   4.738   0.736   3.344  0.4565  0.1355 -0.0021
  243MOL0     C32691   4.831   0.811   3.436  0.2373 -0.4040  0.1858
  243MOL0     C32692   4.908   0.727   3.529  0.1983  0.8147 -0.3372
  243MOL0     C32693   5.026   0.810   3.595 -0.8749  0.2633  0.7982
  243MOL0     O32694   5.124   0.849   3.493  0.3372  0.3627 -1.3384
  243MOL0     C32695   5.247   0.890   3.539 -0.0062 -0.1675  0.5901
  243MOL0     C32696   5.339   0.913   3.441  0.3629  0.8282 -0.0748
  243MOL0     C32697   5.469   0.934   3.474 -0.1140  0.0993 -0.3215
  243MOL0     C32698   5.504   0.932   3.611  0.0944  0.2825  0.6270
  243MOL0     C32699   5.655   0.943   3.648  0.5867  0.2738  0.2408
  243MOL0     O32700   5.686   0.918   3.779  0.4327 -0.1004  0.8259
  243MOL0     C32701   5.824   0.932   3.808  0.0213 -0.2153 -0.7928
  243MOL0     C32702   5.915   0.826   3.780 -0.2701  0.0487  0.2719
  243MOL0     C32703   6.042   0.846   3.834 -0.0565 -0.0423  0.3309
  243MOL0     C32704   6.076   0.957   3.910  0.2873  0.6002  0.2565
  243MOL0     O32705   6.201   0.962   3.956 -0.4226  0.1522  0.7544
  243MOL0     C32706   6.212   0.899   4.081  0.7091 -0.5111 -0.9387
  243MOL0     C32707   6.186   0.985   4.205  0.4258  0.7084 -0.7551
  243MOL0     C32708   6.242   0.924   4.336 -0.2271 -0.8379  0.5431
  243MOL0     C32709   6.252   1.019   4.452 -0.3448 -0.0423  0.7713
  243MOL0     C32710   6.316   0.952   4.569 -0.7889  0.0451 -0.2616
  243MOL0     C32711   6.347   1.062   4.673  0.0957 -0.2478  0.5538
  243MOL0     C32712   6.423   1.010   4.795 -0.4094  0.4133  1.0876
  243MOL0     C32713   6.575   1.059   4.815  0.6635  0.4654 -0.3198
  243MOL0    Cl32714   6.568   1.238   4.849  0.1711 -0.0457 -0.5311
  243MOL0     C32715   5.985   1.059   3.930 -1.1434  0.4095  0.0275
  243MOL0     C32716   5.862   1.041   3.885  0.9454  0.2486 -0.9065
  243MOL0     O32717   5.728   0.973   3.560 -0.1759 -0.9950 -0.0086
  243MOL0     C32718   5.410   0.913   3.707 -0.4302 -0.2436 -0.4991
  243MOL0     C32719   5.284   0.900   3.671 -0.3983 -0.6580  0.6428
  243MOL0     N32720   4.487   0.751   3.294 -0.0537 -0.4346 -0.4831
  243MOL0     N32721   4.374   0.727   3.347  0.2989  0.1597  0.2712
  243MOL0     C32722   3.271   0.924   3.672 -0.2115  0.6342  0.0731
  243MOL0     C32723   3.195   0.956   3.565  0.8901 -0.3433 -0.1151
  243MOL0     C32724   2.941   0.825   3.173  0.7072 -0.1089  0.2790
  243MOL0     C32725   2.858   0.934   3.172  0.0241 -0.5831 -0.3080
  243MOL0     C32726   2.742   0.942   3.076  0.6852 -1.0905  0.0790
  243MOL0     C32727   2.729   0.853   2.976 -0.8304  0.3105 -0.1603
  243MOL0     O32728   2.637   0.863   2.870  0.2838  0.3173 -0.2779
  243MOL0     C32729   2.495   0.903   2.887 -1.3421 -0.0107  0.4183
  243MOL0     C32730   2.457   0.953   2.743  1.0160 -0.3002  0.8268
  243MOL0     C32731   2.550   1.069   2.696  0.2703  0.2473 -0.0076
  243MOL0     C32732   2.504   1.135   2.564  0.2077  0.0889 -0.3282
  243MOL0     C32733   2.369   1.196   2.576  0.5041 -0.3077  0.3579
  243MOL0     C32734   2.255   1.250   2.577 -0.3352  0.3574  0.0530
  243MOL0     C32735   2.814   0.737   2.977 -1.2752 -0.5946  0.3851
  243MOL0     C32736   2.923   0.734   3.065  0.4079  0.9232 -0.6314
  243MOL0     C32737   3.010   0.614   3.044 -0.6406  0.7306 -0.1212
  243MOL0     H32738   3.098   0.644   3.470 -1.0970  0.9267  0.5190
  243MOL0     H32739   3.287   0.596   3.641  0.2374  0.8572  1.1378
  243MOL0     H32740   3.499   0.596   3.718 -0.4920  0.0755 -0.6175
  243MOL0     H32741   3.509   0.761   3.641  0.4493 -0.8713  0.1406
  243MOL0     H32742   3.644   0.710   3.917 -0.6383  1.5511  1.3919
  243MOL0     H32743   3.624   0.850   3.814  0.2210 -0.0058  0.0117
  243MOL0     H32744   3.734   0.707   3.626  0.8242 -0.0693 -1.0116
  243MOL0     H32745   3.756   0.583   3.751  0.3238  0.6946 -0.3229
  243MOL0     H32746   3.866   0.863   3.770 -2.2092  0.2547 -0.0214
  243MOL0     H32747   3.901   0.723   3.884  0.1478  1.6611 -0.0792
  243MOL0     H32748   4.020   0.601   3.705  2.6080  0.5607  0.8139
  243MOL0     H32749   3.974   0.721   3.595 -3.4704 -0.6983  0.6660
  243MOL0     H32750   4.085   0.882   3.777 -0.9893 -0.0105  0.0898
  243MOL0     H32751   4.164   0.732   3.826 -2.8653  1.9411  2.5836
  243MOL0     H32752   4.312   0.883   3.658  0.2143  0.6159 -0.5665
  243MOL0     H32753   4.187   0.857   3.541  3.2262  0.7895 -0.0792
  243MOL0     H32754   4.331   0.629   3.668  2.6829 -0.2362 -0.4108
  243MOL0     H32755   4.215   0.611   3.534  0.7392  0.2579 -1.5995
  243MOL0     H32756   4.566   0.699   3.609  0.4679  2.6845 -0.2329
  243MOL0     H32757   4.764   0.631   3.327  0.2429  0.5457 -3.4402
  243MOL0     H32758   4.745   0.789   3.249 -1.7012 -0.7456 -0.7101
  243MOL0     H32759   4.905   0.863   3.375 -0.1463  0.1459  0.1798
  243MOL0     H32760   4.768   0.883   3.490 -0.5264  0.0885 -1.3228
  243MOL0     H32761   4.952   0.637   3.486  0.2895  0.7162 -0.0392
  243MOL0     H32762   4.832   0.693   3.600 -0.4468 -0.7535 -1.7208
  243MOL0     H32763   5.066   0.738   3.666 -2.7261  1.1551  2.8515
  243MOL0     H32764   4.991   0.895   3.654  0.7941  0.4061  1.6374
  243MOL0     H32765   5.313   0.906   3.335  0.2435  3.3112 -0.2607
  243MOL0     H32766   5.549   0.940   3.401  0.7589 -2.1149  0.3570
  243MOL0     H32767   5.885   0.732   3.734 -4.3730  2.1789 -2.0009
  243MOL0     H32768   6.119   0.770   3.821  2.0296  1.7045  1.8117
  243MOL0     H32769   6.142   0.815   4.091 -0.6203  0.6880  0.4010
  243MOL0     H32770   6.312   0.855   4.080  0.7006 -0.5244 -1.4195
  243MOL0     H32771   6.220   1.087   4.187 -3.6736  2.8459  2.0527
  243MOL0     H32772   6.077   0.990   4.213  0.5958  2.5051  1.0893
  243MOL0     H32773   6.187   0.840   4.380 -0.5393  0.3975  2.6789
  243MOL0     H32774   6.343   0.887   4.319  0.3338  0.8907 -0.0982
  243MOL0     H32775   6.150   1.052   4.477 -0.7209 -2.2037  2.3690
  243MOL0     H32776   6.295   1.113   4.414 -0.9762 -0.1353 -0.2124
  243MOL0     H32777   6.411   0.907   4.538 -0.2320  1.3874 -0.5752
  243MOL0     H32778   6.252   0.877   4.617  2.9858 -2.3792  1.4814
  243MOL0     H32779   6.404   1.148   4.636  0.0660  0.0885  1.2737
  243MOL0     H32780   6.259   1.112   4.715  0.5198  0.2211  0.9004
  243MOL0     H32781   6.424   0.901   4.786  2.4676  0.4825 -0.5439
  243MOL0     H32782   6.363   1.038   4.881 -1.7344  0.0528  0.3103
  243MOL0     H32783   6.614   1.010   4.904 -0.6423 -1.1672 -0.5976
  243MOL0     H32784   6.645   1.032   4.736  1.3027  0.3225  0.2892
  243MOL0     H32785   6.006   1.149   3.988  1.4249  0.0940 -0.3046
  243MOL0     H32786   5.779   1.105   3.915  0.3998 -0.4966 -0.7844
  243MOL0     H32787   5.442   0.919   3.811  0.8236 -0.5679 -0.8454
  243MOL0     H32788   5.219   0.881   3.756  0.6366  0.3379  1.6913
  243MOL0     H32789   3.293   1.006   3.740 -0.0760  3.9278 -3.5605
  243MOL0     H32790   3.165   1.057   3.541  0.9950 -1.0694 -4.0332
  243MOL0     H32791   2.878   1.015   3.241 -0.1793 -0.5169 -0.3244
  243MOL0     H32792   2.671   1.024   3.073  0.4620 -0.8986  4.3343
  243MOL0     H32793   2.481   0.969   2.973  2.2339 -0.0253  1.1788
  243MOL0     H32794   2.449   0.807   2.913  0.9589 -1.2131  0.2904
  243MOL0     H32795   2.356   0.991   2.760  0.4759 -2.4846  3.1930
  243MOL0     H32796   2.450   0.869   2.673  1.7831 -0.2862  0.7220
  243MOL0     H32797   2.650   1.026   2.684 -0.8552 -2.1559 -1.5576
  243MOL0     H32798   2.550   1.147   2.772  0.6325  0.9015 -0.6609
  243MOL0     H32799   2.575   1.212   2.536  2.3438 -1.0575  1.6037
  243MOL0     H32800   2.506   1.061   2.483  0.3269  0.6909 -0.8823
  243MOL0     H32801   2.157   1.292   2.573 -1.5048 -1.9760  1.7455
  243MOL0     H32802   2.784   0.663   2.903  0.7760 -2.2880  1.1490
  243MOL0     H32803   2.982   0.564   2.951  1.4314  0.9895 -0.9291
  243MOL0     H32804   3.118   0.628   3.032 -0.0245 -2.2771  0.9749
  243MOL0     H32805   2.998   0.544   3.127  1.3989  1.4903  0.8735
  244MOL0     O32806   7.111   9.090   3.651 -0.5382  0.4314 -0.9778
  244MOL0     C32807   7.057   9.082   3.543 -0.3802 -0.3135 -0.5521
  244MOL0     O32808   7.113   9.124   3.431 -0.2885  0.1668 -0.2988
  244MOL0     C32809   7.247   9.158   3.417  0.4436  0.5627 -0.2906
  244MOL0     C32810   7.286   9.238   3.320 -0.6851 -0.1872  1.2370
  244MOL0     C32811   7.421   9.276   3.296  0.2301  0.3603  0.2201
  244MOL0     C32812   7.525   9.226   3.383  0.0307 -0.4814 -0.2149
  244MOL0     O32813   7.657   9.251   3.366  0.3917  0.0033  0.0209
  244MOL0     C32814   7.708   9.309   3.249 -0.1622 -1.6118 -0.0426
  244MOL0     C32815   7.697   9.464   3.266  1.3338  0.3663 -1.4584
  244MOL0     C32816   7.790   9.545   3.174 -0.3760 -0.0333  0.9403
  244MOL0     C32817   7.740   9.567   3.024 -0.0251 -0.3398  0.5095
  244MOL0     C32818   7.838   9.660   2.945 -0.4403  0.7344  0.1583
  244MOL0     C32819   7.781   9.726   2.823  0.1085  0.1176 -0.1452
  244MOL0     C32820   7.757   9.649   2.690  0.2123  0.2291 -0.1203
  244MOL0     C32821   7.873   9.556   2.640  0.5438 -0.3957 -0.1752
  244MOL0     N32822   7.984   9.629   2.596 -0.6509  0.2999 -0.0956
  244MOL0     C32823   8.099   9.562   2.569  0.1202  0.0233  0.8337
  244MOL0     C32824   8.192   9.661   2.553 -0.0866  0.1256  0.1186
  244MOL0     C32825   8.340   9.631   2.524 -0.5772 -0.7705 -0.0057
  244MOL0     C32826   8.444   9.720   2.603  0.4260 -0.7842 -0.4516
  244MOL0     C32827   8.573   9.639   2.627  0.4000 -0.2251  1.0603
  244MOL0     C32828   8.699   9.729   2.652  0.0764  1.0597  0.1684
  244MOL0     O32829   8.703   9.768   2.789 -0.3916  0.3583  0.4512
  244MOL0     C32830   8.800   9.850   2.832 -0.2049 -0.9960 -0.2457
  244MOL0     C32831   8.907   9.901   2.761  0.5867  1.1422 -0.1524
  244MOL0     C32832   9.003   9.980   2.823 -0.1611 -0.4040 -0.4030
  244MOL0     C32833   8.993  10.009   2.956  0.1171  0.9452  0.1235
  244MOL0     C32834   9.098  10.100   3.013 -0.3915  0.1456 -0.3502
  244MOL0     O32835   9.083  10.119   3.153  0.0436  0.4925  0.5725
  244MOL0     C32836   9.182  10.183   3.215 -0.0081  0.1734  0.7029
  244MOL0     C32837   9.150  10.276   3.319  0.5444  0.4279  0.2798
  244MOL0     C32838   9.252  10.332   3.379 -0.1232 -0.9862  0.5954
  244MOL0     C32839   9.384  10.307   3.356 -0.8291 -0.0698  0.5235
  244MOL0     O32840   9.496  10.367   3.414 -0.0069  0.0207 -0.1803
  244MOL0     C32841   9.484  10.387   3.550 -1.5657 -0.1604 -0.8589
  244MOL0     C32842   9.620  10.418   3.601 -0.1559 -0.4440 -0.4637
  244MOL0     C32843   9.726  10.310   3.556  0.1457 -0.6756 -0.1694
  244MOL0     C32844   9.859  10.354   3.618 -0.6487  0.4895 -0.2656
  244MOL0     C32845   9.979  10.263   3.597  0.8102  0.2259  0.5878
  244MOL0     C32846  10.003  10.245   3.444  0.2643 -0.4350 -0.0749
  244MOL0     C32847  10.124  10.164   3.420 -0.3929  0.4627 -0.4702
  244MOL0     C32848  10.217  10.220   3.306  0.0049 -0.1634  0.0844
  244MOL0    Cl32849  10.338  10.106   3.266 -0.1229  0.4768  0.3324
  244MOL0     C32850   9.415  10.206   3.265  0.5476  0.6399  0.1657
  244MOL0     C32851   9.315  10.140   3.196 -0.8304  0.7498 -1.0031
  244MOL0     O32852   9.180  10.158   2.940  0.2387 -0.1483 -0.1760
  244MOL0     C32853   8.878   9.965   3.025  0.1051 -0.9467 -0.3096
  244MOL0     C32854   8.777   9.889   2.964 -0.5817 -0.3026 -0.2111
  244MOL0     N32855   8.130   9.787   2.567  0.0856 -0.1995  1.0709
  244MOL0     N32856   8.008   9.764   2.588 -0.0697  0.4304 -0.1029
  244MOL0     C32857   7.487   9.147   3.494  0.0987 -0.3654  0.1842
  244MOL0     C32858   7.350   9.106   3.503  0.2346 -0.1629 -0.4884
  244MOL0     C32859   6.931   9.014   3.536  0.1015  0.5788 -0.5044
  244MOL0     C32860   6.869   8.995   3.412  0.3044 -0.6765  0.0513
  244MOL0     C32861   6.750   8.924   3.396 -0.8642  0.9140 -0.3979
  244MOL0     C32862   6.680   8.873   3.506  0.7397 -0.3677  0.3525
  244MOL0     O32863   6.562   8.804   3.480 -0.1935 -0.7875 -0.7490
  244MOL0     C32864   6.480   8.763   3.595 -0.5693  0.4124  0.3273
  244MOL0     C32865   6.337   8.723   3.550 -1.0622  0.4736 -0.4275
  244MOL0     C32866   6.266   8.835   3.477 -0.8809 -0.1729  0.3382
  244MOL0     C32867   6.132   8.790   3.407  0.1592 -0.2484 -0.7720
  244MOL0     C32868   6.049   8.744   3.515  0.5564  0.3436  0.6637
  244MOL0     C32869   5.980   8.716   3.608 -0.1478  0.2755  0.8776
  244MOL0     C32870   6.736   8.896   3.630  0.0323  0.7176  0.4898
  244MOL0     C32871   6.857   8.966   3.649  0.4782  0.3245  0.2786
  244MOL0     C32872   6.896   8.987   3.789  0.1315  0.4383 -1.1393
  244MOL0     H32873   7.217   9.280   3.248 -0.4084 -0.0953  1.0210
  244MOL0     H32874   7.441   9.335   3.208  1.3168  1.2797  1.0513
  244MOL0     H32875   7.815   9.287   3.245  0.7610  1.6956  2.0782
  244MOL0     H32876   7.665   9.263   3.160  0.5138 -1.3432 -0.5163
  244MOL0     H32877   7.730   9.482   3.369  0.4930  0.1367 -1.1415
  244MOL0     H32878   7.595   9.502   3.258  1.2273  0.2547 -0.7002
  244MOL0     H32879   7.885   9.491   3.183 -1.0497 -1.6271 -0.7919
  244MOL0     H32880   7.803   9.643   3.221 -3.7030  1.7902 -1.5076
  244MOL0     H32881   7.743   9.474   2.966  0.9570  0.4701 -0.7942
  244MOL0     H32882   7.639   9.608   3.011 -1.7278 -4.0492  0.8072
  244MOL0     H32883   7.871   9.743   3.008  0.0615  0.1248  0.7230
  244MOL0     H32884   7.932   9.618   2.908 -1.3375  1.3592 -3.1332
  244MOL0     H32885   7.689   9.778   2.853  0.0609 -0.1913  0.2540
  244MOL0     H32886   7.856   9.804   2.806 -0.2034  0.6162  0.6971
  244MOL0     H32887   7.743   9.721   2.608  2.8862  0.8017 -0.1776
  244MOL0     H32888   7.664   9.595   2.705  0.6925 -0.9049 -1.0854
  244MOL0     H32889   7.907   9.493   2.723 -1.5735 -0.2110  0.8988
  244MOL0     H32890   7.839   9.493   2.557  1.4025  1.9920 -2.4984
  244MOL0     H32891   8.106   9.455   2.554  0.3701  0.3469 -1.7593
  244MOL0     H32892   8.360   9.524   2.534  0.9575 -0.4513  0.6039
  244MOL0     H32893   8.354   9.658   2.419 -0.9151  2.7735  0.7404
  244MOL0     H32894   8.466   9.806   2.538  1.5504  0.6870  1.7694
  244MOL0     H32895   8.408   9.765   2.695  3.3578  2.2920 -0.6172
  244MOL0     H32896   8.591   9.571   2.544  1.6584  1.2444  0.0733
  244MOL0     H32897   8.554   9.579   2.717  0.2349 -1.1256  0.4343
  244MOL0     H32898   8.701   9.809   2.578  0.9217  2.3773  1.5701
  244MOL0     H32899   8.781   9.660   2.628 -1.1878 -1.0593  1.5571
  244MOL0     H32900   8.919   9.864   2.659  2.6908  0.5526  0.2559
  244MOL0     H32901   9.085  10.010   2.758 -0.3406 -1.4348 -1.1277
  244MOL0     H32902   9.048  10.313   3.333  0.4221  0.4583 -0.6289
  244MOL0     H32903   9.220  10.412   3.445 -0.3644 -2.2274  2.0551
  244MOL0     H32904   9.424  10.476   3.573  1.8709  1.7818  1.5454
  244MOL0     H32905   9.452  10.298   3.606  2.7441 -1.5969 -0.2929
  244MOL0     H32906   9.655  10.507   3.547 -0.0992  0.0112  0.2960
  244MOL0     H32907   9.622  10.430   3.710  0.6715  1.2080 -0.6187
  244MOL0     H32908   9.708  10.209   3.593  1.1253 -1.0737 -0.7584
  244MOL0     H32909   9.734  10.298   3.447 -1.1771  0.9180 -0.4940
  244MOL0     H32910   9.847  10.379   3.724 -0.0198  0.4831 -0.1906
  244MOL0     H32911   9.892  10.449   3.575 -0.4112  0.3693 -0.3533
  244MOL0     H32912   9.959  10.163   3.636 -1.5859 -0.4912 -2.1496
  244MOL0     H32913  10.066  10.305   3.647 -0.3194  2.4634  0.7731
  244MOL0     H32914   9.916  10.193   3.401  0.3136  0.4286 -1.2550
  244MOL0     H32915  10.009  10.346   3.402 -0.5901 -0.7027 -0.8851
  244MOL0     H32916  10.083  10.069   3.385 -1.1705  0.2084  1.0294
  244MOL0     H32917  10.175  10.140   3.514 -1.1390 -4.4309 -1.0205
  244MOL0     H32918  10.159  10.244   3.217  0.3765  3.5969  0.6852
  244MOL0     H32919  10.265  10.312   3.340 -0.2417  0.8854 -2.2549
  244MOL0     H32920   9.518  10.180   3.244  0.2471  1.6274 -3.1709
  244MOL0     H32921   9.335  10.064   3.120 -0.5057 -0.4388  0.2368
  244MOL0     H32922   8.857  10.007   3.123 -2.2948 -3.7147  0.5005
  244MOL0     H32923   8.686   9.863   3.017  1.3952 -1.3641  2.9368
  244MOL0     H32924   7.559   9.100   3.559  0.0803  1.0121  1.2519
  244MOL0     H32925   7.322   9.036   3.580  1.2997  0.9676  0.9925
  244MOL0     H32926   6.907   9.024   3.315  1.0742  0.8663  0.7802
  244MOL0     H32927   6.698   8.922   3.301  1.1642 -1.9186 -1.5794
  244MOL0     H32928   6.458   8.854   3.653 -0.5683 -0.1596  1.2375
  244MOL0     H32929   6.528   8.697   3.667  3.9702  1.5764 -1.3010
  244MOL0     H32930   6.272   8.690   3.631 -0.4439  0.0971 -0.0810
  244MOL0     H32931   6.346   8.631   3.491 -0.3551 -1.7987  2.9916
  244MOL0     H32932   6.330   8.864   3.394  0.2735  2.4593  2.0059
  244MOL0     H32933   6.240   8.924   3.536 -0.5281  1.6694 -2.1187
  244MOL0     H32934   6.079   8.872   3.358 -0.5629 -0.9123 -1.1313
  244MOL0     H32935   6.139   8.707   3.336  0.9397  0.8953 -2.0715
  244MOL0     H32936   5.921   8.689   3.693 -0.0395 -1.5151  0.4140
  244MOL0     H32937   6.687   8.854   3.718  1.0582 -0.9187  0.3179
  244MOL0     H32938   6.828   8.941   3.860  0.8338  0.8152 -0.2019
  244MOL0     H32939   6.990   8.934   3.805  0.4035  1.3348  0.4632
  244MOL0     H32940   6.903   9.090   3.824  0.8680  0.0765 -0.1718
  245MOL0     O32941   0.297   6.566   3.707  0.2517 -0.4253 -0.2065
  245MOL0     C32942   0.202   6.622   3.651  0.4020 -0.8667  1.0566
  245MOL0     O32943   0.193   6.745   3.597 -0.4529 -0.2772  0.5784
  245MOL0     C32944   0.299   6.825   3.575 -0.5922  0.1945 -0.2099
  245MOL0     C32945   0.278   6.964   3.589 -0.6480  0.3144 -0.4044
  245MOL0     C32946   0.382   7.055   3.573  1.1557  0.3373 -0.0313
  245MOL0     C32947   0.521   7.014   3.553  0.2410 -0.0614  0.2157
  245MOL0     O32948   0.617   7.109   3.562 -0.1442  0.0034 -0.0058
  245MOL0     C32949   0.745   7.083   3.500 -0.3663 -0.2623  0.5173
  245MOL0     C32950   0.833   7.215   3.503 -0.4970  0.8718 -0.4513
  245MOL0     C32951   0.914   7.210   3.370 -0.1345 -0.2271  0.2439
  245MOL0     C32952   1.042   7.296   3.383  0.4751 -0.2289 -0.0579
  245MOL0     C32953   1.111   7.309   3.262  0.2626 -0.6677  0.3826
  245MOL0     C32954   1.223   7.405   3.271  0.0274  0.0431  0.0605
  245MOL0     C32955   1.301   7.425   3.139 -0.5901 -0.0416 -0.8592
  245MOL0     C32956   1.431   7.501   3.178  0.3455  0.2744 -0.5301
  245MOL0     N32957   1.494   7.549   3.056 -0.9344 -0.4370 -0.0273
  245MOL0     C32958   1.513   7.482   2.935  0.1028 -0.6879 -0.2893
  245MOL0     C32959   1.613   7.553   2.884 -0.0647  1.0130 -0.1816
  245MOL0     C32960   1.682   7.509   2.763 -0.6890  0.5842  0.6288
  245MOL0     C32961   1.800   7.407   2.795 -0.5674  0.7062 -0.1221
  245MOL0     C32962   1.912   7.472   2.881  0.5422 -1.1858  0.4096
  245MOL0     C32963   1.984   7.574   2.795  0.2517  0.0782 -0.0350
  245MOL0     O32964   2.098   7.628   2.858 -0.3907  0.0752  0.3359
  245MOL0     C32965   2.163   7.736   2.805 -0.3930  0.4184  0.4594
  245MOL0     C32966   2.113   7.815   2.702  0.6913 -0.1302 -0.8547
  245MOL0     C32967   2.188   7.930   2.657  0.6479  0.9028  0.6534
  245MOL0     C32968   2.319   7.947   2.699  0.5287 -0.1810 -1.0379
  245MOL0     C32969   2.412   8.051   2.644  0.9613 -0.1166 -0.1080
  245MOL0     O32970   2.539   8.053   2.698  0.0199 -0.9275 -0.0234
  245MOL0     C32971   2.647   8.106   2.619 -0.1755 -0.9177 -0.0106
  245MOL0     C32972   2.766   8.148   2.676  0.1897 -0.9934  0.0854
  245MOL0     C32973   2.878   8.194   2.602  1.1291 -0.4612 -0.2801
  245MOL0     C32974   2.869   8.190   2.465  0.4244  0.2910 -0.1267
  245MOL0     O32975   2.985   8.200   2.393 -0.5029 -0.3657  0.4742
  245MOL0     C32976   3.114   8.191   2.445  0.3092 -0.3976  0.4308
  245MOL0     C32977   3.223   8.153   2.336  0.3277 -0.3571 -0.6690
  245MOL0     C32978   3.356   8.142   2.398 -0.3228  0.2865 -0.7754
  245MOL0     C32979   3.464   8.070   2.307  0.1169  0.2693 -0.1526
  245MOL0     C32980   3.608   8.112   2.359  0.7836 -0.3036  0.9148
  245MOL0     C32981   3.710   8.040   2.271  0.4836  0.0603 -0.1415
  245MOL0     C32982   3.850   8.063   2.333  0.0946 -0.7099 -0.9507
  245MOL0     C32983   3.949   7.972   2.262 -0.9068  0.1116  0.4472
  245MOL0    Cl32984   4.116   7.980   2.337 -0.3215  0.4249 -0.0028
  245MOL0     C32985   2.755   8.140   2.401 -0.5375  0.2223  0.8071
  245MOL0     C32986   2.644   8.092   2.478  0.8152  0.1953  0.0871
  245MOL0     O32987   2.360   8.129   2.566 -0.8400 -0.6396  0.4870
  245MOL0     C32988   2.363   7.866   2.799 -0.2302 -0.4635  0.0487
  245MOL0     C32989   2.291   7.757   2.856  0.0655 -0.2128  0.5307
  245MOL0     N32990   1.639   7.669   2.950 -0.6676 -1.0910 -0.0540
  245MOL0     N32991   1.565   7.669   3.052 -0.1900 -0.7031 -0.1154
  245MOL0     C32992   0.543   6.875   3.526  0.4727 -0.7063  0.3508
  245MOL0     C32993   0.433   6.785   3.537  0.9802 -0.4041 -0.0950
  245MOL0     C32994   0.069   6.556   3.653  0.1981 -0.0937  0.0675
  245MOL0     C32995   0.064   6.425   3.707  0.9551  0.4209  0.2745
  245MOL0     C32996  -0.052   6.342   3.668 -0.0561  0.2863  0.8558
  245MOL0     C32997  -0.169   6.402   3.626  0.0784 -0.5118  0.4403
  245MOL0     O32998  -0.275   6.317   3.610  0.1445  0.3568 -0.2265
  245MOL0     C32999  -0.384   6.361   3.521 -0.8612  0.4364 -0.4584
  245MOL0     C33000  -0.494   6.255   3.509 -0.1721 -0.0150  0.4746
  245MOL0     C33001  -0.436   6.113   3.507 -0.2106  0.2780  0.1949
  245MOL0     C33002  -0.538   6.002   3.479  0.0154 -0.1048 -0.0919
  245MOL0     C33003  -0.621   5.989   3.599  0.0198  0.0170  0.0078
  245MOL0     C33004  -0.693   5.982   3.689  0.2503  0.5913 -0.8027
  245MOL0     C33005  -0.169   6.538   3.600 -0.0448 -0.2877 -0.7230
  245MOL0     C33006  -0.057   6.617   3.618 -0.1131  0.3889  0.4602
  245MOL0     C33007  -0.077   6.760   3.588 -0.4751 -0.1266  0.4543
  245MOL0     H33008   0.178   6.997   3.612 -1.2207 -0.8794 -1.0757
  245MOL0     H33009   0.359   7.158   3.601 -0.4494 -0.6722  2.7489
  245MOL0     H33010   0.801   6.998   3.540 -0.3044  0.1519  1.3469
  245MOL0     H33011   0.736   7.057   3.394  3.1795  0.7780 -0.1405
  245MOL0     H33012   0.903   7.211   3.587  1.3293  2.6152 -1.7907
  245MOL0     H33013   0.775   7.306   3.522 -1.7877 -0.1308  0.6059
  245MOL0     H33014   0.854   7.247   3.287 -1.0392 -1.2072  0.4363
  245MOL0     H33015   0.951   7.114   3.334  0.1891  0.6292 -1.8234
  245MOL0     H33016   1.012   7.397   3.414 -0.6054 -0.2096 -1.0637
  245MOL0     H33017   1.116   7.266   3.458  3.5505  1.3256 -2.2366
  245MOL0     H33018   1.133   7.212   3.216 -1.8128 -0.4802 -1.1570
  245MOL0     H33019   1.039   7.348   3.190  0.1659  0.4400  1.0438
  245MOL0     H33020   1.178   7.500   3.299 -0.3367 -1.0670  3.8075
  245MOL0     H33021   1.294   7.378   3.350 -0.9732 -2.9807  0.0598
  245MOL0     H33022   1.246   7.477   3.060 -0.9926  0.6039 -0.1593
  245MOL0     H33023   1.322   7.322   3.108 -2.3905  0.6234 -5.0887
  245MOL0     H33024   1.407   7.582   3.247 -1.0832 -0.4864 -0.1111
  245MOL0     H33025   1.508   7.435   3.220  0.3075  2.4638  3.4437
  245MOL0     H33026   1.480   7.387   2.894  1.3317 -0.5344 -1.7123
  245MOL0     H33027   1.615   7.467   2.687  1.3246  1.3449 -1.7021
  245MOL0     H33028   1.725   7.599   2.717  0.8454  0.0769  1.0318
  245MOL0     H33029   1.758   7.325   2.853 -0.9504 -0.2327 -1.6743
  245MOL0     H33030   1.842   7.360   2.706 -1.0582  0.9767 -0.4951
  245MOL0     H33031   1.996   7.402   2.895 -0.3686 -2.9751 -2.2289
  245MOL0     H33032   1.885   7.516   2.977 -0.7879 -1.6220  0.2511
  245MOL0     H33033   1.918   7.654   2.760  1.0852 -0.3731 -2.8939
  245MOL0     H33034   2.004   7.521   2.701 -3.6372  1.0992 -1.6328
  245MOL0     H33035   2.026   7.785   2.645  0.2491 -0.0136 -0.2430
  245MOL0     H33036   2.137   7.999   2.590 -0.8970 -0.8150 -0.0239
  245MOL0     H33037   2.782   8.155   2.783 -0.1760  1.2162  0.0463
  245MOL0     H33038   2.966   8.231   2.653  1.5183 -0.7639 -0.7200
  245MOL0     H33039   3.145   8.285   2.491 -0.3194  1.0514 -1.9449
  245MOL0     H33040   3.110   8.113   2.522 -1.2117  1.1429  1.9913
  245MOL0     H33041   3.199   8.062   2.281  1.2779  0.3732 -2.3637
  245MOL0     H33042   3.228   8.236   2.265  1.0068  1.9064  1.8197
  245MOL0     H33043   3.386   8.245   2.417 -4.0453  1.2997  0.5500
  245MOL0     H33044   3.352   8.090   2.494 -1.5220  2.1728  0.2667
  245MOL0     H33045   3.440   8.104   2.205 -1.9101 -3.5730 -1.1512
  245MOL0     H33046   3.442   7.963   2.308  1.7333 -0.0988 -1.0277
  245MOL0     H33047   3.629   8.090   2.464  1.4541  0.2444  0.9021
  245MOL0     H33048   3.611   8.220   2.347  0.6291 -0.5457 -2.2468
  245MOL0     H33049   3.683   7.934   2.267 -0.4286  0.0882  2.8027
  245MOL0     H33050   3.705   8.075   2.168 -0.1912 -2.6280 -1.0940
  245MOL0     H33051   3.843   8.044   2.440 -1.5559  0.9905 -0.6959
  245MOL0     H33052   3.880   8.167   2.316  0.1635 -0.8564 -1.7656
  245MOL0     H33053   3.916   7.868   2.251  1.3135 -0.4725 -1.7827
  245MOL0     H33054   3.960   8.012   2.160 -0.5721  1.2336  0.9061
  245MOL0     H33055   2.761   8.127   2.294  1.0716  0.7796  0.8095
  245MOL0     H33056   2.570   8.037   2.420  0.8384 -0.8390  1.0003
  245MOL0     H33057   2.463   7.877   2.839 -1.1775 -2.4628  3.4175
  245MOL0     H33058   2.332   7.687   2.928 -1.9620 -0.8493  1.1263
  245MOL0     H33059   0.641   6.844   3.490  0.7927  1.0339 -0.3875
  245MOL0     H33060   0.458   6.685   3.504 -1.3300 -1.8748  2.2236
  245MOL0     H33061   0.153   6.376   3.744 -0.5914 -1.8462  1.2670
  245MOL0     H33062  -0.039   6.235   3.681  1.0649  0.2672 -0.2639
  245MOL0     H33063  -0.321   6.381   3.434  0.2663 -0.6835  0.0603
  245MOL0     H33064  -0.433   6.449   3.561  0.6415  1.8480 -1.5678
  245MOL0     H33065  -0.553   6.262   3.418 -0.5041 -0.7925  0.6129
  245MOL0     H33066  -0.565   6.280   3.588  1.3755  0.0472  1.9182
  245MOL0     H33067  -0.399   6.102   3.609 -0.1713 -1.4890  0.0317
  245MOL0     H33068  -0.359   6.095   3.432  0.8548 -1.5875  1.6335
  245MOL0     H33069  -0.605   6.025   3.395 -0.5775  0.3893  0.4985
  245MOL0     H33070  -0.497   5.905   3.452 -2.5846 -0.8512 -1.8280
  245MOL0     H33071  -0.764   5.974   3.769  2.0535  1.0548  0.9240
  245MOL0     H33072  -0.268   6.578   3.576 -0.5775 -0.5302  0.9736
  245MOL0     H33073  -0.014   6.817   3.657  1.2349  0.3859 -1.4118
  245MOL0     H33074  -0.041   6.769   3.484  3.8051  0.1834  1.7721
  245MOL0     H33075  -0.181   6.792   3.598  0.4673  2.6640  2.5543
  246MOL0     O33076   2.820   3.341   9.758  0.4023  0.1964 -0.4366
  246MOL0     C33077   2.745   3.396   9.844 -0.5107  0.2007  0.7230
  246MOL0     O33078   2.769   3.508   9.914  0.4467  0.2739  0.5003
  246MOL0     C33079   2.882   3.582   9.877  0.1103 -0.9559 -0.2146
  246MOL0     C33080   2.986   3.590   9.973  0.5753  0.0189  0.1626
  246MOL0     C33081   3.087   3.686   9.960 -0.0450  0.0026 -0.5036
  246MOL0     C33082   3.096   3.777   9.844  0.6401  0.1345 -0.6239
  246MOL0     O33083   3.198   3.871   9.839  0.1918  0.2014 -0.0703
  246MOL0     C33084   3.244   3.901   9.704 -0.6909 -0.4638 -0.0937
  246MOL0     C33085   3.345   4.012   9.715  0.4364  1.0617 -0.1432
  246MOL0     C33086   3.386   4.047   9.573 -0.0051 -0.3138 -0.2477
  246MOL0     C33087   3.473   4.167   9.567 -0.0387  0.5807  0.0808
  246MOL0     C33088   3.519   4.189   9.419 -0.4746  0.2779  0.3455
  246MOL0     C33089   3.638   4.282   9.424  0.3479 -0.0819 -0.2101
  246MOL0     C33090   3.676   4.359   9.298  0.1912 -1.0875  0.6881
  246MOL0     C33091   3.772   4.281   9.215 -0.2013 -0.0507  0.7844
  246MOL0     N33092   3.846   4.377   9.120 -0.5783 -0.0956  0.2141
  246MOL0     C33093   3.974   4.360   9.079 -0.1466  1.4780 -0.7062
  246MOL0     C33094   4.004   4.460   8.999  0.5028  0.7586 -0.5482
  246MOL0     C33095   4.125   4.488   8.918  0.3025  0.2101 -0.1940
  246MOL0     C33096   4.214   4.355   8.902  0.0191 -0.1417  0.0450
  246MOL0     C33097   4.336   4.370   8.804  0.2050  0.0092 -0.2062
  246MOL0     C33098   4.454   4.460   8.855  0.4041 -0.6182  0.4175
  246MOL0     O33099   4.531   4.491   8.732 -0.1706  0.2316  0.5788
  246MOL0     C33100   4.657   4.537   8.742  0.0099 -0.2969  0.1125
  246MOL0     C33101   4.721   4.583   8.858 -0.6049 -0.7309 -1.0088
  246MOL0     C33102   4.860   4.604   8.862  0.7588 -0.4718  0.0662
  246MOL0     C33103   4.940   4.602   8.742  0.7832  1.0322 -0.1296
  246MOL0     C33104   5.082   4.629   8.747 -0.0796  0.1425  0.3686
  246MOL0     O33105   5.164   4.625   8.638  0.4698 -0.1851  0.3448
  246MOL0     C33106   5.299   4.619   8.635 -0.3445  0.4953  0.6856
  246MOL0     C33107   5.381   4.566   8.735 -0.2555 -0.8789 -0.0745
  246MOL0     C33108   5.521   4.571   8.720 -0.6703 -0.6365 -0.3240
  246MOL0     C33109   5.580   4.596   8.598  0.5078 -0.1583  1.0470
  246MOL0     O33110   5.719   4.587   8.575 -0.1106 -0.2850 -0.1093
  246MOL0     C33111   5.788   4.713   8.562  0.6892 -0.7948  0.0727
  246MOL0     C33112   5.879   4.748   8.686 -0.8087  0.2540 -0.0698
  246MOL0     C33113   6.007   4.654   8.690  0.7572 -0.3009  0.3119
  246MOL0     C33114   6.095   4.682   8.803  0.0047  0.7452  0.0967
  246MOL0     C33115   6.200   4.577   8.824 -0.3656  0.6248 -0.6944
  246MOL0     C33116   6.275   4.606   8.955  0.3337  0.4021  0.0672
  246MOL0     C33117   6.386   4.505   8.979 -0.4549 -0.7708  0.2437
  246MOL0     C33118   6.421   4.483   9.125 -0.0801  0.7566 -0.3237
  246MOL0    Cl33119   6.568   4.389   9.148 -0.3008  0.1743 -0.0323
  246MOL0     C33120   5.495   4.638   8.500 -0.4050 -0.3104 -0.3681
  246MOL0     C33121   5.356   4.658   8.520 -1.0010  0.6780  0.1579
  246MOL0     O33122   5.122   4.634   8.866 -0.5204 -0.1431  0.9246
  246MOL0     C33123   4.876   4.580   8.623 -0.0520 -0.3389  0.0208
  246MOL0     C33124   4.737   4.543   8.629 -0.6083  0.2098  0.7132
  246MOL0     N33125   3.895   4.542   8.985  0.2111 -0.0288 -0.0593
  246MOL0     N33126   3.802   4.488   9.053  0.2784  0.6435 -0.4426
  246MOL0     C33127   2.993   3.762   9.742 -0.1260  0.9073 -0.2096
  246MOL0     C33128   2.888   3.665   9.763  0.2665  0.5738  0.2201
  246MOL0     C33129   2.626   3.325   9.881  0.6061 -0.5534  0.1046
  246MOL0     C33130   2.634   3.180   9.898 -0.1869 -0.4542  0.3678
  246MOL0     C33131   2.524   3.111   9.938  0.1768  0.8624 -0.4366
  246MOL0     C33132   2.409   3.180   9.956  0.4744  0.6767 -0.6969
  246MOL0     O33133   2.288   3.118   9.987  0.3987 -0.4751  0.0395
  246MOL0     C33134   2.265   2.980   9.999 -0.0891  0.2690 -0.8874
  246MOL0     C33135   2.117   2.962  10.029  0.3097  0.7399 -0.4856
  246MOL0     C33136   2.082   2.817  10.079 -0.0792 -0.6596  0.0323
  246MOL0     C33137   1.933   2.801  10.086  1.0698  0.3335 -0.3389
  246MOL0     C33138   1.906   2.676  10.161 -1.3714 -0.2522  0.4071
  246MOL0     C33139   1.878   2.579  10.225  1.0415 -0.0268 -0.5209
  246MOL0     C33140   2.396   3.313   9.927 -0.1017  0.2841 -0.5486
  246MOL0     C33141   2.508   3.390   9.897  0.3063 -0.3825  0.3424
  246MOL0     C33142   2.489   3.543   9.873  0.4741 -0.4447  0.5487
  246MOL0     H33143   2.975   3.532  10.064  2.1401  2.4487  2.0441
  246MOL0     H33144   3.161   3.688  10.040  0.5375  1.0246 -1.0510
  246MOL0     H33145   3.286   3.809   9.664 -0.7688 -1.7510  2.5584
  246MOL0     H33146   3.168   3.939   9.636 -1.1408  0.0793  0.6888
  246MOL0     H33147   3.432   3.994   9.778 -1.0199  0.4034  1.7996
  246MOL0     H33148   3.285   4.094   9.756 -1.2351 -0.9139  1.6156
  246MOL0     H33149   3.306   4.061   9.501  0.6777  0.3392 -0.9067
  246MOL0     H33150   3.448   3.971   9.524  2.6212  2.8804 -2.2612
  246MOL0     H33151   3.427   4.261   9.600  0.0970  1.2170 -1.4610
  246MOL0     H33152   3.563   4.158   9.628 -1.3954  0.4343  2.1756
  246MOL0     H33153   3.543   4.091   9.377 -0.3605 -0.2604  1.6435
  246MOL0     H33154   3.443   4.231   9.352 -0.2936  0.3832  0.2055
  246MOL0     H33155   3.608   4.359   9.496 -0.4035  0.5087 -1.1372
  246MOL0     H33156   3.730   4.234   9.456  0.1771 -0.7355 -0.6775
  246MOL0     H33157   3.716   4.457   9.329  2.4850 -1.6564 -0.2316
  246MOL0     H33158   3.591   4.376   9.231  2.3371  1.2247 -1.7079
  246MOL0     H33159   3.831   4.210   9.275 -1.6329 -1.5648  0.4504
  246MOL0     H33160   3.717   4.213   9.150  0.0894 -3.4998  3.8020
  246MOL0     H33161   4.036   4.276   9.109 -2.0797 -0.1520 -1.0229
  246MOL0     H33162   4.097   4.523   8.818  2.0716 -1.5649 -1.3934
  246MOL0     H33163   4.185   4.567   8.964  0.2294 -1.3199  2.7508
  246MOL0     H33164   4.250   4.313   8.996  0.4708  1.1718  0.4898
  246MOL0     H33165   4.149   4.281   8.854  1.2531 -0.4138 -1.2575
  246MOL0     H33166   4.293   4.411   8.712  0.9747  2.6308  0.5174
  246MOL0     H33167   4.383   4.273   8.782  1.7757  0.7696 -0.3229
  246MOL0     H33168   4.512   4.396   8.922 -2.9077 -1.2002  2.9917
  246MOL0     H33169   4.420   4.554   8.900  1.8407  1.0616 -1.7950
  246MOL0     H33170   4.667   4.604   8.950  1.7052  2.3615 -0.2179
  246MOL0     H33171   4.894   4.637   8.960 -2.3022 -1.7418  1.7011
  246MOL0     H33172   5.334   4.533   8.827  2.6953 -1.3909  1.3774
  246MOL0     H33173   5.581   4.530   8.800  0.4980 -0.0448 -0.8747
  246MOL0     H33174   5.854   4.713   8.474  0.0829  2.0106 -0.4592
  246MOL0     H33175   5.731   4.805   8.550 -1.1438 -2.0370 -1.3481
  246MOL0     H33176   5.899   4.856   8.677 -4.9186  1.4554  2.2773
  246MOL0     H33177   5.829   4.724   8.780 -1.6653 -3.6994 -1.3605
  246MOL0     H33178   5.975   4.549   8.684  0.8089 -0.2833 -0.2932
  246MOL0     H33179   6.061   4.680   8.599 -0.6556  4.2493  0.5326
  246MOL0     H33180   6.031   4.677   8.892 -1.4243  3.7335 -0.6115
  246MOL0     H33181   6.141   4.781   8.797 -1.8225  1.5601 -1.5958
  246MOL0     H33182   6.276   4.583   8.746  2.2079  0.2893  1.6529
  246MOL0     H33183   6.142   4.485   8.835  0.4182  0.0521 -1.2760
  246MOL0     H33184   6.325   4.702   8.946  0.1931  0.3945 -0.9108
  246MOL0     H33185   6.204   4.609   9.038  0.3810 -1.0487  0.2017
  246MOL0     H33186   6.477   4.530   8.923  1.0968  0.6405  3.1723
  246MOL0     H33187   6.349   4.410   8.939 -3.7021 -0.5864  2.4412
  246MOL0     H33188   6.442   4.578   9.174  0.8064 -0.3905  1.6168
  246MOL0     H33189   6.335   4.441   9.178 -0.7775  2.6061  0.0840
  246MOL0     H33190   5.524   4.667   8.399  0.5194  1.7252  0.4269
  246MOL0     H33191   5.292   4.712   8.452  0.7302 -1.3219 -3.3273
  246MOL0     H33192   4.937   4.582   8.534 -0.8466  1.0765 -0.5306
  246MOL0     H33193   4.699   4.529   8.529 -0.2718  0.0148  0.6120
  246MOL0     H33194   3.001   3.814   9.647  3.7201 -2.1955 -1.8742
  246MOL0     H33195   2.800   3.670   9.699  0.4656 -0.5259 -0.1511
  246MOL0     H33196   2.735   3.142   9.888  1.3770  2.7669  2.4280
  246MOL0     H33197   2.550   3.009   9.963  0.3410  1.2949  1.2423
  246MOL0     H33198   2.320   2.945  10.087  1.0217  1.8901 -0.9050
  246MOL0     H33199   2.291   2.914   9.916  1.8115  0.0549 -0.1704
  246MOL0     H33200   2.073   2.980   9.931 -0.1405  2.0094 -0.0668
  246MOL0     H33201   2.080   3.043  10.092 -0.3840 -0.3704  0.6005
  246MOL0     H33202   2.114   2.811  10.184 -4.4973  1.0311  1.7015
  246MOL0     H33203   2.130   2.740  10.018  1.6755  0.2059  0.2338
  246MOL0     H33204   1.884   2.888  10.131  0.6659 -0.5543  1.0172
  246MOL0     H33205   1.897   2.802   9.983  0.8751  2.3148 -0.2957
  246MOL0     H33206   1.873   2.506  10.304  1.8128  2.0023  1.5141
  246MOL0     H33207   2.299   3.358   9.949 -2.0311 -2.2357 -3.0572
  246MOL0     H33208   2.480   3.603   9.964 -0.8504  0.5531 -0.2231
  246MOL0     H33209   2.559   3.587   9.803 -1.6317  2.1115 -0.0764
  246MOL0     H33210   2.392   3.559   9.826  0.9377  0.0906 -0.2299
  247MOL0     O33211   2.535   1.305   3.137 -0.6341  0.4420  0.5979
  247MOL0     C33212   2.533   1.427   3.112  0.6718 -0.1997  0.0073
  247MOL0     O33213   2.629   1.514   3.149 -0.3176  0.3504  0.1497
  247MOL0     C33214   2.756   1.470   3.172  0.4752  0.6308 -0.2849
  247MOL0     C33215   2.809   1.354   3.112 -0.3078  0.6674  0.2454
  247MOL0     C33216   2.941   1.305   3.143 -0.1035 -0.3447 -0.3726
  247MOL0     C33217   3.016   1.375   3.239  0.0713 -0.0181 -0.4758
  247MOL0     O33218   3.145   1.346   3.272 -0.0390 -0.6546  1.3176
  247MOL0     C33219   3.193   1.215   3.257  0.0098 -0.0780 -0.2882
  247MOL0     C33220   3.318   1.211   3.337 -0.6946 -0.1770 -0.2079
  247MOL0     C33221   3.435   1.276   3.257  0.1026 -0.4236  0.6578
  247MOL0     C33222   3.565   1.276   3.345 -0.9761 -0.7449  0.3651
  247MOL0     C33223   3.676   1.375   3.300 -0.2676  0.0126  0.4925
  247MOL0     C33224   3.742   1.329   3.169  1.0072 -0.2479  0.3574
  247MOL0     C33225   3.881   1.385   3.147  0.1973  0.1143 -0.3723
  247MOL0     C33226   3.892   1.536   3.145 -0.6523  0.8886 -0.4688
  247MOL0     N33227   4.030   1.582   3.136  0.1483 -0.1719  0.2024
  247MOL0     C33228   4.075   1.701   3.190  0.3297 -0.0439 -0.5560
  247MOL0     C33229   4.213   1.697   3.184 -0.8864  0.8064  0.2771
  247MOL0     C33230   4.307   1.795   3.252  0.3235  0.6096 -0.4152
  247MOL0     C33231   4.455   1.782   3.219 -0.1433  0.0345  0.3048
  247MOL0     C33232   4.510   1.660   3.286 -0.6320  0.2354  0.3464
  247MOL0     C33233   4.668   1.645   3.264  0.0200  0.0504  0.3969
  247MOL0     O33234   4.735   1.767   3.248  0.8106 -0.8245 -0.2649
  247MOL0     C33235   4.867   1.770   3.283  0.3688  0.3891 -0.3779
  247MOL0     C33236   4.920   1.899   3.316  0.6900  0.1159  0.2607
  247MOL0     C33237   5.052   1.908   3.356  0.3732 -0.0329  0.4438
  247MOL0     C33238   5.137   1.800   3.352  0.1177 -0.1632 -0.3430
  247MOL0     C33239   5.272   1.825   3.391  0.1923  0.0575 -0.9080
  247MOL0     O33240   5.309   1.952   3.419  0.3141  0.2520  0.8835
  247MOL0     C33241   5.438   1.984   3.466 -0.2933 -0.0586  0.3737
  247MOL0     C33242   5.551   1.901   3.464  1.1674 -0.4730 -0.1960
  247MOL0     C33243   5.668   1.944   3.515  0.2497  0.5687 -0.3710
  247MOL0     C33244   5.687   2.076   3.554 -0.1192 -0.8235  0.6607
  247MOL0     O33245   5.809   2.117   3.594 -0.0629  0.8336 -0.1956
  247MOL0     C33246   5.834   2.234   3.675  0.6184 -0.2228 -0.3962
  247MOL0     C33247   5.971   2.236   3.740  0.2565 -0.7269 -0.8158
  247MOL0     C33248   5.962   2.157   3.874 -0.0713  0.4209  0.5068
  247MOL0     C33249   5.922   2.251   3.987  0.3181 -1.2044  0.4959
  247MOL0     C33250   5.859   2.180   4.106  0.0941  0.1090  0.1230
  247MOL0     C33251   5.804   2.290   4.196  0.3887 -0.4146  0.4635
  247MOL0     C33252   5.784   2.233   4.330  0.1770 -0.4474 -0.5507
  247MOL0     C33253   5.724   2.333   4.431 -0.2681 -0.5121  0.0987
  247MOL0    Cl33254   5.550   2.351   4.422 -0.1832  0.2759  0.0555
  247MOL0     C33255   5.575   2.165   3.561 -0.4308  0.2916  0.3249
  247MOL0     C33256   5.455   2.117   3.507 -0.2580 -0.4330 -0.1745
  247MOL0     O33257   5.340   1.725   3.407 -0.0191  0.4348 -0.2126
  247MOL0     C33258   5.086   1.677   3.308 -0.8107 -0.1900  0.5934
  247MOL0     C33259   4.953   1.665   3.281  0.9101  0.0760  0.3249
  247MOL0     N33260   4.244   1.586   3.109 -0.2337 -0.0670 -0.0470
  247MOL0     N33261   4.141   1.514   3.085  0.0945 -0.2999  0.7499
  247MOL0     C33262   2.965   1.494   3.288  0.4764  0.0161 -0.2802
  247MOL0     C33263   2.838   1.542   3.257  0.0518 -0.8217 -0.4520
  247MOL0     C33264   2.419   1.494   3.048 -0.1616  0.3375 -0.9829
  247MOL0     C33265   2.398   1.632   3.082 -0.1963  0.5060 -0.4744
  247MOL0     C33266   2.282   1.693   3.042  0.3634 -0.0991  0.3189
  247MOL0     C33267   2.185   1.628   2.967 -0.8928 -0.2653  0.3550
  247MOL0     O33268   2.072   1.681   2.924  0.5098  0.4426 -0.3967
  247MOL0     C33269   2.026   1.818   2.958  0.0752  0.9307  0.9135
  247MOL0     C33270   1.952   1.804   3.089 -0.2267  0.4788  0.5027
  247MOL0     C33271   1.817   1.734   3.076 -0.5901 -0.3421 -0.7371
  247MOL0     C33272   1.737   1.774   3.194  0.1549  0.0423 -0.1937
  247MOL0     C33273   1.702   1.911   3.176  0.1625 -0.7613  0.1210
  247MOL0     C33274   1.662   2.024   3.162 -0.3749  0.7453 -0.1721
  247MOL0     C33275   2.208   1.496   2.925 -0.2972  0.0941 -0.0425
  247MOL0     C33276   2.319   1.431   2.971  0.0301  0.3526 -0.1713
  247MOL0     C33277   2.328   1.283   2.946 -0.1382 -0.0319  0.4904
  247MOL0     H33278   2.757   1.300   3.033  1.6052  1.2154 -1.5018
  247MOL0     H33279   2.989   1.225   3.087  1.2127  0.7869 -0.9029
  247MOL0     H33280   3.121   1.143   3.297  1.7265 -0.8691  1.5687
  247MOL0     H33281   3.210   1.193   3.151  2.3211 -0.6677  0.1418
  247MOL0     H33282   3.344   1.105   3.350  2.2477  0.7783  3.5885
  247MOL0     H33283   3.305   1.246   3.440  2.2134 -0.2873  0.2798
  247MOL0     H33284   3.394   1.375   3.238 -1.8742 -1.3814 -0.3991
  247MOL0     H33285   3.451   1.240   3.155  0.1591  0.5493  0.3193
  247MOL0     H33286   3.532   1.306   3.445 -1.6859  0.1205 -0.1183
  247MOL0     H33287   3.603   1.173   3.340 -1.6940 -0.9447 -2.2280
  247MOL0     H33288   3.638   1.477   3.289 -0.6492 -0.1801 -0.0366
  247MOL0     H33289   3.746   1.368   3.383 -1.3308  0.0957  1.4297
  247MOL0     H33290   3.739   1.220   3.180 -2.4407 -0.2014  1.0218
  247MOL0     H33291   3.678   1.354   3.083 -0.4838 -0.2063  1.4499
  247MOL0     H33292   3.921   1.346   3.053 -0.6618  2.6557 -1.8940
  247MOL0     H33293   3.945   1.345   3.227 -0.8324 -0.1959  0.3164
  247MOL0     H33294   3.828   1.566   3.061 -0.9758  3.2810  0.5582
  247MOL0     H33295   3.853   1.586   3.234 -1.9690  0.4397 -0.7676
  247MOL0     H33296   4.014   1.774   3.243  0.8573 -0.5855  0.8557
  247MOL0     H33297   4.267   1.894   3.229 -0.1570  0.1733 -1.4984
  247MOL0     H33298   4.289   1.780   3.359  0.8920 -0.3817 -0.4390
  247MOL0     H33299   4.481   1.773   3.113  0.3945  2.0649  0.2216
  247MOL0     H33300   4.506   1.873   3.252  0.9186 -0.0067 -1.1179
  247MOL0     H33301   4.475   1.566   3.241  2.1195 -0.8229  0.2528
  247MOL0     H33302   4.501   1.672   3.394 -0.3837  2.0803  0.1999
  247MOL0     H33303   4.699   1.582   3.181  2.1638  1.2756  0.1825
  247MOL0     H33304   4.691   1.593   3.358 -1.8763 -2.0217 -0.2130
  247MOL0     H33305   4.849   1.981   3.316  1.2032  0.5875 -1.0153
  247MOL0     H33306   5.083   2.008   3.386  1.1325  0.4368 -1.7707
  247MOL0     H33307   5.547   1.800   3.425  0.8769 -0.3079 -0.6077
  247MOL0     H33308   5.753   1.877   3.509  1.4783  1.8002  1.8984
  247MOL0     H33309   5.832   2.321   3.609  2.7395 -0.9777 -1.5108
  247MOL0     H33310   5.769   2.248   3.763  1.5960  2.6811 -0.0364
  247MOL0     H33311   6.048   2.193   3.675  2.4063  1.0539  0.3782
  247MOL0     H33312   6.000   2.339   3.766 -0.6201 -1.1209  2.0732
  247MOL0     H33313   5.894   2.072   3.868  1.0938 -0.4742 -0.2477
  247MOL0     H33314   6.061   2.114   3.891 -0.8001 -1.4896  0.1458
  247MOL0     H33315   5.853   2.324   3.944  1.2804 -0.3485  0.3931
  247MOL0     H33316   6.008   2.308   4.024 -1.7840  1.8425  1.0800
  247MOL0     H33317   5.942   2.132   4.160  1.0478 -1.1491 -2.3194
  247MOL0     H33318   5.779   2.112   4.078 -1.4140  2.2826 -1.1571
  247MOL0     H33319   5.887   2.360   4.208  2.4415 -2.8248  1.3540
  247MOL0     H33320   5.710   2.328   4.154 -2.5511 -4.5816  2.4986
  247MOL0     H33321   5.881   2.195   4.363 -1.0241 -2.6178  0.7821
  247MOL0     H33322   5.722   2.143   4.332 -1.0782  0.3838 -0.5027
  247MOL0     H33323   5.737   2.306   4.536 -0.1709 -1.6736 -0.2012
  247MOL0     H33324   5.775   2.425   4.402  0.9640 -0.0420  3.3919
  247MOL0     H33325   5.584   2.264   3.605  1.8428 -0.4558  1.6838
  247MOL0     H33326   5.373   2.186   3.492  2.6146  2.7954 -2.7651
  247MOL0     H33327   5.158   1.597   3.288  1.4006  1.9155 -0.4094
  247MOL0     H33328   4.911   1.572   3.243  3.2953 -0.9251 -0.0142
  247MOL0     H33329   3.030   1.552   3.354  0.3896 -0.3826  0.1589
  247MOL0     H33330   2.794   1.635   3.291  1.1682 -1.2291  2.3889
  247MOL0     H33331   2.452   1.678   3.164  0.6587 -0.2557 -0.6021
  247MOL0     H33332   2.261   1.796   3.070  0.6772  1.2982 -3.8558
  247MOL0     H33333   1.956   1.850   2.881 -0.7562 -1.0544  0.7938
  247MOL0     H33334   2.110   1.889   2.961  0.6385  0.2844  0.7412
  247MOL0     H33335   1.947   1.901   3.139 -0.4540 -0.0611  1.5436
  247MOL0     H33336   2.013   1.751   3.163 -0.7076 -0.9820 -0.1095
  247MOL0     H33337   1.831   1.625   3.082 -2.2272 -0.5049  1.2654
  247MOL0     H33338   1.773   1.764   2.981  0.1546  3.2275 -0.0770
  247MOL0     H33339   1.645   1.715   3.189  0.2651 -0.1378 -0.1004
  247MOL0     H33340   1.793   1.757   3.286  0.7850 -1.2323 -0.7832
  247MOL0     H33341   1.646   2.128   3.139  0.6923  0.7343 -1.1015
  247MOL0     H33342   2.129   1.451   2.866 -1.6288  0.5452  1.3197
  247MOL0     H33343   2.424   1.246   2.908  0.0763 -1.0250  1.9242
  247MOL0     H33344   2.303   1.221   3.032 -0.8557 -1.3469 -0.6279
  247MOL0     H33345   2.249   1.256   2.875  0.7837  0.8999 -0.9569
  248MOL0     O33346   9.550   6.911   9.856  0.5356  0.3477 -0.2317
  248MOL0     C33347   9.503   6.968   9.756 -0.7870  0.5477 -0.3714
  248MOL0     O33348   9.588   7.061   9.680 -0.2402  0.0882 -0.4824
  248MOL0     C33349   9.719   7.091   9.709  0.0501 -0.5044 -1.0213
  248MOL0     C33350   9.799   7.039   9.810  0.1407 -0.1261  0.6105
  248MOL0     C33351   9.934   7.077   9.825 -0.2950  0.1002 -0.0119
  248MOL0     C33352   9.992   7.174   9.740  0.8525 -0.3778  0.8445
  248MOL0     O33353  10.120   7.214   9.742 -0.7754 -0.1254 -0.1232
  248MOL0     C33354  10.137   7.320   9.840  0.4233 -0.0236  0.0020
  248MOL0     C33355  10.289   7.345   9.871  0.3989  0.1734  0.0350
  248MOL0     C33356  10.364   7.407   9.753  0.3712  0.1687 -0.3219
  248MOL0     C33357  10.507   7.391   9.749  0.2259  0.1930  0.2956
  248MOL0     C33358  10.562   7.247   9.740 -0.2908  1.3563  0.4611
  248MOL0     C33359  10.686   7.243   9.656  0.5918 -0.4486 -0.1377
  248MOL0     C33360  10.813   7.332   9.697 -0.1606  0.0633  0.4034
  248MOL0     C33361  10.913   7.341   9.583  0.3022  0.3747 -0.2152
  248MOL0     N33362  11.009   7.455   9.606 -0.0548  0.5647 -0.5869
  248MOL0     C33363  11.122   7.449   9.692  0.2965  0.4216  0.9068
  248MOL0     C33364  11.210   7.547   9.649  0.3773 -0.0911  0.3185
  248MOL0     C33365  11.346   7.579   9.694 -0.8485 -0.7719 -0.3496
  248MOL0     C33366  11.421   7.671   9.599 -0.3410 -0.8653  0.1750
  248MOL0     C33367  11.554   7.702   9.672 -0.5365 -0.0393 -0.4544
  248MOL0     C33368  11.646   7.774   9.582 -0.0425 -0.9102  0.4845
  248MOL0     O33369  11.748   7.823   9.666  0.0831 -0.5741 -0.1382
  248MOL0     C33370  11.861   7.858   9.604  0.3201  0.8587  1.0550
  248MOL0     C33371  11.973   7.862   9.680 -0.2733  0.1988  0.2710
  248MOL0     C33372  12.097   7.877   9.627 -0.2629  0.7147 -0.6692
  248MOL0     C33373  12.116   7.891   9.487  0.6493 -0.1662  0.3550
  248MOL0     C33374  12.254   7.895   9.436 -1.0222 -0.0275 -0.2387
  248MOL0     O33375  12.352   7.870   9.528 -0.4900 -0.4324 -0.0746
  248MOL0     C33376  12.484   7.844   9.498 -0.4524 -0.0421  0.3877
  248MOL0     C33377  12.565   7.790   9.601 -0.0923 -0.0016 -0.1960
  248MOL0     C33378  12.694   7.751   9.585  0.5940  0.0027  0.0877
  248MOL0     C33379  12.763   7.763   9.457  1.1047 -0.4627 -0.0828
  248MOL0     O33380  12.893   7.741   9.454 -1.1109  0.5104  0.1484
  248MOL0     C33381  12.976   7.733   9.338 -0.6785  0.6785 -0.2024
  248MOL0     C33382  13.105   7.649   9.374 -0.5686 -0.1178  0.9243
  248MOL0     C33383  13.201   7.648   9.257 -0.3213 -0.2925  0.3386
  248MOL0     C33384  13.332   7.576   9.288 -1.0781 -0.5384  0.3296
  248MOL0     C33385  13.439   7.574   9.173  0.0232 -0.3060 -0.8926
  248MOL0     C33386  13.573   7.519   9.215 -0.3232  0.0415 -0.0143
  248MOL0     C33387  13.670   7.515   9.099 -0.4645  0.8584  0.4018
  248MOL0     C33388  13.664   7.385   9.031  0.7989 -0.1534 -1.0192
  248MOL0    Cl33389  13.746   7.407   8.877 -0.0189  0.2230 -0.4593
  248MOL0     C33390  12.687   7.825   9.355 -0.3577  0.0024 -0.0413
  248MOL0     C33391  12.554   7.863   9.370  0.2366  0.3562  0.3609
  248MOL0     O33392  12.278   7.911   9.312  0.5297 -0.2998 -0.0156
  248MOL0     C33393  12.011   7.863   9.402 -0.0154 -0.0942  0.5814
  248MOL0     C33394  11.884   7.858   9.462  0.1954  0.4423  0.2806
  248MOL0     N33395  11.153   7.615   9.536  0.4779 -0.5112  0.0661
  248MOL0     N33396  11.042   7.546   9.512  0.3827  0.3864  0.1901
  248MOL0     C33397   9.916   7.220   9.624 -0.3325 -0.0500 -0.4168
  248MOL0     C33398   9.782   7.182   9.622  0.1785 -0.5760 -0.5051
  248MOL0     C33399   9.358   6.962   9.721  0.1786  0.0165 -0.0135
  248MOL0     C33400   9.304   7.076   9.659  0.4178  0.7661 -0.2324
  248MOL0     C33401   9.167   7.073   9.628  0.2195  0.3740  0.0136
  248MOL0     C33402   9.084   6.961   9.651 -0.5570  0.4174 -0.3736
  248MOL0     O33403   8.964   6.972   9.596  0.4744 -0.1324 -0.9727
  248MOL0     C33404   8.875   6.865   9.621  1.0324  0.2855 -0.5537
  248MOL0     C33405   8.749   6.901   9.555  0.5802  0.1868  0.4413
  248MOL0     C33406   8.627   6.854   9.619 -0.1785 -0.4433 -1.1112
  248MOL0     C33407   8.496   6.915   9.573  0.0963  0.3316  0.4271
  248MOL0     C33408   8.392   6.815   9.570  0.2190  0.2535  0.6414
  248MOL0     C33409   8.308   6.725   9.570  0.5393  0.5749 -0.7128
  248MOL0     C33410   9.141   6.845   9.709 -0.4761  0.2349 -0.2975
  248MOL0     C33411   9.274   6.849   9.742  1.6519 -0.1967  0.0974
  248MOL0     C33412   9.323   6.718   9.801  0.6962  0.3365  0.4212
  248MOL0     H33413   9.760   6.965   9.880 -0.8091  0.5732  0.8370
  248MOL0     H33414   9.989   7.032   9.908 -0.1076  1.7264  0.7976
  248MOL0     H33415  10.095   7.415   9.807 -1.0731 -0.0660  1.6250
  248MOL0     H33416  10.083   7.296   9.932  0.2059  0.5624  0.0325
  248MOL0     H33417  10.339   7.249   9.886 -0.5408 -0.5423 -1.3099
  248MOL0     H33418  10.304   7.401   9.964 -1.9583  0.8433  0.0826
  248MOL0     H33419  10.344   7.515   9.752 -1.3931 -0.0700  1.9959
  248MOL0     H33420  10.330   7.362   9.659 -2.3561 -0.3497  0.8057
  248MOL0     H33421  10.547   7.450   9.666 -0.4193  0.7733  0.3913
  248MOL0     H33422  10.547   7.438   9.840  1.9360 -0.0781 -0.2724
  248MOL0     H33423  10.588   7.204   9.837  1.1558 -0.4004 -0.6390
  248MOL0     H33424  10.487   7.184   9.692  0.5574 -0.8009  1.7889
  248MOL0     H33425  10.726   7.142   9.657  2.6719  0.3264 -0.7906
  248MOL0     H33426  10.660   7.243   9.550 -0.8494 -2.9230  0.1549
  248MOL0     H33427  10.848   7.295   9.794 -0.8268 -1.2034  0.1834
  248MOL0     H33428  10.774   7.435   9.705 -1.7599 -0.4898  0.1906
  248MOL0     H33429  10.972   7.249   9.574  0.3900  0.3156  0.7679
  248MOL0     H33430  10.858   7.361   9.491 -2.1975  0.5876  1.2294
  248MOL0     H33431  11.136   7.367   9.761  0.2045 -2.8080 -2.5934
  248MOL0     H33432  11.317   7.631   9.786 -2.0074  0.2623 -1.2737
  248MOL0     H33433  11.393   7.482   9.713 -0.0319 -0.0813  1.4832
  248MOL0     H33434  11.442   7.624   9.503  0.4228  0.2675 -0.2346
  248MOL0     H33435  11.363   7.761   9.573 -1.5325 -1.5541  0.3832
  248MOL0     H33436  11.597   7.609   9.710  0.0587 -0.6351 -2.4704
  248MOL0     H33437  11.528   7.766   9.757  1.9783 -1.0575  1.2030
  248MOL0     H33438  11.591   7.856   9.535  0.3839  0.2748  1.9738
  248MOL0     H33439  11.685   7.700   9.511  1.7968  1.1263 -0.7297
  248MOL0     H33440  11.956   7.863   9.788  0.7083  0.6902  0.4341
  248MOL0     H33441  12.185   7.876   9.692  0.6615 -1.1457 -1.8747
  248MOL0     H33442  12.526   7.784   9.703  1.1412 -2.3188  0.2090
  248MOL0     H33443  12.725   7.696   9.674  3.0220  2.5451  0.9482
  248MOL0     H33444  12.919   7.678   9.263 -0.2057 -1.3399  0.8607
  248MOL0     H33445  13.005   7.834   9.304 -0.0134  0.8539  0.8330
  248MOL0     H33446  13.159   7.700   9.455 -0.4283 -1.4374  1.6942
  248MOL0     H33447  13.076   7.552   9.416 -2.1026 -0.2495 -0.3655
  248MOL0     H33448  13.151   7.620   9.163 -1.9997  1.2510  0.7220
  248MOL0     H33449  13.225   7.751   9.230 -0.8535 -0.4479 -0.7979
  248MOL0     H33450  13.305   7.474   9.314 -1.1801 -0.9806 -1.4149
  248MOL0     H33451  13.381   7.622   9.375  1.2104  0.4394 -1.3811
  248MOL0     H33452  13.447   7.678   9.138 -1.8966  0.8041  1.6388
  248MOL0     H33453  13.406   7.512   9.089 -0.1348  0.0945 -1.1328
  248MOL0     H33454  13.604   7.573   9.305 -0.6954 -2.1936  1.5484
  248MOL0     H33455  13.555   7.419   9.255  2.4145 -0.6179 -0.2438
  248MOL0     H33456  13.774   7.537   9.128  0.9378 -0.8678 -2.7734
  248MOL0     H33457  13.632   7.577   9.018 -6.2703 -2.9893 -0.4046
  248MOL0     H33458  13.709   7.299   9.082 -0.2428 -0.9394 -1.3737
  248MOL0     H33459  13.559   7.356   9.018  0.5402  0.0509  0.4153
  248MOL0     H33460  12.736   7.849   9.261 -0.8838 -0.8229 -0.5338
  248MOL0     H33461  12.507   7.907   9.282  0.1140 -2.1160 -0.9168
  248MOL0     H33462  12.023   7.844   9.295  1.3305 -2.3757  1.0505
  248MOL0     H33463  11.795   7.846   9.402 -0.6395  2.4152  1.0357
  248MOL0     H33464   9.958   7.284   9.546  2.1677  1.8044  2.2589
  248MOL0     H33465   9.715   7.203   9.539 -0.8670 -0.5356  0.3378
  248MOL0     H33466   9.364   7.164   9.639  0.2314  0.6687 -1.2717
  248MOL0     H33467   9.130   7.159   9.572  0.4374  0.6317  0.2578
  248MOL0     H33468   8.863   6.865   9.729  0.7792  0.7456 -0.5788
  248MOL0     H33469   8.913   6.766   9.595 -1.8796 -1.4962  1.4360
  248MOL0     H33470   8.760   6.848   9.460  1.9234  0.0390  0.6598
  248MOL0     H33471   8.742   7.010   9.541 -0.4634  0.7372  4.0049
  248MOL0     H33472   8.637   6.888   9.723 -1.7098 -0.0680 -1.0592
  248MOL0     H33473   8.621   6.745   9.623 -0.2649 -0.4976 -2.3834
  248MOL0     H33474   8.460   6.998   9.634 -0.9779 -0.3543  0.7573
  248MOL0     H33475   8.500   6.951   9.470  0.2411 -2.1214 -0.5042
  248MOL0     H33476   8.234   6.648   9.562 -0.7321  1.2547  2.6814
  248MOL0     H33477   9.085   6.754   9.725 -0.5903  0.5819  1.5831
  248MOL0     H33478   9.358   6.672   9.708 -0.9773  1.2492 -0.6998
  248MOL0     H33479   9.391   6.731   9.886  1.4624  0.1734 -0.1590
  248MOL0     H33480   9.242   6.663   9.849  1.3077  1.2482  2.6590
  249MOL0     O33481   0.981   8.843  10.085  0.4497  0.4439  0.0766
  249MOL0     C33482   0.879   8.912  10.083 -0.2520  0.1204 -0.3307
  249MOL0     O33483   0.879   9.043  10.096  0.2331 -0.4292  0.1715
  249MOL0     C33484   0.995   9.116  10.107  0.3219 -0.0830 -0.0667
  249MOL0     C33485   1.068   9.162  10.000  0.1377  0.3765 -0.7836
  249MOL0     C33486   1.177   9.255  10.012  0.7506 -0.1328 -0.8490
  249MOL0     C33487   1.204   9.308  10.138  0.6611  0.6249 -0.6236
  249MOL0     O33488   1.293   9.400  10.157  0.0342 -0.0499 -0.0642
  249MOL0     C33489   1.429   9.357  10.126  0.3679  0.4183 -0.0129
  249MOL0     C33490   1.537   9.452  10.181  0.1331  0.6301  0.8717
  249MOL0     C33491   1.679   9.397  10.150 -0.0504  0.1771 -0.4901
  249MOL0     C33492   1.732   9.308  10.274  0.5215  0.2004  0.2034
  249MOL0     C33493   1.849   9.212  10.249 -0.8007  0.4394  0.0371
  249MOL0     C33494   1.962   9.287  10.176 -0.2799  0.5060 -0.0489
  249MOL0     C33495   2.099   9.215  10.205 -0.1900 -0.0044 -0.2702
  249MOL0     C33496   2.218   9.306  10.165 -0.1347 -0.3015 -0.4508
  249MOL0     N33497   2.349   9.252  10.130 -0.6221  0.3518  0.0992
  249MOL0     C33498   2.453   9.317  10.065 -0.7657  0.4037  0.5051
  249MOL0     C33499   2.544   9.219  10.024 -0.5120 -0.9165  0.4467
  249MOL0     C33500   2.673   9.256   9.970 -0.1350 -0.1695 -0.4973
  249MOL0     C33501   2.765   9.293  10.086  0.1808 -0.1837 -0.7616
  249MOL0     C33502   2.911   9.281  10.039 -0.7950 -0.1282  0.5981
  249MOL0     C33503   3.012   9.318  10.153 -0.3304 -0.0648  0.7051
  249MOL0     O33504   3.140   9.301  10.096  0.3359  0.0152 -0.4224
  249MOL0     C33505   3.252   9.353  10.164 -0.4380  0.6994  0.4460
  249MOL0     C33506   3.255   9.420  10.286  0.0108 -0.1031  0.3848
  249MOL0     C33507   3.363   9.469  10.341  1.0252 -0.7010 -0.2231
  249MOL0     C33508   3.485   9.454  10.276 -0.7291 -1.1509  0.1659
  249MOL0     C33509   3.609   9.519  10.330 -0.2848  0.3151  0.3879
  249MOL0     O33510   3.614   9.560  10.463  0.3814 -0.1108 -0.2771
  249MOL0     C33511   3.731   9.622  10.509 -0.5917  0.5774 -0.0862
  249MOL0     C33512   3.737   9.762  10.517 -0.6341 -0.3992 -0.5506
  249MOL0     C33513   3.848   9.823  10.574 -0.5461  0.7014  0.1794
  249MOL0     C33514   3.967   9.749  10.605  0.2911  0.4891  0.3054
  249MOL0     O33515   4.081   9.823  10.647  0.1503 -0.0476 -0.1937
  249MOL0     C33516   4.205   9.752  10.637 -0.3629 -0.0018 -0.8191
  249MOL0     C33517   4.327   9.836  10.679  0.3939 -0.6268 -0.0927
  249MOL0     C33518   4.348   9.946  10.568  0.1440 -0.4476 -0.3423
  249MOL0     C33519   4.481  10.019  10.587 -0.0205  0.1036 -0.2416
  249MOL0     C33520   4.535  10.089  10.464 -0.4617  0.6409  0.2876
  249MOL0     C33521   4.467  10.234  10.426 -0.1763  0.1323  0.2209
  249MOL0     C33522   4.525  10.284  10.293 -1.2211  1.3264  0.7035
  249MOL0     C33523   4.657  10.351  10.308  0.7430 -0.4864 -0.4338
  249MOL0    Cl33524   4.775  10.236  10.263  0.1819  0.1204  0.1436
  249MOL0     C33525   3.956   9.607  10.576  0.0902 -0.4328 -0.8291
  249MOL0     C33526   3.843   9.543  10.528  0.0418  0.1674 -0.6268
  249MOL0     O33527   3.694   9.541  10.246 -0.2454  0.1916  0.4911
  249MOL0     C33528   3.487   9.388  10.154 -0.5816  0.2598  0.8607
  249MOL0     C33529   3.377   9.331  10.103  0.6842  0.0107 -0.2858
  249MOL0     N33530   2.496   9.095  10.060  0.0493 -0.5614  0.4355
  249MOL0     N33531   2.383   9.121  10.121 -0.4081 -0.6203 -0.4519
  249MOL0     C33532   1.133   9.261  10.245  0.4924  0.2219 -0.1891
  249MOL0     C33533   1.030   9.166  10.228 -0.1206  0.0775 -1.0097
  249MOL0     C33534   0.753   8.841  10.058 -0.3665  0.3149 -0.3074
  249MOL0     C33535   0.704   8.768  10.169  0.0784 -0.2323  1.3585
  249MOL0     C33536   0.575   8.721  10.176 -0.1664  0.3572  0.4222
  249MOL0     C33537   0.490   8.728  10.062 -0.2895 -0.4320 -0.0828
  249MOL0     O33538   0.360   8.674  10.061 -0.3280 -0.6140  0.2754
  249MOL0     C33539   0.319   8.573  10.158  0.8248  0.2154 -0.8049
  249MOL0     C33540   0.174   8.535  10.142  0.0371  1.2148  0.0138
  249MOL0     C33541   0.146   8.468  10.004  0.4563 -1.2049 -0.0323
  249MOL0     C33542   0.013   8.387  10.005 -0.2557 -0.1493 -0.4903
  249MOL0     C33543   0.025   8.257  10.072  0.3910 -0.5248  0.9020
  249MOL0     C33544   0.033   8.148  10.122 -0.2370  0.0113 -0.5722
  249MOL0     C33545   0.535   8.804   9.952  0.3821 -0.2100  0.0303
  249MOL0     C33546   0.666   8.864   9.951  0.3543  0.7065  0.7393
  249MOL0     C33547   0.706   8.963   9.843  0.5346  0.7094 -0.6099
  249MOL0     H33548   1.047   9.115   9.904  2.9807 -0.5142 -1.0555
  249MOL0     H33549   1.238   9.284   9.926  0.1875  1.2867 -0.7938
  249MOL0     H33550   1.451   9.261  10.173 -0.8206 -0.2358 -0.7310
  249MOL0     H33551   1.444   9.338  10.020 -1.4591 -1.0957 -0.0588
  249MOL0     H33552   1.517   9.467  10.287  0.9187 -1.7830  1.4247
  249MOL0     H33553   1.530   9.548  10.130 -0.3834  0.2552  0.2301
  249MOL0     H33554   1.741   9.484  10.128 -0.1074 -0.0469 -1.5808
  249MOL0     H33555   1.680   9.335  10.060  0.2938  0.2230 -0.5161
  249MOL0     H33556   1.753   9.371  10.361 -0.4114  0.1188  0.5068
  249MOL0     H33557   1.654   9.236  10.303  1.1115 -0.4730  0.1270
  249MOL0     H33558   1.883   9.162  10.340  2.3652 -2.2947 -2.3476
  249MOL0     H33559   1.807   9.142  10.176  3.4514 -1.7784 -0.5966
  249MOL0     H33560   1.936   9.285  10.070 -3.7423 -1.1947  0.6662
  249MOL0     H33561   1.975   9.390  10.210  2.0993  0.6052 -1.0734
  249MOL0     H33562   2.104   9.129  10.137 -1.4292  0.7517 -1.3633
  249MOL0     H33563   2.104   9.185  10.310  0.7350 -0.7163 -0.5015
  249MOL0     H33564   2.190   9.355  10.072  0.8614 -0.6253 -0.9317
  249MOL0     H33565   2.242   9.375  10.246 -1.8994  1.7893 -1.6009
  249MOL0     H33566   2.478   9.422  10.056  1.9215 -0.1940 -0.0331
  249MOL0     H33567   2.720   9.176   9.912  2.1420  0.9203 -0.2864
  249MOL0     H33568   2.666   9.340   9.899  1.7887 -0.4868 -1.1304
  249MOL0     H33569   2.747   9.385  10.141  0.8708 -2.3445  3.5036
  249MOL0     H33570   2.750   9.225  10.170  1.7079 -0.9175 -1.0425
  249MOL0     H33571   2.914   9.342   9.948 -0.6266 -1.5250 -0.3718
  249MOL0     H33572   2.922   9.175  10.012  1.3886 -0.7638  3.4532
  249MOL0     H33573   3.002   9.259  10.244 -0.3605 -2.5773 -0.8189
  249MOL0     H33574   3.002   9.421  10.190  2.1591 -0.1449  1.8148
  249MOL0     H33575   3.158   9.434  10.331  1.1004  2.4689  2.2144
  249MOL0     H33576   3.348   9.525  10.433  0.8126  0.2975 -0.8562
  249MOL0     H33577   3.646   9.820  10.505 -0.1180  0.7288  0.7516
  249MOL0     H33578   3.853   9.925  10.611  2.6865  0.4048  0.9062
  249MOL0     H33579   4.197   9.669  10.707  0.2361  1.1676  0.6982
  249MOL0     H33580   4.217   9.703  10.540  0.7764  0.5709 -0.9828
  249MOL0     H33581   4.293   9.885  10.771 -0.5450 -0.6483 -0.4174
  249MOL0     H33582   4.417   9.775  10.690  0.3286 -1.1808 -2.2113
  249MOL0     H33583   4.342   9.893  10.472 -0.9165 -1.8347  0.4469
  249MOL0     H33584   4.263  10.015  10.569 -0.9781 -1.6812 -2.2674
  249MOL0     H33585   4.559   9.953  10.624 -1.4139 -1.0711  0.7116
  249MOL0     H33586   4.468  10.095  10.665 -2.3880  1.2362 -1.6188
  249MOL0     H33587   4.517  10.027  10.376  1.9877 -0.2229  0.3247
  249MOL0     H33588   4.642  10.100  10.482 -0.3608  1.6270 -0.7587
  249MOL0     H33589   4.360  10.217  10.412  0.0217  0.0975 -1.4316
  249MOL0     H33590   4.482  10.309  10.505  3.0253 -2.4971  2.4044
  249MOL0     H33591   4.451  10.357  10.259 -0.5527  1.8647  0.3999
  249MOL0     H33592   4.536  10.202  10.221 -2.8131 -1.6015  3.5209
  249MOL0     H33593   4.661  10.439  10.243 -1.9040 -1.4793 -2.1494
  249MOL0     H33594   4.673  10.391  10.408  0.7384 -0.4901 -0.4319
  249MOL0     H33595   4.039   9.537  10.582  0.0042 -0.6081 -1.5077
  249MOL0     H33596   3.842   9.440  10.494 -0.6766 -0.0135 -0.1033
  249MOL0     H33597   3.585   9.377  10.109 -0.9713 -4.0881  0.5998
  249MOL0     H33598   3.388   9.277  10.009  0.5990 -0.5505  0.0221
  249MOL0     H33599   1.154   9.301  10.344 -0.2771 -0.4526  0.2646
  249MOL0     H33600   0.971   9.146  10.317  1.2096  0.3554 -0.0215
  249MOL0     H33601   0.757   8.767  10.264 -0.1782  0.2675  1.5111
  249MOL0     H33602   0.547   8.676  10.271  1.4321 -1.8031 -0.0659
  249MOL0     H33603   0.321   8.597  10.264 -2.9413  0.0880 -0.5712
  249MOL0     H33604   0.377   8.482  10.145 -0.1487 -1.0081  2.4807
  249MOL0     H33605   0.111   8.623  10.157 -2.2825 -0.7759  3.2934
  249MOL0     H33606   0.147   8.474  10.229  2.6870  1.9342  1.4608
  249MOL0     H33607   0.234   8.412   9.973  3.1831  1.3753  2.4013
  249MOL0     H33608   0.126   8.549   9.933 -0.8865 -0.4459  1.1569
  249MOL0     H33609  -0.062   8.446  10.060 -1.0005 -1.4608 -0.0556
  249MOL0     H33610  -0.029   8.373   9.904 -1.4918  0.9125 -0.1626
  249MOL0     H33611   0.023   8.048  10.160 -0.3757 -2.0629 -5.2833
  249MOL0     H33612   0.476   8.797   9.862 -0.3125 -0.0746  0.4688
  249MOL0     H33613   0.616   8.993   9.789 -0.3087  0.5803  0.6837
  249MOL0     H33614   0.745   9.055   9.886  3.4056 -0.9797  0.7156
  249MOL0     H33615   0.773   8.913   9.771  0.1422 -2.3184  0.9864
  250MOL0     O33616   3.372  10.512   2.459  0.2974  0.2130  0.5424
  250MOL0     C33617   3.388  10.627   2.424 -0.5239  0.6566  0.1428
  250MOL0     O33618   3.295  10.691   2.351 -0.4513 -0.1311 -0.0417
  250MOL0     C33619   3.179  10.637   2.298 -0.7853 -0.0425  0.5471
  250MOL0     C33620   3.097  10.743   2.269  1.0322 -0.2507 -0.0443
  250MOL0     C33621   2.970  10.713   2.215  0.0559  0.6984 -0.4987
  250MOL0     C33622   2.927  10.585   2.196  0.3012  0.4942 -0.0347
  250MOL0     O33623   2.797  10.568   2.148  0.1390  0.2955  0.0627
  250MOL0     C33624   2.767  10.470   2.051  0.6828 -0.4649  0.3957
  250MOL0     C33625   2.621  10.472   2.012  0.4732  0.2540  0.4502
  250MOL0     C33626   2.607  10.401   1.872  0.3792  0.1844 -0.2424
  250MOL0     C33627   2.452  10.385   1.845 -0.1324  0.5372 -0.3354
  250MOL0     C33628   2.426  10.321   1.702  0.0885 -0.0833 -0.0256
  250MOL0     C33629   2.481  10.180   1.677  0.0392  0.2129 -0.8922
  250MOL0     C33630   2.473  10.133   1.533  0.6392  0.8697  0.7088
  250MOL0     C33631   2.503   9.986   1.514 -0.5014 -0.5783  0.5326
  250MOL0     N33632   2.639   9.935   1.528 -0.5162  0.1508 -0.2492
  250MOL0     C33633   2.681   9.866   1.637 -0.4458  0.5400  0.2855
  250MOL0     C33634   2.814   9.866   1.635 -0.4423 -0.4008 -0.2099
  250MOL0     C33635   2.907   9.811   1.741  1.0780  0.4010 -0.3675
  250MOL0     C33636   2.898   9.902   1.872  0.0430 -0.1043  0.1236
  250MOL0     C33637   2.930  10.045   1.839 -0.0008 -0.7272 -1.1100
  250MOL0     C33638   3.028  10.120   1.938  0.4331 -0.5580  0.5590
  250MOL0     O33639   3.150  10.073   1.893  0.0626  0.6963 -1.2732
  250MOL0     C33640   3.260  10.085   1.989 -0.3586  0.1211 -0.0785
  250MOL0     C33641   3.357   9.982   2.003 -1.4736  0.5285  0.6261
  250MOL0     C33642   3.466   9.994   2.082 -0.3440  0.2444  0.0422
  250MOL0     C33643   3.486  10.108   2.157  0.3510  0.0262 -0.1268
  250MOL0     C33644   3.617  10.136   2.232 -0.0408  0.2046 -0.1102
  250MOL0     O33645   3.676  10.261   2.220  0.3847  0.1767 -0.1008
  250MOL0     C33646   3.774  10.290   2.304  1.2262  0.1439  0.0501
  250MOL0     C33647   3.733  10.306   2.431  0.1343 -0.8292  0.0273
  250MOL0     C33648   3.825  10.328   2.530  0.1244  0.6793 -0.1312
  250MOL0     C33649   3.960  10.328   2.497 -0.2205 -0.0844  0.4185
  250MOL0     O33650   4.059  10.365   2.583  0.0272  0.1351 -0.0916
  250MOL0     C33651   4.030  10.408   2.710 -0.1318 -0.1336  0.1539
  250MOL0     C33652   4.161  10.481   2.754 -0.2068 -0.2590  0.0351
  250MOL0     C33653   4.201  10.598   2.657 -0.6085  0.0648  0.0932
  250MOL0     C33654   4.317  10.681   2.724  1.0034 -1.0119 -0.6266
  250MOL0     C33655   4.418  10.733   2.620  0.0953  0.5979 -0.9702
  250MOL0     C33656   4.523  10.831   2.674  0.1629  0.6748  0.0258
  250MOL0     C33657   4.465  10.964   2.716  0.1043 -0.6616  0.0806
  250MOL0     C33658   4.374  11.025   2.607  0.8497  0.0020  0.0318
  250MOL0    Cl33659   4.355  11.209   2.615  0.2189 -0.2178  0.4100
  250MOL0     C33660   4.004  10.302   2.368 -0.3553  0.1380 -0.0382
  250MOL0     C33661   3.906  10.285   2.269 -0.5148  0.0037 -0.7420
  250MOL0     O33662   3.658  10.040   2.300  0.5273  0.0682 -0.4012
  250MOL0     C33663   3.393  10.214   2.142 -0.0458 -0.8564  0.5885
  250MOL0     C33664   3.283  10.204   2.058 -1.2634 -0.4893 -0.4354
  250MOL0     N33665   2.854   9.928   1.519 -0.5540  0.1932 -0.0630
  250MOL0     N33666   2.742   9.977   1.461 -1.5347 -0.8311 -0.0393
  250MOL0     C33667   3.021  10.486   2.212  0.2861  0.3938 -0.5435
  250MOL0     C33668   3.151  10.506   2.265 -0.1995  0.3049 -0.1950
  250MOL0     C33669   3.510  10.704   2.474 -0.0788 -0.2738 -0.5609
  250MOL0     C33670   3.543  10.664   2.609 -0.2708 -0.0250  0.7283
  250MOL0     C33671   3.652  10.724   2.676 -0.4122  0.6299  0.9599
  250MOL0     C33672   3.727  10.815   2.602  0.6869 -0.0063 -0.5063
  250MOL0     O33673   3.831  10.893   2.657  0.1676 -0.2844  0.5528
  250MOL0     C33674   3.875  10.865   2.790 -0.8632 -0.0432  0.3904
  250MOL0     C33675   4.022  10.904   2.815  0.4866 -0.5277  0.0304
  250MOL0     C33676   4.046  11.051   2.817 -0.2423 -0.1479  0.5441
  250MOL0     C33677   3.951  11.150   2.890 -0.1035  0.0078 -0.0123
  250MOL0     C33678   3.980  11.281   2.852 -0.3179 -0.4126 -1.1662
  250MOL0     C33679   4.026  11.397   2.826 -0.5512  0.4606 -0.2589
  250MOL0     C33680   3.696  10.854   2.474  0.1610 -0.3707 -0.0357
  250MOL0     C33681   3.585  10.803   2.405  0.3602  0.1013  0.3233
  250MOL0     C33682   3.556  10.848   2.265  0.0684 -0.0390  0.1979
  250MOL0     H33683   3.120  10.846   2.294 -0.3972  0.1339 -0.2293
  250MOL0     H33684   2.898  10.792   2.195 -0.4717  0.1410 -0.8309
  250MOL0     H33685   2.812  10.505   1.957  0.2678  0.1046  0.3992
  250MOL0     H33686   2.802  10.371   2.080 -2.5601 -1.5185  1.1335
  250MOL0     H33687   2.592  10.577   2.012  1.3892  0.5418  2.2102
  250MOL0     H33688   2.570  10.420   2.094  0.8281 -4.3829 -1.9293
  250MOL0     H33689   2.658  10.306   1.854  1.1857  0.8219 -1.5055
  250MOL0     H33690   2.629  10.481   1.800 -1.4544  1.1204  0.1661
  250MOL0     H33691   2.409  10.322   1.923 -1.0751  0.1430 -1.1369
  250MOL0     H33692   2.400  10.481   1.841 -0.1801  0.4818 -1.6242
  250MOL0     H33693   2.317  10.314   1.691  0.1336 -1.4925  0.2726
  250MOL0     H33694   2.461  10.389   1.624 -1.8570  1.2175  0.1752
  250MOL0     H33695   2.588  10.183   1.699 -0.3020  1.5324  0.8584
  250MOL0     H33696   2.438  10.102   1.741  2.9074 -2.0336 -1.5034
  250MOL0     H33697   2.541  10.197   1.476 -2.6033  0.5490 -4.1217
  250MOL0     H33698   2.371  10.155   1.501  0.8072 -0.7800 -1.1401
  250MOL0     H33699   2.443   9.926   1.583  0.3629 -1.2314  0.7378
  250MOL0     H33700   2.471   9.962   1.412 -1.0550  2.1520 -0.0052
  250MOL0     H33701   2.624   9.819   1.716 -1.2785 -0.6759 -0.9885
  250MOL0     H33702   2.885   9.706   1.760 -1.7226  0.9782  0.0558
  250MOL0     H33703   3.005   9.813   1.693  0.7273 -0.3963 -1.1567
  250MOL0     H33704   2.803   9.884   1.923  1.0633  0.4398  2.3361
  250MOL0     H33705   2.978   9.871   1.940  0.2208  2.9029  1.4294
  250MOL0     H33706   2.833  10.094   1.842  0.4895  0.2741 -1.1537
  250MOL0     H33707   2.971  10.056   1.738  1.4864 -1.0372 -0.5645
  250MOL0     H33708   2.999  10.104   2.042 -1.9371  1.7992  0.3660
  250MOL0     H33709   3.020  10.228   1.921 -0.5093 -0.8670 -1.2988
  250MOL0     H33710   3.347   9.884   1.957  0.6633  0.0327  1.0966
  250MOL0     H33711   3.536   9.911   2.088  0.5234  0.8811 -0.9392
  250MOL0     H33712   3.625  10.306   2.445 -0.6121  2.4548 -3.7982
  250MOL0     H33713   3.795  10.335   2.635  1.5863 -3.4007  0.7440
  250MOL0     H33714   3.946  10.479   2.710 -0.2102 -0.2255  0.8548
  250MOL0     H33715   4.007  10.320   2.770  0.0051 -0.1004  0.2552
  250MOL0     H33716   4.144  10.528   2.852  2.4434  1.0687 -0.0582
  250MOL0     H33717   4.253  10.423   2.751  0.4508  0.7766 -1.9419
  250MOL0     H33718   4.247  10.547   2.572  1.4801  1.2653  0.4314
  250MOL0     H33719   4.120  10.660   2.619  0.5939  2.2756  0.9507
  250MOL0     H33720   4.357  10.613   2.800  0.7076 -1.7255 -1.1070
  250MOL0     H33721   4.268  10.767   2.771  1.7357  0.5108 -2.5333
  250MOL0     H33722   4.379  10.773   2.526  0.6213  0.7877 -1.1065
  250MOL0     H33723   4.471  10.640   2.596  1.0895  0.5552  1.1913
  250MOL0     H33724   4.560  10.787   2.767  4.4146 -0.7021 -2.0739
  250MOL0     H33725   4.601  10.842   2.599 -0.5810 -1.1872 -1.0909
  250MOL0     H33726   4.552  11.027   2.733  0.2408 -1.1522  1.2684
  250MOL0     H33727   4.411  10.956   2.811  2.0362  0.3626  1.3077
  250MOL0     H33728   4.420  11.011   2.508 -0.9825 -1.0915 -0.7020
  250MOL0     H33729   4.274  10.983   2.605  0.2586  1.3294 -2.0713
  250MOL0     H33730   4.107  10.303   2.332 -0.3120 -3.0829 -0.2900
  250MOL0     H33731   3.943  10.275   2.168 -0.7039  1.9109 -1.0229
  250MOL0     H33732   3.424  10.304   2.193 -0.0307 -0.2805 -0.4118
  250MOL0     H33733   3.212  10.283   2.038 -0.2096  0.0921 -2.0362
  250MOL0     H33734   2.990  10.382   2.200 -3.1882  0.8096  2.9384
  250MOL0     H33735   3.227  10.428   2.270 -0.4205 -0.1882 -2.9830
  250MOL0     H33736   3.488  10.589   2.665 -1.3261 -2.0408 -2.7664
  250MOL0     H33737   3.674  10.701   2.780  0.4301  1.3114  0.9472
  250MOL0     H33738   3.867  10.760   2.819 -2.6896  0.0648  0.4375
  250MOL0     H33739   3.804  10.909   2.860 -1.4266  0.8136 -0.6811
  250MOL0     H33740   4.087  10.872   2.733  1.1519  1.6689 -0.3586
  250MOL0     H33741   4.056  10.864   2.911 -1.1459  0.7459  1.1922
  250MOL0     H33742   4.048  11.080   2.711 -1.2565  1.0344  0.8234
  250MOL0     H33743   4.148  11.061   2.854  0.0089  0.7509 -0.3378
  250MOL0     H33744   3.849  11.124   2.858  1.5852 -2.9942 -3.7797
  250MOL0     H33745   3.964  11.143   2.998  0.1102  2.8839  0.2077
  250MOL0     H33746   4.070  11.492   2.806  0.3652 -0.3109 -2.1524
  250MOL0     H33747   3.757  10.931   2.429  0.7075 -0.7814 -0.0046
  250MOL0     H33748   3.656  10.855   2.220  0.2201  2.3871  0.8008
  250MOL0     H33749   3.491  10.772   2.220 -0.2819  0.3983 -0.0373
  250MOL0     H33750   3.508  10.946   2.266 -2.8488 -1.3141 -1.4615
  251MOL0     O33751   2.945   5.300   5.907 -0.3414 -0.0479  0.0022
  251MOL0     C33752   2.889   5.274   6.017 -0.2961  0.1789  0.1034
  251MOL0     O33753   2.947   5.204   6.113  0.4763 -0.0194  0.1840
  251MOL0     C33754   3.082   5.163   6.086 -0.1118 -0.2380  0.3241
  251MOL0     C33755   3.189   5.254   6.086 -0.0785  0.1216 -0.8682
  251MOL0     C33756   3.323   5.212   6.066  0.9024 -0.2974 -0.9306
  251MOL0     C33757   3.352   5.080   6.057 -0.7898  0.7901 -1.0517
  251MOL0     O33758   3.482   5.028   6.040 -0.3011 -0.0067 -0.0094
  251MOL0     C33759   3.536   4.997   6.164 -0.3790 -0.1512 -0.0963
  251MOL0     C33760   3.689   4.987   6.139  0.6924  0.0580  0.0340
  251MOL0     C33761   3.769   4.930   6.262  0.1438 -0.0434  0.0002
  251MOL0     C33762   3.919   4.917   6.238 -0.8904 -0.0996  0.6205
  251MOL0     C33763   3.977   5.042   6.173 -0.1898  0.4920 -0.6972
  251MOL0     C33764   4.136   5.027   6.170  0.1255  0.2000  0.2771
  251MOL0     C33765   4.192   5.138   6.084  0.2386  0.4063 -0.2991
  251MOL0     C33766   4.345   5.132   6.094  0.6043 -0.7423 -0.4714
  251MOL0     N33767   4.400   5.180   6.223  0.5074  0.0157 -0.2610
  251MOL0     C33768   4.482   5.089   6.294  0.8312  0.6255 -0.4819
  251MOL0     C33769   4.520   5.171   6.397  0.7218 -0.1515 -1.5070
  251MOL0     C33770   4.628   5.130   6.500 -0.4097 -0.1542 -0.1100
  251MOL0     C33771   4.762   5.097   6.426 -0.3688 -0.8236 -0.0936
  251MOL0     C33772   4.876   5.039   6.520  0.4832 -0.8566 -0.1556
  251MOL0     C33773   4.960   5.157   6.581 -0.7727 -0.9009  0.2161
  251MOL0     O33774   5.067   5.191   6.481 -0.9736  0.1966 -0.2734
  251MOL0     C33775   5.152   5.301   6.499 -0.6313  0.7477 -0.0153
  251MOL0     C33776   5.144   5.389   6.604 -1.0275  0.0360 -0.9333
  251MOL0     C33777   5.240   5.482   6.616 -0.6946  0.1195  0.1734
  251MOL0     C33778   5.331   5.509   6.512  0.1966  0.4091  0.2663
  251MOL0     C33779   5.440   5.604   6.516  0.9231  0.2060 -1.0875
  251MOL0     O33780   5.480   5.647   6.639 -0.0784  0.4896  0.0288
  251MOL0     C33781   5.588   5.727   6.652 -0.1213  0.4404 -0.6561
  251MOL0     C33782   5.696   5.678   6.714 -0.3754 -0.3667  0.3289
  251MOL0     C33783   5.816   5.745   6.735  0.1078  0.0346 -0.1668
  251MOL0     C33784   5.830   5.872   6.673 -0.1736  0.2073  0.0653
  251MOL0     O33785   5.944   5.943   6.699  0.1845 -0.3365 -0.1424
  251MOL0     C33786   6.070   5.881   6.697 -0.7368 -1.4080 -0.4425
  251MOL0     C33787   6.178   5.987   6.737 -0.1923  0.7273  0.8269
  251MOL0     C33788   6.156   6.033   6.882  0.0908  0.7460  0.6711
  251MOL0     C33789   6.285   6.087   6.933 -0.1215 -0.5863  0.1712
  251MOL0     C33790   6.323   6.228   6.877  0.3260  0.4721  0.6481
  251MOL0     C33791   6.457   6.277   6.927  0.5827 -0.4313  0.3748
  251MOL0     C33792   6.472   6.435   6.906 -0.3889 -0.3532  0.1995
  251MOL0     C33793   6.607   6.474   6.985 -0.4866  0.4204 -0.8704
  251MOL0    Cl33794   6.586   6.444   7.156 -0.1209 -0.2102 -0.2642
  251MOL0     C33795   5.723   5.937   6.617  0.1275  0.1219 -0.7503
  251MOL0     C33796   5.607   5.858   6.602  0.0339 -0.6060  0.0074
  251MOL0     O33797   5.485   5.644   6.413 -0.1385  0.5464 -0.4489
  251MOL0     C33798   5.329   5.422   6.391  0.3681  0.8037  0.3867
  251MOL0     C33799   5.243   5.313   6.390 -0.1179  0.1640  0.1119
  251MOL0     N33800   4.462   5.298   6.387 -0.2440  0.4382  0.3924
  251MOL0     N33801   4.381   5.298   6.289 -0.4669 -0.4039  0.0256
  251MOL0     C33802   3.251   4.988   6.048 -1.0950 -0.5862  0.4535
  251MOL0     C33803   3.119   5.028   6.076  0.0384 -0.4310 -0.4106
  251MOL0     C33804   2.751   5.332   6.061  0.1455 -0.5382  0.5641
  251MOL0     C33805   2.707   5.325   6.198 -0.0842  0.0268  0.4038
  251MOL0     C33806   2.590   5.386   6.237  0.6024  0.0114  0.0657
  251MOL0     C33807   2.506   5.456   6.153 -0.0636  0.7627 -0.0570
  251MOL0     O33808   2.388   5.500   6.205  0.2495 -0.9040 -0.0158
  251MOL0     C33809   2.277   5.544   6.115 -0.2464  0.1526 -0.5963
  251MOL0     C33810   2.149   5.460   6.138  0.1436  0.3928 -0.5698
  251MOL0     C33811   2.032   5.491   6.044  0.0900  0.1879 -0.3147
  251MOL0     C33812   2.069   5.476   5.892 -0.2124 -0.9266 -0.0949
  251MOL0     C33813   2.136   5.587   5.824 -0.6049  0.1646 -0.0491
  251MOL0     C33814   2.187   5.668   5.750 -0.5364 -0.1575 -0.8859
  251MOL0     C33815   2.556   5.482   6.024  0.3615  0.5094 -0.9069
  251MOL0     C33816   2.673   5.423   5.975  0.0557 -0.6930 -0.0670
  251MOL0     C33817   2.710   5.449   5.837 -0.0402  0.7665 -0.0572
  251MOL0     H33818   3.158   5.357   6.099  0.5918  0.3027 -0.6423
  251MOL0     H33819   3.397   5.290   6.054 -0.6591  1.2858 -0.7199
  251MOL0     H33820   3.522   5.076   6.238  0.2602  0.9064 -1.0807
  251MOL0     H33821   3.495   4.905   6.207 -0.0835  0.8859  2.5585
  251MOL0     H33822   3.738   5.080   6.108  0.0626 -0.8076 -4.0473
  251MOL0     H33823   3.702   4.924   6.051  0.5605  0.7150 -0.4593
  251MOL0     H33824   3.727   4.830   6.274  2.6298 -1.2388 -0.7195
  251MOL0     H33825   3.745   4.984   6.354  0.1349  0.3652 -0.2409
  251MOL0     H33826   3.970   4.895   6.332  1.8824 -3.0110 -1.3562
  251MOL0     H33827   3.944   4.833   6.171  1.8755  0.3091  0.9979
  251MOL0     H33828   3.931   5.064   6.076 -1.2826 -0.8202 -0.5079
  251MOL0     H33829   3.955   5.131   6.233 -0.6706  0.7644 -1.2616
  251MOL0     H33830   4.178   5.032   6.271 -2.3973  1.1246  1.3583
  251MOL0     H33831   4.161   4.936   6.115 -3.1511 -0.5023 -0.2285
  251MOL0     H33832   4.163   5.234   6.127  4.4831  0.5573  2.8928
  251MOL0     H33833   4.150   5.125   5.984  0.5586  0.0770 -0.3951
  251MOL0     H33834   4.381   5.030   6.074  0.1707 -1.6245  2.7137
  251MOL0     H33835   4.379   5.203   6.018  0.3976 -0.1471 -0.0123
  251MOL0     H33836   4.515   4.987   6.281 -1.0851  0.0533 -1.3139
  251MOL0     H33837   4.633   5.218   6.564 -2.1764  1.7104 -2.3786
  251MOL0     H33838   4.598   5.042   6.559  0.3357 -2.1506 -2.5282
  251MOL0     H33839   4.747   5.021   6.349 -2.2729 -0.8247  0.2366
  251MOL0     H33840   4.799   5.190   6.382 -0.7952 -0.0031  1.2296
  251MOL0     H33841   4.938   4.970   6.461 -0.5771 -1.0175 -1.1215
  251MOL0     H33842   4.822   4.972   6.587 -3.9710 -1.6025 -3.9597
  251MOL0     H33843   5.010   5.125   6.674  1.3249  1.5717  0.0487
  251MOL0     H33844   4.901   5.244   6.610  1.3001  0.7970 -0.4053
  251MOL0     H33845   5.072   5.369   6.683 -0.4277 -2.0205 -0.8494
  251MOL0     H33846   5.241   5.537   6.710  1.0416  1.1846 -0.4127
  251MOL0     H33847   5.689   5.577   6.753 -2.9592 -1.1344 -1.8265
  251MOL0     H33848   5.898   5.697   6.787  0.0634  1.6798  1.5316
  251MOL0     H33849   6.070   5.804   6.773 -2.3567  0.3289  1.4231
  251MOL0     H33850   6.103   5.846   6.598  1.6259  0.5960 -0.4828
  251MOL0     H33851   6.280   5.953   6.713 -0.1762  1.5171 -0.2846
  251MOL0     H33852   6.175   6.075   6.672 -0.1534 -0.2898 -0.5884
  251MOL0     H33853   6.078   6.109   6.890 -0.4379  0.8263 -3.4073
  251MOL0     H33854   6.136   5.945   6.945  0.5534 -1.5695 -2.1956
  251MOL0     H33855   6.359   6.011   6.905 -0.8890 -1.4077  0.3392
  251MOL0     H33856   6.284   6.098   7.042  1.8217 -1.2309  0.2954
  251MOL0     H33857   6.240   6.296   6.896 -1.2965 -1.5517  1.0607
  251MOL0     H33858   6.323   6.210   6.769 -0.2246  0.1528  0.6982
  251MOL0     H33859   6.470   6.240   7.029  1.7716 -3.4103 -0.7558
  251MOL0     H33860   6.524   6.221   6.861 -0.4631  0.6773 -1.7769
  251MOL0     H33861   6.391   6.499   6.941  0.1621  0.9973 -0.8975
  251MOL0     H33862   6.496   6.465   6.804 -0.1996  0.5472  0.4983
  251MOL0     H33863   6.689   6.410   6.952 -0.5677  1.5545 -3.4810
  251MOL0     H33864   6.642   6.577   6.976 -1.0236  1.0105  2.4597
  251MOL0     H33865   5.736   6.038   6.578 -1.2812 -0.7552 -3.8171
  251MOL0     H33866   5.529   5.895   6.536  1.1177  0.2955 -0.8195
  251MOL0     H33867   5.397   5.442   6.309 -0.5932 -0.4575 -0.7684
  251MOL0     H33868   5.250   5.244   6.307  1.2276  0.9236 -0.4366
  251MOL0     H33869   3.281   4.886   6.029  1.3523 -0.4550  2.9057
  251MOL0     H33870   3.029   4.968   6.086 -1.7307  2.4025  3.3880
  251MOL0     H33871   2.770   5.270   6.267 -0.1627 -0.2030  0.2916
  251MOL0     H33872   2.551   5.375   6.337 -0.3681  1.4662 -0.1190
  251MOL0     H33873   2.302   5.543   6.008  0.1183  2.1248 -0.5699
  251MOL0     H33874   2.247   5.649   6.124  0.4624  0.1988  2.2949
  251MOL0     H33875   2.097   5.483   6.232  0.1263  0.5397 -0.6158
  251MOL0     H33876   2.177   5.354   6.128 -0.0216  0.2164  0.7083
  251MOL0     H33877   1.984   5.584   6.077  0.5754  0.2687  0.1918
  251MOL0     H33878   1.969   5.402   6.054 -0.4793  0.4779 -1.1975
  251MOL0     H33879   2.126   5.383   5.883 -1.7354 -1.8301 -0.8073
  251MOL0     H33880   1.973   5.465   5.841 -1.0198 -4.0779  1.8068
  251MOL0     H33881   2.232   5.739   5.683  0.0468 -0.8870 -1.2802
  251MOL0     H33882   2.499   5.548   5.960 -1.2241  0.6304  0.5773
  251MOL0     H33883   2.646   5.523   5.789 -0.9838 -1.2666 -2.1464
  251MOL0     H33884   2.806   5.502   5.836 -0.0824  0.8375 -1.0244
  251MOL0     H33885   2.709   5.357   5.777  2.2057 -0.1374  1.1578
  252MOL0     O33886   6.287   4.091   5.953 -0.7238  0.1689 -0.1028
  252MOL0     C33887   6.231   3.988   6.002  0.0044 -0.4319 -0.4747
  252MOL0     O33888   6.296   3.889   6.069 -0.2541 -0.5736  0.3305
  252MOL0     C33889   6.434   3.899   6.106 -0.7548  0.0325  0.6900
  252MOL0     C33890   6.475   3.797   6.191  0.2181 -0.6933 -0.2118
  252MOL0     C33891   6.603   3.783   6.235  0.4768 -0.1348  0.2341
  252MOL0     C33892   6.702   3.869   6.193 -0.1875 -0.7101  0.3038
  252MOL0     O33893   6.826   3.878   6.254  0.1857  0.5272  0.2568
  252MOL0     C33894   6.876   3.772   6.340 -0.3267 -0.3358  0.2119
  252MOL0     C33895   7.025   3.799   6.355 -0.1738  0.3550 -0.0256
  252MOL0     C33896   7.069   3.695   6.463  0.2747  0.3951 -0.4973
  252MOL0     C33897   7.202   3.736   6.514 -0.2401 -0.5888  0.3432
  252MOL0     C33898   7.306   3.693   6.408  0.0980 -0.1205  0.1114
  252MOL0     C33899   7.444   3.696   6.467  0.2239 -0.6438 -0.2139
  252MOL0     C33900   7.486   3.563   6.544  0.8976 -0.7055 -0.2515
  252MOL0     C33901   7.579   3.589   6.659 -0.0236 -0.2445 -0.6564
  252MOL0     N33902   7.703   3.637   6.598  0.0473  0.8181  0.0949
  252MOL0     C33903   7.802   3.553   6.541  0.2999 -0.0357  0.5053
  252MOL0     C33904   7.880   3.644   6.479  1.0050  0.0373 -0.2032
  252MOL0     C33905   7.987   3.618   6.379  0.7205 -0.3947 -0.1798
  252MOL0     C33906   8.131   3.676   6.422 -0.2107  0.9456  0.7502
  252MOL0     C33907   8.204   3.713   6.293 -0.0896  0.3572  0.4126
  252MOL0     C33908   8.222   3.604   6.184 -0.3045  0.2944 -0.3092
  252MOL0     O33909   8.318   3.652   6.095 -0.6649 -0.4025 -0.0189
  252MOL0     C33910   8.451   3.611   6.113  0.9650  0.1443  0.3377
  252MOL0     C33911   8.480   3.480   6.151  0.4410  0.1001 -0.5808
  252MOL0     C33912   8.623   3.451   6.161  0.6240 -0.0993  1.1863
  252MOL0     C33913   8.722   3.548   6.129 -0.6612 -0.1817  0.2620
  252MOL0     C33914   8.871   3.517   6.162 -0.2187 -0.4011  0.8567
  252MOL0     O33915   8.960   3.619   6.121  0.3430 -0.0670  0.8673
  252MOL0     C33916   9.091   3.628   6.144 -0.1219  0.7288 -0.1824
  252MOL0     C33917   9.170   3.553   6.229  0.1778  0.4489 -0.8287
  252MOL0     C33918   9.302   3.581   6.252 -0.8057 -0.2578 -0.5357
  252MOL0     C33919   9.367   3.686   6.177 -0.0731  0.9115 -0.1170
  252MOL0     O33920   9.497   3.715   6.206 -0.4610 -0.7443 -0.6582
  252MOL0     C33921   9.572   3.822   6.128 -0.8646  0.5601 -0.3554
  252MOL0     C33922   9.719   3.776   6.135  0.7765  0.3046  0.6175
  252MOL0     C33923   9.809   3.875   6.207 -0.1099  0.1131  0.1363
  252MOL0     C33924   9.954   3.840   6.207  0.4432  0.9622 -0.1502
  252MOL0     C33925  10.041   3.959   6.255  0.8238  0.4229  0.1982
  252MOL0     C33926  10.185   3.920   6.287 -0.8543  0.0785 -0.6432
  252MOL0     C33927  10.252   4.033   6.355 -1.1394 -0.3624 -0.0799
  252MOL0     C33928  10.404   4.008   6.349  0.3681  0.5085  0.2164
  252MOL0    Cl33929  10.469   4.081   6.198 -0.2174 -0.3811 -0.0347
  252MOL0     C33930   9.289   3.762   6.080  0.3299  0.7139 -0.9123
  252MOL0     C33931   9.154   3.728   6.071  0.5844  0.8932  0.3312
  252MOL0     O33932   8.899   3.409   6.207 -0.1978  0.0917 -0.1646
  252MOL0     C33933   8.687   3.672   6.065  0.9916 -0.4201  0.1635
  252MOL0     C33934   8.548   3.701   6.069  0.1989 -0.0971 -1.0091
  252MOL0     N33935   7.843   3.771   6.509 -0.4830  0.1577  0.3446
  252MOL0     N33936   7.732   3.765   6.564 -0.8753  0.1113  0.2404
  252MOL0     C33937   6.669   3.979   6.115 -0.1473  0.5335 -0.0580
  252MOL0     C33938   6.539   3.991   6.063 -0.1357  0.3220 -0.1291
  252MOL0     C33939   6.085   3.964   5.993  0.6226 -0.3609  1.1511
  252MOL0     C33940   6.008   4.022   5.892 -0.6821 -0.6111  0.3825
  252MOL0     C33941   5.878   3.984   5.853 -0.3980  0.4387  0.5552
  252MOL0     C33942   5.819   3.882   5.916 -0.0341  0.5186 -0.0261
  252MOL0     O33943   5.693   3.840   5.895 -0.2062 -0.4975 -0.3790
  252MOL0     C33944   5.616   3.881   5.782  0.1905 -0.3803  0.0695
  252MOL0     C33945   5.486   3.808   5.786 -0.1138 -0.4262 -0.9203
  252MOL0     C33946   5.404   3.852   5.664  0.1959 -0.2576 -1.5685
  252MOL0     C33947   5.298   3.748   5.619  0.1357 -0.7295 -0.5137
  252MOL0     C33948   5.237   3.785   5.491 -0.0431  0.2652 -0.4036
  252MOL0     C33949   5.168   3.792   5.393  0.3790 -0.6384  1.0628
  252MOL0     C33950   5.883   3.828   6.026 -0.8656  0.7166  0.4821
  252MOL0     C33951   6.013   3.862   6.065  0.1140 -0.9346  0.0576
  252MOL0     C33952   6.057   3.793   6.190  0.9701 -0.7014 -0.5577
  252MOL0     H33953   6.401   3.725   6.223  1.2002 -0.8967  1.7945
  252MOL0     H33954   6.626   3.713   6.315 -1.0297  0.9808  1.7019
  252MOL0     H33955   6.833   3.780   6.440  3.5258 -1.3570  2.1537
  252MOL0     H33956   6.845   3.676   6.297 -2.2627  0.5347 -0.4300
  252MOL0     H33957   7.035   3.904   6.387 -4.5710  0.7164  0.8111
  252MOL0     H33958   7.074   3.791   6.258  0.9633  2.5000  0.2914
  252MOL0     H33959   7.069   3.596   6.415 -2.7314 -0.6267  1.3355
  252MOL0     H33960   6.997   3.674   6.542  1.8728 -1.7792  0.4895
  252MOL0     H33961   7.199   3.843   6.537 -1.8957 -0.3486 -0.8408
  252MOL0     H33962   7.210   3.685   6.611 -1.5446 -0.3960  0.5774
  252MOL0     H33963   7.286   3.594   6.364 -0.0196 -0.7697  1.5482
  252MOL0     H33964   7.304   3.767   6.328  0.4730 -1.4005 -1.1252
  252MOL0     H33965   7.526   3.712   6.396 -0.0246 -1.3297 -0.6652
  252MOL0     H33966   7.441   3.782   6.534  1.8098  0.0500 -0.9811
  252MOL0     H33967   7.522   3.496   6.465  2.2644 -1.2095  0.7590
  252MOL0     H33968   7.402   3.510   6.590 -0.4954  2.1379  0.7075
  252MOL0     H33969   7.537   3.667   6.723  0.2029 -0.3625 -0.3605
  252MOL0     H33970   7.602   3.503   6.724  4.6501 -0.6868 -2.5221
  252MOL0     H33971   7.799   3.445   6.543 -1.2174  0.0015  1.5223
  252MOL0     H33972   7.999   3.510   6.367 -0.9524 -0.6396  0.1760
  252MOL0     H33973   7.952   3.670   6.290 -2.2326 -3.8471 -1.2734
  252MOL0     H33974   8.113   3.758   6.491 -2.2637  0.8574  0.3899
  252MOL0     H33975   8.192   3.602   6.475 -0.5574  0.9527  1.1653
  252MOL0     H33976   8.297   3.762   6.326  0.0593 -0.4548  1.2350
  252MOL0     H33977   8.153   3.799   6.249  2.1507 -0.2544 -3.9691
  252MOL0     H33978   8.132   3.593   6.123  2.1711 -1.9131 -3.9626
  252MOL0     H33979   8.236   3.508   6.233 -0.8097  0.4539  0.1612
  252MOL0     H33980   8.400   3.409   6.166 -1.6706  2.7656  1.9214
  252MOL0     H33981   8.633   3.350   6.199 -3.2413  0.1063  3.3132
  252MOL0     H33982   9.130   3.480   6.299  2.1289  1.3511  1.3931
  252MOL0     H33983   9.355   3.520   6.325 -2.1461 -0.8448 -0.0168
  252MOL0     H33984   9.552   3.798   6.024  2.4064 -2.0648 -0.5100
  252MOL0     H33985   9.564   3.926   6.164 -0.5072  1.3744 -2.5093
  252MOL0     H33986   9.726   3.670   6.163 -0.7930 -0.4897 -1.6344
  252MOL0     H33987   9.754   3.761   6.032  1.4109 -3.9560  1.2567
  252MOL0     H33988   9.798   3.969   6.152 -0.3480 -0.9195 -1.6435
  252MOL0     H33989   9.773   3.878   6.310 -0.8354 -0.2608 -0.1024
  252MOL0     H33990   9.997   3.821   6.108  0.2776 -0.0202 -0.0381
  252MOL0     H33991   9.974   3.751   6.266  0.1925  2.2636  2.0113
  252MOL0     H33992   9.991   3.999   6.344  2.2051  2.8215 -0.0048
  252MOL0     H33993  10.034   4.034   6.176  0.1151  2.3634  2.0042
  252MOL0     H33994  10.200   3.827   6.343  1.8808 -0.1239 -1.5809
  252MOL0     H33995  10.230   3.912   6.188 -1.9077 -1.1322 -1.0438
  252MOL0     H33996  10.236   4.054   6.461 -1.4136 -0.0278 -0.1852
  252MOL0     H33997  10.236   4.134   6.316 -0.9930  0.4425  1.8414
  252MOL0     H33998  10.457   4.039   6.440 -0.2228 -0.8349  1.0488
  252MOL0     H33999  10.414   3.899   6.349 -1.2654  0.3195  1.2802
  252MOL0     H34000   9.333   3.845   6.025  4.2149  0.4109  1.3612
  252MOL0     H34001   9.084   3.771   6.001 -1.5886 -1.7388  0.6971
  252MOL0     H34002   8.766   3.733   6.023  1.2959 -1.6894 -1.1993
  252MOL0     H34003   8.523   3.798   6.027 -1.9631 -0.9149 -1.7427
  252MOL0     H34004   6.745   4.052   6.088 -1.5149  2.9772  2.1785
  252MOL0     H34005   6.518   4.075   5.997 -2.9074  1.6416  2.2138
  252MOL0     H34006   6.057   4.105   5.842 -1.6200  0.9651  1.9308
  252MOL0     H34007   5.827   4.044   5.779 -2.4273 -1.5483  0.2044
  252MOL0     H34008   5.674   3.851   5.694  0.8155  1.2016 -0.0906
  252MOL0     H34009   5.601   3.989   5.780 -0.2976 -0.4505 -0.5314
  252MOL0     H34010   5.437   3.832   5.881  2.5478 -3.1098  1.3490
  252MOL0     H34011   5.516   3.703   5.798 -0.4529 -0.2479  2.3651
  252MOL0     H34012   5.475   3.863   5.582  2.2367 -0.8128  0.0222
  252MOL0     H34013   5.352   3.943   5.697  1.8763 -1.1199  4.9633
  252MOL0     H34014   5.347   3.650   5.615  0.9105 -0.3229 -2.1636
  252MOL0     H34015   5.225   3.752   5.700  1.4537  1.7661  0.6616
  252MOL0     H34016   5.104   3.807   5.308  1.3684  0.1425  0.4355
  252MOL0     H34017   5.832   3.747   6.078 -4.0636  1.3513 -1.4019
  252MOL0     H34018   6.097   3.870   6.257  1.5641 -2.4823  1.2410
  252MOL0     H34019   5.974   3.742   6.239 -0.8768  1.3995 -1.3369
  252MOL0     H34020   6.137   3.721   6.171  1.4635 -0.0604 -0.9386
  253MOL0     O34021   6.213   4.753   6.606  0.6878 -0.1242 -0.2701
  253MOL0     C34022   6.124   4.830   6.630 -0.3862 -0.3257  0.0950
  253MOL0     O34023   6.139   4.972   6.628  0.3730 -0.1363  0.3230
  253MOL0     C34024   6.262   5.020   6.600  0.7978  0.5008  0.5544
  253MOL0     C34025   6.376   4.981   6.678 -0.1102 -0.3258 -0.1076
  253MOL0     C34026   6.504   5.021   6.655 -0.0815  0.0237  0.6057
  253MOL0     C34027   6.527   5.095   6.530 -0.3786 -0.0762 -0.4360
  253MOL0     O34028   6.652   5.130   6.486  0.5696 -0.2497 -0.7898
  253MOL0     C34029   6.749   5.120   6.590 -0.4924  1.0642 -0.5289
  253MOL0     C34030   6.868   5.214   6.571 -0.6201  0.5314 -0.8896
  253MOL0     C34031   6.981   5.192   6.678  0.4950 -0.7246 -0.6905
  253MOL0     C34032   7.104   5.268   6.637  0.0307 -0.0795 -0.1410
  253MOL0     C34033   7.216   5.285   6.751  0.1203  0.7350 -0.0967
  253MOL0     C34034   7.360   5.300   6.713  0.4049 -0.6713  0.8995
  253MOL0     C34035   7.454   5.354   6.813  0.2006  0.2982 -0.3535
  253MOL0     C34036   7.595   5.360   6.768 -0.2302 -0.5004 -0.9308
  253MOL0     N34037   7.685   5.440   6.854 -0.7879 -0.7904  0.3564
  253MOL0     C34038   7.765   5.542   6.811  1.1086 -0.1915 -0.8849
  253MOL0     C34039   7.833   5.583   6.915  0.3935  0.8091  0.6532
  253MOL0     C34040   7.926   5.692   6.915  0.1371  0.3186 -0.4387
  253MOL0     C34041   8.045   5.664   6.830 -0.2445  0.3611 -0.1401
  253MOL0     C34042   8.158   5.772   6.838  0.4260 -0.6195 -0.9705
  253MOL0     C34043   8.301   5.721   6.806  0.5303  0.0315 -0.9043
  253MOL0     O34044   8.333   5.602   6.889  0.4409 -0.3865  0.1812
  253MOL0     C34045   8.468   5.573   6.898 -0.5927  0.2624 -0.1195
  253MOL0     C34046   8.506   5.486   7.003 -0.3415  0.3842  0.4575
  253MOL0     C34047   8.639   5.451   7.021 -0.5829 -1.1624  0.1052
  253MOL0     C34048   8.736   5.516   6.935 -0.2522 -0.6659 -0.6101
  253MOL0     C34049   8.875   5.481   6.939  0.7127 -1.0535 -0.6755
  253MOL0     O34050   8.917   5.421   7.055  0.3575  0.3925  0.2982
  253MOL0     C34051   9.052   5.398   7.066  0.0190  0.3665  0.2231
  253MOL0     C34052   9.112   5.464   7.171 -0.3921 -0.2954 -0.2799
  253MOL0     C34053   9.250   5.439   7.209  0.1235  0.2340 -0.3666
  253MOL0     C34054   9.327   5.351   7.146 -0.2917 -0.3313  0.3232
  253MOL0     O34055   9.451   5.309   7.187  0.2016 -0.5075 -0.2093
  253MOL0     C34056   9.450   5.198   7.273 -0.1363 -0.0016  0.2060
  253MOL0     C34057   9.476   5.232   7.415 -0.9823  0.1951 -0.4286
  253MOL0     C34058   9.592   5.343   7.433 -0.6068  0.2415 -0.5438
  253MOL0     C34059   9.669   5.317   7.561 -0.2515 -0.0648 -0.0057
  253MOL0     C34060   9.788   5.414   7.560  0.5327 -0.5618  0.4337
  253MOL0     C34061   9.900   5.402   7.666 -0.0036 -1.4536 -0.4862
  253MOL0     C34062  10.022   5.482   7.630 -0.4652 -0.8726 -0.5662
  253MOL0     C34063  10.010   5.630   7.674 -0.1222  0.0187 -0.0248
  253MOL0    Cl34064  10.163   5.710   7.649  0.2202  0.3698 -0.0332
  253MOL0     C34065   9.275   5.289   7.034  0.5833  0.3599 -0.2146
  253MOL0     C34066   9.138   5.311   6.990  0.6015 -0.0778 -0.7649
  253MOL0     O34067   8.954   5.518   6.847  0.2874 -0.0882 -0.0180
  253MOL0     C34068   8.694   5.598   6.826 -0.8061 -0.6439 -0.0653
  253MOL0     C34069   8.559   5.633   6.809  0.3174  0.8302  0.0733
  253MOL0     N34070   7.812   5.485   7.011 -0.4155  0.2614 -0.1329
  253MOL0     N34071   7.722   5.398   6.977  0.2879 -0.0004  0.5511
  253MOL0     C34072   6.418   5.149   6.459 -0.4200  0.4317  0.3923
  253MOL0     C34073   6.291   5.109   6.490  0.3038  0.3651  0.0756
  253MOL0     C34074   5.984   4.771   6.664 -0.0503  0.0524 -1.0381
  253MOL0     C34075   5.886   4.869   6.687 -0.4314  0.6759 -0.0217
  253MOL0     C34076   5.757   4.835   6.722  0.2442 -0.0010 -0.3732
  253MOL0     C34077   5.709   4.706   6.719 -0.4628  0.3110 -0.0702
  253MOL0     O34078   5.579   4.686   6.761  0.1083 -0.0227 -0.2708
  253MOL0     C34079   5.500   4.580   6.711  0.6946  0.1377 -0.2228
  253MOL0     C34080   5.434   4.488   6.817  0.4462 -0.6692  0.9848
  253MOL0     C34081   5.315   4.562   6.877  0.4217 -0.0122  0.5693
  253MOL0     C34082   5.232   4.477   6.982 -1.1659  0.1363 -0.4390
  253MOL0     C34083   5.095   4.459   6.932  0.9052 -0.2407 -0.0119
  253MOL0     C34084   4.987   4.434   6.894  0.0896 -0.1396 -1.0506
  253MOL0     C34085   5.811   4.611   6.706 -0.3191  0.0650  0.8135
  253MOL0     C34086   5.944   4.642   6.664  0.3408  0.9920  0.5827
  253MOL0     C34087   6.032   4.524   6.608  0.1215  0.3812  0.1432
  253MOL0     H34088   6.356   4.908   6.756  0.5346 -0.0693  0.3012
  253MOL0     H34089   6.587   4.987   6.716  0.3212  0.2498  0.1829
  253MOL0     H34090   6.707   5.151   6.686  0.2106  2.5639 -0.6817
  253MOL0     H34091   6.786   5.017   6.602 -0.4924  1.2554  1.3528
  253MOL0     H34092   6.837   5.319   6.571  1.4594  1.2071 -1.6010
  253MOL0     H34093   6.897   5.194   6.467  0.0324 -0.7484 -0.4858
  253MOL0     H34094   7.017   5.089   6.686  1.1174 -0.5381 -0.9717
  253MOL0     H34095   6.953   5.226   6.778 -2.1000 -0.6620 -1.3785
  253MOL0     H34096   7.142   5.212   6.551 -1.1952 -1.9979  0.5113
  253MOL0     H34097   7.071   5.370   6.616 -3.1084 -0.3661  2.5922
  253MOL0     H34098   7.180   5.376   6.800  0.1047  1.5849 -1.6230
  253MOL0     H34099   7.216   5.198   6.818  1.4670  2.0757  1.7410
  253MOL0     H34100   7.385   5.201   6.675 -2.8461 -0.9603 -0.8545
  253MOL0     H34101   7.357   5.378   6.636  0.2459 -1.3536  0.2022
  253MOL0     H34102   7.449   5.286   6.899  1.5975  3.0441  2.0707
  253MOL0     H34103   7.418   5.452   6.845 -1.8698 -0.9395  1.4017
  253MOL0     H34104   7.629   5.257   6.754  0.4343 -0.1600 -2.0203
  253MOL0     H34105   7.598   5.403   6.667  0.8667 -0.8300 -1.0516
  253MOL0     H34106   7.776   5.592   6.716  1.8596  2.0795  0.3209
  253MOL0     H34107   7.859   5.768   6.875 -1.0343  0.2098  1.2222
  253MOL0     H34108   7.956   5.728   7.014  2.7074 -0.7122 -0.7637
  253MOL0     H34109   8.086   5.566   6.856 -1.6231 -0.1010  0.4205
  253MOL0     H34110   8.014   5.645   6.727 -0.3607 -0.4854  0.0421
  253MOL0     H34111   8.163   5.821   6.936  1.3160  2.7548 -2.5462
  253MOL0     H34112   8.125   5.842   6.761  2.6977  0.3646 -1.1123
  253MOL0     H34113   8.372   5.797   6.840 -2.3525  1.5639  2.4113
  253MOL0     H34114   8.311   5.700   6.699  0.5399  2.1137 -1.3672
  253MOL0     H34115   8.429   5.442   7.065 -0.9188  2.1013  1.0122
  253MOL0     H34116   8.670   5.370   7.086  0.5605 -0.8614 -0.0308
  253MOL0     H34117   9.054   5.529   7.236 -0.5647 -0.5564 -0.1701
  253MOL0     H34118   9.288   5.483   7.301 -0.5685  1.2348 -0.5447
  253MOL0     H34119   9.356   5.145   7.254 -0.8652  1.3276 -0.0321
  253MOL0     H34120   9.535   5.136   7.242 -0.7616 -2.4786  3.0096
  253MOL0     H34121   9.388   5.286   7.451 -0.2936 -0.2715  2.1471
  253MOL0     H34122   9.486   5.138   7.471 -0.6661 -0.6549 -1.8699
  253MOL0     H34123   9.667   5.333   7.353  1.2566  1.9851  0.8589
  253MOL0     H34124   9.555   5.446   7.428 -1.0736  0.1206  0.2187
  253MOL0     H34125   9.710   5.216   7.571 -1.2404 -0.5373 -0.6456
  253MOL0     H34126   9.605   5.334   7.647  0.4728 -0.8153  0.7026
  253MOL0     H34127   9.748   5.516   7.557  2.8392  0.4660 -3.5980
  253MOL0     H34128   9.839   5.414   7.463 -0.0834  0.9075  0.0846
  253MOL0     H34129   9.862   5.437   7.762 -0.9029 -0.0770 -1.3111
  253MOL0     H34130   9.924   5.295   7.663 -0.2616 -1.5099 -2.9510
  253MOL0     H34131  10.049   5.464   7.525  1.0207  0.8608 -0.5208
  253MOL0     H34132  10.105   5.438   7.686 -0.4084 -0.7687 -0.5695
  253MOL0     H34133   9.935   5.681   7.615  1.7471  1.0450 -1.6042
  253MOL0     H34134   9.980   5.656   7.776 -0.8818  2.1218 -0.7451
  253MOL0     H34135   9.344   5.215   6.995 -0.3054 -0.6923  0.1507
  253MOL0     H34136   9.099   5.271   6.897  1.5755 -0.0147 -1.2050
  253MOL0     H34137   8.763   5.655   6.765 -0.0398 -0.3911  1.0197
  253MOL0     H34138   8.528   5.686   6.720 -2.9000 -1.0759 -0.0931
  253MOL0     H34139   6.442   5.218   6.378  1.5117 -0.6741 -0.0172
  253MOL0     H34140   6.205   5.139   6.431  0.1045 -1.2872 -0.5157
  253MOL0     H34141   5.906   4.975   6.690 -0.5333  0.6897  0.1818
  253MOL0     H34142   5.685   4.907   6.757 -0.7898 -1.8429  1.5302
  253MOL0     H34143   5.566   4.518   6.649  0.2050  0.5272 -1.1416
  253MOL0     H34144   5.429   4.620   6.638 -1.5776  1.3402  2.4639
  253MOL0     H34145   5.505   4.464   6.897 -0.3743 -1.0072  1.6283
  253MOL0     H34146   5.405   4.396   6.765 -0.1428 -0.7289  1.3990
  253MOL0     H34147   5.245   4.599   6.802  0.8880 -1.6326 -0.7307
  253MOL0     H34148   5.356   4.650   6.928  0.4701  0.5176 -0.3514
  253MOL0     H34149   5.275   4.380   7.010 -1.5812 -0.8356 -2.9383
  253MOL0     H34150   5.211   4.540   7.069 -0.0599  0.0884 -0.1216
  253MOL0     H34151   4.884   4.417   6.873 -0.1603 -0.8430  0.6107
  253MOL0     H34152   5.776   4.509   6.723 -2.8905  0.4605 -1.4081
  253MOL0     H34153   6.055   4.540   6.503  2.1444  0.5192  0.5619
  253MOL0     H34154   6.128   4.521   6.661 -0.4003  0.3308  1.1153
  253MOL0     H34155   5.979   4.429   6.612  0.1363  0.1925 -2.4892
  254MOL0     O34156   0.339   3.669  11.271 -0.3378 -0.1757 -0.7158
  254MOL0     C34157   0.399   3.760  11.331 -0.6148  0.3626  0.4792
  254MOL0     O34158   0.344   3.853  11.414  0.2938 -0.8073  0.5815
  254MOL0     C34159   0.203   3.851  11.421 -0.4329 -0.6951  0.4843
  254MOL0     C34160   0.141   3.761  11.500  0.9419  0.6198  0.4248
  254MOL0     C34161   0.004   3.737  11.473 -0.1381 -1.1344 -0.5525
  254MOL0     C34162  -0.073   3.808  11.381 -1.1584  0.1967  0.6061
  254MOL0     O34163  -0.199   3.772  11.363  0.2361  0.3103  0.4748
  254MOL0     C34164  -0.276   3.820  11.250 -0.8742  0.1063 -0.0559
  254MOL0     C34165  -0.394   3.729  11.234  1.0388  0.6315 -0.3598
  254MOL0     C34166  -0.384   3.580  11.199 -0.1106  0.3294 -0.1172
  254MOL0     C34167  -0.386   3.494  11.328  0.8328 -0.8214 -0.0661
  254MOL0     C34168  -0.351   3.347  11.302 -0.9173  0.8498 -0.0812
  254MOL0     C34169  -0.461   3.276  11.217 -0.4864 -0.2752  0.5030
  254MOL0     C34170  -0.418   3.131  11.192 -0.2822 -0.4660  0.4995
  254MOL0     C34171  -0.398   3.039  11.317 -0.9823  0.2944 -0.0031
  254MOL0     N34172  -0.461   2.902  11.301  0.4432 -0.4586  0.3154
  254MOL0     C34173  -0.391   2.792  11.246  0.1536 -0.2649  0.0155
  254MOL0     C34174  -0.489   2.700  11.223 -0.6905 -0.4697  0.5406
  254MOL0     C34175  -0.464   2.576  11.164  0.4879  0.8526  0.0813
  254MOL0     C34176  -0.416   2.472  11.264 -0.4689  1.1420 -0.3231
  254MOL0     C34177  -0.327   2.361  11.211 -0.4530  0.5985  0.0092
  254MOL0     C34178  -0.205   2.429  11.140  0.2181  0.0184 -0.1724
  254MOL0     O34179  -0.120   2.321  11.105  0.1121 -0.4749  0.8794
  254MOL0     C34180   0.001   2.354  11.042  0.1610  0.2019 -0.1104
  254MOL0     C34181   0.061   2.482  11.054  0.0783 -0.1793  0.0940
  254MOL0     C34182   0.180   2.516  11.000  0.4921 -0.3735  0.1225
  254MOL0     C34183   0.245   2.426  10.916  0.3777  0.5018 -0.5399
  254MOL0     C34184   0.368   2.464  10.848  0.2855  0.4161 -0.2616
  254MOL0     O34185   0.440   2.372  10.785  0.3310 -0.1940 -0.5155
  254MOL0     C34186   0.560   2.403  10.725  0.2124 -0.4943 -0.1344
  254MOL0     C34187   0.662   2.493  10.760 -0.8872 -0.3975 -0.7765
  254MOL0     C34188   0.764   2.523  10.674 -0.2172  0.7993  0.4247
  254MOL0     C34189   0.783   2.437  10.559 -0.3472  0.2267 -0.3807
  254MOL0     O34190   0.893   2.455  10.481 -0.0866 -0.4173 -0.0271
  254MOL0     C34191   0.910   2.384  10.352  0.0044  0.1586 -0.4994
  254MOL0     C34192   1.002   2.466  10.272 -0.3617 -0.5552  0.0874
  254MOL0     C34193   1.146   2.459  10.321 -0.9930 -0.1414  0.6768
  254MOL0     C34194   1.237   2.555  10.241  0.6477  0.1474  0.5865
  254MOL0     C34195   1.371   2.571  10.313 -1.2955  0.2721  0.0146
  254MOL0     C34196   1.464   2.643  10.218 -0.1535 -0.3541 -0.2107
  254MOL0     C34197   1.412   2.785  10.199 -0.0594 -0.1006 -0.3963
  254MOL0     C34198   1.523   2.877  10.146  0.2204 -0.2614 -0.3057
  254MOL0    Cl34199   1.562   2.848   9.977 -0.2602  0.0144  0.1827
  254MOL0     C34200   0.685   2.346  10.522 -0.1536 -0.2889  0.5775
  254MOL0     C34201   0.567   2.335  10.599 -0.3176 -0.3358  0.3140
  254MOL0     O34202   0.397   2.586  10.852  0.0130 -0.0920 -0.2434
  254MOL0     C34203   0.194   2.295  10.902  0.5201  0.3257  0.4182
  254MOL0     C34204   0.078   2.262  10.966  0.5725  0.5193 -0.9299
  254MOL0     N34205  -0.611   2.747  11.277 -0.1192 -0.2330  0.4157
  254MOL0     N34206  -0.592   2.867  11.317 -0.0053  0.1454 -0.4763
  254MOL0     C34207  -0.011   3.907  11.308 -1.1896 -0.6022 -0.3406
  254MOL0     C34208   0.128   3.928  11.328 -0.6669 -0.4911 -0.5984
  254MOL0     C34209   0.551   3.747  11.323 -1.1433  0.3168  0.3178
  254MOL0     C34210   0.624   3.848  11.395  0.3977  0.3822  0.0419
  254MOL0     C34211   0.758   3.854  11.409 -0.0597  0.0900  0.5850
  254MOL0     C34212   0.829   3.745  11.348 -0.7668 -0.3079 -0.3927
  254MOL0     O34213   0.969   3.727  11.361  0.3708  0.0579  0.2845
  254MOL0     C34214   1.054   3.824  11.438  0.7604 -0.3095 -0.0933
  254MOL0     C34215   1.198   3.804  11.420 -0.7659  0.5874 -0.3371
  254MOL0     C34216   1.288   3.905  11.503  0.2225  0.9346 -0.5749
  254MOL0     C34217   1.380   3.827  11.597 -0.4447 -0.2711 -0.5466
  254MOL0     C34218   1.459   3.920  11.676 -0.6688  0.3062  1.0105
  254MOL0     C34219   1.530   3.990  11.749  0.3748 -0.0713 -0.0961
  254MOL0     C34220   0.766   3.641  11.277  0.2874 -0.6136 -0.2430
  254MOL0     C34221   0.628   3.659  11.255  0.5562  0.5369 -0.7247
  254MOL0     C34222   0.573   3.565  11.151  0.2173  0.5105  0.1844
  254MOL0     H34223   0.198   3.695  11.564 -1.9081 -1.0209  1.4706
  254MOL0     H34224  -0.045   3.652  11.518  0.9540 -1.1576  0.6461
  254MOL0     H34225  -0.302   3.926  11.256  0.5494  0.5986 -1.8364
  254MOL0     H34226  -0.223   3.816  11.154  0.2254 -0.4946  0.5481
  254MOL0     H34227  -0.460   3.769  11.157 -0.5077 -1.2417 -0.0857
  254MOL0     H34228  -0.452   3.731  11.327  1.4594  0.3074 -0.0858
  254MOL0     H34229  -0.288   3.563  11.149  1.1803  0.1174  2.2821
  254MOL0     H34230  -0.466   3.549  11.134  1.8468 -1.3277 -1.9602
  254MOL0     H34231  -0.312   3.536  11.397  1.2787 -1.1493 -0.3398
  254MOL0     H34232  -0.482   3.491  11.379  1.0383  0.9952  0.4838
  254MOL0     H34233  -0.251   3.330  11.261 -0.1055 -0.3884  2.2027
  254MOL0     H34234  -0.340   3.305  11.403 -1.0675  0.6070 -0.1658
  254MOL0     H34235  -0.552   3.282  11.277  1.0005 -1.5920  3.0895
  254MOL0     H34236  -0.469   3.335  11.125  0.6369  2.1270  1.8238
  254MOL0     H34237  -0.327   3.134  11.132  0.1685  1.3412  1.2101
  254MOL0     H34238  -0.504   3.094  11.135  1.7243 -3.2660 -0.9784
  254MOL0     H34239  -0.291   3.020  11.314 -1.0267  0.2068 -1.5133
  254MOL0     H34240  -0.420   3.094  11.410  0.8266  1.6170 -0.3035
  254MOL0     H34241  -0.285   2.786  11.223  0.4205 -2.3150  1.4990
  254MOL0     H34242  -0.548   2.531  11.109  0.4763  1.2165 -0.2026
  254MOL0     H34243  -0.398   2.591  11.078 -1.0921  3.1444 -0.8349
  254MOL0     H34244  -0.358   2.519  11.344 -0.0639 -1.0833  0.7632
  254MOL0     H34245  -0.502   2.429  11.316 -0.5032  1.8411  0.2165
  254MOL0     H34246  -0.380   2.285  11.153  1.0640  0.2754 -1.0244
  254MOL0     H34247  -0.290   2.309  11.299  1.5183  1.0853 -0.4916
  254MOL0     H34248  -0.162   2.508  11.202 -3.4022  0.2847  2.3017
  254MOL0     H34249  -0.234   2.479  11.048 -1.9288  0.6711  0.7884
  254MOL0     H34250   0.024   2.560  11.120 -3.8594  0.4484 -2.5370
  254MOL0     H34251   0.217   2.617  11.016 -0.9558  0.7128 -2.5948
  254MOL0     H34252   0.661   2.540  10.858  0.4879 -0.1547 -0.8559
  254MOL0     H34253   0.833   2.603  10.702  1.6226 -0.5935  0.0577
  254MOL0     H34254   0.947   2.282  10.355  0.7780  0.4476  0.1425
  254MOL0     H34255   0.817   2.374  10.295 -0.4455 -2.2866  0.5689
  254MOL0     H34256   1.009   2.433  10.169  2.0729 -2.4135  0.7591
  254MOL0     H34257   0.959   2.567  10.276  0.9885  0.0726 -0.6511
  254MOL0     H34258   1.154   2.476  10.429 -0.8772  2.5045  0.3331
  254MOL0     H34259   1.178   2.357  10.298 -0.1125  0.2510  0.0965
  254MOL0     H34260   1.183   2.649  10.228 -2.4989 -1.3452  1.6795
  254MOL0     H34261   1.250   2.524  10.137  0.1587  2.4001 -0.1896
  254MOL0     H34262   1.412   2.473  10.337  0.0436  0.9388  0.5152
  254MOL0     H34263   1.356   2.621  10.409 -1.6959  1.7740 -0.7860
  254MOL0     H34264   1.564   2.641  10.264 -1.1949 -2.6998  2.1820
  254MOL0     H34265   1.476   2.588  10.125 -2.7051 -1.6685  0.1538
  254MOL0     H34266   1.389   2.820  10.300  2.3191  1.1949 -0.2474
  254MOL0     H34267   1.326   2.785  10.131 -0.1228  1.3038 -0.3507
  254MOL0     H34268   1.484   2.979  10.159  0.8345  0.0246 -0.6450
  254MOL0     H34269   1.607   2.866  10.215 -2.5374 -0.8363  3.2672
  254MOL0     H34270   0.685   2.282  10.434  1.3447  0.3108  0.1122
  254MOL0     H34271   0.495   2.260  10.568  0.2581 -1.2541  1.1104
  254MOL0     H34272   0.244   2.220  10.842 -0.3353  0.5151 -0.5656
  254MOL0     H34273   0.040   2.161  10.954  0.8210  0.1655  0.9106
  254MOL0     H34274  -0.064   3.969  11.238 -0.4790  1.1607  0.6164
  254MOL0     H34275   0.190   3.992  11.266 -1.5056  0.7470 -0.1913
  254MOL0     H34276   0.566   3.918  11.454 -1.5963 -2.3465  1.5195
  254MOL0     H34277   0.809   3.930  11.467 -1.0479  0.2478  1.2637
  254MOL0     H34278   1.038   3.804  11.545  0.2071  1.7092  0.2438
  254MOL0     H34279   1.033   3.929  11.416  0.4832  0.1188  1.9570
  254MOL0     H34280   1.215   3.826  11.314  2.6725  0.1890  0.0292
  254MOL0     H34281   1.216   3.700  11.448  1.6098  1.0217 -0.0140
  254MOL0     H34282   1.231   3.966  11.574  0.5064  2.1404 -1.3580
  254MOL0     H34283   1.345   3.977  11.445 -1.5461  2.5943 -0.3674
  254MOL0     H34284   1.324   3.757  11.660  3.3466 -3.7203 -0.5869
  254MOL0     H34285   1.440   3.767  11.527 -0.2196 -0.0199 -0.5677
  254MOL0     H34286   1.583   4.063  11.807  0.0961  1.0236 -1.1595
  254MOL0     H34287   0.822   3.568  11.220  0.5379 -1.0863  0.6016
  254MOL0     H34288   0.514   3.615  11.074  4.1529  0.0148 -3.4752
  254MOL0     H34289   0.645   3.512  11.089  1.8459 -0.6407  2.8471
  254MOL0     H34290   0.513   3.485  11.198 -0.9370  0.6375 -1.0163
  255MOL0     O34291   5.273   9.443   1.911 -1.3408 -0.8314  0.0856
  255MOL0     C34292   5.217   9.447   2.020  0.2630  0.3056 -0.1579
  255MOL0     O34293   5.276   9.410   2.140  0.4532  0.3175  0.1785
  255MOL0     C34294   5.410   9.375   2.137  0.0983  0.9151 -0.5032
  255MOL0     C34295   5.455   9.244   2.128  0.3818 -0.6507  0.5893
  255MOL0     C34296   5.586   9.212   2.138 -0.8123  0.3872 -0.2288
  255MOL0     C34297   5.684   9.320   2.162 -0.5900 -0.5865  0.0741
  255MOL0     O34298   5.809   9.274   2.179  0.2650 -0.4970 -0.6053
  255MOL0     C34299   5.906   9.361   2.242 -0.1550 -0.1361 -0.3745
  255MOL0     C34300   6.043   9.291   2.263 -0.0651  0.4188  0.1041
  255MOL0     C34301   6.138   9.372   2.348 -0.1633  0.5058  0.5594
  255MOL0     C34302   6.232   9.448   2.267 -0.1586 -0.4984  0.4299
  255MOL0     C34303   6.338   9.514   2.346 -0.4386 -0.3453  0.0043
  255MOL0     C34304   6.429   9.585   2.245  0.2088  0.1351 -0.0958
  255MOL0     C34305   6.529   9.689   2.299 -0.4509 -0.0762  0.4259
  255MOL0     C34306   6.643   9.634   2.386  0.2354 -0.2385 -0.9177
  255MOL0     N34307   6.731   9.539   2.326  0.9764 -0.8519 -0.0463
  255MOL0     C34308   6.835   9.557   2.241 -0.7969 -0.6072  1.6585
  255MOL0     C34309   6.867   9.435   2.190  0.3102 -0.2346  0.3627
  255MOL0     C34310   6.979   9.419   2.085 -0.1873 -0.6233  0.3936
  255MOL0     C34311   6.943   9.334   1.960 -0.1987  0.3037  0.0169
  255MOL0     C34312   7.058   9.293   1.867 -0.0847 -0.0934  0.3223
  255MOL0     C34313   7.152   9.208   1.940 -0.0615  0.0988 -0.6971
  255MOL0     O34314   7.252   9.179   1.844 -0.8720 -0.1606 -0.3096
  255MOL0     C34315   7.326   9.064   1.864 -0.5769  0.4160 -0.9651
  255MOL0     C34316   7.376   8.996   1.754  0.0775 -0.5140 -0.0941
  255MOL0     C34317   7.445   8.879   1.763  0.1968 -0.7335  0.9774
  255MOL0     C34318   7.486   8.835   1.891 -0.0234 -0.7577 -0.3809
  255MOL0     C34319   7.562   8.700   1.898  0.0677  0.1083 -0.0733
  255MOL0     O34320   7.571   8.616   1.789 -0.0089  0.1926  0.0033
  255MOL0     C34321   7.638   8.501   1.810 -0.2934 -1.0226  0.0432
  255MOL0     C34322   7.564   8.381   1.832  0.0485  0.5666  0.0701
  255MOL0     C34323   7.631   8.255   1.840  0.0526 -0.4470  0.3590
  255MOL0     C34324   7.775   8.261   1.851  0.2808 -0.0286 -0.6500
  255MOL0     O34325   7.852   8.148   1.850 -0.5943 -0.0997 -0.0442
  255MOL0     C34326   7.810   8.052   1.753 -0.0731  0.4060  0.6772
  255MOL0     C34327   7.913   8.033   1.634 -0.3352 -0.1820  0.7455
  255MOL0     C34328   8.060   8.031   1.689  0.2929 -0.9585  0.4045
  255MOL0     C34329   8.162   8.068   1.580 -0.3015  0.6160 -0.6361
  255MOL0     C34330   8.307   8.094   1.632  0.7046  0.6695  0.2759
  255MOL0     C34331   8.318   8.204   1.750  0.5790 -0.4155  0.6742
  255MOL0     C34332   8.229   8.332   1.705  1.0511  0.1817 -0.0699
  255MOL0     C34333   8.237   8.429   1.826 -0.3009  0.0204  0.7834
  255MOL0    Cl34334   8.132   8.583   1.804  0.0236  0.3536  0.5770
  255MOL0     C34335   7.849   8.378   1.846 -0.2499  0.0589 -0.6347
  255MOL0     C34336   7.778   8.500   1.825  0.2333  0.1858 -0.6287
  255MOL0     O34337   7.608   8.674   2.010  0.0996  0.4691 -0.2847
  255MOL0     C34338   7.443   8.903   2.010  0.1632  0.0016 -0.1923
  255MOL0     C34339   7.369   9.013   1.991  0.4307 -0.2963  0.0504
  255MOL0     N34340   6.792   9.344   2.253 -0.2014  0.4292 -1.4760
  255MOL0     N34341   6.711   9.404   2.338 -0.1648  1.0729 -0.0669
  255MOL0     C34342   5.633   9.449   2.178 -0.7589 -0.8048  0.3153
  255MOL0     C34343   5.496   9.479   2.167 -0.2714 -0.1219  0.4175
  255MOL0     C34344   5.076   9.467   2.017 -0.0963  0.0796 -0.9343
  255MOL0     C34345   5.000   9.400   2.120 -0.5086  0.1375 -0.9583
  255MOL0     C34346   4.860   9.398   2.109 -0.4952 -0.3732  0.4894
  255MOL0     C34347   4.792   9.473   2.011  0.5446  0.6557  0.5701
  255MOL0     O34348   4.654   9.477   2.005  0.2296  0.6410  0.2296
  255MOL0     C34349   4.616   9.376   1.908 -0.0756  0.5148 -0.1143
  255MOL0     C34350   4.465   9.370   1.917  0.1543  0.5985  0.1655
  255MOL0     C34351   4.398   9.502   1.861  0.4720 -0.4338  0.9544
  255MOL0     C34352   4.246   9.494   1.885  0.4339 -0.3078  0.1150
  255MOL0     C34353   4.179   9.606   1.822  1.1544  0.3615  0.3908
  255MOL0     C34354   4.143   9.711   1.779 -0.5031  0.3943 -0.1876
  255MOL0     C34355   4.869   9.557   1.935  0.1471  0.0162 -0.3542
  255MOL0     C34356   5.009   9.553   1.931 -0.7774  1.0277 -0.1153
  255MOL0     C34357   5.079   9.638   1.838  0.2266 -0.6926  0.1685
  255MOL0     H34358   5.377   9.170   2.114 -1.3909  0.7410  2.4368
  255MOL0     H34359   5.619   9.109   2.134 -1.3051  0.2091  0.1732
  255MOL0     H34360   5.916   9.447   2.174 -1.2684  0.1175 -0.2335
  255MOL0     H34361   5.883   9.403   2.340  0.4118  0.5092 -0.5088
  255MOL0     H34362   6.090   9.270   2.167  0.6175 -0.5914  0.6449
  255MOL0     H34363   6.027   9.194   2.312 -0.0711 -1.4050 -3.2068
  255MOL0     H34364   6.203   9.299   2.397  0.2791 -0.0112 -0.7637
  255MOL0     H34365   6.086   9.424   2.429  3.5307  2.5106  1.9024
  255MOL0     H34366   6.278   9.392   2.186  0.4630 -1.6129  1.5340
  255MOL0     H34367   6.175   9.531   2.222  0.5446 -0.5552 -0.5750
  255MOL0     H34368   6.296   9.587   2.416 -0.3602  0.5946 -0.8975
  255MOL0     H34369   6.392   9.437   2.402 -0.7307 -0.6121 -0.0741
  255MOL0     H34370   6.477   9.509   2.182  1.2178  1.8265 -1.4882
  255MOL0     H34371   6.364   9.645   2.180 -1.5290 -1.8202 -0.2571
  255MOL0     H34372   6.477   9.769   2.352  0.4312  1.2421 -0.6210
  255MOL0     H34373   6.582   9.740   2.217  3.5970  1.4060  3.6233
  255MOL0     H34374   6.707   9.714   2.425 -0.3198 -1.7463  3.6110
  255MOL0     H34375   6.592   9.594   2.473  1.5002 -0.3371 -0.1898
  255MOL0     H34376   6.892   9.647   2.218 -1.4398 -0.9522 -1.8363
  255MOL0     H34377   7.010   9.516   2.045 -0.6243 -1.2929 -1.6997
  255MOL0     H34378   7.062   9.372   2.139 -0.4391 -0.5188  0.8813
  255MOL0     H34379   6.903   9.238   1.994 -2.4866  1.1274 -0.1252
  255MOL0     H34380   6.865   9.394   1.911 -0.8734  0.5847  1.3801
  255MOL0     H34381   7.128   9.364   1.821  1.1884 -2.0108 -0.8626
  255MOL0     H34382   7.029   9.234   1.779 -0.3513  0.4662  0.0235
  255MOL0     H34383   7.096   9.119   1.972 -0.7601  0.9235  0.4404
  255MOL0     H34384   7.200   9.251   2.028  0.1916  1.1391 -1.3216
  255MOL0     H34385   7.339   9.019   1.655 -1.5781  0.9934  0.8131
  255MOL0     H34386   7.471   8.822   1.674 -1.8045  1.4176 -1.1462
  255MOL0     H34387   7.455   8.377   1.833  0.0435 -3.7828  1.8957
  255MOL0     H34388   7.564   8.170   1.837 -0.6576  0.1237 -0.0645
  255MOL0     H34389   7.791   7.953   1.796 -3.0593  0.0064 -1.2345
  255MOL0     H34390   7.719   8.077   1.698 -0.5542 -0.0388  1.2608
  255MOL0     H34391   7.890   7.944   1.575 -1.3157 -0.9519  2.2203
  255MOL0     H34392   7.900   8.121   1.570 -0.9363 -2.3182 -2.2832
  255MOL0     H34393   8.064   8.096   1.777  1.2516 -1.9115  1.0969
  255MOL0     H34394   8.082   7.932   1.730  0.3921 -0.8784  0.5435
  255MOL0     H34395   8.133   8.163   1.537  0.1591 -0.5657 -3.8140
  255MOL0     H34396   8.154   7.981   1.514  0.8077  2.2113 -3.0057
  255MOL0     H34397   8.377   8.125   1.554 -1.2289  0.6429 -1.5373
  255MOL0     H34398   8.344   7.995   1.661  1.3293  1.1152  1.0622
  255MOL0     H34399   8.285   8.152   1.840  1.7187 -2.7310 -0.1560
  255MOL0     H34400   8.423   8.229   1.773  0.2469  0.7462  1.0115
  255MOL0     H34401   8.123   8.310   1.690  1.1426 -0.8496  0.6786
  255MOL0     H34402   8.265   8.385   1.616 -0.7085  0.6927 -0.5143
  255MOL0     H34403   8.204   8.373   1.914 -0.2667  2.2085  2.2453
  255MOL0     H34404   8.335   8.465   1.855 -0.4277  0.0526  1.1731
  255MOL0     H34405   7.957   8.371   1.845 -0.2275  0.3179 -0.3632
  255MOL0     H34406   7.827   8.596   1.837  1.4484 -0.2922 -1.5277
  255MOL0     H34407   7.472   8.875   2.111  0.0521  3.2151  0.8221
  255MOL0     H34408   7.352   9.066   2.084  0.4152 -0.6192  0.2325
  255MOL0     H34409   5.702   9.529   2.203 -1.0040 -0.5876  0.3030
  255MOL0     H34410   5.464   9.581   2.180  1.9116  0.5549  1.0106
  255MOL0     H34411   5.048   9.354   2.206  0.5476  2.6087 -0.1374
  255MOL0     H34412   4.802   9.344   2.183  1.7318 -0.4409  2.3093
  255MOL0     H34413   4.663   9.282   1.936 -0.4701  0.6668  1.1152
  255MOL0     H34414   4.655   9.412   1.813 -1.4246  0.9236 -0.5422
  255MOL0     H34415   4.429   9.352   2.019 -1.1507 -0.6554 -0.4778
  255MOL0     H34416   4.439   9.283   1.858  0.4041  1.0258 -0.5884
  255MOL0     H34417   4.427   9.513   1.756  0.6015 -0.6164  0.9700
  255MOL0     H34418   4.431   9.584   1.925  1.0289 -2.2480  3.1197
  255MOL0     H34419   4.194   9.401   1.862 -1.1549 -0.4097  3.4702
  255MOL0     H34420   4.238   9.501   1.994  1.3068 -1.8316  0.3001
  255MOL0     H34421   4.108   9.805   1.742 -0.5775 -0.2229 -1.7579
  255MOL0     H34422   4.821   9.627   1.867  1.1782  0.0301 -1.0996
  255MOL0     H34423   5.178   9.671   1.868 -0.6329  0.8877  1.4135
  255MOL0     H34424   5.087   9.588   1.741 -2.5998  0.3960 -0.7548
  255MOL0     H34425   5.019   9.730   1.829 -2.5183 -2.1812  1.9132
  256MOL0     O34426   3.590   3.760   8.717  0.5473 -0.0565  0.3853
  256MOL0     C34427   3.512   3.744   8.622 -0.2323  0.2684 -0.2846
  256MOL0     O34428   3.545   3.720   8.500 -0.8535 -0.4777  0.5064
  256MOL0     C34429   3.666   3.665   8.479 -0.0585  0.6807 -0.5591
  256MOL0     C34430   3.677   3.523   8.475 -0.2514 -0.0386  0.1008
  256MOL0     C34431   3.799   3.459   8.455 -0.0617 -0.0764  0.0185
  256MOL0     C34432   3.916   3.537   8.427 -0.2868  0.0740 -0.3338
  256MOL0     O34433   4.043   3.492   8.411  0.8961  0.2668  0.3872
  256MOL0     C34434   4.090   3.361   8.461  0.7558 -0.4856  0.5784
  256MOL0     C34435   4.242   3.365   8.459  0.0552 -0.3158 -1.1800
  256MOL0     C34436   4.302   3.470   8.551 -0.4654 -0.1241  0.1643
  256MOL0     C34437   4.451   3.440   8.548  0.3336  0.1784  0.6941
  256MOL0     C34438   4.534   3.535   8.634 -0.5211  1.0101 -0.1748
  256MOL0     C34439   4.526   3.684   8.579 -0.4945  1.4073  0.4453
  256MOL0     C34440   4.628   3.772   8.665 -0.6035 -0.2517 -0.0242
  256MOL0     C34441   4.764   3.802   8.588  0.7750  0.7298 -0.9105
  256MOL0     N34442   4.863   3.894   8.644 -0.4500 -0.5655  0.0423
  256MOL0     C34443   4.845   4.023   8.685 -0.7719 -0.2337  0.1988
  256MOL0     C34444   4.960   4.079   8.710 -0.1522  0.0177  0.4915
  256MOL0     C34445   4.985   4.218   8.749  0.3182 -0.4475 -0.2772
  256MOL0     C34446   5.133   4.236   8.788 -1.2311 -0.5420  0.3484
  256MOL0     C34447   5.235   4.233   8.671  1.0901  0.2975 -0.0110
  256MOL0     C34448   5.380   4.211   8.724 -0.3889  0.0208  0.1091
  256MOL0     O34449   5.408   4.250   8.863  0.3658  0.0574  0.1550
  256MOL0     C34450   5.536   4.257   8.914 -0.3586 -0.1045  0.1935
  256MOL0     C34451   5.557   4.249   9.050 -0.7164 -0.1916 -0.6785
  256MOL0     C34452   5.685   4.273   9.109  0.0372  0.7151 -0.0756
  256MOL0     C34453   5.796   4.307   9.031 -0.0881  0.0186 -0.8639
  256MOL0     C34454   5.930   4.328   9.101  1.3633 -0.6334 -0.0689
  256MOL0     O34455   5.932   4.299   9.231 -0.4888  0.1221 -0.2969
  256MOL0     C34456   6.045   4.318   9.295  0.2044 -0.5730  1.1932
  256MOL0     C34457   6.132   4.210   9.317  0.5874 -0.0465 -0.0025
  256MOL0     C34458   6.234   4.222   9.409 -0.0239 -0.1059  0.1040
  256MOL0     C34459   6.258   4.341   9.476  0.3569  0.0122  0.2636
  256MOL0     O34460   6.377   4.339   9.551 -0.9127 -0.5351  0.1224
  256MOL0     C34461   6.456   4.451   9.513 -0.3068  0.4097 -0.2463
  256MOL0     C34462   6.598   4.404   9.497  0.7364  0.3911 -0.0159
  256MOL0     C34463   6.695   4.492   9.430 -0.4186  0.3582  0.5830
  256MOL0     C34464   6.821   4.412   9.379 -0.4776 -0.4733 -0.5847
  256MOL0     C34465   6.937   4.503   9.362  0.2344  0.8083 -0.8001
  256MOL0     C34466   6.996   4.568   9.482  0.1112  0.0965 -0.0101
  256MOL0     C34467   7.063   4.478   9.584 -0.2856 -0.2782  0.0730
  256MOL0     C34468   7.122   4.565   9.696  0.2011  0.0574  0.8085
  256MOL0    Cl34469   7.260   4.645   9.617 -0.0393 -0.0078 -0.4129
  256MOL0     C34470   6.173   4.452   9.448  0.5291  0.7510 -0.1991
  256MOL0     C34471   6.054   4.437   9.373  0.8358 -0.2217  0.1133
  256MOL0     O34472   6.029   4.344   9.022  0.3834 -0.3421  0.1404
  256MOL0     C34473   5.780   4.310   8.891 -0.7838 -0.2712  0.9143
  256MOL0     C34474   5.654   4.290   8.835 -0.2724 -0.7043  0.0805
  256MOL0     N34475   5.054   3.979   8.688  0.2373  0.7355  1.0636
  256MOL0     N34476   4.997   3.870   8.653 -0.1996 -0.0835  0.3331
  256MOL0     C34477   3.901   3.674   8.423 -0.1768  0.0241  0.1426
  256MOL0     C34478   3.780   3.739   8.452 -0.0208  0.9240 -0.2346
  256MOL0     C34479   3.363   3.761   8.638  0.2616 -0.6467 -0.4094
  256MOL0     C34480   3.276   3.700   8.552  0.2927 -0.0815  1.0760
  256MOL0     C34481   3.139   3.716   8.561  0.4839  0.9375 -0.3262
  256MOL0     C34482   3.089   3.798   8.658 -0.2875  0.4214 -0.0842
  256MOL0     O34483   2.960   3.827   8.678 -0.3211 -0.2026  0.1934
  256MOL0     C34484   2.868   3.825   8.566  0.0150  0.1660  0.4448
  256MOL0     C34485   2.728   3.862   8.606  0.2482  0.5950 -0.0961
  256MOL0     C34486   2.627   3.851   8.486 -0.3284  0.4558  0.2004
  256MOL0     C34487   2.488   3.795   8.517  0.5345  0.6302  0.3251
  256MOL0     C34488   2.403   3.882   8.609 -0.4133 -0.7730  0.8438
  256MOL0     C34489   2.331   3.958   8.674 -0.6070  0.4486 -0.8485
  256MOL0     C34490   3.176   3.852   8.755 -0.3418  0.0902  0.0280
  256MOL0     C34491   3.310   3.837   8.743  0.2467 -0.6994 -0.2875
  256MOL0     C34492   3.384   3.930   8.845  0.3077 -0.8139 -0.0434
  256MOL0     H34493   3.581   3.474   8.489 -0.2397 -0.5315 -1.4168
  256MOL0     H34494   3.800   3.350   8.453  1.3388 -0.1142  0.9315
  256MOL0     H34495   4.048   3.346   8.561  0.7608  0.5783  0.7495
  256MOL0     H34496   4.052   3.291   8.386 -0.0082  1.2413 -0.7000
  256MOL0     H34497   4.279   3.383   8.358  1.9230 -0.0806 -0.4842
  256MOL0     H34498   4.268   3.263   8.489 -2.7563 -0.3613  1.6115
  256MOL0     H34499   4.274   3.450   8.655 -0.8520  0.7867  0.2437
  256MOL0     H34500   4.269   3.568   8.517  0.8408 -0.1718 -1.3342
  256MOL0     H34501   4.461   3.338   8.584 -3.2627 -0.2440  0.9118
  256MOL0     H34502   4.495   3.439   8.447  1.4360 -1.3925  1.1603
  256MOL0     H34503   4.511   3.534   8.741 -0.7397 -0.5913 -0.2052
  256MOL0     H34504   4.638   3.502   8.629 -1.0944 -2.4063  4.3971
  256MOL0     H34505   4.553   3.680   8.473 -0.0532  0.2989  0.5778
  256MOL0     H34506   4.426   3.727   8.591 -1.2758 -0.4027  0.8681
  256MOL0     H34507   4.637   3.741   8.770 -0.6040 -1.4470 -0.3588
  256MOL0     H34508   4.571   3.865   8.670 -2.1080 -1.1486  0.0529
  256MOL0     H34509   4.815   3.707   8.571  2.0049  0.7689  2.0166
  256MOL0     H34510   4.730   3.839   8.491 -0.7764  0.4948 -0.4787
  256MOL0     H34511   4.751   4.076   8.674 -0.4657  0.2915  0.1054
  256MOL0     H34512   4.955   4.281   8.665 -1.7089  0.9241  1.3942
  256MOL0     H34513   4.931   4.244   8.841  1.4965 -0.6912  0.5082
  256MOL0     H34514   5.146   4.339   8.822  2.5923 -0.5115 -0.7935
  256MOL0     H34515   5.156   4.158   8.862 -1.7333  0.9468  2.1520
  256MOL0     H34516   5.228   4.329   8.619 -0.7210  1.6867  2.6028
  256MOL0     H34517   5.217   4.149   8.603 -1.0462 -1.6977  2.7942
  256MOL0     H34518   5.455   4.262   8.663 -2.9323  3.0467 -0.7551
  256MOL0     H34519   5.397   4.104   8.716  3.0548  0.2070  2.6134
  256MOL0     H34520   5.471   4.224   9.112  0.4938 -0.2102  1.0665
  256MOL0     H34521   5.679   4.269   9.217 -0.3972 -1.7778 -0.1253
  256MOL0     H34522   6.130   4.123   9.252 -0.1206 -0.3530  0.4174
  256MOL0     H34523   6.304   4.141   9.421 -1.3853 -1.0565  2.3283
  256MOL0     H34524   6.427   4.494   9.417  3.9018  1.5034 -1.2389
  256MOL0     H34525   6.455   4.536   9.581  1.0294  1.3059 -1.2686
  256MOL0     H34526   6.632   4.383   9.599 -0.2361  3.7756  1.1139
  256MOL0     H34527   6.585   4.321   9.426  2.0115  1.3056 -1.3530
  256MOL0     H34528   6.651   4.554   9.352  0.6506 -0.9042 -1.1056
  256MOL0     H34529   6.733   4.562   9.506  3.0325 -0.9965  0.3186
  256MOL0     H34530   6.805   4.366   9.282 -0.2834 -1.1288 -0.3132
  256MOL0     H34531   6.847   4.336   9.453 -2.7763 -1.1875 -0.4389
  256MOL0     H34532   6.912   4.580   9.289  0.2813  0.7638 -0.8639
  256MOL0     H34533   7.011   4.443   9.309  2.4729  3.9312 -1.5051
  256MOL0     H34534   7.064   4.648   9.452 -0.5005  0.9482  0.8157
  256MOL0     H34535   6.920   4.626   9.535 -0.4394 -0.0391 -0.6469
  256MOL0     H34536   7.140   4.418   9.533  1.1386  1.4880  0.0660
  256MOL0     H34537   6.991   4.403   9.618  1.1785 -2.1423 -0.6895
  256MOL0     H34538   7.048   4.637   9.732 -0.5557  0.1807 -0.9057
  256MOL0     H34539   7.134   4.494   9.778 -0.1139 -1.3238 -0.3188
  256MOL0     H34540   6.189   4.556   9.473  0.8499  1.0010 -1.3627
  256MOL0     H34541   5.978   4.514   9.374  0.3981 -0.5631 -2.2081
  256MOL0     H34542   5.867   4.318   8.827 -2.4475  1.4844 -1.3006
  256MOL0     H34543   5.657   4.294   8.727  0.1047 -1.7883  0.0371
  256MOL0     H34544   3.988   3.739   8.415 -0.4189  0.9469  3.4750
  256MOL0     H34545   3.781   3.846   8.438 -0.5018  1.0087  0.3723
  256MOL0     H34546   3.319   3.637   8.474 -0.0010 -0.7723  1.4596
  256MOL0     H34547   3.069   3.672   8.491  2.0023  1.1471 -2.0582
  256MOL0     H34548   2.869   3.724   8.523 -1.2669 -0.9253  2.7786
  256MOL0     H34549   2.906   3.896   8.492  1.0501  1.0304  1.7701
  256MOL0     H34550   2.729   3.960   8.655 -1.8382  0.6288 -0.0191
  256MOL0     H34551   2.703   3.792   8.687  2.1747  2.0541  1.8560
  256MOL0     H34552   2.670   3.778   8.417  0.6195 -0.4710  1.7232
  256MOL0     H34553   2.627   3.944   8.428  2.0557  0.0616 -0.5417
  256MOL0     H34554   2.430   3.776   8.426  0.7820  0.1114  0.2687
  256MOL0     H34555   2.516   3.699   8.563 -1.7628 -1.3532 -2.0717
  256MOL0     H34556   2.264   4.024   8.724 -0.9991 -0.7528  0.2670
  256MOL0     H34557   3.148   3.911   8.841  3.0734  2.8207 -0.5195
  256MOL0     H34558   3.424   3.873   8.929  0.1836  2.3218  2.2878
  256MOL0     H34559   3.468   3.985   8.800  0.0779 -0.2737  0.1841
  256MOL0     H34560   3.321   4.008   8.886 -1.5939 -0.4696 -3.2649
  257MOL0     O34561   0.240  10.070   4.820 -0.3840 -0.1809 -0.2326
  257MOL0     C34562   0.276  10.158   4.891 -1.0315 -0.0959  0.2898
  257MOL0     O34563   0.188  10.243   4.957 -0.4004  0.4685  0.1208
  257MOL0     C34564   0.056  10.213   4.961  0.2614 -0.6554  1.3358
  257MOL0     C34565  -0.025  10.207   4.843  0.4299  0.4360 -0.1765
  257MOL0     C34566  -0.158  10.168   4.844  1.0483 -0.4062 -0.4065
  257MOL0     C34567  -0.219  10.142   4.971 -0.2258 -0.4220 -0.1719
  257MOL0     O34568  -0.345  10.094   4.994 -0.1009  0.7102  0.4066
  257MOL0     C34569  -0.447  10.161   5.064 -0.4232  0.0279 -0.3030
  257MOL0     C34570  -0.558  10.057   5.103 -0.0005 -0.5082  0.0419
  257MOL0     C34571  -0.517   9.943   5.203  0.1483  0.0135 -0.2051
  257MOL0     C34572  -0.634   9.845   5.222  0.7467  0.3664  1.2255
  257MOL0     C34573  -0.596   9.712   5.292  0.6151 -0.0236  0.2813
  257MOL0     C34574  -0.714   9.614   5.288  0.3958 -0.3852  0.1576
  257MOL0     C34575  -0.680   9.463   5.315 -0.3355  0.3364 -0.4331
  257MOL0     C34576  -0.780   9.383   5.237  0.1613 -0.2811 -0.1362
  257MOL0     N34577  -0.741   9.236   5.250  0.4069 -0.3773  0.0956
  257MOL0     C34578  -0.758   9.140   5.156 -0.0501  0.6694  0.2419
  257MOL0     C34579  -0.739   9.022   5.220  0.3239 -0.2303 -0.5279
  257MOL0     C34580  -0.753   8.889   5.159  0.0331 -0.7288 -0.6383
  257MOL0     C34581  -0.806   8.787   5.262 -0.2097 -0.5730  0.6542
  257MOL0     C34582  -0.841   8.659   5.202  0.2682  0.1381  0.3019
  257MOL0     C34583  -0.728   8.588   5.132  0.3376  0.2183  0.1053
  257MOL0     O34584  -0.780   8.498   5.026  0.5407  0.5251  0.1794
  257MOL0     C34585  -0.703   8.451   4.923 -0.1879 -0.7973 -0.3474
  257MOL0     C34586  -0.561   8.451   4.933 -0.3039 -0.5350 -0.6458
  257MOL0     C34587  -0.482   8.410   4.825 -0.3544 -0.8346 -0.6669
  257MOL0     C34588  -0.540   8.349   4.718 -0.4482  0.9779 -0.5711
  257MOL0     C34589  -0.456   8.286   4.610 -0.5452  0.3676  0.2788
  257MOL0     O34590  -0.324   8.260   4.647  0.2368  0.6777  0.4959
  257MOL0     C34591  -0.238   8.180   4.570 -0.6362 -0.3400 -0.5250
  257MOL0     C34592  -0.279   8.051   4.516 -0.3832 -0.7677 -0.5564
  257MOL0     C34593  -0.196   7.971   4.444 -0.4003 -0.4071  0.7229
  257MOL0     C34594  -0.065   8.015   4.412  1.0267 -0.0847 -0.2983
  257MOL0     O34595   0.016   7.959   4.317 -0.0346 -0.0207 -0.9418
  257MOL0     C34596   0.041   7.821   4.336 -0.4946 -0.6555 -0.5955
  257MOL0     C34597   0.120   7.751   4.226  1.2892 -0.0086  0.4298
  257MOL0     C34598   0.245   7.831   4.191 -0.5217 -0.3484 -0.1655
  257MOL0     C34599   0.363   7.760   4.133  0.0240  0.0880  0.5042
  257MOL0     C34600   0.502   7.790   4.200 -0.1262 -0.1247 -0.1263
  257MOL0     C34601   0.617   7.737   4.116  0.9639  0.7224  0.5058
  257MOL0     C34602   0.743   7.827   4.129 -1.2200  0.4136  0.3283
  257MOL0     C34603   0.855   7.747   4.053  0.0635 -0.1468  1.0364
  257MOL0    Cl34604   1.006   7.846   4.071 -0.3920 -0.0835  0.1615
  257MOL0     C34605  -0.021   8.137   4.470 -0.0229  0.1164  0.7003
  257MOL0     C34606  -0.100   8.211   4.554  0.4180 -0.2132 -0.0843
  257MOL0     O34607  -0.512   8.244   4.507  0.5383 -0.5646  0.1852
  257MOL0     C34608  -0.677   8.334   4.710 -0.0897 -0.5617 -0.1715
  257MOL0     C34609  -0.758   8.387   4.809 -0.4286  0.0145  0.2134
  257MOL0     N34610  -0.713   9.058   5.358 -0.1680  0.2944  0.4483
  257MOL0     N34611  -0.716   9.185   5.370  0.1977 -0.0494 -0.6534
  257MOL0     C34612  -0.142  10.159   5.085  0.2298  0.3372  0.4329
  257MOL0     C34613  -0.003  10.200   5.074 -0.2790 -0.3754 -0.6420
  257MOL0     C34614   0.412  10.207   4.864 -0.2516  0.1598  0.0015
  257MOL0     C34615   0.437  10.349   4.872  0.1172 -0.9389 -0.2956
  257MOL0     C34616   0.568  10.401   4.858 -0.6300 -0.2637  0.1837
  257MOL0     C34617   0.667  10.320   4.810 -0.1733 -0.4864 -1.5048
  257MOL0     O34618   0.788  10.378   4.786 -0.4077 -0.1868  0.5988
  257MOL0     C34619   0.891  10.300   4.729  0.5505 -0.4598  0.4833
  257MOL0     C34620   1.008  10.377   4.675 -0.2566  0.2563 -0.6134
  257MOL0     C34621   1.112  10.279   4.607  0.1103  0.2976 -0.1959
  257MOL0     C34622   1.159  10.315   4.471 -0.5912  0.8528 -1.3894
  257MOL0     C34623   1.302  10.294   4.457 -0.0508 -0.5151  0.1318
  257MOL0     C34624   1.421  10.300   4.446 -0.5273  0.8345 -0.1994
  257MOL0     C34625   0.648  10.185   4.795 -0.1445 -0.9546 -0.2014
  257MOL0     C34626   0.521  10.131   4.824  0.1258  0.6385  0.3463
  257MOL0     C34627   0.508   9.983   4.787  0.9454  0.1046  0.4323
  257MOL0     H34628   0.026  10.230   4.750  1.5564  2.6907  0.9028
  257MOL0     H34629  -0.229  10.164   4.762 -0.7015 -0.3692  1.0317
  257MOL0     H34630  -0.409  10.218   5.149  0.0825  0.4229 -0.7822
  257MOL0     H34631  -0.495  10.238   5.003  0.6009 -0.7961 -2.2351
  257MOL0     H34632  -0.582  10.003   5.010 -1.3885  0.1325 -0.0017
  257MOL0     H34633  -0.650  10.106   5.138  0.1511  0.7023 -1.1750
  257MOL0     H34634  -0.503   9.990   5.301 -2.8811  0.8154 -0.0650
  257MOL0     H34635  -0.423   9.891   5.180 -1.3397 -1.7556 -2.6530
  257MOL0     H34636  -0.720   9.898   5.263  0.6851  1.1884  0.1038
  257MOL0     H34637  -0.648   9.815   5.117  1.1826 -0.2489  1.3436
  257MOL0     H34638  -0.512   9.670   5.236  0.4367 -1.1357  0.8230
  257MOL0     H34639  -0.569   9.738   5.395  0.2076  3.9575 -0.4558
  257MOL0     H34640  -0.773   9.662   5.367  1.3651  0.0650  0.6298
  257MOL0     H34641  -0.757   9.618   5.188  0.2805 -1.7063  0.1426
  257MOL0     H34642  -0.688   9.436   5.420 -0.1522  1.3507 -0.1416
  257MOL0     H34643  -0.581   9.443   5.273  1.6937  0.0689  3.9670
  257MOL0     H34644  -0.879   9.415   5.269  0.7944  1.3742  0.2910
  257MOL0     H34645  -0.762   9.407   5.132 -0.9397  1.3198  0.0121
  257MOL0     H34646  -0.790   9.160   5.054  0.1452  2.1041  0.4382
  257MOL0     H34647  -0.826   8.889   5.077 -0.7455  2.8940 -0.1106
  257MOL0     H34648  -0.654   8.864   5.121  1.0526  1.4235  0.4312
  257MOL0     H34649  -0.722   8.766   5.329 -1.7213 -1.7212  2.2985
  257MOL0     H34650  -0.884   8.819   5.332 -2.4377  1.2185 -2.4489
  257MOL0     H34651  -0.927   8.669   5.135 -2.0711  0.4054  3.1600
  257MOL0     H34652  -0.882   8.589   5.275 -1.5222  2.8733  2.1233
  257MOL0     H34653  -0.678   8.527   5.208 -1.4839 -0.9239  0.4472
  257MOL0     H34654  -0.662   8.653   5.074  2.4373 -2.2423 -0.4645
  257MOL0     H34655  -0.512   8.486   5.023  0.8195 -1.4761 -0.8682
  257MOL0     H34656  -0.375   8.429   4.823 -0.0495 -2.1724  0.8208
  257MOL0     H34657  -0.378   8.015   4.541  0.0653 -0.8898  1.1647
  257MOL0     H34658  -0.230   7.874   4.410 -0.8207 -0.0849  0.2221
  257MOL0     H34659   0.102   7.809   4.426  2.2425  0.2532 -2.2052
  257MOL0     H34660  -0.056   7.771   4.335 -1.0000  0.2700 -3.0271
  257MOL0     H34661   0.148   7.649   4.256  1.2902  0.4716  2.1642
  257MOL0     H34662   0.062   7.740   4.134  3.7015 -0.2968 -1.1486
  257MOL0     H34663   0.218   7.915   4.128  0.6558 -0.8229 -1.3313
  257MOL0     H34664   0.279   7.869   4.288 -0.7777  0.9225 -0.5618
  257MOL0     H34665   0.370   7.797   4.031 -4.4752  3.5115  1.1275
  257MOL0     H34666   0.339   7.653   4.128  1.2171 -0.2316 -5.5669
  257MOL0     H34667   0.492   7.748   4.300 -1.4629 -0.9037 -0.5636
  257MOL0     H34668   0.512   7.897   4.214 -1.3876 -0.3613  3.3338
  257MOL0     H34669   0.629   7.632   4.143 -0.0679  0.2587 -0.7662
  257MOL0     H34670   0.587   7.736   4.011  3.5533  3.0502 -0.3807
  257MOL0     H34671   0.778   7.839   4.232  0.9073  0.3596 -0.3286
  257MOL0     H34672   0.748   7.924   4.080  2.2662 -1.0617 -2.7408
  257MOL0     H34673   0.874   7.653   4.105  0.8102  0.2778  1.5564
  257MOL0     H34674   0.829   7.750   3.947  0.0220 -0.9115  1.0243
  257MOL0     H34675   0.074   8.176   4.437 -0.8055  0.8464 -0.8103
  257MOL0     H34676  -0.059   8.295   4.609 -0.2568  0.8841 -1.2100
  257MOL0     H34677  -0.719   8.295   4.617  1.2317 -0.2668 -0.9218
  257MOL0     H34678  -0.866   8.376   4.804 -0.4336  0.5475 -1.0391
  257MOL0     H34679  -0.190  10.162   5.182 -0.5411 -0.0824  0.0685
  257MOL0     H34680   0.045  10.214   5.171  0.3876  0.7777 -1.1162
  257MOL0     H34681   0.350  10.407   4.898 -0.1900 -1.5170 -0.0106
  257MOL0     H34682   0.587  10.504   4.885 -0.9755 -0.6606  2.0502
  257MOL0     H34683   0.850  10.255   4.638 -0.7331  1.4678  0.0415
  257MOL0     H34684   0.924  10.228   4.804 -0.9666 -0.4218  1.2121
  257MOL0     H34685   1.062  10.426   4.756  1.6315 -0.7826 -1.1817
  257MOL0     H34686   0.969  10.453   4.607 -1.3683  1.3182  1.1328
  257MOL0     H34687   1.064  10.184   4.582 -0.9340  0.7911 -0.1447
  257MOL0     H34688   1.194  10.267   4.678 -2.4878 -0.0424  3.0240
  257MOL0     H34689   1.113  10.251   4.395 -1.7121 -1.8730  1.3685
  257MOL0     H34690   1.138  10.419   4.445 -0.4047  0.6907 -2.2112
  257MOL0     H34691   1.525  10.322   4.436 -0.8915  2.3992 -0.8348
  257MOL0     H34692   0.722  10.117   4.756  1.1729  0.9393 -1.1444
  257MOL0     H34693   0.451   9.974   4.694 -0.2642  0.5316  1.1099
  257MOL0     H34694   0.607   9.938   4.778  2.1468  2.5390  0.7710
  257MOL0     H34695   0.448   9.933   4.864  0.0400 -0.7452 -0.7750
  258MOL0     O34696   4.917   8.154   6.636 -0.5632  0.1445 -0.4728
  258MOL0     C34697   4.819   8.215   6.632  0.0630  0.6437 -0.4349
  258MOL0     O34698   4.814   8.354   6.637  0.2276  0.5035  0.2824
  258MOL0     C34699   4.929   8.438   6.654 -0.1496 -0.7990 -1.2349
  258MOL0     C34700   4.925   8.564   6.585  0.4477  1.3522 -0.0815
  258MOL0     C34701   5.042   8.638   6.579  0.0076 -0.2620 -0.4503
  258MOL0     C34702   5.152   8.596   6.655 -0.8534  0.0782  0.0314
  258MOL0     O34703   5.279   8.656   6.650  0.3898 -1.0820  0.7171
  258MOL0     C34704   5.331   8.649   6.515  0.0330  0.4474  0.2104
  258MOL0     C34705   5.440   8.746   6.500 -0.8744 -0.6153  0.5647
  258MOL0     C34706   5.569   8.681   6.565  0.2103 -0.2953 -0.5248
  258MOL0     C34707   5.681   8.787   6.578  0.1903 -0.3596  0.0132
  258MOL0     C34708   5.743   8.837   6.440 -0.9437  0.3865  0.6568
  258MOL0     C34709   5.855   8.939   6.453 -0.5376 -1.2181  0.4042
  258MOL0     C34710   5.947   8.939   6.327 -0.7340  0.4692  0.0362
  258MOL0     C34711   6.071   9.025   6.345 -0.7340 -0.4928  0.1902
  258MOL0     N34712   6.168   8.975   6.440 -1.4097  0.0692  0.1715
  258MOL0     C34713   6.162   8.986   6.577  0.0984 -0.8781 -0.2668
  258MOL0     C34714   6.282   8.936   6.624 -0.2768 -0.1745 -0.1520
  258MOL0     C34715   6.331   8.924   6.773  0.4885  0.2960  0.3573
  258MOL0     C34716   6.439   9.035   6.799  0.5870  0.0145  0.1675
  258MOL0     C34717   6.507   9.016   6.939 -0.2558  0.6149 -0.3324
  258MOL0     C34718   6.650   9.070   6.947  0.9368 -0.7120  0.0994
  258MOL0     O34719   6.654   9.204   6.906  0.6456  0.0229 -0.1273
  258MOL0     C34720   6.774   9.256   6.860  0.0486 -0.3613  0.6598
  258MOL0     C34721   6.897   9.190   6.884 -0.2199  0.1737  0.3539
  258MOL0     C34722   7.020   9.238   6.843  0.6900 -0.3658 -0.8571
  258MOL0     C34723   7.028   9.358   6.760  0.2441 -0.2316 -0.5306
  258MOL0     C34724   7.155   9.429   6.723 -0.1749  0.4984 -0.4794
  258MOL0     O34725   7.264   9.341   6.734  0.4835  0.1407  0.7828
  258MOL0     C34726   7.391   9.377   6.729 -0.6391  0.1334 -0.1632
  258MOL0     C34727   7.484   9.286   6.766 -0.4475  0.7363 -0.3374
  258MOL0     C34728   7.624   9.305   6.760 -0.0746 -0.1478 -0.1567
  258MOL0     C34729   7.671   9.439   6.738 -0.0376 -0.2559 -0.5533
  258MOL0     O34730   7.806   9.477   6.731  0.0251  0.8330 -0.4227
  258MOL0     C34731   7.900   9.378   6.751 -0.2292 -0.0038  0.0731
  258MOL0     C34732   8.041   9.424   6.713  0.1848  0.7913  0.2504
  258MOL0     C34733   8.097   9.552   6.783  0.5188  0.3651  0.1775
  258MOL0     C34734   8.245   9.564   6.745  0.0053 -0.1238 -0.2964
  258MOL0     C34735   8.325   9.652   6.835  0.0769 -0.2082  0.3934
  258MOL0     C34736   8.472   9.656   6.790 -0.7625  0.3998 -0.0052
  258MOL0     C34737   8.559   9.751   6.871 -0.1572  0.8357 -0.0587
  258MOL0     C34738   8.647   9.672   6.966  0.6913  0.6751 -0.0817
  258MOL0    Cl34739   8.770   9.785   7.033 -0.1139  0.0743 -0.1182
  258MOL0     C34740   7.575   9.536   6.719  0.0203  0.9422  0.6372
  258MOL0     C34741   7.439   9.507   6.707  0.2734  0.1159  0.1802
  258MOL0     O34742   7.156   9.550   6.694  0.3367  0.1613 -0.3771
  258MOL0     C34743   6.903   9.426   6.748 -0.5389  0.7829  0.4503
  258MOL0     C34744   6.783   9.382   6.798 -0.1488  0.2579 -0.5612
  258MOL0     N34745   6.348   8.881   6.518 -0.5773 -0.2486  0.3245
  258MOL0     N34746   6.277   8.904   6.408 -0.3039  0.5424  0.5673
  258MOL0     C34747   5.142   8.486   6.742  0.2142 -0.4251  0.2509
  258MOL0     C34748   5.038   8.403   6.735  0.7747 -1.2192  0.2421
  258MOL0     C34749   4.692   8.136   6.637  0.1854  0.0795  0.3273
  258MOL0     C34750   4.581   8.194   6.571 -0.7360  0.2453 -0.5919
  258MOL0     C34751   4.459   8.132   6.559 -0.9741  0.3479 -0.3310
  258MOL0     C34752   4.449   7.995   6.594 -0.6578 -0.0770 -0.2310
  258MOL0     O34753   4.332   7.928   6.575 -0.2914 -0.2225  0.2134
  258MOL0     C34754   4.275   7.922   6.444 -0.1529 -0.7947  0.7925
  258MOL0     C34755   4.131   7.866   6.444  0.6107 -0.7547  0.2796
  258MOL0     C34756   4.120   7.719   6.475  0.1768  0.6737 -0.6766
  258MOL0     C34757   4.103   7.680   6.626 -0.3376 -0.8354 -0.0950
  258MOL0     C34758   3.961   7.685   6.661 -0.0012  0.2330 -0.0860
  258MOL0     C34759   3.846   7.692   6.690  0.2593  0.5293  0.8607
  258MOL0     C34760   4.551   7.937   6.662  0.0279 -0.0973 -0.8190
  258MOL0     C34761   4.669   8.004   6.696 -0.5289  0.3885 -0.3896
  258MOL0     C34762   4.781   7.930   6.754  0.9782 -0.2891 -0.0119
  258MOL0     H34763   4.838   8.589   6.525 -0.7953 -0.2844  0.9407
  258MOL0     H34764   5.039   8.736   6.532  0.6482  0.7740  1.5617
  258MOL0     H34765   5.360   8.544   6.501 -3.9096 -1.1949  2.6722
  258MOL0     H34766   5.258   8.686   6.442 -1.2688  1.2605  1.8705
  258MOL0     H34767   5.414   8.838   6.554  0.0270 -0.6732  1.1266
  258MOL0     H34768   5.461   8.756   6.394  2.6962  1.1472  1.2736
  258MOL0     H34769   5.611   8.601   6.503  0.5146 -0.0594 -0.6283
  258MOL0     H34770   5.551   8.647   6.667 -0.2365  0.0485 -0.4860
  258MOL0     H34771   5.640   8.879   6.620  0.9334  0.1256 -0.2989
  258MOL0     H34772   5.761   8.754   6.645  0.6635  0.4687 -0.1323
  258MOL0     H34773   5.782   8.743   6.399  0.1494  0.6169  1.1578
  258MOL0     H34774   5.660   8.873   6.378 -1.1926 -0.3040  0.5760
  258MOL0     H34775   5.812   9.040   6.459 -0.4877 -1.1266 -0.6329
  258MOL0     H34776   5.910   8.931   6.547  0.8809 -1.0049 -0.3802
  258MOL0     H34777   5.888   8.981   6.245 -0.7847  0.7134  0.1974
  258MOL0     H34778   5.977   8.841   6.290  1.2915  0.6845  0.9789
  258MOL0     H34779   6.118   9.040   6.247  1.4882 -0.6057  1.1665
  258MOL0     H34780   6.042   9.125   6.380 -0.9004  0.1851 -1.7528
  258MOL0     H34781   6.087   9.034   6.639  0.9403  0.4386 -0.2267
  258MOL0     H34782   6.254   8.950   6.846  0.1647 -0.6722  0.3662
  258MOL0     H34783   6.371   8.823   6.785  1.5880  0.0743 -3.7071
  258MOL0     H34784   6.511   9.035   6.717  0.5887  1.4477  0.1457
  258MOL0     H34785   6.388   9.132   6.798  0.7084  0.0814  0.3791
  258MOL0     H34786   6.512   8.910   6.967 -1.4184  0.8226  0.7361
  258MOL0     H34787   6.449   9.064   7.018  2.3468 -1.1848  2.9104
  258MOL0     H34788   6.713   9.008   6.883 -0.3475  1.3609 -3.4685
  258MOL0     H34789   6.681   9.066   7.052 -1.7313  0.3614  1.0187
  258MOL0     H34790   6.904   9.109   6.956 -0.7858  0.0946  0.3204
  258MOL0     H34791   7.110   9.194   6.884  2.2536  3.4183  0.1992
  258MOL0     H34792   7.459   9.185   6.798 -3.4178  1.4763 -0.0697
  258MOL0     H34793   7.681   9.216   6.781 -0.7935 -0.3047  1.2154
  258MOL0     H34794   7.889   9.352   6.857 -0.2760 -1.8238 -0.3528
  258MOL0     H34795   7.884   9.285   6.695  1.3853 -0.1550 -0.1712
  258MOL0     H34796   8.100   9.343   6.758 -3.6807 -1.7421  1.2734
  258MOL0     H34797   8.061   9.435   6.606  0.6287  1.3018  0.3850
  258MOL0     H34798   8.040   9.644   6.766 -0.8539 -0.6889 -1.1719
  258MOL0     H34799   8.092   9.530   6.890  2.1692 -0.2216  0.1516
  258MOL0     H34800   8.244   9.603   6.643  2.2201 -1.1988 -0.8033
  258MOL0     H34801   8.292   9.465   6.756 -0.3409 -0.4515 -1.6258
  258MOL0     H34802   8.329   9.595   6.929  2.8627 -0.8951 -0.0505
  258MOL0     H34803   8.278   9.748   6.855 -0.5889 -0.8301  1.9792
  258MOL0     H34804   8.512   9.554   6.791  0.4115  0.8024 -1.7422
  258MOL0     H34805   8.476   9.687   6.686 -0.7348 -1.6871 -0.6668
  258MOL0     H34806   8.493   9.823   6.921 -0.6070  0.3563  0.0478
  258MOL0     H34807   8.628   9.807   6.808 -2.0547  0.8183 -2.3057
  258MOL0     H34808   8.580   9.641   7.046  0.1010  0.6980 -0.5675
  258MOL0     H34809   8.694   9.579   6.932 -1.8048 -1.6830  2.4675
  258MOL0     H34810   7.621   9.633   6.702  3.0965 -0.4114  0.7215
  258MOL0     H34811   7.377   9.593   6.684  0.0998 -0.3073 -0.9515
  258MOL0     H34812   6.910   9.526   6.707  0.3787  1.1764  1.5361
  258MOL0     H34813   6.685   9.425   6.782 -0.4605 -1.1723 -3.1773
  258MOL0     H34814   5.224   8.451   6.804 -0.5941 -1.3525  0.8235
  258MOL0     H34815   5.040   8.309   6.789  1.9496 -0.6255  1.2959
  258MOL0     H34816   4.594   8.293   6.530 -0.2772  0.6710  0.5620
  258MOL0     H34817   4.382   8.195   6.517 -0.5554  2.0112  1.3011
  258MOL0     H34818   4.340   7.863   6.378 -0.9666  0.6079 -1.3726
  258MOL0     H34819   4.281   8.016   6.388  3.2850 -3.2812 -3.6630
  258MOL0     H34820   4.107   7.878   6.338  1.2270  1.2632  0.3267
  258MOL0     H34821   4.069   7.926   6.511  0.0871 -0.5754 -0.3568
  258MOL0     H34822   4.218   7.679   6.450  0.0632  0.3141 -0.5503
  258MOL0     H34823   4.049   7.673   6.405 -1.9163  0.9705  1.1322
  258MOL0     H34824   4.145   7.580   6.638  1.4683 -0.0482  0.4922
  258MOL0     H34825   4.155   7.747   6.694 -3.5908 -1.0432  2.8960
  258MOL0     H34826   3.742   7.682   6.715  0.7282 -2.3842  2.0631
  258MOL0     H34827   4.540   7.835   6.697 -0.6430  0.2218 -0.0744
  258MOL0     H34828   4.845   7.895   6.672  0.5125 -2.7760  0.6060
  258MOL0     H34829   4.832   7.991   6.830  2.8755 -0.3393 -1.1752
  258MOL0     H34830   4.749   7.834   6.796  0.3199  0.5156  1.4079
  259MOL0     O34831  11.062   3.155   3.395  0.0164 -0.2664 -0.1395
  259MOL0     C34832  11.077   3.130   3.273  1.1074  0.2659 -0.2424
  259MOL0     O34833  10.980   3.153   3.180 -0.3302 -0.1756  0.4109
  259MOL0     C34834  10.849   3.149   3.234 -0.0419  0.4293 -0.1821
  259MOL0     C34835  10.782   3.028   3.227  0.3585  0.3131 -0.1238
  259MOL0     C34836  10.647   3.011   3.276 -0.4096  0.1214 -0.6404
  259MOL0     C34837  10.582   3.121   3.335  0.3758 -0.2761  0.3173
  259MOL0     O34838  10.455   3.112   3.384  0.2984  0.2058 -0.0423
  259MOL0     C34839  10.430   3.179   3.511  0.0976 -0.2222 -0.7784
  259MOL0     C34840  10.329   3.098   3.603  0.2574  0.0797 -0.3819
  259MOL0     C34841  10.210   3.032   3.523  0.2834 -0.3452  0.0746
  259MOL0     C34842  10.120   2.971   3.615  0.3772 -0.2236 -1.0368
  259MOL0     C34843  10.003   2.898   3.550  0.5571  0.3344 -0.5790
  259MOL0     C34844   9.917   2.983   3.457 -0.0195  0.2419 -0.1726
  259MOL0     C34845   9.811   2.901   3.382  0.0524  0.2827  0.5633
  259MOL0     C34846   9.708   2.826   3.465  1.2840 -0.1919  0.2536
  259MOL0     N34847   9.621   2.756   3.370 -0.4462  0.2842 -0.7179
  259MOL0     C34848   9.531   2.806   3.282  0.2944 -0.2801 -0.0851
  259MOL0     C34849   9.460   2.705   3.226  0.3428  0.0954  0.6816
  259MOL0     C34850   9.350   2.707   3.122 -0.2273 -0.3124  0.1513
  259MOL0     C34851   9.387   2.685   2.977  0.8821 -0.1864  0.4837
  259MOL0     C34852   9.467   2.792   2.903  0.1666  0.3925  0.0849
  259MOL0     C34853   9.618   2.776   2.894 -0.2911 -0.5553 -0.0061
  259MOL0     O34854   9.648   2.646   2.830 -0.6999 -0.4535 -0.4628
  259MOL0     C34855   9.774   2.641   2.778  0.2850  0.2193 -0.0827
  259MOL0     C34856   9.876   2.737   2.803  0.5061 -0.3376 -0.5727
  259MOL0     C34857  10.001   2.743   2.745 -0.0617  0.5115 -0.0318
  259MOL0     C34858  10.042   2.642   2.652 -0.0622  0.2919 -0.4352
  259MOL0     C34859  10.181   2.623   2.595 -0.3273 -0.1276 -0.5115
  259MOL0     O34860  10.197   2.535   2.487 -0.2800  0.1814 -0.0437
  259MOL0     C34861  10.315   2.518   2.412  0.1799 -0.0017 -0.1451
  259MOL0     C34862  10.321   2.398   2.340 -0.0995  0.5165  0.1959
  259MOL0     C34863  10.438   2.370   2.263 -0.1645  0.1589 -0.2726
  259MOL0     C34864  10.546   2.456   2.266 -0.3838  0.7376  0.1742
  259MOL0     O34865  10.656   2.420   2.186 -0.3573  0.3428  0.1014
  259MOL0     C34866  10.764   2.514   2.177  0.3662 -0.7777 -0.0212
  259MOL0     C34867  10.878   2.446   2.093 -0.2835  0.0156  0.0605
  259MOL0     C34868  10.953   2.322   2.161  0.4706 -0.9046  0.7911
  259MOL0     C34869  11.050   2.277   2.054 -0.2330  0.9766 -0.2504
  259MOL0     C34870  11.147   2.176   2.126  0.7038  0.6140 -0.5284
  259MOL0     C34871  11.252   2.121   2.029 -0.1995  0.9149 -0.4068
  259MOL0     C34872  11.361   2.048   2.108  0.3678  0.6351  0.3295
  259MOL0     C34873  11.314   1.906   2.154 -0.2372 -0.3209 -0.1520
  259MOL0    Cl34874  11.328   1.797   2.015 -0.0753 -0.2190  0.1697
  259MOL0     C34875  10.538   2.577   2.341  0.4317  0.1957  0.8415
  259MOL0     C34876  10.423   2.610   2.413  0.0821  0.2967  0.4871
  259MOL0     O34877  10.273   2.681   2.657  0.2706 -0.4715  0.4811
  259MOL0     C34878   9.947   2.534   2.638 -0.5332 -0.2577  0.1808
  259MOL0     C34879   9.816   2.535   2.691  0.1277 -0.4322 -0.5861
  259MOL0     N34880   9.502   2.585   3.283 -0.2840 -0.1480  0.1888
  259MOL0     N34881   9.601   2.618   3.365  0.7826 -0.4420 -0.3465
  259MOL0     C34882  10.647   3.248   3.339  0.0391 -0.1133 -0.6014
  259MOL0     C34883  10.780   3.257   3.280  0.8653 -0.0488 -0.2626
  259MOL0     C34884  11.213   3.083   3.235  0.3331 -0.4305 -0.4955
  259MOL0     C34885  11.271   2.994   3.318  0.0465 -0.0461 -0.8813
  259MOL0     C34886  11.404   2.939   3.288  0.3288 -0.0440 -0.5663
  259MOL0     C34887  11.471   2.984   3.178 -0.3489  0.4994 -0.4715
  259MOL0     O34888  11.600   2.936   3.158 -0.1962  0.4941  0.5893
  259MOL0     C34889  11.701   3.042   3.143  0.1498  0.6398  0.4998
  259MOL0     C34890  11.843   2.986   3.113  0.5403  0.3588  0.1207
  259MOL0     C34891  11.896   2.881   3.211  0.7429  0.5157  0.1366
  259MOL0     C34892  11.904   2.933   3.350 -0.0667  0.7252 -0.7000
  259MOL0     C34893  11.968   2.842   3.439 -0.1797  0.0702 -0.0899
  259MOL0     C34894  12.028   2.770   3.515  0.6801  0.5639  0.7926
  259MOL0     C34895  11.410   3.087   3.103 -0.4512  0.0925 -0.0478
  259MOL0     C34896  11.287   3.135   3.126  0.5017  1.1355  0.0977
  259MOL0     C34897  11.235   3.245   3.035 -0.2213  0.0082  0.0873
  259MOL0     H34898  10.838   2.941   3.194 -0.3300  0.5447 -2.0058
  259MOL0     H34899  10.579   2.928   3.268 -4.3614  3.0368 -0.2958
  259MOL0     H34900  10.522   3.205   3.564 -1.0818 -1.1163  1.8852
  259MOL0     H34901  10.373   3.272   3.498  0.9327  0.9298  2.7290
  259MOL0     H34902  10.298   3.159   3.689  0.9046  0.1116 -0.1653
  259MOL0     H34903  10.389   3.015   3.640  1.8510  0.9603 -0.8817
  259MOL0     H34904  10.245   2.949   3.461  0.3779  0.4927 -1.0195
  259MOL0     H34905  10.157   3.107   3.466  0.9965  1.9686  2.2578
  259MOL0     H34906  10.180   2.903   3.677  0.5819  0.8491 -0.0166
  259MOL0     H34907  10.084   3.046   3.686  1.5247  1.9514 -2.6536
  259MOL0     H34908  10.054   2.820   3.492  1.9828  0.9369 -0.1978
  259MOL0     H34909   9.946   2.847   3.628  2.5256  1.1016  1.4996
  259MOL0     H34910   9.860   3.055   3.516 -2.3729  0.5221 -2.6061
  259MOL0     H34911   9.969   3.046   3.384 -3.4522  1.3607 -1.8728
  259MOL0     H34912   9.872   2.827   3.330  2.1138  2.4710 -0.2703
  259MOL0     H34913   9.756   2.964   3.311 -1.5865 -1.6541  0.0034
  259MOL0     H34914   9.763   2.754   3.526 -0.0078 -0.4334  1.1803
  259MOL0     H34915   9.645   2.885   3.532  2.4068 -0.0062  1.1720
  259MOL0     H34916   9.539   2.912   3.257  2.4644 -0.0157  1.3495
  259MOL0     H34917   9.275   2.634   3.152 -0.1954 -0.5445 -0.3165
  259MOL0     H34918   9.303   2.806   3.118  1.3761  0.5132  0.7914
  259MOL0     H34919   9.446   2.593   2.977 -1.1643 -1.5884  0.0813
  259MOL0     H34920   9.298   2.658   2.919  2.7825 -1.9058 -1.8547
  259MOL0     H34921   9.451   2.882   2.963  2.3240  0.9157 -0.0415
  259MOL0     H34922   9.429   2.812   2.802 -1.6605  0.5948  0.7716
  259MOL0     H34923   9.670   2.773   2.991 -0.0432  0.3446 -0.1063
  259MOL0     H34924   9.662   2.866   2.851  0.6898  0.2905  2.5386
  259MOL0     H34925   9.868   2.822   2.870  0.3840 -0.3069 -0.6267
  259MOL0     H34926  10.084   2.809   2.770  2.1338 -1.5667 -1.4364
  259MOL0     H34927  10.234   2.333   2.342 -0.5191  1.0979  0.8028
  259MOL0     H34928  10.439   2.280   2.203 -1.1494  1.2802 -2.0707
  259MOL0     H34929  10.737   2.610   2.133  0.6377 -0.2876  0.8692
  259MOL0     H34930  10.796   2.530   2.280 -1.3622 -1.0265  0.5938
  259MOL0     H34931  10.831   2.406   2.002  0.1948 -0.9815  0.2410
  259MOL0     H34932  10.950   2.523   2.064 -1.2156  0.7034 -0.5016
  259MOL0     H34933  11.007   2.354   2.250  1.6648  1.1421 -0.5676
  259MOL0     H34934  10.881   2.247   2.194  1.2235 -1.7866  0.4724
  259MOL0     H34935  11.102   2.367   2.021  0.2639 -0.1059 -2.6363
  259MOL0     H34936  11.013   2.228   1.964  1.2259 -0.6543 -0.0158
  259MOL0     H34937  11.090   2.088   2.158  0.4873  1.6407  2.1627
  259MOL0     H34938  11.198   2.227   2.208  1.0669  2.5233 -1.8920
  259MOL0     H34939  11.207   2.051   1.958 -1.6247  1.3513  0.0253
  259MOL0     H34940  11.301   2.200   1.970  0.4247 -0.2328 -1.4620
  259MOL0     H34941  11.390   2.117   2.188 -1.8685  2.8372 -0.5822
  259MOL0     H34942  11.441   2.051   2.034 -2.2074 -1.5047 -2.8203
  259MOL0     H34943  11.381   1.854   2.223  0.4991  1.3260  0.4252
  259MOL0     H34944  11.214   1.906   2.197  0.8927 -2.5173  2.8451
  259MOL0     H34945  10.617   2.652   2.337 -1.3781  2.1799 -2.4258
  259MOL0     H34946  10.436   2.703   2.467 -1.3229  0.2571  0.9406
  259MOL0     H34947   9.957   2.460   2.558  0.3259  2.8744 -2.8498
  259MOL0     H34948   9.752   2.452   2.664  0.3943 -0.4356 -1.2333
  259MOL0     H34949  10.589   3.335   3.368  0.8978  1.4957 -3.4071
  259MOL0     H34950  10.835   3.351   3.278 -0.2700  0.7166  1.7270
  259MOL0     H34951  11.216   2.956   3.403 -1.4893  0.9403 -1.4021
  259MOL0     H34952  11.447   2.865   3.354  0.7531  0.6432 -0.0636
  259MOL0     H34953  11.706   3.107   3.231 -0.6657 -1.7885  2.4747
  259MOL0     H34954  11.668   3.102   3.057 -0.7865  0.4146  0.6919
  259MOL0     H34955  11.915   3.066   3.095 -0.9019  1.3556 -1.5034
  259MOL0     H34956  11.844   2.935   3.016  1.8391  1.6628 -0.5831
  259MOL0     H34957  11.998   2.855   3.183  0.9247  2.0080 -0.7056
  259MOL0     H34958  11.829   2.795   3.221 -2.7015  2.9829  0.0799
  259MOL0     H34959  11.946   3.033   3.362  1.6308 -0.0661  0.3030
  259MOL0     H34960  11.798   2.947   3.377 -0.4835  0.4592 -2.1058
  259MOL0     H34961  12.066   2.710   3.595 -4.7389 -2.9023  1.2527
  259MOL0     H34962  11.464   3.131   3.019  2.7626 -2.3585  0.5167
  259MOL0     H34963  11.211   3.330   3.099 -2.3001  0.4129 -1.1348
  259MOL0     H34964  11.312   3.277   2.964 -1.5697 -0.9178 -1.8891
  259MOL0     H34965  11.141   3.226   2.982  1.4975 -2.4676 -2.3300
  260MOL0     O34966   8.587   6.518   5.857  0.1548  0.4084  0.0814
  260MOL0     C34967   8.550   6.495   5.740  0.6817 -0.1213 -0.7927
  260MOL0     O34968   8.599   6.562   5.637  0.0781  0.0079  0.8695
  260MOL0     C34969   8.668   6.674   5.670 -0.4981  0.0037  0.4418
  260MOL0     C34970   8.815   6.679   5.683 -0.1584  0.7857 -0.1151
  260MOL0     C34971   8.885   6.794   5.717 -0.6057 -0.3053  0.1332
  260MOL0     C34972   8.821   6.915   5.716  0.5061  0.0083  0.2980
  260MOL0     O34973   8.898   7.020   5.760 -0.3268  0.3853 -0.2218
  260MOL0     C34974   8.836   7.123   5.836 -0.5198  1.0864 -0.9525
  260MOL0     C34975   8.930   7.243   5.871 -0.2465  0.5879 -0.4121
  260MOL0     C34976   9.057   7.204   5.952  0.7781  0.0783 -0.1604
  260MOL0     C34977   9.136   7.331   5.994  0.1849 -0.1927 -0.4638
  260MOL0     C34978   9.258   7.275   6.079 -0.5718  1.8731  0.0121
  260MOL0     C34979   9.347   7.389   6.114 -1.7506 -0.7125 -0.1153
  260MOL0     C34980   9.472   7.349   6.202  0.1177  0.2088  0.8577
  260MOL0     C34981   9.423   7.332   6.349  0.9933 -0.4835 -0.7705
  260MOL0     N34982   9.541   7.358   6.434  0.0413 -0.0495 -0.8433
  260MOL0     C34983   9.602   7.261   6.512 -0.6604  0.0061  0.3918
  260MOL0     C34984   9.694   7.327   6.586 -0.8013  0.2487 -0.6811
  260MOL0     C34985   9.783   7.268   6.691 -0.4184 -0.4685 -0.2623
  260MOL0     C34986   9.827   7.363   6.807 -0.1678  0.6043 -0.3262
  260MOL0     C34987   9.925   7.278   6.902  0.4520 -0.0845  0.1005
  260MOL0     C34988  10.070   7.287   6.845  0.1028 -0.0825 -0.1716
  260MOL0     O34989  10.143   7.200   6.932 -0.0949 -0.6278 -0.0003
  260MOL0     C34990  10.259   7.247   6.990  0.1427 -0.6492 -0.3096
  260MOL0     C34991  10.346   7.339   6.933  0.7916  0.7462  0.3616
  260MOL0     C34992  10.468   7.369   6.992 -0.1270  0.1667  0.1327
  260MOL0     C34993  10.504   7.317   7.117  0.4293  0.0526  0.3080
  260MOL0     C34994  10.626   7.358   7.188  0.3039 -0.3625  0.2167
  260MOL0     O34995  10.723   7.411   7.108  0.2629  0.4471  0.5730
  260MOL0     C34996  10.845   7.461   7.146 -0.1834 -0.6459  0.5017
  260MOL0     C34997  10.920   7.520   7.048  1.0769  0.4134 -0.1349
  260MOL0     C34998  11.052   7.555   7.062 -0.0040  0.0683  0.0580
  260MOL0     C34999  11.123   7.533   7.174  0.0650 -0.9052 -0.2295
  260MOL0     O35000  11.256   7.562   7.163 -0.1173 -0.4923  0.4443
  260MOL0     C35001  11.341   7.517   7.269  0.2663  0.4603 -1.2988
  260MOL0     C35002  11.469   7.467   7.204 -0.8225 -0.0416 -0.4770
  260MOL0     C35003  11.578   7.429   7.317 -0.8790  0.0112  0.6802
  260MOL0     C35004  11.727   7.434   7.267  0.0249 -0.2156 -0.2749
  260MOL0     C35005  11.807   7.341   7.356  0.6615  0.5180 -0.6434
  260MOL0     C35006  11.938   7.291   7.289 -0.7625 -0.0725 -1.1506
  260MOL0     C35007  11.998   7.161   7.343 -0.3205 -0.1673 -0.1259
  260MOL0     C35008  12.148   7.145   7.299 -0.3625 -0.5763  0.1231
  260MOL0    Cl35009  12.216   7.003   7.372  0.1712 -0.1704 -0.2371
  260MOL0     C35010  11.045   7.487   7.278 -0.9340  0.2868 -0.4569
  260MOL0     C35011  10.906   7.453   7.267 -0.0529  0.4036  0.0444
  260MOL0     O35012  10.628   7.345   7.311 -0.2808 -0.6720  0.1837
  260MOL0     C35013  10.423   7.220   7.172 -0.2327 -0.1035 -0.3189
  260MOL0     C35014  10.304   7.183   7.108  0.2646  0.0259 -1.2084
  260MOL0     N35015   9.705   7.467   6.548  0.0966 -0.3316  0.5118
  260MOL0     N35016   9.614   7.477   6.459  0.2431  0.5714  0.2218
  260MOL0     C35017   8.682   6.913   5.686  0.2947 -0.3847 -0.8284
  260MOL0     C35018   8.610   6.799   5.661  0.0375  0.3336 -0.5270
  260MOL0     C35019   8.452   6.384   5.719  0.5543 -0.7898  0.1260
  260MOL0     C35020   8.349   6.386   5.810 -0.8426  0.1445  0.4290
  260MOL0     C35021   8.254   6.294   5.802  0.1215  0.0417  0.4160
  260MOL0     C35022   8.254   6.189   5.698  0.4639 -1.1416  0.2815
  260MOL0     O35023   8.134   6.107   5.701 -0.3195  0.2912 -0.2119
  260MOL0     C35024   8.131   6.001   5.602  0.4630 -0.4109 -0.2882
  260MOL0     C35025   8.075   6.053   5.465 -0.0824 -0.5191 -0.5933
  260MOL0     C35026   7.974   5.972   5.384  0.9099 -0.1695 -0.6278
  260MOL0     C35027   7.837   5.934   5.458 -0.8020  1.4176 -0.0948
  260MOL0     C35028   7.726   5.881   5.359 -0.7391  0.1833 -0.3849
  260MOL0     C35029   7.650   5.852   5.269  0.4641 -0.0732  0.0763
  260MOL0     C35030   8.355   6.191   5.599 -0.0500  0.4022 -0.1245
  260MOL0     C35031   8.456   6.292   5.610 -0.2247 -0.3606 -0.4601
  260MOL0     C35032   8.565   6.286   5.503 -0.3931 -0.1288  0.0474
  260MOL0     H35033   8.870   6.586   5.673  1.2863  1.6308 -0.4832
  260MOL0     H35034   8.992   6.801   5.727 -0.7856  1.4353  1.2658
  260MOL0     H35035   8.760   7.168   5.771  0.5825  1.4571 -2.0162
  260MOL0     H35036   8.794   7.088   5.931 -1.2682  2.4888 -0.7391
  260MOL0     H35037   8.876   7.319   5.927 -1.3549 -0.7918  0.4827
  260MOL0     H35038   8.958   7.299   5.782 -0.4932 -1.9338 -2.2064
  260MOL0     H35039   9.110   7.129   5.894  1.4873 -0.1805  0.7906
  260MOL0     H35040   9.038   7.146   6.043 -3.7736 -1.5168 -1.8558
  260MOL0     H35041   9.165   7.395   5.910 -0.0132  1.3924  0.6387
  260MOL0     H35042   9.073   7.391   6.061 -0.4618  0.0398 -1.2637
  260MOL0     H35043   9.220   7.220   6.166 -0.0697 -1.6296 -1.8326
  260MOL0     H35044   9.318   7.203   6.023 -2.5813 -0.2968  0.4884
  260MOL0     H35045   9.394   7.436   6.027 -1.0849  1.7012  1.4217
  260MOL0     H35046   9.286   7.468   6.158 -3.4920 -1.5446 -0.9594
  260MOL0     H35047   9.544   7.431   6.203 -1.8700  2.0499  1.1550
  260MOL0     H35048   9.524   7.262   6.160 -2.1522 -0.4720 -0.7619
  260MOL0     H35049   9.336   7.396   6.365  1.2650 -0.8191  2.9658
  260MOL0     H35050   9.390   7.228   6.353 -1.3733  0.2247 -0.6394
  260MOL0     H35051   9.580   7.157   6.530 -2.1177  0.4804  1.4480
  260MOL0     H35052   9.718   7.191   6.734 -0.6755 -2.0067 -3.1600
  260MOL0     H35053   9.875   7.225   6.649  0.3874  1.2264 -0.3195
  260MOL0     H35054   9.867   7.459   6.774 -0.7199  1.7336  2.0612
  260MOL0     H35055   9.741   7.376   6.873 -2.2578 -2.1487 -2.2714
  260MOL0     H35056   9.892   7.174   6.909 -2.4352  0.6340 -1.2238
  260MOL0     H35057   9.913   7.322   7.001 -0.9125  0.2745 -0.2138
  260MOL0     H35058  10.102   7.392   6.844 -2.6122  0.8675  1.5518
  260MOL0     H35059  10.073   7.259   6.739  2.5479 -2.1780  0.3269
  260MOL0     H35060  10.310   7.378   6.838  0.2217  2.1955  1.1469
  260MOL0     H35061  10.524   7.459   6.967  1.7623 -0.5953  1.3832
  260MOL0     H35062  10.874   7.525   6.950  1.1157 -0.8136 -0.2384
  260MOL0     H35063  11.103   7.588   6.973  2.0374 -3.0011 -0.0500
  260MOL0     H35064  11.357   7.590   7.350  0.7332 -2.1734  1.1482
  260MOL0     H35065  11.293   7.433   7.319  1.4275  0.3083 -0.3723
  260MOL0     H35066  11.450   7.381   7.139  0.7193 -1.1373  0.4260
  260MOL0     H35067  11.506   7.549   7.142 -1.6407  0.5414 -0.2029
  260MOL0     H35068  11.563   7.495   7.403  2.1420 -0.2412  1.4838
  260MOL0     H35069  11.556   7.328   7.352 -2.4429 -0.0244 -0.2749
  260MOL0     H35070  11.771   7.534   7.276 -2.7022  1.3925 -2.8603
  260MOL0     H35071  11.731   7.408   7.161 -2.4888  2.3637 -1.1349
  260MOL0     H35072  11.745   7.253   7.379  1.3286  0.6117  1.7445
  260MOL0     H35073  11.824   7.385   7.455  1.0332  0.5300 -0.7116
  260MOL0     H35074  11.916   7.273   7.183 -0.3107  0.7829 -1.3988
  260MOL0     H35075  12.014   7.369   7.302 -0.0391 -1.0580  0.8977
  260MOL0     H35076  11.946   7.072   7.306  2.5703 -2.8488  1.7025
  260MOL0     H35077  11.996   7.161   7.452  5.0576 -3.8990  0.3689
  260MOL0     H35078  12.158   7.133   7.191 -1.4037  0.9520 -0.1823
  260MOL0     H35079  12.209   7.233   7.322  1.1217 -2.3191  3.7296
  260MOL0     H35080  11.085   7.480   7.379 -1.9911 -4.5490 -0.1498
  260MOL0     H35081  10.854   7.422   7.357 -1.0343  1.5826 -0.0813
  260MOL0     H35082  10.445   7.181   7.271 -2.2770 -0.5913 -0.0033
  260MOL0     H35083  10.246   7.108   7.161 -1.3034  0.6925 -1.8958
  260MOL0     H35084   8.631   7.008   5.682  1.7869  0.4043 -2.4291
  260MOL0     H35085   8.506   6.810   5.633  0.0761 -1.2534 -1.4042
  260MOL0     H35086   8.356   6.450   5.897  3.1434  0.1886  0.2353
  260MOL0     H35087   8.181   6.307   5.881  0.3969 -0.9551  0.8457
  260MOL0     H35088   8.051   5.938   5.641 -0.8630 -0.3968 -2.7775
  260MOL0     H35089   8.229   5.954   5.592  0.4887 -0.9174  1.9095
  260MOL0     H35090   8.159   6.066   5.397  0.9696  0.7033  0.8747
  260MOL0     H35091   8.037   6.156   5.471  1.2787  0.0934 -1.8162
  260MOL0     H35092   8.029   5.883   5.352 -1.0298 -1.8852  0.4864
  260MOL0     H35093   7.953   6.036   5.298 -2.6773 -0.0088  0.1849
  260MOL0     H35094   7.849   5.853   5.531  0.9826 -0.0716 -1.9256
  260MOL0     H35095   7.794   6.021   5.510  1.0192  2.9799 -1.0742
  260MOL0     H35096   7.572   5.834   5.199 -2.9026  1.8863  3.0066
  260MOL0     H35097   8.354   6.119   5.518  2.6513 -2.3355  2.0813
  260MOL0     H35098   8.587   6.182   5.480  0.5522 -0.5342  2.5431
  260MOL0     H35099   8.535   6.336   5.410 -0.0842 -1.5325 -0.8458
  260MOL0     H35100   8.651   6.346   5.535 -0.2748  0.3193 -1.0605
  261MOL0     O35101  10.510   8.743   6.031 -0.1075 -0.2336 -0.8577
  261MOL0     C35102  10.477   8.684   6.134 -0.3410  0.1765 -0.6492
  261MOL0     O35103  10.565   8.633   6.220  0.2852 -0.4238 -0.3636
  261MOL0     C35104  10.693   8.679   6.218  0.0123  0.0177 -1.2775
  261MOL0     C35105  10.728   8.805   6.268  0.4948 -0.1020 -0.0101
  261MOL0     C35106  10.857   8.853   6.259 -0.2364  0.7891  0.1736
  261MOL0     C35107  10.962   8.772   6.208 -0.5237 -0.3823 -0.0237
  261MOL0     O35108  11.102   8.780   6.205 -0.3352 -0.1050 -0.0091
  261MOL0     C35109  11.156   8.913   6.224 -0.2555  0.0832 -0.0712
  261MOL0     C35110  11.308   8.914   6.185  0.1158 -0.1818 -0.5408
  261MOL0     C35111  11.385   8.797   6.236 -0.1327 -0.0226 -0.5514
  261MOL0     C35112  11.527   8.781   6.182  0.2633 -0.6360  0.8736
  261MOL0     C35113  11.607   8.691   6.271  0.7150 -0.2527 -0.5620
  261MOL0     C35114  11.745   8.659   6.222 -0.0502  0.2825 -0.1129
  261MOL0     C35115  11.828   8.574   6.322  0.6547  0.3825  0.8614
  261MOL0     C35116  11.965   8.542   6.262 -0.8108  0.6133  0.4667
  261MOL0     N35117  11.978   8.430   6.168 -0.3289  0.2170  0.4281
  261MOL0     C35118  11.950   8.301   6.195 -0.1536 -0.8092 -0.3285
  261MOL0     C35119  11.994   8.229   6.088  0.9381  0.3642 -0.5169
  261MOL0     C35120  11.973   8.078   6.077  0.3176 -0.3944 -0.6528
  261MOL0     C35121  12.097   8.011   6.133 -0.1254  0.4383 -0.3262
  261MOL0     C35122  12.124   8.037   6.281 -0.0888  0.0307  0.3580
  261MOL0     C35123  12.236   7.958   6.350 -0.2320 -1.2274  0.0317
  261MOL0     O35124  12.362   8.008   6.298 -0.9141 -0.2759  0.3775
  261MOL0     C35125  12.482   7.942   6.322 -0.2647 -0.6277  0.0210
  261MOL0     C35126  12.599   7.980   6.248  1.4392 -0.1055  0.0917
  261MOL0     C35127  12.714   7.897   6.262  0.0851 -0.0565 -0.0014
  261MOL0     C35128  12.710   7.775   6.330  0.0755  1.1049  0.2131
  261MOL0     C35129  12.837   7.703   6.354 -0.4597 -0.0765  0.4796
  261MOL0     O35130  12.925   7.702   6.249 -0.0839 -0.1174  0.0040
  261MOL0     C35131  13.051   7.657   6.275  1.3021  0.4502 -0.4855
  261MOL0     C35132  13.158   7.741   6.296  0.9800 -0.1966  0.2309
  261MOL0     C35133  13.285   7.693   6.314 -1.1917 -0.5394  0.2790
  261MOL0     C35134  13.318   7.555   6.300  0.2043 -0.1781  0.4147
  261MOL0     O35135  13.443   7.523   6.302 -0.7410  0.2665 -0.4837
  261MOL0     C35136  13.487   7.423   6.210 -0.1730  0.5770  0.1086
  261MOL0     C35137  13.638   7.430   6.194  1.1083  0.0885 -0.1288
  261MOL0     C35138  13.673   7.577   6.143  0.3771  0.6713 -0.6735
  261MOL0     C35139  13.798   7.582   6.057 -0.5576 -0.3637  0.2649
  261MOL0     C35140  13.922   7.540   6.127 -0.0152  0.0662  0.5206
  261MOL0     C35141  14.046   7.571   6.043  0.1175  0.1427 -0.1599
  261MOL0     C35142  14.085   7.718   6.024 -0.8572  0.1662 -0.0806
  261MOL0     C35143  14.232   7.710   5.979 -0.3205 -0.2953 -0.3298
  261MOL0    Cl35144  14.327   7.660   6.123  0.2462  0.4695  0.0882
  261MOL0     C35145  13.203   7.474   6.291 -0.5247 -0.2063  0.4459
  261MOL0     C35146  13.069   7.520   6.276 -0.1797 -0.3702  0.4520
  261MOL0     O35147  12.860   7.654   6.462  0.1310 -0.7911  0.0616
  261MOL0     C35148  12.598   7.742   6.400  0.0376 -0.6060  0.2922
  261MOL0     C35149  12.486   7.827   6.400 -0.4805  0.0048  0.5437
  261MOL0     N35150  12.039   8.319   5.995  0.0352 -0.5424 -0.1168
  261MOL0     N35151  12.022   8.442   6.037  0.4271  0.2335 -0.6667
  261MOL0     C35152  10.923   8.654   6.155  0.0031  1.0504 -0.3031
  261MOL0     C35153  10.795   8.606   6.159 -0.0887  0.1560 -0.1934
  261MOL0     C35154  10.329   8.643   6.144  0.3131 -0.6910  0.4454
  261MOL0     C35155  10.247   8.679   6.038  0.3769  0.0315 -0.5842
  261MOL0     C35156  10.118   8.634   6.028  0.1909  0.0059  0.3752
  261MOL0     C35157  10.062   8.555   6.129 -0.3598 -0.8949  0.3220
  261MOL0     O35158   9.931   8.507   6.143 -0.0586  0.7003  0.5408
  261MOL0     C35159   9.833   8.560   6.057 -0.4283  0.3581  0.6377
  261MOL0     C35160   9.689   8.522   6.112  0.3300  0.7925 -1.2198
  261MOL0     C35161   9.671   8.365   6.113  0.3515 -0.1541  0.4566
  261MOL0     C35162   9.540   8.318   6.169 -1.0442  0.0611  1.0902
  261MOL0     C35163   9.417   8.386   6.138  0.4732  0.8737 -0.0126
  261MOL0     C35164   9.314   8.447   6.121 -1.0948  0.0865  0.2055
  261MOL0     C35165  10.136   8.538   6.243 -0.0080  0.3731 -0.6122
  261MOL0     C35166  10.266   8.583   6.260 -0.8232 -0.3648  0.2269
  261MOL0     C35167  10.344   8.559   6.381  0.0172 -0.7177  0.1701
  261MOL0     H35168  10.649   8.864   6.314  0.6066  0.4540 -0.5278
  261MOL0     H35169  10.886   8.955   6.284  2.5290  0.5033 -1.4365
  261MOL0     H35170  11.104   8.988   6.164 -1.2325 -0.9297 -0.5083
  261MOL0     H35171  11.137   8.934   6.329 -0.7814  0.5805 -0.2629
  261MOL0     H35172  11.347   9.011   6.215  1.0157 -0.6792 -0.0938
  261MOL0     H35173  11.313   8.911   6.075  1.8282  1.0123 -0.5381
  261MOL0     H35174  11.336   8.705   6.202 -0.5012  0.0469 -0.2007
  261MOL0     H35175  11.404   8.807   6.343  5.3664  1.7104 -1.3451
  261MOL0     H35176  11.530   8.737   6.082  2.1008  1.0342  0.1228
  261MOL0     H35177  11.572   8.880   6.185 -1.7027  0.4186 -1.1916
  261MOL0     H35178  11.606   8.733   6.372  2.6788  0.7152 -0.8876
  261MOL0     H35179  11.563   8.593   6.292  0.1705  0.6527  3.3818
  261MOL0     H35180  11.738   8.611   6.123  0.2981  0.5697 -0.2800
  261MOL0     H35181  11.801   8.751   6.203 -0.0474 -0.2656 -3.4734
  261MOL0     H35182  11.773   8.482   6.345  0.8862 -0.2511 -0.9802
  261MOL0     H35183  11.839   8.622   6.419  2.4107 -1.3800  1.5916
  261MOL0     H35184  12.009   8.631   6.216 -0.0376 -1.7020 -3.8167
  261MOL0     H35185  12.033   8.514   6.343 -0.3966  0.8459  0.2040
  261MOL0     H35186  11.920   8.262   6.292 -1.0711 -0.4516 -0.4641
  261MOL0     H35187  11.885   8.046   6.134  1.0840  0.3053  1.0076
  261MOL0     H35188  11.953   8.051   5.973  0.0600  0.2374 -0.7739
  261MOL0     H35189  12.093   7.904   6.111 -1.4452  0.5993 -0.9631
  261MOL0     H35190  12.180   8.044   6.070 -0.0863  3.5602  1.1817
  261MOL0     H35191  12.040   8.008   6.345  1.2397 -2.9367  0.9236
  261MOL0     H35192  12.142   8.145   6.286 -1.5018  0.3696 -1.1338
  261MOL0     H35193  12.227   7.853   6.320  0.1958 -1.0798 -0.6382
  261MOL0     H35194  12.247   7.971   6.458  4.1016 -3.0660  0.0109
  261MOL0     H35195  12.592   8.068   6.185 -1.8952  0.6212  1.2365
  261MOL0     H35196  12.797   7.931   6.201 -0.5716 -0.4093 -1.1172
  261MOL0     H35197  13.132   7.846   6.304  0.5325 -0.2956  0.1147
  261MOL0     H35198  13.363   7.766   6.333 -0.7394 -0.9246 -0.0773
  261MOL0     H35199  13.455   7.335   6.266  2.0691  0.2378  0.9681
  261MOL0     H35200  13.450   7.431   6.108 -0.6916  0.2742  0.2691
  261MOL0     H35201  13.693   7.414   6.288  0.3071  0.6862  0.4561
  261MOL0     H35202  13.679   7.360   6.121  0.5689  1.8692 -2.2370
  261MOL0     H35203  13.590   7.617   6.084  0.3725  0.2640 -0.9459
  261MOL0     H35204  13.698   7.642   6.227  1.0568 -2.2112  1.5272
  261MOL0     H35205  13.806   7.684   6.017 -1.9065 -1.0675 -1.9341
  261MOL0     H35206  13.779   7.517   5.972  0.9127 -1.7143  0.9260
  261MOL0     H35207  13.909   7.435   6.153 -0.0385 -0.8408 -2.7741
  261MOL0     H35208  13.926   7.589   6.225 -0.3975 -1.7303  1.4794
  261MOL0     H35209  14.124   7.512   6.092 -2.2641 -2.4291  0.8573
  261MOL0     H35210  14.024   7.537   5.941 -1.1626 -0.7258  0.3793
  261MOL0     H35211  14.071   7.769   6.120  4.4158  1.2285  0.4287
  261MOL0     H35212  14.016   7.758   5.949 -2.2018  0.0039  1.0235
  261MOL0     H35213  14.254   7.627   5.911  0.3724 -1.5791  1.4187
  261MOL0     H35214  14.266   7.806   5.938 -0.9926 -0.3338 -1.0028
  261MOL0     H35215  13.202   7.367   6.274 -5.1922 -0.1045 -1.3359
  261MOL0     H35216  12.987   7.450   6.275 -0.5664  0.0708  0.7322
  261MOL0     H35217  12.576   7.658   6.465 -3.1714  0.1998  0.4565
  261MOL0     H35218  12.405   7.802   6.468 -1.2057  0.9349  0.0459
  261MOL0     H35219  10.999   8.592   6.108 -0.1018  0.3337  0.4409
  261MOL0     H35220  10.765   8.512   6.114 -0.2242  0.1489 -0.0899
  261MOL0     H35221  10.282   8.748   5.962 -0.8024  1.8375  0.4474
  261MOL0     H35222  10.060   8.658   5.939  0.0205 -5.3065 -1.2941
  261MOL0     H35223   9.851   8.506   5.964 -0.3836 -0.8991  1.3639
  261MOL0     H35224   9.854   8.666   6.038  1.7233 -0.5505 -2.9400
  261MOL0     H35225   9.613   8.579   6.058 -1.4551  0.4507  0.8012
  261MOL0     H35226   9.679   8.549   6.217 -0.9354  1.0756 -1.4046
  261MOL0     H35227   9.746   8.315   6.175  0.1942 -0.8854  0.0724
  261MOL0     H35228   9.680   8.332   6.009  3.1944  2.4718 -0.2904
  261MOL0     H35229   9.530   8.213   6.139 -1.6032  0.5963 -0.7092
  261MOL0     H35230   9.554   8.319   6.277  0.0623 -1.4119  0.9817
  261MOL0     H35231   9.224   8.505   6.112 -0.9487  0.3681  0.5213
  261MOL0     H35232  10.094   8.474   6.320 -1.6160  0.3428 -1.4787
  261MOL0     H35233  10.289   8.557   6.476  2.1110  1.7605  1.5813
  261MOL0     H35234  10.393   8.462   6.370 -0.2525 -0.8165 -0.1612
  261MOL0     H35235  10.414   8.642   6.391 -0.4812 -0.4021  1.2429
  262MOL0     O35236   8.557   6.144  10.281 -0.4332  0.0389 -0.3629
  262MOL0     C35237   8.526   6.215  10.375  0.4305 -0.4653 -0.3691
  262MOL0     O35238   8.603   6.273  10.474  0.4799  0.4175 -0.4522
  262MOL0     C35239   8.746   6.265  10.473  0.6454 -0.1965  0.0608
  262MOL0     C35240   8.816   6.363  10.543  1.2388 -0.7188  0.0478
  262MOL0     C35241   8.959   6.359  10.558  0.1020  0.6868  0.0422
  262MOL0     C35242   9.030   6.267  10.490 -0.0479 -0.5275 -1.1930
  262MOL0     O35243   9.163   6.244  10.506  0.1058  0.3521  0.5949
  262MOL0     C35244   9.236   6.303  10.614 -1.1215  0.2279  0.1052
  262MOL0     C35245   9.374   6.255  10.591  1.0629  0.6821  0.6457
  262MOL0     C35246   9.448   6.318  10.470  0.0206 -0.6457  0.0938
  262MOL0     C35247   9.578   6.237  10.440  0.4191 -0.2067 -0.2701
  262MOL0     C35248   9.670   6.336  10.365 -0.1312  0.0291 -0.7934
  262MOL0     C35249   9.793   6.261  10.312  0.2553  0.2579  0.1822
  262MOL0     C35250   9.873   6.366  10.228  0.3261  0.1308 -0.6507
  262MOL0     C35251  10.014   6.334  10.192 -0.2689  0.0807  0.2165
  262MOL0     N35252  10.064   6.433  10.090 -0.3928  0.3249  0.1899
  262MOL0     C35253  10.145   6.543  10.126  0.1557  0.1769  0.3596
  262MOL0     C35254  10.181   6.595  10.002 -0.4972  0.1091  0.2587
  262MOL0     C35255  10.263   6.729   9.982 -0.2821 -0.1172 -0.3021
  262MOL0     C35256  10.223   6.799   9.849 -0.4898 -0.1195 -0.7659
  262MOL0     C35257  10.294   6.936   9.824 -0.2828 -0.5136 -0.7025
  262MOL0     C35258  10.430   6.951   9.892  0.1224  0.3042 -0.3496
  262MOL0     O35259  10.529   6.857   9.860 -0.7360  0.1782  0.2091
  262MOL0     C35260  10.657   6.904   9.863  0.2210  0.4898  0.5665
  262MOL0     C35261  10.710   6.989   9.958  0.6439 -0.4586 -0.6894
  262MOL0     C35262  10.845   7.047   9.958  1.1981  0.2356 -0.0474
  262MOL0     C35263  10.933   7.000   9.860  0.2895  0.6031 -0.1360
  262MOL0     C35264  11.072   7.041   9.869 -0.1186  0.0733 -0.5859
  262MOL0     O35265  11.159   6.968   9.806 -0.0779 -0.5502  0.5196
  262MOL0     C35266  11.293   6.995   9.832  0.1564 -0.7017 -0.8972
  262MOL0     C35267  11.367   6.889   9.890  0.5727 -0.6012  0.8289
  262MOL0     C35268  11.508   6.904   9.920 -0.2902 -0.4076  0.4631
  262MOL0     C35269  11.586   7.020   9.893  0.4260  0.8994 -0.0787
  262MOL0     O35270  11.716   7.051   9.937 -0.4171  0.3025 -0.2274
  262MOL0     C35271  11.813   6.971   9.863 -0.2672 -0.1209  0.5489
  262MOL0     C35272  11.904   7.060   9.778  0.8138 -0.2019  0.4293
  262MOL0     C35273  12.006   6.986   9.692  0.2081 -0.2570 -0.1780
  262MOL0     C35274  12.099   7.090   9.628 -0.6214 -0.4851 -0.6145
  262MOL0     C35275  12.230   7.038   9.557  0.4020  0.1352  0.0649
  262MOL0     C35276  12.318   6.968   9.672 -0.1739 -0.1861 -0.1746
  262MOL0     C35277  12.471   6.975   9.628  0.2308 -0.0686  0.5370
  262MOL0     C35278  12.489   6.877   9.519  0.8101  0.9478  0.3112
  262MOL0    Cl35279  12.636   6.907   9.442  0.1073 -0.7140  0.3056
  262MOL0     C35280  11.505   7.123   9.835 -0.5648  0.5341  0.5051
  262MOL0     C35281  11.371   7.111   9.806  0.8399 -1.0775  0.0014
  262MOL0     O35282  11.103   7.142   9.933  0.3293 -0.1985 -0.2300
  262MOL0     C35283  10.885   6.911   9.765 -0.2533 -1.0425  0.2650
  262MOL0     C35284  10.752   6.864   9.763  0.8030 -0.0738 -0.5610
  262MOL0     N35285  10.141   6.508   9.904 -0.7191  0.4750 -0.2312
  262MOL0     N35286  10.074   6.410   9.957  0.2161 -0.3052 -0.4159
  262MOL0     C35287   8.961   6.167  10.418  0.4425  0.1037  0.2782
  262MOL0     C35288   8.824   6.167  10.403 -0.3326  0.7113  0.0222
  262MOL0     C35289   8.378   6.241  10.379  0.6776 -0.5816 -0.7442
  262MOL0     C35290   8.297   6.175  10.287  1.0495  0.5043  0.4609
  262MOL0     C35291   8.162   6.197  10.275 -0.0312 -1.0249 -0.4696
  262MOL0     C35292   8.098   6.294  10.366 -0.1721  0.1242  0.0639
  262MOL0     O35293   7.970   6.331  10.364  0.4210 -0.0258  0.8383
  262MOL0     C35294   7.881   6.227  10.369 -0.0361  0.5651  0.8498
  262MOL0     C35295   7.747   6.272  10.418 -0.3877 -0.0229  0.0992
  262MOL0     C35296   7.638   6.172  10.388  0.1907 -0.6230 -0.3290
  262MOL0     C35297   7.498   6.246  10.372 -0.4063 -0.0771 -0.7997
  262MOL0     C35298   7.490   6.361  10.280 -0.2189  0.6378  0.7494
  262MOL0     C35299   7.475   6.443  10.193 -1.2484 -0.5388  0.2997
  262MOL0     C35300   8.174   6.356  10.461 -0.8208  0.8120 -0.4298
  262MOL0     C35301   8.311   6.332  10.474  0.1784  0.3575  0.2099
  262MOL0     C35302   8.394   6.411  10.571  0.2135  0.2798  0.0612
  262MOL0     H35303   8.756   6.446  10.581  0.6584 -0.8698 -0.5150
  262MOL0     H35304   9.021   6.434  10.606  2.8738 -0.9190 -0.8304
  262MOL0     H35305   9.234   6.412  10.614 -2.0019  0.2522 -1.7397
  262MOL0     H35306   9.197   6.265  10.709 -2.4792 -4.1815 -1.9218
  262MOL0     H35307   9.376   6.147  10.574  1.4707  1.0678 -2.1436
  262MOL0     H35308   9.444   6.274  10.674  0.8439 -1.7721  1.4598
  262MOL0     H35309   9.474   6.420  10.500 -2.5612 -0.0787  0.7321
  262MOL0     H35310   9.391   6.320  10.377  0.5757  3.0242 -0.2975
  262MOL0     H35311   9.621   6.201  10.533  0.5532 -1.8901 -0.9582
  262MOL0     H35312   9.555   6.156  10.370 -1.7608  1.9735 -2.2825
  262MOL0     H35313   9.607   6.357  10.278  1.8690 -2.0283 -2.8782
  262MOL0     H35314   9.703   6.416  10.432  0.7744 -1.0265  0.0702
  262MOL0     H35315   9.857   6.227  10.394  1.5961  1.8244 -0.1609
  262MOL0     H35316   9.767   6.177  10.247 -1.6257 -0.1280  1.3522
  262MOL0     H35317   9.872   6.470  10.262 -1.0590  0.1352 -0.6536
  262MOL0     H35318   9.820   6.373  10.132 -4.1056  1.3206  1.6337
  262MOL0     H35319  10.086   6.317  10.272 -0.1075 -1.9788 -0.3219
  262MOL0     H35320  10.007   6.241  10.136 -0.1573  1.1494 -1.6688
  262MOL0     H35321  10.176   6.587  10.220  1.9515  0.8758 -0.5130
  262MOL0     H35322  10.238   6.796  10.065 -1.0679 -0.7923  0.0300
  262MOL0     H35323  10.366   6.692   9.982 -1.0582 -2.4399 -0.4406
  262MOL0     H35324  10.243   6.728   9.769  0.8611 -1.5381  0.7488
  262MOL0     H35325  10.116   6.814   9.861 -0.0104  2.3521  1.3704
  262MOL0     H35326  10.224   7.010   9.865  1.2680  1.2270 -1.0771
  262MOL0     H35327  10.314   6.959   9.719  2.5643 -0.1279 -0.1669
  262MOL0     H35328  10.410   6.935   9.998  3.6685 -2.3409  0.0701
  262MOL0     H35329  10.470   7.053   9.885  2.1806 -0.5825 -3.3112
  262MOL0     H35330  10.651   7.013  10.046  2.3317 -0.3790  0.4621
  262MOL0     H35331  10.873   7.116  10.037  2.0481 -0.4601  0.2909
  262MOL0     H35332  11.310   6.804   9.926  0.4396  0.0272  2.1810
  262MOL0     H35333  11.564   6.816   9.951  0.3166 -1.1663 -2.4395
  262MOL0     H35334  11.877   6.911   9.929  2.5967  1.7353 -0.3484
  262MOL0     H35335  11.758   6.900   9.801 -1.6784  0.9857  0.4869
  262MOL0     H35336  11.831   7.118   9.722 -0.8508  0.0722  2.7565
  262MOL0     H35337  11.955   7.134   9.841  0.3645  0.8787 -0.4483
  262MOL0     H35338  12.059   6.918   9.760  0.2519 -0.1345 -0.0887
  262MOL0     H35339  11.954   6.921   9.622 -1.9019 -0.6103  1.5962
  262MOL0     H35340  12.129   7.174   9.691 -3.3000 -0.3219  0.6054
  262MOL0     H35341  12.032   7.131   9.551 -2.9014 -0.7411  1.1390
  262MOL0     H35342  12.280   7.123   9.510 -0.2641  0.8139  0.5638
  262MOL0     H35343  12.207   6.961   9.483  0.5943 -0.1991  0.3481
  262MOL0     H35344  12.313   7.039   9.755 -2.2100  1.3457 -1.5116
  262MOL0     H35345  12.290   6.872   9.715 -0.5332  1.4099  3.5277
  262MOL0     H35346  12.532   6.938   9.711  0.9624 -0.2110 -0.0552
  262MOL0     H35347  12.500   7.078   9.605  0.9140 -0.0188  1.5313
  262MOL0     H35348  12.496   6.780   9.570  0.0172  1.6488  1.8102
  262MOL0     H35349  12.406   6.867   9.448 -0.7222  0.0150  2.1399
  262MOL0     H35350  11.559   7.217   9.823  0.5998 -0.3098 -1.3014
  262MOL0     H35351  11.312   7.196   9.772  1.5984 -0.1780  0.8418
  262MOL0     H35352  10.953   6.877   9.688 -0.5395  0.7823 -0.8542
  262MOL0     H35353  10.726   6.784   9.694 -0.5969 -0.4933  0.4136
  262MOL0     H35354   9.015   6.091  10.361 -0.0991 -1.0006  1.2037
  262MOL0     H35355   8.794   6.087  10.336 -1.0576  3.6437 -3.4624
  262MOL0     H35356   8.337   6.101  10.219  0.8343  0.1671  0.6973
  262MOL0     H35357   8.103   6.142  10.201 -1.2693 -1.8509  1.0764
  262MOL0     H35358   7.916   6.145  10.433  1.4073  0.1478 -0.4134
  262MOL0     H35359   7.871   6.177  10.272  3.0266  1.6271 -0.1230
  262MOL0     H35360   7.727   6.369  10.373  1.6035 -0.2673 -1.4590
  262MOL0     H35361   7.763   6.291  10.524  0.0276  0.3017 -0.0208
  262MOL0     H35362   7.617   6.100  10.467 -0.7187  0.2872  0.2895
  262MOL0     H35363   7.656   6.116  10.296 -1.4212  0.1911 -1.1916
  262MOL0     H35364   7.426   6.178  10.327 -0.5828  0.7554 -1.8189
  262MOL0     H35365   7.458   6.275  10.470  0.9349 -1.8009  0.3247
  262MOL0     H35366   7.470   6.524  10.124  0.0093  0.9827  1.8871
  262MOL0     H35367   8.121   6.411  10.538  0.1686 -0.2378  1.0340
  262MOL0     H35368   8.330   6.487  10.617  0.3135  1.6183 -1.8602
  262MOL0     H35369   8.430   6.352  10.655  0.8155  0.7146  0.1117
  262MOL0     H35370   8.471   6.477  10.529  0.1896  2.0760  2.5887
  263MOL0     O35371   0.525   9.116   0.686  0.0632  0.7560  0.3610
  263MOL0     C35372   0.492   9.234   0.706  0.4019  0.1377 -0.7584
  263MOL0     O35373   0.587   9.332   0.708 -0.2145 -0.3558 -0.5140
  263MOL0     C35374   0.719   9.302   0.677 -0.0872  0.5400 -0.2172
  263MOL0     C35375   0.787   9.386   0.587  0.6392 -0.5906 -0.1992
  263MOL0     C35376   0.920   9.368   0.554  0.8502  0.5446 -0.3876
  263MOL0     C35377   0.996   9.263   0.618 -0.4124 -0.1438 -1.1649
  263MOL0     O35378   1.126   9.216   0.595 -0.1951 -0.2822  1.4366
  263MOL0     C35379   1.200   9.267   0.479  0.3750  0.0560 -0.1633
  263MOL0     C35380   1.340   9.205   0.480 -0.6261  0.2988 -0.5089
  263MOL0     C35381   1.435   9.264   0.370  0.3528 -0.3032 -0.2188
  263MOL0     C35382   1.578   9.202   0.361  0.8891  0.0690 -0.2777
  263MOL0     C35383   1.661   9.253   0.242  0.8710  0.0558 -0.6168
  263MOL0     C35384   1.806   9.256   0.293 -0.7678 -0.3888 -0.1489
  263MOL0     C35385   1.908   9.273   0.179 -0.6555  0.0409  0.3059
  263MOL0     C35386   2.060   9.294   0.223 -0.6894 -0.8713 -0.5774
  263MOL0     N35387   2.144   9.290   0.109 -0.2135  0.5948  0.2058
  263MOL0     C35388   2.174   9.172   0.036 -1.3753  0.0403  0.8248
  263MOL0     C35389   2.265   9.220  -0.051 -0.3182 -0.0536  0.2133
  263MOL0     C35390   2.333   9.137  -0.150 -0.3959 -1.2142  0.0434
  263MOL0     C35391   2.479   9.112  -0.110 -0.2680  0.1183  0.1005
  263MOL0     C35392   2.571   9.217  -0.167  0.5202  0.5601 -0.0043
  263MOL0     C35393   2.720   9.215  -0.124  0.3617 -0.3642 -0.0030
  263MOL0     O35394   2.774   9.332  -0.195  0.2088 -0.0835 -0.5172
  263MOL0     C35395   2.907   9.358  -0.161  0.2136 -0.8040 -0.1171
  263MOL0     C35396   2.951   9.491  -0.185 -0.8152 -0.4480  0.2634
  263MOL0     C35397   3.083   9.526  -0.147  0.6012 -0.3472 -0.6147
  263MOL0     C35398   3.174   9.442  -0.082  0.1225  0.3925  0.0499
  263MOL0     C35399   3.301   9.489  -0.025  0.1341 -0.0265 -0.6545
  263MOL0     O35400   3.405   9.400  -0.018  0.1315  0.2139 -0.5933
  263MOL0     C35401   3.522   9.460   0.028  0.8572 -0.1309 -0.3861
  263MOL0     C35402   3.624   9.462  -0.062  0.0859  0.0929  0.8986
  263MOL0     C35403   3.756   9.510  -0.040  0.3963  0.1389 -0.2036
  263MOL0     C35404   3.775   9.557   0.083  0.2133  1.4260  0.3704
  263MOL0     O35405   3.892   9.606   0.108 -0.2744  0.0079 -0.0545
  263MOL0     C35406   3.959   9.583   0.235  0.0172 -0.0080  0.2943
  263MOL0     C35407   4.101   9.595   0.205 -0.0195 -0.7285  0.0279
  263MOL0     C35408   4.150   9.743   0.198  0.6494  0.0293  0.6818
  263MOL0     C35409   4.297   9.740   0.140 -0.6327  0.7019 -0.2656
  263MOL0     C35410   4.401   9.665   0.223  0.0037 -0.3401  0.2293
  263MOL0     C35411   4.539   9.698   0.167  0.6117  0.3449 -0.2637
  263MOL0     C35412   4.645   9.675   0.282 -0.0677 -0.2546  0.5026
  263MOL0     C35413   4.791   9.678   0.235 -0.4800  1.2643  0.1042
  263MOL0    Cl35414   4.825   9.827   0.156  0.1130  0.1634  0.0882
  263MOL0     C35415   3.679   9.550   0.187 -0.4546 -0.0543  0.3725
  263MOL0     C35416   3.545   9.524   0.150  0.0861 -0.3560 -0.0072
  263MOL0     O35417   3.303   9.612   0.001  0.2947  0.0177 -0.4707
  263MOL0     C35418   3.129   9.313  -0.068 -0.7353 -0.6588  0.5719
  263MOL0     C35419   3.004   9.270  -0.107  0.1980  0.1879 -0.1895
  263MOL0     N35420   2.268   9.358  -0.050 -0.8515 -0.5147 -0.2519
  263MOL0     N35421   2.205   9.389   0.055  0.4255 -0.9288 -0.4278
  263MOL0     C35422   0.921   9.176   0.708 -0.3508  0.6581  0.0936
  263MOL0     C35423   0.797   9.201   0.745  1.1576 -0.4695  0.5361
  263MOL0     C35424   0.345   9.265   0.708  0.2065  0.6534 -0.0900
  263MOL0     C35425   0.251   9.166   0.690 -0.5061  0.2109 -0.3434
  263MOL0     C35426   0.109   9.178   0.693  0.1015 -0.5187  0.0157
  263MOL0     C35427   0.059   9.312   0.715 -0.6223  0.5854  0.7832
  263MOL0     O35428  -0.073   9.345   0.711 -0.0243 -0.5039  0.2652
  263MOL0     C35429  -0.173   9.256   0.668  0.4349 -0.2044 -0.0669
  263MOL0     C35430  -0.308   9.329   0.679 -0.3820 -0.2712  0.0079
  263MOL0     C35431  -0.346   9.380   0.819 -0.4453  0.0558  0.5472
  263MOL0     C35432  -0.476   9.457   0.818  0.4553  0.0218  1.1720
  263MOL0     C35433  -0.499   9.520   0.949  0.5019 -0.2378  0.2887
  263MOL0     C35434  -0.521   9.569   1.065  0.2699  0.2422  0.2116
  263MOL0     C35435   0.149   9.414   0.725  0.0019 -0.8031 -0.2335
  263MOL0     C35436   0.288   9.399   0.725 -0.4517  0.0739 -0.4267
  263MOL0     C35437   0.379   9.519   0.742 -0.4503  0.5312  0.6835
  263MOL0     H35438   0.709   9.437   0.531  0.3303 -0.6472  0.1689
  263MOL0     H35439   0.961   9.431   0.477 -0.1365 -0.3905 -1.7248
  263MOL0     H35440   1.154   9.237   0.384  1.8447  2.9896 -1.9446
  263MOL0     H35441   1.207   9.376   0.479  2.8521  0.0900 -3.8534
  263MOL0     H35442   1.331   9.097   0.466 -1.2033  0.2762  0.0278
  263MOL0     H35443   1.382   9.236   0.576 -1.3047  1.5827 -0.6006
  263MOL0     H35444   1.437   9.371   0.394 -0.1202 -0.2336 -0.4630
  263MOL0     H35445   1.377   9.250   0.278  0.0716  0.4997 -0.1721
  263MOL0     H35446   1.638   9.218   0.451  0.2294 -3.6126  0.9698
  263MOL0     H35447   1.553   9.096   0.347  2.7840 -0.5569  0.7540
  263MOL0     H35448   1.663   9.185   0.156  1.3449 -0.4509 -0.2180
  263MOL0     H35449   1.633   9.354   0.211  0.7246 -0.1360 -1.1251
  263MOL0     H35450   1.818   9.338   0.365  3.0319 -1.6342  0.8468
  263MOL0     H35451   1.823   9.167   0.353 -0.2868  1.5962  2.8518
  263MOL0     H35452   1.875   9.351   0.110 -1.9576  0.8451  1.7754
  263MOL0     H35453   1.898   9.178   0.125  1.6197  0.5640 -1.1756
  263MOL0     H35454   2.061   9.390   0.276 -1.2000  0.0785 -2.2376
  263MOL0     H35455   2.098   9.219   0.293 -1.8797 -3.0550 -2.1351
  263MOL0     H35456   2.138   9.072   0.055  0.9546 -1.2489 -1.0869
  263MOL0     H35457   2.276   9.045  -0.154  0.0783 -1.6485  1.9284
  263MOL0     H35458   2.329   9.195  -0.242 -2.8143 -0.2472  0.6900
  263MOL0     H35459   2.494   9.117  -0.002 -0.9286 -2.5776  0.3960
  263MOL0     H35460   2.508   9.012  -0.145  4.9245  1.6604 -0.9713
  263MOL0     H35461   2.523   9.308  -0.130  0.4306  1.2678 -1.8028
  263MOL0     H35462   2.574   9.204  -0.275 -1.2398  0.4624 -0.0617
  263MOL0     H35463   2.777   9.122  -0.137 -1.5861 -2.0692  2.6007
  263MOL0     H35464   2.710   9.238  -0.018  0.9866  1.1375 -0.2422
  263MOL0     H35465   2.883   9.567  -0.220  0.6175  1.6707  1.8235
  263MOL0     H35466   3.117   9.629  -0.158  1.1311 -0.2889  1.2092
  263MOL0     H35467   3.600   9.433  -0.164 -1.6302 -2.0025  1.8178
  263MOL0     H35468   3.828   9.531  -0.118  1.7061  1.1216  1.2179
  263MOL0     H35469   3.936   9.658   0.312  1.6095 -1.0206  1.8490
  263MOL0     H35470   3.933   9.484   0.273 -1.2427 -0.4037 -1.5156
  263MOL0     H35471   4.157   9.555   0.290 -0.2632 -0.1816  0.4502
  263MOL0     H35472   4.132   9.551   0.110  1.0267 -0.0629  0.0474
  263MOL0     H35473   4.085   9.804   0.133  0.1787  0.9143  1.9402
  263MOL0     H35474   4.151   9.788   0.298  2.1605 -1.7508  1.5244
  263MOL0     H35475   4.332   9.843   0.130  3.0891 -0.2203  1.3820
  263MOL0     H35476   4.292   9.681   0.049 -0.6469 -0.3521  0.3982
  263MOL0     H35477   4.373   9.560   0.231  1.1427 -0.6519  0.2901
  263MOL0     H35478   4.399   9.702   0.326 -0.7230 -0.5298  0.2896
  263MOL0     H35479   4.558   9.631   0.083  1.3934 -1.2690  1.1399
  263MOL0     H35480   4.558   9.799   0.129 -0.3537  1.0924  1.1460
  263MOL0     H35481   4.620   9.587   0.342 -1.4582 -0.2792 -0.0618
  263MOL0     H35482   4.639   9.766   0.342  1.6937  0.3051 -0.1178
  263MOL0     H35483   4.851   9.662   0.325 -1.5625 -1.6301  0.4123
  263MOL0     H35484   4.812   9.604   0.157  0.8589  0.5600  1.0905
  263MOL0     H35485   3.699   9.598   0.283  1.8116  0.4271 -0.3049
  263MOL0     H35486   3.483   9.519   0.239  1.4295 -1.5755  0.9028
  263MOL0     H35487   3.198   9.238  -0.030  1.1184  1.6626  2.0829
  263MOL0     H35488   2.982   9.165  -0.094  2.4239 -0.7433 -2.9402
  263MOL0     H35489   0.989   9.102   0.748  1.2097 -0.0668 -3.4693
  263MOL0     H35490   0.744   9.146   0.822  1.3710 -1.2288  0.1445
  263MOL0     H35491   0.294   9.067   0.679  3.3653  1.3284  2.3506
  263MOL0     H35492   0.039   9.099   0.668 -2.3061  0.5898  2.7321
  263MOL0     H35493  -0.175   9.169   0.734  1.6113 -0.6528 -0.6034
  263MOL0     H35494  -0.147   9.228   0.565 -0.1535  0.8163 -0.5040
  263MOL0     H35495  -0.385   9.268   0.632 -2.4464  3.9011 -2.6016
  263MOL0     H35496  -0.294   9.416   0.614 -1.1487 -0.8873 -0.9999
  263MOL0     H35497  -0.273   9.446   0.868 -0.1312 -1.1205  1.7429
  263MOL0     H35498  -0.349   9.293   0.885 -3.0774 -2.8539 -3.0230
  263MOL0     H35499  -0.472   9.537   0.743 -2.2805  0.1814  1.1261
  263MOL0     H35500  -0.560   9.393   0.793 -1.4968  2.3908  1.2742
  263MOL0     H35501  -0.551   9.606   1.161  2.5593  1.1124  0.6583
  263MOL0     H35502   0.119   9.518   0.724  1.2454 -0.3999  1.0037
  263MOL0     H35503   0.444   9.525   0.654 -1.1524  1.4394  0.2176
  263MOL0     H35504   0.330   9.616   0.749 -0.5972  0.6008 -0.8875
  263MOL0     H35505   0.428   9.494   0.836  1.4416  2.8618  0.4198
  264MOL0     O35506   5.149   4.973   8.301 -0.1263  0.0296  0.8156
  264MOL0     C35507   5.091   4.899   8.216 -0.0161 -0.6775 -0.5463
  264MOL0     O35508   5.143   4.875   8.093  0.0353  0.7443  0.0220
  264MOL0     C35509   5.273   4.877   8.094 -0.0783  1.0701 -0.2163
  264MOL0     C35510   5.341   4.999   8.081  0.5820 -0.5000  0.7223
  264MOL0     C35511   5.478   5.003   8.067 -0.7043  0.4930  0.1276
  264MOL0     C35512   5.549   4.877   8.076 -0.4883  0.6431  0.6441
  264MOL0     O35513   5.687   4.863   8.077 -0.5897 -0.2809  0.1698
  264MOL0     C35514   5.762   4.956   8.158 -0.3919  0.0652 -0.0972
  264MOL0     C35515   5.870   5.039   8.092 -0.0763  0.1924  0.4489
  264MOL0     C35516   5.989   4.947   8.045  0.5120 -0.3312 -0.0197
  264MOL0     C35517   6.124   5.018   8.009 -0.2104 -0.8237 -0.1685
  264MOL0     C35518   6.201   5.086   8.119  0.4771 -0.5012 -0.1760
  264MOL0     C35519   6.352   5.102   8.096 -0.0510 -0.3280  0.4427
  264MOL0     C35520   6.426   4.977   8.121 -0.3534  1.1913 -0.4989
  264MOL0     C35521   6.583   4.994   8.126  0.8585 -1.0324 -0.3903
  264MOL0     N35522   6.633   4.860   8.131 -0.5275  0.8772 -0.1001
  264MOL0     C35523   6.635   4.771   8.029  0.4063  0.5826  0.6738
  264MOL0     C35524   6.726   4.675   8.072 -0.2396 -0.1058 -0.5076
  264MOL0     C35525   6.768   4.549   7.991  1.5398 -0.9883 -0.2253
  264MOL0     C35526   6.910   4.533   7.958 -0.3511  0.9231  0.6428
  264MOL0     C35527   6.936   4.420   7.857 -0.2632  0.1254 -0.2838
  264MOL0     C35528   7.086   4.393   7.852 -0.2079  0.1653 -0.1143
  264MOL0     O35529   7.164   4.507   7.827 -0.1673 -0.1952 -0.5303
  264MOL0     C35530   7.302   4.502   7.855 -0.3606 -0.5445  0.1748
  264MOL0     C35531   7.372   4.623   7.861  0.7245 -0.8729  0.1494
  264MOL0     C35532   7.513   4.628   7.883 -0.5161 -0.0134  0.4657
  264MOL0     C35533   7.592   4.513   7.908 -0.0026  0.1427 -0.2602
  264MOL0     C35534   7.740   4.513   7.925  1.4418  0.1741 -0.1602
  264MOL0     O35535   7.803   4.398   7.912 -0.1561  0.0324 -0.6034
  264MOL0     C35536   7.943   4.388   7.918  0.6086  0.2838  0.2969
  264MOL0     C35537   8.034   4.480   7.858 -0.0657  0.2572 -0.8204
  264MOL0     C35538   8.166   4.471   7.878  0.0333 -0.6077 -0.5300
  264MOL0     C35539   8.218   4.369   7.959 -0.4133  0.6468  0.0239
  264MOL0     O35540   8.351   4.365   7.981 -0.0245 -0.3902  0.6094
  264MOL0     C35541   8.408   4.292   8.097 -0.4430  0.6552 -0.6221
  264MOL0     C35542   8.482   4.165   8.056 -0.0865  0.3514  0.0764
  264MOL0     C35543   8.626   4.173   8.003 -0.4279 -0.1443 -0.0858
  264MOL0     C35544   8.737   4.199   8.102 -0.2338 -0.6362 -0.7761
  264MOL0     C35545   8.853   4.115   8.057 -0.3866 -0.1623 -0.3356
  264MOL0     C35546   8.991   4.164   8.112 -0.0144 -0.9664 -0.1849
  264MOL0     C35547   9.109   4.093   8.047 -0.6361 -0.3541  0.1785
  264MOL0     C35548   9.163   3.975   8.129  1.2879  0.3126 -0.0323
  264MOL0    Cl35549   9.245   4.040   8.269  0.2916 -0.2149  0.0620
  264MOL0     C35550   8.128   4.266   8.002 -0.5100 -1.0695  0.3556
  264MOL0     C35551   7.995   4.285   7.995  0.2025  0.0285 -0.2601
  264MOL0     O35552   7.802   4.621   7.922 -0.3135  0.3405  0.2280
  264MOL0     C35553   7.516   4.391   7.889 -0.7425 -1.0909 -0.6798
  264MOL0     C35554   7.382   4.389   7.870  0.6553  0.0219 -0.3893
  264MOL0     N35555   6.758   4.696   8.208 -0.8124  0.1201  0.6172
  264MOL0     N35556   6.699   4.807   8.239  0.1611 -0.5978  0.7768
  264MOL0     C35557   5.484   4.755   8.087  0.8965  0.4976 -0.2498
  264MOL0     C35558   5.339   4.755   8.101 -0.2028  0.2502 -1.1412
  264MOL0     C35559   4.953   4.859   8.247 -0.3740  0.5922  0.5207
  264MOL0     C35560   4.891   4.783   8.142  0.2668 -0.5856  0.1435
  264MOL0     C35561   4.765   4.731   8.157  0.4430 -0.2027  0.5810
  264MOL0     C35562   4.693   4.739   8.274 -0.8815 -0.1584 -0.2806
  264MOL0     O35563   4.572   4.679   8.270  0.8976 -0.6573  0.3374
  264MOL0     C35564   4.489   4.684   8.388 -0.0863  0.0158  0.4455
  264MOL0     C35565   4.351   4.623   8.355 -0.4087  0.0205 -0.6403
  264MOL0     C35566   4.263   4.647   8.479 -0.9398  0.4520 -0.8056
  264MOL0     C35567   4.158   4.539   8.491  0.2314  0.7456  0.0066
  264MOL0     C35568   4.036   4.587   8.437 -0.2586  0.4521 -0.1112
  264MOL0     C35569   3.935   4.633   8.391 -0.0464  0.0177 -1.0145
  264MOL0     C35570   4.756   4.805   8.385  0.5823  0.1306 -0.5275
  264MOL0     C35571   4.885   4.865   8.372 -0.0929  0.0303  1.3445
  264MOL0     C35572   4.958   4.927   8.493 -0.1085  0.6143 -0.2735
  264MOL0     H35573   5.285   5.092   8.074  0.0992 -0.7539  1.1396
  264MOL0     H35574   5.538   5.094   8.062 -0.7947  0.4869 -3.2510
  264MOL0     H35575   5.694   5.026   8.208  0.2895  0.6096  0.0807
  264MOL0     H35576   5.811   4.900   8.238 -0.3823  0.0869 -0.0883
  264MOL0     H35577   5.903   5.115   8.163  0.2303 -1.0985  1.7151
  264MOL0     H35578   5.830   5.091   8.004  2.2895  0.9882 -0.2187
  264MOL0     H35579   5.955   4.896   7.954  0.6674 -0.2421 -0.1291
  264MOL0     H35580   5.999   4.869   8.120  0.2698 -0.5531 -0.2163
  264MOL0     H35581   6.191   4.949   7.957 -0.7610 -1.3497 -0.1908
  264MOL0     H35582   6.089   5.097   7.942  1.4449  0.8020  0.8004
  264MOL0     H35583   6.161   5.184   8.147 -0.4568 -1.4023  1.7929
  264MOL0     H35584   6.202   5.039   8.218  2.9978 -0.7514 -0.2418
  264MOL0     H35585   6.377   5.145   7.998  0.4983  1.0252  1.1593
  264MOL0     H35586   6.397   5.172   8.166  0.2800 -1.0617  0.9741
  264MOL0     H35587   6.391   4.905   8.047 -5.1435  2.3316  0.3660
  264MOL0     H35588   6.394   4.937   8.217  1.7172 -3.2702 -1.4150
  264MOL0     H35589   6.627   5.041   8.038 -0.1001 -2.2222 -1.5483
  264MOL0     H35590   6.608   5.047   8.219 -3.2175 -2.1199  1.5487
  264MOL0     H35591   6.593   4.786   7.930  1.9416 -0.6451 -0.2057
  264MOL0     H35592   6.731   4.455   8.032  1.2696  1.0562  4.8514
  264MOL0     H35593   6.714   4.553   7.896 -0.7261 -0.8248  1.0231
  264MOL0     H35594   6.949   4.632   7.932 -2.9880  1.9249  0.2325
  264MOL0     H35595   6.960   4.498   8.049 -1.3253 -2.3277  0.0636
  264MOL0     H35596   6.913   4.457   7.756  0.5394  0.0568 -0.5015
  264MOL0     H35597   6.881   4.331   7.887  0.0789  0.4350  1.3375
  264MOL0     H35598   7.108   4.304   7.792  0.4473 -1.0020  1.7742
  264MOL0     H35599   7.109   4.366   7.956 -0.2147 -0.3118 -0.2348
  264MOL0     H35600   7.323   4.716   7.833  1.8524 -0.3119  0.0081
  264MOL0     H35601   7.563   4.724   7.875 -0.7458  0.7559  5.1288
  264MOL0     H35602   7.997   4.559   7.793  2.7353  1.3604 -1.2278
  264MOL0     H35603   8.220   4.548   7.825 -1.2171 -0.7511 -2.0928
  264MOL0     H35604   8.484   4.357   8.141  0.7016 -2.4047  2.4108
  264MOL0     H35605   8.337   4.263   8.176 -1.3170  1.8143 -0.9510
  264MOL0     H35606   8.459   4.086   8.127 -0.5749  1.9401  1.7712
  264MOL0     H35607   8.421   4.144   7.968  0.7746  0.7649 -0.6412
  264MOL0     H35608   8.641   4.072   7.965 -2.7273 -0.1032 -1.3074
  264MOL0     H35609   8.636   4.241   7.917  1.4750  1.3479  1.2341
  264MOL0     H35610   8.710   4.177   8.205 -2.0689 -5.9784 -2.0775
  264MOL0     H35611   8.757   4.306   8.095 -1.0501 -0.5588 -2.7335
  264MOL0     H35612   8.852   4.115   7.948 -4.2251  3.8438 -0.5368
  264MOL0     H35613   8.838   4.011   8.088  2.5761 -0.3494  0.8145
  264MOL0     H35614   8.993   4.270   8.086  0.5957 -0.6385  1.0862
  264MOL0     H35615   9.000   4.170   8.221 -1.1659 -2.3312  0.0154
  264MOL0     H35616   9.193   4.162   8.034 -0.8495 -0.2549 -0.8011
  264MOL0     H35617   9.085   4.072   7.942  1.1030  2.1064 -0.8025
  264MOL0     H35618   9.082   3.914   8.171 -0.8167  3.5142  0.9532
  264MOL0     H35619   9.229   3.920   8.061  0.2518 -1.1158  0.0469
  264MOL0     H35620   8.175   4.183   8.054  0.8570 -1.1856 -0.9814
  264MOL0     H35621   7.927   4.217   8.045 -1.3683  0.2260 -2.0175
  264MOL0     H35622   7.565   4.295   7.885 -0.9796 -1.5101  3.0350
  264MOL0     H35623   7.335   4.291   7.867  1.5914 -0.4775  0.7826
  264MOL0     H35624   5.551   4.670   8.085  1.9085  1.2860 -0.5068
  264MOL0     H35625   5.270   4.674   8.123 -1.2586  0.4215 -3.4995
  264MOL0     H35626   4.942   4.772   8.047 -1.1715 -1.1024 -0.5946
  264MOL0     H35627   4.733   4.668   8.074 -3.7593  1.4101  0.7029
  264MOL0     H35628   4.481   4.790   8.414 -1.7468  0.6235 -2.2327
  264MOL0     H35629   4.532   4.630   8.474  0.4563  2.3995  1.7496
  264MOL0     H35630   4.361   4.521   8.315  2.8346  0.5714 -1.4961
  264MOL0     H35631   4.292   4.673   8.278 -1.3691 -0.6065 -0.3262
  264MOL0     H35632   4.216   4.744   8.464  1.0469  1.3161 -1.8636
  264MOL0     H35633   4.319   4.632   8.572 -2.2019 -1.2860 -0.2819
  264MOL0     H35634   4.190   4.456   8.427  1.2872  1.4738 -0.4555
  264MOL0     H35635   4.142   4.511   8.595  1.5809  3.6741  1.0972
  264MOL0     H35636   3.849   4.684   8.352  0.7043  2.8975  0.8193
  264MOL0     H35637   4.704   4.808   8.480  2.1890  0.3114  0.3750
  264MOL0     H35638   4.886   4.923   8.575  0.5849 -0.1668  0.3063
  264MOL0     H35639   5.048   4.872   8.518 -0.8693  0.1067  1.5032
  264MOL0     H35640   4.977   5.034   8.478  1.8495  0.1303 -1.7374
  265MOL0     O35641   8.193   1.779   6.063  0.1201  0.0999 -0.2832
  265MOL0     C35642   8.160   1.681   5.993  0.4711  0.4081 -0.3907
  265MOL0     O35643   8.243   1.620   5.906 -0.3938 -0.0112 -0.0278
  265MOL0     C35644   8.379   1.627   5.926  0.5857 -0.5388 -0.2704
  265MOL0     C35645   8.452   1.651   5.809  0.6258  0.3303 -0.3587
  265MOL0     C35646   8.595   1.636   5.816  0.6780 -0.2801  0.3439
  265MOL0     C35647   8.657   1.628   5.941  0.1650 -0.7686 -0.0437
  265MOL0     O35648   8.799   1.614   5.938  0.1935  0.2138 -0.3964
  265MOL0     C35649   8.876   1.669   6.037  0.0996  0.0974  1.0120
  265MOL0     C35650   9.013   1.685   5.975 -0.5553  0.4789  0.8071
  265MOL0     C35651   9.091   1.794   6.036 -0.8118  0.3841 -0.3892
  265MOL0     C35652   9.227   1.810   5.967 -0.1731  0.3222  0.1030
  265MOL0     C35653   9.286   1.954   5.983  0.2717  0.0943 -0.0077
  265MOL0     C35654   9.446   1.942   5.973  1.0255  0.1726 -0.7867
  265MOL0     C35655   9.493   1.867   5.853  0.2128  0.2309  0.3181
  265MOL0     C35656   9.639   1.850   5.840  0.5836  0.1216  0.4573
  265MOL0     N35657   9.717   1.969   5.838  0.2565  0.1649 -0.1022
  265MOL0     C35658   9.769   2.015   5.959 -0.1992 -0.3062  0.2668
  265MOL0     C35659   9.863   2.109   5.921  0.4478 -0.0674 -0.0661
  265MOL0     C35660   9.942   2.204   6.013  0.3059 -0.8533 -0.2287
  265MOL0     C35661  10.050   2.117   6.087  0.2254  0.7377 -0.0047
  265MOL0     C35662  10.153   2.194   6.162 -0.8301 -0.2258 -0.3986
  265MOL0     C35663  10.249   2.260   6.063  0.2914  0.6951 -0.0582
  265MOL0     O35664  10.358   2.290   6.152  0.3169 -0.2947 -0.4251
  265MOL0     C35665  10.436   2.397   6.114 -0.4883 -0.4919 -0.0257
  265MOL0     C35666  10.433   2.443   5.979 -0.3958  0.4790  0.3437
  265MOL0     C35667  10.507   2.555   5.937  0.3831  0.0843 -0.5659
  265MOL0     C35668  10.584   2.622   6.029  0.3065 -0.2262  0.0722
  265MOL0     C35669  10.654   2.746   5.999 -0.1269 -0.1243  0.3906
  265MOL0     O35670  10.663   2.772   5.869  0.4055  0.5975  0.1706
  265MOL0     C35671  10.741   2.880   5.834 -0.2994  0.4494 -0.8352
  265MOL0     C35672  10.694   2.938   5.717 -0.2216 -0.3157  0.1713
  265MOL0     C35673  10.759   3.039   5.650 -1.2702  0.8990  0.1308
  265MOL0     C35674  10.876   3.092   5.708  0.9298 -0.0351  0.0232
  265MOL0     O35675  10.946   3.200   5.645  0.8335 -0.4681 -0.0128
  265MOL0     C35676  10.999   3.300   5.729 -0.3270 -0.2645 -0.3643
  265MOL0     C35677  11.032   3.439   5.660  0.2135 -0.1862 -0.0843
  265MOL0     C35678  11.111   3.523   5.755 -0.1907  0.0120  0.4483
  265MOL0     C35679  11.115   3.670   5.705  0.3749  0.1005 -0.2211
  265MOL0     C35680  11.169   3.761   5.815 -0.2986 -0.3665  0.1646
  265MOL0     C35681  11.185   3.901   5.751 -0.2085  0.4178  0.0646
  265MOL0     C35682  11.295   3.930   5.644  0.1619 -0.1480 -0.7996
  265MOL0     C35683  11.439   3.900   5.692  0.1716 -0.3871  0.3186
  265MOL0    Cl35684  11.560   3.960   5.568 -0.0921 -0.5711 -0.5599
  265MOL0     C35685  10.922   3.040   5.831  0.3026  0.1897 -0.0501
  265MOL0     C35686  10.863   2.930   5.892  0.5964 -0.0098  0.2542
  265MOL0     O35687  10.699   2.814   6.091 -0.2184  0.3766  0.5351
  265MOL0     C35688  10.600   2.570   6.159  0.5201  0.1601 -0.5046
  265MOL0     C35689  10.522   2.461   6.203  0.0601  0.2643 -0.3294
  265MOL0     N35690   9.874   2.103   5.787  0.3367  0.6255 -0.2060
  265MOL0     N35691   9.795   2.013   5.742 -0.0036  0.0689  0.1849
  265MOL0     C35692   8.584   1.623   6.059  0.5473  0.8534  0.3433
  265MOL0     C35693   8.443   1.620   6.053  0.7286 -0.2593 -0.5435
  265MOL0     C35694   8.019   1.638   5.989 -0.4581 -0.2205 -1.3666
  265MOL0     C35695   7.989   1.518   5.920 -0.2179 -0.1390  0.5598
  265MOL0     C35696   7.855   1.470   5.916 -0.1796 -0.1090 -1.2576
  265MOL0     C35697   7.759   1.522   6.002  0.5892  0.2586 -0.0373
  265MOL0     O35698   7.642   1.454   6.012 -0.3061 -0.1625 -0.0073
  265MOL0     C35699   7.643   1.367   6.127  0.2107 -0.8500 -0.3745
  265MOL0     C35700   7.515   1.289   6.137  0.0602 -0.2586 -0.2906
  265MOL0     C35701   7.502   1.208   6.013  0.0631 -0.1868  0.4501
  265MOL0     C35702   7.367   1.147   5.991 -0.9395 -0.4171  0.6113
  265MOL0     C35703   7.329   1.057   6.098 -0.2104  0.3869 -0.6411
  265MOL0     C35704   7.302   0.980   6.187  0.1375 -0.1609 -0.0031
  265MOL0     C35705   7.790   1.633   6.076  0.2200 -0.4955  0.2290
  265MOL0     C35706   7.918   1.693   6.067 -0.2275 -0.2991 -0.6985
  265MOL0     C35707   7.932   1.827   6.142  0.3001 -0.4820 -0.6611
  265MOL0     H35708   8.398   1.652   5.715  2.2827 -0.7225 -1.3712
  265MOL0     H35709   8.666   1.639   5.734  1.9116 -2.4157  1.2474
  265MOL0     H35710   8.832   1.765   6.064 -0.1120  2.0370 -4.6989
  265MOL0     H35711   8.885   1.597   6.119  0.2926 -1.2259 -0.1280
  265MOL0     H35712   9.006   1.707   5.869 -0.6608 -2.1595  0.1962
  265MOL0     H35713   9.059   1.586   5.984  0.0033  0.7678  1.1558
  265MOL0     H35714   9.110   1.761   6.138 -0.0884 -1.1113 -0.9646
  265MOL0     H35715   9.034   1.887   6.042 -0.5619  0.5502 -0.5790
  265MOL0     H35716   9.293   1.745   6.024  0.2178  0.0204 -0.6795
  265MOL0     H35717   9.228   1.781   5.862  0.1948  0.2699  0.1208
  265MOL0     H35718   9.243   2.025   5.911  3.3179  3.5651  1.2868
  265MOL0     H35719   9.266   2.005   6.078 -0.7488 -1.0964  0.4363
  265MOL0     H35720   9.492   2.041   5.984 -0.0612  0.4384  2.5126
  265MOL0     H35721   9.482   1.888   6.061  0.9786 -0.6093 -1.2431
  265MOL0     H35722   9.451   1.919   5.766  0.2992  2.0954  1.3280
  265MOL0     H35723   9.453   1.765   5.854  1.2620 -0.2464 -1.6808
  265MOL0     H35724   9.674   1.803   5.933  2.2723  0.9863  0.3093
  265MOL0     H35725   9.662   1.782   5.757  4.0844  1.1817  0.4002
  265MOL0     H35726   9.730   1.985   6.056 -0.8432 -2.3988 -0.5961
  265MOL0     H35727   9.990   2.285   5.959  0.2145 -0.8001 -0.2315
  265MOL0     H35728   9.866   2.253   6.076  1.4611  0.0872  0.4905
  265MOL0     H35729   9.993   2.050   6.152  1.0170 -0.1484 -0.2051
  265MOL0     H35730  10.100   2.051   6.017  0.8064  1.8652 -0.6805
  265MOL0     H35731  10.209   2.132   6.233  1.5737  1.7568 -0.4099
  265MOL0     H35732  10.108   2.264   6.234 -0.7382 -1.5113  0.9482
  265MOL0     H35733  10.195   2.350   6.033 -2.6496 -0.3391  1.7535
  265MOL0     H35734  10.277   2.204   5.974 -1.7236  1.2002 -1.0477
  265MOL0     H35735  10.385   2.394   5.896  1.8314 -0.4807 -0.4618
  265MOL0     H35736  10.509   2.605   5.841  1.1172  0.2055 -0.4981
  265MOL0     H35737  10.608   2.898   5.663  0.0620 -0.0455 -0.4941
  265MOL0     H35738  10.734   3.073   5.550 -0.6604  0.2231 -0.2648
  265MOL0     H35739  10.936   3.307   5.819  2.1465  0.0858  1.4619
  265MOL0     H35740  11.090   3.250   5.764 -1.2004 -2.1611 -0.6536
  265MOL0     H35741  11.092   3.427   5.569  0.3039  0.7732 -0.1651
  265MOL0     H35742  10.940   3.486   5.624  1.5753  1.4719 -1.6706
  265MOL0     H35743  11.057   3.526   5.851  1.6410  0.2428  1.5212
  265MOL0     H35744  11.213   3.492   5.777  0.7521  2.9102  0.5700
  265MOL0     H35745  11.015   3.710   5.683  1.1395  1.4834 -1.2919
  265MOL0     H35746  11.174   3.672   5.613  0.6027  0.9264 -0.0609
  265MOL0     H35747  11.273   3.730   5.829  0.9149  1.7839 -2.9797
  265MOL0     H35748  11.111   3.775   5.907 -2.5874  1.0395 -1.3952
  265MOL0     H35749  11.094   3.920   5.693 -1.7630 -0.8967  1.9308
  265MOL0     H35750  11.199   3.966   5.837 -1.4734  1.0643 -0.1898
  265MOL0     H35751  11.292   4.035   5.616 -1.4999  0.0310 -0.0553
  265MOL0     H35752  11.278   3.866   5.556  0.2620 -1.4640  0.1009
  265MOL0     H35753  11.462   3.949   5.786  4.0254  1.4461 -1.3688
  265MOL0     H35754  11.458   3.792   5.702 -0.4165 -0.7640 -1.9921
  265MOL0     H35755  11.022   3.066   5.865  1.2909 -0.5073 -2.2192
  265MOL0     H35756  10.911   2.876   5.973 -0.8063 -1.7010  0.0019
  265MOL0     H35757  10.662   2.626   6.228  1.2760  0.5876 -1.5034
  265MOL0     H35758  10.530   2.414   6.300 -0.8373  1.6210  0.4398
  265MOL0     H35759   8.642   1.620   6.151  1.3980  0.5173 -0.1857
  265MOL0     H35760   8.390   1.581   6.139  1.9037 -0.3516  0.1626
  265MOL0     H35761   8.060   1.458   5.865  1.1490  1.3157  0.6706
  265MOL0     H35762   7.831   1.384   5.855 -0.2098  1.0145 -2.8976
  265MOL0     H35763   7.666   1.440   6.205 -1.1678  1.3366 -1.9036
  265MOL0     H35764   7.729   1.301   6.114 -0.0042 -0.9929 -1.0966
  265MOL0     H35765   7.422   1.338   6.169 -1.2559 -1.4737 -2.0774
  265MOL0     H35766   7.531   1.222   6.223  0.0262  1.5276  1.1636
  265MOL0     H35767   7.574   1.127   6.004 -1.3557 -1.4079 -0.3028
  265MOL0     H35768   7.511   1.271   5.924 -0.7580 -1.9817 -0.9645
  265MOL0     H35769   7.286   1.219   5.977 -1.9331 -1.6906 -0.5427
  265MOL0     H35770   7.367   1.089   5.898  1.7804 -2.3040  1.6817
  265MOL0     H35771   7.272   0.910   6.262 -3.8474 -1.9804 -2.9437
  265MOL0     H35772   7.714   1.674   6.142 -1.4131  0.0407 -1.8681
  265MOL0     H35773   7.965   1.819   6.246  1.8269 -1.4081 -1.1708
  265MOL0     H35774   8.002   1.900   6.101  1.0437 -1.5666 -1.3915
  265MOL0     H35775   7.834   1.874   6.142  0.5901  0.1681  0.5266
  266MOL0     O35776  10.621   9.043   7.237  0.3332  0.4883  0.3975
  266MOL0     C35777  10.614   8.962   7.325  0.3420 -0.1108 -0.4046
  266MOL0     O35778  10.709   8.945   7.422  0.8064 -0.5771 -0.7042
  266MOL0     C35779  10.833   8.997   7.417  0.2632  0.2698  0.1953
  266MOL0     C35780  10.939   8.930   7.361 -0.0579  0.1591  0.2339
  266MOL0     C35781  11.059   8.988   7.333  0.0444 -0.9364 -0.7977
  266MOL0     C35782  11.078   9.124   7.372  0.0858  0.3571 -0.3394
  266MOL0     O35783  11.193   9.185   7.332  0.4052 -0.2670 -0.3776
  266MOL0     C35784  11.186   9.331   7.327 -0.4635 -0.4413 -0.0325
  266MOL0     C35785  11.315   9.385   7.261  0.6327  0.4300  0.2311
  266MOL0     C35786  11.436   9.360   7.350  0.0366  0.1035  0.4115
  266MOL0     C35787  11.558   9.442   7.302 -0.1464  0.4193 -0.0068
  266MOL0     C35788  11.631   9.373   7.186  0.4895 -0.2464  0.1067
  266MOL0     C35789  11.739   9.278   7.242  0.1590 -0.8120  0.4481
  266MOL0     C35790  11.812   9.206   7.134 -0.4468  0.3157 -0.9122
  266MOL0     C35791  11.920   9.122   7.198 -0.3409 -0.4838 -0.2971
  266MOL0     N35792  11.986   9.037   7.104  0.0636  0.5642 -0.3211
  266MOL0     C35793  11.992   8.899   7.111  0.8211 -0.2817 -0.7258
  266MOL0     C35794  12.079   8.867   7.015 -0.0846 -0.0291  0.4331
  266MOL0     C35795  12.140   8.722   7.010 -0.3235 -0.2591  0.2144
  266MOL0     C35796  12.263   8.693   7.097  0.4023  0.6196 -0.5814
  266MOL0     C35797  12.303   8.547   7.063 -0.5677  0.1438 -0.5939
  266MOL0     C35798  12.423   8.494   7.146  0.9841  0.6373 -0.6150
  266MOL0     O35799  12.466   8.358   7.125  0.0761  0.2705  0.4111
  266MOL0     C35800  12.593   8.322   7.167  0.4833 -0.2178  0.8056
  266MOL0     C35801  12.663   8.402   7.261 -0.3392 -0.0260  0.8670
  266MOL0     C35802  12.792   8.357   7.313  0.1194  0.1604  0.1344
  266MOL0     C35803  12.841   8.233   7.272  0.1090 -0.2372  0.2110
  266MOL0     C35804  12.982   8.192   7.314 -0.0686  0.6035 -0.0884
  266MOL0     O35805  13.018   8.062   7.307  0.0245  0.1331 -0.2912
  266MOL0     C35806  13.137   8.033   7.368 -0.3876 -0.7326 -0.2998
  266MOL0     C35807  13.139   7.946   7.478  0.1220 -0.1210  0.0144
  266MOL0     C35808  13.256   7.911   7.544 -0.9329  0.0085  0.3655
  266MOL0     C35809  13.383   7.953   7.500 -0.6480  0.0716  0.8663
  266MOL0     O35810  13.493   7.923   7.575  0.0564 -0.6217 -0.8234
  266MOL0     C35811  13.599   8.022   7.586  0.4159  0.3266  0.3597
  266MOL0     C35812  13.711   7.949   7.653  0.3959  0.3180 -0.2844
  266MOL0     C35813  13.845   8.016   7.639  0.4793 -0.0674  0.9436
  266MOL0     C35814  13.949   7.977   7.751 -0.0844  0.0137 -0.5410
  266MOL0     C35815  14.014   7.845   7.712 -0.5427  0.3406 -0.5384
  266MOL0     C35816  14.116   7.802   7.815  0.3268  0.1149  0.3501
  266MOL0     C35817  14.201   7.685   7.757 -0.4337 -0.0501  0.0021
  266MOL0     C35818  14.292   7.620   7.854  0.7525  0.5015 -0.2290
  266MOL0    Cl35819  14.405   7.510   7.776 -0.0970 -0.3295 -0.0569
  266MOL0     C35820  13.384   8.033   7.382 -0.4068 -0.6610 -0.3859
  266MOL0     C35821  13.261   8.076   7.315 -0.5351  0.4255  0.5648
  266MOL0     O35822  13.049   8.282   7.362  1.1956  0.1370  0.1137
  266MOL0     C35823  12.774   8.163   7.175  0.7835  0.5421  0.2441
  266MOL0     C35824  12.649   8.202   7.127 -0.4867  0.7548  0.4133
  266MOL0     N35825  12.132   8.979   6.959  0.4080  0.7182  0.0278
  266MOL0     N35826  12.081   9.084   7.016 -0.2192 -0.1551 -0.3382
  266MOL0     C35827  10.965   9.193   7.423 -0.6701  0.3461  0.7382
  266MOL0     C35828  10.850   9.129   7.456  0.2668  0.6196  0.2434
  266MOL0     C35829  10.482   8.883   7.340 -0.6877 -0.1807 -0.0957
  266MOL0     C35830  10.451   8.831   7.463  0.4165  0.3921 -0.8477
  266MOL0     C35831  10.323   8.781   7.496 -0.0554  0.1341 -0.0999
  266MOL0     C35832  10.225   8.770   7.389 -0.3238 -0.4571 -0.9476
  266MOL0     O35833  10.101   8.716   7.411  0.4950 -0.2846  0.2290
  266MOL0     C35834  10.078   8.607   7.502  0.4331  0.5345  0.5581
  266MOL0     C35835   9.967   8.641   7.604 -0.2539  0.5043 -1.0729
  266MOL0     C35836   9.825   8.598   7.554 -0.4744  0.2735 -0.3018
  266MOL0     C35837   9.770   8.674   7.426 -0.2730 -0.8004 -0.5541
  266MOL0     C35838   9.623   8.644   7.412  0.4297 -0.7030 -0.1691
  266MOL0     C35839   9.513   8.615   7.386 -0.3012  0.5923  0.1606
  266MOL0     C35840  10.261   8.806   7.253 -0.2253  0.6722 -0.7563
  266MOL0     C35841  10.388   8.865   7.231  0.3925 -0.6605  0.1344
  266MOL0     C35842  10.411   8.903   7.085 -0.5449 -0.2830  0.2646
  266MOL0     H35843  10.924   8.826   7.335  2.1668  0.3212 -2.0886
  266MOL0     H35844  11.146   8.927   7.311  0.2717 -1.3317  1.0010
  266MOL0     H35845  11.105   9.356   7.258  0.4415 -0.0198 -0.9763
  266MOL0     H35846  11.163   9.377   7.423 -3.4123 -2.0591  0.1265
  266MOL0     H35847  11.303   9.492   7.242 -0.5412  0.1560 -0.7349
  266MOL0     H35848  11.332   9.338   7.163  1.7475  1.1943  0.0375
  266MOL0     H35849  11.457   9.253   7.344 -1.0883 -0.0631 -1.2148
  266MOL0     H35850  11.413   9.401   7.449 -0.0142 -1.9107  1.2714
  266MOL0     H35851  11.532   9.538   7.258  0.6958 -0.0856 -1.7507
  266MOL0     H35852  11.626   9.468   7.383  0.0122  0.0748 -0.0265
  266MOL0     H35853  11.558   9.311   7.133 -1.5899  1.1236  1.2406
  266MOL0     H35854  11.669   9.453   7.121 -1.3269  0.8366  0.3061
  266MOL0     H35855  11.808   9.337   7.304 -1.6606  0.2355  1.5587
  266MOL0     H35856  11.694   9.197   7.300 -1.2882  0.3801  1.0552
  266MOL0     H35857  11.860   9.269   7.059  1.2488 -1.6672 -1.5943
  266MOL0     H35858  11.741   9.144   7.077 -1.4142  0.4980  0.0649
  266MOL0     H35859  11.999   9.186   7.239 -0.2379 -0.2156 -0.9004
  266MOL0     H35860  11.879   9.061   7.279  2.5945  0.1641  1.8156
  266MOL0     H35861  11.937   8.845   7.187  0.7664  0.1184 -0.4771
  266MOL0     H35862  12.061   8.648   7.027  0.8524 -1.2602  1.5284
  266MOL0     H35863  12.181   8.706   6.909  3.1509 -2.1419  1.7468
  266MOL0     H35864  12.351   8.755   7.076  1.9917 -1.7031 -1.1257
  266MOL0     H35865  12.252   8.701   7.206  0.5563  1.6879 -0.6298
  266MOL0     H35866  12.326   8.537   6.957 -0.2310  0.7927 -0.5894
  266MOL0     H35867  12.214   8.489   7.092 -0.8045  0.3573 -0.8950
  266MOL0     H35868  12.409   8.504   7.254  1.1556 -1.4199 -0.3558
  266MOL0     H35869  12.503   8.565   7.122  0.7777  1.5502  1.2268
  266MOL0     H35870  12.626   8.496   7.300 -0.1739  0.4575 -0.1163
  266MOL0     H35871  12.854   8.411   7.384  0.1789 -1.5914  1.5002
  266MOL0     H35872  13.043   7.905   7.510  0.8265 -3.7261 -1.9419
  266MOL0     H35873  13.231   7.861   7.637  1.7479  0.5922  1.4889
  266MOL0     H35874  13.627   8.066   7.490 -0.1592  0.3887  0.2139
  266MOL0     H35875  13.561   8.101   7.651 -0.8828  2.1845 -2.4398
  266MOL0     H35876  13.684   7.932   7.758 -2.4748  0.6973 -0.8762
  266MOL0     H35877  13.717   7.850   7.607 -3.9885 -0.7857  1.0497
  266MOL0     H35878  13.885   7.980   7.543  0.1540 -1.1276  1.1897
  266MOL0     H35879  13.829   8.124   7.633  0.5001 -0.1355 -3.4582
  266MOL0     H35880  13.897   7.964   7.846  0.4112  1.6470 -0.0237
  266MOL0     H35881  14.017   8.062   7.747 -0.8227  0.5793 -2.4114
  266MOL0     H35882  14.057   7.870   7.614 -1.3355 -0.4783 -1.1142
  266MOL0     H35883  13.940   7.769   7.688 -0.4516  0.1713 -0.2923
  266MOL0     H35884  14.179   7.890   7.833 -0.4414  0.5362  1.0276
  266MOL0     H35885  14.063   7.769   7.905 -2.4402  1.2312 -0.7778
  266MOL0     H35886  14.266   7.725   7.678  2.2078 -0.6860  1.7199
  266MOL0     H35887  14.144   7.602   7.716  1.8690 -1.2544 -0.9230
  266MOL0     H35888  14.348   7.694   7.913 -1.1081  0.3422  1.8396
  266MOL0     H35889  14.233   7.560   7.924  2.2956 -2.6565 -1.4385
  266MOL0     H35890  13.477   8.060   7.333  0.0648 -2.5203 -0.6207
  266MOL0     H35891  13.260   8.133   7.223  1.7451 -2.2692 -1.2915
  266MOL0     H35892  12.823   8.073   7.141  0.6361  0.8435 -0.8008
  266MOL0     H35893  12.595   8.137   7.058 -0.7985 -0.9649  2.1797
  266MOL0     H35894  10.960   9.300   7.441 -1.0964  0.3503  0.6037
  266MOL0     H35895  10.762   9.188   7.483 -0.8343 -0.8142 -0.0769
  266MOL0     H35896  10.522   8.832   7.545 -0.2913 -1.2163 -0.1529
  266MOL0     H35897  10.299   8.747   7.596 -1.0975  2.4281  0.4920
  266MOL0     H35898  10.176   8.584   7.546  2.1260  3.1103 -1.5034
  266MOL0     H35899  10.042   8.524   7.441  0.5190  1.8952 -1.4347
  266MOL0     H35900   9.967   8.747   7.634 -1.1943  0.3299 -0.4130
  266MOL0     H35901   9.986   8.589   7.698 -4.1252 -1.0700 -0.9732
  266MOL0     H35902   9.754   8.618   7.635  2.3458 -0.3769  2.5385
  266MOL0     H35903   9.809   8.491   7.541 -1.4872  0.2120  1.2468
  266MOL0     H35904   9.781   8.782   7.441 -1.3475 -0.4747 -1.8437
  266MOL0     H35905   9.827   8.650   7.336 -1.7313 -0.0524 -1.7354
  266MOL0     H35906   9.409   8.591   7.379 -0.1469 -0.4224  1.1857
  266MOL0     H35907  10.193   8.788   7.171  1.4754 -0.2606 -2.0354
  266MOL0     H35908  10.517   8.895   7.056 -0.8217 -1.3577 -0.5148
  266MOL0     H35909  10.358   8.829   7.024  1.1373 -0.8597 -0.5851
  266MOL0     H35910  10.379   9.003   7.055  0.7285 -0.9844 -4.2673
  267MOL0     O35911   4.835   7.890   8.463  0.0557  0.8050  0.1528
  267MOL0     C35912   4.807   7.772   8.464 -0.8893 -0.3142 -0.8360
  267MOL0     O35913   4.872   7.684   8.540  0.8841 -0.3442  0.0474
  267MOL0     C35914   4.952   7.726   8.641 -0.3852  0.0557  0.2027
  267MOL0     C35915   4.902   7.802   8.744  0.3692  0.4233 -0.0652
  267MOL0     C35916   4.984   7.842   8.841 -0.4339  1.0688 -0.4562
  267MOL0     C35917   5.119   7.804   8.857  0.1975 -0.1169 -0.3229
  267MOL0     O35918   5.209   7.835   8.956  0.4755  0.0859 -0.4568
  267MOL0     C35919   5.160   7.885   9.080  0.3917  0.2119 -0.1857
  267MOL0     C35920   5.272   7.898   9.188  0.2186  0.1467  0.3277
  267MOL0     C35921   5.388   7.987   9.150 -0.1239  0.5272 -0.1779
  267MOL0     C35922   5.496   8.005   9.259  0.6558 -0.3065  0.1486
  267MOL0     C35923   5.611   8.095   9.209  1.4748 -0.3982  0.8706
  267MOL0     C35924   5.703   8.115   9.323 -0.8895  0.3422  0.5271
  267MOL0     C35925   5.833   8.189   9.297  0.4123 -0.4282 -0.3982
  267MOL0     C35926   5.920   8.182   9.429 -0.0417  1.3397  0.0370
  267MOL0     N35927   6.055   8.219   9.390 -0.4722 -0.1983 -1.4573
  267MOL0     C35928   6.173   8.156   9.410  0.3617  0.3627 -0.6989
  267MOL0     C35929   6.281   8.242   9.395  0.4758  1.1150  0.6714
  267MOL0     C35930   6.423   8.201   9.412 -0.9876 -0.3658 -0.4576
  267MOL0     C35931   6.462   8.269   9.543 -0.0264  0.0258 -0.5552
  267MOL0     C35932   6.586   8.199   9.600 -0.5468 -0.8547 -0.6567
  267MOL0     C35933   6.633   8.252   9.737 -0.0466  0.4112 -0.3106
  267MOL0     O35934   6.668   8.393   9.746 -0.7810 -0.0202  0.6300
  267MOL0     C35935   6.793   8.437   9.707  0.2888 -0.6546  0.5398
  267MOL0     C35936   6.889   8.362   9.648 -0.7242  0.4240 -0.5304
  267MOL0     C35937   7.013   8.420   9.612  0.1614  1.0507 -0.4265
  267MOL0     C35938   7.041   8.558   9.628  0.6615  0.5206 -0.4106
  267MOL0     C35939   7.175   8.613   9.589  0.5045 -0.1190 -0.5034
  267MOL0     O35940   7.280   8.518   9.596  0.1950  0.0453 -0.4458
  267MOL0     C35941   7.402   8.560   9.552  0.4507 -0.0088  0.9426
  267MOL0     C35942   7.517   8.515   9.615 -0.2596 -0.5682  0.0572
  267MOL0     C35943   7.647   8.529   9.561 -0.1413  0.3066  0.4432
  267MOL0     C35944   7.665   8.591   9.438 -0.4052  0.8409 -0.2055
  267MOL0     O35945   7.791   8.601   9.375  0.5739 -0.5015 -0.6560
  267MOL0     C35946   7.906   8.542   9.426  0.1378  1.1807 -0.0697
  267MOL0     C35947   8.007   8.519   9.312 -0.5365 -0.7125 -0.9535
  267MOL0     C35948   8.150   8.530   9.372 -0.3401 -0.2594  0.2706
  267MOL0     C35949   8.245   8.515   9.255  0.0665  0.2349 -0.2694
  267MOL0     C35950   8.395   8.481   9.289 -0.5698  0.1584  0.1365
  267MOL0     C35951   8.478   8.480   9.157 -0.6682  0.3830 -0.0832
  267MOL0     C35952   8.598   8.388   9.178  0.1240  0.4853  0.2501
  267MOL0     C35953   8.700   8.449   9.273 -0.1030  0.7497 -0.1021
  267MOL0    Cl35954   8.789   8.584   9.191  0.0201  0.2489  0.0828
  267MOL0     C35955   7.548   8.627   9.360  0.5135  0.4567 -0.5860
  267MOL0     C35956   7.422   8.608   9.418  0.2635  0.9699  0.1797
  267MOL0     O35957   7.184   8.735   9.567 -0.0584  0.4671  0.0679
  267MOL0     C35958   6.937   8.636   9.668 -0.4170  0.2778 -0.2502
  267MOL0     C35959   6.816   8.577   9.712 -0.4711 -0.0989  0.8778
  267MOL0     N35960   6.224   8.359   9.350 -0.6598 -0.3252 -0.0256
  267MOL0     N35961   6.091   8.345   9.347  0.3821 -0.6979  0.3818
  267MOL0     C35962   5.167   7.720   8.755  0.2178 -0.2456 -0.3156
  267MOL0     C35963   5.087   7.683   8.647 -0.4798 -0.1546  0.5960
  267MOL0     C35964   4.688   7.723   8.375  0.0177 -0.7182  0.4739
  267MOL0     C35965   4.659   7.586   8.370  1.0119 -0.0376 -0.1618
  267MOL0     C35966   4.559   7.539   8.288 -0.5331  0.0182 -0.2572
  267MOL0     C35967   4.478   7.626   8.219 -0.1897 -0.5675  0.9481
  267MOL0     O35968   4.377   7.565   8.153  0.4951 -0.5399 -0.3942
  267MOL0     C35969   4.267   7.648   8.106 -0.4083 -0.4086 -0.2478
  267MOL0     C35970   4.139   7.568   8.095 -0.4697  0.0935  0.4532
  267MOL0     C35971   4.127   7.488   7.964  0.1661 -0.0618 -0.6776
  267MOL0     C35972   3.978   7.467   7.930  0.9747  0.9752  0.8020
  267MOL0     C35973   3.926   7.588   7.865 -0.4928 -0.1772  0.3323
  267MOL0     C35974   3.902   7.696   7.815  0.3923  1.2980  0.1495
  267MOL0     C35975   4.503   7.767   8.229  0.1358  0.6940 -0.1056
  267MOL0     C35976   4.604   7.821   8.302 -0.7697  0.0939  0.3866
  267MOL0     C35977   4.608   7.964   8.328 -0.5889 -1.0930  0.5309
  267MOL0     H35978   4.797   7.830   8.742 -0.1791 -0.8634  3.3656
  267MOL0     H35979   4.931   7.914   8.902  0.1780  0.2583  1.0697
  267MOL0     H35980   5.113   7.983   9.065 -1.5105 -0.6540 -0.2291
  267MOL0     H35981   5.090   7.806   9.112  2.1859 -1.2964  0.1727
  267MOL0     H35982   5.306   7.796   9.210 -1.3797 -0.5931 -0.4884
  267MOL0     H35983   5.214   7.934   9.273 -0.7432  0.2832 -0.3732
  267MOL0     H35984   5.346   8.084   9.121  1.2340  1.7937  1.8263
  267MOL0     H35985   5.444   7.955   9.062  2.4071 -0.8629  1.7771
  267MOL0     H35986   5.457   8.049   9.351  0.5853  1.6456 -0.7707
  267MOL0     H35987   5.550   7.912   9.280  0.7865 -0.2966 -0.1422
  267MOL0     H35988   5.663   8.052   9.123  0.8531  2.6240 -1.2186
  267MOL0     H35989   5.566   8.192   9.182 -0.9275 -1.3900  1.0628
  267MOL0     H35990   5.643   8.168   9.398 -0.0539  0.6041  1.0244
  267MOL0     H35991   5.729   8.021   9.372 -0.0898  1.9435  3.4042
  267MOL0     H35992   5.813   8.296   9.287 -1.5696 -0.5050  1.8154
  267MOL0     H35993   5.883   8.136   9.215 -0.4528 -0.7680 -0.7185
  267MOL0     H35994   5.892   8.246   9.513  4.9275 -0.4787  3.5525
  267MOL0     H35995   5.929   8.080   9.467 -2.4928  0.7629 -0.7283
  267MOL0     H35996   6.183   8.056   9.451 -2.3346  0.7322  1.1135
  267MOL0     H35997   6.433   8.093   9.408 -0.0134 -0.2706 -0.9277
  267MOL0     H35998   6.494   8.232   9.335 -0.0639 -2.2629 -0.4110
  267MOL0     H35999   6.484   8.374   9.520  2.9390 -0.6010 -1.0010
  267MOL0     H36000   6.380   8.263   9.615  0.5915  0.1676  0.1849
  267MOL0     H36001   6.671   8.201   9.531  1.6091  2.1478  1.8278
  267MOL0     H36002   6.557   8.095   9.617 -0.3875 -0.5661  1.6452
  267MOL0     H36003   6.720   8.197   9.774 -0.3615  1.6579  2.5382
  267MOL0     H36004   6.558   8.226   9.812  0.0816 -3.2693 -1.2229
  267MOL0     H36005   6.876   8.255   9.645 -0.3894  0.1981  2.6678
  267MOL0     H36006   7.096   8.362   9.572  0.8044  1.2944  0.5248
  267MOL0     H36007   7.518   8.463   9.710 -0.9872 -2.5352 -0.9489
  267MOL0     H36008   7.738   8.490   9.605  0.6912 -0.2628 -1.6206
  267MOL0     H36009   7.939   8.603   9.510 -0.0135  0.1268  0.7822
  267MOL0     H36010   7.891   8.442   9.469  0.8183  0.6224 -1.0785
  267MOL0     H36011   7.988   8.419   9.272  0.0579 -0.9517 -0.6526
  267MOL0     H36012   8.000   8.603   9.242  0.4593  0.1106 -0.0935
  267MOL0     H36013   8.175   8.619   9.430  1.3576 -0.6418  0.1613
  267MOL0     H36014   8.173   8.446   9.439 -0.9494 -0.6725 -0.0256
  267MOL0     H36015   8.228   8.608   9.200  0.4046  1.8602  2.1852
  267MOL0     H36016   8.216   8.426   9.199 -0.6659 -1.9363  3.2569
  267MOL0     H36017   8.400   8.384   9.340  2.6887  0.4513  0.6325
  267MOL0     H36018   8.444   8.549   9.359 -3.1030  2.3544 -0.0687
  267MOL0     H36019   8.421   8.449   9.069  0.0838 -0.2149 -0.3763
  267MOL0     H36020   8.511   8.584   9.154  1.9766 -0.2313  2.5050
  267MOL0     H36021   8.650   8.358   9.086 -2.7167 -1.2862 -0.9081
  267MOL0     H36022   8.541   8.301   9.214  0.1676  1.2810  2.4164
  267MOL0     H36023   8.655   8.490   9.364 -3.1913 -1.7869 -0.3157
  267MOL0     H36024   8.770   8.373   9.309 -1.3516 -1.2113 -1.6160
  267MOL0     H36025   7.567   8.656   9.258  2.4190  1.9070  0.1240
  267MOL0     H36026   7.334   8.615   9.355  0.8362 -3.2991 -1.4462
  267MOL0     H36027   6.954   8.743   9.665  0.8698  0.0712 -0.6025
  267MOL0     H36028   6.735   8.639   9.747 -1.9063 -0.4387 -1.6025
  267MOL0     H36029   5.272   7.692   8.751  1.0466  2.3463  0.9584
  267MOL0     H36030   5.125   7.616   8.570 -0.1968  0.0061  0.5934
  267MOL0     H36031   4.714   7.509   8.422 -0.3716 -1.2817 -0.4695
  267MOL0     H36032   4.556   7.432   8.271  3.8106  0.0076 -2.2716
  267MOL0     H36033   4.281   7.697   8.009 -0.5607  1.2568  0.5368
  267MOL0     H36034   4.252   7.727   8.179  0.0863 -1.5666  1.1539
  267MOL0     H36035   4.063   7.645   8.111 -1.5969 -0.2002 -2.7671
  267MOL0     H36036   4.129   7.491   8.172  1.2225 -0.9873 -0.3457
  267MOL0     H36037   4.176   7.391   7.974  3.1111  1.0761 -2.7483
  267MOL0     H36038   4.182   7.539   7.884  0.7318  1.1049  0.4270
  267MOL0     H36039   3.973   7.384   7.859 -0.3733  2.4464 -0.9393
  267MOL0     H36040   3.923   7.440   8.020 -3.4916  0.3027 -1.8482
  267MOL0     H36041   3.887   7.796   7.780  0.2369  0.6475 -1.7311
  267MOL0     H36042   4.434   7.832   8.177 -1.5805  1.0953  2.4969
  267MOL0     H36043   4.530   8.022   8.279 -0.1441 -0.7913  0.1642
  267MOL0     H36044   4.603   7.989   8.434  0.5080  1.5578  0.0301
  267MOL0     H36045   4.700   8.007   8.287 -1.3992  1.3619  1.1200
  268MOL0     O36046   1.471   3.759  11.200 -0.0202  0.1623  0.6090
  268MOL0     C36047   1.432   3.833  11.108 -0.1559 -0.2981  1.0379
  268MOL0     O36048   1.515   3.929  11.051 -0.1837 -0.5315 -0.8274
  268MOL0     C36049   1.652   3.918  11.046 -0.0582  0.0804  0.4261
  268MOL0     C36050   1.718   4.037  11.039  0.0145  0.4139  0.1595
  268MOL0     C36051   1.859   4.057  11.033  0.2541 -0.1099  0.4100
  268MOL0     C36052   1.941   3.939  11.052  1.0141 -0.1300  0.3616
  268MOL0     O36053   2.079   3.950  11.072 -0.0951 -0.6686  0.0032
  268MOL0     C36054   2.139   4.041  11.172 -0.7347  0.0089 -0.0214
  268MOL0     C36055   2.291   4.081  11.153  0.0660 -0.2597 -0.2155
  268MOL0     C36056   2.318   4.164  11.030  0.6838 -0.4903  1.0523
  268MOL0     C36057   2.460   4.202  11.021 -0.7851  0.5598 -1.1006
  268MOL0     C36058   2.484   4.332  10.938  0.6310  0.0947 -0.2179
  268MOL0     C36059   2.631   4.353  10.910  0.0085  0.1950 -0.0547
  268MOL0     C36060   2.728   4.331  11.021  0.3893 -0.1934 -0.7697
  268MOL0     C36061   2.871   4.363  10.970 -0.1775  0.1633 -0.0535
  268MOL0     N36062   2.894   4.498  10.929  0.3351 -0.2628 -0.5879
  268MOL0     C36063   2.881   4.608  11.012 -0.6518  0.7437 -0.4966
  268MOL0     C36064   2.910   4.715  10.932  0.1973  0.4680 -0.1569
  268MOL0     C36065   2.900   4.860  10.978 -0.2821  0.3304  0.6255
  268MOL0     C36066   3.021   4.908  11.059  0.7582  0.4527  0.6928
  268MOL0     C36067   3.156   4.905  10.978  0.1191 -0.0835 -0.8393
  268MOL0     C36068   3.258   4.994  11.049  0.7081 -0.2832  1.0449
  268MOL0     O36069   3.384   4.947  11.000  0.0808 -0.9714 -1.1439
  268MOL0     C36070   3.484   5.014  11.062 -0.5416  0.2733  0.7670
  268MOL0     C36071   3.613   4.948  11.050  0.4305 -0.6392 -0.8951
  268MOL0     C36072   3.734   5.004  11.094  0.4134  0.3816 -0.4284
  268MOL0     C36073   3.734   5.129  11.146 -0.1467 -0.0771  0.3530
  268MOL0     C36074   3.862   5.198  11.186 -0.1813  0.3910  0.2164
  268MOL0     O36075   3.978   5.123  11.171  0.3975  0.6820 -0.5345
  268MOL0     C36076   4.108   5.186  11.184 -0.4459  0.3791  0.6881
  268MOL0     C36077   4.224   5.121  11.134  0.1698  0.0862  0.2272
  268MOL0     C36078   4.351   5.178  11.135 -0.3351  0.9023  0.0852
  268MOL0     C36079   4.368   5.292  11.209 -0.2555  0.0018 -0.1258
  268MOL0     O36080   4.490   5.342  11.229  0.0251 -0.2255  0.1345
  268MOL0     C36081   4.577   5.336  11.113 -0.4476 -0.0086  0.1157
  268MOL0     C36082   4.684   5.438  11.142  0.3801 -0.7203  0.5290
  268MOL0     C36083   4.801   5.415  11.050  0.5423  0.8215  0.0808
  268MOL0     C36084   4.910   5.521  11.054 -0.0876 -0.3396 -0.3274
  268MOL0     C36085   5.002   5.489  11.175 -0.3843 -0.3170 -0.8599
  268MOL0     C36086   5.060   5.600  11.250  0.1346  0.3942  0.4232
  268MOL0     C36087   5.151   5.552  11.359  0.4820 -0.4130 -0.6099
  268MOL0     C36088   5.287   5.505  11.321 -0.6729 -0.0630 -0.2585
  268MOL0    Cl36089   5.365   5.640  11.240 -0.0189  0.2060  0.3983
  268MOL0     C36090   4.266   5.365  11.271  0.3265 -0.0198  0.4902
  268MOL0     C36091   4.137   5.307  11.250 -0.5487  0.1511 -0.9747
  268MOL0     O36092   3.857   5.315  11.223  0.3271 -0.4407 -0.2010
  268MOL0     C36093   3.610   5.196  11.153 -1.0885 -0.2325 -0.1055
  268MOL0     C36094   3.487   5.142  11.112 -0.1620 -1.9935  0.0129
  268MOL0     N36095   2.935   4.665  10.803  0.3709  0.5400 -0.2320
  268MOL0     N36096   2.922   4.538  10.801  0.3174 -0.3592 -0.5191
  268MOL0     C36097   1.875   3.814  11.042  1.0558 -0.1162 -0.2955
  268MOL0     C36098   1.732   3.804  11.046  0.0887 -0.7466 -0.1497
  268MOL0     C36099   1.295   3.807  11.047  0.2053  0.5779 -0.8300
  268MOL0     C36100   1.221   3.682  11.080 -0.8515 -0.4549 -0.0389
  268MOL0     C36101   1.104   3.648  11.017  0.3397  0.0949  0.2753
  268MOL0     C36102   1.045   3.729  10.928  0.7007  0.8561  0.7402
  268MOL0     O36103   0.926   3.681  10.867  0.3093  0.7911  0.4414
  268MOL0     C36104   0.873   3.744  10.752  0.5802  0.2160  0.5823
  268MOL0     C36105   0.728   3.689  10.723  0.6547 -0.9240 -0.0456
  268MOL0     C36106   0.628   3.734  10.831  0.2313 -0.1193  0.0765
  268MOL0     C36107   0.498   3.650  10.811 -0.3128  0.3025 -0.2946
  268MOL0     C36108   0.426   3.670  10.684 -1.0666  0.7350  0.4723
  268MOL0     C36109   0.365   3.681  10.580  0.2127 -0.5905  1.1456
  268MOL0     C36110   1.116   3.848  10.890 -0.0265  0.0442 -0.5647
  268MOL0     C36111   1.237   3.888  10.946 -0.0101  0.0255  0.4472
  268MOL0     C36112   1.306   4.020  10.892 -0.2826 -0.6186  0.1083
  268MOL0     H36113   1.661   4.129  11.036 -1.2583 -0.2477  2.1165
  268MOL0     H36114   1.910   4.152  11.041  0.5357 -0.0381 -1.5506
  268MOL0     H36115   2.078   4.129  11.198  0.4413  0.8064  0.1060
  268MOL0     H36116   2.141   3.979  11.262  1.6516 -0.1327 -0.1259
  268MOL0     H36117   2.359   3.997  11.166 -1.2632 -1.2044  0.9687
  268MOL0     H36118   2.327   4.138  11.239 -0.1055  1.8467 -1.4756
  268MOL0     H36119   2.261   4.255  11.051  1.3922 -0.1853  1.7377
  268MOL0     H36120   2.293   4.107  10.940 -1.1443  2.8812 -0.7591
  268MOL0     H36121   2.505   4.218  11.119  1.3563 -5.5555 -0.6685
  268MOL0     H36122   2.511   4.115  10.978 -1.5371 -0.9801  0.9455
  268MOL0     H36123   2.422   4.334  10.848  0.3070 -1.9416 -0.0946
  268MOL0     H36124   2.450   4.423  10.989  0.1236 -0.7399  0.9861
  268MOL0     H36125   2.666   4.293  10.825  3.4270  1.2515  0.4988
  268MOL0     H36126   2.643   4.454  10.872  0.8822 -0.1948 -0.8564
  268MOL0     H36127   2.733   4.225  11.047  1.5873  0.1104  0.3333
  268MOL0     H36128   2.702   4.384  11.113 -1.1913 -0.6980 -0.8895
  268MOL0     H36129   2.939   4.330  11.049 -2.9700 -0.0399  2.4320
  268MOL0     H36130   2.888   4.301  10.881 -2.2265 -1.4272  0.5910
  268MOL0     H36131   2.859   4.605  11.118 -0.6720 -1.9359 -0.5056
  268MOL0     H36132   2.890   4.911  10.882  0.4703 -0.4173  0.1329
  268MOL0     H36133   2.811   4.886  11.035  1.0670  2.3277  1.9478
  268MOL0     H36134   3.012   5.012  11.091  0.2909  0.1775  1.4679
  268MOL0     H36135   3.031   4.845  11.148  3.3611 -1.1416 -0.6089
  268MOL0     H36136   3.146   4.935  10.873  3.7457  0.1228 -1.2625
  268MOL0     H36137   3.204   4.807  10.971 -2.1491 -1.7801  3.4225
  268MOL0     H36138   3.247   4.981  11.157  0.2747 -4.6504  0.6237
  268MOL0     H36139   3.246   5.098  11.017  4.2331  0.0014  0.2725
  268MOL0     H36140   3.611   4.854  10.996 -2.2603 -0.9676 -0.3456
  268MOL0     H36141   3.830   4.954  11.085  0.4075  0.5084 -1.3024
  268MOL0     H36142   4.209   5.023  11.090 -1.7523  0.6951 -0.5601
  268MOL0     H36143   4.427   5.124  11.080 -0.2683 -0.8134  1.7592
  268MOL0     H36144   4.624   5.238  11.110  2.9565  1.0520  5.0720
  268MOL0     H36145   4.524   5.357  11.020  0.8950  0.5758 -0.5400
  268MOL0     H36146   4.652   5.536  11.106 -0.9179 -1.6241 -0.8931
  268MOL0     H36147   4.711   5.428  11.247 -1.3426 -1.5878  0.9238
  268MOL0     H36148   4.840   5.314  11.066  0.1325  0.8425  1.3141
  268MOL0     H36149   4.774   5.412  10.944  1.4326  1.0532 -0.1633
  268MOL0     H36150   4.871   5.623  11.059  0.2263 -0.2305 -0.0877
  268MOL0     H36151   4.974   5.504  10.966  0.7928  1.2978 -0.0541
  268MOL0     H36152   5.087   5.425  11.145 -0.4936 -0.9647  0.1530
  268MOL0     H36153   4.948   5.430  11.249 -1.3267  1.7707  0.1925
  268MOL0     H36154   5.110   5.661  11.174 -3.3885 -0.1100 -2.5585
  268MOL0     H36155   4.979   5.661  11.291 -1.1079 -1.4407  0.8480
  268MOL0     H36156   5.104   5.481  11.428  0.6037  1.1397  1.1551
  268MOL0     H36157   5.168   5.639  11.423 -1.7556 -0.8581  0.6967
  268MOL0     H36158   5.343   5.484  11.413 -0.0457 -1.5799 -0.9510
  268MOL0     H36159   5.288   5.406  11.274 -3.4470 -0.3785  0.1757
  268MOL0     H36160   4.267   5.460  11.323 -3.5614  0.4147  0.0839
  268MOL0     H36161   4.059   5.356  11.307  0.9260 -0.7799  2.0133
  268MOL0     H36162   3.613   5.300  11.185  3.8493 -0.5311  1.2336
  268MOL0     H36163   3.403   5.210  11.124  0.9631 -0.3324 -1.0827
  268MOL0     H36164   1.922   3.718  11.030  1.2406 -0.0217 -0.3252
  268MOL0     H36165   1.682   3.708  11.038 -2.9699  0.4718  2.2262
  268MOL0     H36166   1.270   3.609  11.143  2.2524 -0.4385 -2.1860
  268MOL0     H36167   1.071   3.545  11.028 -0.8889  0.6282  2.0718
  268MOL0     H36168   0.937   3.718  10.668  0.7544 -0.2451  0.8556
  268MOL0     H36169   0.885   3.853  10.752  0.5108  0.2337  1.4474
  268MOL0     H36170   0.735   3.580  10.712 -1.8786 -1.2171  0.6704
  268MOL0     H36171   0.694   3.727  10.626 -1.4318  0.4234  1.1398
  268MOL0     H36172   0.608   3.842  10.833 -1.2581 -0.3429 -1.1465
  268MOL0     H36173   0.669   3.712  10.930  0.4700  2.0323  0.5035
  268MOL0     H36174   0.515   3.543  10.830  0.3213  0.5501  0.6163
  268MOL0     H36175   0.434   3.682  10.894 -0.6796 -0.6263 -0.2025
  268MOL0     H36176   0.327   3.703  10.482  4.3469  0.4747 -0.4382
  268MOL0     H36177   1.081   3.909  10.808 -2.1493  0.1687  0.3555
  268MOL0     H36178   1.391   3.998  10.827 -0.2928 -0.4658  0.0426
  268MOL0     H36179   1.234   4.089  10.847 -1.4439 -1.1276  1.1321
  268MOL0     H36180   1.345   4.088  10.969 -0.5899  0.0102 -0.2821
  269MOL0     O36181   2.923   9.125   3.852  0.0841 -0.3886 -0.2137
  269MOL0     C36182   2.864   9.042   3.767 -0.1763 -0.7377 -0.0571
  269MOL0     O36183   2.910   8.924   3.725  0.7436  0.1368 -0.1911
  269MOL0     C36184   3.025   8.875   3.776 -0.2369  0.1698  0.0325
  269MOL0     C36185   3.126   8.830   3.688 -0.1299  0.1863 -0.2662
  269MOL0     C36186   3.242   8.763   3.731  0.4263 -0.1405  0.0652
  269MOL0     C36187   3.265   8.750   3.868  0.8775  0.1983 -0.6454
  269MOL0     O36188   3.371   8.701   3.932  0.1659  0.1337 -0.1379
  269MOL0     C36189   3.433   8.580   3.887  0.5412  0.1484  0.4384
  269MOL0     C36190   3.526   8.518   3.996  0.3023 -0.0994  0.3948
  269MOL0     C36191   3.626   8.624   4.039 -0.3835  0.4325  0.7508
  269MOL0     C36192   3.715   8.575   4.157  0.7445 -0.1821  0.1935
  269MOL0     C36193   3.810   8.687   4.191 -0.6388 -1.0055 -0.7671
  269MOL0     C36194   3.746   8.805   4.273 -0.0749  0.5305  0.0525
  269MOL0     C36195   3.845   8.918   4.301 -0.2864 -0.2944  0.4633
  269MOL0     C36196   3.807   9.027   4.396  0.5572 -0.1856 -0.1625
  269MOL0     N36197   3.827   8.968   4.534 -0.1563 -0.2801 -0.0817
  269MOL0     C36198   3.954   8.937   4.581  0.0991 -0.8571  0.8911
  269MOL0     C36199   3.942   8.892   4.705 -0.3332 -0.2600 -1.0545
  269MOL0     C36200   4.050   8.855   4.804 -0.0329  0.0374  0.0291
  269MOL0     C36201   4.113   8.973   4.875 -0.2133 -1.1403 -0.1814
  269MOL0     C36202   4.042   9.007   5.004  0.4826 -0.1477  0.7413
  269MOL0     C36203   4.104   9.130   5.062 -0.4412  0.3654 -0.2694
  269MOL0     O36204   4.254   9.139   5.074  0.4495 -0.4098  0.1620
  269MOL0     C36205   4.316   9.065   5.166  0.5037 -0.0775  0.3685
  269MOL0     C36206   4.453   9.067   5.146  0.3640 -0.1098  0.0398
  269MOL0     C36207   4.531   8.990   5.234  0.1794 -0.4691  0.5161
  269MOL0     C36208   4.476   8.911   5.339 -0.0839 -0.7577  0.1707
  269MOL0     C36209   4.556   8.826   5.424  1.1518 -0.0140 -0.5099
  269MOL0     O36210   4.484   8.759   5.523  0.9913 -0.0221  0.0008
  269MOL0     C36211   4.560   8.674   5.607 -0.2440 -0.5752  0.5799
  269MOL0     C36212   4.663   8.718   5.680 -0.7267 -0.7206  0.1517
  269MOL0     C36213   4.737   8.630   5.763 -0.0265 -0.1804 -1.1917
  269MOL0     C36214   4.691   8.502   5.798  0.9459  0.1066  0.2616
  269MOL0     O36215   4.761   8.424   5.887  0.2127  0.1122  0.0829
  269MOL0     C36216   4.800   8.292   5.838 -0.5686 -0.3600 -0.1127
  269MOL0     C36217   4.927   8.242   5.889  0.6652  0.3345 -0.0234
  269MOL0     C36218   5.052   8.306   5.836  0.2515  0.6501  0.5814
  269MOL0     C36219   5.172   8.240   5.907  0.6303  0.9763  0.6179
  269MOL0     C36220   5.295   8.267   5.821 -0.4876  0.1427  0.6630
  269MOL0     C36221   5.434   8.227   5.873 -0.6723  0.0228  0.1042
  269MOL0     C36222   5.547   8.300   5.798 -0.4983 -0.0946  1.3147
  269MOL0     C36223   5.686   8.243   5.821 -0.5078  0.4499  0.2073
  269MOL0    Cl36224   5.733   8.228   5.989 -0.1554 -0.0804  0.3485
  269MOL0     C36225   4.582   8.455   5.721 -0.8460 -0.2830 -0.0206
  269MOL0     C36226   4.518   8.542   5.622 -0.4905 -0.2362 -0.3824
  269MOL0     O36227   4.677   8.818   5.413  0.5743  0.2915  0.4524
  269MOL0     C36228   4.336   8.911   5.351 -0.3555 -0.4675 -0.6903
  269MOL0     C36229   4.258   8.986   5.266  0.5794  0.2602 -0.3237
  269MOL0     N36230   3.805   8.894   4.734  0.1839  0.0236  0.3195
  269MOL0     N36231   3.740   8.939   4.629 -0.1490  0.2811 -0.1969
  269MOL0     C36232   3.163   8.796   3.957  0.5655  0.1193 -0.1109
  269MOL0     C36233   3.047   8.863   3.913  0.4053  0.7510  0.0056
  269MOL0     C36234   2.725   9.067   3.717 -0.5875 -0.3711 -0.3948
  269MOL0     C36235   2.639   9.131   3.798 -0.8774 -0.0413 -0.1219
  269MOL0     C36236   2.503   9.155   3.759 -0.8180  0.5202 -0.8661
  269MOL0     C36237   2.464   9.121   3.629  0.1399 -0.0870 -0.1070
  269MOL0     O36238   2.331   9.156   3.598  0.0560 -0.4829 -0.3994
  269MOL0     C36239   2.285   9.110   3.469 -0.3278 -0.3019  0.3897
  269MOL0     C36240   2.155   9.186   3.438  0.0898 -0.0274  0.2421
  269MOL0     C36241   2.037   9.125   3.514  0.1973  0.2924  0.2725
  269MOL0     C36242   1.910   9.200   3.494  0.1697 -0.7694 -0.4608
  269MOL0     C36243   1.792   9.121   3.525  0.9829 -0.3535  1.2707
  269MOL0     C36244   1.684   9.071   3.568  0.2128 -0.0946 -0.1084
  269MOL0     C36245   2.559   9.065   3.539  0.8600 -0.0286  0.1422
  269MOL0     C36246   2.692   9.034   3.583  0.8630  0.6562  0.2532
  269MOL0     C36247   2.785   8.977   3.483 -0.6626  0.2648  0.0447
  269MOL0     H36248   3.103   8.848   3.583  3.8987 -0.2527 -1.3740
  269MOL0     H36249   3.321   8.727   3.666  0.9283 -2.5778  1.8366
  269MOL0     H36250   3.349   8.517   3.855 -0.5415  0.5720  2.3048
  269MOL0     H36251   3.494   8.613   3.803 -0.5829  3.4263  0.7517
  269MOL0     H36252   3.585   8.434   3.957  0.9015  1.0884 -1.3404
  269MOL0     H36253   3.468   8.485   4.083 -0.3361  3.0538  1.2682
  269MOL0     H36254   3.572   8.709   4.081 -0.8818  0.2960  0.3914
  269MOL0     H36255   3.686   8.662   3.956 -3.3710  1.3297 -1.1622
  269MOL0     H36256   3.654   8.546   4.243  0.9574  0.8554  0.7048
  269MOL0     H36257   3.776   8.488   4.127 -0.1644 -1.6664  2.3672
  269MOL0     H36258   3.887   8.646   4.258 -2.8377 -0.2766  2.4394
  269MOL0     H36259   3.852   8.728   4.099 -1.7644  0.0888 -0.8169
  269MOL0     H36260   3.660   8.840   4.215 -0.7895 -2.4151 -0.8279
  269MOL0     H36261   3.702   8.773   4.369 -3.3504  1.4623 -1.0135
  269MOL0     H36262   3.858   8.971   4.206 -0.9706  0.9369  1.0437
  269MOL0     H36263   3.945   8.874   4.314  0.2625 -0.0913 -2.2941
  269MOL0     H36264   3.869   9.116   4.384  0.9371 -0.2765  1.0480
  269MOL0     H36265   3.702   9.055   4.384  0.6728 -0.7838 -3.9364
  269MOL0     H36266   4.047   8.952   4.528  0.0612 -0.4725  0.9268
  269MOL0     H36267   4.016   8.775   4.871  0.4710  1.0663  1.5782
  269MOL0     H36268   4.131   8.809   4.747  1.0329 -0.8446  2.1472
  269MOL0     H36269   4.218   8.951   4.896  0.7897  0.5446 -2.9039
  269MOL0     H36270   4.117   9.060   4.809  1.7082 -1.8156 -1.0016
  269MOL0     H36271   4.048   8.926   5.077  0.0812 -0.3431  0.5623
  269MOL0     H36272   3.936   9.022   4.981  1.2850  3.2334 -1.5702
  269MOL0     H36273   4.061   9.143   5.161  0.9366  1.5975  0.2018
  269MOL0     H36274   4.062   9.217   5.010 -3.2412 -0.6205  0.1546
  269MOL0     H36275   4.503   9.114   5.062  1.2683 -1.1829 -0.0384
  269MOL0     H36276   4.637   8.986   5.208 -0.4568 -1.9689 -2.1649
  269MOL0     H36277   4.687   8.824   5.684 -1.3222 -0.6230  2.1804
  269MOL0     H36278   4.816   8.669   5.826 -1.0163  0.9133 -0.5741
  269MOL0     H36279   4.720   8.224   5.868 -0.4437  0.3368  2.0210
  269MOL0     H36280   4.806   8.298   5.729 -0.2238 -1.2399 -0.1460
  269MOL0     H36281   4.925   8.226   5.997  1.5192 -4.8113 -0.5203
  269MOL0     H36282   4.931   8.136   5.863 -2.5464 -0.2324  1.3077
  269MOL0     H36283   5.059   8.281   5.730 -3.1753 -0.1135  0.4134
  269MOL0     H36284   5.049   8.415   5.849  1.1253  1.1062 -2.3124
  269MOL0     H36285   5.164   8.132   5.912  1.8788  0.8109 -0.2677
  269MOL0     H36286   5.189   8.275   6.009 -1.1874 -1.9656  2.0510
  269MOL0     H36287   5.299   8.373   5.798 -0.0239 -0.1395 -0.6172
  269MOL0     H36288   5.273   8.217   5.726 -1.1738  0.5060  0.6272
  269MOL0     H36289   5.452   8.247   5.979  0.6948  0.6893 -0.2263
  269MOL0     H36290   5.438   8.119   5.856 -2.2008 -0.1465  0.6571
  269MOL0     H36291   5.551   8.402   5.836  1.7865  0.3736  0.0209
  269MOL0     H36292   5.518   8.290   5.693  0.8098 -2.1662  1.0804
  269MOL0     H36293   5.690   8.152   5.761  0.5077  1.4569 -1.3132
  269MOL0     H36294   5.760   8.308   5.774  1.6568 -0.8462  1.6339
  269MOL0     H36295   4.555   8.350   5.726  0.0602 -0.7119 -2.5342
  269MOL0     H36296   4.438   8.501   5.562  0.3139  0.8241 -2.2921
  269MOL0     H36297   4.289   8.848   5.426  2.7438  0.9447  2.7032
  269MOL0     H36298   4.150   8.990   5.277  0.7595  0.6902  1.5760
  269MOL0     H36299   3.182   8.772   4.062  1.6934 -2.9410 -0.8992
  269MOL0     H36300   2.970   8.901   3.979 -2.7693 -2.5889 -1.4398
  269MOL0     H36301   2.671   9.162   3.897 -1.4809  1.5223 -0.3833
  269MOL0     H36302   2.439   9.212   3.825  2.0908  0.2932  2.4878
  269MOL0     H36303   2.270   9.002   3.472 -3.6603  0.0699  0.8008
  269MOL0     H36304   2.352   9.144   3.388 -2.6658  1.3522 -0.9916
  269MOL0     H36305   2.142   9.175   3.329  0.4573 -3.9299  0.4571
  269MOL0     H36306   2.169   9.289   3.472  2.8836 -0.0836 -0.5234
  269MOL0     H36307   2.052   9.116   3.622 -1.9355  2.2391  0.8066
  269MOL0     H36308   2.015   9.027   3.472 -0.3638 -0.1423  1.5195
  269MOL0     H36309   1.903   9.276   3.572 -0.4130 -1.8510  0.5827
  269MOL0     H36310   1.908   9.235   3.391  1.0676 -3.3678 -1.4382
  269MOL0     H36311   1.586   9.036   3.591 -0.8528  1.7113 -1.5776
  269MOL0     H36312   2.531   9.039   3.437 -1.1130  0.2681  0.5745
  269MOL0     H36313   2.740   8.971   3.384  2.9214  3.0131 -2.0216
  269MOL0     H36314   2.857   9.059   3.493 -1.2107  0.5394  2.2937
  269MOL0     H36315   2.836   8.885   3.515  0.1400  0.4200 -0.7309
  270MOL0     O36316   1.275  10.465   5.853  0.4010  0.0264 -0.6000
  270MOL0     C36317   1.291  10.550   5.937  0.0469 -0.8528 -0.6487
  270MOL0     O36318   1.367  10.531   6.050  0.8751  0.2208 -0.1883
  270MOL0     C36319   1.448  10.418   6.057 -0.7278  0.1693 -0.2899
  270MOL0     C36320   1.585  10.442   6.046  0.5218 -0.1389  0.2704
  270MOL0     C36321   1.682  10.336   6.057  0.0954 -1.1444 -0.3186
  270MOL0     C36322   1.642  10.209   6.087  1.0338  0.0912 -0.7049
  270MOL0     O36323   1.718  10.098   6.122  0.1586 -0.6872  0.5922
  270MOL0     C36324   1.860  10.123   6.133  0.2540  0.1956  0.0669
  270MOL0     C36325   1.929  10.009   6.214 -0.2896 -0.2871 -0.3744
  270MOL0     C36326   2.082  10.006   6.184  0.7668 -0.0027  0.0799
  270MOL0     C36327   2.144   9.894   6.261  0.6830 -0.3581  0.1490
  270MOL0     C36328   2.294   9.890   6.237 -0.5809  0.5344  0.9487
  270MOL0     C36329   2.363   9.788   6.331  0.3476 -0.2469 -0.6339
  270MOL0     C36330   2.517   9.805   6.319  0.6562  0.0977 -0.3224
  270MOL0     C36331   2.597   9.677   6.320  0.1891  0.0084  0.4390
  270MOL0     N36332   2.745   9.702   6.300 -0.3268  0.5018 -0.4225
  270MOL0     C36333   2.824   9.796   6.365 -0.5804  0.2795  0.4832
  270MOL0     C36334   2.947   9.775   6.313 -0.0083  0.1654 -0.4932
  270MOL0     C36335   3.073   9.864   6.345  0.6385 -0.0681  0.1970
  270MOL0     C36336   3.058  10.004   6.283  0.4053 -0.1134  0.4842
  270MOL0     C36337   3.182  10.091   6.305 -0.4531 -1.0522  0.2075
  270MOL0     C36338   3.209  10.135   6.450  0.1321 -0.6659  0.6765
  270MOL0     O36339   3.261  10.025   6.525  0.4869  0.6261 -0.1655
  270MOL0     C36340   3.395   9.995   6.521 -0.3544 -0.5998 -0.7676
  270MOL0     C36341   3.445   9.899   6.619 -0.3253 -0.2212  0.0691
  270MOL0     C36342   3.585   9.870   6.622  0.3491 -0.4905 -0.6898
  270MOL0     C36343   3.679   9.921   6.530  0.4014 -0.2800 -0.0885
  270MOL0     C36344   3.812   9.872   6.517  0.0392  0.0380  0.1261
  270MOL0     O36345   3.863   9.797   6.622 -0.5734  0.2628  0.4760
  270MOL0     C36346   3.983   9.727   6.597  0.2363  0.4644  0.5987
  270MOL0     C36347   3.981   9.591   6.580 -1.3684 -0.3330 -0.7880
  270MOL0     C36348   4.093   9.510   6.549  0.2854 -0.1613 -0.6255
  270MOL0     C36349   4.219   9.571   6.536  0.1489  0.6018  0.3181
  270MOL0     O36350   4.331   9.485   6.518  0.1094 -0.2413  0.1708
  270MOL0     C36351   4.464   9.529   6.547 -0.4850  0.1121  0.4344
  270MOL0     C36352   4.563   9.428   6.495  0.1758 -0.8674  0.3144
  270MOL0     C36353   4.704   9.483   6.497  0.2269 -0.6509 -0.2512
  270MOL0     C36354   4.811   9.401   6.427 -0.0628 -0.0862 -0.2325
  270MOL0     C36355   4.948   9.461   6.464 -0.6813  0.4994  0.1873
  270MOL0     C36356   5.065   9.366   6.412  1.0909 -0.1751  0.0400
  270MOL0     C36357   5.076   9.338   6.263  0.7154 -0.4292  0.0132
  270MOL0     C36358   5.194   9.253   6.226 -0.2194  0.0676  0.3870
  270MOL0    Cl36359   5.356   9.320   6.281  0.0073  0.0473  0.3969
  270MOL0     C36360   4.224   9.708   6.559  0.4707  0.4876  0.2255
  270MOL0     C36361   4.107   9.785   6.570 -0.0203  0.3060 -0.0599
  270MOL0     O36362   3.877   9.893   6.412 -0.1198 -0.0182  0.4721
  270MOL0     C36363   3.630  10.011   6.453  0.2225  0.2660  1.0615
  270MOL0     C36364   3.488  10.048   6.431 -0.9048  0.0088 -1.4142
  270MOL0     N36365   2.937   9.672   6.227 -0.0033  0.4325 -0.8375
  270MOL0     N36366   2.818   9.616   6.232 -0.4432  0.8251 -0.5885
  270MOL0     C36367   1.500  10.185   6.115 -0.0250 -0.7119  0.0582
  270MOL0     C36368   1.402  10.290   6.092  0.0573  0.4521  0.7358
  270MOL0     C36369   1.189  10.666   5.942 -0.0446 -0.1450  0.3241
  270MOL0     C36370   1.199  10.754   6.050 -0.1744  0.0060  1.0289
  270MOL0     C36371   1.102  10.849   6.080 -0.1007  0.0066 -0.1092
  270MOL0     C36372   0.998  10.870   5.987  0.4167  0.3192 -0.6449
  270MOL0     O36373   0.903  10.965   6.013 -0.4189 -0.2100 -0.1911
  270MOL0     C36374   0.890  11.029   6.146 -0.2007  0.5642  0.4930
  270MOL0     C36375   0.754  11.099   6.145 -0.6128  0.0274 -1.1177
  270MOL0     C36376   0.726  11.160   6.284  0.4775 -0.3550 -0.4186
  270MOL0     C36377   0.693  11.055   6.391 -0.3256 -0.0636  0.0498
  270MOL0     C36378   0.825  11.023   6.453  0.1912 -0.0123  0.5857
  270MOL0     C36379   0.913  10.989   6.527 -0.4917  0.3742 -0.2532
  270MOL0     C36380   0.999  10.795   5.870  0.6576  0.5433 -0.2323
  270MOL0     C36381   1.087  10.686   5.851  0.3732  0.2172  0.1133
  270MOL0     C36382   1.074  10.613   5.719  0.1154 -0.5459 -0.0644
  270MOL0     H36383   1.616  10.538   6.005  0.9724 -0.2255  0.4103
  270MOL0     H36384   1.785  10.369   6.055 -0.4897  0.7953 -1.4760
  270MOL0     H36385   1.899  10.138   6.032 -1.4513  0.4952 -0.5939
  270MOL0     H36386   1.877  10.210   6.196  1.1313 -1.5143  2.3281
  270MOL0     H36387   1.887   9.911   6.190 -2.4538  0.0130  1.8385
  270MOL0     H36388   1.916  10.032   6.320  2.4254 -2.5283  0.5429
  270MOL0     H36389   2.121  10.103   6.218  1.8398  0.1416 -1.4550
  270MOL0     H36390   2.104   9.988   6.079  2.8222  1.2393  0.2444
  270MOL0     H36391   2.126   9.920   6.366  0.0388  0.2130 -0.0977
  270MOL0     H36392   2.096   9.797   6.245 -1.9474  0.5481  1.8281
  270MOL0     H36393   2.312   9.862   6.133 -1.3399  0.8517  0.7247
  270MOL0     H36394   2.329   9.993   6.243  0.2576  0.3288 -0.1325
  270MOL0     H36395   2.326   9.804   6.433  0.8115 -0.1009 -0.4851
  270MOL0     H36396   2.332   9.689   6.297  2.3892 -0.8095 -0.9708
  270MOL0     H36397   2.539   9.877   6.399 -1.9122  1.4722 -0.7443
  270MOL0     H36398   2.532   9.854   6.223  0.2914 -0.7399 -0.8188
  270MOL0     H36399   2.582   9.623   6.414  0.3940  0.8189  0.9481
  270MOL0     H36400   2.561   9.614   6.238 -1.7243  1.1099  0.3617
  270MOL0     H36401   2.804   9.871   6.442 -1.7919 -1.0978  1.5669
  270MOL0     H36402   3.085   9.875   6.453  1.0004  2.6434 -0.0555
  270MOL0     H36403   3.160   9.816   6.300  1.1504 -0.1415  1.2553
  270MOL0     H36404   3.036  10.003   6.176  2.3690  1.1823  0.0282
  270MOL0     H36405   2.971  10.044   6.336 -1.1657 -1.4642 -0.9666
  270MOL0     H36406   3.176  10.184   6.247 -4.2373 -0.6627  0.9656
  270MOL0     H36407   3.267  10.034   6.267  0.8802  0.5329  0.6560
  270MOL0     H36408   3.123  10.173   6.507 -0.8108 -0.6525 -0.6861
  270MOL0     H36409   3.282  10.216   6.445  0.3273 -0.8634  0.1762
  270MOL0     H36410   3.367   9.855   6.680  1.6509 -2.6698  1.0204
  270MOL0     H36411   3.626   9.821   6.710  2.5819  2.3592  0.0213
  270MOL0     H36412   3.884   9.543   6.589 -2.9046  2.8274  2.2655
  270MOL0     H36413   4.079   9.403   6.536 -1.2056 -0.4332  2.4502
  270MOL0     H36414   4.493   9.623   6.499  0.8778 -1.3488 -1.8366
  270MOL0     H36415   4.480   9.530   6.655  4.2584  1.0360 -0.0704
  270MOL0     H36416   4.560   9.339   6.559  0.0953 -0.7238  0.5091
  270MOL0     H36417   4.538   9.410   6.389  3.2636  0.6548 -0.7934
  270MOL0     H36418   4.701   9.585   6.457 -1.6918 -0.3692  0.4951
  270MOL0     H36419   4.728   9.482   6.604 -5.3716  0.4944  1.3609
  270MOL0     H36420   4.792   9.402   6.319  1.3191  1.1672 -0.4994
  270MOL0     H36421   4.820   9.300   6.467  1.1137  0.0986  0.0148
  270MOL0     H36422   4.949   9.471   6.573  1.3508  1.6447  0.1042
  270MOL0     H36423   4.950   9.563   6.426  0.1835  0.6668  0.6521
  270MOL0     H36424   5.156   9.418   6.445  0.9676  0.7105 -0.9779
  270MOL0     H36425   5.049   9.267   6.455  2.4199 -0.2835  0.3447
  270MOL0     H36426   5.077   9.432   6.206 -2.4829 -0.4650 -0.2672
  270MOL0     H36427   4.984   9.289   6.233 -1.4104  2.0857  1.9566
  270MOL0     H36428   5.179   9.157   6.277  0.9367  0.0330  0.6836
  270MOL0     H36429   5.191   9.227   6.119 -0.7401 -0.7241  0.5821
  270MOL0     H36430   4.319   9.759   6.555  1.5864 -1.5244 -0.5517
  270MOL0     H36431   4.112   9.893   6.578 -2.0101  0.6198 -1.9867
  270MOL0     H36432   3.697  10.069   6.390  1.2177  0.6843  2.4598
  270MOL0     H36433   3.462  10.124   6.358 -1.1894  0.6623 -0.6457
  270MOL0     H36434   1.464  10.086   6.141 -3.2598  0.4610  0.4540
  270MOL0     H36435   1.295  10.285   6.110 -0.2278  0.9706 -0.6818
  270MOL0     H36436   1.267  10.734   6.132 -3.0186  1.0332  3.8163
  270MOL0     H36437   1.122  10.907   6.170  0.3963 -1.8040  1.0081
  270MOL0     H36438   0.968  11.104   6.163 -0.1129  0.5256  0.2653
  270MOL0     H36439   0.897  10.951   6.222  1.2517 -0.7859 -0.9421
  270MOL0     H36440   0.678  11.023   6.130 -1.1283  0.1528  0.6118
  270MOL0     H36441   0.754  11.174   6.065 -2.1590 -0.2788 -1.4286
  270MOL0     H36442   0.637  11.224   6.276  2.5954  2.8026 -0.8351
  270MOL0     H36443   0.803  11.227   6.324  2.0621 -1.5553 -1.3319
  270MOL0     H36444   0.634  11.102   6.470  0.6137  3.3690 -1.1157
  270MOL0     H36445   0.651  10.960   6.356  1.3524 -1.2830  1.2043
  270MOL0     H36446   1.001  10.968   6.585 -0.9102  0.9003  0.5822
  270MOL0     H36447   0.919  10.823   5.802 -2.3743 -1.5017  2.1910
  270MOL0     H36448   1.167  10.613   5.661 -0.5970 -0.4368 -1.2334
  270MOL0     H36449   1.043  10.510   5.738 -2.7276  0.0991 -0.8277
  270MOL0     H36450   1.004  10.661   5.650 -3.0121 -2.3566  1.6616
  271MOL0     O36451   4.801   7.241   5.258  0.6962 -0.1239  0.0825
  271MOL0     C36452   4.752   7.135   5.217 -0.0992 -1.0413 -1.2482
  271MOL0     O36453   4.826   7.043   5.149  0.0687 -0.2424  0.2166
  271MOL0     C36454   4.965   7.054   5.135  1.1467  0.2702  0.2098
  271MOL0     C36455   5.041   6.936   5.133  0.3916  0.0879 -0.2421
  271MOL0     C36456   5.176   6.937   5.096  0.2311  0.9356  0.0107
  271MOL0     C36457   5.244   7.052   5.080 -0.5293 -0.5769  0.4595
  271MOL0     O36458   5.381   7.056   5.054 -0.5889  0.2883 -0.0793
  271MOL0     C36459   5.459   7.051   5.180 -0.3921 -0.0969  0.3988
  271MOL0     C36460   5.606   7.083   5.152 -0.3365 -0.2744 -0.1403
  271MOL0     C36461   5.686   7.128   5.278  0.0280 -0.5477  0.7694
  271MOL0     C36462   5.830   7.133   5.240  0.9592 -0.9555 -0.6927
  271MOL0     C36463   5.926   7.178   5.340 -0.0110  0.6131 -0.6779
  271MOL0     C36464   6.060   7.140   5.295 -0.5257 -0.2402 -0.1969
  271MOL0     C36465   6.172   7.224   5.356 -0.2637 -0.3213 -0.4757
  271MOL0     C36466   6.170   7.211   5.509 -0.1197  0.0682 -0.7986
  271MOL0     N36467   6.298   7.244   5.574  0.7089 -0.1305  0.7595
  271MOL0     C36468   6.331   7.370   5.619 -0.0134  0.2091  0.3589
  271MOL0     C36469   6.440   7.339   5.698 -0.0679 -0.1830  0.0931
  271MOL0     C36470   6.521   7.440   5.779  1.1471 -0.9590 -0.7817
  271MOL0     C36471   6.597   7.377   5.900  0.1446 -0.0245  1.1267
  271MOL0     C36472   6.643   7.483   5.999 -0.1399 -0.3327  0.8576
  271MOL0     C36473   6.779   7.460   6.067  0.4570 -0.5054  0.0452
  271MOL0     O36474   6.790   7.329   6.119  0.0879  0.2407  0.3471
  271MOL0     C36475   6.881   7.299   6.219  0.2324  0.9101 -0.4712
  271MOL0     C36476   6.862   7.179   6.295  0.5213 -0.7588 -0.6460
  271MOL0     C36477   6.956   7.129   6.387  0.6329 -0.9223  0.6536
  271MOL0     C36478   7.070   7.211   6.405  0.1472  0.2670 -0.1817
  271MOL0     C36479   7.170   7.174   6.507 -0.0241 -0.1130 -0.1735
  271MOL0     O36480   7.248   7.267   6.564 -0.0044 -0.4021 -0.3417
  271MOL0     C36481   7.360   7.222   6.635  0.1775  0.2655 -0.2051
  271MOL0     C36482   7.485   7.204   6.565  0.0532  0.6278 -0.1853
  271MOL0     C36483   7.593   7.137   6.621 -0.4273  1.0413 -0.0852
  271MOL0     C36484   7.585   7.098   6.757  0.0242  0.0606 -0.0529
  271MOL0     O36485   7.684   7.036   6.837 -0.8628  0.1412  0.2702
  271MOL0     C36486   7.821   7.069   6.812 -0.7341 -0.2655  0.2609
  271MOL0     C36487   7.907   6.963   6.879 -0.0628  0.1886 -0.8522
  271MOL0     C36488   8.056   7.004   6.897 -0.7243 -0.7557 -0.1114
  271MOL0     C36489   8.142   6.884   6.938  0.2141 -0.5285  0.1401
  271MOL0     C36490   8.275   6.938   6.966 -0.8157 -0.5658  0.7774
  271MOL0     C36491   8.371   6.834   7.008  0.3657  0.2493  0.5901
  271MOL0     C36492   8.521   6.853   6.982 -0.4371 -1.1288 -0.4165
  271MOL0     C36493   8.572   6.986   7.050  0.4352 -1.2044 -0.5435
  271MOL0    Cl36494   8.604   6.962   7.216  0.0379 -0.1049 -0.3102
  271MOL0     C36495   7.469   7.129   6.830 -0.6086  0.9853 -0.3446
  271MOL0     C36496   7.364   7.199   6.770  0.2045  0.0746  0.2760
  271MOL0     O36497   7.167   7.060   6.539 -0.4761  0.6669 -0.4390
  271MOL0     C36498   7.086   7.327   6.328  0.3884  0.4192  0.0554
  271MOL0     C36499   6.994   7.375   6.240  0.4111 -0.5419 -0.0590
  271MOL0     N36500   6.475   7.204   5.677  0.3948  0.1807 -0.9585
  271MOL0     N36501   6.396   7.155   5.597 -0.1677 -0.2471 -0.4135
  271MOL0     C36502   5.176   7.168   5.085 -0.3111  0.8174  0.9915
  271MOL0     C36503   5.034   7.171   5.110  0.1819 -0.0309  0.0362
  271MOL0     C36504   4.605   7.117   5.235  1.0452  0.1437  0.1689
  271MOL0     C36505   4.513   7.232   5.260 -0.7390 -0.3571 -0.4739
  271MOL0     C36506   4.373   7.208   5.284  0.8990 -0.8420 -1.2944
  271MOL0     C36507   4.316   7.080   5.280  0.9129 -0.2739 -0.5508
  271MOL0     O36508   4.187   7.050   5.304 -0.4059 -0.1100 -0.4702
  271MOL0     C36509   4.089   7.149   5.273  0.2759 -0.6656  0.2929
  271MOL0     C36510   3.950   7.083   5.243 -0.7993 -0.3006 -0.5354
  271MOL0     C36511   3.951   6.969   5.146  0.1323  0.2319 -0.2529
  271MOL0     C36512   3.823   6.886   5.146 -0.4332 -0.6052  0.3858
  271MOL0     C36513   3.710   6.974   5.131 -0.2475 -0.6478  0.0381
  271MOL0     C36514   3.618   7.044   5.106 -0.5568  0.2298  0.7784
  271MOL0     C36515   4.401   6.973   5.261 -1.0990 -0.2965  0.4253
  271MOL0     C36516   4.541   6.988   5.245 -0.1557  0.3213 -0.3068
  271MOL0     C36517   4.621   6.861   5.245 -0.2906  0.1230 -0.2838
  271MOL0     H36518   4.993   6.841   5.153  0.5821 -0.2906 -1.5015
  271MOL0     H36519   5.234   6.848   5.114 -0.8730  0.4204  1.1634
  271MOL0     H36520   5.418   7.126   5.248 -1.0635 -0.2777  0.1947
  271MOL0     H36521   5.448   6.957   5.236  0.8171 -0.0126  0.8065
  271MOL0     H36522   5.620   7.174   5.093  0.9299 -0.1805  0.2879
  271MOL0     H36523   5.641   6.989   5.109  0.3263  0.4682 -1.2751
  271MOL0     H36524   5.676   7.049   5.353 -1.8828 -2.2226 -1.1255
  271MOL0     H36525   5.656   7.223   5.325 -0.6711 -0.0964 -0.5387
  271MOL0     H36526   5.856   7.033   5.205  0.2041 -2.0575  1.7045
  271MOL0     H36527   5.851   7.207   5.161  2.4136 -1.0939 -0.4631
  271MOL0     H36528   5.910   7.286   5.349  0.5758  1.0699 -3.7254
  271MOL0     H36529   5.921   7.136   5.440  0.5720 -0.7010 -1.1776
  271MOL0     H36530   6.074   7.032   5.308  0.6310 -0.0210  0.5271
  271MOL0     H36531   6.064   7.143   5.186 -0.4040  0.4347 -0.1783
  271MOL0     H36532   6.158   7.327   5.322  0.3868 -0.6880 -1.9108
  271MOL0     H36533   6.264   7.181   5.316  0.1644 -0.2718  0.4134
  271MOL0     H36534   6.087   7.271   5.548 -0.6613  0.0511 -1.8849
  271MOL0     H36535   6.144   7.108   5.537  0.3766  0.1006 -0.2124
  271MOL0     H36536   6.280   7.465   5.606 -0.4509  0.2139  1.9033
  271MOL0     H36537   6.595   7.491   5.716  0.8468 -1.2345 -1.3587
  271MOL0     H36538   6.448   7.515   5.812 -0.4639 -1.6262 -2.6584
  271MOL0     H36539   6.538   7.301   5.953 -0.3964  1.0323  2.0739
  271MOL0     H36540   6.680   7.321   5.856 -1.4921 -0.2974 -1.8976
  271MOL0     H36541   6.559   7.496   6.068  0.4225 -3.0590  2.1982
  271MOL0     H36542   6.659   7.580   5.952 -0.0342 -0.1610  1.2428
  271MOL0     H36543   6.774   7.530   6.151 -0.7131 -0.5927  0.0710
  271MOL0     H36544   6.863   7.473   5.998 -0.2832  1.6950 -0.5575
  271MOL0     H36545   6.771   7.120   6.282  1.5464 -2.4271 -0.4565
  271MOL0     H36546   6.939   7.031   6.432 -0.6182 -0.7969  0.4899
  271MOL0     H36547   7.485   7.228   6.459  0.9850  0.9706 -0.1108
  271MOL0     H36548   7.671   7.119   6.547 -0.8635 -2.2283  0.0842
  271MOL0     H36549   7.843   7.072   6.705  1.6440 -0.8395  0.6948
  271MOL0     H36550   7.837   7.166   6.859 -1.5453 -0.5191  1.0797
  271MOL0     H36551   7.854   6.933   6.970  3.3241  4.3625  2.9157
  271MOL0     H36552   7.902   6.876   6.813 -2.3109  0.4036 -1.0321
  271MOL0     H36553   8.098   7.046   6.805 -1.6173 -1.0298 -0.6598
  271MOL0     H36554   8.050   7.080   6.976 -1.2567  1.2785 -2.0013
  271MOL0     H36555   8.140   6.819   6.850 -0.2365  0.4528 -0.5919
  271MOL0     H36556   8.101   6.842   7.029  0.5907 -3.2035 -0.8327
  271MOL0     H36557   8.277   7.010   7.048 -0.8267  1.9032 -1.2890
  271MOL0     H36558   8.322   6.989   6.882 -0.5565  1.8016  2.2632
  271MOL0     H36559   8.353   6.809   7.113  3.8888 -3.8586  0.5265
  271MOL0     H36560   8.345   6.739   6.961  0.7391  0.5141 -0.1664
  271MOL0     H36561   8.538   6.873   6.876 -2.4882 -0.5581 -0.6895
  271MOL0     H36562   8.590   6.774   7.012  0.3899 -0.9006 -1.6386
  271MOL0     H36563   8.666   7.015   7.004  0.8271 -0.4124  0.7138
  271MOL0     H36564   8.503   7.070   7.039  2.8572  0.8733 -0.6037
  271MOL0     H36565   7.463   7.099   6.934  0.9554 -0.9287 -0.7612
  271MOL0     H36566   7.268   7.214   6.819  0.9698  0.7048  1.6403
  271MOL0     H36567   7.177   7.386   6.332  2.2747 -2.0749 -2.5121
  271MOL0     H36568   6.994   7.468   6.184 -1.1240  0.1859  1.0609
  271MOL0     H36569   5.233   7.258   5.069  0.3536  0.0246 -1.6497
  271MOL0     H36570   4.984   7.265   5.089  3.5834  1.6689 -1.2780
  271MOL0     H36571   4.553   7.332   5.253 -2.6449  0.4085 -0.9689
  271MOL0     H36572   4.319   7.302   5.292  2.0905 -0.2997  2.7308
  271MOL0     H36573   4.130   7.208   5.191 -0.8506  1.3954  1.1577
  271MOL0     H36574   4.081   7.219   5.356 -1.6431 -0.5915  0.0883
  271MOL0     H36575   3.873   7.156   5.215 -1.3250 -0.4648  0.4502
  271MOL0     H36576   3.925   7.040   5.340  2.1735  0.0738  0.5179
  271MOL0     H36577   4.022   6.887   5.158 -0.8096 -0.6857 -0.8202
  271MOL0     H36578   3.983   7.024   5.057  1.5787  1.3881  0.9242
  271MOL0     H36579   3.835   6.814   5.065  1.3659  0.0961 -0.0085
  271MOL0     H36580   3.808   6.835   5.242  1.2876  0.0427  1.0372
  271MOL0     H36581   3.546   7.114   5.070 -0.0746 -0.4004 -1.5742
  271MOL0     H36582   4.366   6.870   5.260  0.3724 -0.8313 -1.1668
  271MOL0     H36583   4.704   6.868   5.315 -0.8189 -0.1980  0.3832
  271MOL0     H36584   4.571   6.767   5.272  0.6078  0.0346  1.1735
  271MOL0     H36585   4.658   6.860   5.142  0.6667  2.3334 -0.0148
  272MOL0     O36586   5.227   2.892   8.284  0.4220 -0.7091 -0.6542
  272MOL0     C36587   5.174   2.995   8.237  0.4645 -0.3333 -0.5482
  272MOL0     O36588   5.230   3.075   8.144  0.5460 -0.2078 -0.2365
  272MOL0     C36589   5.358   3.056   8.099  0.8191  0.4982  0.0128
  272MOL0     C36590   5.463   3.016   8.181  0.4357  1.0827 -0.5385
  272MOL0     C36591   5.593   3.007   8.137 -0.4151  0.3011 -0.0440
  272MOL0     C36592   5.621   3.034   8.003 -0.0906  0.0110  0.2532
  272MOL0     O36593   5.751   3.015   7.965  0.1263 -0.3916 -0.3048
  272MOL0     C36594   5.830   3.095   7.869 -0.0107  0.0719  0.5794
  272MOL0     C36595   5.961   3.001   7.860  0.4481 -0.8131 -0.2143
  272MOL0     C36596   6.068   3.090   7.793 -0.1685  0.1040  0.6087
  272MOL0     C36597   6.194   3.015   7.770  0.1981  0.3467  0.8797
  272MOL0     C36598   6.299   3.107   7.707 -0.6253  0.1879  0.3272
  272MOL0     C36599   6.424   3.025   7.684  0.5842  0.3346 -0.3003
  272MOL0     C36600   6.537   3.106   7.636  0.7807 -0.5041  0.4176
  272MOL0     C36601   6.661   3.009   7.648 -0.7481 -0.9419  0.2530
  272MOL0     N36602   6.779   3.080   7.586  0.1385  0.2893  0.1848
  272MOL0     C36603   6.809   3.213   7.599  0.8786  0.0678  0.8986
  272MOL0     C36604   6.932   3.221   7.535 -0.4262  0.6119 -0.4251
  272MOL0     C36605   7.001   3.356   7.532  0.3252  0.5734  0.3845
  272MOL0     C36606   7.044   3.379   7.380  0.7985  0.3777 -0.8630
  272MOL0     C36607   6.918   3.409   7.283 -0.7392  0.3649 -0.6113
  272MOL0     C36608   6.856   3.549   7.302 -0.4219 -0.4302  0.5989
  272MOL0     O36609   6.791   3.562   7.428  0.2982 -0.2460  0.1587
  272MOL0     C36610   6.650   3.535   7.429 -0.2088  0.3321 -0.6467
  272MOL0     C36611   6.598   3.541   7.557 -0.3998 -0.0144 -0.0584
  272MOL0     C36612   6.462   3.524   7.584  0.8438 -0.1801 -0.2143
  272MOL0     C36613   6.368   3.505   7.472  0.3435 -0.3915 -0.4530
  272MOL0     C36614   6.228   3.516   7.491  0.2776  0.0573  0.2126
  272MOL0     O36615   6.192   3.532   7.616 -0.6411 -0.0511  0.0204
  272MOL0     C36616   6.060   3.520   7.653 -0.1340 -0.0301  0.6929
  272MOL0     C36617   6.007   3.626   7.724  0.2572  0.6129  0.2447
  272MOL0     C36618   5.873   3.617   7.762  0.0757 -0.2331 -0.4060
  272MOL0     C36619   5.787   3.514   7.730 -0.2030  0.8065  0.0589
  272MOL0     O36620   5.649   3.533   7.756  0.1091  0.4839  0.6262
  272MOL0     C36621   5.561   3.426   7.704  0.0090 -0.6991  0.7265
  272MOL0     C36622   5.411   3.465   7.719 -0.0430  0.3456 -0.0705
  272MOL0     C36623   5.360   3.508   7.856 -0.5345  0.2634 -0.2789
  272MOL0     C36624   5.215   3.462   7.886 -0.6819 -0.6215  0.0125
  272MOL0     C36625   5.106   3.500   7.783 -0.1610  0.3921  0.2021
  272MOL0     C36626   4.968   3.454   7.830  0.9231 -0.4278 -0.6043
  272MOL0     C36627   4.863   3.469   7.725  0.1352  0.9887  0.0557
  272MOL0     C36628   4.736   3.390   7.757  0.3219  0.8483 -0.9783
  272MOL0    Cl36629   4.627   3.361   7.627  0.1033  0.5923 -0.3431
  272MOL0     C36630   5.846   3.405   7.660  0.6765  0.0626  0.0822
  272MOL0     C36631   5.984   3.405   7.633  0.4619  0.1550  0.2483
  272MOL0     O36632   6.156   3.535   7.391 -0.5381 -0.2464  0.4002
  272MOL0     C36633   6.422   3.506   7.341 -0.7445  0.0519  0.1018
  272MOL0     C36634   6.564   3.521   7.323  0.0723 -0.7592 -0.0298
  272MOL0     N36635   6.983   3.096   7.512 -0.7076 -0.0836  0.3933
  272MOL0     N36636   6.891   3.014   7.539  0.0328 -0.4106 -0.0845
  272MOL0     C36637   5.519   3.071   7.915 -0.1886 -0.0565  0.0442
  272MOL0     C36638   5.388   3.086   7.968 -1.1651  0.3841  0.4342
  272MOL0     C36639   5.043   3.045   8.291 -0.4345 -0.2580  0.2498
  272MOL0     C36640   4.972   2.960   8.378 -0.1232 -0.2768  0.1857
  272MOL0     C36641   4.847   2.988   8.439  0.8901  0.1189  0.2869
  272MOL0     C36642   4.784   3.107   8.399  0.1387  0.2487  0.5647
  272MOL0     O36643   4.660   3.154   8.436  1.1598  0.3437  0.1746
  272MOL0     C36644   4.581   3.075   8.530 -0.8229 -0.2738 -0.2973
  272MOL0     C36645   4.475   2.993   8.446  0.0380  0.2192 -0.3972
  272MOL0     C36646   4.431   2.868   8.536 -1.0390 -0.8247  0.4315
  272MOL0     C36647   4.305   2.797   8.472 -0.1385 -0.0578  0.0468
  272MOL0     C36648   4.330   2.752   8.336 -0.1135 -0.5562 -0.1868
  272MOL0     C36649   4.355   2.715   8.226  0.5162 -0.5255 -0.1246
  272MOL0     C36650   4.855   3.195   8.316 -0.3843  0.1897 -0.1851
  272MOL0     C36651   4.978   3.163   8.254  1.4467 -0.2293 -0.0314
  272MOL0     C36652   5.031   3.279   8.178  0.4989  0.1364  0.2967
  272MOL0     H36653   5.453   2.990   8.286  1.4770 -1.0791 -0.9144
  272MOL0     H36654   5.671   2.983   8.209 -0.5092  1.3302  0.4173
  272MOL0     H36655   5.773   3.110   7.776 -1.9023 -0.8486  1.5353
  272MOL0     H36656   5.862   3.190   7.913  0.7844 -0.1742  0.5393
  272MOL0     H36657   5.943   2.914   7.796  0.4018 -1.0416  0.1107
  272MOL0     H36658   5.987   2.970   7.961 -2.6817 -1.0292  0.6238
  272MOL0     H36659   6.087   3.177   7.857 -0.4251 -0.0925  0.9513
  272MOL0     H36660   6.037   3.129   7.695  1.4597 -0.8295 -0.3172
  272MOL0     H36661   6.233   2.962   7.857  0.6128 -1.5467 -0.4050
  272MOL0     H36662   6.183   2.932   7.699 -0.0245 -0.3013  1.6612
  272MOL0     H36663   6.258   3.128   7.608 -0.4990  0.8618  0.4133
  272MOL0     H36664   6.309   3.193   7.773 -2.2013 -0.5022  1.5502
  272MOL0     H36665   6.446   2.969   7.775 -1.7088 -1.1779 -0.5735
  272MOL0     H36666   6.397   2.950   7.609  1.0642  1.1167 -1.2752
  272MOL0     H36667   6.537   3.196   7.698  1.4155  0.6890 -1.2242
  272MOL0     H36668   6.516   3.140   7.534  1.5324  1.8361  0.9896
  272MOL0     H36669   6.681   2.977   7.751  1.7361  0.0507  0.1465
  272MOL0     H36670   6.641   2.916   7.594  2.4410 -1.2977 -0.5116
  272MOL0     H36671   6.750   3.299   7.628 -1.3186 -0.1485 -2.3518
  272MOL0     H36672   6.940   3.437   7.573  1.1406  1.6131 -0.4087
  272MOL0     H36673   7.093   3.361   7.591 -0.9419 -0.7334  2.6171
  272MOL0     H36674   7.114   3.462   7.370  1.2316  0.1399  0.0722
  272MOL0     H36675   7.098   3.289   7.349  1.4729  0.1098  0.9634
  272MOL0     H36676   6.847   3.326   7.286 -1.2959  0.7577 -1.9748
  272MOL0     H36677   6.952   3.406   7.179 -0.9048 -0.1931 -0.6476
  272MOL0     H36678   6.792   3.584   7.221  0.0959  4.1964  1.9295
  272MOL0     H36679   6.935   3.624   7.298 -1.1237  0.2719 -0.9283
  272MOL0     H36680   6.670   3.561   7.635 -0.9254 -1.0361  0.7174
  272MOL0     H36681   6.431   3.541   7.687 -0.2977  0.9296 -0.7081
  272MOL0     H36682   6.065   3.717   7.737 -1.5528  2.0047 -0.9646
  272MOL0     H36683   5.829   3.700   7.816  2.4921  0.7240  0.1716
  272MOL0     H36684   5.570   3.424   7.596  1.6108 -0.2980  0.8295
  272MOL0     H36685   5.580   3.332   7.756  1.5075 -0.5345  0.5222
  272MOL0     H36686   5.388   3.548   7.652 -0.3463 -0.0141 -0.4172
  272MOL0     H36687   5.352   3.379   7.685  0.4765  1.0311 -3.0082
  272MOL0     H36688   5.425   3.481   7.939 -0.4846  1.0847 -0.0417
  272MOL0     H36689   5.361   3.618   7.863 -1.2028  0.1579  2.2866
  272MOL0     H36690   5.200   3.502   7.987  3.1538 -1.8927  1.2598
  272MOL0     H36691   5.211   3.353   7.896 -0.1138 -0.7346 -0.8907
  272MOL0     H36692   5.130   3.467   7.681 -1.1912 -3.9818  1.1822
  272MOL0     H36693   5.092   3.608   7.790 -4.0275  0.0084  0.4022
  272MOL0     H36694   4.981   3.346   7.844  0.1653 -0.4429 -0.0114
  272MOL0     H36695   4.936   3.508   7.920 -0.5475  0.2427 -1.4980
  272MOL0     H36696   4.912   3.420   7.641  0.9574  1.1353  0.4432
  272MOL0     H36697   4.843   3.575   7.711 -1.3682  0.4508 -2.6937
  272MOL0     H36698   4.783   3.294   7.777  0.1229  0.8481 -0.4885
  272MOL0     H36699   4.693   3.432   7.848 -0.5179  1.3503 -1.5819
  272MOL0     H36700   5.782   3.328   7.617  0.3135  1.4950 -2.0716
  272MOL0     H36701   6.017   3.327   7.564 -1.4330  1.7273 -2.6664
  272MOL0     H36702   6.357   3.508   7.254 -0.1399 -1.9840 -0.4728
  272MOL0     H36703   6.590   3.520   7.218 -1.9648 -2.7179 -0.6011
  272MOL0     H36704   5.545   3.103   7.815  1.6605  1.3000  0.8961
  272MOL0     H36705   5.307   3.115   7.902 -2.4940 -1.9881  0.9211
  272MOL0     H36706   5.009   2.858   8.391 -2.3347 -1.2084 -0.4271
  272MOL0     H36707   4.804   2.904   8.494  0.9176 -0.0663  0.0285
  272MOL0     H36708   4.537   3.145   8.602  1.4729  1.2515 -0.2716
  272MOL0     H36709   4.638   3.011   8.598 -0.0646  4.1934  3.8319
  272MOL0     H36710   4.510   2.954   8.350  0.2258 -1.8486  0.4595
  272MOL0     H36711   4.392   3.061   8.426 -2.0797 -1.6373  1.5424
  272MOL0     H36712   4.399   2.901   8.635 -0.8416  1.1099 -0.1009
  272MOL0     H36713   4.512   2.795   8.535 -0.9733 -0.7605  1.0033
  272MOL0     H36714   4.273   2.713   8.534  0.5369  1.0440  1.9938
  272MOL0     H36715   4.218   2.864   8.469  0.3032  0.5218 -0.0865
  272MOL0     H36716   4.401   2.685   8.134  0.3392 -1.0208 -0.0513
  272MOL0     H36717   4.798   3.280   8.279 -1.4488 -0.1013  0.7187
  272MOL0     H36718   5.107   3.319   8.246  0.3733 -0.2578  0.6785
  272MOL0     H36719   5.080   3.252   8.084  1.2104 -3.7473  1.5691
  272MOL0     H36720   4.958   3.357   8.156 -0.8680 -1.4423 -1.0716
  273MOL0     O36721   3.957   6.819   1.386  0.0826 -0.1682 -0.0250
  273MOL0     C36722   3.925   6.923   1.441  0.4724 -0.6820 -0.4864
  273MOL0     O36723   4.008   7.029   1.458 -0.1706 -0.5478 -0.7035
  273MOL0     C36724   4.132   7.031   1.418  0.0255 -0.1150  0.3081
  273MOL0     C36725   4.229   6.928   1.434  0.1365  0.0465  0.0948
  273MOL0     C36726   4.363   6.939   1.400 -0.2463 -1.0231  0.0020
  273MOL0     C36727   4.403   7.064   1.360 -1.0661  0.8308  1.0243
  273MOL0     O36728   4.539   7.069   1.335 -0.3485  0.6593 -0.1597
  273MOL0     C36729   4.604   7.188   1.275  0.8618  0.2488 -0.8131
  273MOL0     C36730   4.738   7.142   1.218  0.4225 -0.4510  0.2688
  273MOL0     C36731   4.818   7.060   1.319  0.6811  0.0051  0.1298
  273MOL0     C36732   4.963   7.044   1.265 -0.1466 -0.1553  0.1063
  273MOL0     C36733   5.063   6.990   1.363 -1.0453  0.4302  0.5701
  273MOL0     C36734   5.210   6.984   1.301 -0.0457 -0.3612 -0.8572
  273MOL0     C36735   5.217   6.866   1.201 -0.6240 -0.4497 -0.3981
  273MOL0     C36736   5.323   6.883   1.091  0.0241 -0.3742  0.1807
  273MOL0     N36737   5.338   6.784   0.990  0.2390 -0.0716  0.3417
  273MOL0     C36738   5.382   6.664   0.999 -0.5186  0.4894  0.1610
  273MOL0     C36739   5.353   6.602   0.883  0.6319 -0.2750 -0.4129
  273MOL0     C36740   5.409   6.474   0.822  0.2617  0.2406  0.0320
  273MOL0     C36741   5.560   6.471   0.831  0.5946 -0.0200 -0.2858
  273MOL0     C36742   5.633   6.580   0.759 -0.0934 -0.3816  0.2338
  273MOL0     C36743   5.621   6.572   0.603 -0.2903 -0.6300  0.5213
  273MOL0     O36744   5.658   6.701   0.546 -0.1620 -0.0759  0.2710
  273MOL0     C36745   5.789   6.732   0.532 -0.5487 -0.5187  0.1481
  273MOL0     C36746   5.898   6.653   0.556  0.3620 -0.5696  0.2359
  273MOL0     C36747   6.029   6.702   0.531  0.7560  0.4338  0.4123
  273MOL0     C36748   6.053   6.828   0.476 -0.5233 -0.1589  0.7681
  273MOL0     C36749   6.185   6.871   0.427 -0.4762 -0.4420 -0.4131
  273MOL0     O36750   6.277   6.774   0.392 -0.7422  0.5986 -0.1315
  273MOL0     C36751   6.412   6.812   0.368 -1.1078 -0.3938  0.2192
  273MOL0     C36752   6.488   6.751   0.258  0.5252 -0.2748 -0.7531
  273MOL0     C36753   6.628   6.774   0.241 -0.0601  0.4854 -0.2407
  273MOL0     C36754   6.694   6.867   0.319  0.4192 -0.1841  0.3135
  273MOL0     O36755   6.820   6.915   0.295 -0.1702  0.2378  0.6289
  273MOL0     C36756   6.874   6.919   0.160 -0.5462  0.0393 -1.4238
  273MOL0     C36757   6.964   7.039   0.160 -0.3729  0.3839 -0.9546
  273MOL0     C36758   7.051   7.046   0.037 -0.6497  0.2734  0.3512
  273MOL0     C36759   7.183   6.974   0.060  0.6312 -0.0541 -1.0020
  273MOL0     C36760   7.272   6.954  -0.062 -0.8032 -0.5370  0.1933
  273MOL0     C36761   7.350   7.094  -0.079  0.1419  0.4904  0.2689
  273MOL0     C36762   7.435   7.084  -0.195 -0.7122 -0.5096 -0.2291
  273MOL0     C36763   7.554   7.185  -0.187  0.9022 -0.1290  0.8934
  273MOL0    Cl36764   7.660   7.167  -0.331  0.3907  0.4101 -0.2011
  273MOL0     C36765   6.623   6.929   0.423  0.8157  0.3228  0.1563
  273MOL0     C36766   6.485   6.900   0.451  0.2975  0.1168  0.6274
  273MOL0     O36767   6.211   6.992   0.428 -0.2385 -0.0941 -0.2824
  273MOL0     C36768   5.945   6.911   0.448  0.2353  0.6337  1.0321
  273MOL0     C36769   5.819   6.862   0.485  0.2430 -0.2271 -0.0377
  273MOL0     N36770   5.285   6.700   0.806  0.2778  1.1808  0.5641
  273MOL0     N36771   5.283   6.808   0.871 -0.1533  1.1747  0.5193
  273MOL0     C36772   4.318   7.174   1.343  0.3641  0.0598 -0.0221
  273MOL0     C36773   4.181   7.147   1.362 -0.0685  0.1787 -0.3403
  273MOL0     C36774   3.778   6.935   1.477  0.2030 -0.0154  1.0524
  273MOL0     C36775   3.744   7.022   1.579  0.0455  0.0102  0.6373
  273MOL0     C36776   3.614   7.041   1.622 -0.3207 -0.2736 -0.0811
  273MOL0     C36777   3.510   6.983   1.552  0.0303  0.1720  0.0648
  273MOL0     O36778   3.377   7.005   1.580  0.1555 -0.7979 -0.0181
  273MOL0     C36779   3.322   7.136   1.537  0.0643  0.0927 -0.0519
  273MOL0     C36780   3.172   7.118   1.484  0.0436  0.0078 -0.9527
  273MOL0     C36781   3.165   7.057   1.344 -0.0768  0.5585 -0.7390
  273MOL0     C36782   3.022   7.051   1.295 -0.0983 -0.4569 -0.2869
  273MOL0     C36783   2.943   6.953   1.369 -0.4977  0.3149 -0.0629
  273MOL0     C36784   2.844   6.880   1.390 -0.0098  0.0024 -0.4319
  273MOL0     C36785   3.539   6.905   1.443 -0.2279 -0.3452  0.6318
  273MOL0     C36786   3.673   6.865   1.411 -0.7969  0.2838  0.3693
  273MOL0     C36787   3.692   6.766   1.298  0.1389  0.0823 -0.6545
  273MOL0     H36788   4.210   6.834   1.485 -0.8648 -0.1448 -0.6107
  273MOL0     H36789   4.431   6.857   1.418 -0.1334 -0.8131  0.5274
  273MOL0     H36790   4.546   7.229   1.192 -0.1781  4.6062  1.7586
  273MOL0     H36791   4.620   7.269   1.346 -0.0257  0.5587 -0.9511
  273MOL0     H36792   4.787   7.234   1.186 -2.7943  0.7908 -1.5334
  273MOL0     H36793   4.714   7.093   1.123  0.9619 -0.6822  0.2503
  273MOL0     H36794   4.777   6.959   1.327 -0.2842  0.3501 -0.2528
  273MOL0     H36795   4.815   7.098   1.421 -2.1749 -2.9978  1.3196
  273MOL0     H36796   4.952   6.978   1.179  0.5852 -0.9209  0.5810
  273MOL0     H36797   5.000   7.142   1.234 -0.0689 -0.0424  0.5466
  273MOL0     H36798   5.082   7.061   1.445  0.8582  0.3197  0.2696
  273MOL0     H36799   5.039   6.901   1.422 -2.8687  1.7907  1.9914
  273MOL0     H36800   5.231   7.080   1.253 -2.3113  2.2064  2.7725
  273MOL0     H36801   5.275   6.962   1.387 -2.7003 -2.9171  0.6487
  273MOL0     H36802   5.122   6.857   1.148 -0.0934  2.7224 -2.1203
  273MOL0     H36803   5.235   6.775   1.259  0.5465  0.7922  1.2881
  273MOL0     H36804   5.290   6.973   1.038  1.4706 -0.5309 -1.0261
  273MOL0     H36805   5.419   6.909   1.136 -0.1411  3.2096 -1.2053
  273MOL0     H36806   5.433   6.607   1.076 -0.7752  3.1106  2.4313
  273MOL0     H36807   5.373   6.388   0.879 -0.2493  0.4522  0.0265
  273MOL0     H36808   5.383   6.457   0.717 -0.8590 -1.8920  0.5916
  273MOL0     H36809   5.599   6.481   0.933  0.9237 -1.9678 -0.1679
  273MOL0     H36810   5.597   6.376   0.790 -1.5293 -2.2572  2.5665
  273MOL0     H36811   5.739   6.563   0.781 -0.0654 -1.9871 -0.9195
  273MOL0     H36812   5.607   6.682   0.787  0.4404  0.1328 -1.0678
  273MOL0     H36813   5.518   6.546   0.576 -0.7677 -2.0410  3.3131
  273MOL0     H36814   5.683   6.488   0.570 -0.5360 -0.1440 -1.3315
  273MOL0     H36815   5.892   6.548   0.580 -3.6980 -0.2751  1.1889
  273MOL0     H36816   6.112   6.633   0.545 -0.8562 -1.5318  0.6245
  273MOL0     H36817   6.432   6.683   0.195 -0.3397  0.6070 -0.9569
  273MOL0     H36818   6.681   6.724   0.161 -0.2340 -0.6978  0.3617
  273MOL0     H36819   6.948   6.839   0.151  2.4142  2.5407 -0.9123
  273MOL0     H36820   6.802   6.915   0.078 -0.8744  1.5972 -1.2373
  273MOL0     H36821   6.901   7.129   0.166  1.9268  2.0028  0.5976
  273MOL0     H36822   7.027   7.048   0.249 -0.4388 -0.5171 -0.8108
  273MOL0     H36823   6.990   7.012  -0.047 -3.8068  0.2252  2.4913
  273MOL0     H36824   7.075   7.152   0.019  0.0894 -0.0262 -0.4422
  273MOL0     H36825   7.155   6.874   0.094 -2.8746  0.7404 -1.2201
  273MOL0     H36826   7.251   7.024   0.129  1.5598 -0.6128 -1.4860
  273MOL0     H36827   7.219   6.922  -0.152  0.6554 -2.0053 -0.2005
  273MOL0     H36828   7.349   6.877  -0.045  0.6784  0.5873 -1.1310
  273MOL0     H36829   7.277   7.173  -0.090 -0.1838  0.5954  2.5702
  273MOL0     H36830   7.407   7.108   0.014  1.1293  1.4601 -0.4659
  273MOL0     H36831   7.379   7.103  -0.287  2.8916  0.5334 -2.4270
  273MOL0     H36832   7.478   6.985  -0.216  2.8987  0.6588  0.8717
  273MOL0     H36833   7.508   7.284  -0.179  2.1948  0.8399 -2.1538
  273MOL0     H36834   7.616   7.171  -0.097 -0.2691 -0.0408  1.7269
  273MOL0     H36835   6.680   6.989   0.493  1.7173 -0.2562 -0.0608
  273MOL0     H36836   6.431   6.950   0.531  1.5816  1.0626  0.9354
  273MOL0     H36837   5.954   6.991   0.375 -2.9678 -0.7791 -1.1466
  273MOL0     H36838   5.732   6.926   0.471  0.4144  0.2748  1.0962
  273MOL0     H36839   4.362   7.267   1.307  0.0826  1.3341  2.6849
  273MOL0     H36840   4.112   7.231   1.353  1.4567  1.6048  0.7317
  273MOL0     H36841   3.820   7.073   1.637 -0.3296  1.0042  0.2853
  273MOL0     H36842   3.598   7.114   1.700 -2.5517 -0.1818 -0.5782
  273MOL0     H36843   3.384   7.177   1.457  0.2639 -0.0831  0.0116
  273MOL0     H36844   3.311   7.211   1.616 -0.6429  0.2921 -0.3327
  273MOL0     H36845   3.128   7.218   1.479 -1.2708 -0.4763  0.1051
  273MOL0     H36846   3.109   7.066   1.557  0.1667 -0.5484 -1.2449
  273MOL0     H36847   3.214   6.959   1.340 -0.2730  0.3376  1.1491
  273MOL0     H36848   3.225   7.114   1.273 -0.5065  0.9219 -0.8113
  273MOL0     H36849   2.971   7.147   1.303  0.1004 -0.4209  0.6456
  273MOL0     H36850   3.026   7.021   1.190 -1.6298 -1.6039 -0.0447
  273MOL0     H36851   2.754   6.823   1.403  0.0877  0.0429  0.5058
  273MOL0     H36852   3.453   6.860   1.395 -0.6045  1.9471 -1.0078
  273MOL0     H36853   3.717   6.667   1.338 -0.3120  0.2795  0.1429
  273MOL0     H36854   3.597   6.748   1.247  0.0763 -0.9777 -0.2040
  273MOL0     H36855   3.771   6.799   1.230  0.3721  0.2115 -0.3254
  274MOL0     O36856   3.766   7.974   2.952 -0.4664 -0.2274 -0.8216
  274MOL0     C36857   3.768   7.871   2.884 -0.0869  0.1701 -0.7434
  274MOL0     O36858   3.885   7.822   2.830 -0.1968 -0.2452  0.0187
  274MOL0     C36859   3.996   7.895   2.823 -0.6969 -0.1898 -0.2932
  274MOL0     C36860   4.105   7.888   2.912 -0.3100 -0.1655 -1.3788
  274MOL0     C36861   4.220   7.966   2.899  0.1040  0.6115  0.1960
  274MOL0     C36862   4.237   8.049   2.789  0.3365  0.9336 -0.3489
  274MOL0     O36863   4.356   8.129   2.782 -0.5766 -0.0730  0.1039
  274MOL0     C36864   4.385   8.209   2.666 -0.3149 -0.3148  0.7957
  274MOL0     C36865   4.519   8.284   2.690  0.2108  0.1247 -0.3040
  274MOL0     C36866   4.634   8.178   2.701  1.5400 -0.1348 -0.2138
  274MOL0     C36867   4.774   8.236   2.689 -0.2752  0.6249 -0.4067
  274MOL0     C36868   4.869   8.113   2.681  0.7915 -0.3631  0.5138
  274MOL0     C36869   5.014   8.170   2.673  0.9475  0.2897 -0.3451
  274MOL0     C36870   5.119   8.065   2.696  0.0484  0.7296  0.0175
  274MOL0     C36871   5.124   7.985   2.567 -0.9467 -0.3057  0.4472
  274MOL0     N36872   5.247   7.910   2.558  0.9917  0.2562 -0.8947
  274MOL0     C36873   5.268   7.800   2.636  0.3328 -0.6125 -0.0762
  274MOL0     C36874   5.393   7.752   2.593  0.6366 -0.2439 -1.2490
  274MOL0     C36875   5.440   7.616   2.629 -0.3930 -0.0486  0.5557
  274MOL0     C36876   5.571   7.629   2.704 -0.7220  0.5091 -0.3320
  274MOL0     C36877   5.567   7.686   2.849 -0.3577 -0.4093 -0.9209
  274MOL0     C36878   5.703   7.710   2.904 -0.2411 -0.2936 -0.3594
  274MOL0     O36879   5.778   7.594   2.897  0.0416  0.4345  0.0831
  274MOL0     C36880   5.911   7.601   2.913  0.2594  0.0603  0.1638
  274MOL0     C36881   5.985   7.495   2.864  0.0598 -0.2279  0.3891
  274MOL0     C36882   6.126   7.491   2.869  0.0931  0.3510 -0.5608
  274MOL0     C36883   6.201   7.588   2.922  0.0276 -0.0886 -0.7013
  274MOL0     C36884   6.351   7.575   2.932  0.2925  0.2326 -1.0527
  274MOL0     O36885   6.417   7.665   3.015 -0.0719  0.7723  0.3769
  274MOL0     C36886   6.560   7.666   3.011  0.0682 -0.7248 -0.3921
  274MOL0     C36887   6.618   7.687   3.131 -0.0399 -0.9691 -0.5197
  274MOL0     C36888   6.758   7.704   3.148  0.4329 -1.2442 -0.2759
  274MOL0     C36889   6.837   7.695   3.031 -1.0295 -0.2478 -0.3835
  274MOL0     O36890   6.974   7.702   3.026 -0.5209  0.1007 -0.1807
  274MOL0     C36891   7.049   7.727   3.145  0.4229  0.6074 -0.3779
  274MOL0     C36892   7.188   7.771   3.097  0.4158  0.4949  0.1083
  274MOL0     C36893   7.268   7.789   3.224 -0.9806  0.3261  0.0179
  274MOL0     C36894   7.413   7.824   3.188  0.0434 -0.7493 -0.2982
  274MOL0     C36895   7.507   7.758   3.287 -0.5608  0.0820  0.0969
  274MOL0     C36896   7.652   7.812   3.274 -0.2839 -0.4724 -0.0095
  274MOL0     C36897   7.730   7.779   3.136  0.4259  0.0832  0.1527
  274MOL0     C36898   7.855   7.854   3.128 -0.6661 -0.6472 -0.7778
  274MOL0    Cl36899   7.815   8.021   3.085  0.1738  0.6743 -0.0294
  274MOL0     C36900   6.777   7.683   2.906 -0.1073 -0.0257 -0.3783
  274MOL0     C36901   6.634   7.672   2.901  0.1259  0.3198  0.7140
  274MOL0     O36902   6.397   7.483   2.864 -0.3564  0.7815  0.6234
  274MOL0     C36903   6.126   7.692   2.983 -0.2105  0.3458 -0.6316
  274MOL0     C36904   5.983   7.705   2.970  0.1960  0.2923  0.2044
  274MOL0     N36905   5.440   7.845   2.497  0.4071 -0.3284  0.1113
  274MOL0     N36906   5.354   7.930   2.483  0.0159  0.2616  0.1488
  274MOL0     C36907   4.131   8.060   2.694  0.1329  0.2167 -0.2929
  274MOL0     C36908   4.013   7.977   2.713 -0.4006 -0.1990  1.2042
  274MOL0     C36909   3.646   7.790   2.871 -0.6919  0.5261 -0.9162
  274MOL0     C36910   3.660   7.675   2.792  0.3801 -0.4101 -0.2884
  274MOL0     C36911   3.561   7.582   2.760 -0.2358  0.6914 -0.1931
  274MOL0     C36912   3.440   7.596   2.826 -0.4009  0.7600 -0.3666
  274MOL0     O36913   3.332   7.507   2.820 -0.2303 -0.8048  0.2347
  274MOL0     C36914   3.353   7.382   2.759 -0.6657 -0.6682  0.4335
  274MOL0     C36915   3.240   7.285   2.802 -0.2002  0.2773  0.6064
  274MOL0     C36916   3.248   7.241   2.953 -0.8599 -0.0139  0.1755
  274MOL0     C36917   3.122   7.166   2.988  0.0859  0.5497 -0.1299
  274MOL0     C36918   3.009   7.249   3.039  0.1409  0.3148  0.7663
  274MOL0     C36919   2.943   7.334   3.092 -0.0261 -0.2073 -0.1504
  274MOL0     C36920   3.421   7.707   2.906  0.8402  0.5054  0.8386
  274MOL0     C36921   3.521   7.808   2.932 -0.7356 -0.1017 -0.6057
  274MOL0     C36922   3.490   7.918   3.020 -0.1016  0.2122 -0.3316
  274MOL0     H36923   4.088   7.826   3.000  1.7848  2.5278  1.1065
  274MOL0     H36924   4.308   7.963   2.963  1.5979  0.1531 -1.7971
  274MOL0     H36925   4.394   8.152   2.573  3.2883  0.2288  0.6510
  274MOL0     H36926   4.307   8.283   2.646 -1.2725 -1.9746 -2.1657
  274MOL0     H36927   4.525   8.343   2.781 -0.2861 -2.8585  1.8040
  274MOL0     H36928   4.536   8.341   2.598  0.3923  0.5984  0.0190
  274MOL0     H36929   4.627   8.118   2.609  1.7130  1.3969 -1.2696
  274MOL0     H36930   4.615   8.115   2.789 -0.8898 -1.4489 -1.5577
  274MOL0     H36931   4.784   8.307   2.607  0.7096  1.9168  0.7785
  274MOL0     H36932   4.809   8.297   2.773  2.4028 -1.6149  0.2728
  274MOL0     H36933   4.862   8.043   2.765 -2.9152 -1.1095 -0.2499
  274MOL0     H36934   4.851   8.061   2.586 -0.8186 -2.1941  1.7487
  274MOL0     H36935   5.039   8.224   2.581 -0.4765  1.2638 -0.1730
  274MOL0     H36936   5.019   8.249   2.748  0.5112  0.5909 -0.6306
  274MOL0     H36937   5.101   7.995   2.778  2.2852 -2.7620 -2.2329
  274MOL0     H36938   5.216   8.111   2.716 -0.8530  2.8230 -0.1269
  274MOL0     H36939   5.036   7.920   2.574 -0.9385 -0.4081 -0.2715
  274MOL0     H36940   5.119   8.049   2.479 -0.8615 -0.1298  0.5707
  274MOL0     H36941   5.189   7.765   2.702 -0.2258 -0.5043 -0.6806
  274MOL0     H36942   5.360   7.574   2.690 -2.3788  2.3051 -0.2466
  274MOL0     H36943   5.454   7.557   2.538 -0.0970 -0.4213  0.8355
  274MOL0     H36944   5.604   7.528   2.728 -1.9368  0.2030  0.0955
  274MOL0     H36945   5.649   7.691   2.658  2.2430 -0.9656  2.3032
  274MOL0     H36946   5.516   7.616   2.916 -0.5734 -0.1401 -0.8005
  274MOL0     H36947   5.523   7.786   2.857  0.5405 -0.1413  2.2087
  274MOL0     H36948   5.701   7.740   3.009  1.0045 -0.3501 -0.3116
  274MOL0     H36949   5.755   7.788   2.847 -0.3959 -0.0613 -0.1833
  274MOL0     H36950   5.943   7.408   2.813 -0.4501  0.7435 -0.9163
  274MOL0     H36951   6.164   7.404   2.816  1.6982 -0.3930  1.6704
  274MOL0     H36952   6.555   7.690   3.220 -0.3332 -0.9126 -0.7269
  274MOL0     H36953   6.806   7.704   3.245 -3.3948  1.9160  1.9097
  274MOL0     H36954   7.003   7.806   3.206 -1.1372 -0.4796 -0.1006
  274MOL0     H36955   7.053   7.644   3.216  0.2113  1.0952  0.2163
  274MOL0     H36956   7.232   7.691   3.038 -1.7587  0.3126 -1.3869
  274MOL0     H36957   7.176   7.866   3.044 -0.1660  0.2052 -0.2946
  274MOL0     H36958   7.214   7.850   3.297 -0.9592 -0.1713  0.4566
  274MOL0     H36959   7.276   7.691   3.274 -1.9428  1.0271  1.6488
  274MOL0     H36960   7.430   7.932   3.194  1.9385 -0.9549 -1.1021
  274MOL0     H36961   7.437   7.791   3.087  2.6566 -0.5694  0.1961
  274MOL0     H36962   7.513   7.650   3.270  1.8181  0.4853 -2.3860
  274MOL0     H36963   7.463   7.781   3.384 -1.0479  2.6262 -0.6636
  274MOL0     H36964   7.648   7.918   3.299  0.2306 -0.3749 -0.3315
  274MOL0     H36965   7.707   7.756   3.350  0.7922 -1.6543 -1.5931
  274MOL0     H36966   7.664   7.799   3.051  1.9197  1.1572 -0.8256
  274MOL0     H36967   7.744   7.671   3.143  1.4971  0.3068  1.9512
  274MOL0     H36968   7.911   7.844   3.221 -4.6647 -2.5832  1.6886
  274MOL0     H36969   7.913   7.806   3.048 -1.1379 -1.7218 -0.5030
  274MOL0     H36970   6.834   7.692   2.813  1.5040 -2.1058  0.3301
  274MOL0     H36971   6.580   7.651   2.809  0.6440 -0.4394  0.5677
  274MOL0     H36972   6.175   7.776   3.030 -1.1816 -0.3330  1.7325
  274MOL0     H36973   5.932   7.785   3.023 -1.3124  1.4250 -2.6916
  274MOL0     H36974   4.130   8.119   2.603 -1.8366  0.6946 -0.0190
  274MOL0     H36975   3.930   7.984   2.645  0.3927 -3.0984 -0.2562
  274MOL0     H36976   3.752   7.653   2.740  2.1008 -1.3911  2.9298
  274MOL0     H36977   3.585   7.500   2.693  0.5914  1.6444 -1.0813
  274MOL0     H36978   3.453   7.355   2.796 -0.3086  0.6757  0.5079
  274MOL0     H36979   3.360   7.394   2.650  0.8327 -1.5421  0.3995
  274MOL0     H36980   3.256   7.203   2.732  0.6320  2.2811 -1.6907
  274MOL0     H36981   3.141   7.328   2.784  1.2112  4.4801  1.6801
  274MOL0     H36982   3.265   7.330   3.015 -1.2194  1.6406 -1.9908
  274MOL0     H36983   3.330   7.174   2.981  0.8056  2.1504  0.7436
  274MOL0     H36984   3.083   7.116   2.899 -1.4598  0.8386  0.3643
  274MOL0     H36985   3.159   7.106   3.073  3.9945  2.2481 -0.4093
  274MOL0     H36986   2.894   7.412   3.146  0.8263  0.1816  0.0781
  274MOL0     H36987   3.321   7.715   2.949  0.1016 -0.4959 -0.6326
  274MOL0     H36988   3.542   7.930   3.115  0.7653  1.9850 -0.9894
  274MOL0     H36989   3.522   8.008   2.967  3.7875 -0.2455  0.9530
  274MOL0     H36990   3.383   7.935   3.038  0.0260  0.9691 -0.2766
  275MOL0     O36991   8.917   3.992   3.166  0.2645 -0.3253 -0.3309
  275MOL0     C36992   8.915   3.869   3.182 -0.2585 -0.0866  0.1715
  275MOL0     O36993   9.020   3.791   3.233 -0.5176 -0.3478 -0.1195
  275MOL0     C36994   9.121   3.861   3.290 -0.2063  0.9621 -0.6313
  275MOL0     C36995   9.226   3.907   3.206  0.1868  1.2769  0.0060
  275MOL0     C36996   9.338   3.974   3.261  0.0781  0.3120  0.2616
  275MOL0     C36997   9.347   4.005   3.396 -0.1956  0.8085 -0.0978
  275MOL0     O36998   9.460   4.061   3.440  0.1497  0.2975 -0.1250
  275MOL0     C36999   9.514   4.014   3.563  0.1621 -1.2333  0.3048
  275MOL0     C37000   9.667   4.048   3.553 -0.4987  0.2297  0.0014
  275MOL0     C37001   9.756   3.966   3.454  0.3300 -0.0613 -0.9485
  275MOL0     C37002   9.903   3.977   3.497 -0.4553 -0.7021  0.0297
  275MOL0     C37003   9.986   3.900   3.388  0.1767  0.1205  0.2251
  275MOL0     C37004  10.136   3.890   3.411 -0.1781 -0.3083 -0.4485
  275MOL0     C37005  10.169   3.846   3.552 -0.5886  0.5973 -0.1115
  275MOL0     C37006  10.317   3.858   3.572 -0.1238 -0.1691  0.0113
  275MOL0     N37007  10.394   3.758   3.496  0.6739 -0.3839  0.3848
  275MOL0     C37008  10.439   3.781   3.365  0.8636 -0.4377 -0.3100
  275MOL0     C37009  10.493   3.656   3.332 -0.5908 -0.1353 -0.1563
  275MOL0     C37010  10.562   3.626   3.202  0.1684 -0.4810  0.9258
  275MOL0     C37011  10.716   3.637   3.219 -0.0457 -0.2797  0.1844
  275MOL0     C37012  10.766   3.558   3.096  0.0479  0.2621 -0.1400
  275MOL0     C37013  10.916   3.566   3.085 -0.4354 -1.0795 -0.4780
  275MOL0     O37014  10.963   3.545   3.215 -0.0855  0.2972 -0.3905
  275MOL0     C37015  11.090   3.581   3.253  0.1995 -0.4290  0.0382
  275MOL0     C37016  11.180   3.640   3.169  0.0912  0.2834  0.0232
  275MOL0     C37017  11.309   3.662   3.218 -0.4076  0.0332  0.1168
  275MOL0     C37018  11.340   3.633   3.349  0.1374  0.0311 -0.6780
  275MOL0     C37019  11.478   3.660   3.399  0.4117 -0.0272 -0.4492
  275MOL0     O37020  11.489   3.628   3.532 -0.3626  0.1809  0.1436
  275MOL0     C37021  11.613   3.640   3.585 -0.3638  0.4176 -0.0659
  275MOL0     C37022  11.698   3.756   3.575 -0.0714 -0.1401 -0.2948
  275MOL0     C37023  11.825   3.752   3.616 -0.2189 -0.2443  0.4197
  275MOL0     C37024  11.867   3.642   3.691  0.3218  0.1248 -0.4544
  275MOL0     O37025  11.991   3.639   3.757  0.4203  0.0466  0.1653
  275MOL0     C37026  12.006   3.746   3.853 -0.2995 -0.8219  0.0976
  275MOL0     C37027  12.028   3.668   3.986 -0.2994 -0.7749 -0.1357
  275MOL0     C37028  12.014   3.767   4.106  0.2324 -0.3844 -0.2327
  275MOL0     C37029  12.128   3.866   4.093  0.3516 -0.0533 -0.5764
  275MOL0     C37030  12.156   3.955   4.211  0.2802 -1.0524 -0.5067
  275MOL0     C37031  12.042   4.055   4.232  1.1807  0.1897  1.2278
  275MOL0     C37032  12.100   4.190   4.276  0.4045 -0.4760 -0.3944
  275MOL0     C37033  11.986   4.292   4.267 -0.3169 -0.0297  0.5083
  275MOL0    Cl37034  11.851   4.237   4.367  0.1305  0.1225 -0.0969
  275MOL0     C37035  11.783   3.538   3.726  0.3302 -0.4434  0.0456
  275MOL0     C37036  11.657   3.529   3.669  0.2637 -0.3068  0.1284
  275MOL0     O37037  11.560   3.702   3.323 -0.6670  0.3237 -0.5303
  275MOL0     C37038  11.246   3.580   3.437  0.4448 -0.2419 -0.6373
  275MOL0     C37039  11.123   3.550   3.382 -0.2361 -0.1972  0.5742
  275MOL0     N37040  10.475   3.569   3.433  0.5139 -0.6684 -0.2451
  275MOL0     N37041  10.412   3.630   3.533  0.5689 -0.2938  0.1160
  275MOL0     C37042   9.236   3.968   3.477  0.1760 -0.4647  0.2064
  275MOL0     C37043   9.126   3.896   3.424  0.0432 -0.1555  0.2760
  275MOL0     C37044   8.789   3.796   3.171 -0.8796 -0.6366 -0.0769
  275MOL0     C37045   8.753   3.691   3.251 -0.4463  0.1302  0.5216
  275MOL0     C37046   8.628   3.629   3.258 -0.2147  0.2888 -0.0229
  275MOL0     C37047   8.519   3.687   3.185 -0.9419  0.2158 -0.4694
  275MOL0     O37048   8.391   3.642   3.184  0.0739  0.2975 -0.1575
  275MOL0     C37049   8.370   3.516   3.254 -0.3741 -0.1928  0.2878
  275MOL0     C37050   8.229   3.466   3.233  0.4323  0.4967  0.2017
  275MOL0     C37051   8.131   3.567   3.280  0.6322 -0.7588  0.1518
  275MOL0     C37052   7.996   3.499   3.311 -0.1041 -0.1541  0.2939
  275MOL0     C37053   7.903   3.608   3.341  0.2680  0.4601  1.7048
  275MOL0     C37054   7.813   3.688   3.356  0.6033 -0.4585  0.9924
  275MOL0     C37055   8.550   3.799   3.101  1.0299  0.6121 -0.4897
  275MOL0     C37056   8.682   3.841   3.082  0.3875 -0.5287  0.1604
  275MOL0     C37057   8.705   3.936   2.964 -0.5220  0.3496 -0.1257
  275MOL0     H37058   9.214   3.874   3.103 -3.0150 -2.6972  1.4258
  275MOL0     H37059   9.412   4.008   3.190 -0.0863  0.1341  0.0071
  275MOL0     H37060   9.467   4.076   3.640 -1.3294 -1.6410 -0.2280
  275MOL0     H37061   9.498   3.907   3.580  0.4092 -1.5308 -1.2208
  275MOL0     H37062   9.710   4.049   3.654  2.8736  0.2016 -1.3209
  275MOL0     H37063   9.677   4.155   3.531 -1.2553  0.5307  1.0221
  275MOL0     H37064   9.737   3.996   3.350 -3.2530 -0.5161 -0.5555
  275MOL0     H37065   9.736   3.859   3.458  0.6454 -0.2136 -2.5920
  275MOL0     H37066   9.931   4.083   3.501 -1.7270 -0.2877 -1.1362
  275MOL0     H37067   9.913   3.929   3.595 -1.2171 -0.5761  0.1720
  275MOL0     H37068   9.948   3.798   3.386 -1.0741  0.5608  0.8085
  275MOL0     H37069   9.954   3.945   3.294 -1.6920  0.7994  1.1334
  275MOL0     H37070  10.165   3.810   3.342  2.4319 -1.6959  2.0559
  275MOL0     H37071  10.192   3.982   3.391  0.3132  0.5249  3.8196
  275MOL0     H37072  10.141   3.745   3.582  0.3757  0.2062 -0.4679
  275MOL0     H37073  10.115   3.918   3.613 -1.5467  0.8216 -1.1817
  275MOL0     H37074  10.351   3.961   3.557 -3.0992  0.6704 -1.6535
  275MOL0     H37075  10.348   3.834   3.675  1.6403  0.2198 -0.3869
  275MOL0     H37076  10.435   3.868   3.300  0.4879  2.4832  3.3172
  275MOL0     H37077  10.535   3.525   3.172 -1.2511 -0.0332  0.6527
  275MOL0     H37078  10.526   3.696   3.126 -0.5978  0.9771  2.5538
  275MOL0     H37079  10.758   3.737   3.204 -0.1348 -0.4019 -0.9751
  275MOL0     H37080  10.744   3.591   3.314  0.2744 -2.8491 -1.0675
  275MOL0     H37081  10.719   3.601   3.007 -0.2398  0.2783  0.0167
  275MOL0     H37082  10.737   3.452   3.097 -0.2572  0.3473  0.7124
  275MOL0     H37083  10.938   3.668   3.050 -1.4863 -0.9869 -0.9257
  275MOL0     H37084  10.961   3.489   3.022 -1.8519 -1.9260 -0.4992
  275MOL0     H37085  11.154   3.652   3.064 -0.0575  1.1400  0.1520
  275MOL0     H37086  11.390   3.695   3.153 -0.4639  1.6222  0.8061
  275MOL0     H37087  11.663   3.845   3.523  2.6871  1.2555  0.0336
  275MOL0     H37088  11.904   3.825   3.599 -0.3803  0.4184  2.2425
  275MOL0     H37089  12.094   3.803   3.823 -1.4138  0.5004 -0.7462
  275MOL0     H37090  11.928   3.822   3.864  3.3626  3.5656 -1.0726
  275MOL0     H37091  11.942   3.601   3.995 -1.4279  0.8827  2.4490
  275MOL0     H37092  12.129   3.625   3.980  0.5356  1.1822 -0.9650
  275MOL0     H37093  11.922   3.826   4.106  1.1839  1.1609 -0.1357
  275MOL0     H37094  12.012   3.717   4.203 -1.6253 -3.2694 -1.6241
  275MOL0     H37095  12.112   3.919   3.998 -1.3736 -1.2670 -1.0008
  275MOL0     H37096  12.218   3.805   4.074  1.3091  1.1951 -0.1847
  275MOL0     H37097  12.255   4.001   4.198 -0.3490  0.5348  0.1394
  275MOL0     H37098  12.170   3.901   4.305  0.3728 -3.0826 -1.6309
  275MOL0     H37099  11.976   4.066   4.146  0.0608  1.4344  2.1798
  275MOL0     H37100  11.979   4.012   4.311  0.3913 -1.3073 -0.1631
  275MOL0     H37101  12.188   4.225   4.222  0.3350 -0.3262 -0.4119
  275MOL0     H37102  12.128   4.177   4.380  0.0260  1.8807  0.0560
  275MOL0     H37103  12.028   4.386   4.305 -0.4975  0.0750  0.4453
  275MOL0     H37104  11.956   4.306   4.163 -0.5152  0.9397  0.6852
  275MOL0     H37105  11.817   3.464   3.798  1.5409 -1.3966 -1.4531
  275MOL0     H37106  11.592   3.446   3.696 -0.5312  0.2670  0.0170
  275MOL0     H37107  11.266   3.549   3.539  0.0817  0.9245 -0.1877
  275MOL0     H37108  11.039   3.514   3.441 -0.7674  1.0681  0.6267
  275MOL0     H37109   9.234   3.986   3.584  1.6434 -0.8439  0.3076
  275MOL0     H37110   9.047   3.861   3.490  1.7292 -0.6826  2.1127
  275MOL0     H37111   8.833   3.650   3.312 -1.5465 -3.1903 -0.0712
  275MOL0     H37112   8.625   3.536   3.314  0.2766  0.4716  0.3170
  275MOL0     H37113   8.394   3.533   3.359  3.1523 -1.1282 -0.2497
  275MOL0     H37114   8.444   3.445   3.216  1.7257  1.4080  1.1814
  275MOL0     H37115   8.212   3.365   3.271  0.9567 -0.2294 -1.4067
  275MOL0     H37116   8.206   3.466   3.126  1.3133 -0.5927 -0.0036
  275MOL0     H37117   8.116   3.641   3.201  0.4725  0.5705  1.3876
  275MOL0     H37118   8.173   3.623   3.365  0.7772  1.4964 -1.3091
  275MOL0     H37119   7.956   3.446   3.224 -0.6397  0.7982 -0.0507
  275MOL0     H37120   8.008   3.433   3.398  0.1600 -1.7198 -0.8680
  275MOL0     H37121   7.736   3.755   3.392  1.1817  0.6218  0.2598
  275MOL0     H37122   8.471   3.853   3.049 -0.8638 -2.1562 -0.7710
  275MOL0     H37123   8.622   3.956   2.896  1.2430  2.5139 -1.7838
  275MOL0     H37124   8.749   4.028   3.003  3.0033 -1.0975 -0.2831
  275MOL0     H37125   8.786   3.903   2.898  1.0566 -0.1695  1.9350
  276MOL0     O37126   4.739   9.195   2.938  0.2791  0.3983  0.5198
  276MOL0     C37127   4.643   9.173   2.864  0.5475 -0.1835  0.2350
  276MOL0     O37128   4.634   9.087   2.758 -0.1221 -0.0067 -0.7653
  276MOL0     C37129   4.750   9.011   2.730  0.4076 -0.1850 -0.8364
  276MOL0     C37130   4.743   8.881   2.695 -0.1762 -0.1003 -0.1440
  276MOL0     C37131   4.861   8.812   2.640  0.5902 -0.3656 -0.8654
  276MOL0     C37132   4.983   8.881   2.642 -1.4711  0.5511  0.2683
  276MOL0     O37133   5.098   8.825   2.593 -0.5302  0.4954 -0.2909
  276MOL0     C37134   5.113   8.680   2.576 -0.5411 -1.0402 -0.2464
  276MOL0     C37135   5.251   8.622   2.593  0.4651  0.3132  0.4011
  276MOL0     C37136   5.242   8.469   2.590  0.1111 -0.6859 -0.0919
  276MOL0     C37137   5.378   8.396   2.597  0.1790  0.0081 -0.4388
  276MOL0     C37138   5.462   8.422   2.723 -0.3842 -0.0555  0.7257
  276MOL0     C37139   5.404   8.374   2.862  0.0719 -0.7744  0.4576
  276MOL0     C37140   5.505   8.396   2.987 -0.6968  0.4589  0.6596
  276MOL0     C37141   5.441   8.370   3.124 -1.1063 -0.7828  0.6677
  276MOL0     N37142   5.537   8.368   3.242 -0.3246 -0.2392  0.4660
  276MOL0     C37143   5.633   8.455   3.272  0.1800  0.0234  0.7877
  276MOL0     C37144   5.677   8.396   3.389  0.0875  0.1898  0.4773
  276MOL0     C37145   5.793   8.441   3.473  1.1592  0.1327 -0.0121
  276MOL0     C37146   5.930   8.441   3.397  0.4759 -0.0299  0.2266
  276MOL0     C37147   5.954   8.310   3.309 -0.3870  0.1687  0.7535
  276MOL0     C37148   6.102   8.268   3.271  0.8280 -0.2852 -0.2801
  276MOL0     O37149   6.161   8.377   3.196  0.3528 -0.3285  0.3875
  276MOL0     C37150   6.293   8.407   3.207 -0.5197 -1.3156 -0.2226
  276MOL0     C37151   6.329   8.536   3.173  0.7940  0.8774 -0.4955
  276MOL0     C37152   6.460   8.578   3.165  0.3584  1.0458 -0.3707
  276MOL0     C37153   6.569   8.491   3.203  0.3531  0.3953  0.7179
  276MOL0     C37154   6.707   8.541   3.211 -0.1219 -0.3802 -0.0814
  276MOL0     O37155   6.814   8.464   3.278  0.7141  0.6057  0.0026
  276MOL0     C37156   6.942   8.504   3.267 -0.3394 -0.4243 -0.7578
  276MOL0     C37157   7.044   8.408   3.256 -0.3057 -0.1996 -0.0399
  276MOL0     C37158   7.178   8.443   3.254 -0.1633 -0.2773  1.2500
  276MOL0     C37159   7.219   8.575   3.273  0.4186  0.4211 -0.2466
  276MOL0     O37160   7.351   8.601   3.276  0.4308 -0.1849  0.0563
  276MOL0     C37161   7.395   8.718   3.345 -0.0133 -0.0479 -0.2070
  276MOL0     C37162   7.406   8.852   3.266 -0.3439  0.0105  0.5660
  276MOL0     C37163   7.465   8.842   3.126 -1.1670  0.1035 -1.6533
  276MOL0     C37164   7.617   8.815   3.131  1.2060 -0.3959  0.8385
  276MOL0     C37165   7.669   8.773   2.999  0.1172  0.0088  0.6527
  276MOL0     C37166   7.816   8.732   2.990 -0.3215 -0.0306 -0.3220
  276MOL0     C37167   7.921   8.830   3.053 -0.5784 -0.0175 -0.4602
  276MOL0     C37168   7.922   8.970   3.008  0.1152 -0.6879 -0.0428
  276MOL0    Cl37169   7.889   8.993   2.832 -0.0959  0.1472 -0.2358
  276MOL0     C37170   7.119   8.677   3.291  0.0083 -0.0609  0.1902
  276MOL0     C37171   6.981   8.642   3.286 -0.2658  0.0119  0.0552
  276MOL0     O37172   6.725   8.649   3.157  0.5031  0.2219  0.9920
  276MOL0     C37173   6.543   8.355   3.231 -0.7966 -0.0333 -0.3000
  276MOL0     C37174   6.404   8.317   3.237 -0.2447  0.4460  0.0330
  276MOL0     N37175   5.608   8.281   3.428  0.1012 -0.1193  0.4869
  276MOL0     N37176   5.525   8.263   3.329 -0.0037  0.2490 -0.5219
  276MOL0     C37177   4.985   9.015   2.673 -1.1571  0.0442  0.0862
  276MOL0     C37178   4.873   9.080   2.713 -0.6603  0.1734  0.0132
  276MOL0     C37179   4.539   9.272   2.855  0.5815 -0.7404 -0.6444
  276MOL0     C37180   4.523   9.337   2.733  0.4834 -0.0792 -0.7399
  276MOL0     C37181   4.429   9.437   2.720  0.9149  0.7410  0.5788
  276MOL0     C37182   4.346   9.472   2.829 -0.5071 -0.1133  0.5520
  276MOL0     O37183   4.245   9.566   2.826 -0.1814 -0.0967 -0.2163
  276MOL0     C37184   4.225   9.647   2.703  0.1385 -0.4643  0.5764
  276MOL0     C37185   4.091   9.718   2.725  0.1289 -0.0657 -0.4931
  276MOL0     C37186   4.122   9.825   2.829 -1.0663 -0.4496 -0.3414
  276MOL0     C37187   4.183   9.956   2.770 -0.1133 -0.3316  0.8665
  276MOL0     C37188   4.208  10.060   2.858 -0.4776 -0.3429 -0.3882
  276MOL0     C37189   4.225  10.141   2.947  0.2419 -0.1507 -0.6497
  276MOL0     C37190   4.360   9.411   2.951 -0.1010 -0.1451  0.1239
  276MOL0     C37191   4.453   9.309   2.965 -0.3903  0.0103  0.1528
  276MOL0     C37192   4.474   9.240   3.097 -0.7419 -0.2896 -0.0179
  276MOL0     H37193   4.648   8.832   2.710  0.0164 -0.3032  0.4426
  276MOL0     H37194   4.845   8.708   2.612  0.0570 -0.1992 -1.2160
  276MOL0     H37195   5.049   8.620   2.640  1.8901 -2.1658  1.2458
  276MOL0     H37196   5.082   8.658   2.473 -0.1065  2.8033 -1.3808
  276MOL0     H37197   5.292   8.657   2.688  2.7876 -1.5885  0.1907
  276MOL0     H37198   5.314   8.652   2.509 -0.8364  1.0367 -0.3487
  276MOL0     H37199   5.185   8.434   2.504 -2.2011 -0.3551  1.1955
  276MOL0     H37200   5.184   8.452   2.681  1.2264  2.8304  1.4662
  276MOL0     H37201   5.378   8.287   2.608 -0.4485 -0.2515 -2.5675
  276MOL0     H37202   5.430   8.424   2.504  3.1038  2.2993  1.6743
  276MOL0     H37203   5.563   8.384   2.703 -0.2226  1.7365 -2.5698
  276MOL0     H37204   5.471   8.531   2.727 -3.8914  0.2983  2.3995
  276MOL0     H37205   5.314   8.436   2.873  1.3600  2.4168 -4.2141
  276MOL0     H37206   5.377   8.270   2.847 -0.9073 -0.4863  0.1616
  276MOL0     H37207   5.542   8.499   2.982  1.5433 -0.3393 -0.6053
  276MOL0     H37208   5.587   8.324   2.971 -1.9905 -0.5517 -2.2262
  276MOL0     H37209   5.359   8.440   3.141 -0.2808 -0.3695  3.4942
  276MOL0     H37210   5.401   8.268   3.121  2.4195 -2.2916 -0.2895
  276MOL0     H37211   5.662   8.543   3.216 -1.1484 -0.0571 -0.0847
  276MOL0     H37212   5.779   8.545   3.505  0.8794  0.0792  0.0455
  276MOL0     H37213   5.794   8.376   3.560 -1.4262 -4.9410 -3.2905
  276MOL0     H37214   5.945   8.525   3.329 -0.6121 -0.5754 -0.7315
  276MOL0     H37215   6.011   8.453   3.469  1.3483  2.1922 -1.0372
  276MOL0     H37216   5.885   8.323   3.226 -1.0976  1.2904  1.4990
  276MOL0     H37217   5.912   8.227   3.368  0.4475 -0.3083  0.6961
  276MOL0     H37218   6.089   8.179   3.208 -0.1814  1.1953 -2.2848
  276MOL0     H37219   6.169   8.237   3.352  0.4515  0.8671  0.4888
  276MOL0     H37220   6.254   8.609   3.143 -0.1915 -0.2161 -0.7571
  276MOL0     H37221   6.463   8.680   3.129 -0.6314  0.6767 -1.6114
  276MOL0     H37222   7.021   8.305   3.232 -0.6415  0.0257 -0.6880
  276MOL0     H37223   7.250   8.363   3.236 -2.5933 -1.9277 -2.1957
  276MOL0     H37224   7.331   8.743   3.431 -2.7267  2.6994 -2.7693
  276MOL0     H37225   7.495   8.702   3.386  0.7073  3.8337 -0.0844
  276MOL0     H37226   7.303   8.887   3.255 -0.9818 -1.9264 -0.1298
  276MOL0     H37227   7.458   8.927   3.326 -0.0192 -0.6104  1.0771
  276MOL0     H37228   7.413   8.769   3.063  1.3925 -2.4004 -1.1016
  276MOL0     H37229   7.451   8.935   3.072 -0.0799  0.8019 -0.7914
  276MOL0     H37230   7.625   8.735   3.205  1.9784 -2.1004 -0.9839
  276MOL0     H37231   7.667   8.905   3.167 -0.6409  0.2910  1.8584
  276MOL0     H37232   7.652   8.864   2.941 -1.5208 -0.3174  0.5751
  276MOL0     H37233   7.607   8.698   2.949 -0.1170 -0.0342  1.0052
  276MOL0     H37234   7.826   8.630   3.028 -0.4329  0.4230  0.9688
  276MOL0     H37235   7.842   8.720   2.884  0.2904 -1.7279  0.0046
  276MOL0     H37236   8.023   8.793   3.043  0.4625  2.5081  0.1420
  276MOL0     H37237   7.900   8.825   3.160  0.7816 -3.1750 -0.2130
  276MOL0     H37238   7.839   9.020   3.059  0.3556 -1.0723  0.7328
  276MOL0     H37239   8.021   9.012   3.028 -0.9352  2.2632 -0.5378
  276MOL0     H37240   7.143   8.779   3.317 -0.2282  0.2865 -0.8885
  276MOL0     H37241   6.909   8.721   3.300 -0.5977  0.1180 -1.9952
  276MOL0     H37242   6.622   8.281   3.235 -3.2577 -2.8200  0.7549
  276MOL0     H37243   6.381   8.211   3.247 -1.9931  0.8381  0.4814
  276MOL0     H37244   5.078   9.069   2.675 -0.7335 -0.6851  0.7909
  276MOL0     H37245   4.876   9.189   2.717 -1.1503  0.1891  0.0310
  276MOL0     H37246   4.547   9.306   2.632 -0.4163 -3.5067 -0.0090
  276MOL0     H37247   4.416   9.481   2.621 -0.5097  0.4010  0.6024
  276MOL0     H37248   4.191   9.581   2.622 -3.0718  0.1552  1.2944
  276MOL0     H37249   4.301   9.719   2.674 -0.2985  0.6006  1.9955
  276MOL0     H37250   4.010   9.657   2.765 -0.5879  1.5642  0.6567
  276MOL0     H37251   4.060   9.751   2.625  2.0664 -1.4475 -1.6075
  276MOL0     H37252   4.195   9.787   2.901  0.5531 -2.1457 -2.7027
  276MOL0     H37253   4.034   9.857   2.885  0.7278  1.3089  1.6241
  276MOL0     H37254   4.274   9.933   2.713 -1.3875  1.9273 -2.4050
  276MOL0     H37255   4.108   9.989   2.698  0.9178  1.3502  0.5029
  276MOL0     H37256   4.232  10.214   3.025  0.2681  1.2526 -1.9210
  276MOL0     H37257   4.290   9.450   3.023 -0.9136 -2.5982  0.7667
  276MOL0     H37258   4.525   9.145   3.079  2.3201  1.1881  0.2170
  276MOL0     H37259   4.530   9.308   3.162  0.5634 -0.6083 -0.7707
  276MOL0     H37260   4.385   9.206   3.150 -1.2330  0.8305 -0.1113
  277MOL0     O37261   1.711   4.400   8.222 -0.6785  0.0743 -0.0580
  277MOL0     C37262   1.646   4.464   8.143 -0.5634  1.3446  0.0449
  277MOL0     O37263   1.681   4.587   8.092  0.4324 -0.2448  0.5234
  277MOL0     C37264   1.811   4.625   8.084  0.2043 -0.3029 -0.0458
  277MOL0     C37265   1.910   4.533   8.040 -0.8728 -0.6171  0.8733
  277MOL0     C37266   2.047   4.566   8.062 -0.6023  0.1408  0.7623
  277MOL0     C37267   2.091   4.679   8.130 -0.2970  0.8157 -0.2808
  277MOL0     O37268   2.223   4.698   8.130 -0.4736  0.0308 -0.3112
  277MOL0     C37269   2.275   4.819   8.180 -0.3826  0.2879 -0.4327
  277MOL0     C37270   2.425   4.788   8.224 -0.2635  0.0667 -0.3989
  277MOL0     C37271   2.503   4.920   8.252  0.7242 -0.0601  0.4279
  277MOL0     C37272   2.646   4.887   8.307  0.0669  0.0086 -0.5065
  277MOL0     C37273   2.734   5.013   8.309  0.6600 -0.4791  1.0760
  277MOL0     C37274   2.860   5.005   8.398  0.4131 -0.7696 -0.2160
  277MOL0     C37275   2.973   4.921   8.349  0.0343  0.3400  0.3992
  277MOL0     C37276   3.031   4.954   8.207 -0.5616 -0.0954  0.2257
  277MOL0     N37277   3.114   5.078   8.202 -0.2656  0.3902  0.1339
  277MOL0     C37278   3.241   5.081   8.258  0.2388  0.3508  0.4519
  277MOL0     C37279   3.290   5.197   8.208 -0.1770  0.5809  0.1700
  277MOL0     C37280   3.413   5.251   8.253 -0.2729 -0.4971 -0.6499
  277MOL0     C37281   3.536   5.157   8.232 -0.2973 -0.9864  0.0560
  277MOL0     C37282   3.676   5.210   8.280 -0.0511  0.6277 -0.2755
  277MOL0     C37283   3.785   5.113   8.240  0.6848 -0.1162 -1.0051
  277MOL0     O37284   3.810   5.126   8.106 -0.2832  0.4100 -0.0694
  277MOL0     C37285   3.907   5.206   8.050  0.5709  0.3850 -0.3755
  277MOL0     C37286   3.917   5.195   7.912 -0.8641 -0.6993 -0.0883
  277MOL0     C37287   4.030   5.257   7.855 -0.6573  0.4420 -0.5957
  277MOL0     C37288   4.119   5.339   7.927 -0.6288  0.1687 -1.2033
  277MOL0     C37289   4.237   5.402   7.875 -0.3151 -0.2333 -0.0090
  277MOL0     O37290   4.323   5.459   7.962 -0.0974  0.4983 -0.0917
  277MOL0     C37291   4.414   5.555   7.930 -0.3373 -1.0089  0.0670
  277MOL0     C37292   4.499   5.583   8.025 -0.5502 -1.1265 -0.4641
  277MOL0     C37293   4.594   5.686   8.028 -0.2036  0.5394  0.5946
  277MOL0     C37294   4.606   5.772   7.917  0.0167 -0.2150  0.2841
  277MOL0     O37295   4.710   5.856   7.893  0.2397  0.1913  0.1535
  277MOL0     C37296   4.759   5.890   7.763  0.0348 -0.3695  0.4643
  277MOL0     C37297   4.917   5.880   7.758 -0.1710 -0.4333 -0.5879
  277MOL0     C37298   5.000   5.954   7.869 -0.3449 -0.1384  0.2825
  277MOL0     C37299   5.151   5.956   7.829  0.3758  0.3320  0.0649
  277MOL0     C37300   5.242   5.994   7.943 -0.3948 -0.1368 -0.2924
  277MOL0     C37301   5.210   6.121   8.007 -0.0497 -0.0553 -0.3494
  277MOL0     C37302   5.310   6.166   8.116 -0.2495  0.1589  0.0418
  277MOL0     C37303   5.427   6.238   8.041  0.2872  0.5593 -0.4147
  277MOL0    Cl37304   5.532   6.322   8.156  0.2370  0.0232  0.2374
  277MOL0     C37305   4.511   5.758   7.817  1.4056 -0.3477  0.1381
  277MOL0     C37306   4.418   5.648   7.819 -0.1477  0.3528  0.1787
  277MOL0     O37307   4.263   5.384   7.761  0.3526 -1.0287  0.3493
  277MOL0     C37308   4.083   5.368   8.060  0.3286 -0.1044 -0.1758
  277MOL0     C37309   3.981   5.298   8.123  0.1390 -0.3719  0.2917
  277MOL0     N37310   3.196   5.258   8.121  0.0149 -0.6417 -0.3496
  277MOL0     N37311   3.087   5.187   8.119  0.4805 -0.1879 -0.2750
  277MOL0     C37312   1.992   4.769   8.178 -0.0967 -0.3223 -0.6992
  277MOL0     C37313   1.844   4.741   8.153 -0.5318 -0.3764 -0.3261
  277MOL0     C37314   1.508   4.417   8.131  0.0482  0.2086 -0.1645
  277MOL0     C37315   1.398   4.505   8.153  1.2175  0.2482 -0.0079
  277MOL0     C37316   1.258   4.463   8.146 -0.0783  0.5158  0.6357
  277MOL0     C37317   1.235   4.335   8.108 -0.0744 -0.5044  0.0579
  277MOL0     O37318   1.097   4.300   8.109  0.0838 -0.5878 -0.6691
  277MOL0     C37319   1.058   4.187   8.036 -0.8218  0.0637 -0.1564
  277MOL0     C37320   0.918   4.195   7.986  0.0127 -1.1999 -0.3033
  277MOL0     C37321   0.819   4.209   8.104 -0.2886  0.1594  0.7393
  277MOL0     C37322   0.674   4.223   8.068  0.7860 -0.6666  0.1052
  277MOL0     C37323   0.644   4.332   7.972 -0.0691  0.2155  0.0145
  277MOL0     C37324   0.623   4.422   7.902 -0.5288  0.1935  1.1652
  277MOL0     C37325   1.343   4.247   8.083  0.2573 -0.3463  0.4940
  277MOL0     C37326   1.481   4.280   8.100  0.9856 -0.0364 -0.4493
  277MOL0     C37327   1.582   4.180   8.049 -0.0188 -0.5740  0.3739
  277MOL0     H37328   1.880   4.439   7.994 -1.2818 -0.3957  0.6860
  277MOL0     H37329   2.118   4.498   8.016 -1.2087  1.0063 -1.5859
  277MOL0     H37330   2.270   4.890   8.096 -0.9765  1.3182  0.4485
  277MOL0     H37331   2.228   4.864   8.268  0.4098  1.6464 -0.6670
  277MOL0     H37332   2.474   4.727   8.147 -0.1958  0.8065 -0.9502
  277MOL0     H37333   2.431   4.733   8.319 -0.5464  1.3062  0.3671
  277MOL0     H37334   2.440   4.979   8.319  1.1813  1.5108 -0.4592
  277MOL0     H37335   2.505   4.985   8.164  0.3993 -0.0320  0.4432
  277MOL0     H37336   2.636   4.857   8.411 -0.4955 -0.0017 -0.5614
  277MOL0     H37337   2.682   4.810   8.238 -2.7202  0.9159 -3.2287
  277MOL0     H37338   2.760   5.036   8.205  2.2399  3.1391  2.1134
  277MOL0     H37339   2.662   5.089   8.338 -1.5677 -1.8688 -0.4532
  277MOL0     H37340   2.906   5.103   8.415 -0.2269  0.0055 -2.5766
  277MOL0     H37341   2.824   4.989   8.500 -0.5449  3.4755  0.3244
  277MOL0     H37342   2.942   4.816   8.346 -0.7712  0.4858  2.2372
  277MOL0     H37343   3.058   4.929   8.417  0.4156  1.5196 -0.2029
  277MOL0     H37344   3.100   4.876   8.176  0.0740  0.2265  0.8170
  277MOL0     H37345   2.950   4.973   8.135  0.3281  1.5188 -0.4056
  277MOL0     H37346   3.278   5.013   8.335  1.5134 -0.0043 -0.4343
  277MOL0     H37347   3.430   5.341   8.192  1.0070 -0.0420  0.3385
  277MOL0     H37348   3.400   5.274   8.359 -1.2560 -2.2503 -0.3513
  277MOL0     H37349   3.521   5.065   8.290 -0.8133 -0.2223  1.1825
  277MOL0     H37350   3.553   5.140   8.126  1.2335  0.0907  0.0986
  277MOL0     H37351   3.668   5.232   8.387 -0.0487 -0.2530 -0.0862
  277MOL0     H37352   3.696   5.307   8.234 -0.5487  0.8222 -0.0821
  277MOL0     H37353   3.751   5.013   8.270  0.2384  0.3524  0.1306
  277MOL0     H37354   3.873   5.127   8.303  0.2766  1.2494 -0.6923
  277MOL0     H37355   3.853   5.130   7.852 -2.9109  3.3553 -2.7186
  277MOL0     H37356   4.056   5.238   7.751 -0.4439 -3.9155  0.0645
  277MOL0     H37357   4.505   5.512   8.107  0.0083 -0.5201  0.0367
  277MOL0     H37358   4.666   5.697   8.109  1.0850  0.9476 -0.5694
  277MOL0     H37359   4.716   5.834   7.679  0.6012  1.1476 -0.8856
  277MOL0     H37360   4.744   5.997   7.747  0.3581 -0.2563  0.9043
  277MOL0     H37361   4.948   5.776   7.774  0.6630 -0.8604 -4.2221
  277MOL0     H37362   4.943   5.921   7.660  0.7930 -0.4881 -0.3633
  277MOL0     H37363   4.956   6.054   7.877 -1.5607 -0.6272 -0.0325
  277MOL0     H37364   4.987   5.904   7.966 -3.7732  3.5719  2.0363
  277MOL0     H37365   5.159   6.024   7.743  2.9059  2.7845  2.0634
  277MOL0     H37366   5.181   5.856   7.797 -0.1572  0.3669 -0.5649
  277MOL0     H37367   5.345   6.003   7.906  0.1865 -0.8352  1.0741
  277MOL0     H37368   5.251   5.907   8.009 -1.7726 -0.6706 -0.7757
  277MOL0     H37369   5.196   6.192   7.925 -0.9455  1.5391  1.1257
  277MOL0     H37370   5.111   6.115   8.054  0.5426 -0.7694  0.8551
  277MOL0     H37371   5.343   6.085   8.182 -1.5307  0.6743  1.3491
  277MOL0     H37372   5.253   6.233   8.181  2.0967  1.6393  0.7173
  277MOL0     H37373   5.488   6.162   7.991  1.1713  1.1676 -0.2927
  277MOL0     H37374   5.390   6.315   7.972 -0.8072  1.3248  0.9712
  277MOL0     H37375   4.515   5.831   7.737  0.8329 -0.4818 -0.0171
  277MOL0     H37376   4.341   5.631   7.745 -0.9329 -0.7652  1.2256
  277MOL0     H37377   4.139   5.437   8.122 -1.5948 -0.0040  1.5629
  277MOL0     H37378   3.953   5.329   8.223  0.9880  1.7981 -0.0896
  277MOL0     H37379   2.012   4.865   8.223 -0.8978 -1.3666  2.0697
  277MOL0     H37380   1.764   4.810   8.176 -0.2741 -0.9359  2.5651
  277MOL0     H37381   1.413   4.605   8.192  1.6227 -0.2846  1.2804
  277MOL0     H37382   1.175   4.528   8.169  0.3482  1.2586  0.1280
  277MOL0     H37383   1.076   4.099   8.100  2.3154 -0.6600 -1.8147
  277MOL0     H37384   1.125   4.165   7.952  1.6751 -0.5403  1.8699
  277MOL0     H37385   0.911   4.110   7.918 -3.4079 -0.0604 -1.6034
  277MOL0     H37386   0.901   4.276   7.915  0.8254  0.3429  1.1784
  277MOL0     H37387   0.845   4.290   8.173  1.3337 -1.9921  2.8042
  277MOL0     H37388   0.826   4.119   8.165  0.7643  0.8419  1.6532
  277MOL0     H37389   0.628   4.131   8.031 -1.5272 -0.4077  2.0689
  277MOL0     H37390   0.623   4.259   8.158  0.4740 -3.6103  1.2215
  277MOL0     H37391   0.593   4.495   7.830  2.4482  0.0634 -0.3423
  277MOL0     H37392   1.324   4.145   8.051 -0.1234 -0.0766 -0.1474
  277MOL0     H37393   1.608   4.114   8.132 -1.6584  1.0125  2.2453
  277MOL0     H37394   1.547   4.117   7.967 -0.4907 -0.8165  0.7593
  277MOL0     H37395   1.675   4.231   8.019  0.5666  0.2131  3.2510
  278MOL0     O37396   4.590   2.342  11.048  0.0528  0.5044 -0.1745
  278MOL0     C37397   4.521   2.284  11.128 -0.0355 -0.2074 -0.0890
  278MOL0     O37398   4.563   2.245  11.250  0.2331  0.5139 -0.2303
  278MOL0     C37399   4.696   2.219  11.276 -0.0862  0.7048 -0.0354
  278MOL0     C37400   4.789   2.316  11.329  1.1010  0.1643  0.2037
  278MOL0     C37401   4.921   2.278  11.356  0.1029  0.0452 -0.1663
  278MOL0     C37402   4.970   2.146  11.334  0.0225 -0.5252 -0.1191
  278MOL0     O37403   5.099   2.109  11.334  0.1316 -0.0675  1.0506
  278MOL0     C37404   5.203   2.205  11.343 -0.6404  0.7784  0.1180
  278MOL0     C37405   5.328   2.134  11.295  0.1277  0.9327 -1.4115
  278MOL0     C37406   5.452   2.212  11.280  0.2659  0.5188  0.3260
  278MOL0     C37407   5.572   2.120  11.237 -0.1859  0.0256 -0.4200
  278MOL0     C37408   5.710   2.193  11.223 -0.1448 -0.0727  0.1940
  278MOL0     C37409   5.747   2.256  11.352 -0.3595 -0.4638 -0.1884
  278MOL0     C37410   5.895   2.267  11.385 -0.5882 -0.2153 -0.1553
  278MOL0     C37411   5.927   2.250  11.536  0.6574  0.5959  0.9676
  278MOL0     N37412   6.064   2.282  11.560 -0.3468  0.3557  0.0433
  278MOL0     C37413   6.101   2.403  11.594  0.4045  0.5660  0.3639
  278MOL0     C37414   6.225   2.404  11.612 -0.5214 -0.2513 -0.3939
  278MOL0     C37415   6.304   2.528  11.640  0.2938  0.5611  0.4206
  278MOL0     C37416   6.442   2.487  11.683  0.0815 -0.0698  0.5365
  278MOL0     C37417   6.528   2.616  11.715  0.6144  0.7105  0.2373
  278MOL0     C37418   6.666   2.583  11.767  0.1842  0.4141 -0.1236
  278MOL0     O37419   6.732   2.686  11.829 -0.9923  0.8231 -0.0646
  278MOL0     C37420   6.867   2.658  11.860  0.0478 -1.0914  0.0414
  278MOL0     C37421   6.932   2.533  11.864 -0.6438 -0.7907 -0.0838
  278MOL0     C37422   7.067   2.528  11.905 -0.7622 -0.0821  0.5421
  278MOL0     C37423   7.141   2.639  11.924  0.5199  0.2876 -0.9268
  278MOL0     C37424   7.288   2.644  11.968 -0.2436  0.6893 -0.1571
  278MOL0     O37425   7.346   2.528  11.966 -0.6531 -0.0289 -0.0033
  278MOL0     C37426   7.481   2.512  11.947  0.1765  0.5233  0.2232
  278MOL0     C37427   7.562   2.510  12.053  0.4253 -0.0595 -0.5544
  278MOL0     C37428   7.697   2.491  12.037 -0.0707 -0.7274  0.8200
  278MOL0     C37429   7.749   2.471  11.911  0.1039  0.3703  0.2853
  278MOL0     O37430   7.883   2.446  11.903  0.2695  0.8167  1.0483
  278MOL0     C37431   7.943   2.418  11.778 -0.2643 -0.5642 -0.3153
  278MOL0     C37432   8.073   2.342  11.807 -0.0926  0.4558 -0.4199
  278MOL0     C37433   8.179   2.427  11.884  0.7667  0.4344 -0.1377
  278MOL0     C37434   8.298   2.350  11.898  0.4923 -0.3749  0.2811
  278MOL0     C37435   8.414   2.446  11.947 -0.6905 -0.5438 -0.2450
  278MOL0     C37436   8.527   2.370  12.011  0.1217  0.2357  0.5022
  278MOL0     C37437   8.628   2.318  11.911 -0.1448 -0.9388 -0.6375
  278MOL0     C37438   8.725   2.229  11.994  0.6456 -0.2159 -0.3267
  278MOL0    Cl37439   8.834   2.158  11.866 -0.1023 -0.2118 -0.4474
  278MOL0     C37440   7.666   2.476  11.795 -0.3149 -0.9330 -0.2357
  278MOL0     C37441   7.533   2.497  11.817 -0.7452  0.3653 -0.3406
  278MOL0     O37442   7.344   2.751  11.990 -0.3556 -0.8144  0.3371
  278MOL0     C37443   7.084   2.758  11.908  1.0749 -0.0262 -0.1485
  278MOL0     C37444   6.947   2.774  11.883  0.5513 -0.1581 -0.3751
  278MOL0     N37445   6.270   2.275  11.608 -0.4507 -0.3205 -0.0247
  278MOL0     N37446   6.169   2.203  11.575  0.2269 -0.0893  0.1580
  278MOL0     C37447   4.884   2.052  11.286  0.2080 -0.0272 -0.9628
  278MOL0     C37448   4.745   2.089  11.260  0.2596  0.5178 -0.3722
  278MOL0     C37449   4.379   2.260  11.087 -0.1297 -0.1212  0.0994
  278MOL0     C37450   4.337   2.125  11.091 -0.3561 -1.1006 -0.3115
  278MOL0     C37451   4.214   2.082  11.058 -0.0233 -0.2049  0.5960
  278MOL0     C37452   4.122   2.173  11.006  0.0776 -0.4324  0.0008
  278MOL0     O37453   3.998   2.124  10.966 -0.6608  0.6639  0.2797
  278MOL0     C37454   3.898   2.142  11.057  0.3842  0.6474 -0.3410
  278MOL0     C37455   3.897   2.031  11.165 -0.2577  0.2650  0.4109
  278MOL0     C37456   3.885   1.894  11.103  0.8117 -0.9160 -0.7096
  278MOL0     C37457   3.881   1.787  11.211  0.1602 -0.4070  0.6471
  278MOL0     C37458   4.020   1.753  11.256  0.7058  0.0409  0.6951
  278MOL0     C37459   4.127   1.719  11.297 -0.1667 -0.6581 -0.0013
  278MOL0     C37460   4.148   2.310  11.007 -0.6122  1.0862 -0.2004
  278MOL0     C37461   4.280   2.344  11.041 -0.8393  0.4544 -0.1549
  278MOL0     C37462   4.314   2.490  11.032 -0.0362  0.3638  0.5854
  278MOL0     H37463   4.751   2.412  11.363  2.5361  1.1515 -0.8454
  278MOL0     H37464   4.991   2.357  11.384  0.1150  0.7742 -2.1004
  278MOL0     H37465   5.176   2.296  11.288 -0.1010  1.6827  1.3115
  278MOL0     H37466   5.211   2.236  11.448  0.5799  0.0853  0.2397
  278MOL0     H37467   5.300   2.090  11.199 -2.4367  0.8958 -0.7192
  278MOL0     H37468   5.345   2.057  11.371 -1.1760  0.7886 -1.2483
  278MOL0     H37469   5.468   2.262  11.375  0.3859 -3.4039  2.5965
  278MOL0     H37470   5.429   2.287  11.204 -3.5857  0.5824  1.3617
  278MOL0     H37471   5.598   2.043  11.310  1.7712  1.2628  0.2488
  278MOL0     H37472   5.556   2.076  11.138  1.1135  0.0236 -0.6396
  278MOL0     H37473   5.789   2.118  11.212  1.8454  0.8450  5.1554
  278MOL0     H37474   5.708   2.270  11.145 -0.6515 -0.8273 -0.5534
  278MOL0     H37475   5.699   2.353  11.369 -0.1613 -0.7946  2.8350
  278MOL0     H37476   5.705   2.198  11.435  0.2052 -0.9522 -0.2334
  278MOL0     H37477   5.930   2.367  11.356 -0.0497  0.4238  2.4292
  278MOL0     H37478   5.962   2.196  11.337  2.2350  1.3785  1.1558
  278MOL0     H37479   5.855   2.312  11.591 -0.5553  1.5041 -1.4965
  278MOL0     H37480   5.904   2.148  11.571  0.9110 -1.2150 -3.5146
  278MOL0     H37481   6.042   2.492  11.574  2.0962  1.8732  0.8982
  278MOL0     H37482   6.320   2.589  11.550  0.3716  0.4977  0.3912
  278MOL0     H37483   6.258   2.585  11.721 -0.7914 -0.2592  0.4111
  278MOL0     H37484   6.427   2.424  11.772 -1.4630  1.0343  1.0869
  278MOL0     H37485   6.501   2.431  11.610  0.1500  1.9835 -1.0628
  278MOL0     H37486   6.471   2.681  11.783 -1.6547  3.8773 -4.1974
  278MOL0     H37487   6.535   2.682  11.629 -1.3368  4.2970  2.5491
  278MOL0     H37488   6.735   2.543  11.693  1.4154  0.8487  0.7650
  278MOL0     H37489   6.665   2.505  11.844  0.5779  0.2460 -0.2914
  278MOL0     H37490   6.875   2.444  11.840 -0.3066 -0.8591 -0.6680
  278MOL0     H37491   7.104   2.427  11.921  1.0691  0.6671  1.1257
  278MOL0     H37492   7.514   2.525  12.149  1.7001 -2.7376  0.6082
  278MOL0     H37493   7.761   2.495  12.125 -0.0610  1.6274  0.7707
  278MOL0     H37494   7.878   2.360  11.712 -1.6971 -0.7713  1.2098
  278MOL0     H37495   7.956   2.510  11.720 -2.5567  0.8129  1.2026
  278MOL0     H37496   8.055   2.250  11.864 -0.4141 -1.2682 -3.1389
  278MOL0     H37497   8.104   2.320  11.705 -2.5404 -1.3786 -0.8759
  278MOL0     H37498   8.200   2.516  11.823  2.0241  1.0207  1.0963
  278MOL0     H37499   8.145   2.455  11.984  1.6544 -2.5392  1.1074
  278MOL0     H37500   8.326   2.307  11.801  2.2437  1.7282 -0.2336
  278MOL0     H37501   8.286   2.261  11.959 -0.4422 -1.5902 -1.5970
  278MOL0     H37502   8.377   2.508  12.029  0.8398 -0.9857  0.8179
  278MOL0     H37503   8.452   2.494  11.856  1.0449  1.3223  1.3712
  278MOL0     H37504   8.587   2.440  12.071  4.0196 -1.3890 -1.1566
  278MOL0     H37505   8.488   2.283  12.064 -0.7996  1.0299  1.1790
  278MOL0     H37506   8.683   2.396  11.857  0.3038 -1.4034 -0.8593
  278MOL0     H37507   8.566   2.260  11.842 -2.0115  1.2451 -0.9161
  278MOL0     H37508   8.791   2.285  12.061  0.9932 -2.0961  0.9840
  278MOL0     H37509   8.674   2.143  12.039 -0.1466 -0.4776 -1.6940
  278MOL0     H37510   7.696   2.485  11.691 -0.9753 -0.8880 -0.4276
  278MOL0     H37511   7.465   2.509  11.733  2.1883  0.8938 -2.7982
  278MOL0     H37512   7.132   2.855  11.924 -3.1989  1.9491  2.6556
  278MOL0     H37513   6.910   2.876  11.886  0.4956 -0.1898  0.0679
  278MOL0     H37514   4.923   1.954  11.263 -1.9754 -1.4589  0.9397
  278MOL0     H37515   4.674   2.017  11.223  1.2119 -0.7092  0.1368
  278MOL0     H37516   4.408   2.047  11.119  2.9301  1.4002 -1.0163
  278MOL0     H37517   4.182   1.983  11.087 -1.1830  0.1146  0.4325
  278MOL0     H37518   3.808   2.126  10.998  0.4863 -0.8183 -0.1471
  278MOL0     H37519   3.901   2.236  11.113 -2.3974 -0.0498  1.1907
  278MOL0     H37520   3.812   2.037  11.234 -0.0442 -1.0229  0.8091
  278MOL0     H37521   3.980   2.022  11.236 -3.1232 -1.0456  3.9073
  278MOL0     H37522   3.966   1.874  11.033  0.3970 -1.1599 -1.1279
  278MOL0     H37523   3.797   1.892  11.037 -0.4662 -0.7349  0.9151
  278MOL0     H37524   3.844   1.817  11.310  0.0664 -2.4852  1.2954
  278MOL0     H37525   3.817   1.707  11.174 -1.9742  0.2302  2.6963
  278MOL0     H37526   4.227   1.699  11.328 -0.3437 -0.7703  0.5061
  278MOL0     H37527   4.074   2.380  10.967 -1.4710  0.9614  1.1108
  278MOL0     H37528   4.358   2.513  10.934  0.4426 -0.9223  0.4833
  278MOL0     H37529   4.219   2.542  11.043 -1.2232 -1.0367 -2.0708
  278MOL0     H37530   4.374   2.527  11.115  0.6265 -3.2038  1.8589
  279MOL0     O37531   8.976   7.509   0.501 -0.8506  0.1159  0.2372
  279MOL0     C37532   9.079   7.501   0.567 -0.0337 -0.2111  0.0617
  279MOL0     O37533   9.096   7.418   0.673  0.8285  1.3526 -0.7206
  279MOL0     C37534   8.976   7.383   0.740 -0.4097  0.7978 -0.4270
  279MOL0     C37535   8.941   7.249   0.769 -0.1660 -0.5844 -0.3372
  279MOL0     C37536   8.812   7.213   0.808 -0.8761  0.5255  0.2281
  279MOL0     C37537   8.720   7.313   0.842 -1.2201 -0.3143  0.5703
  279MOL0     O37538   8.598   7.281   0.881 -0.0345  0.0684  0.4117
  279MOL0     C37539   8.491   7.382   0.889  0.4712 -0.5264 -0.1208
  279MOL0     C37540   8.358   7.312   0.853 -0.1593 -0.5047  0.2065
  279MOL0     C37541   8.251   7.410   0.808  0.0788 -0.5862 -0.5749
  279MOL0     C37542   8.260   7.455   0.664  0.4528  0.7532 -0.2793
  279MOL0     C37543   8.143   7.553   0.633 -0.1704 -0.3036 -0.7691
  279MOL0     C37544   8.165   7.623   0.512 -0.2797 -0.2299  0.3634
  279MOL0     C37545   8.044   7.702   0.474  0.2650  0.1662  0.7195
  279MOL0     C37546   8.049   7.752   0.329  0.3922  0.9999 -0.4055
  279MOL0     N37547   8.163   7.845   0.312 -0.4230  0.6388 -0.6778
  279MOL0     C37548   8.176   7.977   0.356  0.1150  0.3970 -0.3066
  279MOL0     C37549   8.299   8.004   0.338  0.2891 -0.1997  0.2785
  279MOL0     C37550   8.354   8.148   0.361 -0.8001 -0.4417 -0.9436
  279MOL0     C37551   8.510   8.129   0.362  1.2562 -0.1757 -0.0030
  279MOL0     C37552   8.581   8.259   0.417  1.1449 -0.1176 -0.1582
  279MOL0     C37553   8.735   8.267   0.402  0.7894  0.5743  0.8956
  279MOL0     O37554   8.791   8.378   0.467  0.5967 -0.0041 -0.4355
  279MOL0     C37555   8.917   8.372   0.523  0.0765 -0.0141 -1.5236
  279MOL0     C37556   8.951   8.479   0.611 -0.1642  0.0819  0.2065
  279MOL0     C37557   9.082   8.496   0.654 -0.3951 -0.5347 -0.1719
  279MOL0     C37558   9.175   8.397   0.620 -0.1822  0.8072  0.0581
  279MOL0     C37559   9.308   8.401   0.659  0.7099 -0.2630  0.2699
  279MOL0     O37560   9.327   8.491   0.753  0.2565 -0.0506 -0.4882
  279MOL0     C37561   9.447   8.535   0.803 -0.0196  0.3270  0.4653
  279MOL0     C37562   9.447   8.666   0.869 -0.1337  0.7258 -1.2318
  279MOL0     C37563   9.563   8.727   0.907 -0.4384  0.6849  0.5672
  279MOL0     C37564   9.692   8.670   0.880  0.3173  0.3776 -0.1804
  279MOL0     O37565   9.814   8.722   0.918 -0.3989  0.3900  0.3491
  279MOL0     C37566   9.827   8.863   0.921 -0.5766  0.0898  0.5059
  279MOL0     C37567   9.985   8.899   0.909  0.6569  0.1370 -0.4369
  279MOL0     C37568  10.068   8.830   0.799  0.2825  0.0957  0.2160
  279MOL0     C37569  10.218   8.851   0.825  0.3854 -0.1515 -1.2774
  279MOL0     C37570  10.306   8.798   0.716  0.2410 -0.4762  0.5027
  279MOL0     C37571  10.449   8.817   0.752 -0.1481  0.3860  0.0462
  279MOL0     C37572  10.552   8.806   0.633  0.4173  0.7644 -0.6736
  279MOL0     C37573  10.537   8.896   0.517 -0.5222  0.2088  0.1281
  279MOL0    Cl37574  10.681   8.859   0.405  0.0766 -0.0989 -0.4952
  279MOL0     C37575   9.691   8.536   0.831  0.0759  0.3185  0.6125
  279MOL0     C37576   9.571   8.470   0.791 -0.5806 -0.4613 -0.0805
  279MOL0     O37577   9.391   8.338   0.596  0.5564  0.3657 -0.0576
  279MOL0     C37578   9.142   8.289   0.543  0.3888  0.5726 -0.6911
  279MOL0     C37579   9.011   8.273   0.504  0.4708  0.0537  0.8127
  279MOL0     N37580   8.364   7.900   0.276  0.1158 -0.6251 -0.3591
  279MOL0     N37581   8.277   7.812   0.249  0.4270 -0.0390 -0.9330
  279MOL0     C37582   8.766   7.444   0.840 -0.9345 -0.0212  0.1241
  279MOL0     C37583   8.884   7.476   0.778  0.1977  0.4937 -0.3549
  279MOL0     C37584   9.203   7.568   0.517  0.7054  0.2133  0.4452
  279MOL0     C37585   9.322   7.523   0.576 -0.2333  0.5822  0.3275
  279MOL0     C37586   9.452   7.564   0.531  0.1206  0.5930 -0.1113
  279MOL0     C37587   9.456   7.662   0.433 -0.4475  0.3109  1.0040
  279MOL0     O37588   9.569   7.714   0.385  0.6091 -0.0301  0.0016
  279MOL0     C37589   9.688   7.697   0.464 -0.0573 -0.1575 -0.7039
  279MOL0     C37590   9.806   7.758   0.402 -0.0972 -0.1550  0.7768
  279MOL0     C37591   9.924   7.733   0.483  0.2690 -0.5486 -0.2191
  279MOL0     C37592  10.052   7.805   0.446 -1.1005  0.0067  0.1277
  279MOL0     C37593  10.085   7.761   0.311  0.8963  0.5650  0.9965
  279MOL0     C37594  10.105   7.712   0.200 -0.2597  0.3673 -0.3383
  279MOL0     C37595   9.336   7.710   0.375  0.0896  0.5311 -0.0126
  279MOL0     C37596   9.210   7.660   0.415 -0.5925  0.1791  0.3681
  279MOL0     C37597   9.091   7.707   0.331  0.1396  0.2263  0.3057
  279MOL0     H37598   9.015   7.172   0.748  0.9878  0.2666  0.4599
  279MOL0     H37599   8.779   7.110   0.812  0.5469 -0.0126 -0.9830
  279MOL0     H37600   8.490   7.433   0.986 -2.2850  0.1342 -0.3994
  279MOL0     H37601   8.516   7.463   0.819  3.5166 -1.2342 -0.0125
  279MOL0     H37602   8.330   7.258   0.943 -1.2513  1.2777  0.9892
  279MOL0     H37603   8.365   7.233   0.777 -1.6775  1.8248 -2.5532
  279MOL0     H37604   8.253   7.496   0.876 -0.1034 -2.0550  1.3777
  279MOL0     H37605   8.155   7.358   0.811  0.0537 -0.4946  0.4331
  279MOL0     H37606   8.358   7.501   0.650  0.7218  0.2252 -0.1807
  279MOL0     H37607   8.261   7.370   0.595  1.4742  1.5545 -1.3006
  279MOL0     H37608   8.044   7.507   0.636 -1.6700  2.7040  0.1816
  279MOL0     H37609   8.135   7.632   0.708 -1.0186  0.6701 -1.8462
  279MOL0     H37610   8.245   7.696   0.493  0.4796 -1.4325 -1.4014
  279MOL0     H37611   8.180   7.541   0.440  1.4156 -1.2630  1.8244
  279MOL0     H37612   8.039   7.787   0.542  2.7063 -0.2009  1.4491
  279MOL0     H37613   7.951   7.644   0.478 -0.5112  1.0207 -2.1779
  279MOL0     H37614   8.063   7.664   0.265  1.0644  0.5966  0.2844
  279MOL0     H37615   7.956   7.805   0.310 -2.3634 -2.8190  1.0797
  279MOL0     H37616   8.100   8.030   0.413  1.3740  0.0409  1.7745
  279MOL0     H37617   8.327   8.204   0.271  2.1106 -2.0606 -3.0248
  279MOL0     H37618   8.309   8.210   0.439  1.3915  2.6669 -1.9575
  279MOL0     H37619   8.536   8.043   0.423  2.7435 -0.6230 -1.1903
  279MOL0     H37620   8.547   8.102   0.262 -0.2088 -0.3936 -0.5177
  279MOL0     H37621   8.549   8.267   0.521  0.6194 -2.2647 -0.0970
  279MOL0     H37622   8.546   8.342   0.355  2.5655  0.6001 -0.0254
  279MOL0     H37623   8.780   8.256   0.303  2.9501 -0.3404  1.8873
  279MOL0     H37624   8.768   8.178   0.457  0.3139  0.9584  1.8323
  279MOL0     H37625   8.881   8.561   0.624 -1.5642 -1.0480  0.0863
  279MOL0     H37626   9.118   8.582   0.711  2.0167 -1.2515 -0.4971
  279MOL0     H37627   9.352   8.714   0.888  0.8479  2.3870 -0.2248
  279MOL0     H37628   9.559   8.831   0.936 -4.0775  1.4438 -2.0312
  279MOL0     H37629   9.776   8.902   0.833 -0.1084 -1.4801 -0.4971
  279MOL0     H37630   9.797   8.918   1.011 -2.1116 -0.4873  0.3842
  279MOL0     H37631   9.984   9.008   0.921 -1.4087 -0.0618  2.2919
  279MOL0     H37632  10.028   8.859   1.001 -0.3894 -1.9696 -0.8003
  279MOL0     H37633  10.047   8.723   0.796  0.4546 -0.0305  2.3095
  279MOL0     H37634  10.031   8.872   0.705  0.8932 -1.5539 -0.8001
  279MOL0     H37635  10.244   8.806   0.921 -0.0150  1.3052 -0.4637
  279MOL0     H37636  10.234   8.959   0.836  2.4433 -0.5667  0.3972
  279MOL0     H37637  10.283   8.846   0.621  1.4098 -0.8875 -0.0090
  279MOL0     H37638  10.282   8.696   0.683 -1.8220  0.6432 -1.7746
  279MOL0     H37639  10.471   8.918   0.788 -0.2078  0.1122  0.8658
  279MOL0     H37640  10.474   8.742   0.827 -0.8364 -0.9746 -1.0429
  279MOL0     H37641  10.560   8.702   0.600  0.1624  0.8315 -0.9526
  279MOL0     H37642  10.647   8.830   0.681 -0.4691  0.3970  1.3616
  279MOL0     H37643  10.442   8.885   0.465  0.1915  1.1493 -1.4562
  279MOL0     H37644  10.535   9.000   0.552  0.0415 -0.4898  2.4308
  279MOL0     H37645   9.790   8.492   0.820  0.2710  1.3031 -3.7337
  279MOL0     H37646   9.572   8.367   0.757  1.9548 -1.3644  2.2897
  279MOL0     H37647   9.212   8.212   0.512 -0.8137 -0.6920 -0.3735
  279MOL0     H37648   8.981   8.187   0.445 -1.4324  1.4371 -0.3222
  279MOL0     H37649   8.700   7.527   0.865 -2.2412 -0.5000 -1.5112
  279MOL0     H37650   8.897   7.583   0.763  0.1101  0.6382  0.5509
  279MOL0     H37651   9.312   7.450   0.657 -2.9145 -0.7549 -1.0502
  279MOL0     H37652   9.545   7.534   0.580 -0.2568 -0.1250  0.1900
  279MOL0     H37653   9.712   7.594   0.493 -3.0209 -0.3774  1.4155
  279MOL0     H37654   9.683   7.737   0.566  1.0491 -1.8578  0.0729
  279MOL0     H37655   9.782   7.864   0.390 -0.5874 -0.2735  0.6832
  279MOL0     H37656   9.813   7.711   0.304  0.5405  3.3575 -1.0318
  279MOL0     H37657   9.945   7.625   0.485 -2.7921 -1.2893 -1.8353
  279MOL0     H37658   9.908   7.766   0.586  1.2684  1.8215 -0.7627
  279MOL0     H37659  10.042   7.914   0.436  0.2644  0.0568 -1.1486
  279MOL0     H37660  10.132   7.769   0.510  0.2031 -0.3401 -1.6171
  279MOL0     H37661  10.129   7.697   0.096 -0.0165  1.4619 -0.4618
  279MOL0     H37662   9.322   7.781   0.294 -1.3982 -1.3742 -1.5486
  279MOL0     H37663   9.025   7.760   0.400 -0.2389 -0.4277  0.4607
  279MOL0     H37664   9.111   7.773   0.246  1.2488 -0.2730  0.1573
  279MOL0     H37665   9.047   7.622   0.276  0.0517  2.3116 -3.1605
  280MOL0     O37666   4.174   1.060   1.796 -0.3132 -0.0979  0.2429
  280MOL0     C37667   4.144   1.170   1.747 -0.3562 -0.3030  0.1204
  280MOL0     O37668   4.217   1.286   1.767  0.9607 -0.4735  0.6184
  280MOL0     C37669   4.351   1.276   1.803 -0.1946 -0.0570  0.8170
  280MOL0     C37670   4.436   1.184   1.748  0.4641  0.0228  0.7045
  280MOL0     C37671   4.565   1.181   1.796  0.6934 -0.1993  0.4490
  280MOL0     C37672   4.619   1.282   1.876  1.4533  0.4096 -0.5439
  280MOL0     O37673   4.752   1.269   1.904  0.5656  0.4666 -0.2939
  280MOL0     C37674   4.817   1.387   1.947 -0.1824  1.0116  0.0998
  280MOL0     C37675   4.966   1.360   1.917  0.1586 -0.3636 -0.3254
  280MOL0     C37676   5.052   1.484   1.945 -0.1281 -0.7259  0.1392
  280MOL0     C37677   5.038   1.574   1.817  0.3116 -0.5875 -0.0988
  280MOL0     C37678   5.148   1.681   1.810  0.1088 -0.2695 -0.4811
  280MOL0     C37679   5.287   1.615   1.769 -0.3570  0.5211 -0.4596
  280MOL0     C37680   5.379   1.723   1.750 -0.3731 -0.4383 -0.0337
  280MOL0     C37681   5.524   1.695   1.714  0.5836  0.6246  0.8995
  280MOL0     N37682   5.592   1.619   1.818  0.3482 -0.4280 -0.4742
  280MOL0     C37683   5.687   1.671   1.904  0.0544  0.0871 -0.5535
  280MOL0     C37684   5.766   1.567   1.943  0.2221  0.2391  0.0919
  280MOL0     C37685   5.895   1.564   2.015  0.0567 -0.7891  1.0097
  280MOL0     C37686   5.859   1.581   2.166  0.3755 -0.1111 -0.0432
  280MOL0     C37687   5.985   1.581   2.247  0.5456  0.4010  0.4031
  280MOL0     C37688   6.043   1.722   2.269  0.0379 -0.9216  0.2827
  280MOL0     O37689   6.125   1.776   2.160 -0.4862 -0.2441  0.0093
  280MOL0     C37690   6.260   1.742   2.161 -0.0463  0.5045  0.3631
  280MOL0     C37691   6.323   1.788   2.048 -0.5573  0.5209  0.5076
  280MOL0     C37692   6.455   1.775   2.027  0.0265  0.7518 -0.1556
  280MOL0     C37693   6.531   1.703   2.119  0.0312 -0.0718 -0.8375
  280MOL0     C37694   6.674   1.689   2.103 -0.0185 -0.4456  0.6192
  280MOL0     O37695   6.749   1.685   2.216  0.2402  0.0116  0.1935
  280MOL0     C37696   6.882   1.675   2.212  0.3040 -0.8069 -0.0694
  280MOL0     C37697   6.942   1.778   2.296  0.7672 -0.7136  0.2324
  280MOL0     C37698   7.076   1.799   2.286 -0.5187  0.6167  0.1611
  280MOL0     C37699   7.159   1.703   2.225  0.1615  0.0592 -0.0613
  280MOL0     O37700   7.298   1.705   2.223  0.1759  0.7524 -0.1189
  280MOL0     C37701   7.378   1.787   2.302 -0.0256 -0.2698  0.1366
  280MOL0     C37702   7.516   1.726   2.319 -0.6298  0.2162 -0.3650
  280MOL0     C37703   7.592   1.715   2.188 -0.2483  0.3553 -0.1664
  280MOL0     C37704   7.750   1.701   2.206  1.2858 -0.8291 -0.2483
  280MOL0     C37705   7.782   1.573   2.278 -0.0072 -0.0224 -0.2224
  280MOL0     C37706   7.933   1.561   2.312  0.2051  0.4219 -0.2265
  280MOL0     C37707   7.966   1.438   2.391  0.4928 -0.1175  0.1631
  280MOL0     C37708   8.109   1.397   2.409 -1.5095  0.1022  0.5425
  280MOL0    Cl37709   8.183   1.327   2.259  0.1000 -0.0020  0.0497
  280MOL0     C37710   7.096   1.599   2.161 -0.0499  0.2431  0.3852
  280MOL0     C37711   6.958   1.584   2.141 -0.3172 -1.0428 -0.1584
  280MOL0     O37712   6.718   1.686   1.987 -0.1196 -0.4340  0.1745
  280MOL0     C37713   6.472   1.659   2.237 -0.0486 -0.1343  0.3078
  280MOL0     C37714   6.333   1.676   2.251  0.3948 -1.0364 -0.1860
  280MOL0     N37715   5.705   1.454   1.897  0.6236  1.0336 -0.4750
  280MOL0     N37716   5.605   1.481   1.819  0.0571 -0.4291 -0.1976
  280MOL0     C37717   4.533   1.385   1.919  1.1153  0.9184  0.0656
  280MOL0     C37718   4.402   1.370   1.884 -0.7441 -1.1241  0.0812
  280MOL0     C37719   4.022   1.180   1.658 -0.1284  0.5439  0.0581
  280MOL0     C37720   3.986   1.312   1.606 -0.2032  0.7147 -0.9028
  280MOL0     C37721   3.874   1.326   1.533  0.5634  0.1445  0.1187
  280MOL0     C37722   3.792   1.222   1.495  0.3192  0.0306  0.8468
  280MOL0     O37723   3.685   1.249   1.413 -0.1863 -0.6157  0.5877
  280MOL0     C37724   3.578   1.156   1.402 -0.3103  0.3900 -0.4829
  280MOL0     C37725   3.453   1.224   1.339  1.2907 -0.7076  0.1381
  280MOL0     C37726   3.473   1.278   1.193 -0.4683  0.2159 -0.6512
  280MOL0     C37727   3.337   1.347   1.157 -0.0435 -0.5137  0.4244
  280MOL0     C37728   3.224   1.264   1.128 -0.0316 -0.4892 -0.5280
  280MOL0     C37729   3.131   1.194   1.111  0.1231  0.7513  0.2310
  280MOL0     C37730   3.819   1.092   1.547 -0.3231  0.6836  0.7595
  280MOL0     C37731   3.936   1.064   1.618 -0.8323 -0.2743 -0.3863
  280MOL0     C37732   3.963   0.924   1.642 -0.2015 -0.3833  0.3887
  280MOL0     H37733   4.408   1.112   1.672  2.5273  1.1784 -1.2762
  280MOL0     H37734   4.627   1.099   1.762  0.4694 -0.5739  0.9261
  280MOL0     H37735   4.793   1.466   1.875  0.3783  0.5639 -0.5963
  280MOL0     H37736   4.803   1.405   2.054 -1.0614 -0.3386  0.2264
  280MOL0     H37737   4.983   1.306   1.823 -0.8301 -2.5309  0.6612
  280MOL0     H37738   4.989   1.284   1.992  0.7178 -0.4599 -0.5856
  280MOL0     H37739   5.156   1.452   1.955  0.4311  1.5416  2.7896
  280MOL0     H37740   5.021   1.536   2.036 -4.5558 -0.2618 -1.3736
  280MOL0     H37741   5.058   1.513   1.729 -0.7144 -0.3002 -0.5444
  280MOL0     H37742   4.940   1.624   1.817  0.0292 -1.0670  1.5640
  280MOL0     H37743   5.128   1.746   1.724  1.5856  0.3432 -0.3897
  280MOL0     H37744   5.162   1.748   1.894  1.8112 -2.0437  0.7418
  280MOL0     H37745   5.326   1.549   1.847  0.2031  0.4807 -0.7661
  280MOL0     H37746   5.278   1.556   1.677 -0.6366  0.6750 -0.5314
  280MOL0     H37747   5.378   1.789   1.838 -0.8411 -0.2408 -0.1889
  280MOL0     H37748   5.343   1.780   1.665  3.4890 -0.7373 -2.1033
  280MOL0     H37749   5.526   1.636   1.622  0.1700 -0.7245  1.7240
  280MOL0     H37750   5.578   1.789   1.701 -0.8745  1.4351  0.4655
  280MOL0     H37751   5.694   1.775   1.932 -0.2500 -0.9866  4.5865
  280MOL0     H37752   5.940   1.465   2.000  1.5526  0.1867 -1.6251
  280MOL0     H37753   5.963   1.638   1.971  0.5103 -1.6063  0.2989
  280MOL0     H37754   5.795   1.667   2.187  0.2627 -0.0654 -0.5513
  280MOL0     H37755   5.803   1.492   2.196  0.9314 -0.5261 -0.2205
  280MOL0     H37756   6.055   1.508   2.206  1.3088  0.9702  0.6740
  280MOL0     H37757   5.966   1.534   2.344  0.7612 -2.1619 -0.7145
  280MOL0     H37758   6.099   1.733   2.363  1.7391  1.7086 -0.9250
  280MOL0     H37759   5.959   1.790   2.289  0.2150 -0.4258 -0.5832
  280MOL0     H37760   6.262   1.846   1.979 -0.5915  0.6890  0.6779
  280MOL0     H37761   6.497   1.807   1.932  1.5210  0.4283  0.3682
  280MOL0     H37762   6.877   1.836   2.361  2.9028  1.6964  0.3921
  280MOL0     H37763   7.117   1.893   2.322 -1.9935  1.4394 -0.2208
  280MOL0     H37764   7.396   1.881   2.249  1.8562 -2.2154 -3.0174
  280MOL0     H37765   7.330   1.798   2.399 -0.2203  1.6297 -0.1397
  280MOL0     H37766   7.581   1.773   2.394  0.9058 -1.1614 -0.7663
  280MOL0     H37767   7.493   1.626   2.358  0.5711 -0.2092 -0.7050
  280MOL0     H37768   7.561   1.629   2.129  0.3262  0.2774 -0.3657
  280MOL0     H37769   7.573   1.809   2.136  2.6383  0.6692 -0.8339
  280MOL0     H37770   7.800   1.773   2.271  1.3143  0.1140 -1.2967
  280MOL0     H37771   7.794   1.705   2.106 -0.2589 -3.4615 -1.1437
  280MOL0     H37772   7.746   1.493   2.213 -0.2182 -2.0534  2.2731
  280MOL0     H37773   7.724   1.564   2.370 -1.6735 -0.2078 -1.2427
  280MOL0     H37774   7.991   1.563   2.219  0.5526  1.3455 -0.0107
  280MOL0     H37775   7.963   1.649   2.371 -1.0875 -0.4105  1.7551
  280MOL0     H37776   7.924   1.344   2.354  4.0686 -1.9563  0.3705
  280MOL0     H37777   7.926   1.467   2.489 -0.9495  3.5331 -1.3138
  280MOL0     H37778   8.170   1.478   2.449 -0.0339 -0.5391 -0.3460
  280MOL0     H37779   8.112   1.328   2.495 -4.0060  1.5112  1.8758
  280MOL0     H37780   7.156   1.521   2.115 -0.2352 -0.7723  1.7869
  280MOL0     H37781   6.918   1.499   2.086 -1.4714 -1.3225  1.0454
  280MOL0     H37782   6.528   1.612   2.317  0.8783 -0.2005 -0.3785
  280MOL0     H37783   6.287   1.648   2.345  0.4627  0.7895  0.4344
  280MOL0     H37784   4.562   1.459   1.993  2.7657 -0.7503  1.2039
  280MOL0     H37785   4.341   1.448   1.928  1.4566  0.5494  0.3742
  280MOL0     H37786   4.053   1.394   1.631 -2.0457  1.6742  1.1924
  280MOL0     H37787   3.836   1.422   1.498  0.2695 -0.0968 -0.2286
  280MOL0     H37788   3.540   1.127   1.501 -0.7674 -2.8311 -1.4716
  280MOL0     H37789   3.604   1.068   1.342  2.2712  0.5373  0.3088
  280MOL0     H37790   3.413   1.306   1.399 -0.4681 -1.8308  0.5657
  280MOL0     H37791   3.371   1.152   1.336 -2.1443  2.8464 -1.8846
  280MOL0     H37792   3.502   1.199   1.123 -0.3009  1.2895 -1.8339
  280MOL0     H37793   3.547   1.357   1.186  0.1779 -0.1618  1.3173
  280MOL0     H37794   3.309   1.426   1.227  0.0791 -0.2063  0.1290
  280MOL0     H37795   3.355   1.397   1.061  1.5747 -2.1105 -0.1658
  280MOL0     H37796   3.040   1.139   1.102  1.0285 -0.9459  0.9462
  280MOL0     H37797   3.748   1.011   1.534  2.0138 -1.2085 -1.1881
  280MOL0     H37798   3.955   0.896   1.748 -0.2021 -0.5404  0.3467
  280MOL0     H37799   3.889   0.878   1.577 -4.1652  4.7180  0.6819
  280MOL0     H37800   4.060   0.888   1.606 -0.2101  0.4634 -0.5217
  281MOL0     O37801   7.004   9.466   0.823  0.3545  0.3365  0.0503
  281MOL0     C37802   6.960   9.350   0.826  0.4763 -0.7144  0.4235
  281MOL0     O37803   7.008   9.251   0.912 -0.3238 -0.4503 -0.1189
  281MOL0     C37804   7.112   9.264   1.000  0.2555 -0.3997 -0.2906
  281MOL0     C37805   7.205   9.363   0.995 -0.9918  0.0873 -0.0420
  281MOL0     C37806   7.314   9.362   1.083 -0.1717 -0.6367  0.9296
  281MOL0     C37807   7.337   9.256   1.171  1.4709 -0.0401 -0.6065
  281MOL0     O37808   7.448   9.249   1.252  0.3131  0.2786  0.2763
  281MOL0     C37809   7.492   9.111   1.292 -0.2800 -0.6026 -0.2677
  281MOL0     C37810   7.635   9.093   1.337  0.2276  0.6067 -0.0791
  281MOL0     C37811   7.631   9.125   1.491  0.8189 -0.1755  0.6320
  281MOL0     C37812   7.750   9.068   1.564 -0.2883 -0.4195 -0.3170
  281MOL0     C37813   7.754   9.101   1.718 -0.8157 -0.2960 -0.0722
  281MOL0     C37814   7.894   9.070   1.772  0.3230 -1.1720  0.1997
  281MOL0     C37815   7.910   9.075   1.925  0.1358 -0.6855  0.1287
  281MOL0     C37816   7.987   8.958   1.989  0.2010 -0.1436  0.0367
  281MOL0     N37817   8.133   8.951   1.954  0.1085  0.0504  0.4906
  281MOL0     C37818   8.216   8.841   1.976 -0.2821 -0.0842 -0.1037
  281MOL0     C37819   8.339   8.884   1.953  0.0907  0.2589  0.1822
  281MOL0     C37820   8.466   8.797   1.962 -0.8417  0.7891 -0.0578
  281MOL0     C37821   8.537   8.811   2.093 -0.0853 -0.2331  0.3054
  281MOL0     C37822   8.594   8.956   2.110 -0.2955 -0.0728  1.3663
  281MOL0     C37823   8.676   8.980   2.231 -0.6015 -0.4351 -0.3648
  281MOL0     O37824   8.763   9.089   2.211  0.2507  0.2325 -0.3076
  281MOL0     C37825   8.893   9.092   2.253 -0.4299  0.2467 -0.3969
  281MOL0     C37826   8.944   9.019   2.370 -0.2682 -0.0257  0.0627
  281MOL0     C37827   9.074   9.052   2.414  0.3635 -0.6968 -0.7711
  281MOL0     C37828   9.162   9.130   2.336 -0.2178  0.0128 -0.1123
  281MOL0     C37829   9.304   9.153   2.378  0.3860  0.3111 -1.1432
  281MOL0     O37830   9.394   9.196   2.283 -0.6906  0.6064 -0.5841
  281MOL0     C37831   9.526   9.197   2.325 -0.3715  0.1353 -0.7619
  281MOL0     C37832   9.590   9.323   2.330  0.4012 -0.4772 -0.1771
  281MOL0     C37833   9.726   9.338   2.347 -0.4186  0.1904  0.3398
  281MOL0     C37834   9.802   9.226   2.364  0.4712 -0.2130  0.1297
  281MOL0     O37835   9.939   9.241   2.374 -0.7799 -0.1334 -0.1248
  281MOL0     C37836   9.978   9.278   2.502 -0.0222  0.4915  0.2573
  281MOL0     C37837  10.138   9.277   2.503 -0.4655  0.3066 -0.9095
  281MOL0     C37838  10.194   9.406   2.427  0.3101  0.9969 -0.7190
  281MOL0     C37839  10.344   9.395   2.393  0.5898  0.4406 -0.6928
  281MOL0     C37840  10.383   9.506   2.292 -0.0400  0.1373 -0.1345
  281MOL0     C37841  10.371   9.650   2.350  0.7367  0.1955  0.3407
  281MOL0     C37842  10.428   9.757   2.259  0.3642 -0.3012  0.8632
  281MOL0     C37843  10.581   9.776   2.279 -0.2088  0.4163 -0.4918
  281MOL0    Cl37844  10.670   9.652   2.176 -0.2012 -0.1863  0.1662
  281MOL0     C37845   9.742   9.093   2.361 -0.5188  0.5937  0.0915
  281MOL0     C37846   9.608   9.080   2.339  0.4264 -1.3166 -0.9265
  281MOL0     O37847   9.329   9.129   2.498  0.1612  0.2668 -0.1941
  281MOL0     C37848   9.109   9.193   2.216  0.2233  0.2544 -0.4324
  281MOL0     C37849   8.978   9.175   2.178  0.1165 -0.7419 -0.3674
  281MOL0     N37850   8.336   9.006   1.895  0.0781 -1.1696  0.6231
  281MOL0     N37851   8.218   9.052   1.903 -0.1923  0.4545  0.3201
  281MOL0     C37852   7.232   9.161   1.185  0.5076 -0.1874 -0.7227
  281MOL0     C37853   7.122   9.179   1.107  0.4390  0.8160  0.7722
  281MOL0     C37854   6.856   9.319   0.715  0.3106  1.0147 -0.1975
  281MOL0     C37855   6.788   9.430   0.650 -0.0262  0.4381  0.0876
  281MOL0     C37856   6.699   9.405   0.548 -0.6586 -0.4292  0.2921
  281MOL0     C37857   6.662   9.280   0.509  0.2268  0.2237  0.3616
  281MOL0     O37858   6.573   9.256   0.412  0.0502  0.4180  0.2179
  281MOL0     C37859   6.441   9.207   0.454 -0.4695 -0.7463  0.2165
  281MOL0     C37860   6.339   9.241   0.340 -0.9021  1.0347 -0.3028
  281MOL0     C37861   6.297   9.385   0.346  0.8658 -0.4314  0.0716
  281MOL0     C37862   6.214   9.426   0.232  0.0587 -0.1015  0.6912
  281MOL0     C37863   6.083   9.353   0.219  0.3136 -0.3064 -0.1510
  281MOL0     C37864   5.975   9.311   0.185 -0.4861 -0.4390 -0.7537
  281MOL0     C37865   6.732   9.172   0.560 -0.1646 -0.3384 -0.0353
  281MOL0     C37866   6.837   9.186   0.654 -1.3002 -0.3406 -0.7400
  281MOL0     C37867   6.928   9.067   0.683  0.0863  0.2417 -0.1529
  281MOL0     H37868   7.208   9.443   0.922 -0.6979 -2.5944 -3.2341
  281MOL0     H37869   7.397   9.428   1.060 -1.4722  0.4336 -0.9709
  281MOL0     H37870   7.418   9.071   1.362 -2.0364  0.1970 -1.5838
  281MOL0     H37871   7.492   9.045   1.204 -1.7759 -2.3604  0.9806
  281MOL0     H37872   7.701   9.164   1.287 -0.1365  2.1926  1.5783
  281MOL0     H37873   7.677   8.993   1.322  0.0910  0.0356  2.7534
  281MOL0     H37874   7.536   9.088   1.532 -0.0861  0.0486 -1.1459
  281MOL0     H37875   7.634   9.233   1.512  0.2299  0.5484 -2.5800
  281MOL0     H37876   7.737   8.961   1.546 -3.7166 -0.3038  0.8889
  281MOL0     H37877   7.844   9.108   1.523 -1.3011  1.8593 -0.5492
  281MOL0     H37878   7.727   9.205   1.740  0.3614  0.5584 -2.3345
  281MOL0     H37879   7.682   9.042   1.775 -0.6256  1.2868  1.9155
  281MOL0     H37880   7.929   8.974   1.735  0.0251 -1.2592  0.1443
  281MOL0     H37881   7.950   9.158   1.737 -2.2795  2.1479  3.4900
  281MOL0     H37882   7.807   9.071   1.961 -0.0736  0.8068 -0.2694
  281MOL0     H37883   7.957   9.169   1.955  2.5924 -2.3452  1.8617
  281MOL0     H37884   7.986   8.967   2.098 -1.2834  1.6373 -0.0665
  281MOL0     H37885   7.940   8.862   1.965 -2.5983  0.8088  1.2960
  281MOL0     H37886   8.193   8.738   2.004 -1.9564  0.4541  0.5946
  281MOL0     H37887   8.445   8.690   1.953  1.3350  0.1584  1.4817
  281MOL0     H37888   8.530   8.816   1.876 -1.4072 -1.6052 -1.1043
  281MOL0     H37889   8.459   8.775   2.161  0.6979  0.1515  1.4464
  281MOL0     H37890   8.614   8.735   2.113 -1.7950 -0.8151  6.9210
  281MOL0     H37891   8.509   9.025   2.112 -0.6671 -0.5337  3.6410
  281MOL0     H37892   8.656   8.987   2.025  0.4560  0.2171  2.0049
  281MOL0     H37893   8.720   8.887   2.270 -1.3131 -2.5006 -4.0191
  281MOL0     H37894   8.608   9.005   2.312 -0.9049  0.4020 -0.8678
  281MOL0     H37895   8.885   8.958   2.438  1.4624 -0.9197  0.8219
  281MOL0     H37896   9.110   8.995   2.499  0.6887  0.9491  0.2315
  281MOL0     H37897   9.528   9.410   2.314 -0.0866 -1.1023 -2.0629
  281MOL0     H37898   9.776   9.434   2.348 -0.7555  0.3845 -0.3912
  281MOL0     H37899   9.940   9.379   2.519 -0.3342  0.2626  0.9267
  281MOL0     H37900   9.949   9.209   2.581  0.7269 -1.7908 -1.3725
  281MOL0     H37901  10.169   9.289   2.607  0.0206 -0.7737 -0.9256
  281MOL0     H37902  10.176   9.185   2.460  1.0717  0.4891 -0.0040
  281MOL0     H37903  10.145   9.414   2.330  2.3177  2.4240 -1.6972
  281MOL0     H37904  10.185   9.499   2.485 -0.7141  0.2284  0.3939
  281MOL0     H37905  10.371   9.299   2.348 -0.8759  0.2615 -1.2722
  281MOL0     H37906  10.395   9.396   2.489 -0.4005  0.0214 -0.1445
  281MOL0     H37907  10.335   9.508   2.194 -1.5498 -0.3021  0.5666
  281MOL0     H37908  10.489   9.484   2.279  0.2069  1.7745 -1.2901
  281MOL0     H37909  10.262   9.655   2.362  0.7687 -0.1034  0.7863
  281MOL0     H37910  10.409   9.651   2.452 -0.7623  1.3773  0.9126
  281MOL0     H37911  10.380   9.849   2.295 -0.4358  0.5218 -2.0486
  281MOL0     H37912  10.397   9.741   2.156 -0.2394  1.5669  0.7053
  281MOL0     H37913  10.606   9.880   2.259 -0.6826  0.6064 -0.1298
  281MOL0     H37914  10.599   9.752   2.384 -2.2697  0.0993 -0.1650
  281MOL0     H37915   9.814   9.013   2.377  2.0094  2.3055 -2.0133
  281MOL0     H37916   9.554   8.986   2.335 -0.9512 -0.5514 -1.1032
  281MOL0     H37917   9.169   9.247   2.143  0.1720 -1.5194 -1.8448
  281MOL0     H37918   8.948   9.228   2.088 -0.2779  0.0603  0.2262
  281MOL0     H37919   7.230   9.086   1.263  1.0065  1.4704  0.9705
  281MOL0     H37920   7.051   9.098   1.117  1.4637  0.0856  2.7039
  281MOL0     H37921   6.811   9.533   0.674  1.7241 -0.0532  0.6969
  281MOL0     H37922   6.641   9.486   0.504 -0.4972 -0.0963  0.6922
  281MOL0     H37923   6.406   9.260   0.543  0.5884 -1.0966  0.8634
  281MOL0     H37924   6.442   9.099   0.472 -0.5230 -0.6394  0.8927
  281MOL0     H37925   6.253   9.177   0.361 -0.1259  0.7284  2.2582
  281MOL0     H37926   6.378   9.213   0.242 -1.4804 -0.4618 -0.1227
  281MOL0     H37927   6.387   9.445   0.365 -0.0374  0.5055  1.5737
  281MOL0     H37928   6.235   9.400   0.435 -1.9914  0.0452 -1.8803
  281MOL0     H37929   6.197   9.533   0.247  2.0234  0.8080 -2.5660
  281MOL0     H37930   6.262   9.403   0.137 -2.8475 -1.1547 -0.6411
  281MOL0     H37931   5.877   9.278   0.160 -1.6446 -0.0155  2.6761
  281MOL0     H37932   6.707   9.071   0.530  1.4868 -0.5053 -0.9515
  281MOL0     H37933   6.930   9.008   0.591  0.3310 -0.2475  0.1615
  281MOL0     H37934   7.032   9.095   0.705 -0.0055  0.6738 -0.2658
  281MOL0     H37935   6.889   9.009   0.767  1.2026 -1.1260 -0.5346
  282MOL0     O37936   2.242   0.266   9.090 -0.5509 -0.3819 -0.0514
  282MOL0     C37937   2.139   0.264   9.154  0.4209  0.8581 -0.2870
  282MOL0     O37938   2.135   0.202   9.271  0.2018 -0.0839 -0.3650
  282MOL0     C37939   2.242   0.176   9.354 -0.4468 -0.0614  0.4525
  282MOL0     C37940   2.349   0.099   9.307 -0.6993 -0.0429 -0.5194
  282MOL0     C37941   2.463   0.076   9.393 -0.4712 -0.4833  0.4396
  282MOL0     C37942   2.461   0.107   9.529  0.4432 -0.2801 -0.3578
  282MOL0     O37943   2.570   0.090   9.621  1.1354 -0.0591  0.4542
  282MOL0     C37944   2.693   0.046   9.565 -1.6080  0.4199  0.3048
  282MOL0     C37945   2.805   0.058   9.668  0.4416 -0.0034  0.3634
  282MOL0     C37946   2.938   0.039   9.605 -0.5448  0.2380  0.0986
  282MOL0     C37947   2.967  -0.117   9.575 -0.9584  0.6647 -0.2938
  282MOL0     C37948   3.109  -0.135   9.522  0.7291 -0.1807  0.2465
  282MOL0     C37949   3.217  -0.076   9.605 -0.3690 -0.4569  0.7532
  282MOL0     C37950   3.347  -0.163   9.590  0.5478  0.8033  0.1055
  282MOL0     C37951   3.460  -0.136   9.695  0.1975  0.7304 -0.6032
  282MOL0     N37952   3.595  -0.181   9.656  0.2889 -0.1973  0.6267
  282MOL0     C37953   3.686  -0.087   9.617 -0.2710  0.8244  0.5500
  282MOL0     C37954   3.799  -0.167   9.591  0.5574 -0.3747  0.0646
  282MOL0     C37955   3.938  -0.115   9.554  0.3580 -0.8784  0.4170
  282MOL0     C37956   4.035  -0.221   9.497  0.5353 -0.7837  0.2992
  282MOL0     C37957   4.180  -0.181   9.482  0.0227  0.5754 -0.5685
  282MOL0     C37958   4.257  -0.288   9.401  0.3024  0.8946  0.5736
  282MOL0     O37959   4.399  -0.247   9.400  0.1470  0.5152 -0.8977
  282MOL0     C37960   4.485  -0.341   9.343  0.0460 -0.2443  0.9009
  282MOL0     C37961   4.621  -0.321   9.356  0.1738  0.0243 -0.0614
  282MOL0     C37962   4.720  -0.404   9.304 -0.4332  0.4129  0.7036
  282MOL0     C37963   4.683  -0.503   9.217 -0.1975  0.1376  0.7136
  282MOL0     C37964   4.784  -0.590   9.142 -0.2801 -0.4675 -0.1547
  282MOL0     O37965   4.908  -0.574   9.187 -0.5131 -0.0359  0.6131
  282MOL0     C37966   5.018  -0.637   9.142 -0.2709  0.4978 -0.0358
  282MOL0     C37967   5.035  -0.746   9.057  0.2342  0.1308 -0.5203
  282MOL0     C37968   5.168  -0.795   9.021  0.3576  0.1045  0.6293
  282MOL0     C37969   5.280  -0.723   9.064  0.5931 -0.2293  0.4486
  282MOL0     O37970   5.401  -0.751   9.007  0.5178 -1.1702  0.4552
  282MOL0     C37971   5.482  -0.831   9.092 -0.3500 -0.1395 -0.1362
  282MOL0     C37972   5.608  -0.756   9.130 -0.4351 -0.1203  0.4165
  282MOL0     C37973   5.709  -0.731   9.019 -0.4713 -0.6178  0.1686
  282MOL0     C37974   5.833  -0.653   9.064  0.8844  0.3034  0.1969
  282MOL0     C37975   5.942  -0.644   8.947 -0.0867 -0.0347 -0.4373
  282MOL0     C37976   6.059  -0.557   9.007  0.1637  0.1973  0.4859
  282MOL0     C37977   6.179  -0.587   8.926  0.3512 -0.5255  0.6821
  282MOL0     C37978   6.312  -0.518   8.965  0.4952  0.7739  0.1732
  282MOL0    Cl37979   6.377  -0.586   9.113 -0.2074 -0.0351 -0.3568
  282MOL0     C37980   5.267  -0.607   9.141 -0.0711 -0.4190  0.3157
  282MOL0     C37981   5.139  -0.571   9.186 -0.6430  0.3280 -0.3512
  282MOL0     O37982   4.750  -0.660   9.054 -0.3454 -0.2496 -0.3196
  282MOL0     C37983   4.545  -0.538   9.207 -0.5271 -0.2951  0.2885
  282MOL0     C37984   4.446  -0.450   9.268  0.0356  0.3329  0.5240
  282MOL0     N37985   3.759  -0.301   9.615  0.0822  0.5107  0.6014
  282MOL0     N37986   3.637  -0.305   9.661  0.5675  0.4935  0.1699
  282MOL0     C37987   2.351   0.188   9.578  0.5898 -0.0678  1.0383
  282MOL0     C37988   2.251   0.220   9.493  0.4460  0.6985  0.3686
  282MOL0     C37989   1.999   0.294   9.104 -0.3388 -0.5475  0.3448
  282MOL0     C37990   1.881   0.291   9.187 -0.5880 -0.0514 -0.1325
  282MOL0     C37991   1.758   0.298   9.139  1.4115  0.7536 -0.4287
  282MOL0     C37992   1.732   0.319   9.004  0.7678 -0.0061  0.5558
  282MOL0     O37993   1.611   0.336   8.936  0.8352 -0.3202  0.6177
  282MOL0     C37994   1.496   0.337   9.019  0.0289  0.4525  0.0125
  282MOL0     C37995   1.366   0.336   8.942 -0.5376 -0.8267  0.7503
  282MOL0     C37996   1.361   0.467   8.848 -0.2238 -0.4597 -0.4787
  282MOL0     C37997   1.256   0.464   8.747 -0.7097  0.4168  0.4429
  282MOL0     C37998   1.123   0.491   8.804  0.0002  0.3619  0.0992
  282MOL0     C37999   1.019   0.524   8.853 -0.5294 -0.5400  0.4281
  282MOL0     C38000   1.843   0.318   8.919  0.1907 -0.9970 -0.6586
  282MOL0     C38001   1.970   0.313   8.966 -0.0986  0.2530 -1.0671
  282MOL0     C38002   2.088   0.329   8.865  0.5748 -0.0632  0.7198
  282MOL0     H38003   2.358   0.072   9.202  0.0906 -3.7977  0.3522
  282MOL0     H38004   2.554   0.044   9.343  1.5758  2.3330  2.0742
  282MOL0     H38005   2.690  -0.057   9.527  3.9284 -0.3957  1.1999
  282MOL0     H38006   2.700   0.126   9.491 -1.6126  0.9587  0.8792
  282MOL0     H38007   2.791  -0.017   9.747 -0.6543  3.4799  3.7477
  282MOL0     H38008   2.804   0.158   9.712 -0.1748  0.3082 -0.3338
  282MOL0     H38009   3.011   0.095   9.664  0.0876  0.4009 -0.8305
  282MOL0     H38010   2.935   0.097   9.513  2.1846  0.8896  0.3548
  282MOL0     H38011   2.959  -0.173   9.669  1.6288 -0.3107 -0.5658
  282MOL0     H38012   2.895  -0.160   9.506  1.8434 -3.4537 -1.0093
  282MOL0     H38013   3.125  -0.243   9.514 -0.7219 -0.4950  1.2233
  282MOL0     H38014   3.112  -0.096   9.420 -0.8632  0.3577  0.3890
  282MOL0     H38015   3.238   0.031   9.592  1.0369 -0.5022  2.3159
  282MOL0     H38016   3.201  -0.090   9.712  1.0757 -0.9932  0.9278
  282MOL0     H38017   3.390  -0.138   9.493  2.9306 -0.9090  0.6117
  282MOL0     H38018   3.322  -0.270   9.586 -0.8318  1.1277 -0.6260
  282MOL0     H38019   3.458  -0.027   9.703 -2.3856  0.7720 -1.0022
  282MOL0     H38020   3.439  -0.180   9.792  3.1392 -1.6198 -0.8894
  282MOL0     H38021   3.682   0.019   9.595  0.9911  0.7096 -0.3538
  282MOL0     H38022   3.928  -0.024   9.494  0.6243 -1.3425 -0.3447
  282MOL0     H38023   3.993  -0.080   9.642  0.6111  2.1801 -0.8241
  282MOL0     H38024   4.033  -0.307   9.565  2.3006 -0.4021  0.8759
  282MOL0     H38025   3.989  -0.256   9.404  0.3265 -0.6888  0.3674
  282MOL0     H38026   4.228  -0.179   9.581  0.2318  1.9678 -0.6766
  282MOL0     H38027   4.186  -0.082   9.438  0.0987  0.4680 -0.8012
  282MOL0     H38028   4.210  -0.295   9.302 -0.4371 -0.6090  1.0020
  282MOL0     H38029   4.240  -0.387   9.444 -4.2200  0.2462 -2.1159
  282MOL0     H38030   4.655  -0.241   9.421  0.9673 -0.6218  0.3283
  282MOL0     H38031   4.825  -0.392   9.327 -0.4185 -1.1651  1.5766
  282MOL0     H38032   4.945  -0.790   9.015  0.7757 -1.3422 -0.2056
  282MOL0     H38033   5.189  -0.881   8.958 -2.2622 -0.8053  0.9049
  282MOL0     H38034   5.434  -0.878   9.179  4.7670  0.5656  3.5509
  282MOL0     H38035   5.515  -0.914   9.030  0.3619 -2.4587  3.1086
  282MOL0     H38036   5.581  -0.657   9.168  2.3205  0.6918  0.4827
  282MOL0     H38037   5.661  -0.816   9.205 -2.6996 -2.3755  0.3268
  282MOL0     H38038   5.750  -0.828   8.989 -1.5306 -0.7107 -1.0443
  282MOL0     H38039   5.665  -0.677   8.935  1.1351  1.9145  0.8301
  282MOL0     H38040   5.878  -0.706   9.148 -0.0750 -1.3223 -0.2745
  282MOL0     H38041   5.805  -0.554   9.102 -0.2375  0.2456 -0.4313
  282MOL0     H38042   5.901  -0.607   8.852 -2.3104  1.3506  0.9641
  282MOL0     H38043   5.979  -0.744   8.923 -1.6102 -0.4404 -1.2361
  282MOL0     H38044   6.036  -0.450   9.000 -1.2645 -0.1353 -0.3230
  282MOL0     H38045   6.085  -0.589   9.108  1.9975 -0.4046 -0.1262
  282MOL0     H38046   6.172  -0.555   8.821 -0.9519 -0.5381  0.7481
  282MOL0     H38047   6.191  -0.695   8.926 -0.7013 -0.6790 -0.9629
  282MOL0     H38048   6.384  -0.526   8.883  0.9859 -1.7902  0.7559
  282MOL0     H38049   6.293  -0.413   8.986  0.4269  0.4617  1.7825
  282MOL0     H38050   5.351  -0.550   9.180  0.7846 -0.5982 -1.1937
  282MOL0     H38051   5.136  -0.478   9.243  0.0297 -0.2222  0.6097
  282MOL0     H38052   4.508  -0.623   9.149  0.3300  0.2864 -1.1639
  282MOL0     H38053   4.342  -0.479   9.255  0.1747  0.3780 -0.8660
  282MOL0     H38054   2.358   0.213   9.683 -0.8225  1.4576  0.8136
  282MOL0     H38055   2.161   0.265   9.533 -0.3882 -1.5421  1.1465
  282MOL0     H38056   1.881   0.276   9.294 -0.0492 -1.1803 -0.2722
  282MOL0     H38057   1.676   0.298   9.210  1.9375 -0.9368  0.2204
  282MOL0     H38058   1.511   0.434   9.068  1.5349 -0.8800  2.3997
  282MOL0     H38059   1.501   0.258   9.094  3.2920  0.3261 -0.1878
  282MOL0     H38060   1.284   0.341   9.014 -1.2080 -1.3135  0.0517
  282MOL0     H38061   1.360   0.249   8.875  1.1316 -1.0993  0.9164
  282MOL0     H38062   1.460   0.469   8.802 -0.8710 -3.8272 -2.3219
  282MOL0     H38063   1.359   0.557   8.910  0.4444 -1.2600  0.7521
  282MOL0     H38064   1.285   0.539   8.674  1.5216  1.4944  2.3091
  282MOL0     H38065   1.253   0.367   8.696  0.1559  1.1975 -1.1720
  282MOL0     H38066   0.933   0.565   8.903  1.2858  2.0857  1.6196
  282MOL0     H38067   1.827   0.339   8.813 -1.0099 -1.6480 -0.6202
  282MOL0     H38068   2.165   0.402   8.892  2.1910 -1.1146 -0.8635
  282MOL0     H38069   2.143   0.236   8.854  0.0096 -0.5209  1.6527
  282MOL0     H38070   2.036   0.360   8.774 -0.2849  1.7275  1.7637
  283MOL0     O38071   6.629   6.512   1.674 -0.0461  1.1753 -0.1479
  283MOL0     C38072   6.554   6.461   1.758  1.1739  0.2163  0.5271
  283MOL0     O38073   6.593   6.361   1.849 -0.7115  0.4303 -0.2018
  283MOL0     C38074   6.725   6.316   1.860 -0.1779 -0.3934 -0.1734
  283MOL0     C38075   6.843   6.397   1.839 -0.5240  0.3598  0.0530
  283MOL0     C38076   6.966   6.330   1.841 -1.2777 -0.0916 -0.3484
  283MOL0     C38077   6.983   6.194   1.874  0.1677  0.4102 -0.6243
  283MOL0     O38078   7.096   6.122   1.865  0.4421 -0.4222 -0.7368
  283MOL0     C38079   7.222   6.180   1.904 -0.3182 -0.1081  0.4319
  283MOL0     C38080   7.327   6.073   1.903  0.2694  0.1976 -0.9140
  283MOL0     C38081   7.458   6.128   1.950  0.3013 -0.6686 -0.4939
  283MOL0     C38082   7.572   6.024   1.972 -0.0775 -0.2268  0.4932
  283MOL0     C38083   7.706   6.086   2.011  0.6137 -0.2844  0.4880
  283MOL0     C38084   7.775   6.158   1.896 -0.1983  0.1229 -0.1814
  283MOL0     C38085   7.910   6.211   1.941 -0.2664  0.1364  0.2851
  283MOL0     C38086   8.010   6.101   1.975  0.9098 -0.6628 -0.0143
  283MOL0     N38087   8.141   6.156   1.986 -0.0664  1.0113 -0.2734
  283MOL0     C38088   8.253   6.120   1.922 -0.5860  0.0844  0.2233
  283MOL0     C38089   8.343   6.217   1.946 -0.2956 -0.3120 -0.6921
  283MOL0     C38090   8.487   6.207   1.905 -1.4509 -0.2391  1.2003
  283MOL0     C38091   8.579   6.125   2.003 -0.0008 -0.8126  0.3048
  283MOL0     C38092   8.725   6.153   1.954  0.3786  0.3693 -0.3021
  283MOL0     C38093   8.840   6.058   2.007  0.1490 -0.0522  1.3580
  283MOL0     O38094   8.861   6.079   2.137  0.4473 -0.4047  0.8862
  283MOL0     C38095   8.978   6.035   2.178  0.2310  0.0409  0.2549
  283MOL0     C38096   9.040   5.915   2.136 -0.1927 -0.4707 -0.1420
  283MOL0     C38097   9.159   5.868   2.196 -0.7484  0.0080 -0.4286
  283MOL0     C38098   9.212   5.942   2.302  0.7782 -0.2171  0.5569
  283MOL0     C38099   9.326   5.905   2.375  0.2818  0.3456  0.6320
  283MOL0     O38100   9.325   5.928   2.508  0.7046  1.0125  0.0041
  283MOL0     C38101   9.447   5.923   2.576 -0.1265  0.8955 -0.6840
  283MOL0     C38102   9.562   5.988   2.536  0.6206  0.2947 -0.8953
  283MOL0     C38103   9.676   5.997   2.624  0.3259  0.0867  0.6595
  283MOL0     C38104   9.670   5.921   2.741  0.6866  0.1508  0.1438
  283MOL0     O38105   9.788   5.894   2.814  0.2562 -0.2955  0.5502
  283MOL0     C38106   9.830   6.002   2.894  0.0459 -0.3579  0.2746
  283MOL0     C38107   9.979   5.977   2.936 -0.3543  0.2761 -0.2398
  283MOL0     C38108  10.030   6.088   3.025 -0.3720  0.4179  0.0998
  283MOL0     C38109  10.175   6.062   3.072 -0.2152  0.1666 -0.6203
  283MOL0     C38110  10.219   6.167   3.176  0.3649 -0.0045 -0.1707
  283MOL0     C38111  10.359   6.122   3.223  0.3781 -0.0784  0.6306
  283MOL0     C38112  10.414   6.206   3.330 -0.4115  0.1932  0.8439
  283MOL0     C38113  10.321   6.202   3.452 -0.5961  0.4027 -0.8607
  283MOL0    Cl38114  10.425   6.251   3.590  0.2758  0.2912  0.3206
  283MOL0     C38115   9.550   5.857   2.779 -0.2705  0.1937  0.3237
  283MOL0     C38116   9.441   5.851   2.696  0.1059  0.4374 -1.0489
  283MOL0     O38117   9.406   5.833   2.312  0.3061  0.7229 -0.2910
  283MOL0     C38118   9.145   6.057   2.345 -0.2612  0.2479  0.2880
  283MOL0     C38119   9.030   6.100   2.282 -0.4503 -0.0109  0.7855
  283MOL0     N38120   8.288   6.302   2.040 -0.3042 -0.0921  0.5409
  283MOL0     N38121   8.170   6.262   2.065 -0.3569  0.0058  0.2010
  283MOL0     C38122   6.866   6.124   1.898  0.0639  0.2413 -0.0277
  283MOL0     C38123   6.738   6.181   1.899  0.0241  0.1599  0.7435
  283MOL0     C38124   6.408   6.489   1.734  0.5857 -0.5689  0.1755
  283MOL0     C38125   6.358   6.533   1.609 -0.7691  0.2232  0.4487
  283MOL0     C38126   6.226   6.561   1.580  0.3317 -0.1026 -0.3874
  283MOL0     C38127   6.137   6.566   1.684 -0.3980  0.1735  0.2089
  283MOL0     O38128   6.007   6.597   1.650 -0.8714  0.4435 -1.1950
  283MOL0     C38129   5.916   6.621   1.752  0.5926  0.0825 -0.8771
  283MOL0     C38130   5.935   6.764   1.813 -0.3638  0.0478 -0.4120
  283MOL0     C38131   5.837   6.802   1.922 -0.4112 -0.3129 -0.5928
  283MOL0     C38132   5.697   6.820   1.867  0.2118  0.5284 -0.9004
  283MOL0     C38133   5.653   6.952   1.910 -0.0350 -0.0952  0.1963
  283MOL0     C38134   5.631   7.064   1.946  0.6411 -0.6525 -0.2042
  283MOL0     C38135   6.181   6.522   1.808 -0.6347 -0.1669  0.7354
  283MOL0     C38136   6.311   6.493   1.834 -0.4273  0.6817 -0.1365
  283MOL0     C38137   6.335   6.437   1.965 -0.3973  0.0827 -0.5517
  283MOL0     H38138   6.833   6.505   1.828 -2.8145  0.3145  1.0535
  283MOL0     H38139   7.054   6.389   1.819  0.6547 -3.2872 -1.9345
  283MOL0     H38140   7.254   6.262   1.839 -1.7348  1.1425  1.2615
  283MOL0     H38141   7.215   6.215   2.007  0.0576  1.6868 -0.1220
  283MOL0     H38142   7.333   6.041   1.798 -0.9002 -3.4280 -0.0211
  283MOL0     H38143   7.294   5.987   1.961 -1.8422  1.2672 -0.4347
  283MOL0     H38144   7.441   6.171   2.049 -0.3292 -0.1527 -0.8145
  283MOL0     H38145   7.493   6.205   1.879  2.2294 -2.2065 -1.3125
  283MOL0     H38146   7.541   5.964   2.057  1.4079 -0.8882  0.6034
  283MOL0     H38147   7.584   5.970   1.877  2.0037  1.0919 -0.0681
  283MOL0     H38148   7.699   6.141   2.105  0.4820  1.0974 -0.3149
  283MOL0     H38149   7.766   5.998   2.037  1.2974 -0.5318 -1.7188
  283MOL0     H38150   7.781   6.091   1.810  0.6801  1.9403 -1.6109
  283MOL0     H38151   7.708   6.240   1.871 -1.6274 -0.5259  1.3399
  283MOL0     H38152   7.894   6.275   2.028 -0.5356  0.4373  0.0130
  283MOL0     H38153   7.950   6.274   1.861 -0.6841  2.2833  1.6728
  283MOL0     H38154   7.982   6.068   2.075 -2.0873  2.9120  0.5500
  283MOL0     H38155   8.005   6.017   1.905 -0.6395 -0.1426 -0.5684
  283MOL0     H38156   8.255   6.025   1.870  0.6689 -0.5164  1.3080
  283MOL0     H38157   8.492   6.187   1.798  2.0468  1.6815  0.8425
  283MOL0     H38158   8.526   6.309   1.902  0.8330 -0.9905  2.4545
  283MOL0     H38159   8.571   6.164   2.105 -2.9281 -1.3681  0.3877
  283MOL0     H38160   8.545   6.021   2.002 -1.9878 -0.2063 -0.4650
  283MOL0     H38161   8.756   6.257   1.970  1.9410  0.0139 -0.8431
  283MOL0     H38162   8.727   6.132   1.847 -4.6036  2.0035 -0.9735
  283MOL0     H38163   8.931   6.087   1.954 -1.7965  1.3411 -1.4390
  283MOL0     H38164   8.804   5.957   1.988  0.8274 -0.1744  0.6726
  283MOL0     H38165   9.001   5.852   2.057 -0.9548  1.0155 -0.9955
  283MOL0     H38166   9.211   5.779   2.160  2.4708  0.5446  2.3845
  283MOL0     H38167   9.564   6.031   2.436 -1.3848  0.7553 -0.7724
  283MOL0     H38168   9.765   6.047   2.586 -1.6349  2.6752 -0.8529
  283MOL0     H38169   9.820   6.097   2.842  3.5526 -1.2861 -2.4754
  283MOL0     H38170   9.779   6.012   2.990  1.9520  1.0810  1.1907
  283MOL0     H38171   9.978   5.893   3.006  0.8142  1.4968  1.3092
  283MOL0     H38172  10.040   5.951   2.849  0.5267  0.5199  0.2987
  283MOL0     H38173  10.025   6.178   2.962  0.8633  0.4322  0.0021
  283MOL0     H38174   9.964   6.111   3.110  0.9087 -1.7012  1.7703
  283MOL0     H38175  10.245   6.047   2.989 -0.8629 -3.6395 -0.6488
  283MOL0     H38176  10.183   5.968   3.127  2.3483 -0.0250 -1.2083
  283MOL0     H38177  10.143   6.161   3.254 -1.4935  0.0048 -1.8800
  283MOL0     H38178  10.213   6.267   3.133 -0.2393  0.1346  0.2263
  283MOL0     H38179  10.356   6.017   3.254 -1.3877  0.1513  1.3428
  283MOL0     H38180  10.435   6.129   3.145 -0.1260 -0.1140  0.1234
  283MOL0     H38181  10.420   6.307   3.287  0.3297 -1.0233 -2.2044
  283MOL0     H38182  10.510   6.165   3.362 -0.7058  1.0548  2.9745
  283MOL0     H38183  10.242   6.275   3.436  0.0875  0.9305 -1.9797
  283MOL0     H38184  10.281   6.103   3.476  0.0416  0.8418  2.5298
  283MOL0     H38185   9.539   5.811   2.877 -0.7712  1.0329  0.6717
  283MOL0     H38186   9.352   5.796   2.726  0.3885  1.3071  1.6497
  283MOL0     H38187   9.197   6.114   2.421 -0.4899  0.1377  0.5249
  283MOL0     H38188   8.986   6.193   2.315 -1.6656  0.0850 -0.9404
  283MOL0     H38189   6.868   6.017   1.913  0.9035  0.3619  0.7898
  283MOL0     H38190   6.654   6.121   1.934 -0.2980 -0.2081 -0.5892
  283MOL0     H38191   6.421   6.513   1.523  0.3279 -2.4173  1.7346
  283MOL0     H38192   6.183   6.583   1.483 -0.9188  0.1249  0.1892
  283MOL0     H38193   5.906   6.545   1.830 -1.1911  2.4770  1.4546
  283MOL0     H38194   5.814   6.618   1.713  1.1365 -0.6662 -2.2858
  283MOL0     H38195   5.929   6.829   1.725 -2.1236 -1.3553 -1.3891
  283MOL0     H38196   6.034   6.780   1.857 -0.7414  0.4943  0.2997
  283MOL0     H38197   5.861   6.899   1.967 -1.8707  0.1379 -0.7410
  283MOL0     H38198   5.842   6.728   2.002  2.1028 -1.3318 -1.5861
  283MOL0     H38199   5.694   6.813   1.758 -0.0901 -0.2928 -0.8463
  283MOL0     H38200   5.624   6.748   1.905  0.6375 -0.0766 -1.2107
  283MOL0     H38201   5.615   7.167   1.974 -4.3251 -0.9907 -0.8570
  283MOL0     H38202   6.111   6.504   1.889 -1.2849 -0.9160  0.0173
  283MOL0     H38203   6.262   6.450   2.046  1.9629  0.2159  1.7116
  283MOL0     H38204   6.342   6.327   1.966 -1.1033 -0.0046  1.7255
  283MOL0     H38205   6.432   6.472   2.002  0.5113 -0.7337 -2.0584
  284MOL0     O38206   7.088   4.980   6.956  0.0626 -0.0436  0.5139
  284MOL0     C38207   7.098   5.001   7.073  0.0187  0.8029 -1.5089
  284MOL0     O38208   7.211   5.051   7.136 -0.1780 -0.5648  0.1894
  284MOL0     C38209   7.339   5.022   7.090 -0.3380  0.0357  0.4080
  284MOL0     C38210   7.364   4.915   7.005 -1.2927  0.6180 -0.1594
  284MOL0     C38211   7.498   4.887   6.958 -0.4974 -0.2032 -0.2193
  284MOL0     C38212   7.604   4.973   6.986 -0.3210 -0.5076 -0.2314
  284MOL0     O38213   7.737   4.950   6.960 -0.5414 -0.0172  0.2131
  284MOL0     C38214   7.768   4.834   6.871  1.5691 -0.1293  0.4539
  284MOL0     C38215   7.918   4.814   6.868 -0.0707  0.4797 -0.7415
  284MOL0     C38216   7.970   4.743   6.744 -0.6041 -0.2914 -0.1158
  284MOL0     C38217   8.125   4.732   6.752 -0.1005  0.4271 -0.1225
  284MOL0     C38218   8.189   4.661   6.635  0.3867  0.0469  0.7949
  284MOL0     C38219   8.347   4.659   6.654 -0.7669 -0.0913  0.4713
  284MOL0     C38220   8.408   4.577   6.535  0.3800 -0.1642  0.8527
  284MOL0     C38221   8.562   4.557   6.535 -0.8844 -0.0985  0.4168
  284MOL0     N38222   8.626   4.692   6.533 -1.2164  0.2936 -0.4273
  284MOL0     C38223   8.670   4.764   6.424 -0.2202  0.3788 -0.2421
  284MOL0     C38224   8.729   4.873   6.467 -0.2327 -0.4268 -0.5166
  284MOL0     C38225   8.783   4.987   6.385 -0.0267  0.3093  0.1473
  284MOL0     C38226   8.908   4.958   6.301  0.2633  0.8429  0.1681
  284MOL0     C38227   9.030   4.936   6.388  0.0508  0.3139 -0.0880
  284MOL0     C38228   9.089   5.052   6.469  0.7672  0.0804  0.7278
  284MOL0     O38229   9.229   5.033   6.490 -0.2300  0.1081 -0.6590
  284MOL0     C38230   9.295   5.116   6.578  0.7585  0.3361  0.3773
  284MOL0     C38231   9.416   5.089   6.628 -0.3507  0.6235  0.1128
  284MOL0     C38232   9.487   5.181   6.706  0.0520 -0.0737 -0.2126
  284MOL0     C38233   9.433   5.305   6.744 -0.2112  0.1431  0.6069
  284MOL0     C38234   9.510   5.409   6.816 -0.5825  0.2792 -0.0684
  284MOL0     O38235   9.616   5.367   6.897  0.4457  0.5015 -0.4719
  284MOL0     C38236   9.688   5.467   6.966  0.0350  0.7721  0.2823
  284MOL0     C38237   9.626   5.550   7.055 -0.4078 -0.4865 -0.2579
  284MOL0     C38238   9.690   5.650   7.130  0.1199  0.4918 -0.1097
  284MOL0     C38239   9.829   5.675   7.114  0.0048  0.0800 -0.1262
  284MOL0     O38240   9.888   5.767   7.208  0.4282  0.6890  0.3487
  284MOL0     C38241  10.020   5.818   7.186  0.1092  0.0773  0.2720
  284MOL0     C38242  10.117   5.725   7.247  0.1565 -0.7131  0.1325
  284MOL0     C38243  10.262   5.754   7.218  0.2828 -0.5490  0.0101
  284MOL0     C38244  10.344   5.663   7.309  0.0872  0.0163 -0.4982
  284MOL0     C38245  10.489   5.675   7.282 -0.2976 -0.3844 -0.2267
  284MOL0     C38246  10.534   5.578   7.171  0.3751 -0.2187 -0.3253
  284MOL0     C38247  10.689   5.585   7.130  0.3378 -0.3668 -0.7365
  284MOL0     C38248  10.777   5.491   7.212 -0.0207 -0.3894  0.7213
  284MOL0    Cl38249  10.728   5.322   7.190 -0.2543  0.3008  0.1816
  284MOL0     C38250   9.894   5.590   7.019  0.5062 -0.6558  0.0058
  284MOL0     C38251   9.825   5.493   6.946 -0.1613  0.4717  0.2600
  284MOL0     O38252   9.476   5.525   6.796 -0.5873 -0.4714 -0.1451
  284MOL0     C38253   9.302   5.323   6.702  0.2018 -0.2663 -0.8550
  284MOL0     C38254   9.236   5.235   6.616  0.3667  0.4095 -0.2790
  284MOL0     N38255   8.731   4.859   6.606 -0.3377 -0.0241  0.4282
  284MOL0     N38256   8.679   4.753   6.640 -0.2577  0.2347 -0.2700
  284MOL0     C38257   7.569   5.076   7.072 -0.0895  0.6928  0.0977
  284MOL0     C38258   7.438   5.107   7.126  0.0949  0.2544 -0.0073
  284MOL0     C38259   6.973   4.992   7.151 -0.8396 -0.6216  0.0103
  284MOL0     C38260   6.978   5.020   7.290 -0.6524  1.0036  0.2404
  284MOL0     C38261   6.872   4.997   7.376  0.7437  0.2055  0.8761
  284MOL0     C38262   6.747   4.964   7.319  0.0062 -1.1797  0.2607
  284MOL0     O38263   6.653   4.927   7.417 -0.5259  0.7065  0.4322
  284MOL0     C38264   6.515   4.910   7.378 -1.0359 -0.3868  0.0287
  284MOL0     C38265   6.437   4.994   7.476 -0.2909 -0.5077 -0.2756
  284MOL0     C38266   6.287   4.988   7.470  0.8212  1.0134  0.3331
  284MOL0     C38267   6.221   5.103   7.546  0.2177  0.1205 -0.5030
  284MOL0     C38268   6.080   5.075   7.554 -0.5359 -0.1594 -0.2179
  284MOL0     C38269   5.968   5.033   7.555  0.0060  0.3511 -0.3282
  284MOL0     C38270   6.730   4.962   7.180 -0.4559  0.1261  1.1793
  284MOL0     C38271   6.841   4.973   7.093 -0.3759  0.2346  0.0091
  284MOL0     C38272   6.811   4.961   6.946 -0.3779 -0.2561  0.3683
  284MOL0     H38273   7.285   4.841   6.998 -2.5200  1.4404  3.0321
  284MOL0     H38274   7.518   4.802   6.894  2.1459 -0.5699  0.9960
  284MOL0     H38275   7.724   4.742   6.910  1.4988 -1.5834 -2.7252
  284MOL0     H38276   7.733   4.847   6.768  2.8487  0.9418  0.1134
  284MOL0     H38277   7.935   4.750   6.956 -0.3223 -0.8036 -1.6055
  284MOL0     H38278   7.972   4.909   6.877 -0.2762  0.6067 -0.8446
  284MOL0     H38279   7.956   4.800   6.651 -3.0072 -1.1761 -0.3685
  284MOL0     H38280   7.922   4.647   6.722 -0.9847 -0.4572  1.3737
  284MOL0     H38281   8.167   4.833   6.753 -1.8618  1.2224 -1.4069
  284MOL0     H38282   8.155   4.671   6.837 -0.1164  0.9348  0.2504
  284MOL0     H38283   8.150   4.560   6.621 -1.5426  0.4749  2.5284
  284MOL0     H38284   8.159   4.721   6.549 -3.5463 -1.0624  1.1957
  284MOL0     H38285   8.384   4.762   6.659 -3.9325  1.1620 -0.1000
  284MOL0     H38286   8.371   4.603   6.745  0.0915  2.2886  1.7850
  284MOL0     H38287   8.399   4.638   6.445  2.1848 -0.6798  0.2723
  284MOL0     H38288   8.358   4.480   6.526  0.6342 -0.2330  0.1005
  284MOL0     H38289   8.584   4.491   6.620  2.3188 -0.4332 -0.5621
  284MOL0     H38290   8.593   4.505   6.445  1.7187  0.4596  0.8905
  284MOL0     H38291   8.638   4.738   6.324 -0.0360 -2.0966  0.2825
  284MOL0     H38292   8.714   5.042   6.321 -0.1700  0.8395  0.7475
  284MOL0     H38293   8.809   5.068   6.453  1.7464  2.5508 -2.9233
  284MOL0     H38294   8.891   4.868   6.240 -2.6494 -0.2059  2.2850
  284MOL0     H38295   8.928   5.042   6.233 -1.7801  0.9164 -0.4187
  284MOL0     H38296   9.108   4.888   6.327  0.7732  0.0255  1.0352
  284MOL0     H38297   8.992   4.865   6.462  0.9482 -0.3303 -0.2236
  284MOL0     H38298   9.036   5.052   6.565  2.0349 -0.3847  1.4561
  284MOL0     H38299   9.070   5.151   6.427  0.6867  0.4101  1.5295
  284MOL0     H38300   9.473   5.003   6.594  0.3880  0.5347  1.5084
  284MOL0     H38301   9.592   5.167   6.730  0.3822 -0.1098 -1.5903
  284MOL0     H38302   9.521   5.520   7.059 -0.5194 -0.4254 -2.1077
  284MOL0     H38303   9.632   5.701   7.206 -1.1306 -1.2583  0.2025
  284MOL0     H38304  10.044   5.825   7.079 -0.1993  1.0247  0.2604
  284MOL0     H38305  10.020   5.915   7.235  2.5340  1.9927 -3.1026
  284MOL0     H38306  10.104   5.736   7.355  1.3190  2.4509  0.0699
  284MOL0     H38307  10.083   5.625   7.219 -0.7440  0.2558 -2.5068
  284MOL0     H38308  10.288   5.738   7.113 -0.9533 -0.5903 -0.3079
  284MOL0     H38309  10.277   5.860   7.242 -0.3195 -0.4639  0.0372
  284MOL0     H38310  10.308   5.560   7.313 -1.4387  0.5326 -0.3339
  284MOL0     H38311  10.331   5.711   7.406  0.1462  0.3816 -0.6664
  284MOL0     H38312  10.547   5.660   7.374 -0.6765 -0.5811 -0.0197
  284MOL0     H38313  10.519   5.774   7.248  0.3040  0.5059  2.6498
  284MOL0     H38314  10.513   5.473   7.195  0.8314  0.2161  2.2146
  284MOL0     H38315  10.486   5.600   7.075 -0.1971 -0.3126 -0.0678
  284MOL0     H38316  10.713   5.692   7.124 -1.9196  0.2372 -0.0388
  284MOL0     H38317  10.712   5.552   7.029 -0.1473  0.6847 -1.2127
  284MOL0     H38318  10.875   5.507   7.167 -1.2649 -0.9739 -2.4968
  284MOL0     H38319  10.781   5.522   7.317  0.5705  1.8211  0.0982
  284MOL0     H38320  10.001   5.593   7.001  0.0487  0.4019 -3.0560
  284MOL0     H38321   9.879   5.425   6.880  2.3794  2.0927  0.5307
  284MOL0     H38322   9.245   5.410   6.733 -2.4099 -1.6265 -1.5814
  284MOL0     H38323   9.143   5.275   6.577  0.6782  0.0572 -1.4112
  284MOL0     H38324   7.652   5.140   7.098  1.4184 -1.5275  1.0862
  284MOL0     H38325   7.422   5.183   7.203 -0.6374 -0.1150  0.2158
  284MOL0     H38326   7.079   5.032   7.326  0.3957 -2.0758 -1.3094
  284MOL0     H38327   6.899   4.984   7.480 -0.5913 -1.4998  1.0635
  284MOL0     H38328   6.485   4.806   7.396  0.1174 -0.5244  1.3635
  284MOL0     H38329   6.485   4.944   7.279 -1.5508  0.6019  0.5023
  284MOL0     H38330   6.465   5.100   7.475 -1.1025 -0.2405  1.6745
  284MOL0     H38331   6.458   4.956   7.577  2.2279  0.4023 -0.3832
  284MOL0     H38332   6.244   4.897   7.512  0.0490  1.9668  1.6958
  284MOL0     H38333   6.264   4.999   7.364 -1.8314 -1.6320  0.5081
  284MOL0     H38334   6.257   5.106   7.649 -0.4544 -1.7744 -0.1623
  284MOL0     H38335   6.241   5.202   7.503  1.6012 -1.3448 -3.4941
  284MOL0     H38336   5.868   5.001   7.537  0.0045  0.8770 -1.3202
  284MOL0     H38337   6.635   4.943   7.132 -0.9514 -0.5502  2.4056
  284MOL0     H38338   6.874   4.887   6.895 -2.1421 -0.1184 -2.2377
  284MOL0     H38339   6.718   4.906   6.934  1.0244 -3.0644  1.5044
  284MOL0     H38340   6.810   5.060   6.900 -2.5629 -0.6275 -0.5135
  285MOL0     O38341   5.894  10.551   9.610  0.3236 -1.0071 -0.2274
  285MOL0     C38342   5.824  10.652   9.588 -0.2674  0.2432  0.0191
  285MOL0     O38343   5.873  10.773   9.567 -0.0666 -0.0435 -0.2411
  285MOL0     C38344   6.004  10.790   9.600  0.3897  0.3263 -0.3838
  285MOL0     C38345   6.033  10.843   9.728  0.2436  0.4846  0.5059
  285MOL0     C38346   6.158  10.874   9.763 -0.7728 -0.3413  0.4258
  285MOL0     C38347   6.270  10.867   9.667  1.0580  0.7345 -0.4238
  285MOL0     O38348   6.398  10.885   9.712  0.3003 -0.0233 -0.6513
  285MOL0     C38349   6.504  10.907   9.618 -0.2991 -0.5536 -0.5829
  285MOL0     C38350   6.643  10.929   9.694  0.9942  0.6500 -0.3322
  285MOL0     C38351   6.693  10.803   9.777  0.4090  0.3677  0.8598
  285MOL0     C38352   6.750  10.685   9.681 -0.0936 -0.9357 -0.6340
  285MOL0     C38353   6.856  10.732   9.576 -0.4191 -0.1745  0.0618
  285MOL0     C38354   6.899  10.609   9.503  0.3414  0.5133 -0.2092
  285MOL0     C38355   6.978  10.637   9.382 -0.0944 -0.2589  0.3152
  285MOL0     C38356   7.015  10.517   9.292 -0.4364  0.7378 -0.1741
  285MOL0     N38357   7.122  10.549   9.201 -0.6501  0.3040 -0.4120
  285MOL0     C38358   7.117  10.596   9.077  0.6305  0.1566 -0.4953
  285MOL0     C38359   7.245  10.591   9.027 -1.2668  0.0099 -0.4668
  285MOL0     C38360   7.296  10.636   8.895  0.0601 -0.0182 -0.4604
  285MOL0     C38361   7.209  10.594   8.777  0.3740 -0.0998 -1.3600
  285MOL0     C38362   7.246  10.452   8.726  0.9073 -0.4081  0.1297
  285MOL0     C38363   7.379  10.461   8.658  1.4111  0.1371 -0.2319
  285MOL0     O38364   7.404  10.361   8.559 -0.6596 -0.0255  0.0099
  285MOL0     C38365   7.537  10.327   8.537 -0.3652 -0.4608 -0.4515
  285MOL0     C38366   7.639  10.425   8.530  0.0550 -0.5043 -0.3251
  285MOL0     C38367   7.772  10.375   8.519 -0.6029  0.7770  0.6684
  285MOL0     C38368   7.802  10.232   8.515  0.9140  1.0928 -0.5465
  285MOL0     C38369   7.934  10.189   8.485 -1.0062  0.0596 -0.3054
  285MOL0     O38370   8.027  10.288   8.465  0.3176  0.4638  0.4425
  285MOL0     C38371   8.147  10.243   8.429  0.0902 -0.0239  0.3961
  285MOL0     C38372   8.231  10.179   8.521  0.3905 -0.0029 -0.0333
  285MOL0     C38373   8.363  10.141   8.491  0.0905 -0.5028  0.0167
  285MOL0     C38374   8.415  10.177   8.369 -0.5830  0.1691  0.0421
  285MOL0     O38375   8.537  10.122   8.329  0.2935  0.1577 -0.4526
  285MOL0     C38376   8.543  10.042   8.210  0.6148  0.4742 -0.2531
  285MOL0     C38377   8.636  10.105   8.112 -0.1844 -0.2234 -0.5589
  285MOL0     C38378   8.779  10.056   8.146 -0.0864  0.5105  0.2016
  285MOL0     C38379   8.872  10.083   8.030 -0.8476 -0.4532  0.8285
  285MOL0     C38380   9.002  10.001   8.057  0.5049 -0.2353  0.2338
  285MOL0     C38381   9.089  10.080   8.155 -0.1298 -0.1095  0.5736
  285MOL0     C38382   9.204   9.993   8.211 -1.3010 -0.5993 -0.1210
  285MOL0     C38383   9.322   9.971   8.110 -0.4830  0.0901 -0.0281
  285MOL0    Cl38384   9.451   9.868   8.173 -0.2498  0.2581 -0.0191
  285MOL0     C38385   8.337  10.249   8.276  0.0496 -0.9475 -0.7739
  285MOL0     C38386   8.195  10.264   8.300  0.0749  0.3274  0.1639
  285MOL0     O38387   7.948  10.062   8.465 -0.4053 -0.2885  0.5881
  285MOL0     C38388   7.688  10.140   8.519 -0.5582  0.1179  0.8116
  285MOL0     C38389   7.562  10.188   8.544 -0.0229 -0.4919  0.6073
  285MOL0     N38390   7.324  10.550   9.138  0.4444 -0.0923 -0.5913
  285MOL0     N38391   7.254  10.538   9.239 -0.7952  1.2640  0.2863
  285MOL0     C38392   6.235  10.809   9.544  0.0820 -0.1443  0.2282
  285MOL0     C38393   6.101  10.783   9.506 -0.5782  0.1697 -0.0203
  285MOL0     C38394   5.680  10.628   9.553  0.4093 -0.2585 -0.5604
  285MOL0     C38395   5.634  10.500   9.570 -0.0848  0.0502  0.7790
  285MOL0     C38396   5.499  10.475   9.535  0.8731 -0.1283  0.4246
  285MOL0     C38397   5.407  10.567   9.490 -0.1293  0.1165 -0.8947
  285MOL0     O38398   5.274  10.537   9.464  0.0904 -0.3081 -0.1750
  285MOL0     C38399   5.228  10.397   9.470 -0.0406 -0.3577  0.5234
  285MOL0     C38400   5.088  10.384   9.408 -0.4197  0.6071 -0.2118
  285MOL0     C38401   4.990  10.495   9.464  0.3535 -0.1988 -0.2750
  285MOL0     C38402   4.852  10.481   9.401  0.2070  0.6615  0.8747
  285MOL0     C38403   4.776  10.367   9.455  0.2663 -0.4591  0.9505
  285MOL0     C38404   4.721  10.280   9.510  0.6856  0.1987 -0.5825
  285MOL0     C38405   5.455  10.696   9.481 -0.1472  0.6101  0.0310
  285MOL0     C38406   5.583  10.731   9.520  0.1101  0.2403 -0.1200
  285MOL0     C38407   5.609  10.877   9.528  0.0583  0.6088 -0.3910
  285MOL0     H38408   5.955  10.842   9.803  2.1549 -0.9415  2.6002
  285MOL0     H38409   6.186  10.900   9.865  2.3025 -0.6360 -0.2561
  285MOL0     H38410   6.517  10.818   9.555 -2.9282 -1.3485 -0.1476
  285MOL0     H38411   6.489  11.001   9.565  0.6144  1.0659  1.8748
  285MOL0     H38412   6.626  11.009   9.767  1.5886  0.7578 -0.3097
  285MOL0     H38413   6.719  10.955   9.620 -0.6073 -0.8687 -2.6770
  285MOL0     H38414   6.610  10.762   9.835 -0.9999  2.9567  0.7995
  285MOL0     H38415   6.768  10.832   9.851 -0.4549 -1.8407  2.7289
  285MOL0     H38416   6.798  10.618   9.752  0.3532  1.0001  0.9481
  285MOL0     H38417   6.668  10.647   9.619  0.8196  1.5521 -3.6107
  285MOL0     H38418   6.806  10.796   9.503  0.4866 -0.6510 -1.0049
  285MOL0     H38419   6.945  10.782   9.614 -1.6499  2.2039 -0.0494
  285MOL0     H38420   6.967  10.557   9.571 -1.5449  0.4889  1.7764
  285MOL0     H38421   6.820  10.536   9.483  2.3180 -2.9723  3.3403
  285MOL0     H38422   7.070  10.693   9.404  0.7321  0.1674 -3.4700
  285MOL0     H38423   6.921  10.706   9.319  2.4584  1.1397 -0.6104
  285MOL0     H38424   7.041  10.436   9.362 -0.8333  0.7166 -0.0517
  285MOL0     H38425   6.927  10.478   9.241 -0.0645  0.1278 -0.3609
  285MOL0     H38426   7.034  10.635   9.018 -0.0315 -3.3723 -2.2227
  285MOL0     H38427   7.301  10.745   8.889  1.8934  0.3143  3.8443
  285MOL0     H38428   7.401  10.606   8.884  0.5008  0.9521  0.8853
  285MOL0     H38429   7.104  10.596   8.808  0.7804  0.9979  0.0082
  285MOL0     H38430   7.235  10.666   8.699  0.7244 -1.3907 -2.4777
  285MOL0     H38431   7.178  10.419   8.646 -0.8625  3.3483 -0.1270
  285MOL0     H38432   7.258  10.372   8.800  3.4702  0.7765  1.1150
  285MOL0     H38433   7.451  10.456   8.741  2.2340 -1.4206 -0.9994
  285MOL0     H38434   7.385  10.555   8.602 -0.7485  1.8937  2.2440
  285MOL0     H38435   7.613  10.530   8.524 -0.2996 -0.3214  2.7973
  285MOL0     H38436   7.854  10.445   8.514  0.7980 -0.6647  2.2365
  285MOL0     H38437   8.194  10.151   8.619 -1.4745 -0.9447 -0.9327
  285MOL0     H38438   8.416  10.076   8.560 -1.6894 -0.9157  1.0639
  285MOL0     H38439   8.561   9.938   8.238 -3.1975  0.1242  1.6271
  285MOL0     H38440   8.443  10.031   8.166  0.9664 -0.3426 -0.8776
  285MOL0     H38441   8.606  10.068   8.013 -0.3852  1.1426 -1.0201
  285MOL0     H38442   8.636  10.214   8.104  1.8716 -0.2424 -1.2199
  285MOL0     H38443   8.822  10.117   8.225  2.2153  0.5959 -1.0347
  285MOL0     H38444   8.772   9.949   8.168 -1.0135  1.1131  3.2178
  285MOL0     H38445   8.888  10.188   8.004 -0.0771 -1.5749 -4.4154
  285MOL0     H38446   8.829  10.038   7.940  3.3292 -1.3763 -0.9515
  285MOL0     H38447   9.049   9.984   7.960 -1.5057 -0.2943 -0.7528
  285MOL0     H38448   8.987   9.897   8.089  4.1159 -1.3464 -1.0891
  285MOL0     H38449   9.129  10.168   8.104  0.2232  0.7207  2.2239
  285MOL0     H38450   9.030  10.096   8.246 -0.2110 -1.1656  0.7234
  285MOL0     H38451   9.178   9.895   8.252 -0.2262 -0.9564 -0.2478
  285MOL0     H38452   9.257  10.048   8.289  0.0970  0.4988 -1.7625
  285MOL0     H38453   9.276   9.908   8.033 -0.4807 -0.7121  0.6150
  285MOL0     H38454   9.373  10.063   8.081  4.2178 -2.5761 -1.3167
  285MOL0     H38455   8.389  10.294   8.192  2.3966 -0.9385  0.5827
  285MOL0     H38456   8.138  10.308   8.219  2.0704 -0.1195 -1.5601
  285MOL0     H38457   7.704  10.033   8.508 -1.3131 -0.1364  2.0408
  285MOL0     H38458   7.492  10.107   8.560  1.7253 -1.5449  3.6757
  285MOL0     H38459   6.318  10.791   9.477  0.6939 -0.6898  1.1135
  285MOL0     H38460   6.078  10.732   9.413  0.5450  3.5177 -2.3056
  285MOL0     H38461   5.691  10.411   9.597 -1.8801 -1.2780  0.3438
  285MOL0     H38462   5.483  10.369   9.552  1.6446 -0.3498 -0.1839
  285MOL0     H38463   5.233  10.361   9.573  1.6182  2.4566  1.5612
  285MOL0     H38464   5.301  10.327   9.429  1.5314 -0.9799  4.0285
  285MOL0     H38465   5.054  10.281   9.426 -0.7048  0.3372 -2.1344
  285MOL0     H38466   5.112  10.387   9.302  3.1166 -0.3116  0.4273
  285MOL0     H38467   5.031  10.592   9.436 -0.7924  0.9017  1.6594
  285MOL0     H38468   4.987  10.486   9.573  5.2074  0.5340  0.1763
  285MOL0     H38469   4.795  10.571   9.427  0.6538  1.6672 -1.3438
  285MOL0     H38470   4.857  10.471   9.292  1.8966 -4.6986  1.1495
  285MOL0     H38471   4.683  10.190   9.555  2.3276 -0.9724 -1.4534
  285MOL0     H38472   5.397  10.786   9.463  3.4121  2.9929 -0.6560
  285MOL0     H38473   5.518  10.934   9.508 -1.1403  0.4977  3.7701
  285MOL0     H38474   5.637  10.903   9.630 -2.3176  0.0270  0.4826
  285MOL0     H38475   5.695  10.905   9.467 -0.0284  4.0537  0.8668
  286MOL0     O38476   2.607   3.708  10.902  0.0292 -0.6084  0.8010
  286MOL0     C38477   2.580   3.785  10.996  0.2888  0.6785 -0.7076
  286MOL0     O38478   2.652   3.889  11.030 -0.2448  0.2895  0.0105
  286MOL0     C38479   2.760   3.914  10.946  0.4370  0.8161 -0.4177
  286MOL0     C38480   2.872   3.832  10.964  0.1306  0.2874  0.2696
  286MOL0     C38481   2.979   3.842  10.872  0.5822 -0.4827 -0.7451
  286MOL0     C38482   2.981   3.944  10.778 -0.0499 -0.2167  0.4452
  286MOL0     O38483   3.107   3.963  10.721  0.7466 -0.1632 -0.4007
  286MOL0     C38484   3.121   4.020  10.591 -0.2976  0.4085 -0.7334
  286MOL0     C38485   3.132   4.164  10.617  0.0314 -0.7091 -0.4287
  286MOL0     C38486   3.281   4.202  10.594  0.6245  0.9058  1.2497
  286MOL0     C38487   3.371   4.178  10.718 -0.0524  0.4432  0.1023
  286MOL0     C38488   3.507   4.237  10.686 -0.4331 -0.2813  0.1441
  286MOL0     C38489   3.588   4.268  10.805 -0.4068 -0.1557 -0.4210
  286MOL0     C38490   3.726   4.313  10.772 -0.4574  0.5058 -0.1110
  286MOL0     C38491   3.801   4.192  10.715  1.4092 -0.5917  0.0671
  286MOL0     N38492   3.941   4.214  10.713 -0.6637  1.0606  0.5048
  286MOL0     C38493   4.001   4.307  10.631  0.4343 -0.2270  0.0032
  286MOL0     C38494   4.133   4.285  10.645  1.1568 -0.1330 -0.7013
  286MOL0     C38495   4.233   4.349  10.551  0.0750  0.4246  0.5185
  286MOL0     C38496   4.383   4.338  10.600  0.1512  0.4503  0.3678
  286MOL0     C38497   4.411   4.428  10.718  0.1778 -0.4066  0.6138
  286MOL0     C38498   4.553   4.413  10.767  0.8915 -0.0656  0.6604
  286MOL0     O38499   4.655   4.486  10.698  0.3121 -0.8799  0.2432
  286MOL0     C38500   4.785   4.444  10.701 -0.6685 -0.4043 -0.0525
  286MOL0     C38501   4.880   4.506  10.621  0.4536  0.0286  0.2115
  286MOL0     C38502   5.018   4.481  10.621 -0.1609 -0.5016  0.3818
  286MOL0     C38503   5.062   4.388  10.720 -0.3049 -0.0444  0.6101
  286MOL0     C38504   5.200   4.359  10.723 -0.2809  0.0966  0.0899
  286MOL0     O38505   5.290   4.440  10.647  0.4069 -0.7412 -0.4290
  286MOL0     C38506   5.417   4.393  10.622  0.7623  0.5653 -0.1877
  286MOL0     C38507   5.526   4.423  10.702 -0.6044 -0.6547  0.5822
  286MOL0     C38508   5.654   4.375  10.675  1.1019  0.3959 -0.5002
  286MOL0     C38509   5.681   4.301  10.565  0.7229  0.2009 -0.1516
  286MOL0     O38510   5.798   4.238  10.572 -0.2546 -0.2799  0.1810
  286MOL0     C38511   5.831   4.159  10.454 -0.8714 -0.1514 -0.3688
  286MOL0     C38512   5.952   4.079  10.479  0.2354 -0.4751 -0.5362
  286MOL0     C38513   6.074   4.163  10.456  0.7896 -0.2120 -0.1439
  286MOL0     C38514   6.205   4.080  10.463 -0.0311  0.5302  0.0460
  286MOL0     C38515   6.228   4.005  10.329 -0.7977 -0.1220 -0.3105
  286MOL0     C38516   6.371   3.948  10.299 -0.0163  0.4591 -0.0659
  286MOL0     C38517   6.409   3.836  10.401  0.0580 -0.0045  0.2233
  286MOL0     C38518   6.556   3.807  10.379 -1.0204  0.3054 -0.2261
  286MOL0    Cl38519   6.663   3.919  10.482  0.4999 -0.4251  0.4668
  286MOL0     C38520   5.574   4.279  10.469  0.1324 -0.4926 -0.2398
  286MOL0     C38521   5.443   4.322  10.505  0.1334 -0.2258  0.8081
  286MOL0     O38522   5.229   4.260  10.787 -0.0429  0.2535 -0.6043
  286MOL0     C38523   4.974   4.327  10.812  0.3209 -0.9001  0.0694
  286MOL0     C38524   4.837   4.349  10.797 -0.1454 -0.4364  0.0999
  286MOL0     N38525   4.153   4.202  10.755 -0.0860  0.1373  0.0843
  286MOL0     N38526   4.044   4.155  10.791  0.6195  0.9347  0.5451
  286MOL0     C38527   2.867   4.028  10.763  0.3869 -0.4237  0.0564
  286MOL0     C38528   2.753   4.004  10.837 -0.7488 -0.9799  0.0643
  286MOL0     C38529   2.482   3.750  11.099 -0.2654  0.5212 -0.0778
  286MOL0     C38530   2.527   3.729  11.232 -0.4356 -0.2911  0.8781
  286MOL0     C38531   2.439   3.696  11.330  0.4635  0.4350 -0.3472
  286MOL0     C38532   2.302   3.703  11.315 -1.0934  0.0073 -0.8088
  286MOL0     O38533   2.234   3.685  11.435  0.8055  0.4298  0.5414
  286MOL0     C38534   2.093   3.695  11.426 -0.8240 -0.1285 -0.2458
  286MOL0     C38535   2.035   3.645  11.554 -0.1686  0.0272 -0.1233
  286MOL0     C38536   1.882   3.642  11.545  0.2538  0.0030  0.6504
  286MOL0     C38537   1.795   3.771  11.527 -0.2141 -0.4819 -0.4971
  286MOL0     C38538   1.833   3.859  11.641  0.2418  0.3226 -0.8237
  286MOL0     C38539   1.862   3.933  11.737  0.6969 -1.0205 -0.1096
  286MOL0     C38540   2.256   3.726  11.186  0.1993 -0.1595  0.5828
  286MOL0     C38541   2.343   3.742  11.078  0.5732  0.2595  0.0421
  286MOL0     C38542   2.291   3.758  10.933  0.3654 -0.1093 -0.9875
  286MOL0     H38543   2.877   3.756  11.040  2.7675 -1.5358 -1.5594
  286MOL0     H38544   3.067   3.780  10.887 -0.7259 -2.5285 -1.1257
  286MOL0     H38545   3.205   3.968  10.543 -1.2814 -2.8554  0.7851
  286MOL0     H38546   3.040   4.000  10.521 -0.9271 -1.6569  0.4907
  286MOL0     H38547   3.105   4.188  10.720  0.1566 -1.1623 -0.2868
  286MOL0     H38548   3.070   4.219  10.545  1.5812  0.7044 -0.7412
  286MOL0     H38549   3.283   4.308  10.569  2.0978  0.9351  1.4525
  286MOL0     H38550   3.320   4.145  10.509 -3.1577 -0.7255  0.3598
  286MOL0     H38551   3.329   4.214  10.813  0.7869 -2.6303  1.7902
  286MOL0     H38552   3.378   4.069  10.728  0.8239  0.6445  2.3512
  286MOL0     H38553   3.550   4.167  10.614  0.5550 -0.3857  0.8113
  286MOL0     H38554   3.489   4.330  10.631 -1.3651 -0.7898 -0.4335
  286MOL0     H38555   3.547   4.349  10.867  1.0162  1.7989 -1.9102
  286MOL0     H38556   3.599   4.174  10.860 -1.0432  0.4889  0.8550
  286MOL0     H38557   3.786   4.341  10.859  1.0742  0.0000 -0.9680
  286MOL0     H38558   3.729   4.404  10.710 -0.8600 -0.0965 -1.0471
  286MOL0     H38559   3.785   4.099  10.771  0.5658 -0.3344  0.2722
  286MOL0     H38560   3.767   4.173  10.613 -0.4140 -1.4656  0.7734
  286MOL0     H38561   3.949   4.369  10.558  0.4474  1.2006  1.1499
  286MOL0     H38562   4.218   4.303  10.453 -1.2756  1.7585  0.0438
  286MOL0     H38563   4.206   4.454  10.532  1.4952  1.0633  1.8749
  286MOL0     H38564   4.414   4.237  10.629  1.1267  0.1003 -1.7133
  286MOL0     H38565   4.455   4.369  10.524  0.5453  0.7388  0.8587
  286MOL0     H38566   4.343   4.395  10.797 -0.1208  1.5757  1.2321
  286MOL0     H38567   4.395   4.534  10.695 -0.4734 -0.2988  1.5090
  286MOL0     H38568   4.577   4.306  10.767  0.4430 -0.2501  3.5817
  286MOL0     H38569   4.559   4.436  10.873  1.2991 -1.0804  0.8708
  286MOL0     H38570   4.831   4.581  10.560 -2.1773  0.0441  2.1245
  286MOL0     H38571   5.078   4.540  10.554 -0.0468 -1.2925 -0.2240
  286MOL0     H38572   5.519   4.486  10.791 -2.3761  0.7974 -0.5167
  286MOL0     H38573   5.735   4.402  10.743  0.9804 -1.6589  0.5455
  286MOL0     H38574   5.749   4.088  10.438 -2.5845  0.9474  2.6991
  286MOL0     H38575   5.839   4.231  10.372  2.7294  0.6644  0.5112
  286MOL0     H38576   5.951   4.046  10.583 -3.1440  0.2217 -0.2338
  286MOL0     H38577   5.948   3.995  10.410 -3.4763 -0.1162 -0.9665
  286MOL0     H38578   6.063   4.205  10.355  0.3130 -0.6093 -0.2618
  286MOL0     H38579   6.071   4.240  10.534 -3.4864  0.1754 -0.4505
  286MOL0     H38580   6.199   4.006  10.544  1.9955 -2.2114 -2.1007
  286MOL0     H38581   6.292   4.138  10.494 -0.2079 -0.2517  2.2283
  286MOL0     H38582   6.204   4.063  10.239  0.6204  0.9840 -0.0102
  286MOL0     H38583   6.158   3.921  10.324 -1.6850  0.6434 -1.0320
  286MOL0     H38584   6.380   3.928  10.192  1.1408 -1.5203  0.3589
  286MOL0     H38585   6.442   4.029  10.321 -0.2661  0.7796 -0.4322
  286MOL0     H38586   6.349   3.748  10.378 -3.6059  1.0935  4.2747
  286MOL0     H38587   6.385   3.850  10.507 -1.0639  0.4819 -0.0819
  286MOL0     H38588   6.581   3.704  10.408  0.4219  0.6792 -0.1033
  286MOL0     H38589   6.585   3.801  10.274  1.9066  1.1963  0.4576
  286MOL0     H38590   5.584   4.220  10.379 -0.2837  0.5715 -1.0070
  286MOL0     H38591   5.364   4.297  10.435  1.2693 -2.5850  0.2758
  286MOL0     H38592   5.005   4.267  10.897  1.3097 -0.5449 -0.0280
  286MOL0     H38593   4.766   4.317  10.872  0.7998 -3.2640 -0.0858
  286MOL0     H38594   2.859   4.100  10.682 -2.5728 -2.2788 -1.4619
  286MOL0     H38595   2.659   4.052  10.808 -2.0992 -1.7800  2.7909
  286MOL0     H38596   2.632   3.727  11.261  0.1794  2.2058 -0.8719
  286MOL0     H38597   2.483   3.672  11.427  0.0417  0.4074 -0.1593
  286MOL0     H38598   2.053   3.643  11.339 -2.6103 -1.6212  1.3631
  286MOL0     H38599   2.063   3.799  11.406  0.3860  0.2327 -0.2357
  286MOL0     H38600   2.077   3.706  11.634  0.1326 -0.2271 -0.0835
  286MOL0     H38601   2.073   3.542  11.554 -0.0887  0.0556  0.4521
  286MOL0     H38602   1.845   3.595  11.636 -2.3863  1.2804  0.3239
  286MOL0     H38603   1.860   3.582  11.456 -3.5823  2.1329 -0.0629
  286MOL0     H38604   1.819   3.828  11.437 -0.8744 -1.6166 -1.4145
  286MOL0     H38605   1.687   3.754  11.523  0.3853 -5.4289 -3.7726
  286MOL0     H38606   1.895   4.007  11.808  0.2331  0.3347 -1.2710
  286MOL0     H38607   2.148   3.727  11.175  0.0406  0.2825  2.0668
  286MOL0     H38608   2.334   3.677  10.874  1.5611 -0.1719 -0.0795
  286MOL0     H38609   2.183   3.742  10.931  0.0766  1.6053 -0.4524
  286MOL0     H38610   2.312   3.856  10.890 -1.6831  0.7190 -0.2329
  287MOL0     O38611   6.973   2.755   9.907  0.3359 -0.0098  0.1451
  287MOL0     C38612   6.925   2.861   9.930  0.1415 -0.3607  0.2834
  287MOL0     O38613   7.000   2.968   9.966  0.2061 -0.1433 -0.1143
  287MOL0     C38614   7.135   2.950  10.003  0.0379  0.1144  1.5746
  287MOL0     C38615   7.167   2.899  10.128 -0.2351  0.3640  0.3149
  287MOL0     C38616   7.300   2.881  10.151 -0.7626  0.3813 -1.0603
  287MOL0     C38617   7.396   2.906  10.055  0.9125  0.5471 -0.0907
  287MOL0     O38618   7.518   2.900  10.109 -0.2797 -0.0322  0.4327
  287MOL0     C38619   7.635   2.930  10.026  0.1132 -0.1994  0.1211
  287MOL0     C38620   7.764   2.876  10.093  0.7174 -0.9905 -0.6150
  287MOL0     C38621   7.896   2.915  10.015  0.1468  0.0004 -0.2521
  287MOL0     C38622   7.927   3.076  10.006  0.4563  0.9473 -0.4420
  287MOL0     C38623   8.060   3.099   9.932  0.3296  1.0284 -0.5413
  287MOL0     C38624   8.171   3.010   9.982  0.4333  0.5891 -0.7408
  287MOL0     C38625   8.305   3.083   9.952 -0.6337 -0.4030 -0.3758
  287MOL0     C38626   8.399   3.096  10.075 -0.6413  0.1000 -0.5006
  287MOL0     N38627   8.540   3.119  10.037 -0.7219  0.0057  0.5854
  287MOL0     C38628   8.612   3.031   9.965 -0.4519  0.7627  0.4933
  287MOL0     C38629   8.735   3.087   9.930  0.7414  0.9405  1.1540
  287MOL0     C38630   8.852   3.013   9.867  0.1243 -0.3966  0.0821
  287MOL0     C38631   8.913   3.097   9.749  0.3951  0.2951  0.4651
  287MOL0     C38632   8.840   3.085   9.618 -0.7014  0.1470  0.5863
  287MOL0     C38633   8.692   3.119   9.632  0.6205  0.1484 -0.2445
  287MOL0     O38634   8.634   3.149   9.506 -0.4172 -0.5558  0.5182
  287MOL0     C38635   8.502   3.168   9.490 -0.0996  0.3608 -0.0912
  287MOL0     C38636   8.414   3.214   9.587  0.3887  0.0013  0.4118
  287MOL0     C38637   8.280   3.204   9.579  0.0632 -0.4173  0.3273
  287MOL0     C38638   8.230   3.164   9.449  0.9658  0.5326 -0.3427
  287MOL0     C38639   8.090   3.130   9.433 -0.7761  0.7921  0.2492
  287MOL0     O38640   8.041   3.120   9.304  0.1810  0.3480 -0.3553
  287MOL0     C38641   7.915   3.093   9.264  0.8697  0.5552 -0.3952
  287MOL0     C38642   7.804   3.168   9.310  0.0847  0.0810  0.0649
  287MOL0     C38643   7.676   3.142   9.263 -0.8357 -0.1919  0.2903
  287MOL0     C38644   7.658   3.029   9.176  1.2756 -0.9479  0.3974
  287MOL0     O38645   7.526   3.007   9.149 -0.0279  0.1871 -0.3282
  287MOL0     C38646   7.484   2.942   9.030  0.5086 -0.2990  0.5203
  287MOL0     C38647   7.387   3.051   8.970  0.5543  0.2502  0.5396
  287MOL0     C38648   7.300   2.971   8.872 -0.4494 -1.2768 -0.4126
  287MOL0     C38649   7.172   2.905   8.916 -0.1976 -0.0496  0.2139
  287MOL0     C38650   7.130   2.776   8.838 -0.5817 -0.7219  0.4852
  287MOL0     C38651   7.102   2.805   8.686  0.1045  0.0324 -0.3461
  287MOL0     C38652   6.963   2.865   8.664  0.1742  0.5245  0.7578
  287MOL0     C38653   6.936   2.877   8.516 -0.7433 -0.3059  0.8595
  287MOL0    Cl38654   6.910   2.704   8.469  0.0710 -0.1824 -0.1467
  287MOL0     C38655   7.763   2.953   9.128 -0.4933 -0.0820 -0.4787
  287MOL0     C38656   7.894   2.990   9.167 -0.4890 -0.7581  0.5731
  287MOL0     O38657   8.025   3.117   9.534 -0.5517  0.2228  0.4348
  287MOL0     C38658   8.318   3.138   9.343  0.3216 -0.1625 -0.2573
  287MOL0     C38659   8.455   3.141   9.361 -0.1766  1.2283  0.1105
  287MOL0     N38660   8.726   3.214   9.981 -0.5073 -0.6542 -0.6681
  287MOL0     N38661   8.608   3.235  10.032  0.1794  1.1296 -0.5045
  287MOL0     C38662   7.365   2.960   9.932  0.3044 -0.6514 -0.3586
  287MOL0     C38663   7.228   2.977   9.902  0.6540 -1.2298  0.3365
  287MOL0     C38664   6.780   2.876   9.933  0.6891 -0.3772  0.5668
  287MOL0     C38665   6.720   2.970  10.020  0.2042 -0.2321 -0.5486
  287MOL0     C38666   6.575   2.975  10.032 -0.5224 -0.0943  0.6730
  287MOL0     C38667   6.491   2.890   9.953  0.3238 -0.2120 -0.8145
  287MOL0     O38668   6.355   2.893   9.965  0.8397 -0.3720 -0.0633
  287MOL0     C38669   6.281   2.971  10.060 -0.5105 -0.4295 -0.3210
  287MOL0     C38670   6.132   2.946  10.041  0.2746 -1.3245 -0.5657
  287MOL0     C38671   6.033   2.994  10.157 -0.9774 -0.3481  1.3557
  287MOL0     C38672   5.888   2.978  10.131  0.3728 -0.9310 -0.4293
  287MOL0     C38673   5.820   3.022  10.252 -0.7483 -0.7898 -0.9402
  287MOL0     C38674   5.766   3.046  10.360 -0.5456  0.8190  0.2117
  287MOL0     C38675   6.557   2.801   9.868  0.6650  0.1735  0.2708
  287MOL0     C38676   6.694   2.794   9.849 -0.4086 -0.5232 -0.0932
  287MOL0     C38677   6.736   2.703   9.738 -0.9148 -0.4406 -0.0037
  287MOL0     H38678   7.098   2.866  10.205 -0.0326  0.2545  0.4502
  287MOL0     H38679   7.326   2.844  10.251 -0.0984 -1.1402 -1.7564
  287MOL0     H38680   7.634   2.879   9.929  2.9304  0.0523 -0.1382
  287MOL0     H38681   7.633   3.038  10.007  1.3504 -0.6706 -3.8059
  287MOL0     H38682   7.757   2.766  10.088  2.3701 -1.0733 -2.1133
  287MOL0     H38683   7.773   2.907  10.197  1.3551 -0.4077 -0.8352
  287MOL0     H38684   7.905   2.861   9.921 -1.1528  0.5584 -0.7265
  287MOL0     H38685   7.971   2.871  10.082 -2.1933  0.6805  3.0994
  287MOL0     H38686   7.839   3.119   9.957 -0.1460  2.3381  1.6839
  287MOL0     H38687   7.918   3.105  10.112 -1.9130  2.5360 -0.9810
  287MOL0     H38688   8.042   3.093   9.824  1.4047  2.5111 -0.8331
  287MOL0     H38689   8.074   3.203   9.963 -0.8131  0.4854  2.0737
  287MOL0     H38690   8.157   2.998  10.090  2.8814  0.1123 -0.4285
  287MOL0     H38691   8.171   2.912   9.933 -1.7651  0.7021 -1.0768
  287MOL0     H38692   8.300   3.182   9.907 -0.9731 -0.5602 -0.6862
  287MOL0     H38693   8.355   3.018   9.880 -0.6122 -1.1207  0.2739
  287MOL0     H38694   8.365   3.179  10.138 -1.0430  0.6314 -1.3980
  287MOL0     H38695   8.389   3.007  10.137  0.2586 -1.0109 -1.8886
  287MOL0     H38696   8.575   2.932   9.941 -0.7816  0.8483  0.6482
  287MOL0     H38697   8.928   3.020   9.945  0.4590  0.0913 -0.2806
  287MOL0     H38698   8.839   2.909   9.834  1.2231 -0.3900 -0.4088
  287MOL0     H38699   8.924   3.202   9.775  2.0232  0.0083  1.0475
  287MOL0     H38700   9.016   3.065   9.730  1.0427  2.9809 -0.9462
  287MOL0     H38701   8.850   2.983   9.581  2.2140  1.3473 -2.4963
  287MOL0     H38702   8.877   3.150   9.538  0.6879  0.3141  1.3315
  287MOL0     H38703   8.688   3.210   9.692  0.5736  0.5842 -0.9005
  287MOL0     H38704   8.640   3.039   9.686  1.0973  0.9457  1.4806
  287MOL0     H38705   8.442   3.257   9.683  0.6206  0.6466  0.0606
  287MOL0     H38706   8.221   3.234   9.665  0.8574  1.0976  0.3848
  287MOL0     H38707   7.817   3.262   9.362  0.8638  1.0266 -1.7505
  287MOL0     H38708   7.596   3.204   9.303  0.0690  0.1106  1.7047
  287MOL0     H38709   7.564   2.909   8.963 -0.1370 -1.8697  0.4770
  287MOL0     H38710   7.425   2.854   9.056 -1.2580  1.1094  1.4510
  287MOL0     H38711   7.336   3.101   9.052  0.8954 -2.1783  2.3400
  287MOL0     H38712   7.434   3.128   8.907 -1.9040  2.5684  1.3949
  287MOL0     H38713   7.276   3.053   8.803  0.9683  0.7864  1.3959
  287MOL0     H38714   7.356   2.893   8.819  1.3894 -0.1352 -0.2443
  287MOL0     H38715   7.091   2.977   8.901 -0.4879 -0.4533 -0.1781
  287MOL0     H38716   7.176   2.882   9.023 -1.2806  2.4182  0.8711
  287MOL0     H38717   7.034   2.753   8.886 -0.1892  2.0049  2.8054
  287MOL0     H38718   7.205   2.699   8.858 -0.8274 -1.0740  0.0596
  287MOL0     H38719   7.179   2.870   8.644  2.0516 -1.1789  1.1540
  287MOL0     H38720   7.111   2.711   8.631 -0.0209 -0.9833  1.2885
  287MOL0     H38721   6.962   2.969   8.699 -4.0337  1.0002 -0.3467
  287MOL0     H38722   6.877   2.816   8.710 -0.5041  1.2376  0.2715
  287MOL0     H38723   6.852   2.940   8.487 -0.9096 -2.0330 -3.0856
  287MOL0     H38724   7.022   2.911   8.458 -1.6830 -0.4025 -0.6232
  287MOL0     H38725   7.750   2.879   9.049  0.8788 -0.5630 -0.2910
  287MOL0     H38726   7.983   2.940   9.131  0.1328  1.9693 -2.1912
  287MOL0     H38727   8.279   3.110   9.246 -2.1927  0.2379  0.5694
  287MOL0     H38728   8.527   3.107   9.287  0.4560  2.0138  0.3403
  287MOL0     H38729   7.441   2.982   9.857  1.5451  0.6838  1.2256
  287MOL0     H38730   7.188   3.026   9.813 -0.9659 -0.6774  1.3277
  287MOL0     H38731   6.778   3.044  10.074 -0.8942 -1.9537  3.3099
  287MOL0     H38732   6.537   3.059  10.088 -0.0222  0.1446  0.6641
  287MOL0     H38733   6.303   3.077  10.048  2.9323 -1.1565 -1.6323
  287MOL0     H38734   6.303   2.953  10.166 -0.2256  0.5488 -0.2098
  287MOL0     H38735   6.117   2.840  10.016  0.0025 -1.1174 -1.3068
  287MOL0     H38736   6.113   3.000   9.948  1.4752 -1.5932 -0.9822
  287MOL0     H38737   6.056   3.097  10.187 -1.6418 -0.6503  2.9909
  287MOL0     H38738   6.059   2.940  10.248  2.3272  2.1792  2.1010
  287MOL0     H38739   5.855   3.045  10.051  1.5818  0.7396  0.4120
  287MOL0     H38740   5.851   2.878  10.106 -1.6724 -0.0088 -1.3386
  287MOL0     H38741   5.724   3.073  10.455 -2.6104 -1.4520  0.0676
  287MOL0     H38742   6.488   2.745   9.806  0.9241 -0.1323  0.2567
  287MOL0     H38743   6.733   2.602   9.779 -0.6037 -0.4823 -0.0804
  287MOL0     H38744   6.661   2.718   9.660 -3.0184 -1.4051  1.7355
  287MOL0     H38745   6.840   2.725   9.713 -0.5763  1.4353  2.6278
  288MOL0     O38746   1.295   1.310   4.476 -0.4406  0.2915  1.1445
  288MOL0     C38747   1.277   1.251   4.368 -0.0235 -0.0234 -0.0236
  288MOL0     O38748   1.327   1.298   4.241 -0.1685  0.0518 -0.2382
  288MOL0     C38749   1.405   1.412   4.235  0.7163 -0.2197 -0.7500
  288MOL0     C38750   1.532   1.410   4.291 -0.1290  0.3167  0.2562
  288MOL0     C38751   1.610   1.517   4.287  0.3969  0.1325 -0.5274
  288MOL0     C38752   1.572   1.634   4.226  0.7392  0.0699  0.8572
  288MOL0     O38753   1.659   1.743   4.239 -0.0041  0.5955  0.4228
  288MOL0     C38754   1.702   1.805   4.117  0.8321 -0.2164 -0.1227
  288MOL0     C38755   1.820   1.717   4.080  0.9874  0.3108  0.7570
  288MOL0     C38756   1.925   1.732   4.190  1.1366  0.6722 -0.0545
  288MOL0     C38757   2.048   1.671   4.131 -0.5089 -0.3648  0.3185
  288MOL0     C38758   2.171   1.677   4.227 -0.6092 -0.4869  0.9592
  288MOL0     C38759   2.221   1.821   4.254 -0.1487  0.3271  0.1409
  288MOL0     C38760   2.372   1.838   4.244  0.3507 -0.3267 -0.4196
  288MOL0     C38761   2.438   1.793   4.371  0.3558  0.0623 -0.7505
  288MOL0     N38762   2.586   1.768   4.358  0.1305 -0.1095  0.1667
  288MOL0     C38763   2.681   1.854   4.314 -0.3264 -0.5946 -0.0147
  288MOL0     C38764   2.802   1.795   4.341  0.6491  0.8292  0.7693
  288MOL0     C38765   2.942   1.857   4.310  1.5289 -0.2226 -0.6703
  288MOL0     C38766   3.056   1.753   4.299 -0.0662 -0.4708 -0.4026
  288MOL0     C38767   3.185   1.834   4.293  0.3247  0.1287 -0.7160
  288MOL0     C38768   3.308   1.742   4.279 -0.3677  0.6077 -0.2645
  288MOL0     O38769   3.407   1.817   4.201  0.2792 -0.6971 -1.0031
  288MOL0     C38770   3.520   1.747   4.172 -0.4986 -0.3396 -0.9866
  288MOL0     C38771   3.537   1.605   4.175  1.0160 -0.5412 -0.2088
  288MOL0     C38772   3.652   1.541   4.129  0.2629 -0.0169 -0.8610
  288MOL0     C38773   3.765   1.619   4.097 -0.9182  0.7107  0.7170
  288MOL0     C38774   3.899   1.563   4.067  0.4744 -1.2523  0.5223
  288MOL0     O38775   4.007   1.635   4.099  0.4464  0.3163  1.0100
  288MOL0     C38776   4.125   1.578   4.101 -0.2795  0.1758 -0.2300
  288MOL0     C38777   4.232   1.654   4.071  0.3271 -0.6358  1.0250
  288MOL0     C38778   4.366   1.606   4.084  0.4595  0.5560 -1.0052
  288MOL0     C38779   4.387   1.478   4.128  0.5177  0.8575 -0.2139
  288MOL0     O38780   4.517   1.436   4.150  0.0341  0.4869 -0.8133
  288MOL0     C38781   4.548   1.296   4.153 -0.2132  1.0292 -0.3966
  288MOL0     C38782   4.701   1.269   4.155 -0.2148 -0.4929 -0.2602
  288MOL0     C38783   4.784   1.294   4.284 -0.3075  0.0183  0.4639
  288MOL0     C38784   4.933   1.268   4.252  0.0955  0.0174 -0.8732
  288MOL0     C38785   5.018   1.336   4.354  0.4303 -0.4457  0.4500
  288MOL0     C38786   5.162   1.317   4.316  0.4153  0.5624  0.8288
  288MOL0     C38787   5.242   1.403   4.406  0.4050  0.0342 -0.1516
  288MOL0     C38788   5.395   1.383   4.391  0.1054 -0.5227  0.6319
  288MOL0    Cl38789   5.454   1.223   4.423  0.0379 -0.2813  0.0565
  288MOL0     C38790   4.277   1.396   4.165  0.9193 -0.2184  0.0083
  288MOL0     C38791   4.149   1.444   4.152  0.3071 -0.6348 -0.7551
  288MOL0     O38792   3.897   1.446   4.041 -0.1910  0.1999  0.3180
  288MOL0     C38793   3.746   1.761   4.094  0.1690 -0.4589  0.1000
  288MOL0     C38794   3.626   1.822   4.130 -1.2272  0.5245  0.4570
  288MOL0     N38795   2.776   1.676   4.407  0.2242 -0.3129 -0.1994
  288MOL0     N38796   2.654   1.664   4.414  0.2453 -0.8656  0.9397
  288MOL0     C38797   1.441   1.640   4.167 -0.9222 -0.3314  0.4779
  288MOL0     C38798   1.359   1.525   4.172  0.1002  0.0673 -0.4480
  288MOL0     C38799   1.191   1.130   4.372  0.0228 -0.0229 -0.7820
  288MOL0     C38800   1.092   1.126   4.468 -0.0797  1.0800 -0.2259
  288MOL0     C38801   1.000   1.018   4.471 -0.4725 -0.3007  0.1487
  288MOL0     C38802   1.004   0.915   4.371  0.6714  0.1766  0.0176
  288MOL0     O38803   0.925   0.805   4.355 -0.0685 -1.0404  0.6075
  288MOL0     C38804   0.825   0.785   4.452  0.1622 -0.2769 -0.1137
  288MOL0     C38805   0.742   0.667   4.404 -0.6073 -0.2647 -0.8891
  288MOL0     C38806   0.609   0.668   4.472  0.4409 -0.2881 -0.2495
  288MOL0     C38807   0.546   0.528   4.448  0.6223 -0.1097  0.7070
  288MOL0     C38808   0.481   0.514   4.317 -0.3861 -0.7283 -0.4870
  288MOL0     C38809   0.433   0.511   4.209  0.3063 -0.0509  0.0679
  288MOL0     C38810   1.108   0.917   4.280 -0.4917  0.1043 -0.2577
  288MOL0     C38811   1.201   1.031   4.272 -1.4921 -0.4034  0.6580
  288MOL0     C38812   1.315   1.026   4.167  0.2815 -0.1520  0.1489
  288MOL0     H38813   1.564   1.325   4.351  2.0222  1.3833  0.7167
  288MOL0     H38814   1.707   1.507   4.335  0.4168 -3.4098 -1.0415
  288MOL0     H38815   1.629   1.803   4.035  0.6854 -1.2350  0.0249
  288MOL0     H38816   1.732   1.909   4.135  0.7658 -0.2613  0.2622
  288MOL0     H38817   1.843   1.754   3.979  0.9179  1.5755  1.1848
  288MOL0     H38818   1.793   1.611   4.078  0.3742  0.4710  0.2027
  288MOL0     H38819   1.888   1.671   4.274  0.1258 -3.2767 -3.0490
  288MOL0     H38820   1.936   1.838   4.213 -1.7050  0.6551  1.8756
  288MOL0     H38821   2.032   1.563   4.118 -0.0364 -0.4776  0.6456
  288MOL0     H38822   2.081   1.697   4.030  0.6980  0.2472  0.8533
  288MOL0     H38823   2.134   1.617   4.311 -2.4144 -1.4407 -0.4417
  288MOL0     H38824   2.255   1.619   4.187 -1.7127 -1.7761  0.4155
  288MOL0     H38825   2.181   1.887   4.176 -0.6330 -0.5300 -0.3550
  288MOL0     H38826   2.183   1.870   4.344  1.2296  1.3508  0.1894
  288MOL0     H38827   2.413   1.935   4.213  2.5688 -1.5386 -1.5104
  288MOL0     H38828   2.405   1.768   4.167 -2.6713  1.2839 -3.3995
  288MOL0     H38829   2.431   1.881   4.436 -1.0568 -0.3400 -0.3364
  288MOL0     H38830   2.389   1.707   4.417  1.3838  1.0810  2.6124
  288MOL0     H38831   2.654   1.953   4.276 -4.9469  0.0811  4.0339
  288MOL0     H38832   2.930   1.898   4.210 -1.9157  0.1206 -0.2341
  288MOL0     H38833   2.964   1.937   4.381  2.7719 -0.9806 -0.1642
  288MOL0     H38834   3.047   1.688   4.386 -2.5612  1.5092  0.9536
  288MOL0     H38835   3.043   1.706   4.201 -1.0698 -1.0506  0.0035
  288MOL0     H38836   3.191   1.912   4.369 -1.5556 -0.7078  0.3756
  288MOL0     H38837   3.171   1.894   4.203  1.8254  3.0741  0.8676
  288MOL0     H38838   3.283   1.658   4.214 -0.4943  0.5285 -0.1126
  288MOL0     H38839   3.349   1.713   4.376 -0.4296 -1.3531 -0.7892
  288MOL0     H38840   3.459   1.534   4.200 -0.9035  1.5395 -0.0626
  288MOL0     H38841   3.658   1.433   4.137 -2.2156 -0.2040 -0.7886
  288MOL0     H38842   4.206   1.755   4.041 -0.3700  0.4235  4.6720
  288MOL0     H38843   4.453   1.667   4.064  0.2900  1.6285  1.2000
  288MOL0     H38844   4.503   1.254   4.244 -0.9153  1.4552 -0.5419
  288MOL0     H38845   4.500   1.249   4.067  0.1998  0.6449 -0.4191
  288MOL0     H38846   4.717   1.169   4.114  0.4112 -0.9959  1.1501
  288MOL0     H38847   4.737   1.341   4.080 -3.8392  2.3939  0.4475
  288MOL0     H38848   4.771   1.401   4.302 -3.4706  0.5612 -3.6055
  288MOL0     H38849   4.747   1.238   4.370  2.6453 -1.2641  0.9973
  288MOL0     H38850   4.954   1.299   4.149 -1.4798  1.2071 -0.8782
  288MOL0     H38851   4.946   1.160   4.257 -2.4748 -0.3322  0.2552
  288MOL0     H38852   5.003   1.300   4.456 -1.6289 -0.1937  0.2753
  288MOL0     H38853   4.988   1.441   4.355 -0.0202 -0.5736  0.6177
  288MOL0     H38854   5.189   1.211   4.308 -0.9594  0.3215 -2.2607
  288MOL0     H38855   5.181   1.354   4.215 -1.2721  0.8511  0.5770
  288MOL0     H38856   5.224   1.372   4.509  0.7534 -2.2687 -0.7276
  288MOL0     H38857   5.230   1.511   4.390 -0.2437  0.2839  1.7220
  288MOL0     H38858   5.413   1.410   4.287  1.1513 -0.2452  0.8616
  288MOL0     H38859   5.442   1.446   4.468  1.4830 -2.2146  1.2530
  288MOL0     H38860   4.286   1.302   4.218  1.2026  0.6858  1.6290
  288MOL0     H38861   4.078   1.372   4.189 -0.4841 -0.6856 -2.3160
  288MOL0     H38862   3.829   1.826   4.068 -0.8482  0.1620 -1.7952
  288MOL0     H38863   3.613   1.930   4.138 -2.2666  0.3029  2.5288
  288MOL0     H38864   1.402   1.728   4.117  1.4315  1.8436  2.2071
  288MOL0     H38865   1.264   1.510   4.123 -0.5694 -0.8740  1.0848
  288MOL0     H38866   1.073   1.199   4.546 -3.2617  0.9029 -0.6747
  288MOL0     H38867   0.931   1.017   4.555 -1.3544  0.8112 -0.5354
  288MOL0     H38868   0.763   0.873   4.467 -2.7010 -2.5641  2.9341
  288MOL0     H38869   0.881   0.762   4.543  3.4060 -0.5303 -1.9947
  288MOL0     H38870   0.805   0.581   4.428  0.2202  1.1791  2.7825
  288MOL0     H38871   0.715   0.676   4.298  1.2476  2.3252 -1.2332
  288MOL0     H38872   0.540   0.738   4.424  0.8651 -0.2659 -0.8397
  288MOL0     H38873   0.620   0.686   4.580  2.0359 -2.8770  0.1186
  288MOL0     H38874   0.609   0.439   4.459 -0.5906 -1.0253  0.4885
  288MOL0     H38875   0.466   0.510   4.520 -1.9860  0.2234 -1.9295
  288MOL0     H38876   0.388   0.500   4.113  1.8705 -2.6984 -0.4498
  288MOL0     H38877   1.120   0.825   4.223  3.1963 -1.8372  3.0901
  288MOL0     H38878   1.317   1.113   4.100  1.5959 -0.9092 -0.8418
  288MOL0     H38879   1.405   1.021   4.229  1.1585 -0.7694 -1.1395
  288MOL0     H38880   1.310   0.932   4.111  2.5161 -1.1392  1.4867
  289MOL0     O38881  10.457   9.845   4.926 -0.4076  0.3097  0.3213
  289MOL0     C38882  10.400   9.772   4.859 -0.0066  0.6696  0.4203
  289MOL0     O38883  10.451   9.691   4.770 -0.4370  0.0679  0.0437
  289MOL0     C38884  10.587   9.663   4.783  0.0242 -0.2482  0.1361
  289MOL0     C38885  10.640   9.604   4.902  0.2938 -0.3901  0.7117
  289MOL0     C38886  10.778   9.596   4.915 -0.5938  0.8887  0.4937
  289MOL0     C38887  10.867   9.654   4.819  0.3597 -0.5565  0.1422
  289MOL0     O38888  11.008   9.643   4.832  0.5999 -0.6150  0.1114
  289MOL0     C38889  11.067   9.744   4.918 -0.2093  0.6457  0.6611
  289MOL0     C38890  11.120   9.680   5.048 -0.1868 -0.7876  0.2976
  289MOL0     C38891  11.275   9.672   5.058  0.4119 -0.3624  0.2730
  289MOL0     C38892  11.346   9.813   5.073 -0.0037  0.3123  0.3298
  289MOL0     C38893  11.497   9.797   5.051 -0.4091 -0.2319  0.7769
  289MOL0     C38894  11.564   9.716   5.158 -0.5747 -0.2979 -0.1229
  289MOL0     C38895  11.722   9.692   5.141  0.4229 -0.1734  0.1226
  289MOL0     C38896  11.774   9.616   5.266 -0.6783 -0.5257  1.4892
  289MOL0     N38897  11.910   9.571   5.236 -0.2355  0.6265  0.0658
  289MOL0     C38898  11.959   9.447   5.275  0.0291 -0.1821  0.5602
  289MOL0     C38899  12.091   9.451   5.242 -0.2524 -0.0512 -0.0246
  289MOL0     C38900  12.188   9.342   5.253 -0.3604 -0.0263  1.2856
  289MOL0     C38901  12.134   9.222   5.172  0.2640  0.2042 -0.6985
  289MOL0     C38902  12.147   9.230   5.024  0.2127  0.3781  0.0059
  289MOL0     C38903  12.300   9.235   4.981  0.8488 -0.5196  0.0264
  289MOL0     O38904  12.363   9.115   5.019 -0.4616 -0.1946 -0.2510
  289MOL0     C38905  12.498   9.116   5.036  0.8398  0.4976  0.0514
  289MOL0     C38906  12.553   9.183   5.143 -0.0634 -0.0920  0.2874
  289MOL0     C38907  12.691   9.175   5.170  0.3284 -0.6304  0.1886
  289MOL0     C38908  12.772   9.112   5.083 -0.7955 -0.5571 -0.6419
  289MOL0     C38909  12.916   9.118   5.114  0.0195 -0.8032  1.1553
  289MOL0     O38910  12.997   9.053   5.016 -0.3564 -0.5649  0.0348
  289MOL0     C38911  13.128   9.051   5.046  0.3434 -0.7049 -0.4185
  289MOL0     C38912  13.176   8.967   5.151 -0.3501 -0.2376  0.4061
  289MOL0     C38913  13.312   8.959   5.188  0.8842 -0.7127  0.1550
  289MOL0     C38914  13.404   9.006   5.095 -0.3926  0.0720 -0.1460
  289MOL0     O38915  13.540   8.980   5.096  0.9192  0.2924 -0.1797
  289MOL0     C38916  13.591   8.879   5.178 -1.1477  0.1373  0.4887
  289MOL0     C38917  13.740   8.858   5.153 -0.0617 -0.1869 -0.1581
  289MOL0     C38918  13.811   8.818   5.289  0.3778  0.1890  0.1423
  289MOL0     C38919  13.950   8.754   5.278 -0.3632  0.5382 -0.3802
  289MOL0     C38920  14.045   8.853   5.216  0.1035 -1.0508  0.7776
  289MOL0     C38921  14.193   8.810   5.229 -0.1650 -0.0192 -0.1670
  289MOL0     C38922  14.235   8.802   5.374  0.4524  0.4195  0.3179
  289MOL0     C38923  14.384   8.845   5.384 -0.4289 -0.1639  0.5078
  289MOL0    Cl38924  14.497   8.749   5.284 -0.0154 -0.0427  0.0789
  289MOL0     C38925  13.356   9.087   4.989 -0.3814 -0.4185 -0.9247
  289MOL0     C38926  13.219   9.115   4.966 -0.5892 -0.9122  0.1383
  289MOL0     O38927  12.958   9.182   5.206  0.1718  0.0924 -0.6061
  289MOL0     C38928  12.724   9.041   4.974 -0.0238  0.7663  0.2301
  289MOL0     C38929  12.587   9.040   4.957 -0.4165 -0.2430  0.3938
  289MOL0     N38930  12.113   9.573   5.182 -0.2973 -0.1320 -0.4327
  289MOL0     N38931  12.006   9.644   5.176 -0.5685  0.1182  0.0566
  289MOL0     C38932  10.802   9.717   4.704 -0.5937  0.3577 -0.1524
  289MOL0     C38933  10.668   9.721   4.689 -1.1937 -0.2712  0.1615
  289MOL0     C38934  10.256   9.787   4.843 -0.4741  0.1444  0.3441
  289MOL0     C38935  10.194   9.756   4.724 -0.4175  0.1038  0.3442
  289MOL0     C38936  10.060   9.774   4.697 -0.5347 -0.3835 -0.3278
  289MOL0     C38937   9.979   9.826   4.803  0.5935  0.4112 -0.5649
  289MOL0     O38938   9.845   9.848   4.799  0.8195 -1.0666  0.2736
  289MOL0     C38939   9.789   9.823   4.674 -0.0793  0.9363  0.4470
  289MOL0     C38940   9.640   9.844   4.685  0.3141  0.3220 -0.9845
  289MOL0     C38941   9.563   9.840   4.551 -0.9990 -0.6006 -0.5438
  289MOL0     C38942   9.429   9.921   4.543  0.3232  0.6208 -0.0140
  289MOL0     C38943   9.344   9.859   4.442  0.1081  0.5990  0.5905
  289MOL0     C38944   9.273   9.815   4.358 -1.2951  0.2272  0.3201
  289MOL0     C38945  10.043   9.860   4.928 -1.3140  0.2360  0.3977
  289MOL0     C38946  10.181   9.831   4.950  0.0600 -0.0783  0.4518
  289MOL0     C38947  10.233   9.866   5.084 -0.3479 -0.5693  0.1802
  289MOL0     H38948  10.568   9.574   4.978 -1.0579  0.4553 -0.1987
  289MOL0     H38949  10.819   9.543   5.000 -1.2724  0.7657  0.7460
  289MOL0     H38950  11.141   9.801   4.862 -1.3262  2.4339  0.9305
  289MOL0     H38951  10.992   9.819   4.948 -0.0128  0.7293  0.9504
  289MOL0     H38952  11.062   9.589   5.066 -3.4428  1.2554  1.0321
  289MOL0     H38953  11.089   9.745   5.130 -0.8065 -2.7538  1.6856
  289MOL0     H38954  11.299   9.630   4.960 -0.0184 -1.8376  0.7752
  289MOL0     H38955  11.301   9.592   5.128 -2.7568 -2.6863 -0.9340
  289MOL0     H38956  11.304   9.895   5.015  2.6774  0.9866 -0.8015
  289MOL0     H38957  11.328   9.841   5.177 -0.5369 -0.9200  0.5823
  289MOL0     H38958  11.502   9.744   4.956 -1.5196 -2.4115  1.8720
  289MOL0     H38959  11.531   9.901   5.052  0.2570 -0.4452  0.9768
  289MOL0     H38960  11.547   9.765   5.254 -1.2400  1.2271 -0.9865
  289MOL0     H38961  11.516   9.620   5.137 -1.4639  0.5182 -2.0699
  289MOL0     H38962  11.785   9.781   5.132 -0.6990  0.8672  1.9503
  289MOL0     H38963  11.733   9.633   5.050  1.1382 -1.0967  0.7992
  289MOL0     H38964  11.789   9.677   5.356  1.3852 -2.1971  2.3807
  289MOL0     H38965  11.704   9.538   5.298  0.1528 -0.8335  2.6303
  289MOL0     H38966  11.898   9.363   5.307 -1.6276 -0.2897 -2.4736
  289MOL0     H38967  12.287   9.361   5.213  0.1331 -2.8724  0.9429
  289MOL0     H38968  12.207   9.317   5.358  1.6240  0.8425  1.1735
  289MOL0     H38969  12.181   9.130   5.211 -0.9298  0.5137  1.6479
  289MOL0     H38970  12.025   9.215   5.172  0.0825  2.4392 -0.6038
  289MOL0     H38971  12.090   9.319   4.996  1.2663  1.9347  2.4710
  289MOL0     H38972  12.098   9.139   4.986 -1.2443  1.6045 -1.2014
  289MOL0     H38973  12.339   9.329   5.021  0.7275 -1.2014  1.8518
  289MOL0     H38974  12.307   9.260   4.875 -1.3630  0.6411  0.0927
  289MOL0     H38975  12.479   9.247   5.191  0.6814  1.4606 -0.5471
  289MOL0     H38976  12.732   9.229   5.255  4.4754 -1.5724 -0.9723
  289MOL0     H38977  13.096   8.925   5.211 -1.0935 -0.4583 -0.7067
  289MOL0     H38978  13.353   8.900   5.270  0.0751 -2.0766 -0.3876
  289MOL0     H38979  13.576   8.902   5.284  0.5267 -1.5354  1.1544
  289MOL0     H38980  13.536   8.787   5.154 -1.3680  0.2419  0.5962
  289MOL0     H38981  13.763   8.799   5.064 -0.2790  3.5407 -2.9211
  289MOL0     H38982  13.783   8.956   5.130 -1.4730  0.9775  1.8857
  289MOL0     H38983  13.795   8.897   5.363 -2.7646  0.2133 -0.4334
  289MOL0     H38984  13.756   8.736   5.335 -0.8002  1.0890  0.3764
  289MOL0     H38985  13.942   8.655   5.231 -0.2875  2.4365 -4.9202
  289MOL0     H38986  13.981   8.734   5.381 -4.0903 -0.7894  0.6196
  289MOL0     H38987  14.028   8.952   5.259  2.2232 -0.2785 -0.0046
  289MOL0     H38988  14.015   8.862   5.111 -0.7917  1.8243  1.1912
  289MOL0     H38989  14.201   8.711   5.182 -1.8765 -1.2909  2.0071
  289MOL0     H38990  14.253   8.887   5.179 -2.6761  1.1682 -1.5171
  289MOL0     H38991  14.223   8.703   5.417 -3.6711 -0.7032 -2.8029
  289MOL0     H38992  14.169   8.868   5.431 -0.6047 -1.0511  0.8618
  289MOL0     H38993  14.407   8.948   5.356  1.7254  0.3135  3.5160
  289MOL0     H38994  14.415   8.852   5.489  5.3615 -1.3702 -0.7980
  289MOL0     H38995  13.425   9.147   4.932  0.3003 -3.0274 -3.0693
  289MOL0     H38996  13.192   9.186   4.888 -0.5821  1.0184  1.7954
  289MOL0     H38997  12.787   8.990   4.902  0.0732  0.9590  0.1774
  289MOL0     H38998  12.538   8.977   4.883 -1.8428 -2.1131  2.7828
  289MOL0     H38999  10.862   9.757   4.624 -1.5964  0.6826 -0.7667
  289MOL0     H39000  10.631   9.765   4.596 -0.6928  2.5278  1.1898
  289MOL0     H39001  10.251   9.719   4.639 -0.3567 -1.0157  0.8557
  289MOL0     H39002  10.015   9.770   4.599  1.2889  3.3814 -1.4916
  289MOL0     H39003   9.800   9.715   4.659 -0.1364  0.8310  1.1435
  289MOL0     H39004   9.843   9.875   4.594 -1.0923  3.5677  1.3605
  289MOL0     H39005   9.631   9.941   4.734  1.0151 -0.5482  0.9472
  289MOL0     H39006   9.600   9.767   4.752 -1.0115  2.3506  0.6830
  289MOL0     H39007   9.556   9.735   4.524 -2.5563 -0.9360  1.0025
  289MOL0     H39008   9.627   9.877   4.470  0.2216  0.1318  0.7133
  289MOL0     H39009   9.373   9.915   4.637 -0.9039  0.4026 -0.7423
  289MOL0     H39010   9.434  10.028   4.522  1.1283  0.5901  0.0090
  289MOL0     H39011   9.212   9.762   4.288 -0.7105  1.9387 -1.5908
  289MOL0     H39012   9.982   9.893   5.012 -1.8711 -0.6993  0.3702
  289MOL0     H39013  10.148   9.873   5.152 -2.3056 -1.8612 -1.9731
  289MOL0     H39014  10.308   9.790   5.109  0.3736 -0.2726 -0.9672
  289MOL0     H39015  10.282   9.964   5.089 -3.2956  0.9443  3.4024
  290MOL0     O39016   2.512   4.636  10.402  0.5378 -0.0245 -0.0198
  290MOL0     C39017   2.513   4.643  10.524  0.0350  0.2310  0.4059
  290MOL0     O39018   2.563   4.547  10.612  0.0435 -0.2784  0.7764
  290MOL0     C39019   2.605   4.433  10.555  0.5765  0.2531  1.2791
  290MOL0     C39020   2.506   4.338  10.534  0.4266 -0.4099 -0.0887
  290MOL0     C39021   2.540   4.217  10.477 -0.2059  0.2135  0.2689
  290MOL0     C39022   2.676   4.190  10.449  1.6151  0.0624  0.8948
  290MOL0     O39023   2.724   4.073  10.399  0.6298  0.3462 -0.3453
  290MOL0     C39024   2.635   3.991  10.321 -0.4448  0.1992  0.7753
  290MOL0     C39025   2.714   3.883  10.250  0.4356 -0.4194  0.8662
  290MOL0     C39026   2.822   3.928  10.152 -0.4190  0.1215 -0.0704
  290MOL0     C39027   2.932   4.003  10.217  0.2691  0.1222 -0.1488
  290MOL0     C39028   3.034   4.057  10.117 -0.1454 -0.0062  0.0554
  290MOL0     C39029   3.112   4.177  10.179 -0.2283  0.5117 -0.7111
  290MOL0     C39030   3.192   4.257  10.072  0.1098 -0.1470  0.1655
  290MOL0     C39031   3.116   4.339   9.961  0.0758  0.3843 -0.3076
  290MOL0     N39032   3.218   4.413   9.891 -0.6943 -0.0341  0.5149
  290MOL0     C39033   3.269   4.533   9.943 -0.2134 -0.0538 -0.4218
  290MOL0     C39034   3.363   4.576   9.847 -0.2098 -0.3369  0.4500
  290MOL0     C39035   3.444   4.698   9.862 -0.3231 -0.1424  0.4315
  290MOL0     C39036   3.588   4.676   9.920  0.8586  0.1450 -0.1151
  290MOL0     C39037   3.584   4.625  10.069  0.4583 -1.7218  0.2308
  290MOL0     C39038   3.542   4.740  10.160 -0.3915 -0.1156 -0.0808
  290MOL0     O39039   3.628   4.856  10.152  0.2866 -0.2362 -0.5268
  290MOL0     C39040   3.758   4.865  10.183  1.1762  0.6655 -0.4260
  290MOL0     C39041   3.825   4.764  10.263 -0.0437  0.0208  0.0699
  290MOL0     C39042   3.959   4.771  10.295  0.1268  0.4249  0.4455
  290MOL0     C39043   4.029   4.878  10.250  0.3660  0.0148 -0.3253
  290MOL0     C39044   4.174   4.873  10.284  1.0519 -0.2641 -1.2008
  290MOL0     O39045   4.241   4.979  10.247  0.3490 -0.0097  0.7908
  290MOL0     C39046   4.371   5.005  10.275 -0.0524  0.4004  0.3154
  290MOL0     C39047   4.442   4.975  10.391 -0.5275  0.3156 -0.2394
  290MOL0     C39048   4.579   5.008  10.401 -0.4374  0.2834  0.0262
  290MOL0     C39049   4.649   5.068  10.296  0.5241  1.0176  0.4197
  290MOL0     O39050   4.783   5.069  10.320 -0.3941 -0.5473 -0.4990
  290MOL0     C39051   4.863   5.161  10.249  0.5616  0.2716 -0.4482
  290MOL0     C39052   5.000   5.150  10.305 -0.2641 -0.0436 -0.0699
  290MOL0     C39053   5.096   5.236  10.229 -0.0704 -0.0282 -0.4127
  290MOL0     C39054   5.241   5.254  10.294  0.2558  0.1302 -0.4568
  290MOL0     C39055   5.324   5.123  10.271 -0.4938  0.2394  0.5776
  290MOL0     C39056   5.467   5.146  10.325 -0.0449 -0.5154  0.3480
  290MOL0     C39057   5.478   5.151  10.473 -0.3050  0.7918 -0.8402
  290MOL0     C39058   5.619   5.151  10.530  0.2560 -0.5304  0.3369
  290MOL0    Cl39059   5.635   5.136  10.708  0.5791  0.0415 -0.1429
  290MOL0     C39060   4.581   5.113  10.183 -0.2136  0.6001 -0.3059
  290MOL0     C39061   4.445   5.079  10.174 -0.1938 -1.0675 -0.2118
  290MOL0     O39062   4.214   4.772  10.347 -0.3842  0.0009 -0.0035
  290MOL0     C39063   3.968   4.981  10.171 -0.3006  0.1793 -0.2338
  290MOL0     C39064   3.832   4.970  10.132 -0.3642 -0.4982  0.9956
  290MOL0     N39065   3.352   4.486   9.744 -0.6993  0.0963  0.6126
  290MOL0     N39066   3.269   4.387   9.771 -0.8158 -0.5884 -0.6421
  290MOL0     C39067   2.769   4.281  10.476  0.3059 -0.8437 -0.0726
  290MOL0     C39068   2.737   4.404  10.523  0.1716  0.3593 -0.1825
  290MOL0     C39069   2.439   4.753  10.587 -0.3617 -0.2461  0.9837
  290MOL0     C39070   2.331   4.798  10.508  0.7589  0.1922 -0.1162
  290MOL0     C39071   2.257   4.911  10.548 -0.2768  0.1266 -1.2648
  290MOL0     C39072   2.294   4.981  10.661 -0.1327  0.9818 -0.0063
  290MOL0     O39073   2.225   5.090  10.701  0.1901 -0.1633  0.2153
  290MOL0     C39074   2.258   5.216  10.634 -0.0567  0.7550  0.7000
  290MOL0     C39075   2.128   5.277  10.575  0.1335 -0.2726 -0.2802
  290MOL0     C39076   2.013   5.321  10.667  1.1735  0.2539  0.0623
  290MOL0     C39077   1.882   5.349  10.597  0.2426  0.4041  0.3965
  290MOL0     C39078   1.752   5.344  10.676 -0.3464  0.9115 -0.6118
  290MOL0     C39079   1.648   5.325  10.724  0.6900 -0.2466  0.4702
  290MOL0     C39080   2.402   4.932  10.738 -0.2840 -0.0551 -1.3733
  290MOL0     C39081   2.474   4.816  10.709 -0.6661 -0.4800  0.6198
  290MOL0     C39082   2.594   4.767  10.784  0.3365 -0.7024  0.0861
  290MOL0     H39083   2.399   4.349  10.551  0.8756  1.4878  1.9092
  290MOL0     H39084   2.452   4.156  10.457 -1.7912  2.9618 -1.9471
  290MOL0     H39085   2.568   3.951  10.398 -0.4874 -0.2474  0.5061
  290MOL0     H39086   2.587   4.044  10.238 -0.0754 -1.1743 -0.3492
  290MOL0     H39087   2.642   3.833  10.185  0.1151  2.1028 -0.8453
  290MOL0     H39088   2.752   3.818  10.330 -0.7595 -2.3872 -0.0641
  290MOL0     H39089   2.773   3.985  10.073 -0.1967 -0.0118 -0.3042
  290MOL0     H39090   2.873   3.844  10.104  0.0816 -0.4396  1.3916
  290MOL0     H39091   2.890   4.096  10.255  2.5298  0.5891  1.3836
  290MOL0     H39092   2.967   3.959  10.311  0.8175  1.6021  0.3569
  290MOL0     H39093   3.100   3.973  10.096 -0.4734 -0.1821 -0.2809
  290MOL0     H39094   2.977   4.079  10.026  0.5166 -0.6698 -0.5274
  290MOL0     H39095   3.045   4.253  10.220 -0.4116 -0.6091  1.2035
  290MOL0     H39096   3.176   4.141  10.260 -0.9456 -1.5909 -1.0039
  290MOL0     H39097   3.250   4.185  10.013  1.2028  0.1847  0.8034
  290MOL0     H39098   3.267   4.320  10.121  2.4034 -1.7594 -1.0667
  290MOL0     H39099   3.051   4.272   9.904 -3.4885  1.9223  1.6486
  290MOL0     H39100   3.057   4.408  10.021 -3.6235 -1.6356 -1.3348
  290MOL0     H39101   3.242   4.584  10.035 -0.3651 -0.1473 -0.4152
  290MOL0     H39102   3.444   4.734   9.758  1.6298 -0.7265  0.1939
  290MOL0     H39103   3.396   4.781   9.914  1.9783  1.5297  0.0263
  290MOL0     H39104   3.633   4.600   9.856 -0.4095  0.1304 -1.0264
  290MOL0     H39105   3.639   4.771   9.901  1.1611 -0.1451 -0.7759
  290MOL0     H39106   3.683   4.583  10.088  1.3920 -0.9958 -2.5363
  290MOL0     H39107   3.502   4.555  10.079 -2.5534  1.3361 -0.9077
  290MOL0     H39108   3.530   4.713  10.265 -0.8218  0.2786 -0.0241
  290MOL0     H39109   3.439   4.771  10.137 -0.5526 -1.4517 -1.3569
  290MOL0     H39110   3.772   4.688  10.318 -0.5206  0.5561  0.3592
  290MOL0     H39111   3.999   4.687  10.351  1.6554  1.1491  0.4816
  290MOL0     H39112   4.392   4.937  10.479 -0.6852  3.2416  1.0738
  290MOL0     H39113   4.629   4.975  10.491  0.7904 -0.6014 -0.9509
  290MOL0     H39114   4.854   5.148  10.141 -0.9805  1.4885 -0.5068
  290MOL0     H39115   4.818   5.260  10.264 -4.0189 -1.4659 -0.9069
  290MOL0     H39116   4.998   5.158  10.415 -1.0642  0.4886 -0.1136
  290MOL0     H39117   5.024   5.044  10.292 -0.9157 -0.0065 -1.8200
  290MOL0     H39118   5.091   5.202  10.125  0.1468 -1.0717 -0.0930
  290MOL0     H39119   5.061   5.339  10.227  0.3781  0.1233 -1.9431
  290MOL0     H39120   5.239   5.275  10.402 -0.0866 -1.3295 -0.1492
  290MOL0     H39121   5.290   5.339  10.246  0.3735 -0.9954 -2.4490
  290MOL0     H39122   5.326   5.106  10.163  1.5918 -1.2838  0.8125
  290MOL0     H39123   5.268   5.038  10.311 -0.3286  0.2269  0.7840
  290MOL0     H39124   5.539   5.069  10.296  0.3115 -0.3927  0.9000
  290MOL0     H39125   5.504   5.239  10.282  3.7646 -0.8075  2.5462
  290MOL0     H39126   5.432   5.060  10.514  2.7606  0.1609  1.5876
  290MOL0     H39127   5.423   5.237  10.512  1.6171  0.9757  1.7037
  290MOL0     H39128   5.676   5.072  10.480  0.5515 -0.1033 -0.0057
  290MOL0     H39129   5.665   5.247  10.504  0.9928 -0.7024  0.9757
  290MOL0     H39130   4.642   5.159  10.106 -0.3062  1.5445  0.1758
  290MOL0     H39131   4.388   5.105  10.085 -0.3214 -2.6852 -0.6349
  290MOL0     H39132   4.023   5.070  10.142 -1.5213  1.1106  0.2454
  290MOL0     H39133   3.792   5.052  10.073  0.7019 -0.3469  0.4715
  290MOL0     H39134   2.871   4.260  10.444 -0.1323 -1.9712 -0.8036
  290MOL0     H39135   2.816   4.470  10.558  0.7627  1.3389 -3.0720
  290MOL0     H39136   2.303   4.735  10.425  0.7941  0.9883 -0.7448
  290MOL0     H39137   2.180   4.950  10.481 -0.9295  0.2599 -0.4579
  290MOL0     H39138   2.335   5.205  10.557 -0.3395  2.0912  0.1996
  290MOL0     H39139   2.300   5.288  10.704  1.5749 -1.9262  2.6816
  290MOL0     H39140   2.086   5.208  10.500 -0.9068 -4.1637  3.5041
  290MOL0     H39141   2.155   5.364  10.514 -0.1291 -0.3270 -0.4767
  290MOL0     H39142   2.036   5.410  10.725  0.1590  1.1867 -0.9186
  290MOL0     H39143   1.997   5.245  10.744 -1.1857  1.8166  1.2378
  290MOL0     H39144   1.889   5.441  10.537 -1.0799 -1.8262 -3.5467
  290MOL0     H39145   1.881   5.280  10.512 -1.2765  1.6881 -0.6915
  290MOL0     H39146   1.556   5.322  10.778 -0.4430  0.7967 -1.3131
  290MOL0     H39147   2.427   4.992  10.825  0.7850 -0.3230 -1.4793
  290MOL0     H39148   2.685   4.761  10.724 -0.2014 -0.6978 -0.7434
  290MOL0     H39149   2.615   4.842  10.861  2.5451 -0.3856 -0.7459
  290MOL0     H39150   2.567   4.678  10.842  0.3691 -0.9257 -0.2401
  291MOL0     O39151   7.941   6.424   5.236 -0.5046 -0.0925  0.4642
  291MOL0     C39152   7.930   6.389   5.351  0.1687 -0.0097 -0.0981
  291MOL0     O39153   8.022   6.407   5.444 -0.1684 -0.5765 -0.0688
  291MOL0     C39154   8.141   6.472   5.407 -0.2064  0.4357 -0.4439
  291MOL0     C39155   8.176   6.596   5.459 -0.2253 -0.1272 -0.3291
  291MOL0     C39156   8.296   6.653   5.424  0.3545 -1.0190 -0.2342
  291MOL0     C39157   8.386   6.600   5.333  0.0210  0.3787 -0.4876
  291MOL0     O39158   8.498   6.671   5.295  0.0047 -0.4028  0.3829
  291MOL0     C39159   8.613   6.596   5.299 -0.0699  0.1982  0.2603
  291MOL0     C39160   8.728   6.687   5.242  0.5373 -0.3948 -0.0809
  291MOL0     C39161   8.739   6.815   5.324  0.7841  0.1128  0.7583
  291MOL0     C39162   8.881   6.870   5.321 -0.8952 -0.6962  1.0619
  291MOL0     C39163   8.878   7.014   5.384 -0.3446  0.1492 -0.5138
  291MOL0     C39164   9.018   7.077   5.393  0.4639 -0.0132  0.2018
  291MOL0     C39165   9.006   7.223   5.444 -1.7319  0.4837 -0.3157
  291MOL0     C39166   9.142   7.294   5.447 -0.4717  0.2649  0.3377
  291MOL0     N39167   9.119   7.433   5.487  0.6158 -0.8591 -0.2992
  291MOL0     C39168   9.182   7.490   5.594  0.3924  0.0410  0.1174
  291MOL0     C39169   9.146   7.618   5.594 -0.7710  0.3359  0.3060
  291MOL0     C39170   9.206   7.715   5.691  0.0449  1.1258 -0.9347
  291MOL0     C39171   9.245   7.848   5.642 -0.8589 -0.2276  0.2391
  291MOL0     C39172   9.376   7.839   5.543  0.3416 -0.4532  0.3117
  291MOL0     C39173   9.392   7.972   5.468  0.2178  0.1013  0.2928
  291MOL0     O39174   9.451   8.075   5.544  0.1423 -0.3225  0.3863
  291MOL0     C39175   9.581   8.080   5.585  0.1727  0.9616  0.6352
  291MOL0     C39176   9.683   8.021   5.515 -0.3140  0.6793  0.2461
  291MOL0     C39177   9.815   8.026   5.554 -0.1347 -0.4923 -0.3279
  291MOL0     C39178   9.851   8.083   5.671  0.4007  0.4698  0.4137
  291MOL0     C39179   9.997   8.076   5.726  0.3512  0.2280  0.0540
  291MOL0     O39180  10.020   8.159   5.835  0.0750 -0.0053  0.8291
  291MOL0     C39181  10.135   8.154   5.909  0.7590 -0.8556  0.6378
  291MOL0     C39182  10.132   8.180   6.047 -0.6726 -0.0569 -0.8690
  291MOL0     C39183  10.248   8.197   6.125  0.5467 -1.1734 -0.8012
  291MOL0     C39184  10.379   8.194   6.069 -0.4717 -0.5830 -0.0236
  291MOL0     O39185  10.486   8.213   6.150 -0.0347  0.2485 -0.3472
  291MOL0     C39186  10.621   8.209   6.092  0.5558  0.3433 -0.0728
  291MOL0     C39187  10.733   8.219   6.202 -0.1099 -0.4189  0.2209
  291MOL0     C39188  10.733   8.120   6.317 -0.2583  1.2140 -0.0146
  291MOL0     C39189  10.794   7.986   6.270  0.6709 -0.7610 -0.5910
  291MOL0     C39190  10.943   7.993   6.227 -0.0091 -0.5136 -0.4057
  291MOL0     C39191  11.006   7.860   6.194  0.1696  1.0418 -0.3132
  291MOL0     C39192  11.146   7.881   6.151  0.2259  1.1197  0.1533
  291MOL0     C39193  11.229   7.754   6.148  0.0455  0.2468 -0.1490
  291MOL0    Cl39194  11.180   7.627   6.026 -0.1083 -0.2012 -0.0174
  291MOL0     C39195  10.386   8.176   5.930 -0.6921 -0.7675  0.2031
  291MOL0     C39196  10.263   8.155   5.855 -0.6373  0.2303 -0.1219
  291MOL0     O39197  10.078   8.000   5.672 -0.5977 -0.1499  0.2832
  291MOL0     C39198   9.752   8.162   5.737 -0.1522  0.7863  0.1115
  291MOL0     C39199   9.619   8.156   5.698  0.2211  0.2141  0.0594
  291MOL0     N39200   9.052   7.640   5.494  0.5330 -0.3405 -0.2060
  291MOL0     N39201   9.040   7.532   5.432 -0.4174 -0.3694 -0.2174
  291MOL0     C39202   8.347   6.486   5.271  0.4752  1.3522 -0.0857
  291MOL0     C39203   8.230   6.413   5.312 -0.2826 -0.1067  0.4517
  291MOL0     C39204   7.804   6.322   5.398 -0.6878  0.2928  0.1507
  291MOL0     C39205   7.716   6.272   5.300  0.2231 -0.9539  0.5421
  291MOL0     C39206   7.593   6.215   5.326  0.4934 -1.1808 -0.0138
  291MOL0     C39207   7.542   6.221   5.460  0.3609 -0.2716 -0.7863
  291MOL0     O39208   7.421   6.164   5.486  0.4073 -0.4831  0.3648
  291MOL0     C39209   7.309   6.249   5.452 -0.4324  0.5584 -0.0570
  291MOL0     C39210   7.263   6.319   5.583  0.3493  0.3141  0.4839
  291MOL0     C39211   7.253   6.229   5.702  0.0211 -1.2552 -0.1454
  291MOL0     C39212   7.153   6.295   5.794  0.2313  0.1677  0.5172
  291MOL0     C39213   7.162   6.237   5.929 -0.0350  0.4157 -0.3740
  291MOL0     C39214   7.152   6.201   6.041  0.4014  1.0679 -0.5971
  291MOL0     C39215   7.626   6.262   5.570  0.2094  0.5377 -0.9946
  291MOL0     C39216   7.758   6.311   5.538  0.0799 -0.5143 -0.4021
  291MOL0     C39217   7.843   6.344   5.656 -0.0220 -0.2614 -0.1717
  291MOL0     H39218   8.108   6.635   5.535 -0.0148 -1.7044  0.7155
  291MOL0     H39219   8.318   6.746   5.475 -0.6264  0.4970 -2.4060
  291MOL0     H39220   8.651   6.567   5.398 -1.5781 -0.9776  0.5270
  291MOL0     H39221   8.605   6.502   5.245 -0.0930  0.4064 -0.0983
  291MOL0     H39222   8.709   6.708   5.136 -1.6978 -2.2111 -0.1320
  291MOL0     H39223   8.824   6.636   5.242  1.1944  0.7915 -0.5785
  291MOL0     H39224   8.706   6.800   5.428  0.5441  0.6439  0.7627
  291MOL0     H39225   8.667   6.888   5.286 -1.0438 -2.3171 -0.6784
  291MOL0     H39226   8.953   6.807   5.375 -0.0340 -0.7978 -0.1672
  291MOL0     H39227   8.918   6.870   5.219  0.1224  0.2986  1.4106
  291MOL0     H39228   8.815   7.072   5.315 -0.8183  0.2536 -0.0005
  291MOL0     H39229   8.830   7.030   5.481 -0.1080 -1.7717 -0.0442
  291MOL0     H39230   9.082   7.017   5.458 -0.5449 -0.5807  0.7065
  291MOL0     H39231   9.050   7.078   5.288 -0.6581  1.3468 -0.1701
  291MOL0     H39232   8.979   7.224   5.550 -1.5315  0.1793 -0.2596
  291MOL0     H39233   8.935   7.280   5.383 -0.7355  0.6230 -1.3767
  291MOL0     H39234   9.200   7.224   5.508  1.2644  0.0721 -1.4809
  291MOL0     H39235   9.187   7.300   5.348  1.1877 -2.1488  0.8678
  291MOL0     H39236   9.249   7.438   5.661 -1.2450  0.9987  2.6333
  291MOL0     H39237   9.127   7.747   5.759 -0.4252 -1.1669 -0.3092
  291MOL0     H39238   9.270   7.656   5.758 -0.6315 -2.0121 -2.8691
  291MOL0     H39239   9.156   7.884   5.590  0.8061  1.2273 -1.7714
  291MOL0     H39240   9.265   7.925   5.717  0.5210  1.0233 -1.3267
  291MOL0     H39241   9.357   7.759   5.470 -0.4766  0.1378 -0.1402
  291MOL0     H39242   9.466   7.818   5.601  0.5504  1.4360  0.7255
  291MOL0     H39243   9.298   7.997   5.417 -0.4886 -3.7146 -0.6328
  291MOL0     H39244   9.460   7.960   5.383  1.1379  1.3382  0.8283
  291MOL0     H39245   9.660   7.970   5.422 -1.6122 -5.3790  3.3404
  291MOL0     H39246   9.886   7.976   5.489  1.4242 -0.8034  1.5105
  291MOL0     H39247  10.035   8.190   6.096 -1.0439  0.0126 -1.6084
  291MOL0     H39248  10.243   8.225   6.230  2.9489  1.2875 -1.2393
  291MOL0     H39249  10.630   8.117   6.034 -2.7866  1.1173 -2.1324
  291MOL0     H39250  10.645   8.286   6.018 -1.7803  0.9504 -0.2804
  291MOL0     H39251  10.833   8.233   6.159 -0.7968  0.4309 -1.1923
  291MOL0     H39252  10.703   8.311   6.253 -0.2161 -1.5998  2.4293
  291MOL0     H39253  10.780   8.160   6.407 -0.1136 -3.3194  2.1775
  291MOL0     H39254  10.631   8.100   6.351 -1.8018  3.2148 -3.0309
  291MOL0     H39255  10.735   7.953   6.184  2.6404 -1.0630 -1.8818
  291MOL0     H39256  10.789   7.922   6.359 -0.3313  3.5919  2.8673
  291MOL0     H39257  11.004   8.056   6.293 -0.4745  1.8822 -2.1456
  291MOL0     H39258  10.948   8.052   6.135  1.1260 -0.0078 -0.0363
  291MOL0     H39259  11.010   7.804   6.287 -2.8582  0.0821 -0.6365
  291MOL0     H39260  10.944   7.805   6.122  0.7836  1.0292 -0.8430
  291MOL0     H39261  11.192   7.956   6.216 -1.5869  1.5874  0.9606
  291MOL0     H39262  11.145   7.927   6.052 -1.1454  0.9608  0.0842
  291MOL0     H39263  11.330   7.780   6.113 -1.4700  4.6453 -1.9926
  291MOL0     H39264  11.216   7.725   6.252  0.5722 -1.6092 -0.5582
  291MOL0     H39265  10.481   8.173   5.877 -0.2489  0.3962  0.8929
  291MOL0     H39266  10.274   8.147   5.747  1.6848  0.5228  0.0394
  291MOL0     H39267   9.765   8.218   5.829 -0.3257 -0.0204  0.6363
  291MOL0     H39268   9.542   8.209   5.753 -0.1053 -1.4402  1.2578
  291MOL0     H39269   8.415   6.448   5.195 -0.3066  0.3124 -0.2903
  291MOL0     H39270   8.197   6.317   5.273  1.1831 -1.1225  1.5943
  291MOL0     H39271   7.754   6.274   5.198  1.0403 -1.3215  0.8320
  291MOL0     H39272   7.538   6.176   5.241 -0.3863 -0.0034 -0.0164
  291MOL0     H39273   7.226   6.192   5.409 -0.1663 -1.5509  2.0038
  291MOL0     H39274   7.338   6.328   5.382 -1.1417 -0.5079 -1.6414
  291MOL0     H39275   7.166   6.363   5.556  2.3897  3.1255 -3.0178
  291MOL0     H39276   7.338   6.395   5.606  0.4511 -0.1752  1.8505
  291MOL0     H39277   7.351   6.230   5.751 -0.3896 -1.0331  0.6915
  291MOL0     H39278   7.233   6.128   5.663 -0.0824 -1.4532  0.4103
  291MOL0     H39279   7.178   6.401   5.799 -0.0252  0.4870 -2.9069
  291MOL0     H39280   7.051   6.292   5.754  0.2600 -1.1706  0.5064
  291MOL0     H39281   7.142   6.171   6.143  0.7804 -0.5987 -1.0134
  291MOL0     H39282   7.585   6.255   5.671 -2.7069  0.7550 -2.0624
  291MOL0     H39283   7.931   6.280   5.659 -0.5332 -1.0447 -1.1212
  291MOL0     H39284   7.877   6.447   5.644 -0.9747 -0.0329 -1.1256
  291MOL0     H39285   7.784   6.343   5.748 -2.6995 -1.3614 -1.7451
  292MOL0     O39286   3.784   1.049   8.742  1.0621  0.0773 -0.6063
  292MOL0     C39287   3.724   1.114   8.825  0.3439  0.4974 -0.6547
  292MOL0     O39288   3.761   1.243   8.861 -0.8214 -0.7292  0.4729
  292MOL0     C39289   3.855   1.303   8.783 -0.0808  0.6293 -0.8558
  292MOL0     C39290   3.989   1.259   8.799 -0.2827  0.7707  0.0811
  292MOL0     C39291   4.097   1.320   8.726 -0.4177  0.6208 -0.4224
  292MOL0     C39292   4.074   1.403   8.624  0.1492 -0.3686 -0.3357
  292MOL0     O39293   4.164   1.468   8.546  0.5101 -0.2046  0.3805
  292MOL0     C39294   4.308   1.440   8.563  0.2129  0.9755 -0.0533
  292MOL0     C39295   4.384   1.504   8.450  0.0159 -0.0747 -0.1465
  292MOL0     C39296   4.541   1.478   8.472 -0.0072  0.2282  0.0234
  292MOL0     C39297   4.620   1.501   8.343 -1.0423  0.3967  0.5177
  292MOL0     C39298   4.769   1.532   8.382  0.5322  0.1290 -0.5431
  292MOL0     C39299   4.850   1.558   8.259  0.3606 -0.0631 -0.0850
  292MOL0     C39300   5.000   1.568   8.298  0.2171  0.0456  0.4108
  292MOL0     C39301   5.083   1.621   8.176 -0.2925  0.3650  0.4672
  292MOL0     N39302   5.212   1.678   8.208  0.6388 -0.3701  0.2467
  292MOL0     C39303   5.262   1.800   8.153 -0.1500  0.4064  0.3291
  292MOL0     C39304   5.396   1.799   8.177 -0.4498 -1.1921 -0.1370
  292MOL0     C39305   5.506   1.904   8.135  0.0876 -0.9306  0.8037
  292MOL0     C39306   5.642   1.852   8.117 -0.1828  0.3007 -0.1590
  292MOL0     C39307   5.706   1.832   8.259  0.4793  0.0176  0.7192
  292MOL0     C39308   5.766   1.701   8.280 -0.3877  0.1877  0.3081
  292MOL0     O39309   5.827   1.638   8.163 -0.5152 -0.8981 -0.1799
  292MOL0     C39310   5.966   1.653   8.148  0.3915 -0.4822  0.7181
  292MOL0     C39311   6.033   1.551   8.077 -0.5978 -0.0027 -0.8619
  292MOL0     C39312   6.170   1.566   8.049 -0.5767  0.2361 -0.0246
  292MOL0     C39313   6.242   1.670   8.110 -0.3268  0.5094  0.5032
  292MOL0     C39314   6.388   1.689   8.083 -0.3646  0.4021 -0.3921
  292MOL0     O39315   6.444   1.810   8.114 -0.0103  0.5202  0.0842
  292MOL0     C39316   6.569   1.848   8.099 -0.3401  0.2141  0.1510
  292MOL0     C39317   6.627   1.945   8.193 -0.0818  0.1713  0.3809
  292MOL0     C39318   6.748   2.008   8.168 -0.7030  0.4933 -0.1606
  292MOL0     C39319   6.840   1.954   8.066  0.3577  0.2328 -0.7012
  292MOL0     O39320   6.969   2.007   8.060  0.4972 -0.1085  0.2178
  292MOL0     C39321   7.038   2.010   7.930 -0.2877 -0.3263 -0.9972
  292MOL0     C39322   7.181   2.063   7.939  0.3567  0.1388 -0.0831
  292MOL0     C39323   7.274   1.952   7.973 -0.6306  0.1022 -0.5951
  292MOL0     C39324   7.399   2.023   8.027 -0.2296  0.5789 -0.8111
  292MOL0     C39325   7.514   1.929   8.065  1.1848 -0.4389 -0.2318
  292MOL0     C39326   7.624   1.979   8.152 -0.5695 -0.2597 -0.0223
  292MOL0     C39327   7.713   2.081   8.086  0.6289  0.2185  0.1999
  292MOL0     C39328   7.823   2.124   8.186  0.1864 -0.0564  0.6803
  292MOL0    Cl39329   7.950   2.205   8.084  0.3673 -0.7147 -0.0924
  292MOL0     C39330   6.790   1.843   7.994 -0.2042  0.4240 -0.4223
  292MOL0     C39331   6.657   1.800   8.002 -0.3227  0.1124  0.5726
  292MOL0     O39332   6.449   1.589   8.047 -0.3827  0.6360 -0.3072
  292MOL0     C39333   6.171   1.766   8.177 -0.1403  0.1044  0.3211
  292MOL0     C39334   6.035   1.763   8.202 -0.4584  0.3635 -0.5061
  292MOL0     N39335   5.421   1.686   8.249 -0.1263  0.5248  0.5773
  292MOL0     N39336   5.314   1.618   8.270 -0.8011  0.0962 -0.9718
  292MOL0     C39337   3.942   1.432   8.591 -0.6017  0.0328  0.1695
  292MOL0     C39338   3.826   1.384   8.672 -0.0784  0.1350 -0.5834
  292MOL0     C39339   3.598   1.058   8.887 -0.1027 -0.5834  0.8383
  292MOL0     C39340   3.527   1.141   8.975  0.3962  0.1570  0.0089
  292MOL0     C39341   3.412   1.103   9.042 -0.1649 -0.3440  0.3367
  292MOL0     C39342   3.352   0.978   9.027 -0.3173 -0.2766 -0.2421
  292MOL0     O39343   3.238   0.948   9.090  0.2943 -0.1563  0.1215
  292MOL0     C39344   3.140   0.866   9.022  0.2651 -0.1886  0.3823
  292MOL0     C39345   3.054   0.950   8.939 -0.2032  0.1524  0.5238
  292MOL0     C39346   2.968   0.871   8.839 -0.8137  1.0233  1.3554
  292MOL0     C39347   2.854   0.792   8.908  0.2763 -0.6059 -1.2413
  292MOL0     C39348   2.743   0.768   8.814 -0.2182 -0.0532 -0.5138
  292MOL0     C39349   2.655   0.758   8.730 -0.5855  0.1217 -0.5040
  292MOL0     C39350   3.421   0.895   8.941 -0.4308  0.3732  0.2291
  292MOL0     C39351   3.537   0.929   8.874  0.0552 -0.0965 -0.2614
  292MOL0     C39352   3.589   0.809   8.788 -1.0481  0.3187  0.7614
  292MOL0     H39353   4.019   1.192   8.879  1.0832 -1.4550 -2.1287
  292MOL0     H39354   4.199   1.303   8.758 -0.3535  0.3912 -0.7404
  292MOL0     H39355   4.337   1.480   8.660  1.7411 -0.1863 -0.0011
  292MOL0     H39356   4.326   1.332   8.568 -0.1807  0.9591  1.5100
  292MOL0     H39357   4.357   1.609   8.434  1.3112  0.4572  0.9385
  292MOL0     H39358   4.352   1.442   8.366 -0.8122 -1.7420  1.3291
  292MOL0     H39359   4.557   1.376   8.508  1.2213  0.7650  1.0786
  292MOL0     H39360   4.575   1.539   8.556  3.2583  0.8752 -1.6059
  292MOL0     H39361   4.634   1.405   8.291 -0.2044  2.6587 -3.9623
  292MOL0     H39362   4.575   1.574   8.275  0.3541 -1.1955 -2.2901
  292MOL0     H39363   4.783   1.612   8.456  2.7683  0.3313 -1.0947
  292MOL0     H39364   4.810   1.442   8.429 -1.6953 -1.0646 -0.7549
  292MOL0     H39365   4.830   1.481   8.184  0.6679 -0.2171 -0.0102
  292MOL0     H39366   4.808   1.650   8.216 -1.6087 -1.5985 -1.6674
  292MOL0     H39367   5.038   1.467   8.313  1.6629  0.4665 -0.2447
  292MOL0     H39368   5.010   1.628   8.390 -0.0452  0.9765 -0.1544
  292MOL0     H39369   5.108   1.539   8.109  1.2527  1.7730 -0.7400
  292MOL0     H39370   5.024   1.694   8.119  1.1001  0.8777 -0.3451
  292MOL0     H39371   5.199   1.877   8.109 -1.0334 -0.2234  0.4577
  292MOL0     H39372   5.474   1.925   8.032 -0.5049  0.5155  1.2708
  292MOL0     H39373   5.499   1.995   8.195  1.6836  0.2935 -0.7646
  292MOL0     H39374   5.627   1.759   8.061 -0.5676  0.4584 -0.3213
  292MOL0     H39375   5.704   1.920   8.058 -3.0001  0.8697 -2.7063
  292MOL0     H39376   5.629   1.847   8.335  2.2880 -0.8369  2.8359
  292MOL0     H39377   5.783   1.910   8.265  1.4226 -0.8821  0.4812
  292MOL0     H39378   5.682   1.639   8.312 -1.9037  1.6926 -0.5803
  292MOL0     H39379   5.833   1.698   8.367  1.8571 -0.4237 -1.3495
  292MOL0     H39380   5.969   1.477   8.029 -1.6975 -0.8058  1.7076
  292MOL0     H39381   6.222   1.496   7.985  0.8260  0.8996  0.3531
  292MOL0     H39382   6.564   1.986   8.271  0.7722  1.1012  0.5975
  292MOL0     H39383   6.797   2.086   8.226  0.0517 -0.7759  0.9963
  292MOL0     H39384   7.040   1.906   7.895 -1.7715 -0.3700 -1.0110
  292MOL0     H39385   6.989   2.080   7.862 -3.0758 -1.5394 -0.3739
  292MOL0     H39386   7.214   2.096   7.840  0.9220  0.6132  0.2555
  292MOL0     H39387   7.187   2.142   8.015 -0.2176  0.1777 -0.0688
  292MOL0     H39388   7.241   1.887   8.055  1.9340 -0.7560 -0.1377
  292MOL0     H39389   7.299   1.887   7.888  1.6561 -1.2419  0.9766
  292MOL0     H39390   7.384   2.078   8.121 -2.5107  1.0555 -1.3839
  292MOL0     H39391   7.438   2.096   7.956  2.3513  1.4649  1.3565
  292MOL0     H39392   7.549   1.892   7.968 -0.0077 -2.2980  0.0026
  292MOL0     H39393   7.472   1.838   8.109  1.2874  0.6346  2.2067
  292MOL0     H39394   7.596   2.020   8.249 -1.8271  1.2718 -0.9717
  292MOL0     H39395   7.689   1.892   8.165  1.2170  0.8388 -1.1740
  292MOL0     H39396   7.658   2.167   8.045  0.8554  0.1733 -0.2014
  292MOL0     H39397   7.770   2.028   8.010  1.0401 -0.4886  0.9903
  292MOL0     H39398   7.779   2.193   8.259  0.6617 -0.2111  1.1196
  292MOL0     H39399   7.859   2.037   8.243 -3.1165 -2.0426  0.0199
  292MOL0     H39400   6.862   1.795   7.928 -1.2477  0.7022 -1.8103
  292MOL0     H39401   6.624   1.728   7.928 -1.2585  3.0752 -2.1409
  292MOL0     H39402   6.221   1.847   8.229  0.7202 -0.4556  0.3807
  292MOL0     H39403   5.992   1.843   8.262 -1.2016  1.6060 -2.6203
  292MOL0     H39404   3.924   1.490   8.501 -2.9774 -0.9944 -0.1054
  292MOL0     H39405   3.725   1.406   8.638  0.8532  1.4774 -2.6988
  292MOL0     H39406   3.558   1.245   8.987 -0.7733  0.5855 -0.5881
  292MOL0     H39407   3.364   1.175   9.108 -0.7257  0.0898 -0.5259
  292MOL0     H39408   3.087   0.802   9.093  1.6767 -2.5145 -0.4983
  292MOL0     H39409   3.184   0.798   8.947 -0.6397  1.6770 -1.9552
  292MOL0     H39410   3.133   1.001   8.884 -0.9046  1.8401  1.0066
  292MOL0     H39411   2.992   1.014   9.003 -0.6279 -1.6384  1.9725
  292MOL0     H39412   3.039   0.811   8.781 -0.9452  2.8633 -0.8513
  292MOL0     H39413   2.943   0.937   8.756  1.6914 -0.9618 -1.2221
  292MOL0     H39414   2.879   0.690   8.940  0.4236 -0.5361 -1.1376
  292MOL0     H39415   2.812   0.843   8.996 -0.0801 -1.4559 -0.9009
  292MOL0     H39416   2.574   0.750   8.660 -2.1974  2.1520  1.0176
  292MOL0     H39417   3.392   0.792   8.924 -0.6841  0.7350 -1.8104
  292MOL0     H39418   3.690   0.839   8.757 -1.3858  3.1641  2.1299
  292MOL0     H39419   3.593   0.714   8.842  0.5768 -0.3336 -0.4267
  292MOL0     H39420   3.525   0.788   8.702  1.1675 -1.7233 -0.5227
  293MOL0     O39421  10.752   7.776   6.997  0.1517  0.5609  0.0537
  293MOL0     C39422  10.718   7.801   7.112 -0.0110 -0.4816  0.3214
  293MOL0     O39423  10.780   7.881   7.199  0.2559  0.2668 -0.3956
  293MOL0     C39424  10.906   7.923   7.164 -0.5524  0.2203 -0.1349
  293MOL0     C39425  11.021   7.858   7.229  1.0736 -0.2243  0.4326
  293MOL0     C39426  11.149   7.882   7.194 -0.3797  0.2873  0.3182
  293MOL0     C39427  11.174   7.970   7.090 -0.6617  0.3485  0.1106
  293MOL0     O39428  11.299   7.981   7.033  0.0345 -0.0013  0.1330
  293MOL0     C39429  11.402   7.896   7.088  0.7688 -0.1015 -0.4200
  293MOL0     C39430  11.536   7.923   7.025 -0.3487 -0.2065  0.3520
  293MOL0     C39431  11.627   7.800   7.056 -0.2441 -0.5288  0.4111
  293MOL0     C39432  11.775   7.850   7.030  0.1720 -0.9812 -0.8109
  293MOL0     C39433  11.887   7.745   7.056 -0.3980 -1.0151  1.0691
  293MOL0     C39434  12.027   7.797   7.084  0.8478  0.8406 -0.0921
  293MOL0     C39435  12.080   7.895   6.979 -0.5593 -0.3519  0.3233
  293MOL0     C39436  12.195   7.991   7.029 -0.1550  1.1653  0.4236
  293MOL0     N39437  12.242   8.057   6.907  0.1971 -0.0108 -0.4860
  293MOL0     C39438  12.340   8.015   6.823 -0.8448  0.2279  0.0608
  293MOL0     C39439  12.376   8.117   6.744  0.2744  0.6809  0.1975
  293MOL0     C39440  12.472   8.097   6.628  0.4858 -0.4869  0.2762
  293MOL0     C39441  12.576   8.204   6.651  0.6826 -0.6311  0.4314
  293MOL0     C39442  12.678   8.208   6.530 -0.1017 -0.2731  0.6886
  293MOL0     C39443  12.780   8.099   6.549  0.4657  0.4133 -0.5373
  293MOL0     O39444  12.897   8.142   6.477  0.0405  1.0377  0.4777
  293MOL0     C39445  13.013   8.079   6.517  0.1885  0.4863  0.1396
  293MOL0     C39446  13.007   7.943   6.565 -0.1612 -0.0391  0.5190
  293MOL0     C39447  13.127   7.884   6.593  0.5216  0.0163 -0.1490
  293MOL0     C39448  13.249   7.950   6.579  0.0769  0.6767  0.5540
  293MOL0     C39449  13.380   7.888   6.601 -0.0752  0.2661  0.1933
  293MOL0     O39450  13.486   7.917   6.511 -0.2983 -0.0395 -0.1987
  293MOL0     C39451  13.615   7.877   6.546 -0.3719  0.5989  0.4758
  293MOL0     C39452  13.699   7.851   6.438  0.0351  1.1312  1.0525
  293MOL0     C39453  13.835   7.820   6.453 -0.2541 -0.9104 -1.0141
  293MOL0     C39454  13.894   7.834   6.584 -0.1968  0.1330  0.4148
  293MOL0     O39455  14.025   7.796   6.619 -0.5496 -0.2587 -0.6056
  293MOL0     C39456  14.113   7.781   6.511  0.3580 -0.2672 -0.3308
  293MOL0     C39457  14.243   7.741   6.579 -0.4573 -0.2141 -0.5032
  293MOL0     C39458  14.363   7.724   6.488 -0.3555 -0.3026  1.1994
  293MOL0     C39459  14.493   7.685   6.563  0.4534 -0.5454  0.1255
  293MOL0     C39460  14.624   7.683   6.477 -0.2869 -0.6355 -0.3928
  293MOL0     C39461  14.754   7.633   6.544  0.1736 -0.0597  0.2525
  293MOL0     C39462  14.865   7.618   6.433 -0.4519  0.6244  0.2011
  293MOL0     C39463  14.950   7.743   6.403  0.0118 -0.5173 -0.0304
  293MOL0    Cl39464  15.061   7.695   6.279  0.0134  0.1747 -0.0468
  293MOL0     C39465  13.806   7.859   6.689  0.5868 -0.2117 -0.0036
  293MOL0     C39466  13.666   7.894   6.674 -0.5006  0.3901  0.2870
  293MOL0     O39467  13.383   7.815   6.700 -0.7128  0.3656  0.1392
  293MOL0     C39468  13.245   8.076   6.523  0.2789 -0.6875  0.4075
  293MOL0     C39469  13.133   8.145   6.494  0.3284 -0.1824 -0.2050
  293MOL0     N39470  12.303   8.229   6.786  0.4027  0.1280  0.4260
  293MOL0     N39471  12.223   8.191   6.886  0.1785 -0.0392 -0.6178
  293MOL0     C39472  11.073   8.033   7.019 -0.1017  0.0928  0.9114
  293MOL0     C39473  10.940   8.019   7.062 -0.4218  0.3177 -0.1361
  293MOL0     C39474  10.588   7.750   7.149 -0.0069  0.7690 -0.2390
  293MOL0     C39475  10.571   7.707   7.279  0.0144  0.7035 -0.0169
  293MOL0     C39476  10.453   7.657   7.333 -0.3030 -0.1723  0.0393
  293MOL0     C39477  10.341   7.654   7.249 -0.4040 -0.2455 -0.0095
  293MOL0     O39478  10.212   7.616   7.284 -0.0568 -0.8732 -1.5454
  293MOL0     C39479  10.206   7.497   7.371  0.1342  0.2112 -0.7075
  293MOL0     C39480  10.062   7.444   7.403  0.2800  0.0383 -0.4655
  293MOL0     C39481   9.987   7.416   7.277  0.4223  0.0428 -0.2898
  293MOL0     C39482   9.849   7.353   7.314  0.3325  0.0316  0.1314
  293MOL0     C39483   9.859   7.206   7.329  0.7798 -0.0677  0.0368
  293MOL0     C39484   9.868   7.089   7.327  0.8539  0.5391 -0.4064
  293MOL0     C39485  10.350   7.707   7.119  0.6776 -0.1824 -0.7180
  293MOL0     C39486  10.471   7.760   7.073 -0.7308 -0.4019  1.1197
  293MOL0     C39487  10.478   7.818   6.932  0.3976 -0.7669 -1.2628
  293MOL0     H39488  10.987   7.776   7.291 -1.6808 -0.7648 -1.5859
  293MOL0     H39489  11.227   7.841   7.258 -0.4339  0.5239  0.5377
  293MOL0     H39490  11.420   7.918   7.194  0.0410  0.5683 -0.4273
  293MOL0     H39491  11.377   7.791   7.074 -1.0791  0.1764  0.4117
  293MOL0     H39492  11.582   8.012   7.069 -2.5464  1.0620  0.2370
  293MOL0     H39493  11.518   7.938   6.919 -1.0829  0.4557  0.5597
  293MOL0     H39494  11.613   7.717   6.987 -1.6760  0.0090  0.0176
  293MOL0     H39495  11.608   7.771   7.159 -0.2500 -0.4572  0.4301
  293MOL0     H39496  11.794   7.877   6.926  1.3485  3.2881  0.3241
  293MOL0     H39497  11.788   7.935   7.097  0.4383 -2.5338  1.2221
  293MOL0     H39498  11.853   7.681   7.138 -0.2744 -1.4128  0.8162
  293MOL0     H39499  11.901   7.685   6.966 -0.0410  0.9703 -0.2606
  293MOL0     H39500  12.028   7.847   7.181  0.0177 -0.8743  0.8587
  293MOL0     H39501  12.102   7.718   7.095  2.3680  2.0539 -1.2935
  293MOL0     H39502  12.007   7.967   6.940  0.9692  1.7075  1.1345
  293MOL0     H39503  12.125   7.837   6.897  0.9183 -0.5285  1.2384
  293MOL0     H39504  12.159   8.064   7.102  0.5001  4.3805 -2.1847
  293MOL0     H39505  12.270   7.923   7.071 -0.2467  2.1051  2.2141
  293MOL0     H39506  12.383   7.916   6.813  0.1803  0.3173  2.7805
  293MOL0     H39507  12.515   7.997   6.634  1.1934 -0.2654 -0.8321
  293MOL0     H39508  12.421   8.101   6.531 -0.8663 -2.4671  0.8501
  293MOL0     H39509  12.523   8.300   6.645  0.7760 -0.6636 -2.4880
  293MOL0     H39510  12.631   8.207   6.745  1.2642 -1.2065  0.1133
  293MOL0     H39511  12.735   8.301   6.539  0.4493 -0.6248  0.8607
  293MOL0     H39512  12.630   8.210   6.432  1.5716 -0.9881 -0.1955
  293MOL0     H39513  12.738   8.001   6.526 -0.7694  0.9314 -0.6290
  293MOL0     H39514  12.811   8.099   6.653 -0.2111  2.4541 -0.2896
  293MOL0     H39515  12.921   7.879   6.582  1.4445 -1.8139  2.7657
  293MOL0     H39516  13.142   7.781   6.625  1.3729  1.0016  2.8778
  293MOL0     H39517  13.651   7.822   6.345 -2.8877  1.4380  2.3642
  293MOL0     H39518  13.894   7.785   6.369  2.0403 -1.4465  0.7428
  293MOL0     H39519  14.079   7.700   6.446 -2.1769  2.4669 -2.7558
  293MOL0     H39520  14.124   7.873   6.453  1.1443 -0.3828 -0.3757
  293MOL0     H39521  14.273   7.808   6.659  1.6549 -0.3010 -1.1520
  293MOL0     H39522  14.218   7.645   6.626  1.3007  0.8451  2.9060
  293MOL0     H39523  14.345   7.641   6.420  1.6614  0.9907 -1.0604
  293MOL0     H39524  14.369   7.815   6.428 -1.0322 -1.1003 -0.1238
  293MOL0     H39525  14.470   7.585   6.601 -0.5696 -1.2408 -2.1361
  293MOL0     H39526  14.508   7.748   6.651  0.4824  0.3573 -0.5135
  293MOL0     H39527  14.628   7.786   6.442 -0.7337 -0.6602 -0.5240
  293MOL0     H39528  14.609   7.627   6.384 -2.5962 -1.3364  0.3239
  293MOL0     H39529  14.780   7.700   6.626 -2.0289 -1.1955  1.9818
  293MOL0     H39530  14.724   7.538   6.589 -2.1767  0.4259 -0.1746
  293MOL0     H39531  14.820   7.591   6.337 -2.4391  1.2064  0.9151
  293MOL0     H39532  14.939   7.544   6.466  0.3148  0.2269 -2.2192
  293MOL0     H39533  14.889   7.828   6.371  1.6401  1.6558  2.2194
  293MOL0     H39534  15.010   7.769   6.491  0.9174  2.1055 -1.3024
  293MOL0     H39535  13.837   7.852   6.793 -0.3572  0.5612  0.3427
  293MOL0     H39536  13.608   7.913   6.764  0.3504 -0.5031  1.0501
  293MOL0     H39537  13.344   8.116   6.506 -0.5613  1.7123  0.7574
  293MOL0     H39538  13.130   8.239   6.440  0.4071 -0.0544  0.0150
  293MOL0     H39539  11.100   8.080   6.925 -1.1675 -3.5299 -1.3826
  293MOL0     H39540  10.858   8.061   7.005 -1.2601  0.8091  1.3675
  293MOL0     H39541  10.662   7.699   7.338  1.2350 -0.8086 -1.9781
  293MOL0     H39542  10.452   7.613   7.432 -0.6627 -1.1225 -0.3716
  293MOL0     H39543  10.252   7.521   7.468 -0.1308 -2.2847  0.1234
  293MOL0     H39544  10.261   7.416   7.321 -0.6104  0.5967 -2.1703
  293MOL0     H39545  10.022   7.526   7.463  0.6290 -0.6025  0.6726
  293MOL0     H39546  10.063   7.356   7.468 -1.4903 -1.8961 -2.8962
  293MOL0     H39547  10.049   7.346   7.221  0.6169 -0.4988  0.5804
  293MOL0     H39548   9.962   7.512   7.232 -0.6647 -0.4771 -0.8464
  293MOL0     H39549   9.804   7.407   7.399 -1.9842 -0.5986 -0.6141
  293MOL0     H39550   9.769   7.373   7.242  0.5619 -0.6388 -0.3172
  293MOL0     H39551   9.868   6.983   7.314 -2.2543  0.4525 -0.4659
  293MOL0     H39552  10.262   7.693   7.058  2.2755 -2.4732 -2.7025
  293MOL0     H39553  10.510   7.923   6.934 -2.4607  0.2262  2.1554
  293MOL0     H39554  10.548   7.752   6.880  0.5088 -3.5649  2.1050
  293MOL0     H39555  10.380   7.819   6.883 -1.7352 -1.1212  2.6125
  294MOL0     O39556   4.256   3.390   6.654  0.3069  0.1961  0.1190
  294MOL0     C39557   4.230   3.277   6.635 -0.0132  0.5636 -0.6947
  294MOL0     O39558   4.313   3.173   6.679 -0.3928  0.0533  0.8090
  294MOL0     C39559   4.444   3.201   6.703  0.5570 -0.9012 -0.1835
  294MOL0     C39560   4.513   3.148   6.810 -0.3525  0.7661  0.5191
  294MOL0     C39561   4.645   3.177   6.841  0.1437 -0.7076 -0.0970
  294MOL0     C39562   4.716   3.270   6.761 -0.0978 -0.3322 -0.4061
  294MOL0     O39563   4.846   3.303   6.791 -0.4219 -0.1831  0.1197
  294MOL0     C39564   4.932   3.221   6.884  0.5562 -0.4113  0.0270
  294MOL0     C39565   5.089   3.233   6.860  0.8672 -0.2347 -0.1583
  294MOL0     C39566   5.139   3.376   6.850 -0.0204  0.0189 -0.1473
  294MOL0     C39567   5.269   3.387   6.779  0.2910 -0.5215  0.1224
  294MOL0     C39568   5.338   3.520   6.800  0.1334 -0.7811 -0.8667
  294MOL0     C39569   5.257   3.643   6.754 -0.1395 -0.1960 -0.5169
  294MOL0     C39570   5.326   3.771   6.764 -0.3473  0.5721  0.7936
  294MOL0     C39571   5.363   3.798   6.910 -0.5610 -0.4451 -0.8807
  294MOL0     N39572   5.427   3.927   6.924 -0.4074  0.0306 -0.2126
  294MOL0     C39573   5.539   3.961   6.861  0.2650  0.0477  0.3488
  294MOL0     C39574   5.535   4.095   6.853 -0.4195 -0.4097 -0.3494
  294MOL0     C39575   5.637   4.186   6.803 -0.0752  0.7387  0.4020
  294MOL0     C39576   5.783   4.154   6.865 -0.3033 -0.8708  0.2542
  294MOL0     C39577   5.884   4.259   6.813  0.0840 -0.0379 -0.0054
  294MOL0     C39578   6.023   4.215   6.846  0.0843 -0.4230 -0.1947
  294MOL0     O39579   6.108   4.332   6.858  0.0668 -0.9446  0.3417
  294MOL0     C39580   6.236   4.296   6.833  0.3747 -0.2704  0.4791
  294MOL0     C39581   6.330   4.277   6.940  0.4502  0.4392  1.1581
  294MOL0     C39582   6.466   4.246   6.918  0.5255 -0.1318 -0.0905
  294MOL0     C39583   6.515   4.231   6.787  0.1695  0.1110 -0.5082
  294MOL0     C39584   6.659   4.207   6.756 -0.0081  0.6743 -0.8491
  294MOL0     O39585   6.738   4.167   6.857 -0.6417 -0.3458  0.1484
  294MOL0     C39586   6.870   4.128   6.831 -0.0119  0.2800 -0.6051
  294MOL0     C39587   6.900   4.024   6.745 -0.7816 -0.1340 -1.1525
  294MOL0     C39588   7.029   3.980   6.724  0.3882 -0.1909 -0.2127
  294MOL0     C39589   7.137   4.035   6.789 -0.0997  1.1318  0.3586
  294MOL0     O39590   7.264   3.984   6.766 -0.1014 -0.5074  0.1495
  294MOL0     C39591   7.350   3.967   6.881 -1.1861 -0.3742 -0.4213
  294MOL0     C39592   7.447   4.088   6.893  0.0370  0.0360 -0.1258
  294MOL0     C39593   7.557   4.058   6.992 -0.7073  0.1753  0.0446
  294MOL0     C39594   7.514   4.059   7.135  0.5197 -0.2531  0.5954
  294MOL0     C39595   7.620   4.055   7.249  0.1872 -0.5993 -0.4764
  294MOL0     C39596   7.692   3.923   7.260 -0.5276  0.1113 -0.2923
  294MOL0     C39597   7.764   3.897   7.396  0.3046 -0.0571  0.3990
  294MOL0     C39598   7.882   3.796   7.408  0.2935  0.7991  0.7025
  294MOL0    Cl39599   8.025   3.867   7.319 -0.0248  0.4770 -0.2182
  294MOL0     C39600   7.107   4.151   6.861  0.1052  0.6241 -0.4974
  294MOL0     C39601   6.976   4.198   6.882 -0.0130  0.0401 -0.4973
  294MOL0     O39602   6.686   4.207   6.639 -0.5974  0.3694 -0.2073
  294MOL0     C39603   6.417   4.230   6.688  0.5534 -0.3949  0.3689
  294MOL0     C39604   6.283   4.271   6.705 -0.4148 -0.4814  0.7068
  294MOL0     N39605   5.420   4.138   6.918 -0.4766 -0.5698 -0.2704
  294MOL0     N39606   5.353   4.031   6.959  0.9497  0.3075 -0.4687
  294MOL0     C39607   4.657   3.323   6.649 -0.1130  0.2350  0.2742
  294MOL0     C39608   4.521   3.294   6.623 -0.1363  0.5005 -0.5038
  294MOL0     C39609   4.092   3.247   6.599  0.2129  0.9005  0.1277
  294MOL0     C39610   4.013   3.161   6.671 -0.8016  0.3006 -0.0156
  294MOL0     C39611   3.881   3.138   6.633  0.7719 -0.3334 -0.5021
  294MOL0     C39612   3.820   3.211   6.531 -0.1789 -0.4750 -0.4562
  294MOL0     O39613   3.687   3.210   6.511  0.8487  0.1797  0.6639
  294MOL0     C39614   3.601   3.142   6.608 -0.9736  0.1719  0.4043
  294MOL0     C39615   3.456   3.141   6.568  0.2623  0.4455  0.2706
  294MOL0     C39616   3.366   3.055   6.661 -0.1421 -0.5006  0.8522
  294MOL0     C39617   3.381   3.107   6.803 -0.7050  0.1522  0.2020
  294MOL0     C39618   3.263   3.087   6.887  0.5674 -1.1662 -0.4957
  294MOL0     C39619   3.160   3.066   6.953  0.2928  0.4722 -0.0850
  294MOL0     C39620   3.901   3.294   6.454 -0.0768 -0.2867  0.1873
  294MOL0     C39621   4.043   3.314   6.478  0.6391  1.1511 -0.2461
  294MOL0     C39622   4.128   3.402   6.398  0.9964 -0.6059 -0.1083
  294MOL0     H39623   4.455   3.073   6.864  0.0786  0.0789  0.0368
  294MOL0     H39624   4.688   3.111   6.917 -1.3219 -0.7548  0.7268
  294MOL0     H39625   4.895   3.253   6.982 -2.6870 -0.1079 -1.1885
  294MOL0     H39626   4.904   3.115   6.882 -0.8923 -0.0330 -0.5422
  294MOL0     H39627   5.110   3.188   6.762 -0.3473 -1.6702  0.2039
  294MOL0     H39628   5.134   3.184   6.947  0.6785  1.2667  0.8212
  294MOL0     H39629   5.155   3.424   6.948 -2.8321  1.2095 -0.1850
  294MOL0     H39630   5.072   3.442   6.794  1.5948  1.2949 -0.6744
  294MOL0     H39631   5.335   3.304   6.805 -0.2218 -0.2146  2.5852
  294MOL0     H39632   5.251   3.377   6.671 -1.6097 -1.1533  0.4509
  294MOL0     H39633   5.360   3.530   6.907 -1.6781  1.4708 -0.6378
  294MOL0     H39634   5.433   3.521   6.745  1.5534  0.3621  1.4464
  294MOL0     H39635   5.212   3.634   6.655 -1.2474 -1.0702  0.0557
  294MOL0     H39636   5.173   3.644   6.823  1.2686 -2.4668  1.3676
  294MOL0     H39637   5.251   3.843   6.730 -1.8137 -0.9856  0.5783
  294MOL0     H39638   5.408   3.783   6.694 -1.7948  1.9522 -0.7408
  294MOL0     H39639   5.271   3.801   6.969 -0.3449  1.4524 -0.5650
  294MOL0     H39640   5.421   3.713   6.946 -2.3696 -1.1445  0.5575
  294MOL0     H39641   5.618   3.896   6.827 -0.2303  0.7024 -2.2818
  294MOL0     H39642   5.629   4.187   6.694 -0.8252  0.8272  0.4501
  294MOL0     H39643   5.604   4.284   6.840  1.2304  1.3027  0.1092
  294MOL0     H39644   5.785   4.168   6.974 -0.6994  0.7112  0.0763
  294MOL0     H39645   5.802   4.051   6.832 -0.4530 -0.7735 -0.1344
  294MOL0     H39646   5.856   4.356   6.855  1.1933 -0.3124  1.4455
  294MOL0     H39647   5.879   4.261   6.704 -1.3983  0.5087  0.0487
  294MOL0     H39648   6.056   4.154   6.761 -1.8553  2.3788 -3.1968
  294MOL0     H39649   6.037   4.155   6.936 -0.3404  0.2154  0.3063
  294MOL0     H39650   6.298   4.285   7.043 -0.0011 -0.9317  1.1430
  294MOL0     H39651   6.534   4.248   7.002  1.0980 -1.8294 -0.4805
  294MOL0     H39652   6.817   3.993   6.682 -1.1494 -0.2466 -0.6212
  294MOL0     H39653   7.039   3.894   6.658 -2.1387 -1.2902  0.7112
  294MOL0     H39654   7.300   3.954   6.977  0.2604  0.8069  0.5520
  294MOL0     H39655   7.416   3.881   6.868  0.1776  0.1612  2.2185
  294MOL0     H39656   7.498   4.108   6.798 -1.4102  0.7792 -0.7903
  294MOL0     H39657   7.387   4.176   6.918 -1.5987 -1.8114  3.0970
  294MOL0     H39658   7.608   3.962   6.982  0.7875  1.0167 -0.6403
  294MOL0     H39659   7.634   4.133   6.970  1.1197 -1.5746  0.2195
  294MOL0     H39660   7.441   3.978   7.147 -0.5511  0.0511 -2.9216
  294MOL0     H39661   7.454   4.151   7.135  0.5880 -0.0670 -3.0981
  294MOL0     H39662   7.570   4.078   7.343  0.4453  1.4105 -0.7859
  294MOL0     H39663   7.699   4.125   7.222  1.0813 -2.0426 -1.8239
  294MOL0     H39664   7.624   3.839   7.246 -0.3727 -0.1613  0.5360
  294MOL0     H39665   7.764   3.922   7.177 -1.2397 -0.5330 -0.9154
  294MOL0     H39666   7.687   3.870   7.469  1.4990 -1.3983  1.2221
  294MOL0     H39667   7.807   3.991   7.430 -1.5045  0.6766  0.7893
  294MOL0     H39668   7.913   3.779   7.512 -2.0412  0.7908  1.4601
  294MOL0     H39669   7.848   3.700   7.368  0.3548  1.0463  0.0594
  294MOL0     H39670   7.190   4.198   6.912  1.7008 -1.5995 -0.8614
  294MOL0     H39671   6.952   4.284   6.943  1.2710 -0.4878  0.8229
  294MOL0     H39672   6.455   4.225   6.586 -1.4568 -0.0645 -0.4487
  294MOL0     H39673   6.212   4.278   6.623 -1.2180 -0.6752  1.3683
  294MOL0     H39674   4.711   3.406   6.605  1.8331  0.3890  2.7462
  294MOL0     H39675   4.481   3.339   6.532  1.8815  0.4387 -1.4688
  294MOL0     H39676   4.058   3.101   6.749  1.6632 -0.1219 -1.6609
  294MOL0     H39677   3.838   3.065   6.701  1.1638  0.5052  0.6802
  294MOL0     H39678   3.620   3.181   6.709  2.7749 -0.6918  0.1943
  294MOL0     H39679   3.633   3.038   6.619 -3.8409 -0.7379  1.1431
  294MOL0     H39680   3.448   3.112   6.463 -0.1304  1.7383 -0.0736
  294MOL0     H39681   3.432   3.247   6.566 -0.0987  0.3795 -2.4860
  294MOL0     H39682   3.402   2.952   6.654  0.8141 -0.2365  1.5820
  294MOL0     H39683   3.264   3.072   6.626  1.0990 -0.7719 -3.4168
  294MOL0     H39684   3.466   3.052   6.844 -0.2409 -0.6533 -1.7300
  294MOL0     H39685   3.407   3.212   6.819  0.5207  0.0706 -1.0985
  294MOL0     H39686   3.072   3.030   7.001  0.5968  0.4976  0.5045
  294MOL0     H39687   3.851   3.361   6.386 -0.7239 -0.7794  0.1702
  294MOL0     H39688   4.233   3.371   6.400  1.6888  1.4590  2.5837
  294MOL0     H39689   4.101   3.411   6.293  0.6165 -1.1618 -0.0628
  294MOL0     H39690   4.130   3.506   6.432 -0.8993 -0.5554 -0.0356
  295MOL0     O39691   8.893   1.233   5.953  0.3561 -0.1202 -0.4417
  295MOL0     C39692   8.854   1.145   6.021  0.5506  0.4157 -0.3492
  295MOL0     O39693   8.933   1.045   6.060 -0.1759 -1.0013  0.2509
  295MOL0     C39694   9.073   1.044   6.059  0.2918  0.5901  0.6714
  295MOL0     C39695   9.159   1.146   6.094 -0.3267  0.1251  1.4660
  295MOL0     C39696   9.300   1.134   6.087 -0.4012 -0.0969 -0.2394
  295MOL0     C39697   9.358   1.012   6.046  0.1048  0.0099  0.2599
  295MOL0     O39698   9.490   0.983   6.050 -0.1292 -0.2508 -0.5589
  295MOL0     C39699   9.588   1.087   6.069 -0.2336  0.5851  0.3288
  295MOL0     C39700   9.612   1.116   6.210 -0.0680 -0.3776 -0.8869
  295MOL0     C39701   9.721   1.212   6.236 -0.6189  0.3586  0.0411
  295MOL0     C39702   9.851   1.134   6.248 -0.7850  0.6953  0.4441
  295MOL0     C39703   9.968   1.227   6.278 -0.2369 -0.2117 -0.6992
  295MOL0     C39704  10.102   1.154   6.263 -0.5258  0.1169 -0.2010
  295MOL0     C39705  10.144   1.078   6.386  0.0313 -0.7856 -0.1949
  295MOL0     C39706  10.256   1.146   6.472 -0.8628 -0.0135  0.9124
  295MOL0     N39707  10.233   1.275   6.536  0.0632 -0.0837  0.8796
  295MOL0     C39708  10.148   1.310   6.635 -0.2702  0.5693 -0.3749
  295MOL0     C39709  10.176   1.439   6.669 -0.6189  0.1980  0.4431
  295MOL0     C39710  10.092   1.525   6.763 -0.3206  0.2042 -0.4425
  295MOL0     C39711  10.173   1.639   6.829 -0.0846 -0.1509 -0.0184
  295MOL0     C39712  10.277   1.588   6.935  0.2798 -0.5046  0.5593
  295MOL0     C39713  10.340   1.694   7.026 -0.0100  0.2665  0.4299
  295MOL0     O39714  10.418   1.784   6.952 -0.2766  0.2846 -0.2377
  295MOL0     C39715  10.492   1.883   7.006 -0.4581 -0.2133 -0.3906
  295MOL0     C39716  10.541   1.903   7.143  0.4400 -0.3233 -0.8578
  295MOL0     C39717  10.598   2.023   7.196  0.3875 -0.4074 -0.4190
  295MOL0     C39718  10.607   2.137   7.112  0.9182 -0.2718  0.2535
  295MOL0     C39719  10.668   2.264   7.147  0.1991  0.2676  0.4975
  295MOL0     O39720  10.758   2.278   7.250  0.7072 -0.4352  0.5850
  295MOL0     C39721  10.805   2.411   7.259 -0.5168  0.8550 -0.6462
  295MOL0     C39722  10.735   2.521   7.313 -0.8178  0.5964 -0.4119
  295MOL0     C39723  10.792   2.645   7.338  0.3637 -0.3167  0.3775
  295MOL0     C39724  10.930   2.668   7.312  0.7096 -0.5202  0.1203
  295MOL0     O39725  10.991   2.778   7.361 -0.0511 -0.5744 -0.7408
  295MOL0     C39726  11.003   2.881   7.264 -0.5438 -0.1747  0.2909
  295MOL0     C39727  11.085   2.990   7.327 -0.4237 -0.5290  0.6495
  295MOL0     C39728  11.234   2.953   7.343  0.3376 -0.7935  0.6613
  295MOL0     C39729  11.313   3.081   7.390 -0.0735 -0.2578  0.5481
  295MOL0     C39730  11.462   3.045   7.406 -0.0667 -0.2958 -0.2021
  295MOL0     C39731  11.519   3.166   7.485 -0.5628  0.0487  0.5638
  295MOL0     C39732  11.662   3.149   7.536 -0.3641  0.1664  0.1705
  295MOL0     C39733  11.717   3.266   7.623  0.2633 -0.4075 -0.0275
  295MOL0    Cl39734  11.874   3.234   7.709 -0.4365  0.5700 -0.1598
  295MOL0     C39735  11.003   2.559   7.266 -0.4237  0.5617  0.3281
  295MOL0     C39736  10.940   2.433   7.235  0.1494  0.9850 -0.5205
  295MOL0     O39737  10.634   2.357   7.077  0.0811 -0.0699 -0.3424
  295MOL0     C39738  10.563   2.119   6.978 -1.0464 -0.2518  0.8545
  295MOL0     C39739  10.511   2.002   6.927  0.1120  0.1154  0.7741
  295MOL0     N39740  10.281   1.474   6.586  0.1083 -0.0595 -0.5404
  295MOL0     N39741  10.327   1.374   6.522  0.2856 -0.0047 -0.3657
  295MOL0     C39742   9.265   0.906   6.016  0.2103 -0.4762 -0.7993
  295MOL0     C39743   9.126   0.921   6.032  0.6376 -0.1906  0.0844
  295MOL0     C39744   8.711   1.139   6.039  0.4777  0.2264 -0.1362
  295MOL0     C39745   8.641   1.251   5.995  1.1613  0.1417  0.5218
  295MOL0     C39746   8.503   1.266   6.009 -0.0549  0.7075  0.5587
  295MOL0     C39747   8.430   1.164   6.065  0.4372 -0.3880  0.0131
  295MOL0     O39748   8.291   1.166   6.101 -0.5628  0.3252  0.8035
  295MOL0     C39749   8.227   1.292   6.102 -0.1792  0.9821  0.1773
  295MOL0     C39750   8.112   1.275   6.202 -0.9076 -0.1102  0.2862
  295MOL0     C39751   8.016   1.167   6.173  0.5115  0.5883 -0.3987
  295MOL0     C39752   7.909   1.136   6.284 -0.3269  0.2456 -0.6197
  295MOL0     C39753   7.827   1.022   6.244 -0.3581  0.4469  0.9063
  295MOL0     C39754   7.750   0.939   6.203  0.4215 -0.6319 -0.0445
  295MOL0     C39755   8.493   1.045   6.090  0.6687 -0.0349  0.1279
  295MOL0     C39756   8.629   1.032   6.082 -0.6894 -0.0795 -0.0543
  295MOL0     C39757   8.693   0.896   6.115 -0.2043  0.9944 -0.3483
  295MOL0     H39758   9.128   1.248   6.117 -1.4044  0.2146 -0.1695
  295MOL0     H39759   9.361   1.214   6.127  0.2517 -0.8221  0.2620
  295MOL0     H39760   9.680   1.055   6.021  0.0642  2.7954 -0.7029
  295MOL0     H39761   9.560   1.181   6.020 -4.2547 -0.0109  1.1121
  295MOL0     H39762   9.627   1.020   6.261 -3.4667 -0.8243 -0.5120
  295MOL0     H39763   9.528   1.166   6.260  0.8951  1.5814 -1.1364
  295MOL0     H39764   9.709   1.252   6.337 -0.5747  1.7655 -0.4776
  295MOL0     H39765   9.729   1.289   6.159  1.5580  0.2609  0.1069
  295MOL0     H39766   9.837   1.064   6.331 -0.2587 -4.1365 -3.1276
  295MOL0     H39767   9.875   1.075   6.159  0.9645  1.1546  0.5644
  295MOL0     H39768   9.971   1.307   6.204 -1.7100  1.1911  0.6745
  295MOL0     H39769   9.964   1.277   6.376 -2.9128  0.6347 -1.1555
  295MOL0     H39770  10.109   1.092   6.174  1.6012  1.8924 -1.3816
  295MOL0     H39771  10.173   1.233   6.238 -1.2135  0.3255 -1.5519
  295MOL0     H39772  10.187   0.984   6.350  2.3845  0.1620 -0.0460
  295MOL0     H39773  10.052   1.063   6.444 -0.6739  0.8900 -0.8391
  295MOL0     H39774  10.267   1.081   6.560 -0.5242 -0.3017  0.6656
  295MOL0     H39775  10.347   1.157   6.412  0.1121  1.6512  2.5862
  295MOL0     H39776  10.067   1.260   6.686  0.2664  1.2676  1.2465
  295MOL0     H39777  10.012   1.567   6.700 -0.3953  3.1829  1.4208
  295MOL0     H39778  10.037   1.472   6.841  0.9018 -1.0381 -0.4108
  295MOL0     H39779  10.222   1.695   6.749 -0.8802 -1.5086 -1.5073
  295MOL0     H39780  10.102   1.710   6.873 -0.3125  0.0487 -0.6980
  295MOL0     H39781  10.352   1.539   6.873 -1.0640 -2.2500  0.2444
  295MOL0     H39782  10.246   1.499   6.991  1.6541  0.1999  2.5874
  295MOL0     H39783  10.392   1.639   7.106 -1.7196 -3.4088 -0.7620
  295MOL0     H39784  10.257   1.754   7.065 -0.6735  0.5219 -1.2870
  295MOL0     H39785  10.529   1.818   7.210  1.1484 -0.8837 -1.4318
  295MOL0     H39786  10.624   2.032   7.301 -1.4169  0.2961  0.0062
  295MOL0     H39787  10.630   2.496   7.323 -0.5938  0.1596  0.9679
  295MOL0     H39788  10.728   2.727   7.368 -1.5720 -1.6720  0.1793
  295MOL0     H39789  11.037   2.844   7.167 -1.2575  0.1042 -0.0740
  295MOL0     H39790  10.906   2.931   7.257  1.2095  3.6190  0.1343
  295MOL0     H39791  11.090   3.085   7.272  0.4060  0.4773  2.3666
  295MOL0     H39792  11.032   3.018   7.418 -4.1357  0.0261 -1.4869
  295MOL0     H39793  11.242   2.870   7.413  2.8056 -1.0180  0.1940
  295MOL0     H39794  11.269   2.935   7.241 -3.0643  2.3801 -1.3391
  295MOL0     H39795  11.267   3.122   7.480  0.3021 -1.5967  1.3892
  295MOL0     H39796  11.303   3.165   7.321  0.1366  0.1939  1.0564
  295MOL0     H39797  11.516   3.032   7.312  0.5247  0.0821  0.0817
  295MOL0     H39798  11.474   2.948   7.455 -0.0064  0.1962  0.7824
  295MOL0     H39799  11.501   3.263   7.440  0.8466  0.7640  1.4580
  295MOL0     H39800  11.462   3.161   7.578  0.8277  1.9911  1.5774
  295MOL0     H39801  11.728   3.126   7.452  0.1766  0.5832  0.4723
  295MOL0     H39802  11.651   3.061   7.600 -3.4453 -0.1041 -0.5934
  295MOL0     H39803  11.716   3.359   7.565  1.6422 -0.4724 -0.1882
  295MOL0     H39804  11.647   3.281   7.705  0.7005  1.5686  0.0362
  295MOL0     H39805  11.111   2.550   7.262 -0.5249 -0.4247 -2.2142
  295MOL0     H39806  11.001   2.347   7.211  0.9098  2.0907 -2.7705
  295MOL0     H39807  10.562   2.197   6.902  0.1406  1.0332  2.0895
  295MOL0     H39808  10.488   1.991   6.822  0.4720  1.0398  0.5906
  295MOL0     H39809   9.303   0.807   5.996  0.7124 -0.0168 -2.1814
  295MOL0     H39810   9.060   0.838   6.012 -1.0013  0.4653  2.3207
  295MOL0     H39811   8.691   1.341   5.960 -1.1647  1.2721 -0.1126
  295MOL0     H39812   8.458   1.360   5.979  1.7986  1.2072 -0.8560
  295MOL0     H39813   8.192   1.315   6.001  0.3684  1.7329  0.1408
  295MOL0     H39814   8.288   1.382   6.117 -0.0866  1.0581 -0.5835
  295MOL0     H39815   8.060   1.371   6.195 -0.5975  0.0211 -0.2248
  295MOL0     H39816   8.145   1.250   6.303 -2.4012 -1.4173  0.5049
  295MOL0     H39817   8.084   1.081   6.171 -0.3533 -0.1108 -2.2635
  295MOL0     H39818   7.975   1.198   6.077 -1.6262  0.8993  0.5567
  295MOL0     H39819   7.965   1.118   6.376  0.5862 -0.6762 -1.3320
  295MOL0     H39820   7.853   1.225   6.313  1.6403  1.3506  0.0378
  295MOL0     H39821   7.685   0.856   6.180  1.8397 -1.9741  0.6021
  295MOL0     H39822   8.438   0.960   6.129  0.3212 -0.2525 -0.8178
  295MOL0     H39823   8.614   0.821   6.106 -2.4755  3.1429  0.5993
  295MOL0     H39824   8.762   0.869   6.035 -0.6007  0.5895 -0.5584
  295MOL0     H39825   8.736   0.892   6.215 -0.5911  0.0172 -0.1999
  296MOL0     O39826   5.591   8.456   1.183  0.1138  0.5827 -0.0358
  296MOL0     C39827   5.514   8.394   1.107 -0.4810  0.3556 -0.9988
  296MOL0     O39828   5.539   8.268   1.046  0.3629  0.2089 -0.0647
  296MOL0     C39829   5.654   8.201   1.061  0.0417 -1.0593 -0.4466
  296MOL0     C39830   5.782   8.253   1.101 -0.0482 -0.5114  0.6844
  296MOL0     C39831   5.890   8.168   1.106 -0.2855  0.7265 -0.1058
  296MOL0     C39832   5.873   8.035   1.098 -0.6088  0.4357 -0.2859
  296MOL0     O39833   5.984   7.951   1.105 -0.5022  0.1428 -0.2285
  296MOL0     C39834   6.000   7.860   0.990  0.5029 -0.3191 -0.9388
  296MOL0     C39835   6.152   7.814   0.970  0.2079 -0.2226 -0.1825
  296MOL0     C39836   6.221   7.771   1.107  0.4564  0.1388 -0.2061
  296MOL0     C39837   6.370   7.738   1.082 -0.7604  0.0978  0.3230
  296MOL0     C39838   6.430   7.664   1.200  0.0922 -0.0539 -0.9343
  296MOL0     C39839   6.586   7.647   1.197  0.4835 -1.2445 -0.3431
  296MOL0     C39840   6.660   7.779   1.195 -0.6412 -0.5090 -0.5774
  296MOL0     C39841   6.807   7.773   1.245  0.0836  0.6482  0.6471
  296MOL0     N39842   6.889   7.891   1.209  0.0732  0.4270 -0.7759
  296MOL0     C39843   7.008   7.886   1.145  0.0202 -0.5439 -0.1110
  296MOL0     C39844   7.042   8.015   1.124  0.7197 -0.2500 -0.0068
  296MOL0     C39845   7.153   8.060   1.047  0.1154 -0.2470  0.6968
  296MOL0     C39846   7.131   8.063   0.888 -0.4913  0.3914 -0.4688
  296MOL0     C39847   7.253   8.093   0.796 -0.0750 -0.8149 -0.1383
  296MOL0     C39848   7.358   8.190   0.853  0.5491 -0.2035  0.6865
  296MOL0     O39849   7.489   8.194   0.784  0.5500 -0.7689 -0.3597
  296MOL0     C39850   7.574   8.288   0.835  0.8770 -0.1897 -0.0508
  296MOL0     C39851   7.549   8.380   0.942 -0.7344  0.5219 -0.0660
  296MOL0     C39852   7.648   8.473   0.989 -0.7706  0.1082  0.3822
  296MOL0     C39853   7.775   8.480   0.930  0.2060  0.5645 -0.9384
  296MOL0     C39854   7.871   8.579   0.975  0.2775  0.0433 -0.2452
  296MOL0     O39855   7.995   8.560   0.937 -0.6055  0.8297  0.0778
  296MOL0     C39856   8.097   8.638   0.991  0.5464 -0.7240 -0.0382
  296MOL0     C39857   8.102   8.772   0.949 -0.0863  0.4327 -0.0399
  296MOL0     C39858   8.206   8.852   0.993 -0.2151 -0.9922  0.4930
  296MOL0     C39859   8.322   8.801   1.056 -0.3603  1.0167  0.3762
  296MOL0     O39860   8.411   8.882   1.114 -1.0800 -0.7067  0.0555
  296MOL0     C39861   8.546   8.840   1.074  0.4011  0.1964  0.2549
  296MOL0     C39862   8.640   8.955   1.106  0.4011  0.2362 -0.5365
  296MOL0     C39863   8.787   8.923   1.072  0.9678  0.2271 -0.7665
  296MOL0     C39864   8.837   8.970   0.930  0.4846  0.8404 -0.0238
  296MOL0     C39865   8.993   8.969   0.923  0.5110  0.0280 -0.4046
  296MOL0     C39866   9.042   9.026   0.790 -0.4504 -0.6156 -0.0222
  296MOL0     C39867   9.178   9.105   0.795 -0.4177  0.2193  0.2500
  296MOL0     C39868   9.295   9.020   0.865 -0.1442  0.8707  0.4309
  296MOL0    Cl39869   9.455   9.103   0.834  0.1667  0.5072  0.1002
  296MOL0     C39870   8.320   8.657   1.093  0.5555 -0.6934 -0.3305
  296MOL0     C39871   8.204   8.581   1.063  1.1713 -0.6142 -0.0523
  296MOL0     O39872   7.822   8.667   1.044  0.2816 -0.6336  0.2054
  296MOL0     C39873   7.804   8.388   0.831  0.2539  0.4080 -0.1676
  296MOL0     C39874   7.711   8.295   0.789  0.0809  0.4105  0.2789
  296MOL0     N39875   6.941   8.099   1.172 -0.9077  0.6900  0.7418
  296MOL0     N39876   6.847   8.021   1.219  0.0471 -0.2760  0.4338
  296MOL0     C39877   5.755   7.982   1.071 -0.3402 -0.3893 -0.3959
  296MOL0     C39878   5.645   8.067   1.038 -0.3674  0.0461 -1.0547
  296MOL0     C39879   5.382   8.460   1.102  0.1999 -0.2182  0.4584
  296MOL0     C39880   5.271   8.377   1.087 -0.1169 -0.7375 -0.9578
  296MOL0     C39881   5.145   8.433   1.096  0.4870 -0.4106  0.1295
  296MOL0     C39882   5.121   8.576   1.109  0.9065  0.3790 -0.1708
  296MOL0     O39883   5.004   8.638   1.130 -0.3611  0.2853 -0.1175
  296MOL0     C39884   4.890   8.552   1.145  0.0017 -0.9197 -0.7276
  296MOL0     C39885   4.766   8.633   1.142  0.3217 -0.1725 -0.1035
  296MOL0     C39886   4.645   8.558   1.207  0.2058 -0.2804  0.1953
  296MOL0     C39887   4.517   8.643   1.194 -0.1225  0.7644 -0.2110
  296MOL0     C39888   4.502   8.723   1.317 -0.0513 -0.1795  0.5492
  296MOL0     C39889   4.472   8.772   1.422 -0.2999 -0.4302  0.2362
  296MOL0     C39890   5.234   8.651   1.124 -0.2827  0.5475  0.0429
  296MOL0     C39891   5.363   8.605   1.124 -0.5630 -0.1462 -0.6775
  296MOL0     C39892   5.474   8.701   1.140  0.0479  0.5275 -1.0956
  296MOL0     H39893   5.800   8.360   1.106 -3.0173  0.1359 -0.3293
  296MOL0     H39894   5.993   8.199   1.122 -0.5286  2.8283 -2.0482
  296MOL0     H39895   5.934   7.773   1.000  3.1411 -2.2147  2.2400
  296MOL0     H39896   5.979   7.906   0.893  0.0584 -1.7740 -1.5628
  296MOL0     H39897   6.209   7.892   0.918  0.8454  0.3163  1.2803
  296MOL0     H39898   6.148   7.732   0.897 -3.0762  0.5737 -1.0439
  296MOL0     H39899   6.159   7.690   1.148 -1.3202  0.7428 -1.5573
  296MOL0     H39900   6.212   7.859   1.172  4.3736 -0.5188  1.5389
  296MOL0     H39901   6.377   7.670   0.996 -0.2834 -1.4601  1.5582
  296MOL0     H39902   6.432   7.828   1.072  2.0750 -1.6329  1.2208
  296MOL0     H39903   6.396   7.708   1.294 -0.6973 -0.5985 -0.9613
  296MOL0     H39904   6.380   7.568   1.208 -0.3104  0.2296  0.0569
  296MOL0     H39905   6.612   7.596   1.291  1.8206 -1.2680 -0.6938
  296MOL0     H39906   6.612   7.584   1.111  0.1222 -0.1585 -1.2667
  296MOL0     H39907   6.611   7.855   1.257  3.3371  0.3981  1.8671
  296MOL0     H39908   6.677   7.812   1.093  1.1977 -2.6449 -1.0370
  296MOL0     H39909   6.827   7.756   1.351 -0.2571 -1.8595  0.3631
  296MOL0     H39910   6.846   7.687   1.190  1.3301  2.4064 -1.4210
  296MOL0     H39911   7.056   7.795   1.109  1.9309  0.0680  0.7311
  296MOL0     H39912   7.165   8.166   1.071  2.0423 -0.0339 -0.9709
  296MOL0     H39913   7.244   8.014   1.085  1.4213  2.2209  0.7383
  296MOL0     H39914   7.096   7.963   0.860 -1.2968  0.7812 -0.8872
  296MOL0     H39915   7.052   8.138   0.879  2.4306  4.2653  2.4033
  296MOL0     H39916   7.213   8.122   0.699  2.0562  2.5836 -0.1853
  296MOL0     H39917   7.301   7.996   0.778  0.5446 -0.0816 -2.8955
  296MOL0     H39918   7.379   8.149   0.952 -1.4985 -1.1175  0.7886
  296MOL0     H39919   7.311   8.289   0.852 -1.1657 -0.9769 -0.8040
  296MOL0     H39920   7.455   8.368   0.994 -0.5935  0.2061  0.1164
  296MOL0     H39921   7.620   8.549   1.061  0.3776  0.6284  0.3062
  296MOL0     H39922   8.031   8.824   0.887  0.2907  0.0372 -0.8160
  296MOL0     H39923   8.191   8.959   0.988  1.4635 -0.7874 -2.5410
  296MOL0     H39924   8.577   8.750   1.128  0.0040 -0.2498 -0.2468
  296MOL0     H39925   8.547   8.820   0.966  0.2691 -0.5702  0.3937
  296MOL0     H39926   8.602   9.050   1.066 -0.8720  0.8970  2.0048
  296MOL0     H39927   8.638   8.970   1.214 -1.5301  3.6874 -0.8923
  296MOL0     H39928   8.842   8.970   1.155 -0.4130 -0.6769  0.7152
  296MOL0     H39929   8.793   8.814   1.074 -0.2191  0.1560 -0.1555
  296MOL0     H39930   8.808   9.076   0.926  1.2348  1.1180  1.2421
  296MOL0     H39931   8.805   8.905   0.848  1.4062  0.7173 -0.2987
  296MOL0     H39932   9.032   8.870   0.949 -0.3751 -0.0357  0.7970
  296MOL0     H39933   9.025   9.037   1.003 -1.5496  1.2903 -0.5678
  296MOL0     H39934   9.049   8.943   0.719 -0.7312  0.1976 -1.0097
  296MOL0     H39935   8.965   9.091   0.747  1.0598  0.8489 -0.5840
  296MOL0     H39936   9.158   9.192   0.857 -1.4932 -2.2334  3.5920
  296MOL0     H39937   9.224   9.127   0.697 -1.8572  0.8391 -0.3081
  296MOL0     H39938   9.277   9.010   0.972 -0.9887 -2.7598  0.0781
  296MOL0     H39939   9.299   8.920   0.822  1.9608  2.2017 -2.9151
  296MOL0     H39940   8.392   8.627   1.168  1.5846  2.5713  0.1248
  296MOL0     H39941   8.209   8.475   1.085 -1.6703 -1.0463 -0.9874
  296MOL0     H39942   7.896   8.375   0.775 -0.4567 -0.9539 -1.0832
  296MOL0     H39943   7.752   8.225   0.717 -2.9435 -2.1876  0.8610
  296MOL0     H39944   5.755   7.877   1.042 -0.6609 -0.5386  0.1289
  296MOL0     H39945   5.551   8.026   1.002  0.0037  0.4632 -2.6081
  296MOL0     H39946   5.279   8.270   1.077 -2.0064 -0.9853 -0.2342
  296MOL0     H39947   5.061   8.365   1.083 -0.0154  0.0024  1.0600
  296MOL0     H39948   4.902   8.498   1.240 -1.2493 -0.3639 -0.2362
  296MOL0     H39949   4.878   8.480   1.064 -3.2083  0.9082 -2.0319
  296MOL0     H39950   4.750   8.656   1.036  0.7564  1.5277  0.1676
  296MOL0     H39951   4.779   8.724   1.200 -0.3219 -0.4798  0.5405
  296MOL0     H39952   4.663   8.533   1.312 -1.3769  0.2174  0.6129
  296MOL0     H39953   4.625   8.460   1.161  1.6122 -0.3686 -0.2816
  296MOL0     H39954   4.539   8.708   1.109  3.2585  1.0394  0.7202
  296MOL0     H39955   4.431   8.581   1.167  2.2219 -1.9250 -2.2249
  296MOL0     H39956   4.449   8.810   1.520 -1.6716  0.6900 -0.4962
  296MOL0     H39957   5.221   8.759   1.135  0.4910  0.5765  0.8190
  296MOL0     H39958   5.432   8.797   1.109 -1.2848  0.0142 -0.9536
  296MOL0     H39959   5.516   8.711   1.240 -1.4463  4.0317 -0.6627
  296MOL0     H39960   5.540   8.692   1.053 -1.4568  1.7147 -2.4380
  297MOL0     O39961  10.981   5.980   8.925  0.3706  0.3944 -0.1589
  297MOL0     C39962  10.971   5.994   9.050 -0.0334 -0.4981  0.7262
  297MOL0     O39963  11.067   5.976   9.136 -0.3615 -0.5006  0.3129
  297MOL0     C39964  11.196   5.954   9.099 -0.0991  0.0597  0.3719
  297MOL0     C39965  11.242   5.821   9.087  0.5342 -0.5731 -0.4246
  297MOL0     C39966  11.369   5.796   9.028  0.0164  0.2783 -0.4721
  297MOL0     C39967  11.443   5.895   8.970 -0.4858  0.3435  0.8019
  297MOL0     O39968  11.565   5.865   8.919  0.6875  0.2190  0.2138
  297MOL0     C39969  11.674   5.903   9.003 -0.4483 -0.5154 -0.5907
  297MOL0     C39970  11.810   5.869   8.937 -0.9249 -0.9452  0.2306
  297MOL0     C39971  11.819   5.735   8.867  0.8152 -0.5806 -0.7909
  297MOL0     C39972  11.963   5.688   8.851  0.4269 -0.0718  0.5938
  297MOL0     C39973  12.045   5.796   8.769  0.4137 -0.2369 -0.5915
  297MOL0     C39974  12.192   5.752   8.746  0.8102  0.1445 -0.5177
  297MOL0     C39975  12.280   5.862   8.687 -0.9292  0.1205  0.1345
  297MOL0     C39976  12.432   5.822   8.690  0.0653 -0.3804 -0.2653
  297MOL0     N39977  12.518   5.929   8.655  0.0113  0.4655  0.9691
  297MOL0     C39978  12.509   5.988   8.528 -0.1861 -0.2345  0.0777
  297MOL0     C39979  12.600   6.087   8.517 -0.4613  0.3399 -0.1417
  297MOL0     C39980  12.601   6.190   8.405 -0.5679 -0.6782  0.1886
  297MOL0     C39981  12.509   6.302   8.433 -0.0948  0.0805  0.1036
  297MOL0     C39982  12.367   6.297   8.372  0.4964 -0.3766 -0.0326
  297MOL0     C39983  12.269   6.189   8.419 -0.5809 -0.8787  0.1452
  297MOL0     O39984  12.133   6.205   8.364 -0.3455  0.0969 -0.2846
  297MOL0     C39985  12.020   6.203   8.439  0.1403  0.7188  0.3851
  297MOL0     C39986  12.012   6.187   8.578 -0.3622 -0.2464 -0.3905
  297MOL0     C39987  11.891   6.181   8.645  0.2871 -0.1659 -0.8447
  297MOL0     C39988  11.768   6.185   8.580  0.1469 -0.4828 -0.2813
  297MOL0     C39989  11.639   6.194   8.644 -0.0821 -0.2997  0.1039
  297MOL0     O39990  11.531   6.222   8.567  0.3263  0.1885 -0.0568
  297MOL0     C39991  11.411   6.252   8.643 -0.5472  1.6229  0.1875
  297MOL0     C39992  11.408   6.348   8.741 -0.0648  0.0257 -0.1009
  297MOL0     C39993  11.292   6.376   8.817 -0.0278  1.0832 -0.4607
  297MOL0     C39994  11.175   6.306   8.787 -0.1899 -0.3087  0.0570
  297MOL0     O39995  11.064   6.344   8.856 -0.0135 -0.5441 -0.2998
  297MOL0     C39996  10.931   6.300   8.821  0.7002 -0.3745 -0.7484
  297MOL0     C39997  10.832   6.376   8.914  0.4344  0.2010 -0.2402
  297MOL0     C39998  10.691   6.336   8.883  0.6678 -0.0876  0.6100
  297MOL0     C39999  10.593   6.399   8.980 -0.0976  0.4346  0.2668
  297MOL0     C40000  10.552   6.545   8.946 -0.0742  0.5662  0.8444
  297MOL0     C40001  10.460   6.595   9.051 -0.0088 -0.2119 -1.0472
  297MOL0     C40002  10.408   6.731   9.025  0.2425 -0.0578 -0.8695
  297MOL0     C40003  10.290   6.786   9.127 -0.1410  0.7987 -0.5453
  297MOL0    Cl40004  10.136   6.699   9.106  0.0013  0.1322  0.4605
  297MOL0     C40005  11.179   6.196   8.695 -0.0419  0.6512  0.0183
  297MOL0     C40006  11.294   6.177   8.621  0.1117 -0.3904 -0.0563
  297MOL0     O40007  11.635   6.186   8.763  0.1774  0.1880  0.4264
  297MOL0     C40008  11.777   6.204   8.441 -0.6485  0.3805 -0.3683
  297MOL0     C40009  11.898   6.212   8.372  0.0701  0.3602 -0.5179
  297MOL0     N40010  12.672   6.078   8.635  0.2331  0.5507  0.4835
  297MOL0     N40011  12.626   5.987   8.713  0.5614 -0.4256 -0.5974
  297MOL0     C40012  11.401   6.025   8.972  0.2497  0.1199  0.0257
  297MOL0     C40013  11.275   6.056   9.028  0.2338 -0.6719 -0.9757
  297MOL0     C40014  10.836   6.031   9.106  0.4919  0.3181  0.4230
  297MOL0     C40015  10.834   6.135   9.198  1.5050 -0.2364  0.1996
  297MOL0     C40016  10.719   6.191   9.246 -0.3689 -0.1859  0.3943
  297MOL0     C40017  10.598   6.128   9.217  0.3808  0.4365  0.2430
  297MOL0     O40018  10.488   6.185   9.289 -0.0724  0.2828  0.0620
  297MOL0     C40019  10.361   6.126   9.264 -0.0547  0.1232  0.3349
  297MOL0     C40020  10.311   6.183   9.128  0.3614 -0.1924  0.4376
  297MOL0     C40021  10.168   6.141   9.079 -0.5415 -0.4347  0.2826
  297MOL0     C40022  10.132   5.990   9.106 -0.6043  0.0403 -0.0875
  297MOL0     C40023  10.227   5.901   9.041 -0.1851  0.5789 -0.3039
  297MOL0     C40024  10.297   5.827   8.973 -0.4628 -0.1406 -0.1166
  297MOL0     C40025  10.596   6.027   9.122  0.7360 -0.3620 -0.7482
  297MOL0     C40026  10.711   5.981   9.069  1.2758 -0.0519 -0.3853
  297MOL0     C40027  10.692   5.875   8.964  0.8123 -0.3526  0.0999
  297MOL0     H40028  11.189   5.740   9.136 -1.2119  1.6791  1.6713
  297MOL0     H40029  11.411   5.697   9.022  2.7488  1.2902  0.4412
  297MOL0     H40030  11.686   6.010   9.024  3.2612 -0.4393 -2.2024
  297MOL0     H40031  11.661   5.846   9.095 -0.2587 -0.5844 -0.6051
  297MOL0     H40032  11.878   5.872   9.022  0.1879 -0.7757 -0.6376
  297MOL0     H40033  11.840   5.944   8.862  0.0351 -2.2958 -0.7774
  297MOL0     H40034  11.768   5.735   8.770 -0.0976  2.3453 -0.4145
  297MOL0     H40035  11.761   5.665   8.927 -1.0654  2.6323  1.4407
  297MOL0     H40036  12.009   5.675   8.950  0.9954  1.3776  0.5442
  297MOL0     H40037  11.955   5.592   8.800  2.6419  1.1180 -2.2425
  297MOL0     H40038  11.996   5.831   8.678  0.3661 -2.2746 -1.3927
  297MOL0     H40039  12.059   5.891   8.821  1.2323 -0.1271 -1.0058
  297MOL0     H40040  12.229   5.712   8.840 -0.4783 -1.3713 -0.6123
  297MOL0     H40041  12.194   5.664   8.682  3.6658  1.4001 -2.3682
  297MOL0     H40042  12.269   5.954   8.745 -0.3403  0.0535  0.3561
  297MOL0     H40043  12.250   5.883   8.584 -0.4808 -0.4379 -0.1176
  297MOL0     H40044  12.457   5.787   8.790  2.1568  1.6828  0.0504
  297MOL0     H40045  12.444   5.739   8.620  1.8485 -1.5230  1.3134
  297MOL0     H40046  12.445   5.961   8.445  1.7365 -0.3589 -1.4380
  297MOL0     H40047  12.702   6.233   8.409 -0.7077 -0.3415  0.0612
  297MOL0     H40048  12.572   6.151   8.307 -0.9268  1.9476 -0.8156
  297MOL0     H40049  12.495   6.313   8.541 -2.5689  0.0276 -0.1442
  297MOL0     H40050  12.563   6.390   8.398  0.3118 -0.0457  0.3984
  297MOL0     H40051  12.380   6.271   8.266  2.7969  0.1975  0.0623
  297MOL0     H40052  12.327   6.399   8.373 -1.6903 -1.1304  2.6014
  297MOL0     H40053  12.276   6.195   8.528  0.1243 -2.8442  0.2551
  297MOL0     H40054  12.304   6.088   8.397 -0.8604 -0.8374 -0.5184
  297MOL0     H40055  12.089   6.183   8.655 -1.8516 -1.7315  1.1088
  297MOL0     H40056  11.903   6.181   8.753 -0.0810  3.2542 -0.7198
  297MOL0     H40057  11.503   6.390   8.774 -0.4522 -1.2159  2.8564
  297MOL0     H40058  11.288   6.455   8.891 -2.4441 -0.7170  1.4808
  297MOL0     H40059  10.919   6.317   8.714 -0.1696  0.9109 -0.4688
  297MOL0     H40060  10.919   6.193   8.843 -0.3726  0.0530  0.9397
  297MOL0     H40061  10.850   6.354   9.020 -1.9900 -0.5352  0.0734
  297MOL0     H40062  10.844   6.485   8.905 -1.6089  0.5319  0.5515
  297MOL0     H40063  10.671   6.356   8.778 -1.1757  3.4737  1.4798
  297MOL0     H40064  10.692   6.227   8.879  2.1602 -0.1086  0.9755
  297MOL0     H40065  10.638   6.412   9.079  0.4484  2.1679 -0.1865
  297MOL0     H40066  10.498   6.344   8.983 -0.8576  1.6255 -0.9854
  297MOL0     H40067  10.502   6.546   8.849 -0.5671 -1.6739  1.0140
  297MOL0     H40068  10.638   6.611   8.934 -1.1903  1.8519 -0.4079
  297MOL0     H40069  10.375   6.526   9.051  1.5967 -2.2787 -1.0216
  297MOL0     H40070  10.513   6.595   9.147  0.3014  0.9307 -1.2126
  297MOL0     H40071  10.381   6.740   8.920 -0.2963 -1.6996 -0.8975
  297MOL0     H40072  10.498   6.791   9.045  0.4278 -0.7902  0.6327
  297MOL0     H40073  10.327   6.772   9.229  0.5101  3.0215 -0.4455
  297MOL0     H40074  10.268   6.892   9.115  0.9169  1.2025  0.8577
  297MOL0     H40075  11.087   6.141   8.674 -0.5180  0.3142  2.6310
  297MOL0     H40076  11.288   6.105   8.540  0.4634 -0.4476 -0.0326
  297MOL0     H40077  11.686   6.205   8.381 -1.1490  0.6086  0.3831
  297MOL0     H40078  11.910   6.203   8.265  0.9817  1.6619 -0.5585
  297MOL0     H40079  11.464   6.096   8.920  0.3167  0.4928  0.6032
  297MOL0     H40080  11.238   6.157   9.036 -2.2000 -1.5503 -0.3472
  297MOL0     H40081  10.925   6.184   9.232  0.4769  1.5482  0.5202
  297MOL0     H40082  10.719   6.280   9.307  0.3780  0.4014 -0.4302
  297MOL0     H40083  10.286   6.166   9.333 -0.4426  0.6421 -0.3733
  297MOL0     H40084  10.366   6.017   9.264 -0.7149  0.0743  1.4205
  297MOL0     H40085  10.385   6.159   9.051  0.2726 -1.0296  0.6023
  297MOL0     H40086  10.316   6.291   9.144  2.8702 -0.3451  1.0427
  297MOL0     H40087  10.164   6.174   8.974  0.1946 -0.9473  0.0835
  297MOL0     H40088  10.085   6.195   9.126  0.3190  2.9839 -1.7435
  297MOL0     H40089  10.131   5.969   9.213  1.3750 -1.3299 -0.2709
  297MOL0     H40090  10.032   5.977   9.065 -1.3051 -0.8425  1.7977
  297MOL0     H40091  10.371   5.765   8.926  1.6963  2.5443 -0.4769
  297MOL0     H40092  10.501   5.979   9.098 -0.1679  0.4347  1.0283
  297MOL0     H40093  10.728   5.917   8.870 -2.1426  5.5346  1.1225
  297MOL0     H40094  10.764   5.795   8.979  1.6704  0.1620 -1.0550
  297MOL0     H40095  10.591   5.833   8.962  0.7744 -0.2645 -1.3820
  298MOL0     O40096   0.439   1.127   3.969 -0.2469 -0.0727  0.3786
  298MOL0     C40097   0.360   1.221   3.976  0.0466 -0.0205  0.8511
  298MOL0     O40098   0.233   1.215   4.012  0.2554  0.4471  0.1448
  298MOL0     C40099   0.191   1.103   4.073 -0.2422  0.4833  1.3417
  298MOL0     C40100   0.233   1.059   4.203  0.3276  0.0143  0.3801
  298MOL0     C40101   0.179   0.952   4.268 -0.5034 -0.2900 -1.3779
  298MOL0     C40102   0.095   0.869   4.201  0.2262  0.0146 -0.4303
  298MOL0     O40103   0.053   0.763   4.273  0.7007  0.2467 -0.3994
  298MOL0     C40104  -0.010   0.650   4.207  0.1405 -0.1720 -0.0007
  298MOL0     C40105  -0.036   0.545   4.314  0.3517  0.0306  0.5491
  298MOL0     C40106   0.090   0.476   4.355  0.5017 -0.2896 -0.2142
  298MOL0     C40107   0.069   0.351   4.440 -1.1547  0.4545  0.2658
  298MOL0     C40108   0.207   0.283   4.464 -0.0862 -0.1977  0.5774
  298MOL0     C40109   0.214   0.150   4.532 -0.3142 -0.0521  0.0859
  298MOL0     C40110   0.362   0.114   4.557  0.6645 -0.0233 -0.3189
  298MOL0     C40111   0.382  -0.021   4.628  0.0037 -0.1505  0.6343
  298MOL0     N40112   0.329  -0.020   4.765  0.5093  0.8993 -0.4282
  298MOL0     C40113   0.381   0.060   4.867  1.0094  0.5560  0.8259
  298MOL0     C40114   0.340  -0.001   4.975  0.1524 -0.4630 -0.3167
  298MOL0     C40115   0.379   0.050   5.118  0.1239  1.0379  0.1827
  298MOL0     C40116   0.506  -0.003   5.175 -0.5751 -0.5987  0.1047
  298MOL0     C40117   0.620   0.030   5.082 -0.6366 -1.1011 -0.1334
  298MOL0     C40118   0.660   0.182   5.085  0.1381 -0.6598  0.2767
  298MOL0     O40119   0.646   0.235   5.215  0.2640 -0.0167  0.5016
  298MOL0     C40120   0.740   0.209   5.311 -0.0524 -0.1730  0.3938
  298MOL0     C40121   0.859   0.131   5.298 -0.9592 -0.6720  0.5790
  298MOL0     C40122   0.947   0.114   5.399 -0.4450 -0.7597  0.3126
  298MOL0     C40123   0.928   0.180   5.521 -0.8964 -0.0234 -0.0579
  298MOL0     C40124   1.021   0.154   5.632  0.5187 -0.6737  0.5721
  298MOL0     O40125   0.966   0.171   5.754  0.0617  0.3604 -0.1090
  298MOL0     C40126   1.026   0.122   5.867  0.7126 -0.3602  0.1704
  298MOL0     C40127   1.104   0.004   5.880 -0.0522 -0.3961  0.5326
  298MOL0     C40128   1.164  -0.034   6.001  1.3302  0.5982  0.2953
  298MOL0     C40129   1.126   0.037   6.118 -0.6222  0.0985 -0.0921
  298MOL0     O40130   1.163  -0.027   6.232 -0.0189 -0.8148  0.6570
  298MOL0     C40131   1.198   0.062   6.337 -0.1805 -1.6264 -0.2291
  298MOL0     C40132   1.336   0.015   6.378 -0.3577  0.5386  0.6946
  298MOL0     C40133   1.381   0.111   6.494 -1.2514 -0.5580  0.3437
  298MOL0     C40134   1.411   0.055   6.633 -0.1931 -0.2178 -0.2670
  298MOL0     C40135   1.547  -0.012   6.636  0.3396  0.5329 -0.0922
  298MOL0     C40136   1.559  -0.059   6.779 -0.2470  0.5643 -0.2280
  298MOL0     C40137   1.695  -0.135   6.784  0.4603 -0.4783  0.0703
  298MOL0     C40138   1.715  -0.227   6.908 -0.2206  0.1114  0.3212
  298MOL0    Cl40139   1.676  -0.140   7.062 -0.2670 -0.4245 -0.0326
  298MOL0     C40140   1.041   0.147   6.107 -0.1460 -0.2036  0.1762
  298MOL0     C40141   0.993   0.194   5.982 -0.5294 -0.2149  0.6275
  298MOL0     O40142   1.139   0.126   5.607  0.2613  0.4843 -0.1577
  298MOL0     C40143   0.808   0.258   5.540 -0.6050  0.0193  0.4638
  298MOL0     C40144   0.726   0.278   5.425 -0.3371 -0.3728  0.1083
  298MOL0     N40145   0.258  -0.109   4.945  0.4973  0.5236  0.5277
  298MOL0     N40146   0.242  -0.113   4.815 -0.0662 -0.1518  0.1217
  298MOL0     C40147   0.062   0.903   4.068 -0.3628  0.4664 -0.1589
  298MOL0     C40148   0.104   1.021   4.005  0.4314 -0.6064 -0.3001
  298MOL0     C40149   0.409   1.346   3.918  0.4032  0.5907 -0.0108
  298MOL0     C40150   0.317   1.451   3.891 -0.2064  0.2746 -0.1494
  298MOL0     C40151   0.356   1.575   3.846 -0.5400 -0.4239  0.7082
  298MOL0     C40152   0.492   1.605   3.835  0.3033 -0.3663  0.4949
  298MOL0     O40153   0.548   1.726   3.813 -0.2437 -0.0181 -0.2662
  298MOL0     C40154   0.467   1.832   3.768 -0.7518 -0.0034 -0.1764
  298MOL0     C40155   0.558   1.960   3.735 -0.1999  0.5832  0.0574
  298MOL0     C40156   0.679   1.923   3.652  0.2012  0.2860  0.9678
  298MOL0     C40157   0.751   2.047   3.591  1.0921  0.3468 -0.3188
  298MOL0     C40158   0.794   2.143   3.691  0.0435  0.7242 -0.3392
  298MOL0     C40159   0.847   2.218   3.772  0.4483 -0.2396  0.1840
  298MOL0     C40160   0.582   1.500   3.852 -0.4177 -0.3594  0.4039
  298MOL0     C40161   0.540   1.374   3.884 -0.0675 -0.4645 -0.3088
  298MOL0     C40162   0.659   1.276   3.885 -0.1680 -0.4278 -1.0006
  298MOL0     H40163   0.309   1.118   4.252 -1.8655  2.1503  1.4521
  298MOL0     H40164   0.210   0.927   4.368 -0.0631  0.5720 -1.2923
  298MOL0     H40165  -0.107   0.678   4.165  0.2507  1.5497  0.8029
  298MOL0     H40166   0.050   0.615   4.123 -2.5597  0.7208 -2.4722
  298MOL0     H40167  -0.100   0.466   4.272 -0.1070  0.0245  1.2443
  298MOL0     H40168  -0.088   0.587   4.400 -2.1533 -0.8290 -0.4456
  298MOL0     H40169   0.165   0.542   4.399  1.6225 -2.1807  0.8575
  298MOL0     H40170   0.138   0.454   4.260 -3.1305 -1.6369 -1.9288
  298MOL0     H40171   0.007   0.371   4.528 -2.2445  1.1030 -0.6166
  298MOL0     H40172   0.009   0.277   4.385  0.9925 -2.1996  1.3024
  298MOL0     H40173   0.256   0.273   4.366 -0.2143 -2.5057  0.7091
  298MOL0     H40174   0.260   0.358   4.523 -1.3681  0.2851  1.1503
  298MOL0     H40175   0.166   0.148   4.631  0.2008 -1.3324  0.3316
  298MOL0     H40176   0.163   0.079   4.466  0.0356  0.0834 -0.3319
  298MOL0     H40177   0.416   0.193   4.611  1.3266  0.8350 -2.1584
  298MOL0     H40178   0.407   0.114   4.457 -1.7434  1.1580 -1.4926
  298MOL0     H40179   0.321  -0.091   4.570  0.3969  0.6044 -0.7178
  298MOL0     H40180   0.486  -0.055   4.618  0.2076  1.1021 -2.6556
  298MOL0     H40181   0.426   0.159   4.861 -1.0047  1.5405  1.1973
  298MOL0     H40182   0.370   0.159   5.123 -1.5743  0.9300 -0.0180
  298MOL0     H40183   0.303   0.004   5.181  0.3403  0.3600 -0.0481
  298MOL0     H40184   0.525   0.041   5.273 -1.9903  0.8161 -0.2188
  298MOL0     H40185   0.497  -0.109   5.198  3.0937 -1.2850 -0.9013
  298MOL0     H40186   0.604  -0.012   4.983  0.5299  0.0435 -0.8387
  298MOL0     H40187   0.704  -0.032   5.116 -0.1794 -1.2524 -1.4779
  298MOL0     H40188   0.583   0.231   5.025  1.1650 -0.5102 -0.9767
  298MOL0     H40189   0.753   0.217   5.040  1.1502  0.2557  2.8947
  298MOL0     H40190   0.879   0.079   5.205  1.5040 -0.3801  0.8724
  298MOL0     H40191   1.041   0.065   5.377  1.5039  3.1327 -0.9391
  298MOL0     H40192   1.135  -0.056   5.794  1.0968  0.2461  0.4819
  298MOL0     H40193   1.226  -0.122   6.015  0.3884 -0.0396  0.5255
  298MOL0     H40194   1.204   0.169   6.316  3.5879 -1.6540  0.0497
  298MOL0     H40195   1.125   0.042   6.417 -1.7504  0.1710 -1.1282
  298MOL0     H40196   1.343  -0.087   6.416 -2.4764  0.5297  1.2047
  298MOL0     H40197   1.406   0.036   6.297 -1.0945 -0.1718 -0.1377
  298MOL0     H40198   1.474   0.153   6.456 -1.3481 -1.4954 -1.0028
  298MOL0     H40199   1.295   0.177   6.502 -0.7051  0.2843 -0.5240
  298MOL0     H40200   1.334  -0.020   6.650 -1.6659  1.3352  0.1414
  298MOL0     H40201   1.401   0.133   6.709 -0.4792 -0.1341 -0.3890
  298MOL0     H40202   1.630   0.058   6.625  0.0486  1.4753  2.8099
  298MOL0     H40203   1.550  -0.092   6.561  0.2530  0.4946 -0.0564
  298MOL0     H40204   1.543   0.016   6.857  0.2366 -0.5691  1.0188
  298MOL0     H40205   1.487  -0.136   6.808  1.5365 -0.2555  2.4161
  298MOL0     H40206   1.768  -0.054   6.796  0.2883 -0.5701  1.8883
  298MOL0     H40207   1.711  -0.196   6.694  0.9769 -0.3078  0.0452
  298MOL0     H40208   1.650  -0.315   6.901 -0.3788  0.2718 -0.2230
  298MOL0     H40209   1.817  -0.266   6.921  1.1938  3.6037  0.7000
  298MOL0     H40210   1.010   0.195   6.199 -0.0320 -1.3107  0.7974
  298MOL0     H40211   0.930   0.281   5.970 -0.2817  0.2346  2.2371
  298MOL0     H40212   0.782   0.311   5.631 -0.3361 -1.8094  1.6709
  298MOL0     H40213   0.643   0.347   5.432  0.6091  0.6407  1.9177
  298MOL0     H40214   0.005   0.828   4.013  1.1498 -0.2283 -0.8395
  298MOL0     H40215   0.076   1.042   3.903 -4.5591 -1.3947  0.6512
  298MOL0     H40216   0.209   1.437   3.897 -0.2713  0.9864  0.4275
  298MOL0     H40217   0.284   1.655   3.830  0.9438  0.6564 -0.9663
  298MOL0     H40218   0.397   1.867   3.845 -0.8540  0.2709 -0.3921
  298MOL0     H40219   0.420   1.803   3.673  1.2785  1.3531 -1.6743
  298MOL0     H40220   0.596   2.005   3.826  0.7234  0.8513 -0.4447
  298MOL0     H40221   0.490   2.027   3.682  3.6377  1.0331 -5.0744
  298MOL0     H40222   0.656   1.842   3.582  2.2378 -1.4193  2.1341
  298MOL0     H40223   0.761   1.886   3.714  1.0077  2.1331  1.0585
  298MOL0     H40224   0.841   2.021   3.535  1.8043 -2.4476  1.8905
  298MOL0     H40225   0.683   2.104   3.527  1.9646  1.5533 -0.2168
  298MOL0     H40226   0.892   2.284   3.843  3.5338  0.3135 -2.1057
  298MOL0     H40227   0.687   1.517   3.831 -0.1309 -1.8141  0.5483
  298MOL0     H40228   0.633   1.174   3.854 -0.0605 -0.2198 -1.8154
  298MOL0     H40229   0.738   1.312   3.819 -0.4443  1.6239 -0.2908
  298MOL0     H40230   0.697   1.272   3.987  1.2377  1.8527 -1.3744
  299MOL0     O40231  11.166   5.915   4.477 -0.4696  0.2493  0.0976
  299MOL0     C40232  11.099   5.915   4.578  0.5477 -0.1146 -0.4149
  299MOL0     O40233  11.059   6.024   4.642  0.6558 -0.1689  0.1313
  299MOL0     C40234  11.086   6.147   4.585 -0.2531  0.0486  0.6774
  299MOL0     C40235  11.002   6.200   4.482 -0.1652 -0.1231  0.6826
  299MOL0     C40236  11.019   6.324   4.425 -0.2646 -0.6054 -0.7370
  299MOL0     C40237  11.130   6.398   4.459  0.5838 -0.2246  0.2981
  299MOL0     O40238  11.139   6.508   4.379  0.1722 -0.1055 -0.2225
  299MOL0     C40239  11.210   6.617   4.443  0.0520  0.2835  0.1050
  299MOL0     C40240  11.181   6.757   4.385  0.1105 -0.1449  0.7872
  299MOL0     C40241  11.027   6.775   4.355 -0.8509  0.0982 -0.1525
  299MOL0     C40242  10.939   6.794   4.486  0.3227 -0.4222 -0.1357
  299MOL0     C40243  10.785   6.795   4.468  0.3707 -0.3996  0.7672
  299MOL0     C40244  10.718   6.668   4.438  0.2452 -0.0224  0.7303
  299MOL0     C40245  10.765   6.563   4.538  0.0602  0.3775 -0.5239
  299MOL0     C40246  10.685   6.431   4.539  0.6746  0.7104 -0.6013
  299MOL0     N40247  10.551   6.456   4.600 -0.2952  0.0234 -0.0097
  299MOL0     C40248  10.439   6.381   4.571  0.5025  0.5724 -0.5724
  299MOL0     C40249  10.340   6.447   4.636  0.3108 -0.3715  0.0797
  299MOL0     C40250  10.194   6.415   4.640  0.6850  0.2809 -1.0057
  299MOL0     C40251  10.126   6.484   4.525 -0.0862 -0.0647 -0.9303
  299MOL0     C40252  10.165   6.449   4.383  0.2406 -0.1324  0.3519
  299MOL0     C40253  10.091   6.325   4.340  0.5085 -1.1996  1.3687
  299MOL0     O40254   9.956   6.371   4.321  0.1643  0.7008 -1.3831
  299MOL0     C40255   9.871   6.281   4.272  0.5339  0.6329 -0.2667
  299MOL0     C40256   9.746   6.323   4.237  0.1632 -0.1684 -0.1547
  299MOL0     C40257   9.638   6.240   4.189  0.0563 -0.8152  0.2499
  299MOL0     C40258   9.660   6.108   4.164  0.7537  0.6619  0.2707
  299MOL0     C40259   9.564   6.023   4.091 -0.8094  0.6026  0.1641
  299MOL0     O40260   9.437   6.071   4.070 -0.0191 -0.6174 -0.1572
  299MOL0     C40261   9.335   5.989   4.028  0.3298  0.7862 -0.1856
  299MOL0     C40262   9.310   5.861   4.082 -0.0910  0.2916 -0.3252
  299MOL0     C40263   9.209   5.778   4.025 -0.1993  0.8305 -0.3545
  299MOL0     C40264   9.126   5.835   3.928  0.7951  0.1523 -0.3043
  299MOL0     O40265   9.035   5.737   3.884  0.3460 -0.0369  0.3299
  299MOL0     C40266   8.956   5.754   3.764 -0.8353  0.4657 -0.6694
  299MOL0     C40267   8.807   5.736   3.791 -0.9460  0.1286 -0.7311
  299MOL0     C40268   8.746   5.857   3.870  1.0458 -0.0225 -0.0813
  299MOL0     C40269   8.590   5.833   3.902 -0.1433  0.6222 -0.1668
  299MOL0     C40270   8.514   5.958   3.956 -1.5785  0.3580 -0.0993
  299MOL0     C40271   8.375   5.931   4.006 -0.1281  0.8156  0.3751
  299MOL0     C40272   8.308   6.061   4.037 -0.7479 -0.7270  0.1097
  299MOL0     C40273   8.188   6.058   4.134 -0.4024  1.0896 -0.2085
  299MOL0    Cl40274   8.143   6.211   4.215 -0.3826  0.2388 -0.2095
  299MOL0     C40275   9.142   5.969   3.877 -0.5525 -0.1348  0.0322
  299MOL0     C40276   9.250   6.037   3.930 -0.0113 -0.4756  0.7405
  299MOL0     O40277   9.601   5.916   4.056  0.3386  0.0388 -0.6614
  299MOL0     C40278   9.784   6.054   4.206 -0.4032  0.4871 -0.4112
  299MOL0     C40279   9.887   6.139   4.258 -0.5388  0.2191 -0.1416
  299MOL0     N40280  10.395   6.557   4.706 -0.7588 -0.7229 -0.0275
  299MOL0     N40281  10.525   6.551   4.693 -1.5097  0.2184 -0.2928
  299MOL0     C40282  11.218   6.350   4.557  0.2793 -0.4256  0.3303
  299MOL0     C40283  11.196   6.221   4.627  0.5727 -0.2147  0.3089
  299MOL0     C40284  11.084   5.782   4.646  0.8515  0.7404  0.5087
  299MOL0     C40285  11.093   5.669   4.568 -0.2686 -0.3018 -0.2550
  299MOL0     C40286  11.077   5.534   4.615  0.2270  0.6777  0.4366
  299MOL0     C40287  11.048   5.518   4.747 -0.0411  0.8080  0.3434
  299MOL0     O40288  11.039   5.386   4.797 -0.0929 -0.3322 -0.3593
  299MOL0     C40289  10.966   5.348   4.916  0.6648 -0.2569 -0.0516
  299MOL0     C40290  11.008   5.202   4.957  0.5228 -0.9267  0.5875
  299MOL0     C40291  11.157   5.202   4.982  1.2456  0.4643  0.3982
  299MOL0     C40292  11.209   5.066   5.018  0.1932  0.4482  0.1995
  299MOL0     C40293  11.354   5.073   5.044  0.9652  0.1900  1.0426
  299MOL0     C40294  11.472   5.091   5.066  0.2259  0.5321  0.7335
  299MOL0     C40295  11.043   5.630   4.829  0.1115 -0.7580  0.5571
  299MOL0     C40296  11.061   5.764   4.784  0.2377  0.2459 -0.3161
  299MOL0     C40297  11.042   5.884   4.878 -0.1267  0.7716  0.1317
  299MOL0     H40298  10.926   6.128   4.452  0.9830 -1.0675 -0.0377
  299MOL0     H40299  10.957   6.350   4.340 -2.0144  1.5475  1.0945
  299MOL0     H40300  11.177   6.626   4.547  1.2482  3.4134  0.3131
  299MOL0     H40301  11.317   6.595   4.438 -0.0828 -0.2174 -0.7448
  299MOL0     H40302  11.232   6.756   4.288 -1.8638  1.9330 -0.3878
  299MOL0     H40303  11.222   6.828   4.458  1.5014  2.3883 -2.1998
  299MOL0     H40304  10.994   6.680   4.312  0.5033 -0.0975 -0.8336
  299MOL0     H40305  11.018   6.854   4.279  0.6344  0.8357  0.3972
  299MOL0     H40306  10.974   6.718   4.557  0.4140 -2.1339 -1.9239
  299MOL0     H40307  10.968   6.891   4.525 -3.8271  1.2475 -0.6829
  299MOL0     H40308  10.730   6.831   4.556  0.5948  0.0601  0.7203
  299MOL0     H40309  10.761   6.866   4.390  0.9432  0.6116  1.4931
  299MOL0     H40310  10.611   6.693   4.441  0.6745  2.2053 -0.5513
  299MOL0     H40311  10.746   6.629   4.340  0.8084  0.3202  0.7487
  299MOL0     H40312  10.777   6.600   4.641  3.0740 -5.1259  1.5144
  299MOL0     H40313  10.869   6.538   4.518 -0.5250 -2.7770 -0.1481
  299MOL0     H40314  10.676   6.388   4.439  0.9484  2.0390 -1.2180
  299MOL0     H40315  10.743   6.365   4.604 -1.3252  0.1297  0.6581
  299MOL0     H40316  10.437   6.293   4.506  1.6840 -0.2435  0.4479
  299MOL0     H40317  10.175   6.308   4.635  0.3784  0.3136 -0.6071
  299MOL0     H40318  10.149   6.459   4.730  4.0024  0.0258  0.9739
  299MOL0     H40319  10.019   6.482   4.550  0.4584 -3.0184  1.8793
  299MOL0     H40320  10.161   6.587   4.541 -1.3711  0.3280 -0.4787
  299MOL0     H40321  10.273   6.435   4.380  0.3007 -0.0550  1.4881
  299MOL0     H40322  10.127   6.531   4.322  3.5445  0.9932 -0.3882
  299MOL0     H40323  10.098   6.249   4.418  1.7027 -0.4061  2.0676
  299MOL0     H40324  10.133   6.288   4.246 -0.7462 -0.4364  0.4811
  299MOL0     H40325   9.739   6.430   4.250 -2.4807 -0.1112 -1.3483
  299MOL0     H40326   9.543   6.288   4.166  0.9707  1.0177  0.0946
  299MOL0     H40327   9.383   5.824   4.153 -0.7592  0.6694  0.5791
  299MOL0     H40328   9.197   5.679   4.066  0.5707  2.2276  3.7225
  299MOL0     H40329   8.971   5.852   3.718  1.8403  0.6048  0.2924
  299MOL0     H40330   8.983   5.684   3.684 -0.0725  0.5855 -0.5221
  299MOL0     H40331   8.749   5.734   3.699 -1.8340 -1.5926 -0.1736
  299MOL0     H40332   8.797   5.645   3.851 -0.0362  0.9846  0.7785
  299MOL0     H40333   8.800   5.879   3.963  0.7317  0.8077 -0.0871
  299MOL0     H40334   8.756   5.946   3.807  2.8244 -0.3056 -0.2557
  299MOL0     H40335   8.597   5.750   3.972  1.7094  1.2450  0.4283
  299MOL0     H40336   8.532   5.796   3.817 -0.1980 -0.9554  0.5243
  299MOL0     H40337   8.507   6.036   3.880 -0.9770 -0.0318 -0.5708
  299MOL0     H40338   8.579   6.001   4.033 -0.4417 -0.0640 -0.8005
  299MOL0     H40339   8.320   5.879   3.928  0.0402 -1.1013  1.4779
  299MOL0     H40340   8.378   5.873   4.099  1.2109 -0.0367 -0.1765
  299MOL0     H40341   8.275   6.112   3.946  1.9910  0.0448 -0.5407
  299MOL0     H40342   8.388   6.128   4.069 -1.9912  2.0717 -2.1599
  299MOL0     H40343   8.106   6.035   4.067  1.2540 -1.6948 -1.4568
  299MOL0     H40344   8.198   5.974   4.203 -0.3934  1.7725  0.6476
  299MOL0     H40345   9.080   6.012   3.799 -0.7828 -0.3381  0.1016
  299MOL0     H40346   9.265   6.132   3.880  2.5251 -2.1128 -1.9725
  299MOL0     H40347   9.819   5.951   4.199 -0.1756  0.3607  1.8242
  299MOL0     H40348   9.977   6.087   4.290 -0.6871  0.3770  0.5383
  299MOL0     H40349  11.304   6.406   4.591 -0.0254 -0.0962  0.5664
  299MOL0     H40350  11.250   6.170   4.705  2.0935  2.2339  0.9576
  299MOL0     H40351  11.114   5.665   4.462 -4.0859 -1.6277 -1.1460
  299MOL0     H40352  11.086   5.449   4.549 -0.7624  0.5405  0.4604
  299MOL0     H40353  10.858   5.346   4.898  0.8698 -2.3693 -1.4068
  299MOL0     H40354  10.968   5.425   4.993 -1.8892 -2.4224  2.4090
  299MOL0     H40355  10.976   5.136   4.877 -1.5342 -0.6522  1.1279
  299MOL0     H40356  10.949   5.188   5.048 -0.0997 -0.0956  0.3237
  299MOL0     H40357  11.172   5.280   5.057 -0.1581  0.9435  0.2037
  299MOL0     H40358  11.208   5.237   4.891 -0.5917  1.5703 -0.2466
  299MOL0     H40359  11.154   5.022   5.102 -0.1711 -0.4467 -0.4824
  299MOL0     H40360  11.197   5.000   4.931  1.5707  0.1040  0.2474
  299MOL0     H40361  11.575   5.117   5.082 -0.6885  2.8730  3.9151
  299MOL0     H40362  11.021   5.625   4.935 -2.3999 -0.0291  0.1527
  299MOL0     H40363  10.945   5.936   4.870 -1.1367 -0.8037  1.5538
  299MOL0     H40364  11.042   5.842   4.979 -0.4535 -1.7212 -0.8342
  299MOL0     H40365  11.127   5.952   4.872  1.1735 -0.7582  0.5362
  300MOL0     O40366   9.060   9.289   8.155 -0.8316 -0.5598  0.3871
  300MOL0     C40367   9.001   9.220   8.073  0.8142 -0.1528 -0.6610
  300MOL0     O40368   9.061   9.122   7.991  0.0381  0.2642 -0.5566
  300MOL0     C40369   9.197   9.137   7.995  0.5122  0.2151  0.1808
  300MOL0     C40370   9.262   9.075   8.104  0.5306  0.5759 -0.9617
  300MOL0     C40371   9.398   9.075   8.109  0.1659 -0.5070 -0.4805
  300MOL0     C40372   9.477   9.135   8.005 -0.3129 -0.7216  0.2849
  300MOL0     O40373   9.608   9.112   7.987  0.2154  0.1236 -0.5360
  300MOL0     C40374   9.693   9.145   8.100  0.1419  0.2265  0.4874
  300MOL0     C40375   9.824   9.203   8.045  0.2016  0.3121 -0.2680
  300MOL0     C40376   9.936   9.180   8.136  0.1949 -0.1197 -0.4694
  300MOL0     C40377  10.064   9.233   8.068  0.2897  0.8622 -0.1908
  300MOL0     C40378  10.195   9.183   8.127  0.0386  0.2404 -0.2503
  300MOL0     C40379  10.216   9.226   8.275 -0.6173 -0.0630  0.0302
  300MOL0     C40380  10.340   9.150   8.332 -0.1090 -0.2529  0.4860
  300MOL0     C40381  10.474   9.215   8.308 -0.4202 -0.3768 -0.1906
  300MOL0     N40382  10.588   9.121   8.331  0.5850  0.4644  0.1019
  300MOL0     C40383  10.664   9.047   8.242 -0.8352 -0.8906 -0.2198
  300MOL0     C40384  10.750   8.983   8.329  0.4793 -0.6451  0.2808
  300MOL0     C40385  10.833   8.873   8.272 -0.5791 -0.1605 -0.2650
  300MOL0     C40386  10.981   8.886   8.308 -0.4131  0.4712 -0.8667
  300MOL0     C40387  11.036   9.022   8.305  0.0482 -0.3602  0.5049
  300MOL0     C40388  11.037   9.067   8.160 -0.4356  0.1147  0.0352
  300MOL0     O40389  11.146   9.011   8.090 -0.0657 -0.5762  0.2968
  300MOL0     C40390  11.273   9.054   8.122  0.3260 -0.0588 -0.5360
  300MOL0     C40391  11.379   9.001   8.048 -1.1420 -0.1573 -0.6021
  300MOL0     C40392  11.513   9.028   8.076 -0.4193 -0.2807  0.1253
  300MOL0     C40393  11.550   9.121   8.170  0.1707 -0.3759 -0.0990
  300MOL0     C40394  11.694   9.169   8.191  1.1968  0.3362 -0.1094
  300MOL0     O40395  11.790   9.159   8.096  0.0288  0.6913  0.5546
  300MOL0     C40396  11.921   9.198   8.114  0.1975  0.7054 -0.4891
  300MOL0     C40397  11.963   9.304   8.196 -0.5761 -0.3683  0.0113
  300MOL0     C40398  12.104   9.329   8.215 -0.4592  0.4788  0.5444
  300MOL0     C40399  12.198   9.246   8.145  0.9593 -0.3987 -0.0585
  300MOL0     O40400  12.324   9.284   8.156 -0.1246  0.8018  0.2087
  300MOL0     C40401  12.429   9.220   8.087  0.5535  0.4113 -0.9360
  300MOL0     C40402  12.482   9.091   8.165  0.1039  0.1629  0.2628
  300MOL0     C40403  12.525   8.977   8.069 -0.0108  0.3037 -0.0720
  300MOL0     C40404  12.633   9.033   7.963  0.6781 -0.2006  0.0233
  300MOL0     C40405  12.676   8.920   7.870 -0.8171 -0.2028 -0.4605
  300MOL0     C40406  12.757   8.981   7.759 -0.1128  0.1168  0.0911
  300MOL0     C40407  12.771   8.888   7.638  0.4935  1.2773 -0.0569
  300MOL0     C40408  12.889   8.792   7.671  0.0780  0.4699  0.2756
  300MOL0    Cl40409  12.927   8.674   7.542 -0.1155  0.0116  0.4858
  300MOL0     C40410  12.150   9.142   8.062 -0.0036  0.3538 -0.5037
  300MOL0     C40411  12.016   9.119   8.044 -0.1863  0.7108  0.7557
  300MOL0     O40412  11.712   9.215   8.301  0.4807 -0.2577 -0.1555
  300MOL0     C40413  11.442   9.177   8.246 -0.0941  0.5303  0.1388
  300MOL0     C40414  11.304   9.146   8.222 -0.8380  0.4703 -0.4720
  300MOL0     N40415  10.722   9.020   8.457 -0.3765  0.1107 -0.4356
  300MOL0     N40416  10.634   9.102   8.461  0.2635 -0.1260 -0.0498
  300MOL0     C40417   9.416   9.203   7.895  0.7181 -0.5301 -0.2712
  300MOL0     C40418   9.271   9.199   7.889 -0.0535 -0.5229  0.0244
  300MOL0     C40419   8.870   9.261   8.033 -1.0504 -0.2282  0.2573
  300MOL0     C40420   8.837   9.265   7.900 -0.5694 -0.5128 -0.0296
  300MOL0     C40421   8.705   9.303   7.861 -0.3356 -0.7462 -0.2774
  300MOL0     C40422   8.610   9.341   7.954  0.0038  0.4367  0.5362
  300MOL0     O40423   8.492   9.387   7.905 -0.3922  0.2698  0.0755
  300MOL0     C40424   8.422   9.495   7.965  0.6829  0.2584 -0.2668
  300MOL0     C40425   8.512   9.613   7.992  0.3613  0.0789  0.5972
  300MOL0     C40426   8.578   9.672   7.864  0.5450 -0.1340 -0.3708
  300MOL0     C40427   8.643   9.803   7.908  1.3113  0.3995  0.0584
  300MOL0     C40428   8.728   9.849   7.800 -0.2290 -0.5019 -0.3302
  300MOL0     C40429   8.802   9.892   7.711  0.3193  0.2758 -0.3999
  300MOL0     C40430   8.648   9.328   8.083  0.0416 -0.5125 -0.3179
  300MOL0     C40431   8.776   9.294   8.130 -0.1951 -0.2905  0.1995
  300MOL0     C40432   8.805   9.296   8.273  0.2783 -0.6833  0.5502
  300MOL0     H40433   9.211   9.019   8.182 -1.0335  1.9011 -0.9491
  300MOL0     H40434   9.454   9.030   8.191 -0.9406  0.7517  1.0190
  300MOL0     H40435   9.654   9.220   8.170 -0.5979 -0.5730  0.9626
  300MOL0     H40436   9.719   9.051   8.150 -2.3596 -0.8575 -0.0928
  300MOL0     H40437   9.820   9.309   8.017 -0.5712 -0.2959 -2.6887
  300MOL0     H40438   9.859   9.148   7.957  3.3970  0.9727  0.4356
  300MOL0     H40439   9.936   9.072   8.154  1.0718 -0.0689 -0.0867
  300MOL0     H40440   9.931   9.238   8.228 -1.4784  2.6822 -2.1924
  300MOL0     H40441  10.085   9.198   7.966  0.3529 -2.4162  0.8365
  300MOL0     H40442  10.060   9.342   8.068 -0.6642  0.8404 -0.7183
  300MOL0     H40443  10.191   9.074   8.119  0.9200  0.3015 -1.8492
  300MOL0     H40444  10.280   9.219   8.068 -1.3232 -0.0809 -2.5184
  300MOL0     H40445  10.239   9.333   8.289  0.2880 -0.3872  1.2474
  300MOL0     H40446  10.125   9.211   8.335 -0.8571  0.6745 -0.1339
  300MOL0     H40447  10.345   9.046   8.300  0.4808 -0.0250 -0.1985
  300MOL0     H40448  10.327   9.144   8.441  2.0019 -1.7821  0.7153
  300MOL0     H40449  10.485   9.256   8.207  1.9331  1.5613  0.7479
  300MOL0     H40450  10.485   9.299   8.377  0.4817  2.3954 -3.4370
  300MOL0     H40451  10.672   9.042   8.134  0.6274  1.0900 -0.2699
  300MOL0     H40452  10.790   8.782   8.314 -0.8271 -0.2557 -0.7197
  300MOL0     H40453  10.819   8.866   8.164 -0.8801 -0.2418 -0.2212
  300MOL0     H40454  10.999   8.851   8.410  2.5822 -1.3349 -1.8776
  300MOL0     H40455  11.042   8.829   8.238  2.1141  1.4861  0.3712
  300MOL0     H40456  11.129   9.020   8.362 -0.3777 -0.7416  1.1922
  300MOL0     H40457  10.968   9.092   8.353 -0.3888 -0.8074  0.5448
  300MOL0     H40458  11.043   9.176   8.150 -0.2705 -0.0380 -1.8877
  300MOL0     H40459  10.951   9.031   8.103  1.7727 -0.3283 -3.2521
  300MOL0     H40460  11.350   8.933   7.969 -1.7347 -0.0711 -0.4670
  300MOL0     H40461  11.594   8.986   8.016 -2.2615 -4.5346  0.2458
  300MOL0     H40462  11.889   9.367   8.244 -0.6771  0.1386 -0.7971
  300MOL0     H40463  12.141   9.409   8.278 -0.1231  1.5234 -0.9132
  300MOL0     H40464  12.404   9.203   7.982  1.8432 -1.5515 -0.9750
  300MOL0     H40465  12.507   9.296   8.084 -1.3276  2.7128  2.2046
  300MOL0     H40466  12.552   9.121   8.243 -2.3572 -0.4745  2.8706
  300MOL0     H40467  12.399   9.055   8.226  1.1231 -1.4590  0.7555
  300MOL0     H40468  12.571   8.886   8.110 -1.0099 -1.4121 -2.5389
  300MOL0     H40469  12.433   8.939   8.025  0.2400 -2.9557  1.8864
  300MOL0     H40470  12.711   9.095   8.008  0.9737 -0.8061  0.3470
  300MOL0     H40471  12.580   9.107   7.901 -0.0280 -1.7368 -1.2890
  300MOL0     H40472  12.586   8.883   7.820 -0.9489 -2.5430  1.3530
  300MOL0     H40473  12.729   8.850   7.934 -1.4116  1.4124  1.9422
  300MOL0     H40474  12.711   9.068   7.712 -1.3462 -3.2364 -5.8897
  300MOL0     H40475  12.855   9.022   7.787 -0.1720  1.5188 -1.6142
  300MOL0     H40476  12.793   8.945   7.547  0.8948  0.7791 -0.2760
  300MOL0     H40477  12.680   8.832   7.618  0.1051  1.9786 -0.2693
  300MOL0     H40478  12.981   8.846   7.694  0.0525  1.2460 -1.3010
  300MOL0     H40479  12.866   8.730   7.758  1.6155 -2.0626 -0.9790
  300MOL0     H40480  12.214   9.086   7.995 -2.9010 -1.3740 -2.0631
  300MOL0     H40481  11.975   9.039   7.982  0.7072  1.5024 -0.9295
  300MOL0     H40482  11.453   9.258   8.317 -2.1837  0.7720  0.2451
  300MOL0     H40483  11.224   9.191   8.280  1.5236 -0.3979  3.8093
  300MOL0     H40484   9.476   9.251   7.818 -1.3729  0.5586 -1.3185
  300MOL0     H40485   9.227   9.248   7.803  1.5628 -0.9455 -1.0978
  300MOL0     H40486   8.899   9.225   7.821 -0.3887 -0.3300  0.0201
  300MOL0     H40487   8.667   9.303   7.759  1.0373 -2.0150 -0.8233
  300MOL0     H40488   8.388   9.448   8.058  1.6691 -2.7060 -1.2596
  300MOL0     H40489   8.336   9.517   7.903  0.9569 -2.9830 -2.0213
  300MOL0     H40490   8.591   9.582   8.061  0.6692  1.6767  0.9998
  300MOL0     H40491   8.447   9.691   8.034  0.6287  0.5731  0.1057
  300MOL0     H40492   8.497   9.693   7.794 -0.7218 -0.7127  0.8679
  300MOL0     H40493   8.657   9.613   7.816  1.9425  2.5437 -1.5540
  300MOL0     H40494   8.563   9.874   7.931  1.3185  0.3434  0.2534
  300MOL0     H40495   8.714   9.784   7.989  3.0704 -0.8849 -1.6855
  300MOL0     H40496   8.853   9.928   7.623 -0.2425  0.2591 -0.7358
  300MOL0     H40497   8.569   9.353   8.152 -0.9134  1.1569 -1.9196
  300MOL0     H40498   8.728   9.336   8.340  0.1789  0.7487 -0.3617
  300MOL0     H40499   8.829   9.192   8.295 -2.0345 -1.0442  1.5747
  300MOL0     H40500   8.890   9.360   8.300 -0.9752  0.5355  1.7539
  301MOL0     O40501   6.497   3.229   8.144  0.0928  0.1346  0.1655
  301MOL0     C40502   6.434   3.295   8.062 -0.6157 -0.3637 -0.2898
  301MOL0     O40503   6.497   3.382   7.977 -0.8718  0.1568 -0.1724
  301MOL0     C40504   6.636   3.371   7.949  0.3637  0.5269 -0.1846
  301MOL0     C40505   6.707   3.245   7.951  0.2591  0.3253 -0.5773
  301MOL0     C40506   6.846   3.242   7.938 -0.0632  0.3808 -0.6315
  301MOL0     C40507   6.921   3.355   7.910 -0.1260 -1.3626 -0.5733
  301MOL0     O40508   7.052   3.362   7.888  0.0494 -0.2441 -0.1716
  301MOL0     C40509   7.135   3.240   7.892 -0.2720  0.2071 -0.0942
  301MOL0     C40510   7.280   3.280   7.888 -0.3332  0.1173 -0.5631
  301MOL0     C40511   7.318   3.342   8.027  0.3458 -0.3025  0.2565
  301MOL0     C40512   7.432   3.446   8.012 -0.1839 -0.8060  0.0063
  301MOL0     C40513   7.508   3.495   8.138 -0.1932  0.4519 -0.5493
  301MOL0     C40514   7.558   3.641   8.126 -0.3435  0.2294  0.2791
  301MOL0     C40515   7.662   3.681   8.231  0.2041 -0.6801 -0.4485
  301MOL0     C40516   7.604   3.717   8.367  0.1807 -0.0426  0.3769
  301MOL0     N40517   7.706   3.694   8.472  0.1223  0.4964 -1.0004
  301MOL0     C40518   7.823   3.771   8.482  1.0916 -0.0771  0.2008
  301MOL0     C40519   7.897   3.732   8.589 -0.6020  0.6456 -0.0775
  301MOL0     C40520   8.025   3.794   8.630 -0.0305  0.2436 -0.5222
  301MOL0     C40521   8.132   3.732   8.533  0.5445 -0.3446 -0.2184
  301MOL0     C40522   8.139   3.580   8.538  0.4478 -0.4408  0.1197
  301MOL0     C40523   8.269   3.528   8.481 -0.2054  0.7330  0.1334
  301MOL0     O40524   8.371   3.543   8.571  0.6107  0.3782  0.2350
  301MOL0     C40525   8.485   3.466   8.576 -0.8018  0.1191 -0.2116
  301MOL0     C40526   8.524   3.368   8.478 -0.7328 -0.4345  0.4316
  301MOL0     C40527   8.654   3.313   8.488  0.9557  0.2060  0.0938
  301MOL0     C40528   8.738   3.336   8.597  0.7801 -0.3391  0.5361
  301MOL0     C40529   8.869   3.276   8.617 -0.3863  0.0469 -0.9913
  301MOL0     O40530   8.948   3.316   8.722  0.0072 -0.7558  0.0933
  301MOL0     C40531   9.066   3.257   8.750  0.2521 -1.3140 -0.8258
  301MOL0     C40532   9.139   3.334   8.844 -0.3777 -0.1383  0.7944
  301MOL0     C40533   9.271   3.314   8.863  0.5477  0.6466  0.6966
  301MOL0     C40534   9.331   3.197   8.811 -0.0410 -0.4765  0.2504
  301MOL0     O40535   9.465   3.188   8.852 -0.5628  0.8533  0.0511
  301MOL0     C40536   9.533   3.076   8.796  0.3105  0.1915 -0.3132
  301MOL0     C40537   9.676   3.101   8.781  0.2552 -0.2527  0.1879
  301MOL0     C40538   9.760   3.090   8.906 -0.6784  0.8367  0.0504
  301MOL0     C40539   9.905   3.145   8.900 -0.5660 -0.0422  0.3290
  301MOL0     C40540   9.998   3.062   8.997 -0.3834 -0.9993 -0.0648
  301MOL0     C40541  10.143   3.123   9.002  1.0640  0.1129  0.5988
  301MOL0     C40542  10.211   3.140   8.871  0.2041  0.2616 -0.2553
  301MOL0     C40543  10.340   3.217   8.897 -0.2707 -0.2479 -0.6478
  301MOL0    Cl40544  10.312   3.396   8.932 -0.1889  0.1829  0.2297
  301MOL0     C40545   9.259   3.115   8.726  0.6570  0.0259  0.0925
  301MOL0     C40546   9.120   3.133   8.709  0.0825 -0.0699 -0.0920
  301MOL0     O40547   8.906   3.200   8.525 -0.8269 -1.0096  0.2073
  301MOL0     C40548   8.693   3.433   8.690 -0.3215  0.2763 -0.6117
  301MOL0     C40549   8.568   3.491   8.687  0.0014  0.3195 -0.4782
  301MOL0     N40550   7.820   3.629   8.644 -0.3524  0.2504 -0.3954
  301MOL0     N40551   7.713   3.610   8.573  0.2691  0.0653  0.4007
  301MOL0     C40552   6.844   3.476   7.887  0.1753  1.0430 -0.5357
  301MOL0     C40553   6.706   3.479   7.912 -0.9670 -0.0262  0.4651
  301MOL0     C40554   6.284   3.300   8.067  0.0884  0.5265  0.1255
  301MOL0     C40555   6.225   3.424   8.025  0.5012 -0.3561  0.3757
  301MOL0     C40556   6.083   3.449   8.040  1.2393  0.1708  0.3856
  301MOL0     C40557   6.009   3.357   8.115 -0.0498  0.5728  0.2381
  301MOL0     O40558   5.879   3.371   8.159 -0.3856  0.1544  0.4794
  301MOL0     C40559   5.801   3.479   8.123  0.1688  0.5038  0.0826
  301MOL0     C40560   5.655   3.442   8.104  0.2409  0.3012  0.2345
  301MOL0     C40561   5.595   3.412   8.241  0.2812 -0.2427 -0.2491
  301MOL0     C40562   5.453   3.364   8.227 -0.1433 -0.5810  0.0420
  301MOL0     C40563   5.397   3.301   8.348  0.7120  0.0724 -0.9195
  301MOL0     C40564   5.348   3.261   8.453  0.3838 -0.4360 -0.1123
  301MOL0     C40565   6.059   3.231   8.151 -1.4915 -0.0452  0.0679
  301MOL0     C40566   6.198   3.198   8.120  0.3139 -0.1145 -0.5725
  301MOL0     C40567   6.240   3.053   8.155  0.4736 -0.0057  0.6620
  301MOL0     H40568   6.662   3.150   7.976  0.9594  0.1939  0.2242
  301MOL0     H40569   6.885   3.141   7.945 -3.3471 -1.1609 -2.5127
  301MOL0     H40570   7.101   3.180   7.977 -2.5631  2.2847  0.5745
  301MOL0     H40571   7.121   3.176   7.804 -0.3431 -0.4574  0.3934
  301MOL0     H40572   7.295   3.350   7.806 -2.0482 -2.4004 -3.2046
  301MOL0     H40573   7.356   3.202   7.882  0.3328  0.5502  1.4383
  301MOL0     H40574   7.352   3.273   8.104 -2.2756  0.2012  1.9999
  301MOL0     H40575   7.231   3.395   8.066 -0.2903  0.4486 -1.9895
  301MOL0     H40576   7.498   3.405   7.935 -1.3497  0.8287 -1.9830
  301MOL0     H40577   7.385   3.531   7.962  1.0216 -1.0387 -1.5698
  301MOL0     H40578   7.452   3.481   8.231  1.9239  0.8847  0.8686
  301MOL0     H40579   7.597   3.432   8.149  0.0889  0.6749 -1.4541
  301MOL0     H40580   7.611   3.651   8.031 -0.9155  2.0453  0.1102
  301MOL0     H40581   7.470   3.706   8.122 -0.5112  0.0735  1.3365
  301MOL0     H40582   7.710   3.771   8.192 -1.3913 -0.4064 -1.9637
  301MOL0     H40583   7.724   3.592   8.240 -1.4862 -1.9371 -0.6186
  301MOL0     H40584   7.572   3.821   8.363 -0.8215 -0.3577  0.0755
  301MOL0     H40585   7.528   3.646   8.399  0.1889  0.2249  1.0024
  301MOL0     H40586   7.855   3.847   8.411  2.2211 -0.5446  0.1902
  301MOL0     H40587   8.014   3.903   8.622 -0.3415  0.2402 -0.1853
  301MOL0     H40588   8.028   3.765   8.736  2.0445 -2.0452 -1.1356
  301MOL0     H40589   8.128   3.775   8.432 -3.2407 -0.0610 -0.1022
  301MOL0     H40590   8.226   3.767   8.575  0.3923  1.2874 -1.1513
  301MOL0     H40591   8.050   3.539   8.490 -1.4644  2.8214  0.5857
  301MOL0     H40592   8.127   3.553   8.643 -1.5515 -1.8680 -0.4199
  301MOL0     H40593   8.288   3.585   8.390 -1.1870  1.4997  0.3902
  301MOL0     H40594   8.254   3.423   8.455  1.8372  0.3617  0.2670
  301MOL0     H40595   8.467   3.334   8.392  1.7949 -1.4806 -0.9417
  301MOL0     H40596   8.675   3.242   8.409 -0.7365 -0.0010 -0.2262
  301MOL0     H40597   9.081   3.408   8.897 -3.0092 -0.8125 -0.9596
  301MOL0     H40598   9.319   3.385   8.930  1.3934 -0.2081  1.0142
  301MOL0     H40599   9.530   2.981   8.851 -0.3101 -0.0161 -0.6906
  301MOL0     H40600   9.500   3.057   8.694 -0.5897  4.9800 -1.1250
  301MOL0     H40601   9.711   3.029   8.706 -1.0753 -0.2291 -0.5027
  301MOL0     H40602   9.686   3.201   8.737 -1.1648  0.3530  1.1540
  301MOL0     H40603   9.714   3.145   8.988 -1.6982 -0.3539  0.3141
  301MOL0     H40604   9.781   2.987   8.937 -0.0876  0.6980 -0.7658
  301MOL0     H40605   9.907   3.251   8.927  1.2786  0.0470 -0.0120
  301MOL0     H40606   9.928   3.135   8.794 -1.6134  0.3487  0.0508
  301MOL0     H40607   9.997   2.959   8.959 -0.5982 -0.5899 -1.1910
  301MOL0     H40608   9.958   3.069   9.098  1.8860 -1.3026  0.9266
  301MOL0     H40609  10.125   3.222   9.046 -1.9069 -1.1804  2.6436
  301MOL0     H40610  10.198   3.058   9.071 -0.5980 -0.4027  1.4796
  301MOL0     H40611  10.151   3.195   8.798  1.0789  1.3663 -0.1795
  301MOL0     H40612  10.230   3.039   8.833 -0.0926  0.4185 -0.8425
  301MOL0     H40613  10.389   3.173   8.985 -0.1984  2.0408  0.5446
  301MOL0     H40614  10.414   3.202   8.818 -0.1064 -0.2040 -0.5045
  301MOL0     H40615   9.307   3.026   8.686  0.3513  0.3415 -0.9926
  301MOL0     H40616   9.066   3.060   8.649 -0.9042  3.1020 -3.4603
  301MOL0     H40617   8.756   3.445   8.778 -1.1670 -1.9803  0.3795
  301MOL0     H40618   8.540   3.569   8.758  1.1862 -0.4185  0.8322
  301MOL0     H40619   6.908   3.563   7.876  0.0428  1.2175  0.0728
  301MOL0     H40620   6.656   3.576   7.912  3.2615  2.4330 -0.4326
  301MOL0     H40621   6.295   3.490   7.975  2.1022 -0.8377  1.8860
  301MOL0     H40622   6.040   3.543   8.006 -0.2354  0.3232  2.4506
  301MOL0     H40623   5.838   3.524   8.031  0.4995 -1.4369 -0.7928
  301MOL0     H40624   5.820   3.553   8.200 -1.5401  1.2732 -0.1775
  301MOL0     H40625   5.647   3.363   8.029 -3.5423 -1.0104  1.7473
  301MOL0     H40626   5.598   3.527   8.066 -0.8921  0.1223  1.4529
  301MOL0     H40627   5.602   3.502   8.302 -2.9061 -0.4142  0.5484
  301MOL0     H40628   5.659   3.331   8.278  1.2539  0.9677  0.8140
  301MOL0     H40629   5.392   3.453   8.206  2.4745  1.1518 -0.6782
  301MOL0     H40630   5.461   3.294   8.143  1.9443 -2.0924  1.4156
  301MOL0     H40631   5.294   3.227   8.540 -1.8709 -1.5414 -1.8282
  301MOL0     H40632   6.000   3.159   8.206 -0.0870 -0.1897  1.4604
  301MOL0     H40633   6.157   2.984   8.174  1.3440 -1.3946 -0.3375
  301MOL0     H40634   6.297   3.012   8.071 -2.7265 -1.9704 -0.7630
  301MOL0     H40635   6.301   3.057   8.245 -0.4810  1.0710  1.2942
  302MOL0     O40636   0.467   7.205   9.436 -0.1046  0.1686 -0.3212
  302MOL0     C40637   0.375   7.253   9.500 -0.5110 -0.8491 -0.3722
  302MOL0     O40638   0.380   7.363   9.580 -0.2890 -0.1151 -0.3521
  302MOL0     C40639   0.501   7.420   9.612  0.3942 -0.9677  0.1406
  302MOL0     C40640   0.555   7.407   9.740  0.0658 -0.7279  0.1467
  302MOL0     C40641   0.686   7.458   9.772  0.0047 -0.2228  0.6552
  302MOL0     C40642   0.757   7.529   9.675 -0.0883  1.0195 -0.5698
  302MOL0     O40643   0.889   7.561   9.686  0.0829 -0.5191 -0.0365
  302MOL0     C40644   0.974   7.452   9.693  1.0063  0.8026  0.5517
  302MOL0     C40645   1.104   7.500   9.747  0.1691 -0.0951 -0.4704
  302MOL0     C40646   1.191   7.381   9.768  0.0254 -0.0788 -0.2662
  302MOL0     C40647   1.331   7.434   9.812  0.4674 -0.0141  0.5977
  302MOL0     C40648   1.451   7.334   9.830 -0.7101  0.8151  0.0919
  302MOL0     C40649   1.396   7.197   9.872  0.0057  0.4990  0.9211
  302MOL0     C40650   1.491   7.081   9.847  0.0608 -0.8539 -0.3192
  302MOL0     C40651   1.567   7.036   9.968 -0.1632  0.7273  0.6659
  302MOL0     N40652   1.621   6.904   9.946  0.4432 -1.0620  0.0437
  302MOL0     C40653   1.709   6.881   9.844 -0.1736 -0.9304 -0.5714
  302MOL0     C40654   1.751   6.756   9.872 -0.0175  0.8180  0.7807
  302MOL0     C40655   1.853   6.676   9.798 -0.0045  0.1763  0.0160
  302MOL0     C40656   1.986   6.666   9.878  0.2214  0.6574  0.0387
  302MOL0     C40657   2.053   6.804   9.885  0.0168  0.0833  0.4210
  302MOL0     C40658   2.202   6.786   9.918  0.4903 -0.6711  0.6419
  302MOL0     O40659   2.275   6.701   9.826 -0.4923  0.1093  0.2789
  302MOL0     C40660   2.380   6.620   9.863 -0.2945  0.7642  0.5425
  302MOL0     C40661   2.442   6.553   9.757 -0.5626  0.2019  0.8322
  302MOL0     C40662   2.558   6.476   9.774  0.0181  0.3697  0.8825
  302MOL0     C40663   2.619   6.469   9.895  0.3151  0.2842  0.6682
  302MOL0     C40664   2.749   6.401   9.900  0.3262  0.0386 -0.3003
  302MOL0     O40665   2.803   6.402  10.024  0.4788 -0.8737 -0.1599
  302MOL0     C40666   2.940   6.387  10.033 -0.1935 -0.3903  0.1099
  302MOL0     C40667   3.004   6.465  10.129  0.8635  0.4944  0.2950
  302MOL0     C40668   3.144   6.488  10.130 -0.1105  0.3345 -0.0521
  302MOL0     C40669   3.225   6.411  10.039  0.2487 -0.8651 -0.6721
  302MOL0     O40670   3.365   6.412  10.039  1.2333 -0.2399  0.9920
  302MOL0     C40671   3.435   6.485  10.138 -0.0419  0.6439  0.1723
  302MOL0     C40672   3.583   6.471  10.092  1.3968  0.4882 -0.8770
  302MOL0     C40673   3.672   6.504  10.209  0.8237 -0.7753  0.0407
  302MOL0     C40674   3.811   6.537  10.161 -0.9005 -0.4781 -0.7035
  302MOL0     C40675   3.906   6.548  10.280  0.1603  0.1283  0.1472
  302MOL0     C40676   4.032   6.636  10.239 -0.2569  0.0043  0.1955
  302MOL0     C40677   4.112   6.671  10.367  0.9107  0.2812 -0.0493
  302MOL0     C40678   4.250   6.697  10.342 -1.6418 -0.6029 -0.2095
  302MOL0    Cl40679   4.314   6.792  10.477  0.4215  0.2406  0.0438
  302MOL0     C40680   3.154   6.326   9.948  0.1969  0.2455  0.0589
  302MOL0     C40681   3.019   6.316   9.946 -0.4236 -1.0257  0.4174
  302MOL0     O40682   2.807   6.374   9.795 -0.2882 -0.3819  0.1177
  302MOL0     C40683   2.558   6.530  10.007 -0.8726 -0.4303 -0.0016
  302MOL0     C40684   2.437   6.607   9.993 -0.5367 -0.3922  0.4003
  302MOL0     N40685   1.676   6.706   9.973 -0.0931 -0.0254 -0.5991
  302MOL0     N40686   1.600   6.798  10.019  0.3316 -0.3363 -0.5521
  302MOL0     C40687   0.698   7.545   9.548  0.5958 -0.6366 -0.1986
  302MOL0     C40688   0.580   7.491   9.515  0.7155  0.9288 -0.4065
  302MOL0     C40689   0.234   7.208   9.482 -0.6495  0.0152  0.4792
  302MOL0     C40690   0.138   7.309   9.467 -1.0107 -1.2848  0.0945
  302MOL0     C40691   0.007   7.267   9.428  0.1054  0.2859 -0.5951
  302MOL0     C40692  -0.030   7.135   9.421  0.3627  0.0083  0.1026
  302MOL0     O40693  -0.161   7.121   9.372 -0.1716  0.5593 -0.5551
  302MOL0     C40694  -0.214   6.988   9.375  0.4074  0.5392  0.9434
  302MOL0     C40695  -0.360   6.999   9.332  0.5147 -0.0957  0.4440
  302MOL0     C40696  -0.414   6.859   9.305  0.2005  0.5854  0.0899
  302MOL0     C40697  -0.569   6.855   9.276 -0.5843 -0.3181  0.1938
  302MOL0     C40698  -0.659   6.902   9.381  0.4646  0.4030  0.1102
  302MOL0     C40699  -0.717   6.950   9.478 -0.7475  0.5983 -0.6518
  302MOL0     C40700   0.067   7.038   9.451  0.1159  0.2109 -0.0693
  302MOL0     C40701   0.198   7.075   9.487  0.3163  0.9242  0.5110
  302MOL0     C40702   0.291   6.953   9.514  0.4911 -0.6797  0.6905
  302MOL0     H40703   0.506   7.355   9.821 -1.7815 -0.0002 -0.4576
  302MOL0     H40704   0.722   7.425   9.868 -1.3083 -2.2880  0.5021
  302MOL0     H40705   0.940   7.373   9.761  2.2087 -0.5380 -0.3617
  302MOL0     H40706   0.976   7.419   9.589  1.3228  1.6768  0.2699
  302MOL0     H40707   1.087   7.552   9.842 -0.9545 -1.6399  0.2172
  302MOL0     H40708   1.152   7.563   9.672  0.7905 -1.0855 -0.9249
  302MOL0     H40709   1.206   7.310   9.686 -0.0334 -0.3861 -0.0139
  302MOL0     H40710   1.151   7.322   9.852 -0.9295  0.2914 -0.4532
  302MOL0     H40711   1.370   7.515   9.750 -1.4327  0.1917 -0.3935
  302MOL0     H40712   1.304   7.474   9.911  1.1589  1.0871  0.3520
  302MOL0     H40713   1.508   7.323   9.737  0.2129  1.0801  0.6145
  302MOL0     H40714   1.526   7.367   9.902 -1.3365  1.9545  0.2420
  302MOL0     H40715   1.370   7.200   9.978 -1.9506  1.9756  0.4583
  302MOL0     H40716   1.303   7.171   9.820  1.2690 -2.4425 -0.0487
  302MOL0     H40717   1.570   7.091   9.772  0.6411 -2.5095  0.0338
  302MOL0     H40718   1.432   6.998   9.807 -0.0008 -0.5107 -0.9553
  302MOL0     H40719   1.641   7.111   9.997  0.8822  0.3404 -0.8384
  302MOL0     H40720   1.491   7.031  10.047 -0.1456 -0.7789  0.6099
  302MOL0     H40721   1.731   6.948   9.761  2.9619 -1.0381  0.0443
  302MOL0     H40722   1.818   6.574   9.783  0.3991  0.0354  0.0225
  302MOL0     H40723   1.865   6.709   9.694  2.2051 -0.5298  0.0029
  302MOL0     H40724   1.961   6.627   9.977  1.0351  2.4068  0.9878
  302MOL0     H40725   2.049   6.594   9.825  2.2635  2.3137  0.0804
  302MOL0     H40726   2.007   6.874   9.955 -0.4371 -1.2215  1.4682
  302MOL0     H40727   2.041   6.859   9.792  2.0143 -0.8506 -0.4460
  302MOL0     H40728   2.223   6.762  10.023  3.3281 -0.3192  0.2372
  302MOL0     H40729   2.243   6.886   9.901  0.5102 -0.9233 -0.9175
  302MOL0     H40730   2.391   6.563   9.661  3.9748  0.2004 -1.8609
  302MOL0     H40731   2.590   6.417   9.689 -0.7684  0.0808  0.7724
  302MOL0     H40732   2.941   6.522  10.198  0.4253 -1.1960  1.3505
  302MOL0     H40733   3.179   6.558  10.205 -0.3095 -0.2375  0.5882
  302MOL0     H40734   3.415   6.592  10.147  3.6850  1.9247 -3.6718
  302MOL0     H40735   3.417   6.437  10.235  3.7528 -0.0578  0.7113
  302MOL0     H40736   3.609   6.367  10.075 -1.6092 -1.0688  2.5697
  302MOL0     H40737   3.599   6.534  10.004 -0.0521  2.3500  0.1018
  302MOL0     H40738   3.643   6.586  10.275 -1.1800 -2.0006  0.7858
  302MOL0     H40739   3.684   6.422  10.281  0.2902 -1.6290 -0.8044
  302MOL0     H40740   3.819   6.633  10.111  2.1802 -0.4487 -0.3526
  302MOL0     H40741   3.847   6.456  10.097 -1.6542 -1.4364  0.0454
  302MOL0     H40742   3.939   6.449  10.311 -0.8064 -0.6846 -1.3305
  302MOL0     H40743   3.836   6.599  10.347 -4.3391  0.6660 -4.3083
  302MOL0     H40744   4.085   6.590  10.156 -0.9563 -2.7957  1.1700
  302MOL0     H40745   3.994   6.727  10.191  0.6161  0.3786  0.1874
  302MOL0     H40746   4.119   6.595  10.445  1.1138  0.3938  0.0406
  302MOL0     H40747   4.059   6.761  10.401  1.2391  0.9538 -1.2424
  302MOL0     H40748   4.308   6.604  10.332  0.0212  0.3921 -0.1027
  302MOL0     H40749   4.278   6.759  10.257  0.1259  1.7499  1.9225
  302MOL0     H40750   3.217   6.276   9.876  0.9785  0.7664  0.3632
  302MOL0     H40751   2.993   6.243   9.870  1.1174 -1.0095 -0.1794
  302MOL0     H40752   2.605   6.527  10.105 -0.2867  2.9577 -0.0593
  302MOL0     H40753   2.393   6.660  10.077 -1.6643  1.0230 -1.0160
  302MOL0     H40754   0.749   7.592   9.465  3.4234 -1.6928  0.8019
  302MOL0     H40755   0.532   7.508   9.419 -0.3774  0.6293  0.0794
  302MOL0     H40756   0.159   7.414   9.488  0.3564 -1.6095  0.4707
  302MOL0     H40757  -0.078   7.334   9.430 -2.8717 -3.0486  3.3144
  302MOL0     H40758  -0.201   6.936   9.470  2.3900 -1.0630 -0.1249
  302MOL0     H40759  -0.170   6.930   9.293 -5.3891 -0.3606 -2.0006
  302MOL0     H40760  -0.360   7.046   9.233 -0.8748  0.3668  0.6523
  302MOL0     H40761  -0.417   7.053   9.408 -0.6463 -1.0532  0.2881
  302MOL0     H40762  -0.392   6.794   9.390 -0.6888 -0.8419 -0.7268
  302MOL0     H40763  -0.356   6.809   9.227  2.1053 -1.0524  2.4222
  302MOL0     H40764  -0.585   6.918   9.188 -1.4026  0.6185  0.9943
  302MOL0     H40765  -0.592   6.751   9.249  3.2923 -1.1309 -0.7157
  302MOL0     H40766  -0.764   6.968   9.573 -0.1616  0.1638 -0.2685
  302MOL0     H40767   0.043   6.933   9.437 -0.7382 -0.0342  2.5830
  302MOL0     H40768   0.305   6.942   9.622 -0.9419 -0.2354  0.9456
  302MOL0     H40769   0.242   6.860   9.483 -1.8984  0.2629  1.3713
  302MOL0     H40770   0.387   6.966   9.463 -0.1375 -1.0546 -0.6153
  303MOL0     O40771   1.431   4.068   1.361  0.0999 -0.0258  0.6839
  303MOL0     C40772   1.393   4.177   1.397  0.3663  0.4473 -0.5771
  303MOL0     O40773   1.477   4.282   1.430 -0.2723 -0.2028  0.4443
  303MOL0     C40774   1.615   4.280   1.419 -0.1098 -0.8597  0.8673
  303MOL0     C40775   1.681   4.352   1.519 -0.0817  0.1978  0.2987
  303MOL0     C40776   1.819   4.348   1.539 -0.0245 -0.2765  0.3323
  303MOL0     C40777   1.897   4.279   1.443  0.4141  0.5021 -0.0512
  303MOL0     O40778   2.030   4.282   1.464 -0.5456  0.3255 -0.7513
  303MOL0     C40779   2.108   4.322   1.352  0.0494  0.7715 -0.9144
  303MOL0     C40780   2.269   4.297   1.375 -0.4720  0.1108 -0.4925
  303MOL0     C40781   2.353   4.336   1.253  0.0733 -0.0237 -0.1569
  303MOL0     C40782   2.504   4.309   1.281 -0.4787  0.0466 -0.3949
  303MOL0     C40783   2.597   4.358   1.164  0.7537 -0.6582 -1.0808
  303MOL0     C40784   2.745   4.368   1.201  0.1033 -0.5643 -0.3925
  303MOL0     C40785   2.820   4.394   1.080  0.0886 -0.3137 -0.2571
  303MOL0     C40786   2.961   4.347   1.106 -0.5722  0.5124  0.0806
  303MOL0     N40787   3.048   4.418   1.011  0.7729 -0.2466 -0.2453
  303MOL0     C40788   3.057   4.384   0.875  0.2034 -0.6222 -0.3147
  303MOL0     C40789   3.138   4.492   0.827  0.3971 -0.0788 -0.2317
  303MOL0     C40790   3.163   4.514   0.686  0.0461 -0.1876  0.0802
  303MOL0     C40791   3.166   4.659   0.646 -0.6074  0.9774  0.0593
  303MOL0     C40792   3.202   4.688   0.499  0.4311 -0.2668  0.2759
  303MOL0     C40793   3.134   4.815   0.461  1.0995 -0.3999 -0.4256
  303MOL0     O40794   3.161   4.867   0.336  0.8850 -0.6411  0.5840
  303MOL0     C40795   3.296   4.889   0.312  0.2849  0.6116 -0.6034
  303MOL0     C40796   3.377   4.953   0.410  0.0514  0.6500 -0.7724
  303MOL0     C40797   3.511   4.962   0.384  0.6317  0.2168  0.1788
  303MOL0     C40798   3.565   4.927   0.259  0.2294 -0.0690 -0.3741
  303MOL0     C40799   3.719   4.917   0.234 -0.3645 -0.8904  0.2245
  303MOL0     O40800   3.800   4.914   0.343 -0.4868 -0.0644  0.3149
  303MOL0     C40801   3.934   4.904   0.324 -0.1191  0.0051  0.0750
  303MOL0     C40802   3.996   5.010   0.276  0.3430 -0.4569 -0.2183
  303MOL0     C40803   4.128   5.003   0.240  0.1101  0.2918 -0.3533
  303MOL0     C40804   4.199   4.884   0.263  0.0156  0.3948  0.7958
  303MOL0     O40805   4.332   4.853   0.237 -0.3286 -0.0461  0.0951
  303MOL0     C40806   4.421   4.942   0.175 -0.5103 -0.7878 -0.5024
  303MOL0     C40807   4.557   4.867   0.193  0.2737 -0.2471 -0.4381
  303MOL0     C40808   4.668   4.939   0.113 -0.2342  0.4348 -0.3060
  303MOL0     C40809   4.710   5.086   0.141  0.6941  0.5573 -0.1710
  303MOL0     C40810   4.821   5.134   0.044 -0.0654  0.0366 -0.1014
  303MOL0     C40811   4.954   5.055   0.058  0.0874  0.2406 -0.4503
  303MOL0     C40812   5.038   5.092  -0.059 -0.2963  0.4938 -0.3064
  303MOL0     C40813   5.177   5.031  -0.037 -0.0919 -0.2230 -0.4385
  303MOL0    Cl40814   5.274   5.118   0.079 -0.6788 -0.0044 -0.0501
  303MOL0     C40815   4.142   4.779   0.329 -0.2638  0.1631 -0.7385
  303MOL0     C40816   4.006   4.785   0.359  0.0848  0.0270  0.8068
  303MOL0     O40817   3.752   4.912   0.111 -0.3854  0.0326 -0.4792
  303MOL0     C40818   3.480   4.874   0.163  0.8693 -0.2955 -0.0340
  303MOL0     C40819   3.342   4.857   0.188  0.3463 -0.0055  0.5191
  303MOL0     N40820   3.185   4.559   0.935  0.7708 -0.1268 -0.1403
  303MOL0     N40821   3.128   4.519   1.046 -0.2691 -0.0175  0.4810
  303MOL0     C40822   1.831   4.204   1.347 -0.1007 -0.1887  0.6861
  303MOL0     C40823   1.693   4.200   1.340 -0.1420 -0.3184  0.3205
  303MOL0     C40824   1.248   4.193   1.405  0.3481  1.2732 -0.3067
  303MOL0     C40825   1.199   4.325   1.419  0.0701 -0.2245  0.1479
  303MOL0     C40826   1.061   4.356   1.421  0.5399 -0.0299  0.4325
  303MOL0     C40827   0.963   4.254   1.401 -0.8052 -0.8170  0.6683
  303MOL0     O40828   0.831   4.276   1.405 -0.5507 -0.0450 -0.3530
  303MOL0     C40829   0.789   4.389   1.319 -0.4592 -0.6611 -0.3597
  303MOL0     C40830   0.652   4.369   1.254  0.4261  0.4534 -1.1259
  303MOL0     C40831   0.541   4.335   1.353  0.7578  0.1380  0.3845
  303MOL0     C40832   0.397   4.340   1.296 -0.1762  0.5599 -0.3380
  303MOL0     C40833   0.316   4.227   1.330 -0.5541  0.8085 -0.0958
  303MOL0     C40834   0.224   4.146   1.345  0.4108 -0.6252 -0.2619
  303MOL0     C40835   1.010   4.124   1.377 -0.1577  0.3137 -0.2709
  303MOL0     C40836   1.148   4.091   1.383 -1.1322  0.0335  0.1731
  303MOL0     C40837   1.176   3.950   1.383  0.1706 -0.3973  0.6806
  303MOL0     H40838   1.616   4.407   1.586 -0.1294  1.3365 -0.6450
  303MOL0     H40839   1.862   4.401   1.623 -0.1310  1.5122 -0.6905
  303MOL0     H40840   2.072   4.262   1.268  1.1291  0.5137 -1.2077
  303MOL0     H40841   2.087   4.428   1.337 -1.8181  0.4016 -1.1679
  303MOL0     H40842   2.288   4.195   1.408  0.0835  0.1386 -0.7149
  303MOL0     H40843   2.293   4.365   1.458 -0.8524 -1.8092  1.2508
  303MOL0     H40844   2.331   4.441   1.233 -2.1648 -0.2291  0.8895
  303MOL0     H40845   2.310   4.276   1.172 -0.6375 -1.6884  1.3835
  303MOL0     H40846   2.536   4.359   1.373  1.4983  1.0778 -1.5717
  303MOL0     H40847   2.527   4.206   1.309 -2.7957  0.3060  3.1652
  303MOL0     H40848   2.577   4.291   1.081  0.1578 -1.3080 -0.4306
  303MOL0     H40849   2.571   4.462   1.142 -0.7481 -0.4814  1.1669
  303MOL0     H40850   2.768   4.452   1.267 -1.2568 -1.4288  1.2626
  303MOL0     H40851   2.780   4.278   1.252  2.3838  0.0067 -0.8277
  303MOL0     H40852   2.820   4.502   1.064 -1.8649 -0.3710 -0.8462
  303MOL0     H40853   2.772   4.342   0.997  1.8323 -1.5121 -0.5792
  303MOL0     H40854   2.993   4.366   1.209 -1.4551  3.9949 -0.1642
  303MOL0     H40855   2.968   4.240   1.081 -0.6368  0.3470  0.7456
  303MOL0     H40856   2.998   4.314   0.817  1.6840 -0.6527 -1.8737
  303MOL0     H40857   3.256   4.467   0.651 -0.9882 -0.5874 -2.2907
  303MOL0     H40858   3.087   4.468   0.624  0.2718 -1.0294  0.4127
  303MOL0     H40859   3.062   4.690   0.656 -1.5540 -1.1510 -2.1729
  303MOL0     H40860   3.235   4.722   0.704 -0.1820  1.0255 -0.4816
  303MOL0     H40861   3.163   4.606   0.439 -1.2497  1.8100 -1.6680
  303MOL0     H40862   3.311   4.688   0.490  0.5145  1.8367  0.6582
  303MOL0     H40863   3.147   4.886   0.543  0.7313 -0.0627 -0.6517
  303MOL0     H40864   3.027   4.790   0.467  0.9062 -0.4121 -2.8698
  303MOL0     H40865   3.337   4.994   0.502 -0.9972  1.3226 -1.5047
  303MOL0     H40866   3.569   5.006   0.464 -1.6258  1.4428  1.2249
  303MOL0     H40867   3.929   5.096   0.263 -0.2237 -0.6157  1.4207
  303MOL0     H40868   4.177   5.092   0.201 -3.0794  2.8318  0.9003
  303MOL0     H40869   4.400   4.948   0.068  2.5305  1.0541 -1.1135
  303MOL0     H40870   4.429   5.043   0.216 -3.3564 -0.6894 -0.0368
  303MOL0     H40871   4.586   4.853   0.298  3.0178  0.4505 -1.0115
  303MOL0     H40872   4.539   4.766   0.154 -0.1980 -0.8836  1.3186
  303MOL0     H40873   4.751   4.868   0.112  0.1144  0.8106 -2.7184
  303MOL0     H40874   4.631   4.946   0.010 -1.0709  0.5946 -0.0024
  303MOL0     H40875   4.740   5.096   0.246 -0.7672  0.6792  0.2503
  303MOL0     H40876   4.619   5.144   0.127 -0.4938 -1.1416  0.1570
  303MOL0     H40877   4.836   5.239   0.067 -1.1349 -0.0579  1.1628
  303MOL0     H40878   4.790   5.122  -0.060 -3.6457  0.6329  0.7478
  303MOL0     H40879   4.998   5.066   0.157 -2.5654 -0.2665  0.8774
  303MOL0     H40880   4.938   4.949   0.038  1.4034 -0.7441  3.0790
  303MOL0     H40881   5.049   5.200  -0.071 -0.5338  0.7998  1.7808
  303MOL0     H40882   4.982   5.050  -0.144 -2.6548 -0.5428  1.6131
  303MOL0     H40883   5.172   4.927  -0.002  2.7197  0.5494  2.8350
  303MOL0     H40884   5.236   5.040  -0.129 -0.4661  2.7507 -0.4827
  303MOL0     H40885   4.203   4.690   0.342  1.0029  1.1124  0.0024
  303MOL0     H40886   3.952   4.708   0.413 -3.4712  1.9543  0.3069
  303MOL0     H40887   3.521   4.844   0.067  0.1730  2.4932 -1.3330
  303MOL0     H40888   3.276   4.818   0.112 -1.0772  0.1651  1.6171
  303MOL0     H40889   1.894   4.140   1.286  0.6031  2.1964 -1.2343
  303MOL0     H40890   1.651   4.132   1.266 -1.3932  1.5265 -0.7623
  303MOL0     H40891   1.265   4.411   1.422 -1.0504  0.7213 -1.1296
  303MOL0     H40892   1.032   4.456   1.451  1.1808 -0.2015  1.6784
  303MOL0     H40893   0.862   4.409   1.240  0.0417 -1.6869 -0.1736
  303MOL0     H40894   0.777   4.481   1.377  0.6502 -0.9119  0.2859
  303MOL0     H40895   0.666   4.281   1.191  0.0639  0.9206 -1.8648
  303MOL0     H40896   0.614   4.448   1.190 -3.3504 -0.0530  0.1779
  303MOL0     H40897   0.549   4.418   1.424 -0.2230 -1.1066  2.0337
  303MOL0     H40898   0.551   4.240   1.406 -0.8283  0.6448  1.6878
  303MOL0     H40899   0.349   4.436   1.316 -0.2695  0.2222  1.2036
  303MOL0     H40900   0.415   4.337   1.188 -2.8394 -2.8074 -0.8616
  303MOL0     H40901   0.159   4.064   1.368  1.5621 -2.1291 -2.1235
  303MOL0     H40902   0.943   4.042   1.356  0.7917 -0.0107 -2.3255
  303MOL0     H40903   1.220   3.940   1.483 -2.4050 -2.1177  1.7425
  303MOL0     H40904   1.086   3.888   1.383  0.9016 -1.4826  0.9306
  303MOL0     H40905   1.237   3.920   1.297 -1.8757 -0.4609 -0.8191
  304MOL0     O40906   1.641   5.377   9.389 -0.2226  0.6483 -0.2316
  304MOL0     C40907   1.558   5.370   9.304 -0.1251 -0.3523 -0.2305
  304MOL0     O40908   1.589   5.398   9.178 -0.1011  0.1748 -0.1692
  304MOL0     C40909   1.722   5.421   9.145  0.5791 -0.7403 -0.3985
  304MOL0     C40910   1.822   5.319   9.130  0.8229 -0.4968  0.1575
  304MOL0     C40911   1.957   5.356   9.119  0.4682  0.0744 -0.1760
  304MOL0     C40912   1.992   5.488   9.110 -0.7654 -0.0957  0.2199
  304MOL0     O40913   2.115   5.540   9.072  0.3015 -0.2658  0.6788
  304MOL0     C40914   2.215   5.449   9.032 -0.4950  0.4386  0.7560
  304MOL0     C40915   2.333   5.525   8.962  1.1607  0.2250  1.3300
  304MOL0     C40916   2.412   5.605   9.063 -0.9206  0.5889  0.4749
  304MOL0     C40917   2.521   5.693   9.009 -1.2523  0.8664 -0.2522
  304MOL0     C40918   2.626   5.618   8.930  0.5926  0.7416 -0.1085
  304MOL0     C40919   2.743   5.703   8.882  0.2369  0.3083  0.5910
  304MOL0     C40920   2.858   5.624   8.819  0.2200  0.2170 -0.0302
  304MOL0     C40921   2.984   5.715   8.805 -0.2677  0.2267  0.5604
  304MOL0     N40922   3.095   5.640   8.744 -0.0501  0.5778 -0.7527
  304MOL0     C40923   3.144   5.647   8.616  0.1540 -0.1940 -0.1354
  304MOL0     C40924   3.264   5.588   8.619 -1.3280  0.6454 -0.9591
  304MOL0     C40925   3.344   5.567   8.495  0.1603 -0.3870  0.5731
  304MOL0     C40926   3.484   5.633   8.508  0.1962  0.0333  0.5219
  304MOL0     C40927   3.558   5.621   8.378  0.3996  0.9972 -0.2816
  304MOL0     C40928   3.709   5.627   8.411 -0.3656 -0.1011  0.1974
  304MOL0     O40929   3.755   5.510   8.477 -0.0706  0.4047  0.3702
  304MOL0     C40930   3.892   5.482   8.471  0.5995  0.2169 -0.4031
  304MOL0     C40931   3.940   5.365   8.531  0.1210  0.4204 -0.8740
  304MOL0     C40932   4.074   5.334   8.527  0.2944 -0.0340  0.6829
  304MOL0     C40933   4.169   5.430   8.477  0.5493 -0.4941 -0.2327
  304MOL0     C40934   4.311   5.406   8.470  0.2196 -0.7702 -0.5351
  304MOL0     O40935   4.394   5.508   8.417  0.4508  0.1440 -0.1219
  304MOL0     C40936   4.530   5.490   8.392  0.2013 -0.1736  1.0625
  304MOL0     C40937   4.602   5.606   8.380 -0.6889 -0.0244  0.0908
  304MOL0     C40938   4.744   5.594   8.379  0.2080 -0.6145  0.8651
  304MOL0     C40939   4.815   5.479   8.363  0.6363  0.3238 -0.4919
  304MOL0     O40940   4.945   5.463   8.365 -0.6516 -0.2667  0.0318
  304MOL0     C40941   4.997   5.394   8.249  0.5955  0.0831  0.3261
  304MOL0     C40942   5.120   5.320   8.288 -0.3022  0.7873 -0.2315
  304MOL0     C40943   5.246   5.404   8.296  0.4797 -0.6045  0.3639
  304MOL0     C40944   5.356   5.350   8.214  0.2432  0.6655 -0.4618
  304MOL0     C40945   5.491   5.431   8.239  0.2735 -0.1962  0.1958
  304MOL0     C40946   5.601   5.395   8.144 -0.4105 -0.1742 -0.3729
  304MOL0     C40947   5.721   5.499   8.141 -0.3099  1.2384  0.4269
  304MOL0     C40948   5.856   5.428   8.136  0.3795  0.3769  0.1824
  304MOL0    Cl40949   5.982   5.543   8.101 -0.3733  0.4261 -0.2371
  304MOL0     C40950   4.731   5.364   8.367 -1.1754  0.0445  0.5364
  304MOL0     C40951   4.591   5.363   8.372  0.3581  0.0896 -0.1569
  304MOL0     O40952   4.344   5.295   8.515 -0.3715 -0.0858 -0.2693
  304MOL0     C40953   4.121   5.556   8.436 -0.1273 -0.0702 -0.9180
  304MOL0     C40954   3.984   5.581   8.439 -0.5849 -0.1376  0.4829
  304MOL0     N40955   3.287   5.532   8.748 -0.4198  0.0902  0.3336
  304MOL0     N40956   3.191   5.575   8.824  0.9263 -0.3179  0.0592
  304MOL0     C40957   1.896   5.588   9.128  0.5848  0.1425  1.2152
  304MOL0     C40958   1.762   5.552   9.145 -0.4942  0.2631  0.1132
  304MOL0     C40959   1.417   5.343   9.339 -0.5448  0.6675 -0.5898
  304MOL0     C40960   1.314   5.351   9.245  0.2446  0.0371  0.0454
  304MOL0     C40961   1.181   5.332   9.285 -0.1976 -0.1678  0.7053
  304MOL0     C40962   1.143   5.302   9.415 -0.0449  0.7912  0.2854
  304MOL0     O40963   1.016   5.289   9.469  0.4333  0.5953  0.4538
  304MOL0     C40964   0.901   5.333   9.389 -0.4550 -0.4566 -0.1113
  304MOL0     C40965   0.770   5.312   9.468 -0.3481 -0.5048  0.0266
  304MOL0     C40966   0.750   5.165   9.514  0.0246 -0.7239  0.4647
  304MOL0     C40967   0.605   5.133   9.546  0.0388 -0.4001 -0.1630
  304MOL0     C40968   0.577   4.988   9.536  0.0039 -0.5069  0.5384
  304MOL0     C40969   0.567   4.872   9.497  0.1361 -0.6155 -0.0696
  304MOL0     C40970   1.241   5.289   9.507 -0.6783 -0.2304  0.0223
  304MOL0     C40971   1.373   5.312   9.474  0.6443  0.6282 -0.7441
  304MOL0     C40972   1.472   5.287   9.590  0.1858  0.2878  0.2084
  304MOL0     H40973   1.793   5.215   9.146  0.0236 -0.3074  0.0061
  304MOL0     H40974   2.036   5.282   9.118  2.0908  1.7223  0.0734
  304MOL0     H40975   2.241   5.406   9.129 -2.0228 -0.0578  0.9843
  304MOL0     H40976   2.180   5.374   8.960  2.4246 -0.8210  0.5026
  304MOL0     H40977   2.299   5.587   8.878 -2.2695 -3.2938 -0.2097
  304MOL0     H40978   2.390   5.447   8.911 -1.8558 -2.9572  2.4709
  304MOL0     H40979   2.468   5.540   9.131  0.4093  2.3623  1.1585
  304MOL0     H40980   2.346   5.674   9.118 -2.8511  0.4448 -1.5150
  304MOL0     H40981   2.476   5.773   8.950 -2.2229 -0.6720 -1.6949
  304MOL0     H40982   2.578   5.748   9.084  0.4782  0.0834 -0.9335
  304MOL0     H40983   2.661   5.531   8.986 -0.2782  1.0705  0.9787
  304MOL0     H40984   2.571   5.582   8.842 -5.2300  1.4458  2.7496
  304MOL0     H40985   2.704   5.772   8.806  0.9333 -1.1743 -1.1848
  304MOL0     H40986   2.776   5.756   8.972 -3.6580  1.5139  1.4924
  304MOL0     H40987   2.822   5.585   8.723  0.7842  1.2317 -0.6656
  304MOL0     H40988   2.890   5.558   8.900  3.0401  1.3090 -0.1732
  304MOL0     H40989   2.956   5.810   8.758  0.8199  0.4192  0.2793
  304MOL0     H40990   3.016   5.739   8.907  1.0448 -0.0809  0.2388
  304MOL0     H40991   3.106   5.695   8.526  1.4665 -2.6654 -2.1440
  304MOL0     H40992   3.362   5.460   8.480  2.4720 -0.6003  3.8860
  304MOL0     H40993   3.283   5.616   8.418 -3.6142 -1.5344  2.6003
  304MOL0     H40994   3.473   5.736   8.542  2.8369  0.9680 -1.2408
  304MOL0     H40995   3.541   5.582   8.586 -1.0861  1.8603  2.7662
  304MOL0     H40996   3.529   5.705   8.314  4.2057  1.7578 -1.3080
  304MOL0     H40997   3.531   5.536   8.315 -1.9137  0.9975  0.6400
  304MOL0     H40998   3.727   5.709   8.481  0.6019 -1.2562  1.3477
  304MOL0     H40999   3.771   5.645   8.324 -0.1286 -2.7603 -0.2644
  304MOL0     H41000   3.869   5.299   8.580  0.3947  0.8591  0.1302
  304MOL0     H41001   4.104   5.245   8.581 -0.6067 -1.2667 -0.7501
  304MOL0     H41002   4.550   5.701   8.385  0.7439  0.9618 -2.1842
  304MOL0     H41003   4.806   5.683   8.390  0.0966 -0.4691  0.3414
  304MOL0     H41004   4.931   5.321   8.199  0.8729  0.9306 -1.3721
  304MOL0     H41005   5.019   5.467   8.170 -2.7394 -0.9660 -1.8102
  304MOL0     H41006   5.109   5.275   8.387  0.4924 -0.4096 -0.6715
  304MOL0     H41007   5.145   5.239   8.219  1.4019  2.0999 -1.2589
  304MOL0     H41008   5.235   5.505   8.256 -1.8369 -0.7556  0.4710
  304MOL0     H41009   5.283   5.411   8.398  3.5234 -0.3874 -0.6493
  304MOL0     H41010   5.326   5.347   8.109  0.4751 -1.1041 -0.5123
  304MOL0     H41011   5.376   5.246   8.240  1.1949  0.7986 -0.6269
  304MOL0     H41012   5.524   5.408   8.341 -0.4665 -0.3561  0.4023
  304MOL0     H41013   5.478   5.539   8.251  1.5692 -0.1150  1.1042
  304MOL0     H41014   5.637   5.293   8.165 -1.3614 -0.7252 -1.3157
  304MOL0     H41015   5.559   5.387   8.044 -1.2836  4.7721 -0.6234
  304MOL0     H41016   5.707   5.553   8.235 -3.0609  1.8621 -0.2719
  304MOL0     H41017   5.704   5.564   8.055 -4.2645 -1.5902 -1.2302
  304MOL0     H41018   5.886   5.371   8.224  4.4764  0.3505 -1.0196
  304MOL0     H41019   5.854   5.353   8.056 -1.2252  1.6110 -0.9903
  304MOL0     H41020   4.786   5.271   8.354  0.9157  1.2168  0.4614
  304MOL0     H41021   4.533   5.273   8.353 -3.7464  3.0247 -3.5423
  304MOL0     H41022   4.193   5.633   8.411  1.0600 -1.3716 -1.6743
  304MOL0     H41023   3.946   5.682   8.432 -0.5610 -0.2295 -1.2040
  304MOL0     H41024   1.926   5.692   9.125  2.9556 -0.5107 -0.7902
  304MOL0     H41025   1.680   5.623   9.148 -2.2607 -1.7032  0.8832
  304MOL0     H41026   1.333   5.378   9.141 -1.8556 -1.4211 -0.7850
  304MOL0     H41027   1.101   5.332   9.211 -2.6055  2.8773  3.0686
  304MOL0     H41028   0.898   5.272   9.299 -0.4213  0.0791 -0.4841
  304MOL0     H41029   0.916   5.438   9.362  0.7231 -0.9716 -1.5702
  304MOL0     H41030   0.690   5.343   9.402 -1.1604  0.1797  1.2875
  304MOL0     H41031   0.770   5.385   9.550  1.1754  0.4318 -0.7564
  304MOL0     H41032   0.806   5.143   9.605  0.4650  2.9413  1.2445
  304MOL0     H41033   0.777   5.101   9.430  1.6312  0.5648 -0.0617
  304MOL0     H41034   0.584   5.161   9.649  0.0927 -0.1392 -0.2216
  304MOL0     H41035   0.533   5.186   9.482 -0.5933  0.5719  1.3165
  304MOL0     H41036   0.557   4.767   9.478 -2.1763 -0.9452  2.3646
  304MOL0     H41037   1.217   5.254   9.607  0.7331 -3.6422 -0.6887
  304MOL0     H41038   1.433   5.264   9.689  0.6488 -0.8403  0.1508
  304MOL0     H41039   1.540   5.205   9.564  3.2147  2.3188  1.1908
  304MOL0     H41040   1.541   5.368   9.613 -1.5792  1.5531  1.2585
  305MOL0     O41041   7.234   2.036  10.524 -0.8761 -0.5688  0.7359
  305MOL0     C41042   7.153   2.109  10.577  0.5339  0.6445 -0.2635
  305MOL0     O41043   7.175   2.174  10.695 -0.2101  0.4516  0.3425
  305MOL0     C41044   7.305   2.159  10.736  0.7958 -1.1712 -0.0240
  305MOL0     C41045   7.327   2.111  10.859  0.6005  0.0663 -0.3246
  305MOL0     C41046   7.455   2.129  10.918 -0.6731  1.0275  0.2350
  305MOL0     C41047   7.561   2.186  10.853 -0.3861  0.7351  0.3757
  305MOL0     O41048   7.684   2.194  10.912 -0.0449 -0.1758  0.2251
  305MOL0     C41049   7.797   2.243  10.832 -0.0568  0.7845  0.2641
  305MOL0     C41050   7.914   2.277  10.926  0.3382  0.4977 -0.1363
  305MOL0     C41051   8.051   2.293  10.858  0.2257 -0.7163  0.2495
  305MOL0     C41052   8.142   2.380  10.946 -0.4493  0.3270 -0.3951
  305MOL0     C41053   8.281   2.384  10.880  0.5022 -0.3126 -0.2442
  305MOL0     C41054   8.372   2.461  10.970 -0.4942  1.3975  0.7438
  305MOL0     C41055   8.348   2.609  10.971 -0.8208  0.6106 -0.0890
  305MOL0     C41056   8.423   2.685  11.087 -0.7346  0.3306  0.4078
  305MOL0     N41057   8.570   2.699  11.057  0.5664  0.1708 -0.8431
  305MOL0     C41058   8.660   2.601  11.092  0.2422  0.3565 -0.2287
  305MOL0     C41059   8.783   2.651  11.067  0.0311  0.2068 -0.4610
  305MOL0     C41060   8.915   2.592  11.119  0.6620  0.3718 -0.1359
  305MOL0     C41061   9.033   2.572  11.024  0.1953 -0.3146  0.6369
  305MOL0     C41062   9.160   2.649  11.066 -0.5564 -0.4088  0.2695
  305MOL0     C41063   9.288   2.590  11.007  0.3372  0.5225  0.4389
  305MOL0     O41064   9.397   2.632  11.093  0.0777  0.1349  0.1582
  305MOL0     C41065   9.510   2.566  11.100 -0.1152 -0.1698 -0.1072
  305MOL0     C41066   9.598   2.597  11.206  0.5573 -0.0513  0.4026
  305MOL0     C41067   9.729   2.537  11.217 -1.0734  0.0624  0.2128
  305MOL0     C41068   9.774   2.453  11.114  0.4085  0.2335  0.1105
  305MOL0     C41069   9.912   2.388  11.120 -0.7417  0.3194  0.5581
  305MOL0     O41070   9.931   2.277  11.046 -0.3158  0.1925  0.8344
  305MOL0     C41071  10.052   2.218  11.046 -0.7118 -1.1974 -0.0233
  305MOL0     C41072  10.159   2.275  10.975  0.4925 -0.2861  0.6196
  305MOL0     C41073  10.288   2.212  10.980 -0.0575  0.0998  0.6242
  305MOL0     C41074  10.303   2.099  11.061  0.2054  0.2747  0.1153
  305MOL0     O41075  10.415   2.030  11.076  0.3545  0.7606  0.2732
  305MOL0     C41076  10.525   2.051  10.986  0.3991 -0.4309  0.8163
  305MOL0     C41077  10.633   1.951  11.026 -0.2653  0.4045  0.1792
  305MOL0     C41078  10.768   1.982  10.964 -0.6312 -0.2344 -0.3364
  305MOL0     C41079  10.867   1.873  10.988 -0.3735  0.3925  0.3679
  305MOL0     C41080  11.014   1.913  10.967  0.1625  0.0863  0.2692
  305MOL0     C41081  11.097   1.812  11.044  1.1528 -0.0833  0.1608
  305MOL0     C41082  11.239   1.867  11.061  0.5277 -0.1098  0.0342
  305MOL0     C41083  11.306   1.751  11.126 -0.7026 -0.1247 -0.7063
  305MOL0    Cl41084  11.458   1.814  11.194  0.1053  0.3278  0.0790
  305MOL0     C41085  10.194   2.053  11.135 -0.6918  1.2880 -0.2590
  305MOL0     C41086  10.069   2.111  11.129  0.2248  0.3330 -0.3951
  305MOL0     O41087   9.995   2.444  11.185  0.1910 -0.0023  0.1375
  305MOL0     C41088   9.683   2.422  11.007 -0.2883 -0.7583 -0.3553
  305MOL0     C41089   9.550   2.473  11.002 -0.0437 -0.4019 -0.3665
  305MOL0     N41090   8.770   2.771  11.005  0.4926 -0.1295 -0.4763
  305MOL0     N41091   8.640   2.799  10.995  0.0473  0.7697 -0.1266
  305MOL0     C41092   7.541   2.209  10.716  0.5944 -0.0780 -0.3464
  305MOL0     C41093   7.412   2.207  10.660 -0.5227  1.0040  0.0420
  305MOL0     C41094   7.008   2.108  10.513  0.0071 -0.8722  0.0431
  305MOL0     C41095   6.992   2.106  10.369  0.5765 -0.3268 -0.5995
  305MOL0     C41096   6.866   2.090  10.315 -1.1438 -0.4889  1.0107
  305MOL0     C41097   6.761   2.114  10.390  0.2593  0.3197  0.1061
  305MOL0     O41098   6.640   2.127  10.324 -0.6368 -0.0118  0.4955
  305MOL0     C41099   6.523   2.159  10.404 -0.1227 -0.1544 -0.2771
  305MOL0     C41100   6.399   2.149  10.310 -0.1508 -0.1740  0.1880
  305MOL0     C41101   6.285   2.226  10.372 -0.0016  1.0978 -0.7967
  305MOL0     C41102   6.227   2.158  10.504  0.1128 -0.2336 -0.5411
  305MOL0     C41103   6.157   2.025  10.488 -0.2215 -0.0011  0.6759
  305MOL0     C41104   6.124   1.911  10.477 -0.3255 -0.2041 -0.3974
  305MOL0     C41105   6.773   2.155  10.530  0.0154  0.6461 -0.0692
  305MOL0     C41106   6.895   2.139  10.593  0.4873  0.1386  0.5767
  305MOL0     C41107   6.886   2.143  10.747 -0.1888  0.5120  0.4171
  305MOL0     H41108   7.247   2.064  10.915 -0.0722 -1.9963 -2.8260
  305MOL0     H41109   7.473   2.106  11.023 -0.5362  0.6179  0.1238
  305MOL0     H41110   7.826   2.158  10.769 -0.4442 -2.1226  3.6509
  305MOL0     H41111   7.778   2.329  10.768  0.7575 -0.5809 -1.9103
  305MOL0     H41112   7.912   2.202  11.005 -0.2275  1.1444  0.4784
  305MOL0     H41113   7.885   2.371  10.974  0.8158  0.9832 -0.7749
  305MOL0     H41114   8.040   2.342  10.761  0.5511  0.5998  0.8584
  305MOL0     H41115   8.095   2.193  10.850  3.8747  0.7775 -0.3738
  305MOL0     H41116   8.101   2.480  10.964 -2.2545 -0.4189 -0.1163
  305MOL0     H41117   8.152   2.324  11.039  1.2792 -1.0003 -1.3284
  305MOL0     H41118   8.315   2.282  10.861  0.4965 -0.5446  0.8990
  305MOL0     H41119   8.266   2.433  10.784  0.1761 -2.3014 -1.2655
  305MOL0     H41120   8.369   2.420  11.071  0.4791  1.3588  0.7665
  305MOL0     H41121   8.470   2.434  10.930 -0.6065 -0.4129  1.5570
  305MOL0     H41122   8.242   2.617  10.997 -0.3335  1.6914  1.8032
  305MOL0     H41123   8.355   2.652  10.870 -1.4365  0.2045 -0.3105
  305MOL0     H41124   8.371   2.778  11.110 -2.5508 -0.7871  0.9906
  305MOL0     H41125   8.409   2.629  11.180 -2.7686  0.1232  0.0134
  305MOL0     H41126   8.644   2.516  11.158 -1.0958  0.4375 -0.4294
  305MOL0     H41127   8.952   2.662  11.196 -1.7269  0.5686  0.9121
  305MOL0     H41128   8.901   2.493  11.165  1.9077 -0.5788 -1.7176
  305MOL0     H41129   9.048   2.465  11.010 -3.4232 -0.7193 -1.7297
  305MOL0     H41130   8.993   2.615  10.931 -0.0201  1.4393  1.5075
  305MOL0     H41131   9.165   2.639  11.175 -0.7690  1.8693  0.5405
  305MOL0     H41132   9.153   2.754  11.035 -0.8458 -0.4737  0.1067
  305MOL0     H41133   9.293   2.620  10.901  0.5000  0.5861  0.4645
  305MOL0     H41134   9.281   2.482  11.020 -0.3304  0.5285  0.1721
  305MOL0     H41135   9.565   2.675  11.274  0.3791  0.6772 -0.4929
  305MOL0     H41136   9.789   2.565  11.303 -0.5425  1.4149 -0.5712
  305MOL0     H41137  10.135   2.365  10.921 -2.6185 -1.3297  0.0708
  305MOL0     H41138  10.368   2.262  10.927 -0.3043  0.7272  0.8424
  305MOL0     H41139  10.497   2.038  10.882  0.0447 -0.1664  0.8773
  305MOL0     H41140  10.569   2.151  10.994 -2.0896  0.8214 -0.2973
  305MOL0     H41141  10.642   1.946  11.135  0.0687 -0.8850  0.1160
  305MOL0     H41142  10.604   1.852  10.990 -2.1392  1.1726 -0.5575
  305MOL0     H41143  10.771   1.992  10.855 -0.5125 -0.3851 -0.3472
  305MOL0     H41144  10.808   2.067  11.020  0.7191 -1.2833  0.3519
  305MOL0     H41145  10.847   1.795  10.915  1.5017 -0.3681  0.6054
  305MOL0     H41146  10.857   1.826  11.087  0.0640 -3.3103 -1.1752
  305MOL0     H41147  11.032   2.011  11.013  1.7629  0.3723 -0.8829
  305MOL0     H41148  11.043   1.916  10.862 -0.3557  0.5226  0.1316
  305MOL0     H41149  11.049   1.797  11.141 -0.5052  1.2791 -0.3840
  305MOL0     H41150  11.098   1.714  10.997  0.3128 -1.4247  2.7646
  305MOL0     H41151  11.245   1.957  11.123  0.1433  1.6339 -2.3134
  305MOL0     H41152  11.286   1.899  10.967  0.8807 -0.5417  0.0588
  305MOL0     H41153  11.241   1.726  11.211  0.9129  1.5971  1.1273
  305MOL0     H41154  11.327   1.664  11.062 -3.1421  0.3725 -2.3216
  305MOL0     H41155  10.209   1.962  11.192  1.9126  1.3785 -0.6556
  305MOL0     H41156   9.981   2.069  11.177  0.1254  1.7535  0.7469
  305MOL0     H41157   9.728   2.360  10.929  3.5642 -0.2831  1.2801
  305MOL0     H41158   9.489   2.439  10.919 -2.0102 -1.6089  1.4433
  305MOL0     H41159   7.623   2.234  10.649  0.4631  0.7202 -0.2206
  305MOL0     H41160   7.404   2.237  10.556 -1.8323 -0.8437 -0.4571
  305MOL0     H41161   7.070   2.103  10.294  0.4563  1.4611 -0.8399
  305MOL0     H41162   6.854   2.067  10.209  0.3367 -1.4581  1.0223
  305MOL0     H41163   6.531   2.261  10.444  0.2068  0.2912 -1.4288
  305MOL0     H41164   6.501   2.087  10.483 -2.9095  0.2382 -0.6027
  305MOL0     H41165   6.377   2.046  10.279  3.5275 -1.3421  0.9705
  305MOL0     H41166   6.423   2.195  10.213  0.3759  1.0394  0.8704
  305MOL0     H41167   6.207   2.244  10.297 -0.0430  2.2012 -0.4988
  305MOL0     H41168   6.322   2.321  10.411  0.1332 -0.3846  3.1216
  305MOL0     H41169   6.308   2.150  10.577 -0.9920 -1.7851  0.5884
  305MOL0     H41170   6.162   2.234  10.549  1.7759  0.6182  0.5395
  305MOL0     H41171   6.072   1.817  10.477 -1.3451  0.2415  3.2206
  305MOL0     H41172   6.677   2.177  10.577  0.1405  0.6438  0.1884
  305MOL0     H41173   6.791   2.098  10.777  0.2794 -0.2713  0.7669
  305MOL0     H41174   6.967   2.080  10.788  0.8901  1.9607  0.5849
  305MOL0     H41175   6.900   2.243  10.789  0.7107  0.2952  0.6641
  306MOL0     O41176   4.464   5.589   3.359  1.0132  0.2776  0.3863
  306MOL0     C41177   4.430   5.529   3.455 -0.1912  0.3749 -0.3776
  306MOL0     O41178   4.516   5.431   3.515 -0.0589 -0.9059  0.6923
  306MOL0     C41179   4.649   5.410   3.480  0.7205  0.2597  0.5551
  306MOL0     C41180   4.730   5.519   3.436 -0.1158 -0.1485  0.1166
  306MOL0     C41181   4.865   5.488   3.402 -0.2279  0.3772 -0.8730
  306MOL0     C41182   4.914   5.354   3.414  0.3005  0.2306  0.1204
  306MOL0     O41183   5.047   5.330   3.384  0.1314 -0.1650  0.5246
  306MOL0     C41184   5.118   5.427   3.300  0.1128  0.4905 -0.0554
  306MOL0     C41185   5.246   5.360   3.248 -0.1044 -0.0115  0.5139
  306MOL0     C41186   5.329   5.454   3.162  0.1209  0.6383 -0.3024
  306MOL0     C41187   5.453   5.379   3.117 -0.3158 -0.0022 -0.2297
  306MOL0     C41188   5.557   5.486   3.075 -0.1021  0.3817 -0.4051
  306MOL0     C41189   5.686   5.450   2.993  0.6992 -0.1463 -0.0472
  306MOL0     C41190   5.750   5.333   3.052  0.0013 -0.7664 -0.1863
  306MOL0     C41191   5.892   5.319   2.992 -0.0257 -0.2094 -0.1283
  306MOL0     N41192   5.960   5.214   3.068 -0.0262  0.0641  0.0076
  306MOL0     C41193   5.966   5.083   3.019 -0.3327 -0.2152 -0.1330
  306MOL0     C41194   6.055   5.028   3.101 -0.5873 -0.6876  0.9967
  306MOL0     C41195   6.122   4.895   3.082 -0.0364 -0.1327  0.8931
  306MOL0     C41196   6.272   4.921   3.065 -0.1173 -0.5414  0.2408
  306MOL0     C41197   6.315   4.982   2.933 -0.4700 -0.0234 -0.1184
  306MOL0     C41198   6.466   4.963   2.913 -0.2004  0.2140  0.0517
  306MOL0     O41199   6.495   4.971   2.771 -0.5455 -0.2402 -0.0509
  306MOL0     C41200   6.621   4.947   2.716 -0.4542  0.2128 -0.3066
  306MOL0     C41201   6.637   4.965   2.579 -0.9806 -0.2688  0.3796
  306MOL0     C41202   6.765   4.965   2.525 -0.5848 -0.5224 -0.2346
  306MOL0     C41203   6.877   4.929   2.603  0.2726 -0.4721 -0.2842
  306MOL0     C41204   7.007   4.916   2.543 -0.4805  0.4099  0.1574
  306MOL0     O41205   7.110   4.911   2.631  0.3357  0.9664  0.0832
  306MOL0     C41206   7.233   4.950   2.597 -0.0946  0.1748  0.4929
  306MOL0     C41207   7.330   4.882   2.661 -0.4553 -0.8115 -0.3583
  306MOL0     C41208   7.462   4.910   2.640 -0.3782  0.3524 -0.2304
  306MOL0     C41209   7.495   5.009   2.542  0.2606  0.4940  0.0607
  306MOL0     O41210   7.631   5.028   2.522 -0.1767  0.1224  0.8083
  306MOL0     C41211   7.672   5.124   2.416 -0.3840  0.3458 -0.7576
  306MOL0     C41212   7.826   5.120   2.406 -0.6516 -0.7224  0.8091
  306MOL0     C41213   7.893   5.203   2.517 -0.2499 -0.2252 -0.4303
  306MOL0     C41214   8.031   5.147   2.552  0.0710  0.1362 -0.3210
  306MOL0     C41215   8.107   5.228   2.653 -0.1800 -0.2348  0.5894
  306MOL0     C41216   8.229   5.160   2.711 -0.4884 -0.4345 -0.4232
  306MOL0     C41217   8.291   5.258   2.810 -0.4975 -0.3161  1.0435
  306MOL0     C41218   8.430   5.213   2.855  0.1967  0.6475  0.1224
  306MOL0    Cl41219   8.430   5.108   3.003  0.0218  0.5507  0.2198
  306MOL0     C41220   7.391   5.085   2.475  0.3489  0.7067  1.0803
  306MOL0     C41221   7.264   5.049   2.497  0.2107  0.3242 -0.5396
  306MOL0     O41222   7.012   4.918   2.421  0.2786 -0.0098  0.3198
  306MOL0     C41223   6.859   4.899   2.738  0.2331 -0.1070 -0.4333
  306MOL0     C41224   6.732   4.914   2.796 -0.2335 -0.0854  0.5282
  306MOL0     N41225   6.093   5.126   3.197  0.7623 -0.4247  1.1069
  306MOL0     N41226   6.023   5.237   3.184 -0.2850  1.1274  0.2771
  306MOL0     C41227   4.833   5.254   3.471 -0.7424  0.0660  0.2917
  306MOL0     C41228   4.698   5.283   3.501 -0.6222 -0.3526 -0.2486
  306MOL0     C41229   4.297   5.535   3.517  0.2620 -0.7313  1.1472
  306MOL0     C41230   4.275   5.483   3.644  0.3038  0.2152  0.1927
  306MOL0     C41231   4.150   5.488   3.702  0.0052 -0.4200  0.5301
  306MOL0     C41232   4.042   5.560   3.649 -0.1597  0.5792  0.0955
  306MOL0     O41233   3.927   5.596   3.722 -0.2365  0.1976  0.9738
  306MOL0     C41234   3.893   5.531   3.840 -0.7097 -0.2804  0.9370
  306MOL0     C41235   3.755   5.556   3.875 -0.3684  0.7743  0.6378
  306MOL0     C41236   3.713   5.700   3.865  0.2123 -0.2707 -0.1034
  306MOL0     C41237   3.790   5.791   3.952 -0.2898  0.5954 -0.4380
  306MOL0     C41238   3.717   5.919   3.959 -0.2679  0.1060  0.2005
  306MOL0     C41239   3.676   6.032   3.972  0.0064 -0.1637  0.5095
  306MOL0     C41240   4.065   5.616   3.530  0.3742  0.1850  0.2904
  306MOL0     C41241   4.186   5.605   3.458  0.1960  0.4258 -0.0211
  306MOL0     C41242   4.181   5.680   3.328 -0.0064 -0.2808 -0.0125
  306MOL0     H41243   4.697   5.621   3.415  1.1692  0.1423 -0.6242
  306MOL0     H41244   4.929   5.572   3.378  2.7853 -1.0479  1.4932
  306MOL0     H41245   5.047   5.440   3.218 -1.2267 -2.3995  0.4934
  306MOL0     H41246   5.134   5.521   3.353 -0.4194  2.1255 -2.6014
  306MOL0     H41247   5.224   5.277   3.180 -0.6819  1.2880 -0.9374
  306MOL0     H41248   5.293   5.318   3.338 -2.1688  1.2828  2.2983
  306MOL0     H41249   5.360   5.539   3.224  1.5164  0.2946 -0.5084
  306MOL0     H41250   5.283   5.491   3.070  3.9890  1.1182 -2.2094
  306MOL0     H41251   5.497   5.328   3.203  1.6977  1.7852 -0.1009
  306MOL0     H41252   5.434   5.312   3.033  1.1299 -1.4330  0.5340
  306MOL0     H41253   5.493   5.563   3.030 -0.8083  0.0958  0.0948
  306MOL0     H41254   5.589   5.537   3.166 -0.1338 -2.2385  1.1766
  306MOL0     H41255   5.650   5.412   2.897  0.0334  0.6446 -0.1240
  306MOL0     H41256   5.754   5.535   2.981  2.3145 -1.2404  1.0034
  306MOL0     H41257   5.692   5.245   3.021  0.5184 -1.2788  0.2681
  306MOL0     H41258   5.753   5.329   3.161  3.7199 -1.8061 -0.1870
  306MOL0     H41259   5.886   5.299   2.885 -1.9287  2.1162 -0.5551
  306MOL0     H41260   5.947   5.413   3.003 -1.0380  0.1628  2.8762
  306MOL0     H41261   5.925   5.037   2.930 -2.4971  0.8705  0.2409
  306MOL0     H41262   6.100   4.834   3.170  2.9304 -1.1800  1.0337
  306MOL0     H41263   6.081   4.856   2.988  2.9482 -0.5453 -0.3579
  306MOL0     H41264   6.318   4.980   3.144  2.3752 -1.2714 -0.5458
  306MOL0     H41265   6.315   4.820   3.071  2.0975  0.1941 -1.7901
  306MOL0     H41266   6.280   5.085   2.932  0.3038  0.2656  0.7126
  306MOL0     H41267   6.275   4.923   2.850 -0.3778 -1.4198  0.7900
  306MOL0     H41268   6.490   4.862   2.949 -3.2656 -0.8210 -0.4463
  306MOL0     H41269   6.530   5.030   2.971  0.3123  0.2213 -0.5101
  306MOL0     H41270   6.557   4.997   2.513 -1.1032  1.8860  1.4960
  306MOL0     H41271   6.789   4.982   2.420  0.8815 -2.0030 -0.1883
  306MOL0     H41272   7.309   4.812   2.742  1.7856  0.5356  1.5254
  306MOL0     H41273   7.544   4.861   2.692 -0.6050 -0.9277 -1.0095
  306MOL0     H41274   7.636   5.099   2.316 -0.0645 -1.3763 -0.4616
  306MOL0     H41275   7.648   5.227   2.446  1.5689  0.9288 -1.0633
  306MOL0     H41276   7.857   5.016   2.393 -1.9190 -1.1210  0.8582
  306MOL0     H41277   7.849   5.171   2.312  2.6079 -0.4766  1.5943
  306MOL0     H41278   7.903   5.309   2.494  1.3555 -0.3492 -0.4510
  306MOL0     H41279   7.827   5.187   2.603  3.1506 -2.3705  2.0877
  306MOL0     H41280   8.081   5.151   2.455 -1.7122  0.5977 -1.2634
  306MOL0     H41281   8.020   5.043   2.583  0.4920 -0.1881 -1.2347
  306MOL0     H41282   8.030   5.244   2.729 -1.0240 -0.4327 -0.2192
  306MOL0     H41283   8.135   5.323   2.608 -0.3140  0.2187  1.4415
  306MOL0     H41284   8.201   5.076   2.775  0.5503 -0.8959 -0.5507
  306MOL0     H41285   8.296   5.117   2.636  2.0764  0.2118  1.3806
  306MOL0     H41286   8.240   5.296   2.899 -1.4961 -5.3206  2.8873
  306MOL0     H41287   8.306   5.350   2.752 -2.3180 -0.9769 -0.5805
  306MOL0     H41288   8.484   5.162   2.774 -0.6216 -1.6703  0.9814
  306MOL0     H41289   8.487   5.299   2.893  0.4380  1.5028 -2.0324
  306MOL0     H41290   7.412   5.163   2.403  1.6995  0.3713  1.0703
  306MOL0     H41291   7.180   5.097   2.448  0.5072 -2.7172 -4.4098
  306MOL0     H41292   6.938   4.864   2.803 -1.4574 -0.8596  1.3242
  306MOL0     H41293   6.719   4.891   2.901  0.2517 -1.7981  0.2395
  306MOL0     H41294   4.871   5.155   3.495  1.4932  1.0332  1.0079
  306MOL0     H41295   4.630   5.204   3.530  0.2957 -1.1547 -0.2611
  306MOL0     H41296   4.354   5.443   3.708  1.1840  3.4607  1.3112
  306MOL0     H41297   4.129   5.458   3.804  1.9110  1.0749  1.4326
  306MOL0     H41298   3.960   5.569   3.918  0.9430 -0.4575 -0.3461
  306MOL0     H41299   3.908   5.423   3.829  0.6320  0.0423 -0.8519
  306MOL0     H41300   3.728   5.521   3.975  1.1814 -0.9904  0.4870
  306MOL0     H41301   3.695   5.501   3.801  1.8338  1.1416 -1.5479
  306MOL0     H41302   3.608   5.719   3.892  0.8228  5.1394 -0.4237
  306MOL0     H41303   3.716   5.729   3.760 -2.7081  0.1431 -0.1642
  306MOL0     H41304   3.794   5.753   4.054 -1.4389  1.3854 -0.0820
  306MOL0     H41305   3.890   5.814   3.911 -1.2174  0.9119 -2.6915
  306MOL0     H41306   3.632   6.130   3.975 -2.9029 -1.2291 -2.0505
  306MOL0     H41307   3.996   5.694   3.500  1.4339  1.9832  2.2653
  306MOL0     H41308   4.253   5.644   3.253  0.2858  0.1881  0.0429
  306MOL0     H41309   4.085   5.653   3.283 -0.5589 -0.8835  1.4598
  306MOL0     H41310   4.181   5.787   3.349 -0.1267 -0.7083  2.4004
  307MOL0     O41311   3.855   3.050  11.267 -0.0231  0.0529  0.1682
  307MOL0     C41312   3.818   3.166  11.279  0.2534  0.4289 -0.2935
  307MOL0     O41313   3.902   3.273  11.242  0.3987  0.7855  0.2039
  307MOL0     C41314   4.031   3.253  11.277 -0.0278  0.5828 -0.3360
  307MOL0     C41315   4.076   3.249  11.410  0.2736  0.7581 -0.6643
  307MOL0     C41316   4.211   3.220  11.441  0.5030 -0.3004  0.9582
  307MOL0     C41317   4.304   3.200  11.338 -0.1770  0.3905  0.2219
  307MOL0     O41318   4.437   3.171  11.369 -0.1684  0.4816 -0.9579
  307MOL0     C41319   4.533   3.177  11.266 -0.6731  0.3754 -0.6018
  307MOL0     C41320   4.551   3.041  11.193  0.0683  0.0791 -0.0118
  307MOL0     C41321   4.639   3.054  11.065 -0.0350  1.0608 -0.2257
  307MOL0     C41322   4.769   3.129  11.106 -0.2655 -0.1936  0.2717
  307MOL0     C41323   4.879   3.079  11.007  0.5473  0.1624 -0.2496
  307MOL0     C41324   5.010   3.149  11.035 -0.7394 -0.7782  0.1623
  307MOL0     C41325   5.125   3.106  10.943  0.3340  0.0958  0.3184
  307MOL0     C41326   5.181   2.967  10.970 -0.2526  0.6108  0.4204
  307MOL0     N41327   5.293   2.940  10.880 -0.0154  0.1334 -0.2814
  307MOL0     C41328   5.280   2.870  10.766  0.1641 -0.6550 -0.5966
  307MOL0     C41329   5.409   2.854  10.727  0.3738  0.4483  0.2005
  307MOL0     C41330   5.458   2.786  10.597 -0.0960  0.1274 -0.5797
  307MOL0     C41331   5.611   2.771  10.598  0.0265 -0.6599 -0.1721
  307MOL0     C41332   5.655   2.717  10.463 -0.2844 -0.8337  0.0642
  307MOL0     C41333   5.804   2.696  10.455  0.4816 -0.2547 -0.2808
  307MOL0     O41334   5.853   2.618  10.346  0.2756 -0.1010 -0.2404
  307MOL0     C41335   5.989   2.619  10.317  0.0184 -0.9379  0.4735
  307MOL0     C41336   6.022   2.550  10.200  0.2075 -0.0795  0.3611
  307MOL0     C41337   6.153   2.538  10.159  0.0167 -0.7606 -0.2532
  307MOL0     C41338   6.260   2.590  10.240  0.6750  0.3467 -0.0483
  307MOL0     C41339   6.399   2.559  10.207 -0.3991  0.4022  0.2059
  307MOL0     O41340   6.504   2.611  10.296 -0.8370  0.1128 -0.3767
  307MOL0     C41341   6.629   2.556  10.295  0.2041  0.3765  0.3217
  307MOL0     C41342   6.703   2.568  10.180  0.5620 -0.2558 -0.4886
  307MOL0     C41343   6.830   2.524  10.171  0.5980 -0.4607 -0.8163
  307MOL0     C41344   6.891   2.464  10.281  0.4280  0.8383  0.9104
  307MOL0     O41345   7.017   2.415  10.262  0.1333  0.2705 -0.2038
  307MOL0     C41346   7.112   2.463  10.359 -0.3891 -0.9232  0.4201
  307MOL0     C41347   7.246   2.462  10.282  0.8573 -0.4037  0.3582
  307MOL0     C41348   7.366   2.499  10.373  0.5047  0.0216  0.5274
  307MOL0     C41349   7.492   2.472  10.292  0.0865  0.6795 -0.2693
  307MOL0     C41350   7.619   2.505  10.369  0.0645 -0.5430 -0.1497
  307MOL0     C41351   7.730   2.471  10.278 -0.0136 -0.2645  0.1608
  307MOL0     C41352   7.853   2.446  10.354  0.1417  0.5326  0.2165
  307MOL0     C41353   7.916   2.562  10.432 -0.0125  0.3013  0.2414
  307MOL0    Cl41354   7.856   2.567  10.600  0.3120 -0.5875  0.2468
  307MOL0     C41355   6.814   2.463  10.402 -0.4084 -0.1842 -0.2306
  307MOL0     C41356   6.685   2.502  10.404 -0.4944  0.2512 -0.2410
  307MOL0     O41357   6.420   2.478  10.113  0.0057  0.7637  0.8764
  307MOL0     C41358   6.225   2.666  10.354  0.4885  0.4116  0.1917
  307MOL0     C41359   6.086   2.682  10.390 -0.9726  1.2657 -0.2311
  307MOL0     N41360   5.486   2.917  10.815 -0.8196 -0.8784  0.1711
  307MOL0     N41361   5.419   2.965  10.909 -0.4332 -0.1665  0.3213
  307MOL0     C41362   4.254   3.204  11.206 -0.9021 -0.0831  0.8679
  307MOL0     C41363   4.122   3.243  11.171  0.0274  0.0820 -0.1332
  307MOL0     C41364   3.670   3.183  11.306  0.0231 -1.4134 -0.1665
  307MOL0     C41365   3.577   3.080  11.278 -0.6908 -0.8128 -0.0629
  307MOL0     C41366   3.439   3.087  11.313 -0.5958  0.4367  0.2031
  307MOL0     C41367   3.397   3.196  11.389  0.0240 -0.1931  0.2425
  307MOL0     O41368   3.262   3.211  11.441 -0.7886  0.3095  0.6018
  307MOL0     C41369   3.159   3.117  11.401 -0.3516 -0.1936 -1.2240
  307MOL0     C41370   3.026   3.167  11.444 -0.2175  0.7664  0.1703
  307MOL0     C41371   3.014   3.194  11.593 -0.4417  0.3607  0.1468
  307MOL0     C41372   2.891   3.268  11.643  0.5363  0.0949 -0.4449
  307MOL0     C41373   2.775   3.179  11.621 -0.1271 -0.2209 -0.0965
  307MOL0     C41374   2.684   3.102  11.621 -0.2632 -0.6283 -0.1736
  307MOL0     C41375   3.479   3.303  11.418 -0.4362  1.0142 -0.6777
  307MOL0     C41376   3.619   3.292  11.387  0.6151 -0.4389  0.0171
  307MOL0     C41377   3.697   3.410  11.425 -0.6805 -0.9107  0.4411
  307MOL0     H41378   4.009   3.261  11.494 -0.0586 -1.5305 -0.5324
  307MOL0     H41379   4.220   3.195  11.547 -0.6269 -1.6889  0.7487
  307MOL0     H41380   4.501   3.243  11.184 -3.0914 -2.1868 -1.8949
  307MOL0     H41381   4.621   3.221  11.314  0.1391 -1.6404 -0.1631
  307MOL0     H41382   4.454   3.003  11.161 -0.4702  0.6277  0.9380
  307MOL0     H41383   4.595   2.967  11.260  1.0050  1.2133  0.6545
  307MOL0     H41384   4.576   3.105  10.991 -4.5029 -0.0521  2.4138
  307MOL0     H41385   4.660   2.951  11.038 -1.8639  0.1138  1.6396
  307MOL0     H41386   4.758   3.237  11.094  3.8164  0.3649 -0.1938
  307MOL0     H41387   4.807   3.116  11.208  1.5997  0.3491 -0.3089
  307MOL0     H41388   4.896   2.972  11.021 -0.3956 -0.1392 -1.2943
  307MOL0     H41389   4.845   3.098  10.905 -2.7580  2.8250  1.1212
  307MOL0     H41390   4.983   3.255  11.031 -1.0593 -0.8090  1.2224
  307MOL0     H41391   5.054   3.137  11.134 -1.0985 -0.7378  0.3290
  307MOL0     H41392   5.204   3.179  10.969  0.8637 -0.2148 -0.3873
  307MOL0     H41393   5.095   3.107  10.838 -3.1614  1.7155  1.1965
  307MOL0     H41394   5.208   2.962  11.076  0.6654  1.1875  0.2250
  307MOL0     H41395   5.112   2.886  10.943  0.5751  0.1013 -0.2169
  307MOL0     H41396   5.190   2.819  10.732 -1.9133  3.5307 -2.0659
  307MOL0     H41397   5.413   2.687  10.583  0.9868 -0.4928  0.2009
  307MOL0     H41398   5.421   2.844  10.512  0.0627  0.3484 -0.5008
  307MOL0     H41399   5.668   2.863  10.616  0.9705 -1.3538  0.5139
  307MOL0     H41400   5.644   2.701  10.675  2.3606 -2.2308 -2.4729
  307MOL0     H41401   5.640   2.791  10.383  1.1393 -0.6419 -0.0436
  307MOL0     H41402   5.602   2.626  10.434 -0.2858 -0.4529 -1.1945
  307MOL0     H41403   5.820   2.639  10.547 -2.0806 -1.2835 -0.3636
  307MOL0     H41404   5.847   2.795  10.470 -0.1773  0.0768 -0.5061
  307MOL0     H41405   5.942   2.513  10.136 -1.2685 -1.0632  2.6334
  307MOL0     H41406   6.179   2.482  10.070  0.3819  0.8817 -1.2105
  307MOL0     H41407   6.660   2.621  10.096 -1.6588 -1.1035  0.0411
  307MOL0     H41408   6.885   2.523  10.078  2.1523 -2.6822  0.0086
  307MOL0     H41409   7.106   2.570  10.383 -0.7978 -1.2756  1.9955
  307MOL0     H41410   7.122   2.407  10.453 -0.0874  1.0551  1.6308
  307MOL0     H41411   7.259   2.361  10.242  0.2837 -1.2044  2.0921
  307MOL0     H41412   7.235   2.534  10.200  0.0804 -0.3245  0.5195
  307MOL0     H41413   7.345   2.601  10.406  1.3777 -0.0879  1.4556
  307MOL0     H41414   7.353   2.438  10.463  0.8552  1.9703  1.9625
  307MOL0     H41415   7.498   2.521  10.194  3.0650  1.0284  0.0102
  307MOL0     H41416   7.499   2.365  10.270 -0.5004  0.5658  0.0694
  307MOL0     H41417   7.627   2.441  10.456  1.9274 -1.5190 -0.9773
  307MOL0     H41418   7.616   2.611  10.397 -3.2305 -0.3099 -0.9399
  307MOL0     H41419   7.707   2.391  10.207 -2.3401  0.0153  0.5324
  307MOL0     H41420   7.743   2.559  10.215 -2.1090 -0.6088 -0.8439
  307MOL0     H41421   7.926   2.414  10.279 -0.2677 -1.1550  0.5016
  307MOL0     H41422   7.831   2.356  10.411  0.0622 -0.0044 -0.6423
  307MOL0     H41423   8.025   2.547  10.437  0.1601  1.7696  3.3124
  307MOL0     H41424   7.895   2.657  10.382 -2.3298  0.7453  1.9109
  307MOL0     H41425   6.858   2.425  10.493  1.7900 -1.8166 -1.8790
  307MOL0     H41426   6.640   2.516  10.502 -0.6945 -0.1712 -0.2683
  307MOL0     H41427   6.308   2.695  10.418  0.7388  1.6964 -0.6710
  307MOL0     H41428   6.074   2.728  10.487 -2.1727  0.6120 -0.0498
  307MOL0     H41429   4.324   3.183  11.125 -2.8589 -0.1157 -0.9126
  307MOL0     H41430   4.097   3.250  11.066  3.8697  1.1772 -1.1305
  307MOL0     H41431   3.601   2.988  11.226  0.9788  0.5495 -1.8488
  307MOL0     H41432   3.375   3.005  11.282  0.0402  0.4398 -1.2170
  307MOL0     H41433   3.169   3.018  11.445  0.3593  1.0981  1.7489
  307MOL0     H41434   3.158   3.124  11.292  2.8115  1.4645 -1.2554
  307MOL0     H41435   2.948   3.097  11.414 -1.0874  0.7024  2.4306
  307MOL0     H41436   2.998   3.256  11.387 -0.2389 -1.2366 -3.2434
  307MOL0     H41437   3.102   3.256  11.615  0.6508 -0.4035 -1.7980
  307MOL0     H41438   3.016   3.091  11.630 -2.7068  0.2707  0.1660
  307MOL0     H41439   2.895   3.279  11.751 -1.0898  1.6930 -0.5014
  307MOL0     H41440   2.878   3.359  11.583 -2.7384 -1.2986 -2.1057
  307MOL0     H41441   2.595   3.045  11.603 -2.4750  2.5450 -0.0525
  307MOL0     H41442   3.432   3.387  11.467 -1.0061  0.8169 -0.8795
  307MOL0     H41443   3.769   3.444  11.350 -1.3879  1.2986  0.6904
  307MOL0     H41444   3.631   3.497  11.430  0.9897  0.4021  0.6619
  307MOL0     H41445   3.738   3.394  11.525 -1.0515  0.5253  0.8562
  308MOL0     O41446   8.060   7.143   7.463 -0.4164  0.2615  0.4357
  308MOL0     C41447   8.001   7.104   7.360 -0.0816  0.3166 -0.3455
  308MOL0     O41448   8.030   7.003   7.284 -0.3967  0.2116 -0.1613
  308MOL0     C41449   8.108   6.908   7.343 -0.1649 -0.0001 -0.3748
  308MOL0     C41450   8.059   6.784   7.395 -0.6587 -0.0846  0.7591
  308MOL0     C41451   8.146   6.686   7.453 -0.6705 -0.1697  0.9106
  308MOL0     C41452   8.275   6.711   7.469 -0.1849 -0.8132  0.7827
  308MOL0     O41453   8.342   6.610   7.513  0.1048 -0.6073 -0.0574
  308MOL0     C41454   8.469   6.622   7.585 -0.8259  0.3103  0.2056
  308MOL0     C41455   8.574   6.566   7.497 -0.2122  0.6572 -0.4773
  308MOL0     C41456   8.695   6.545   7.600  0.3207 -0.1151 -0.0356
  308MOL0     C41457   8.759   6.667   7.657  0.1746 -0.2088  0.0835
  308MOL0     C41458   8.904   6.636   7.703  0.0937  0.1057 -0.2662
  308MOL0     C41459   8.983   6.762   7.748 -0.3986  0.6269 -0.1268
  308MOL0     C41460   9.133   6.734   7.773  0.5517 -0.4412 -0.1124
  308MOL0     C41461   9.222   6.723   7.649 -0.0178 -1.0394  0.5899
  308MOL0     N41462   9.342   6.667   7.689 -0.2899  0.1696 -0.2139
  308MOL0     C41463   9.450   6.738   7.746  0.2755 -0.4225 -0.2177
  308MOL0     C41464   9.541   6.644   7.767  0.1652  0.5216 -0.2451
  308MOL0     C41465   9.668   6.672   7.851  0.6804  0.2927  0.0799
  308MOL0     C41466   9.788   6.716   7.763  0.3802 -0.4222 -0.6046
  308MOL0     C41467   9.844   6.613   7.676 -0.8379  0.0641 -0.4554
  308MOL0     C41468   9.981   6.654   7.641  0.0972 -0.2617 -0.0498
  308MOL0     O41469  10.073   6.658   7.750  0.5787  0.2661 -0.2282
  308MOL0     C41470  10.203   6.688   7.720  0.1234  0.1460  0.2752
  308MOL0     C41471  10.295   6.674   7.820 -0.3320 -0.1432 -0.2381
  308MOL0     C41472  10.436   6.680   7.796 -0.0885  0.7105  0.7084
  308MOL0     C41473  10.477   6.721   7.669  0.2081  0.2389  0.1442
  308MOL0     C41474  10.617   6.750   7.646  0.3458 -0.3543 -0.8883
  308MOL0     O41475  10.704   6.733   7.745  0.3285  0.8698 -0.2380
  308MOL0     C41476  10.839   6.731   7.713  0.1267  0.6320 -0.0841
  308MOL0     C41477  10.901   6.629   7.643 -0.1295  0.9718 -0.6991
  308MOL0     C41478  11.042   6.638   7.631 -0.0578 -0.6042 -1.0496
  308MOL0     C41479  11.117   6.742   7.688  0.0808 -0.4905 -1.0654
  308MOL0     O41480  11.249   6.754   7.660  0.5219 -0.5066  1.1999
  308MOL0     C41481  11.346   6.762   7.769 -0.7837 -1.1260 -0.3687
  308MOL0     C41482  11.498   6.766   7.710  0.2614 -0.0868 -0.1994
  308MOL0     C41483  11.603   6.788   7.820  0.0308 -0.2498 -0.9343
  308MOL0     C41484  11.737   6.779   7.759  0.8555  0.1588  0.1104
  308MOL0     C41485  11.851   6.776   7.861 -0.3678 -0.2426 -0.0731
  308MOL0     C41486  11.993   6.770   7.793  1.3584  0.5284 -0.6683
  308MOL0     C41487  12.021   6.619   7.749 -1.1227  0.2645 -0.2084
  308MOL0     C41488  12.128   6.621   7.639 -0.3378 -0.0788  0.0816
  308MOL0    Cl41489  12.299   6.582   7.692  0.4594 -0.0913  0.0984
  308MOL0     C41490  11.054   6.829   7.769  0.1727  0.3506  0.1095
  308MOL0     C41491  10.917   6.823   7.791  0.1234 -0.1713  0.0580
  308MOL0     O41492  10.643   6.778   7.530 -0.0969 -0.9288  0.2061
  308MOL0     C41493  10.382   6.743   7.568 -0.2925 -0.9257  0.8581
  308MOL0     C41494  10.244   6.724   7.594 -0.3864  0.1142 -0.1081
  308MOL0     N41495   9.497   6.519   7.713  0.4819  0.4154 -0.4593
  308MOL0     N41496   9.378   6.536   7.665  0.4419 -0.1723 -0.0262
  308MOL0     C41497   8.333   6.832   7.416  0.3771 -0.0944 -0.1375
  308MOL0     C41498   8.241   6.925   7.363 -1.1579 -0.2981 -0.0480
  308MOL0     C41499   7.887   7.191   7.311 -0.5860  0.1289  0.6410
  308MOL0     C41500   7.814   7.151   7.195  0.7006 -0.6445  0.1888
  308MOL0     C41501   7.695   7.219   7.153 -0.4890 -0.1319 -0.2612
  308MOL0     C41502   7.640   7.314   7.231 -0.5114 -0.4082 -1.1988
  308MOL0     O41503   7.521   7.376   7.202  0.1538  0.2231  0.5059
  308MOL0     C41504   7.437   7.409   7.316 -0.2154  0.1370  0.0663
  308MOL0     C41505   7.302   7.345   7.290 -0.3287 -1.0151  0.2400
  308MOL0     C41506   7.208   7.396   7.402  0.1695  0.5780  0.4557
  308MOL0     C41507   7.081   7.320   7.379  0.0554  0.7333 -0.1041
  308MOL0     C41508   6.976   7.423   7.372  0.8405 -0.5952  0.4494
  308MOL0     C41509   6.900   7.517   7.364  0.6260  0.5025 -0.3129
  308MOL0     C41510   7.710   7.371   7.341  0.0831 -0.4037  0.3576
  308MOL0     C41511   7.833   7.308   7.380 -0.5621  0.3985 -0.5940
  308MOL0     C41512   7.887   7.381   7.505  0.1783  0.6051 -0.2281
  308MOL0     H41513   7.953   6.762   7.388 -1.1742  1.9784  1.4460
  308MOL0     H41514   8.109   6.590   7.488 -2.9076 -0.5502 -2.1039
  308MOL0     H41515   8.504   6.723   7.612  0.3975  0.6776 -2.4136
  308MOL0     H41516   8.468   6.569   7.681  1.7492  2.0146  1.2936
  308MOL0     H41517   8.600   6.632   7.413 -3.1200  1.4553 -0.8622
  308MOL0     H41518   8.550   6.470   7.451  2.6602 -0.0966 -0.6132
  308MOL0     H41519   8.769   6.485   7.544  1.4038 -0.2184  1.4519
  308MOL0     H41520   8.663   6.476   7.678 -0.0668 -0.0278 -0.1184
  308MOL0     H41521   8.757   6.745   7.581  0.1753 -1.1962 -0.9678
  308MOL0     H41522   8.700   6.702   7.742 -1.0600 -0.5527 -0.6032
  308MOL0     H41523   8.900   6.564   7.785 -1.7924  2.8401  2.2226
  308MOL0     H41524   8.958   6.601   7.614 -0.3361  0.1678 -0.5548
  308MOL0     H41525   8.975   6.839   7.670 -2.0509 -0.8312 -1.4620
  308MOL0     H41526   8.941   6.799   7.842 -1.5191  0.5962 -0.6097
  308MOL0     H41527   9.136   6.637   7.824  0.3332 -0.3361  0.1072
  308MOL0     H41528   9.176   6.806   7.843 -1.7340  2.3888 -1.4016
  308MOL0     H41529   9.159   6.669   7.579 -3.6850  2.1821  1.0381
  308MOL0     H41530   9.235   6.822   7.604  1.5577  0.3899  3.8468
  308MOL0     H41531   9.464   6.842   7.774 -1.2393 -0.9254  2.9178
  308MOL0     H41532   9.655   6.757   7.918 -1.0546  0.1797 -0.0614
  308MOL0     H41533   9.698   6.582   7.906  0.9409 -0.5344 -1.3688
  308MOL0     H41534   9.747   6.794   7.698 -0.9758 -0.1470  0.5221
  308MOL0     H41535   9.856   6.759   7.837 -0.0876 -0.2571 -0.2640
  308MOL0     H41536   9.781   6.593   7.589 -1.3596 -0.6066  0.0671
  308MOL0     H41537   9.849   6.521   7.734 -0.5676 -0.8633 -1.8935
  308MOL0     H41538   9.978   6.750   7.588 -2.1174 -0.9833 -1.3647
  308MOL0     H41539  10.013   6.584   7.563  0.3833  2.2323 -2.3183
  308MOL0     H41540  10.255   6.619   7.905 -1.7575 -1.0410 -1.4581
  308MOL0     H41541  10.510   6.656   7.872 -0.6386 -0.3488  0.9280
  308MOL0     H41542  10.840   6.549   7.602  1.7072  0.5012 -2.7067
  308MOL0     H41543  11.094   6.574   7.561 -1.3600 -0.4859 -2.1689
  308MOL0     H41544  11.326   6.851   7.829  0.4423 -1.0604 -0.0383
  308MOL0     H41545  11.352   6.675   7.835 -0.8084 -1.2379 -0.5133
  308MOL0     H41546  11.513   6.676   7.651  0.9035  0.0084 -0.1884
  308MOL0     H41547  11.489   6.857   7.649 -2.1581 -0.0886  0.0635
  308MOL0     H41548  11.584   6.885   7.867  0.4355 -0.5990 -0.0178
  308MOL0     H41549  11.594   6.706   7.893  2.2914  0.5853  0.3917
  308MOL0     H41550  11.751   6.859   7.685  1.9556  1.7719  1.9583
  308MOL0     H41551  11.745   6.687   7.700  5.6668  1.1731 -1.2892
  308MOL0     H41552  11.836   6.694   7.932  1.5194 -0.9904 -0.4879
  308MOL0     H41553  11.833   6.868   7.917  0.4933 -0.0469 -0.1053
  308MOL0     H41554  11.992   6.844   7.713  0.5780  2.2350  0.8488
  308MOL0     H41555  12.062   6.804   7.871 -1.2554  3.3867  0.5782
  308MOL0     H41556  11.929   6.585   7.699 -0.8398  2.3983 -2.3993
  308MOL0     H41557  12.051   6.564   7.838 -2.9239  0.7950  0.7681
  308MOL0     H41558  12.109   6.547   7.560  2.3894 -1.4976  0.6526
  308MOL0     H41559  12.137   6.717   7.587 -1.6388  0.7249  1.2726
  308MOL0     H41560  11.105   6.914   7.814 -2.3036  4.0426 -3.3336
  308MOL0     H41561  10.868   6.896   7.855 -0.8063 -0.8260  0.1239
  308MOL0     H41562  10.411   6.768   7.467 -0.9346 -2.2169  0.3343
  308MOL0     H41563  10.174   6.731   7.512 -0.0296 -1.3485 -0.5591
  308MOL0     H41564   8.440   6.846   7.407  0.5320 -1.4916 -0.6898
  308MOL0     H41565   8.277   7.022   7.329  2.0754 -0.4276  2.5450
  308MOL0     H41566   7.845   7.066   7.135 -1.4060 -2.8688  2.0009
  308MOL0     H41567   7.643   7.186   7.064  1.0515 -2.1393 -0.4996
  308MOL0     H41568   7.441   7.517   7.329 -1.4252 -0.0780  3.0551
  308MOL0     H41569   7.473   7.369   7.411  1.7873  0.3099 -0.5708
  308MOL0     H41570   7.319   7.237   7.300  2.2851 -0.8694 -1.4730
  308MOL0     H41571   7.272   7.377   7.190  0.8559  1.1566  0.5004
  308MOL0     H41572   7.194   7.505   7.409 -2.2486  0.3848 -0.4549
  308MOL0     H41573   7.245   7.366   7.501 -0.0100 -0.0584  0.3339
  308MOL0     H41574   7.085   7.251   7.294 -0.2182  0.3794  0.1686
  308MOL0     H41575   7.065   7.256   7.466  2.3244 -0.0321 -0.1801
  308MOL0     H41576   6.835   7.602   7.364  1.5112  1.2708 -2.7831
  308MOL0     H41577   7.675   7.461   7.391 -2.8775 -0.1787 -1.9034
  308MOL0     H41578   7.852   7.327   7.594 -0.0640  0.7659 -0.2241
  308MOL0     H41579   7.995   7.369   7.499 -0.0750 -4.6589  0.6563
  308MOL0     H41580   7.865   7.486   7.525  3.6431  1.4722 -0.3996
  309MOL0     O41581   4.579  10.449  10.806 -0.5417  0.4037 -0.4787
  309MOL0     C41582   4.553  10.559  10.852 -0.0170  0.3758  0.4614
  309MOL0     O41583   4.639  10.642  10.924 -0.3371 -0.6014  0.2402
  309MOL0     C41584   4.767  10.597  10.933 -0.1315 -0.1226  0.7857
  309MOL0     C41585   4.794  10.510  11.041 -0.4061  0.0782 -0.1258
  309MOL0     C41586   4.926  10.468  11.058  0.1283 -1.1188 -0.1004
  309MOL0     C41587   5.029  10.515  10.966 -0.2791  1.4645 -0.9308
  309MOL0     O41588   5.152  10.467  10.997  0.4721 -0.0736  0.6698
  309MOL0     C41589   5.269  10.541  10.959 -0.2782  0.2647 -0.3933
  309MOL0     C41590   5.392  10.447  10.963 -0.7324  0.2825  0.2746
  309MOL0     C41591   5.515  10.517  10.902 -0.4669  0.7444 -1.0748
  309MOL0     C41592   5.637  10.427  10.931 -0.3887  0.3784  0.5246
  309MOL0     C41593   5.759  10.499  10.868 -0.1152  0.6950  0.1753
  309MOL0     C41594   5.821  10.589  10.975  0.2746 -0.3228  0.3717
  309MOL0     C41595   5.919  10.675  10.892  0.5086  0.1600  0.2286
  309MOL0     C41596   5.994  10.781  10.985  0.1483  1.1962  0.4554
  309MOL0     N41597   6.099  10.731  11.080  0.6550 -0.0937 -0.1336
  309MOL0     C41598   6.084  10.736  11.220 -0.4379  0.5397  0.2049
  309MOL0     C41599   6.204  10.696  11.275 -0.9893 -0.7331 -0.6283
  309MOL0     C41600   6.263  10.719  11.418  0.3580 -0.0804  0.4251
  309MOL0     C41601   6.410  10.692  11.422 -0.5253 -0.3885 -0.2618
  309MOL0     C41602   6.466  10.715  11.564 -0.1007 -0.6934  0.1357
  309MOL0     C41603   6.607  10.678  11.593 -0.3245 -0.4452 -0.2159
  309MOL0     O41604   6.647  10.680  11.730 -0.1884  0.3820 -0.7660
  309MOL0     C41605   6.775  10.695  11.768  0.2162  0.7016  0.7123
  309MOL0     C41606   6.887  10.659  11.686  0.2708 -0.7495 -0.4769
  309MOL0     C41607   7.022  10.669  11.735  0.1705 -0.1648 -0.8510
  309MOL0     C41608   7.041  10.717  11.866 -0.2395  0.5332  0.3016
  309MOL0     C41609   7.173  10.752  11.922 -0.4691  0.3452  0.0050
  309MOL0     O41610   7.275  10.766  11.833 -0.3493  0.3878  0.1135
  309MOL0     C41611   7.407  10.775  11.866  0.7563 -0.2328 -0.6202
  309MOL0     C41612   7.487  10.666  11.825 -0.0620 -0.8832 -0.2074
  309MOL0     C41613   7.626  10.658  11.870  0.6032 -0.5936  0.0960
  309MOL0     C41614   7.672  10.759  11.965 -0.0658 -0.3339 -0.2241
  309MOL0     O41615   7.799  10.761  12.026  0.7316  0.4697 -0.4556
  309MOL0     C41616   7.901  10.655  12.002 -0.0641  1.0038 -0.7971
  309MOL0     C41617   8.020  10.735  12.055 -0.5776 -0.1777  0.1681
  309MOL0     C41618   8.131  10.639  12.094  0.0294 -1.0122 -0.3886
  309MOL0     C41619   8.271  10.711  12.122  0.7182  0.3746  1.2047
  309MOL0     C41620   8.353  10.691  11.992 -0.3599  0.0790  0.0968
  309MOL0     C41621   8.502  10.722  12.023 -0.1860  0.3571  0.9908
  309MOL0     C41622   8.584  10.668  11.891  0.3041 -0.6133  0.0023
  309MOL0     C41623   8.726  10.718  11.899 -0.4613 -0.1664  0.8960
  309MOL0    Cl41624   8.820  10.658  11.755  0.5498 -0.2796 -0.1712
  309MOL0     C41625   7.594  10.872  11.995  0.2444  0.1579  0.1429
  309MOL0     C41626   7.461  10.877  11.948 -0.6881  0.7549 -0.7739
  309MOL0     O41627   7.184  10.764  12.042 -0.8191 -0.2419 -0.1738
  309MOL0     C41628   6.928  10.743  11.945 -0.9105 -0.2687  1.0961
  309MOL0     C41629   6.800  10.729  11.895  0.0280 -0.5105 -0.0827
  309MOL0     N41630   6.283  10.668  11.170  0.2487  0.5480 -0.2308
  309MOL0     N41631   6.221  10.682  11.055  0.1659 -0.9708  0.2239
  309MOL0     C41632   4.994  10.592  10.853  0.0662  0.0077  0.6003
  309MOL0     C41633   4.864  10.630  10.831  1.0656 -0.4615  0.1718
  309MOL0     C41634   4.414  10.607  10.832 -0.3596  0.1360 -0.0712
  309MOL0     C41635   4.391  10.748  10.830  0.3947 -0.0538  0.9103
  309MOL0     C41636   4.264  10.804  10.810  0.0244 -0.2292 -0.1771
  309MOL0     C41637   4.159  10.730  10.787 -0.6414  0.1766 -0.7068
  309MOL0     O41638   4.048  10.797  10.785  0.7603  0.4199 -0.3045
  309MOL0     C41639   3.929  10.719  10.753 -0.3210 -0.3628 -0.0511
  309MOL0     C41640   3.803  10.810  10.775  0.8422 -0.8318 -0.3362
  309MOL0     C41641   3.805  10.939  10.680 -0.4968  0.0432 -0.1711
  309MOL0     C41642   3.683  11.025  10.699  0.5546  0.5479 -0.5081
  309MOL0     C41643   3.567  10.956  10.640  0.7043  0.1480  0.1468
  309MOL0     C41644   3.472  10.891  10.607  0.7632  0.0108  0.0011
  309MOL0     C41645   4.177  10.589  10.786 -0.4465  0.3513  0.2427
  309MOL0     C41646   4.304  10.526  10.799  0.2489  0.0245  0.9777
  309MOL0     C41647   4.288  10.380  10.796  0.0515 -0.2499 -0.5957
  309MOL0     H41648   4.717  10.469  11.107  0.0689 -1.2412 -0.3531
  309MOL0     H41649   4.953  10.417  11.149  0.4234  1.2899  1.2628
  309MOL0     H41650   5.248  10.577  10.858 -1.7464  1.8214  0.4117
  309MOL0     H41651   5.281  10.631  11.020 -1.3518 -0.6501  1.2409
  309MOL0     H41652   5.371  10.362  10.897 -2.0934  0.3692  0.5658
  309MOL0     H41653   5.419  10.413  11.064  0.4756 -0.3821 -0.2510
  309MOL0     H41654   5.522  10.612  10.955 -0.4034 -0.0004  0.3027
  309MOL0     H41655   5.505  10.532  10.795 -1.1564 -1.8226 -1.4411
  309MOL0     H41656   5.657  10.403  11.036 -0.5384  0.5109  0.5843
  309MOL0     H41657   5.621  10.330  10.885  1.0262  0.6238 -0.5500
  309MOL0     H41658   5.841  10.433  10.837  1.0018  1.9956  0.2836
  309MOL0     H41659   5.724  10.546  10.775 -0.1033  1.2033  0.4279
  309MOL0     H41660   5.743  10.651  11.021 -2.8581  0.0423 -4.6648
  309MOL0     H41661   5.882  10.528  11.042  1.1965  0.4584  0.2646
  309MOL0     H41662   5.867  10.724  10.809  1.6782 -0.0034 -0.6334
  309MOL0     H41663   5.992  10.607  10.847  1.0205 -0.6616  2.1927
  309MOL0     H41664   6.047  10.854  10.922  0.2550  1.4092  0.7946
  309MOL0     H41665   5.917  10.840  11.034 -1.1571  2.4590 -2.8039
  309MOL0     H41666   5.992  10.772  11.265 -1.7561 -2.2953 -0.0378
  309MOL0     H41667   6.250  10.825  11.440 -1.9304  0.2596 -2.0758
  309MOL0     H41668   6.216  10.656  11.494  0.5435 -0.5661  0.1497
  309MOL0     H41669   6.425  10.588  11.389  1.3933  0.1465 -1.2408
  309MOL0     H41670   6.467  10.757  11.355  0.7732 -0.2289  0.9699
  309MOL0     H41671   6.414  10.675  11.652 -0.6370  2.4527  1.3653
  309MOL0     H41672   6.450  10.822  11.575 -1.6260 -0.4641 -3.1360
  309MOL0     H41673   6.677  10.734  11.530 -0.9162  1.8234  1.0474
  309MOL0     H41674   6.631  10.578  11.555  2.0324 -0.0506  0.0744
  309MOL0     H41675   6.869  10.616  11.588 -3.9641 -1.1758  0.3055
  309MOL0     H41676   7.115  10.641  11.685  1.0254  1.9210 -0.5246
  309MOL0     H41677   7.453  10.589  11.758  1.9376 -2.0320  0.0076
  309MOL0     H41678   7.676  10.567  11.841 -1.5552 -2.0329  0.6501
  309MOL0     H41679   7.872  10.566  12.060 -0.3018  0.5555 -1.5837
  309MOL0     H41680   7.911  10.639  11.894  0.8161  0.8067 -0.6927
  309MOL0     H41681   8.055  10.800  11.974 -0.4843 -1.1582 -0.5912
  309MOL0     H41682   7.992  10.814  12.125 -0.8664  1.6997 -1.9587
  309MOL0     H41683   8.106  10.598  12.192  0.0328  0.1062  0.0897
  309MOL0     H41684   8.147  10.555  12.025  1.4965 -1.5617  0.5711
  309MOL0     H41685   8.321  10.648  12.197  1.6352 -0.3319  0.0374
  309MOL0     H41686   8.272  10.812  12.164 -0.9892  1.6934 -1.6257
  309MOL0     H41687   8.324  10.756  11.909  1.2092 -1.6200 -1.8526
  309MOL0     H41688   8.346  10.588  11.959 -0.7202  0.4472 -0.9962
  309MOL0     H41689   8.514  10.829  12.043  2.0936 -0.1862  3.1300
  309MOL0     H41690   8.535  10.665  12.110  0.1882 -1.3931 -0.2501
  309MOL0     H41691   8.541  10.705  11.798  2.7081 -2.7935 -2.0970
  309MOL0     H41692   8.569  10.559  11.886 -2.5629 -0.3125  0.0467
  309MOL0     H41693   8.727  10.828  11.899  4.1513 -0.0232 -0.3705
  309MOL0     H41694   8.783  10.690  11.988  0.7184  1.6180  0.7449
  309MOL0     H41695   7.644  10.947  12.056  1.0560 -0.1472 -0.1375
  309MOL0     H41696   7.406  10.962  11.987  1.4702  1.6605  0.4362
  309MOL0     H41697   6.944  10.778  12.046 -1.2158  1.3192  0.6186
  309MOL0     H41698   6.726  10.753  11.970  1.6044  0.1862  1.3109
  309MOL0     H41699   5.058  10.618  10.770  1.1302 -0.6617  1.1982
  309MOL0     H41700   4.838  10.686  10.742  0.6868 -1.8132 -0.6118
  309MOL0     H41701   4.476  10.814  10.842  1.3211 -1.3386  1.6291
  309MOL0     H41702   4.254  10.912  10.812  1.8794 -0.0341  0.2026
  309MOL0     H41703   3.918  10.634  10.820 -0.6369 -0.3835 -0.1292
  309MOL0     H41704   3.922  10.677  10.653 -1.8640  0.9490 -0.5424
  309MOL0     H41705   3.805  10.843  10.879  4.3226  0.6369 -0.7294
  309MOL0     H41706   3.717  10.744  10.758  0.9527 -0.3512 -3.2183
  309MOL0     H41707   3.816  10.910  10.575  3.0050 -0.2739  0.1577
  309MOL0     H41708   3.889  11.005  10.703  0.6146 -1.9204  1.8142
  309MOL0     H41709   3.656  11.030  10.805 -1.9610 -0.7069 -1.0226
  309MOL0     H41710   3.697  11.132  10.678  2.1402  0.2111 -1.3781
  309MOL0     H41711   3.379  10.850  10.574  2.5586 -2.2056 -2.7484
  309MOL0     H41712   4.097  10.517  10.771  0.8179 -0.5801 -2.9011
  309MOL0     H41713   4.373  10.328  10.753  0.2396  0.2169 -0.7945
  309MOL0     H41714   4.281  10.348  10.900  0.4870 -1.7658 -1.0106
  309MOL0     H41715   4.205  10.333  10.742  2.1802 -2.9939 -1.6706
  310MOL0     O41716   9.298  11.200   3.197 -0.0381 -0.7169 -0.0606
  310MOL0     C41717   9.379  11.193   3.108 -0.4436 -0.5883 -0.1908
  310MOL0     O41718   9.352  11.168   2.973  0.0730 -0.3644  0.1061
  310MOL0     C41719   9.228  11.122   2.945  0.6737 -0.3132 -0.3088
  310MOL0     C41720   9.168  11.160   2.830 -0.0189  0.2762  0.0145
  310MOL0     C41721   9.051  11.103   2.784  0.0583  0.4066  0.1920
  310MOL0     C41722   8.976  11.009   2.854  0.4796 -0.3620 -0.5310
  310MOL0     O41723   8.847  10.985   2.808  0.3272 -0.4069 -0.6438
  310MOL0     C41724   8.765  10.915   2.906  0.2387 -0.3457  0.9252
  310MOL0     C41725   8.790  10.765   2.878  0.6588 -0.7714 -1.0352
  310MOL0     C41726   8.790  10.721   2.738  0.8043  0.3575  0.7071
  310MOL0     C41727   8.831  10.571   2.728  0.1655  0.6404  0.5811
  310MOL0     C41728   8.821  10.507   2.596  0.4699 -0.1153  0.2089
  310MOL0     C41729   8.853  10.359   2.624  0.8436  0.1553 -0.6486
  310MOL0     C41730   8.830  10.260   2.512  0.1283 -0.0354 -0.4759
  310MOL0     C41731   8.936  10.247   2.411  0.0243  0.6220  0.6605
  310MOL0     N41732   9.052  10.170   2.468  0.1889 -0.0057  0.5777
  310MOL0     C41733   9.150  10.238   2.536 -0.3649  0.1181 -0.6426
  310MOL0     C41734   9.230  10.142   2.579  0.3960 -0.8755  0.1425
  310MOL0     C41735   9.368  10.146   2.643 -0.8609  0.2201  0.4350
  310MOL0     C41736   9.482  10.194   2.530  0.0382 -0.0783 -0.0193
  310MOL0     C41737   9.627  10.186   2.609  0.3410  0.8259  0.4312
  310MOL0     C41738   9.729  10.240   2.504 -0.1734  0.1178  0.2975
  310MOL0     O41739   9.854  10.281   2.565 -0.6263  0.0565  0.0225
  310MOL0     C41740   9.960  10.317   2.483  0.3709  0.3805 -0.2912
  310MOL0     C41741  10.080  10.349   2.544 -0.0599 -0.7928  0.0634
  310MOL0     C41742  10.195  10.386   2.469 -0.4678  0.5934 -0.5261
  310MOL0     C41743  10.193  10.383   2.326 -0.6982 -0.4506  0.1399
  310MOL0     C41744  10.313  10.402   2.233  0.7996 -0.3746  0.2361
  310MOL0     O41745  10.436  10.385   2.294 -0.2873  0.1111 -0.3797
  310MOL0     C41746  10.557  10.417   2.238  0.5760  0.0299  0.1876
  310MOL0     C41747  10.590  10.450   2.101 -0.2751 -0.6926 -0.4470
  310MOL0     C41748  10.724  10.475   2.061 -0.7584 -0.1359  0.4970
  310MOL0     C41749  10.826  10.483   2.157  0.1140  0.4597 -0.3985
  310MOL0     O41750  10.934  10.536   2.113  0.2531  0.1373  0.0014
  310MOL0     C41751  11.049  10.549   2.199 -0.7241 -0.0947 -0.0403
  310MOL0     C41752  11.174  10.589   2.123 -0.5047 -0.3499 -0.3516
  310MOL0     C41753  11.276  10.640   2.228  0.6295 -0.6064 -1.0306
  310MOL0     C41754  11.394  10.692   2.163 -0.4814 -0.1693  0.2226
  310MOL0     C41755  11.510  10.716   2.264 -0.3905 -0.7520  0.0263
  310MOL0     C41756  11.628  10.768   2.193  0.0505  0.6867 -1.0652
  310MOL0     C41757  11.689  10.671   2.092 -0.4802  0.4863 -0.1930
  310MOL0     C41758  11.842  10.691   2.074 -0.0937 -0.5675 -0.1936
  310MOL0    Cl41759  11.869  10.851   1.986  0.2138 -0.3030 -0.1557
  310MOL0     C41760  10.789  10.454   2.291 -0.5637 -0.6118 -0.6570
  310MOL0     C41761  10.664  10.418   2.328 -1.1178 -0.1168  0.1135
  310MOL0     O41762  10.292  10.422   2.113  0.3139  0.0566  0.1144
  310MOL0     C41763  10.075  10.337   2.271 -0.0569 -0.0732  1.3262
  310MOL0     C41764   9.961  10.305   2.340  0.1087 -0.5482  0.4032
  310MOL0     N41765   9.186  10.016   2.532  0.3639 -0.2446 -0.0740
  310MOL0     N41766   9.080  10.038   2.469 -0.1760  0.8256 -0.1505
  310MOL0     C41767   9.032  10.972   2.984  0.4210 -0.2237 -0.3896
  310MOL0     C41768   9.155  11.028   3.025  0.5386 -0.4588 -0.0374
  310MOL0     C41769   9.524  11.197   3.141  0.9143  0.2546 -0.0087
  310MOL0     C41770   9.620  11.149   3.050 -0.9888 -0.1679 -0.2054
  310MOL0     C41771   9.761  11.167   3.066  0.5158 -0.5127 -0.3493
  310MOL0     C41772   9.811  11.208   3.192 -0.0511 -0.2801  0.1878
  310MOL0     O41773   9.945  11.194   3.235  0.9195  0.5830  0.1043
  310MOL0     C41774  10.047  11.173   3.145  0.1448 -0.1279  0.6862
  310MOL0     C41775  10.171  11.149   3.225  0.3390 -0.1592  0.4492
  310MOL0     C41776  10.273  11.069   3.147 -0.0190 -0.9223 -0.0892
  310MOL0     C41777  10.332  11.148   3.024 -0.4672  0.1554  0.0464
  310MOL0     C41778  10.481  11.158   3.023 -0.4694  0.1076  0.2689
  310MOL0     C41779  10.602  11.159   3.030  1.0500  0.4612 -0.7145
  310MOL0     C41780   9.717  11.232   3.291  0.5416 -0.0392  0.3063
  310MOL0     C41781   9.574  11.234   3.273 -0.7901  0.5514  0.2831
  310MOL0     C41782   9.489  11.262   3.383  0.1295 -0.0754  0.7461
  310MOL0     H41783   9.207  11.240   2.768  1.2310 -1.7896 -2.0360
  310MOL0     H41784   8.995  11.136   2.697 -0.4390 -2.7068 -0.7963
  310MOL0     H41785   8.785  10.947   3.009  3.8691 -1.2575  0.6458
  310MOL0     H41786   8.660  10.937   2.888  1.0545  2.5340 -1.0031
  310MOL0     H41787   8.714  10.713   2.937  1.3638 -1.4277 -0.6974
  310MOL0     H41788   8.891  10.739   2.911  0.8890 -0.6077 -1.5952
  310MOL0     H41789   8.858  10.779   2.675  0.7480 -2.4003 -2.1637
  310MOL0     H41790   8.694  10.718   2.684  1.9034 -2.1667 -1.3499
  310MOL0     H41791   8.936  10.559   2.756 -0.0941  0.6730  1.6354
  310MOL0     H41792   8.770  10.516   2.801  0.9391 -0.2702  0.5553
  310MOL0     H41793   8.719  10.525   2.559  0.3770 -0.0399  0.4992
  310MOL0     H41794   8.897  10.536   2.523  0.9627  0.0196  0.7731
  310MOL0     H41795   8.948  10.344   2.676 -0.7061 -1.2330  1.9944
  310MOL0     H41796   8.780  10.313   2.692  1.1791 -2.4364 -1.9027
  310MOL0     H41797   8.738  10.293   2.461  1.7690  2.7590 -1.8953
  310MOL0     H41798   8.819  10.163   2.561 -1.3189  0.5110  0.3461
  310MOL0     H41799   8.895  10.186   2.330  1.6524  2.1732 -1.4663
  310MOL0     H41800   8.965  10.344   2.370  1.1894  0.0184  0.0052
  310MOL0     H41801   9.173  10.343   2.528  2.7245 -0.5148 -1.3309
  310MOL0     H41802   9.367  10.217   2.726  1.8407  1.3519 -0.4006
  310MOL0     H41803   9.387  10.048   2.688 -0.7853  0.3060  0.5930
  310MOL0     H41804   9.473  10.122   2.449  0.7289  2.1545 -2.2005
  310MOL0     H41805   9.464  10.293   2.486  1.6332  0.3957  0.3092
  310MOL0     H41806   9.650  10.085   2.643  0.3760  0.4501 -0.6714
  310MOL0     H41807   9.629  10.247   2.699 -1.7675  3.0468 -0.8958
  310MOL0     H41808   9.689  10.332   2.459  3.3793  1.2394 -0.8549
  310MOL0     H41809   9.732  10.164   2.426  0.0314 -1.3889  1.7287
  310MOL0     H41810  10.079  10.353   2.653 -1.8692  0.9499  0.0445
  310MOL0     H41811  10.291  10.417   2.510 -1.5042 -0.3491  3.0009
  310MOL0     H41812  10.508  10.452   2.031  2.0952 -1.5051 -3.4865
  310MOL0     H41813  10.746  10.508   1.961 -1.3871  1.7423  0.9437
  310MOL0     H41814  11.019  10.616   2.279  0.9035  0.9241 -0.2266
  310MOL0     H41815  11.072  10.451   2.242 -1.1878 -0.0526  0.3059
  310MOL0     H41816  11.201  10.504   2.060  0.5567 -0.2805 -0.0074
  310MOL0     H41817  11.148  10.672   2.056 -1.4273  1.1572  1.7377
  310MOL0     H41818  11.231  10.708   2.301 -2.9129 -3.0552 -0.6722
  310MOL0     H41819  11.305  10.553   2.287  0.4451  0.2122  0.3182
  310MOL0     H41820  11.356  10.787   2.124  0.8062  0.5316  0.6017
  310MOL0     H41821  11.419  10.634   2.074 -2.1734  2.4631 -2.1529
  310MOL0     H41822  11.538  10.628   2.322 -0.2241 -0.1441  0.8869
  310MOL0     H41823  11.473  10.794   2.332  2.0894 -0.3870  1.0791
  310MOL0     H41824  11.609  10.870   2.158 -1.0602  0.6945 -0.4699
  310MOL0     H41825  11.697  10.779   2.278 -0.7204 -0.7245 -0.2146
  310MOL0     H41826  11.651  10.678   1.990 -2.2544  0.4407  0.4240
  310MOL0     H41827  11.678  10.567   2.122 -0.1742  0.5527  0.1561
  310MOL0     H41828  11.903  10.693   2.164 -0.7287  1.0967  0.2403
  310MOL0     H41829  11.879  10.610   2.011 -1.3907 -0.4683 -1.1343
  310MOL0     H41830  10.852  10.501   2.366  0.5481 -0.2008 -1.8180
  310MOL0     H41831  10.639  10.394   2.431 -1.1184 -3.6902 -0.6052
  310MOL0     H41832  10.069  10.329   2.162 -2.6194 -3.2259  1.5253
  310MOL0     H41833   9.876  10.277   2.278  0.3289  0.6092 -0.4517
  310MOL0     H41834   8.984  10.901   3.051 -0.6971  1.2234  0.4042
  310MOL0     H41835   9.201  10.988   3.115 -0.2011 -0.6203  0.2854
  310MOL0     H41836   9.599  11.103   2.953  0.6920  1.7250 -1.5492
  310MOL0     H41837   9.831  11.138   2.988  0.0555 -1.3791 -0.4585
  310MOL0     H41838  10.062  11.260   3.081  0.7007 -0.7063  0.0204
  310MOL0     H41839  10.023  11.089   3.078 -3.5046  0.5717  0.8889
  310MOL0     H41840  10.153  11.088   3.314  3.6761  0.2260  1.5179
  310MOL0     H41841  10.219  11.241   3.258  4.6819 -1.5903 -1.2233
  310MOL0     H41842  10.226  10.975   3.115  0.0358 -1.0518  0.2115
  310MOL0     H41843  10.352  11.044   3.219 -0.1537 -0.0756  0.3696
  310MOL0     H41844  10.305  11.105   2.927  0.1407 -0.8338  0.2954
  310MOL0     H41845  10.293  11.250   3.032  1.7781  1.1891 -1.2005
  310MOL0     H41846  10.709  11.149   3.032  0.8850 -2.4138  2.3692
  310MOL0     H41847   9.756  11.248   3.391  1.5532  0.1306 -0.1033
  310MOL0     H41848   9.419  11.340   3.353 -3.6717 -3.1319  0.9191
  310MOL0     H41849   9.434  11.168   3.396  0.3466 -0.0921  1.6230
  310MOL0     H41850   9.550  11.300   3.466  0.5635  3.4233 -0.9974
  311MOL0     O41851   9.684   2.320   6.658 -0.0472  0.2914  0.6405
  311MOL0     C41852   9.636   2.422   6.611 -1.1533 -0.5970  0.3855
  311MOL0     O41853   9.689   2.552   6.616  0.2892  0.4091 -0.5813
  311MOL0     C41854   9.797   2.571   6.697 -0.8205  0.4374 -0.3188
  311MOL0     C41855   9.790   2.599   6.834 -0.2191  0.2933  0.4229
  311MOL0     C41856   9.909   2.617   6.900 -0.7261 -0.5095  0.6526
  311MOL0     C41857  10.031   2.634   6.838 -0.2338  0.5781 -0.4394
  311MOL0     O41858  10.148   2.662   6.906  0.0888  0.4499 -0.0043
  311MOL0     C41859  10.185   2.551   6.993  0.6030 -0.2779 -0.1131
  311MOL0     C41860  10.222   2.426   6.906 -0.2586 -0.2096 -0.6751
  311MOL0     C41861  10.286   2.310   6.991  0.7140  0.0326 -0.7954
  311MOL0     C41862  10.165   2.228   7.063 -0.5002 -0.0697 -0.6802
  311MOL0     C41863  10.207   2.103   7.134  0.3232 -0.3810  0.1788
  311MOL0     C41864  10.089   2.033   7.206 -0.1350  0.1927  0.3616
  311MOL0     C41865  10.146   1.943   7.315 -0.4470 -0.2298  0.4252
  311MOL0     C41866  10.159   2.001   7.451  0.0844 -0.2271  0.2692
  311MOL0     N41867  10.258   2.109   7.465 -0.0355  0.3630 -0.3415
  311MOL0     C41868  10.233   2.243   7.461  0.5329  0.5676  0.9415
  311MOL0     C41869  10.357   2.302   7.456  0.6278 -0.0149  1.0353
  311MOL0     C41870  10.384   2.450   7.458 -0.4669 -0.3335 -0.3314
  311MOL0     C41871  10.347   2.512   7.326 -0.1889 -0.0656  0.3575
  311MOL0     C41872  10.372   2.659   7.306 -0.1905 -0.2276 -0.4998
  311MOL0     C41873  10.260   2.739   7.376 -0.1702  1.0730 -0.9370
  311MOL0     O41874  10.260   2.880   7.342  0.5439  0.3705 -0.7100
  311MOL0     C41875  10.377   2.954   7.372 -0.6614 -0.2837  1.0786
  311MOL0     C41876  10.467   2.930   7.478  1.1485 -0.0760 -0.4233
  311MOL0     C41877  10.587   3.006   7.491  0.3022 -0.4692 -0.0955
  311MOL0     C41878  10.611   3.109   7.393 -0.6910 -0.1368 -0.5752
  311MOL0     C41879  10.737   3.184   7.401  0.6923  0.1218 -1.3637
  311MOL0     O41880  10.771   3.236   7.521 -0.0656  0.1416  0.5157
  311MOL0     C41881  10.883   3.313   7.518 -0.2375 -0.1012 -0.4146
  311MOL0     C41882  10.872   3.452   7.494 -0.2650  0.9564  0.6342
  311MOL0     C41883  10.977   3.541   7.503  0.1867 -0.4616  0.5159
  311MOL0     C41884  11.107   3.493   7.528 -0.3990  0.0301  0.5604
  311MOL0     O41885  11.209   3.587   7.527  0.1459 -0.4878 -0.4871
  311MOL0     C41886  11.337   3.540   7.574 -1.0950  0.5872  0.2412
  311MOL0     C41887  11.419   3.665   7.591  0.3077 -0.6897  0.0925
  311MOL0     C41888  11.567   3.630   7.627  0.4825  0.6116 -1.0921
  311MOL0     C41889  11.626   3.744   7.706 -0.0308 -0.6834  0.0221
  311MOL0     C41890  11.611   3.878   7.638  0.6433 -0.4546  0.0132
  311MOL0     C41891  11.691   3.990   7.710  0.0812  0.0479 -0.3932
  311MOL0     C41892  11.848   3.972   7.704 -0.2883  0.2842 -0.0678
  311MOL0     C41893  11.908   4.003   7.570 -0.0133 -0.1498  0.2848
  311MOL0    Cl41894  12.084   4.010   7.579  0.0339 -0.2560 -0.4891
  311MOL0     C41895  11.124   3.357   7.555 -0.9070  1.2452  0.4621
  311MOL0     C41896  11.016   3.267   7.554 -0.0852 -0.5233 -0.2375
  311MOL0     O41897  10.800   3.203   7.303 -0.3652 -0.7344  0.0917
  311MOL0     C41898  10.525   3.140   7.285  0.4641  0.4342 -0.3252
  311MOL0     C41899  10.405   3.062   7.287  0.4115  1.0492 -0.1769
  311MOL0     N41900  10.452   2.206   7.475 -0.3282 -0.5692 -0.0135
  311MOL0     N41901  10.395   2.092   7.484  0.0757 -0.4525 -0.2490
  311MOL0     C41902  10.039   2.600   6.703 -0.1415 -0.1027 -0.4562
  311MOL0     C41903   9.927   2.568   6.633  0.3637  1.7268  0.6228
  311MOL0     C41904   9.509   2.416   6.535  0.1293  0.4815  0.1376
  311MOL0     C41905   9.476   2.519   6.437 -0.4294 -0.1645 -0.9299
  311MOL0     C41906   9.348   2.522   6.368 -0.4247  0.2414  0.0447
  311MOL0     C41907   9.251   2.428   6.398  0.0231  0.3768  0.1395
  311MOL0     O41908   9.132   2.419   6.332  0.0799  0.0971  0.1544
  311MOL0     C41909   9.137   2.470   6.200  0.5567 -0.6539 -0.7318
  311MOL0     C41910   9.015   2.413   6.122  0.3826 -0.9991 -0.3928
  311MOL0     C41911   9.027   2.257   6.106  0.0922 -0.3297 -0.6653
  311MOL0     C41912   9.006   2.160   6.223 -0.4826  0.6746  0.2710
  311MOL0     C41913   8.888   2.182   6.299  1.5544  0.4878 -0.2430
  311MOL0     C41914   8.775   2.191   6.358 -0.4120 -0.3450  0.2100
  311MOL0     C41915   9.281   2.334   6.499  0.0039 -0.2902  0.0171
  311MOL0     C41916   9.402   2.318   6.562 -0.0170 -0.5846  0.6641
  311MOL0     C41917   9.418   2.202   6.664 -1.1363  0.3502  0.5787
  311MOL0     H41918   9.695   2.603   6.886 -0.9165  0.0393 -0.7849
  311MOL0     H41919   9.913   2.636   7.007 -3.7604  0.9705  0.6249
  311MOL0     H41920  10.269   2.591   7.049  0.3784 -1.5746  1.2168
  311MOL0     H41921  10.104   2.530   7.064  0.1115 -0.5409 -0.7320
  311MOL0     H41922  10.299   2.459   6.836 -1.5262  1.3806 -1.3849
  311MOL0     H41923  10.139   2.382   6.851 -1.9700  1.0977  0.7455
  311MOL0     H41924  10.359   2.356   7.058  0.8560  2.4984 -2.5057
  311MOL0     H41925  10.328   2.245   6.913 -0.0380  1.0950 -2.1181
  311MOL0     H41926  10.118   2.294   7.137 -1.6068 -0.0789 -1.3517
  311MOL0     H41927  10.084   2.196   6.996 -3.2772 -1.0202  2.8418
  311MOL0     H41928  10.271   2.037   7.075  2.2466  0.3602  1.3553
  311MOL0     H41929  10.268   2.139   7.217 -1.8690  2.5056  0.7067
  311MOL0     H41930  10.016   2.103   7.249 -0.4592  0.1666 -0.1431
  311MOL0     H41931  10.039   1.973   7.129  2.7459 -1.5764 -0.2989
  311MOL0     H41932  10.242   1.899   7.286  0.3849  0.7997  1.5286
  311MOL0     H41933  10.081   1.855   7.324 -1.6257  0.6281  0.5662
  311MOL0     H41934  10.062   2.038   7.487  0.6643  1.2508  0.3689
  311MOL0     H41935  10.190   1.917   7.515  1.4875  0.3922  0.4266
  311MOL0     H41936  10.129   2.273   7.454 -0.0205 -1.2740  0.8081
  311MOL0     H41937  10.327   2.493   7.541 -0.1870 -1.0589  0.2535
  311MOL0     H41938  10.491   2.468   7.474 -0.0205  2.3117 -4.8128
  311MOL0     H41939  10.395   2.447   7.253  1.9621  1.5659  0.2170
  311MOL0     H41940  10.239   2.498   7.320 -0.3096  0.9864 -0.2448
  311MOL0     H41941  10.369   2.684   7.200 -1.7693  1.6989 -0.0613
  311MOL0     H41942  10.471   2.681   7.348 -1.2640  2.1706  1.0350
  311MOL0     H41943  10.264   2.730   7.485  0.2067  3.1030 -0.7588
  311MOL0     H41944  10.169   2.685   7.348  1.0446 -1.8873  0.3900
  311MOL0     H41945  10.444   2.854   7.551 -1.3322  2.1490  1.3258
  311MOL0     H41946  10.661   2.981   7.566  1.3415 -4.1536 -2.1168
  311MOL0     H41947  10.773   3.488   7.466 -0.1981  1.9870  1.6433
  311MOL0     H41948  10.964   3.647   7.482 -0.2719 -0.2884  1.5655
  311MOL0     H41949  11.342   3.482   7.667 -1.7809  0.1985  0.0425
  311MOL0     H41950  11.382   3.479   7.496 -1.5231 -0.8101  1.0470
  311MOL0     H41951  11.405   3.721   7.498 -1.7413 -0.4603  0.4887
  311MOL0     H41952  11.373   3.719   7.675  2.6207  0.8367  0.4908
  311MOL0     H41953  11.567   3.537   7.685 -2.8518  1.7224  1.0195
  311MOL0     H41954  11.620   3.618   7.532  0.6070  0.2684 -0.9801
  311MOL0     H41955  11.730   3.712   7.717 -1.0066 -3.7710  1.2411
  311MOL0     H41956  11.580   3.750   7.805  0.7173 -1.1419  0.4147
  311MOL0     H41957  11.508   3.913   7.623  1.3077  0.9098 -1.8684
  311MOL0     H41958  11.661   3.871   7.541  0.8957 -0.4427  0.1424
  311MOL0     H41959  11.654   4.083   7.666 -0.2204  1.4966  2.6203
  311MOL0     H41960  11.655   3.991   7.814 -0.7885 -1.1395 -0.6647
  311MOL0     H41961  11.884   3.873   7.732  3.7589  2.3036  3.0532
  311MOL0     H41962  11.898   4.032   7.781 -0.6744  0.4060  0.0881
  311MOL0     H41963  11.877   3.919   7.507  0.8707 -0.4753  0.2766
  311MOL0     H41964  11.863   4.097   7.537  1.3493  1.6209  3.0638
  311MOL0     H41965  11.219   3.324   7.597  0.3074  3.7876 -0.0874
  311MOL0     H41966  11.028   3.162   7.580  2.5724  0.3911  2.9968
  311MOL0     H41967  10.557   3.201   7.201  2.7916  0.1699  0.2912
  311MOL0     H41968  10.344   3.059   7.197  0.9376 -2.7414 -0.5648
  311MOL0     H41969  10.137   2.601   6.655  1.1963 -1.1346  2.0599
  311MOL0     H41970   9.939   2.555   6.525  5.2342  0.4474  1.0731
  311MOL0     H41971   9.550   2.596   6.422  0.5965 -1.3195 -2.1260
  311MOL0     H41972   9.334   2.592   6.286 -2.1047 -0.2762 -0.1403
  311MOL0     H41973   9.228   2.441   6.146 -0.2542 -2.5357 -1.1672
  311MOL0     H41974   9.127   2.578   6.208  1.0895 -0.7305  2.0829
  311MOL0     H41975   9.020   2.464   6.025  0.3185 -1.3500 -0.5817
  311MOL0     H41976   8.922   2.440   6.172  1.7993  0.2341  1.7391
  311MOL0     H41977   9.126   2.240   6.062  0.0902  1.5677 -1.5092
  311MOL0     H41978   8.947   2.236   6.034 -0.6956  0.7269 -0.1193
  311MOL0     H41979   8.996   2.056   6.189 -1.6101 -0.1686  2.8846
  311MOL0     H41980   9.091   2.167   6.291 -0.3318 -1.6699  0.4342
  311MOL0     H41981   8.685   2.201   6.415  0.9935 -1.5153  2.8062
  311MOL0     H41982   9.199   2.267   6.523  0.0505  0.1384  1.4756
  311MOL0     H41983   9.319   2.172   6.699 -1.1387 -1.7477 -1.0111
  311MOL0     H41984   9.461   2.117   6.611 -4.2461 -2.9029  2.8058
  311MOL0     H41985   9.472   2.230   6.755 -1.1495 -0.1032  0.7296
  312MOL0     O41986   4.000   4.720   3.762  0.5578 -0.4506  0.2237
  312MOL0     C41987   4.011   4.604   3.765  0.4616  1.0127  0.0309
  312MOL0     O41988   4.127   4.528   3.771 -0.3265 -0.8427 -0.2151
  312MOL0     C41989   4.239   4.608   3.760  0.3874 -0.5652  0.0384
  312MOL0     C41990   4.316   4.599   3.639  0.6637  0.4245  0.6704
  312MOL0     C41991   4.430   4.680   3.630 -0.0174  0.6158  0.1910
  312MOL0     C41992   4.484   4.754   3.737  0.2488  0.1278  0.4841
  312MOL0     O41993   4.614   4.800   3.758 -0.9034 -0.2477  0.0339
  312MOL0     C41994   4.712   4.783   3.651 -0.2052 -0.5655  0.3330
  312MOL0     C41995   4.823   4.885   3.678 -0.0577  0.0831  0.3836
  312MOL0     C41996   4.966   4.856   3.624  0.2456 -0.0377  0.9433
  312MOL0     C41997   5.087   4.915   3.702  0.2776  0.0691 -0.0667
  312MOL0     C41998   5.111   5.059   3.676  0.5882 -1.1133  0.1647
  312MOL0     C41999   5.255   5.084   3.726  0.3232 -0.4100 -0.3387
  312MOL0     C42000   5.309   5.221   3.690  0.4758 -0.4777  0.4159
  312MOL0     C42001   5.462   5.216   3.662  0.5567 -0.1481 -0.6338
  312MOL0     N42002   5.500   5.165   3.530 -0.0134 -0.1163  0.3566
  312MOL0     C42003   5.418   5.088   3.442 -0.3728 -0.1030 -0.3845
  312MOL0     C42004   5.501   5.075   3.339 -0.9139 -0.4841  0.1701
  312MOL0     C42005   5.490   5.003   3.213 -0.4176 -0.2924  1.0127
  312MOL0     C42006   5.506   4.846   3.217  0.4978 -0.7374  0.0999
  312MOL0     C42007   5.476   4.775   3.081 -0.1737  0.3729  0.4450
  312MOL0     C42008   5.477   4.624   3.115 -0.0381 -0.4470 -0.6058
  312MOL0     O42009   5.539   4.545   3.010  0.5076 -0.6288 -0.4467
  312MOL0     C42010   5.667   4.558   2.970 -0.6676  0.1381  0.5112
  312MOL0     C42011   5.773   4.613   3.038  0.3106 -0.0342 -0.7628
  312MOL0     C42012   5.902   4.623   2.977  0.2126  0.6190 -0.1321
  312MOL0     C42013   5.931   4.576   2.846  1.0433  0.2138 -0.2665
  312MOL0     C42014   6.067   4.554   2.793  0.3764 -0.2480 -0.4885
  312MOL0     O42015   6.169   4.608   2.863 -0.0819 -0.8450  0.2114
  312MOL0     C42016   6.295   4.580   2.821 -0.3324  0.2547  0.3381
  312MOL0     C42017   6.378   4.484   2.889  0.1536  0.3279 -0.3356
  312MOL0     C42018   6.507   4.472   2.840  0.0424  0.2853 -0.2191
  312MOL0     C42019   6.563   4.554   2.740 -0.0894  0.9080 -0.0821
  312MOL0     O42020   6.680   4.536   2.670  1.2649 -0.1115 -0.7594
  312MOL0     C42021   6.788   4.510   2.761  0.7346 -0.6015  0.0801
  312MOL0     C42022   6.922   4.537   2.686  0.5781  0.2479 -0.3178
  312MOL0     C42023   7.041   4.507   2.772  0.0552 -0.3835  0.0253
  312MOL0     C42024   7.170   4.540   2.704  0.1865 -0.2315  0.3719
  312MOL0     C42025   7.295   4.538   2.799 -0.6718  0.7377  0.1331
  312MOL0     C42026   7.417   4.512   2.708  0.1141 -0.3014  0.0144
  312MOL0     C42027   7.551   4.515   2.791  0.0971 -1.0901  0.2782
  312MOL0     C42028   7.679   4.550   2.708 -1.0211 -0.2981 -1.0311
  312MOL0    Cl42029   7.816   4.561   2.825  0.4288 -0.1470 -0.2703
  312MOL0     C42030   6.479   4.652   2.681 -0.9564  0.1481 -0.9444
  312MOL0     C42031   6.347   4.655   2.722 -0.1196 -0.4749 -0.3747
  312MOL0     O42032   6.084   4.487   2.690 -0.2565 -0.5401  0.2303
  312MOL0     C42033   5.815   4.522   2.785  0.3154  0.2875  0.1791
  312MOL0     C42034   5.690   4.509   2.843  0.0456  0.8168  0.6446
  312MOL0     N42035   5.629   5.124   3.368 -0.0591 -0.5263  0.1762
  312MOL0     N42036   5.628   5.169   3.483  0.3805  0.4017 -0.3126
  312MOL0     C42037   4.404   4.749   3.852  0.1952  0.6860 -0.6759
  312MOL0     C42038   4.281   4.692   3.864 -0.0765  1.2140 -0.4946
  312MOL0     C42039   3.888   4.520   3.757  0.2918  0.1833  0.3429
  312MOL0     C42040   3.892   4.383   3.800  0.5054 -0.0237 -0.1334
  312MOL0     C42041   3.771   4.310   3.796 -0.7725  0.2071  0.2596
  312MOL0     C42042   3.651   4.370   3.749 -0.0283 -0.1717  0.1809
  312MOL0     O42043   3.538   4.298   3.773 -0.2112  0.2465  0.5686
  312MOL0     C42044   3.445   4.302   3.663 -0.2423 -0.3066 -0.0882
  312MOL0     C42045   3.322   4.379   3.710  0.6546 -0.1766 -0.0107
  312MOL0     C42046   3.225   4.391   3.590 -0.1959  0.5310  0.3200
  312MOL0     C42047   3.101   4.484   3.618  0.2887 -0.1373  0.1571
  312MOL0     C42048   3.044   4.531   3.496 -0.0475 -0.8119  0.6882
  312MOL0     C42049   2.995   4.553   3.386 -0.0423 -0.1887 -0.2267
  312MOL0     C42050   3.651   4.491   3.696 -0.3332 -0.7988  0.3090
  312MOL0     C42051   3.768   4.573   3.697  0.8399 -0.5207 -0.9756
  312MOL0     C42052   3.760   4.706   3.644  0.4126  0.5741 -0.2167
  312MOL0     H42053   4.293   4.523   3.566  1.2804  0.0966  0.8098
  312MOL0     H42054   4.472   4.671   3.530  0.3953  0.1155  0.4061
  312MOL0     H42055   4.743   4.678   3.652 -1.5456 -0.9860 -0.1309
  312MOL0     H42056   4.668   4.807   3.554  0.1143 -0.3253  0.2460
  312MOL0     H42057   4.834   4.903   3.785  0.4762  0.9638  0.1877
  312MOL0     H42058   4.812   4.982   3.628  0.8771 -0.4308 -0.8730
  312MOL0     H42059   4.978   4.886   3.519  1.6712 -0.7036  0.8862
  312MOL0     H42060   4.988   4.749   3.628  0.5741 -0.4300 -4.4293
  312MOL0     H42061   5.077   4.905   3.811  1.7979 -0.7848  0.0225
  312MOL0     H42062   5.169   4.850   3.672  0.4957  0.9534 -1.4706
  312MOL0     H42063   5.093   5.092   3.573 -1.0472 -0.7844  0.5197
  312MOL0     H42064   5.044   5.113   3.744 -0.0531 -1.2553 -0.3471
  312MOL0     H42065   5.262   5.077   3.835  1.1675 -0.5469 -0.3888
  312MOL0     H42066   5.318   5.010   3.676  4.3030  1.3450  1.6125
  312MOL0     H42067   5.297   5.299   3.767  0.9836  2.5678 -2.3478
  312MOL0     H42068   5.259   5.267   3.604 -0.8357 -2.2343  0.1804
  312MOL0     H42069   5.505   5.316   3.659  0.9422 -0.0805  2.9306
  312MOL0     H42070   5.511   5.166   3.746 -0.5438  1.3472  0.9729
  312MOL0     H42071   5.313   5.066   3.457 -0.1667 -0.7431  0.1758
  312MOL0     H42072   5.393   5.014   3.164  0.0114  0.6197  0.3331
  312MOL0     H42073   5.580   5.028   3.156 -0.8764  0.6279  0.6694
  312MOL0     H42074   5.607   4.834   3.256 -0.0238 -0.8911  1.4741
  312MOL0     H42075   5.430   4.812   3.288 -5.8144  0.3440 -5.1231
  312MOL0     H42076   5.558   4.796   3.013  0.7910 -2.0205  0.7634
  312MOL0     H42077   5.386   4.807   3.028 -0.4968 -2.9592 -1.2559
  312MOL0     H42078   5.376   4.589   3.136  0.6206 -2.6673 -0.8596
  312MOL0     H42079   5.534   4.612   3.207 -0.5839  2.2271  0.1547
  312MOL0     H42080   5.754   4.637   3.142 -0.1413  1.0700 -1.0818
  312MOL0     H42081   5.977   4.664   3.044  0.2609 -1.2809  1.0416
  312MOL0     H42082   6.338   4.427   2.973  1.3360 -0.2815 -0.1503
  312MOL0     H42083   6.569   4.394   2.883 -1.8527 -1.8011 -1.1073
  312MOL0     H42084   6.779   4.576   2.847  1.3167 -0.6652  0.1940
  312MOL0     H42085   6.782   4.404   2.788 -1.4129 -0.9955 -1.6095
  312MOL0     H42086   6.920   4.466   2.603  1.7701 -0.3416  0.1377
  312MOL0     H42087   6.928   4.640   2.650 -3.6212  0.8617  0.2291
  312MOL0     H42088   7.037   4.563   2.865 -2.1975  0.4297 -0.4797
  312MOL0     H42089   7.036   4.399   2.785 -0.8876 -0.4971 -1.0476
  312MOL0     H42090   7.176   4.638   2.655  0.3775 -1.8590 -3.2367
  312MOL0     H42091   7.179   4.456   2.634  1.9557 -1.9514  2.5278
  312MOL0     H42092   7.284   4.453   2.866 -0.0670  0.3965 -0.1943
  312MOL0     H42093   7.312   4.628   2.861 -1.2015  1.2457 -0.4488
  312MOL0     H42094   7.399   4.415   2.663  1.6128 -1.4812  1.7706
  312MOL0     H42095   7.430   4.602   2.648 -0.1080  1.6761  2.7084
  312MOL0     H42096   7.569   4.421   2.844  2.0470  0.2607  2.2160
  312MOL0     H42097   7.548   4.587   2.874 -1.1596 -0.0215 -0.6513
  312MOL0     H42098   7.697   4.485   2.622 -0.6791  2.7044 -3.4097
  312MOL0     H42099   7.671   4.646   2.656 -0.6563  0.5656  0.4325
  312MOL0     H42100   6.526   4.715   2.607 -1.3611  0.2475 -1.1171
  312MOL0     H42101   6.279   4.731   2.685  0.9099  2.1436  2.6479
  312MOL0     H42102   5.826   4.483   2.684 -1.6256 -1.5140  0.5892
  312MOL0     H42103   5.606   4.471   2.785 -1.6989  2.8509  1.6889
  312MOL0     H42104   4.430   4.808   3.939 -1.2826  0.3325  0.0334
  312MOL0     H42105   4.224   4.683   3.956  1.2581  1.5588  0.3941
  312MOL0     H42106   3.981   4.333   3.835  1.1707  1.8677  1.0655
  312MOL0     H42107   3.770   4.210   3.837 -0.6366 -0.1979 -0.7142
  312MOL0     H42108   3.418   4.198   3.643  0.4022 -1.2786  3.3661
  312MOL0     H42109   3.489   4.348   3.574  0.2816 -0.8146 -0.0940
  312MOL0     H42110   3.350   4.482   3.736 -1.7398  0.7868 -0.9573
  312MOL0     H42111   3.275   4.336   3.799 -2.1525 -0.9014 -1.7225
  312MOL0     H42112   3.190   4.294   3.554  1.3062  0.7433 -1.9346
  312MOL0     H42113   3.276   4.433   3.502 -0.2330 -1.0246 -0.4694
  312MOL0     H42114   3.034   4.432   3.687  2.2897 -0.2071  2.1901
  312MOL0     H42115   3.129   4.574   3.674 -0.1555  0.9385 -1.3007
  312MOL0     H42116   2.966   4.584   3.288 -1.1468 -0.8741 -0.1294
  312MOL0     H42117   3.561   4.539   3.657 -1.5045 -1.0387  2.5239
  312MOL0     H42118   3.682   4.710   3.568  1.6489  2.4767 -1.5021
  312MOL0     H42119   3.748   4.779   3.725  3.4028  1.1677 -0.1979
  312MOL0     H42120   3.850   4.742   3.592 -1.0095  3.4214 -0.9393
  313MOL0     O42121   0.897   6.736   0.034  0.2859  0.0925  0.5528
  313MOL0     C42122   0.839   6.712   0.139 -0.3200  0.2590 -0.5302
  313MOL0     O42123   0.905   6.706   0.263  0.0268 -0.3108 -0.0944
  313MOL0     C42124   1.032   6.738   0.284  0.0091 -0.3580  0.0697
  313MOL0     C42125   1.137   6.673   0.225 -0.0826  0.4767  0.0268
  313MOL0     C42126   1.265   6.693   0.267 -0.6884 -0.0670  0.0287
  313MOL0     C42127   1.302   6.786   0.366  0.7821 -0.3464  0.0146
  313MOL0     O42128   1.422   6.811   0.417 -0.9368  0.2641  0.2319
  313MOL0     C42129   1.533   6.758   0.348 -0.8282 -0.5026 -0.9376
  313MOL0     C42130   1.656   6.840   0.387 -0.2654 -0.0638 -0.2390
  313MOL0     C42131   1.784   6.759   0.357 -0.0376  0.5595  0.0523
  313MOL0     C42132   1.913   6.822   0.410 -0.6887  0.5955  0.2798
  313MOL0     C42133   2.028   6.722   0.398 -0.4511  0.5680  0.6597
  313MOL0     C42134   2.153   6.805   0.402  0.5491  0.5154  0.4530
  313MOL0     C42135   2.161   6.913   0.520  0.8493  0.4855  0.4586
  313MOL0     C42136   2.300   6.924   0.576  0.1708 -0.2303  0.3671
  313MOL0     N42137   2.381   7.012   0.491 -0.1418  0.1988 -0.0637
  313MOL0     C42138   2.463   6.966   0.393 -0.4024 -0.4163 -0.3361
  313MOL0     C42139   2.519   7.078   0.353  0.4446 -0.1846  0.2054
  313MOL0     C42140   2.625   7.081   0.242 -0.2363  0.0713 -1.2085
  313MOL0     C42141   2.589   6.991   0.123 -0.7368  0.9536 -0.0084
  313MOL0     C42142   2.668   7.030  -0.002 -0.2600  0.4968 -0.4253
  313MOL0     C42143   2.647   6.940  -0.126 -0.1768  0.0991  0.3080
  313MOL0     O42144   2.716   6.816  -0.120  0.6067  0.1482 -0.3879
  313MOL0     C42145   2.855   6.810  -0.135  0.0587  0.9222 -0.5807
  313MOL0     C42146   2.926   6.912  -0.194  0.1148 -0.8180  0.1284
  313MOL0     C42147   3.059   6.900  -0.219 -0.5716 -0.0027 -0.3853
  313MOL0     C42148   3.130   6.779  -0.175 -0.2078 -0.4355 -0.1694
  313MOL0     C42149   3.282   6.756  -0.203  0.5039  1.0901  0.1312
  313MOL0     O42150   3.339   6.626  -0.221  0.2290  0.4282  0.2348
  313MOL0     C42151   3.483   6.608  -0.228  0.8076  0.2248 -1.3517
  313MOL0     C42152   3.534   6.485  -0.171 -0.1971  0.1097  0.7664
  313MOL0     C42153   3.666   6.455  -0.181 -1.1609  0.4850 -0.5333
  313MOL0     C42154   3.758   6.540  -0.231  0.1083 -0.5073  0.5722
  313MOL0     O42155   3.884   6.490  -0.249  0.1923 -0.6931  0.8141
  313MOL0     C42156   3.995   6.580  -0.249  0.3147 -1.2592  0.2924
  313MOL0     C42157   4.111   6.486  -0.230 -0.1043  0.0772  0.5706
  313MOL0     C42158   4.247   6.550  -0.235 -0.3594 -0.2245 -0.4520
  313MOL0     C42159   4.367   6.454  -0.266 -0.5911 -0.9326  0.7722
  313MOL0     C42160   4.498   6.537  -0.288  0.2091 -0.2047 -0.2448
  313MOL0     C42161   4.620   6.453  -0.277  0.5812 -0.4700  0.1986
  313MOL0     C42162   4.736   6.552  -0.266  0.2911  0.1669  0.7177
  313MOL0     C42163   4.870   6.479  -0.279 -0.1820 -0.2618  0.4653
  313MOL0    Cl42164   4.909   6.399  -0.128 -0.5134 -0.3192 -0.3273
  313MOL0     C42165   3.710   6.669  -0.279 -0.6881 -0.3504 -0.4680
  313MOL0     C42166   3.577   6.705  -0.274  0.3303 -0.2150  0.2804
  313MOL0     O42167   3.339   6.859  -0.225  0.6796  0.0890 -0.3634
  313MOL0     C42168   3.051   6.673  -0.107 -0.0008 -0.8441 -0.2937
  313MOL0     C42169   2.914   6.691  -0.100 -1.0318  0.7110 -0.8316
  313MOL0     N42170   2.469   7.186   0.415 -0.2146  0.1335 -1.0462
  313MOL0     N42171   2.390   7.148   0.500  0.6179  0.3676  0.4779
  313MOL0     C42172   1.188   6.864   0.407 -0.0112 -0.8275  0.1993
  313MOL0     C42173   1.057   6.835   0.377  0.4389 -0.0024 -0.3764
  313MOL0     C42174   0.686   6.711   0.147 -1.3191  0.1622  0.4335
  313MOL0     C42175   0.634   6.660   0.268 -0.4801 -0.1554  0.0755
  313MOL0     C42176   0.499   6.640   0.284  0.1106 -0.4328  0.0132
  313MOL0     C42177   0.407   6.672   0.188  0.1791  0.1682  0.6539
  313MOL0     O42178   0.273   6.635   0.215 -0.1034  0.2267  0.5583
  313MOL0     C42179   0.173   6.650   0.108 -0.8515  0.0202 -0.4192
  313MOL0     C42180   0.039   6.622   0.168 -1.3819 -0.5360  0.4420
  313MOL0     C42181   0.029   6.479   0.221 -0.1993  0.4177  0.2406
  313MOL0     C42182  -0.106   6.457   0.287  0.1419 -0.3123  1.1805
  313MOL0     C42183  -0.082   6.424   0.431  0.0402  0.4186 -0.1547
  313MOL0     C42184  -0.058   6.419   0.549 -0.0721 -0.0485  0.7106
  313MOL0     C42185   0.453   6.722   0.066  0.7426 -0.2222  0.1397
  313MOL0     C42186   0.593   6.752   0.047  0.2202 -0.8912 -0.3079
  313MOL0     C42187   0.643   6.826  -0.071  0.4299  0.5951 -0.2034
  313MOL0     H42188   1.110   6.592   0.158 -0.2418  0.0413  0.5996
  313MOL0     H42189   1.338   6.628   0.218 -0.5996  0.4918 -0.5808
  313MOL0     H42190   1.535   6.654   0.381 -0.6682 -0.5644 -1.1443
  313MOL0     H42191   1.509   6.767   0.242 -1.5600  1.7582 -0.6506
  313MOL0     H42192   1.654   6.862   0.494  0.5129 -2.6808  0.3944
  313MOL0     H42193   1.662   6.932   0.329  0.8041  1.2452  1.8492
  313MOL0     H42194   1.801   6.730   0.253  2.9566  1.0949  0.2988
  313MOL0     H42195   1.766   6.665   0.411  1.6893 -0.3916 -0.9397
  313MOL0     H42196   1.936   6.907   0.345 -1.4787 -1.0766 -2.3405
  313MOL0     H42197   1.893   6.858   0.511  0.1657  0.3665  0.5411
  313MOL0     H42198   2.035   6.641   0.471  2.2854 -0.8024 -0.9368
  313MOL0     H42199   2.014   6.679   0.298  2.9011  0.6256  0.0717
  313MOL0     H42200   2.237   6.735   0.405  1.5594  1.6650 -0.1236
  313MOL0     H42201   2.153   6.865   0.311 -2.7515  0.1560  0.1010
  313MOL0     H42202   2.086   6.897   0.598 -1.1923 -2.6180 -1.8845
  313MOL0     H42203   2.129   7.010   0.481 -0.5540  0.5985  1.8045
  313MOL0     H42204   2.281   6.965   0.676  1.1257  0.2414  0.3698
  313MOL0     H42205   2.337   6.823   0.597 -0.6955 -1.2544 -2.5128
  313MOL0     H42206   2.469   6.863   0.359  0.2571 -0.1041 -1.1840
  313MOL0     H42207   2.646   7.185   0.213  0.7614  0.4020  0.5129
  313MOL0     H42208   2.720   7.052   0.287 -1.1781 -1.3592 -0.0802
  313MOL0     H42209   2.616   6.891   0.157  1.0740  1.5616  0.4254
  313MOL0     H42210   2.481   6.987   0.101 -0.9986 -0.1991  1.3378
  313MOL0     H42211   2.772   7.018   0.031 -1.1086 -0.7591  1.9907
  313MOL0     H42212   2.649   7.131  -0.041  1.1289  0.6573 -0.7255
  313MOL0     H42213   2.674   6.987  -0.221 -3.0075 -0.6196 -0.9795
  313MOL0     H42214   2.538   6.927  -0.131  0.0036 -1.0700 -2.0215
  313MOL0     H42215   2.871   6.989  -0.248  0.3670 -0.0307  0.9837
  313MOL0     H42216   3.102   6.984  -0.273 -0.5176 -1.1802 -2.2941
  313MOL0     H42217   3.476   6.407  -0.124 -2.6713  0.2603 -1.7708
  313MOL0     H42218   3.690   6.350  -0.168 -0.9773  0.4182 -1.3468
  313MOL0     H42219   4.005   6.629  -0.346  0.4187  1.0731  1.4065
  313MOL0     H42220   3.998   6.652  -0.166 -1.7012  0.7871 -1.3060
  313MOL0     H42221   4.096   6.428  -0.139 -1.4499 -1.6486 -0.6706
  313MOL0     H42222   4.101   6.418  -0.316 -0.0053  0.4279  0.2782
  313MOL0     H42223   4.258   6.637  -0.301 -0.0652  0.4628  0.4779
  313MOL0     H42224   4.265   6.589  -0.134 -1.4139  0.4599 -0.5130
  313MOL0     H42225   4.337   6.404  -0.358 -2.5631  0.8091  0.3844
  313MOL0     H42226   4.379   6.379  -0.187 -0.0132 -2.4147 -0.6632
  313MOL0     H42227   4.502   6.619  -0.217  1.3025 -0.6706  0.2501
  313MOL0     H42228   4.479   6.581  -0.387  0.7582  0.5289 -0.0282
  313MOL0     H42229   4.614   6.404  -0.179 -1.2852 -1.3971 -0.3180
  313MOL0     H42230   4.641   6.379  -0.355  2.1666 -1.2501  1.3011
  313MOL0     H42231   4.720   6.608  -0.173 -1.1499  0.1290  0.5246
  313MOL0     H42232   4.737   6.621  -0.351  2.4367 -0.2877  0.3189
  313MOL0     H42233   4.881   6.400  -0.354  1.3201 -0.6983  1.1151
  313MOL0     H42234   4.955   6.540  -0.313  0.5795 -1.7556 -0.4138
  313MOL0     H42235   3.778   6.747  -0.313 -3.1550  1.7637 -0.9048
  313MOL0     H42236   3.563   6.804  -0.315 -0.7585  0.2209  1.6228
  313MOL0     H42237   3.081   6.575  -0.073 -0.1074 -0.4950  0.8347
  313MOL0     H42238   2.836   6.630  -0.058 -1.2731  0.5535 -1.5057
  313MOL0     H42239   1.211   6.946   0.474 -0.9841  0.3200 -0.8469
  313MOL0     H42240   0.974   6.886   0.425 -0.4166 -0.6076 -1.1723
  313MOL0     H42241   0.693   6.616   0.348  1.3343 -0.9750 -1.6305
  313MOL0     H42242   0.466   6.597   0.378  1.0330  1.4511  1.2364
  313MOL0     H42243   0.199   6.572   0.035 -0.1296 -1.1904  1.0802
  313MOL0     H42244   0.175   6.750   0.063 -2.9151  0.4025  0.2343
  313MOL0     H42245  -0.038   6.638   0.092  1.3673  1.1894 -2.2126
  313MOL0     H42246   0.028   6.692   0.252  1.3715 -1.2317  1.5007
  313MOL0     H42247   0.100   6.464   0.303 -3.0095  0.2280  2.8540
  313MOL0     H42248   0.042   6.402   0.144  0.5721  2.4453 -1.7713
  313MOL0     H42249  -0.177   6.540   0.276  0.5821 -0.1994 -1.4039
  313MOL0     H42250  -0.160   6.376   0.237  1.1392 -0.1850 -0.1671
  313MOL0     H42251  -0.038   6.420   0.655 -1.4183 -0.1606  0.9769
  313MOL0     H42252   0.397   6.757  -0.020  0.3198 -2.0108 -0.3572
  313MOL0     H42253   0.565   6.879  -0.127  0.9111  2.5027  0.8489
  313MOL0     H42254   0.711   6.906  -0.039  2.1747 -0.7023 -0.5711
  313MOL0     H42255   0.702   6.756  -0.131 -0.2577  0.0875 -0.2991
  314MOL0     O42256   9.552  10.775   8.007  0.3314 -0.2892  0.0503
  314MOL0     C42257   9.535  10.824   7.894 -0.1822 -0.3380 -0.7006
  314MOL0     O42258   9.638  10.880   7.817  0.6397 -0.5985  0.2658
  314MOL0     C42259   9.766  10.893   7.871 -0.2295  0.2144 -1.4476
  314MOL0     C42260   9.812  11.017   7.933 -0.1279 -0.3889 -0.7369
  314MOL0     C42261   9.944  11.035   7.978 -0.5971 -0.5107  0.1057
  314MOL0     C42262  10.041  10.937   7.960  0.7471 -0.2908  0.3236
  314MOL0     O42263  10.175  10.972   8.000  0.5860  0.4728  0.3700
  314MOL0     C42264  10.287  10.900   7.935 -0.2562 -0.3132 -0.9485
  314MOL0     C42265  10.303  10.933   7.790 -0.3541  0.3341 -0.6858
  314MOL0     C42266  10.417  10.864   7.720 -0.4825 -0.6758  0.8883
  314MOL0     C42267  10.549  10.953   7.732 -0.4484 -0.0106 -0.0445
  314MOL0     C42268  10.662  10.907   7.649 -0.6116 -0.4633 -1.1017
  314MOL0     C42269  10.760  11.028   7.623 -0.1365 -0.2874  0.6913
  314MOL0     C42270  10.877  10.973   7.541 -0.2006 -0.2736  0.3375
  314MOL0     C42271  11.001  10.936   7.616  0.1958  0.1643 -0.0965
  314MOL0     N42272  11.106  10.871   7.535 -0.5963 -0.4456  0.4337
  314MOL0     C42273  11.166  10.938   7.428  0.0834  0.5511 -0.1573
  314MOL0     C42274  11.255  10.846   7.389 -0.4193 -0.6878 -0.6305
  314MOL0     C42275  11.357  10.849   7.278 -0.1937  0.5250 -0.0708
  314MOL0     C42276  11.487  10.918   7.308 -0.3630 -0.2032 -0.0317
  314MOL0     C42277  11.564  10.875   7.433 -0.3892  0.3565  0.2721
  314MOL0     C42278  11.623  10.733   7.416  0.3349  0.5234  0.5332
  314MOL0     O42279  11.663  10.680   7.289 -0.3924 -0.0501 -0.8567
  314MOL0     C42280  11.799  10.685   7.267 -0.3760 -0.3836  0.1979
  314MOL0     C42281  11.837  10.609   7.157 -0.0875  0.3701  0.2621
  314MOL0     C42282  11.970  10.632   7.107  0.3150 -0.6194  0.3060
  314MOL0     C42283  12.064  10.722   7.171 -0.5557  0.0922 -0.4771
  314MOL0     C42284  12.197  10.721   7.106 -0.3096 -0.5005 -0.4151
  314MOL0     O42285  12.300  10.772   7.171  0.0174  0.5033  0.3519
  314MOL0     C42286  12.422  10.755   7.108 -0.1628 -0.2772  0.2761
  314MOL0     C42287  12.515  10.660   7.159  0.8025 -0.2307  0.5352
  314MOL0     C42288  12.634  10.632   7.086 -0.2846 -0.0183 -0.3394
  314MOL0     C42289  12.661  10.702   6.968 -0.5267  0.2337  0.5217
  314MOL0     O42290  12.782  10.672   6.909 -0.1225 -0.2318 -0.0692
  314MOL0     C42291  12.775  10.584   6.793 -0.6286  0.3343 -0.1079
  314MOL0     C42292  12.921  10.522   6.782 -0.0599 -0.5067  0.3570
  314MOL0     C42293  13.028  10.627   6.748 -0.0606 -0.0717 -0.3571
  314MOL0     C42294  13.176  10.567   6.755  0.3557 -0.0413  0.5100
  314MOL0     C42295  13.287  10.660   6.716  0.4930 -0.5597 -0.0535
  314MOL0     C42296  13.420  10.582   6.695  0.0003  0.2458 -0.2995
  314MOL0     C42297  13.534  10.679   6.685  0.1892 -0.0374  0.8800
  314MOL0     C42298  13.658  10.617   6.629  0.1101 -0.3520  0.4076
  314MOL0    Cl42299  13.706  10.461   6.704 -0.0322  0.3726 -0.0222
  314MOL0     C42300  12.574  10.799   6.922  0.5425  0.2408 -0.5034
  314MOL0     C42301  12.452  10.821   6.984  0.1490  0.9055 -0.2582
  314MOL0     O42302  12.203  10.676   6.993 -0.2604 -0.1734 -0.2767
  314MOL0     C42303  12.030  10.778   7.286 -0.4580  0.0156  0.0880
  314MOL0     C42304  11.900  10.765   7.334  0.1358  0.7148 -0.3243
  314MOL0     N42305  11.244  10.736   7.463  0.6779 -0.4413 -0.0841
  314MOL0     N42306  11.157  10.742   7.550 -0.0649 -1.5415  0.2882
  314MOL0     C42307  10.001  10.814   7.893  1.0357 -0.6237 -0.4809
  314MOL0     C42308   9.867  10.792   7.849  0.1322  0.8325 -0.5011
  314MOL0     C42309   9.396  10.819   7.828  0.8651  0.4932 -0.6366
  314MOL0     C42310   9.300  10.733   7.886  0.3058 -0.3197 -0.6483
  314MOL0     C42311   9.177  10.726   7.839  1.4755  0.7292  0.0249
  314MOL0     C42312   9.136  10.803   7.726  0.2655  0.0214  0.0614
  314MOL0     O42313   9.010  10.812   7.676 -0.6525 -0.2057  0.5760
  314MOL0     C42314   8.917  10.724   7.733  0.7661 -0.3022 -0.4937
  314MOL0     C42315   8.790  10.763   7.660  0.5815  0.3479 -0.3825
  314MOL0     C42316   8.676  10.748   7.765 -0.2685  0.3046 -1.0862
  314MOL0     C42317   8.546  10.742   7.690 -0.2798  0.1669  0.2973
  314MOL0     C42318   8.435  10.766   7.776  0.2578  0.3457  0.1378
  314MOL0     C42319   8.334  10.776   7.846 -0.1266 -0.2136 -0.3620
  314MOL0     C42320   9.233  10.885   7.665 -0.6135  0.7866  0.5358
  314MOL0     C42321   9.358  10.897   7.719  0.1958 -0.1758  0.3910
  314MOL0     C42322   9.441  11.002   7.662 -0.5769  0.0428  0.0263
  314MOL0     H42323   9.753  11.108   7.938  0.5868  0.0634 -0.3755
  314MOL0     H42324   9.978  11.132   8.013 -0.5111 -0.7544  0.6993
  314MOL0     H42325  10.377  10.942   7.982 -1.4120 -1.4561  2.5879
  314MOL0     H42326  10.283  10.792   7.948 -0.4172 -0.1463  0.5916
  314MOL0     H42327  10.316  11.040   7.771 -0.0670  0.2430 -1.0054
  314MOL0     H42328  10.214  10.894   7.738  0.3633  0.4051 -2.0013
  314MOL0     H42329  10.390  10.858   7.614  0.8247  1.6252  0.3603
  314MOL0     H42330  10.431  10.759   7.743 -0.9055 -0.8257  0.4908
  314MOL0     H42331  10.531  11.058   7.707  0.7693 -0.1036 -1.4585
  314MOL0     H42332  10.585  10.963   7.835 -0.3391 -1.1155  0.0454
  314MOL0     H42333  10.720  10.830   7.701  0.0355  1.1970  0.7682
  314MOL0     H42334  10.615  10.860   7.563 -0.7516 -1.1468 -0.6586
  314MOL0     H42335  10.716  11.112   7.568 -0.2601  0.9008  2.5146
  314MOL0     H42336  10.795  11.058   7.722  0.6238  2.2418 -0.2603
  314MOL0     H42337  10.913  11.052   7.474 -2.2146 -1.5511 -2.4734
  314MOL0     H42338  10.847  10.883   7.487 -1.0839  0.5938 -0.6562
  314MOL0     H42339  11.052  11.021   7.662 -0.1762  1.4015 -1.8962
  314MOL0     H42340  10.970  10.866   7.694  1.1252 -1.6219 -1.2442
  314MOL0     H42341  11.145  11.037   7.391 -1.2169 -0.0370 -1.0909
  314MOL0     H42342  11.379  10.743   7.267  0.1895  0.2983  2.3827
  314MOL0     H42343  11.320  10.881   7.180 -1.7923 -1.1001 -0.0540
  314MOL0     H42344  11.558  10.904   7.225 -0.8361 -1.8424 -0.1911
  314MOL0     H42345  11.470  11.026   7.303  0.2664 -0.1231 -0.8363
  314MOL0     H42346  11.496  10.874   7.518 -0.1123  0.4648  0.4933
  314MOL0     H42347  11.646  10.947   7.438  0.5603 -0.4888 -1.7291
  314MOL0     H42348  11.545  10.670   7.460  0.9253  0.0089  0.8696
  314MOL0     H42349  11.699  10.722   7.494 -0.8679  3.6923  2.3670
  314MOL0     H42350  11.764  10.549   7.104 -0.4853  1.9429 -1.0362
  314MOL0     H42351  11.998  10.579   7.017  4.7414 -1.0790  1.7119
  314MOL0     H42352  12.493  10.611   7.253 -2.3599 -1.5089 -0.7692
  314MOL0     H42353  12.706  10.561   7.125  0.2433 -0.2539 -1.7093
  314MOL0     H42354  12.703  10.501   6.797 -0.3365  0.1227  2.4275
  314MOL0     H42355  12.749  10.637   6.701  0.4458 -1.3986 -1.5004
  314MOL0     H42356  12.939  10.474   6.879 -1.5393 -1.2754  0.2728
  314MOL0     H42357  12.921  10.448   6.701  1.3830 -1.7611  1.4538
  314MOL0     H42358  13.009  10.677   6.652 -1.4636  0.8680  0.3745
  314MOL0     H42359  13.019  10.698   6.831  1.1538 -2.1408  1.6583
  314MOL0     H42360  13.174  10.498   6.669 -0.1312 -0.0530  0.5319
  314MOL0     H42361  13.196  10.518   6.851  4.6966 -0.6804 -0.5206
  314MOL0     H42362  13.305  10.728   6.800 -0.6054 -1.2642  0.7812
  314MOL0     H42363  13.245  10.716   6.632 -1.5861  0.8294  1.7790
  314MOL0     H42364  13.451  10.508   6.770  0.3309  0.5780 -0.1067
  314MOL0     H42365  13.401  10.532   6.599 -0.2986  0.5555 -0.4012
  314MOL0     H42366  13.558  10.732   6.778  1.8483 -1.6426  1.4409
  314MOL0     H42367  13.512  10.767   6.625 -0.1505 -0.9269 -0.3197
  314MOL0     H42368  13.645  10.597   6.523 -1.6897 -1.5824  0.8200
  314MOL0     H42369  13.738  10.690   6.648  0.6737 -0.8783  0.1063
  314MOL0     H42370  12.594  10.869   6.841 -1.0511  2.9408  1.2777
  314MOL0     H42371  12.378  10.888   6.941  1.6727  1.7064 -1.7483
  314MOL0     H42372  12.106  10.828   7.346 -2.0820 -0.6183  2.8296
  314MOL0     H42373  11.873  10.818   7.425 -0.9599 -2.0739  1.1129
  314MOL0     H42374  10.081  10.744   7.873  0.7679 -1.0565 -0.0661
  314MOL0     H42375   9.844  10.697   7.801 -1.9445 -0.2198  2.3346
  314MOL0     H42376   9.322  10.691   7.984  1.3776  3.5341  0.9208
  314MOL0     H42377   9.104  10.669   7.896 -0.8088  3.6246  0.2353
  314MOL0     H42378   8.902  10.738   7.841 -1.0845 -0.4929 -0.6966
  314MOL0     H42379   8.944  10.621   7.712 -1.5656 -1.3485  1.2312
  314MOL0     H42380   8.785  10.701   7.570  3.8753 -1.2513  0.3798
  314MOL0     H42381   8.787  10.867   7.625  2.1494  0.4500 -0.2655
  314MOL0     H42382   8.677  10.827   7.840 -3.3883  0.5681 -1.1796
  314MOL0     H42383   8.687  10.656   7.824  1.2449 -0.8134 -2.9923
  314MOL0     H42384   8.542  10.814   7.607 -1.5247 -1.5116 -1.1801
  314MOL0     H42385   8.542  10.645   7.640 -0.0375  0.9210 -1.2323
  314MOL0     H42386   8.246  10.783   7.906 -0.0168  0.0698 -0.2336
  314MOL0     H42387   9.182  10.947   7.592 -0.2528  2.1425  1.4001
  314MOL0     H42388   9.463  11.053   7.756 -4.7680 -0.4870  1.5096
  314MOL0     H42389   9.531  10.967   7.611 -0.7846 -0.5357  0.0470
  314MOL0     H42390   9.379  11.063   7.595  0.8222  0.3030 -1.0829
  315MOL0     O42391   1.733   5.156   7.047  0.7531  0.3191  0.3625
  315MOL0     C42392   1.727   5.086   6.944 -0.7096 -0.4064  0.0242
  315MOL0     O42393   1.826   5.004   6.905  0.5238 -0.0717  0.3931
  315MOL0     C42394   1.907   4.950   6.997 -0.1701  0.2880 -0.1451
  315MOL0     C42395   2.036   4.932   6.944  0.2711  0.2919  0.0127
  315MOL0     C42396   2.131   4.873   7.023  0.1475  0.5334  0.3315
  315MOL0     C42397   2.111   4.841   7.156 -0.7973 -0.5295 -0.2560
  315MOL0     O42398   2.207   4.801   7.251 -0.0799 -0.4261  0.8118
  315MOL0     C42399   2.346   4.811   7.219  0.2987 -0.4191  0.2437
  315MOL0     C42400   2.407   4.671   7.166 -0.3050 -0.3847 -0.2758
  315MOL0     C42401   2.422   4.552   7.265  0.6374 -0.3154 -0.7802
  315MOL0     C42402   2.479   4.582   7.406 -0.0033  0.3427  0.2192
  315MOL0     C42403   2.495   4.448   7.479 -0.3452 -0.3823  0.0964
  315MOL0     C42404   2.595   4.341   7.424 -0.6777 -0.6132 -0.6301
  315MOL0     C42405   2.740   4.400   7.387  0.6701  0.1791 -0.6189
  315MOL0     C42406   2.808   4.468   7.505 -0.2256 -0.0503  0.4860
  315MOL0     N42407   2.941   4.523   7.492 -0.2239 -1.0610  0.6549
  315MOL0     C42408   3.042   4.483   7.568 -0.1054 -0.1312  0.2304
  315MOL0     C42409   3.145   4.566   7.529  0.0560  0.4450 -0.4179
  315MOL0     C42410   3.276   4.554   7.598 -0.4462 -0.5054 -0.4514
  315MOL0     C42411   3.407   4.563   7.512 -0.3582 -0.2098  0.3780
  315MOL0     C42412   3.538   4.547   7.584  0.4248  0.1811 -0.6541
  315MOL0     C42413   3.565   4.656   7.680 -0.2070  0.4672 -0.0459
  315MOL0     O42414   3.589   4.788   7.625 -0.5476 -0.0760 -0.5889
  315MOL0     C42415   3.714   4.837   7.610 -0.1085  0.0675 -0.3348
  315MOL0     C42416   3.829   4.761   7.622 -0.8846 -0.5094 -0.5496
  315MOL0     C42417   3.953   4.815   7.603  0.4397  0.3609 -0.6234
  315MOL0     C42418   3.972   4.951   7.574  0.4946  0.0402  0.4613
  315MOL0     C42419   4.111   5.005   7.552  0.5678  0.2917 -0.5500
  315MOL0     O42420   4.220   4.928   7.598 -0.7579  0.6744  0.3811
  315MOL0     C42421   4.352   4.984   7.583  0.8362  0.4302  0.2428
  315MOL0     C42422   4.394   5.096   7.656 -0.5505  0.8387 -0.3351
  315MOL0     C42423   4.525   5.146   7.645  0.1684  0.3197 -0.1455
  315MOL0     C42424   4.621   5.086   7.548  0.0688 -0.0923  0.2435
  315MOL0     O42425   4.747   5.130   7.543  0.3885 -0.6701  0.6602
  315MOL0     C42426   4.834   5.106   7.434  0.0609  0.3043  0.0885
  315MOL0     C42427   4.949   5.201   7.429  0.4710 -0.1643 -0.0159
  315MOL0     C42428   5.075   5.143   7.362 -0.2600 -0.5029 -0.6066
  315MOL0     C42429   5.191   5.239   7.382 -0.1147 -0.0389 -0.4410
  315MOL0     C42430   5.327   5.199   7.343 -0.6357 -0.0036  0.5900
  315MOL0     C42431   5.434   5.316   7.348  0.1342  0.3431 -0.1105
  315MOL0     C42432   5.582   5.275   7.305  0.2820  0.6310  0.5656
  315MOL0     C42433   5.663   5.401   7.296 -0.2767 -0.0074  0.2143
  315MOL0    Cl42434   5.719   5.441   7.466  0.1152 -0.4073  0.4550
  315MOL0     C42435   4.566   4.972   7.478  0.4797  0.4103  0.6782
  315MOL0     C42436   4.439   4.929   7.494 -0.1209 -0.1913  0.0252
  315MOL0     O42437   4.125   5.123   7.522  0.0004 -0.3836  0.2407
  315MOL0     C42438   3.856   5.027   7.547  0.5135 -0.2072 -0.0032
  315MOL0     C42439   3.725   4.968   7.572  0.2569 -0.1124 -0.3932
  315MOL0     N42440   3.108   4.635   7.417 -0.4888  0.2155 -0.0881
  315MOL0     N42441   2.988   4.607   7.398 -0.4588  0.3117  0.0871
  315MOL0     C42442   1.988   4.887   7.205  0.3432  0.0574 -0.0818
  315MOL0     C42443   1.880   4.931   7.128 -0.1322  0.0850  0.7516
  315MOL0     C42444   1.613   5.093   6.855  0.2638  0.5509  0.3743
  315MOL0     C42445   1.628   5.047   6.722  0.1161 -0.3669 -0.4582
  315MOL0     C42446   1.529   5.050   6.628 -0.3771 -0.2380  0.1007
  315MOL0     C42447   1.409   5.117   6.664 -0.5757  0.0824  0.0844
  315MOL0     O42448   1.304   5.112   6.568  0.2265 -0.3124 -0.2998
  315MOL0     C42449   1.182   5.186   6.599  1.0982  0.3688  0.4354
  315MOL0     C42450   1.109   5.176   6.466  0.2239  0.4091  0.3500
  315MOL0     C42451   1.192   5.256   6.359 -0.6993  0.5781  0.0116
  315MOL0     C42452   1.121   5.301   6.235  0.1898 -0.5349  1.1927
  315MOL0     C42453   1.005   5.385   6.269 -0.1126  0.3123  0.1201
  315MOL0     C42454   0.899   5.438   6.295  0.0025  0.8893 -0.4520
  315MOL0     C42455   1.389   5.172   6.790  0.1212  0.0816 -0.3891
  315MOL0     C42456   1.495   5.162   6.888 -0.1975 -0.0070 -0.6165
  315MOL0     C42457   1.467   5.217   7.021 -0.2611 -0.3752  0.2681
  315MOL0     H42458   2.059   4.958   6.841  2.2266  2.5231  0.9062
  315MOL0     H42459   2.226   4.839   6.981  0.2722  0.9665  0.2600
  315MOL0     H42460   2.376   4.885   7.145  2.2910 -3.4392 -2.2455
  315MOL0     H42461   2.405   4.828   7.309 -2.7668  0.2940  2.2632
  315MOL0     H42462   2.510   4.690   7.135  0.0071 -1.5976 -0.0110
  315MOL0     H42463   2.343   4.635   7.085 -3.8055  2.1177  1.0826
  315MOL0     H42464   2.485   4.485   7.206  0.1195 -1.0431 -0.5196
  315MOL0     H42465   2.333   4.494   7.289  1.3758 -1.0598  0.2801
  315MOL0     H42466   2.573   4.639   7.399  1.7874 -2.4373  0.0450
  315MOL0     H42467   2.409   4.641   7.466 -2.0297 -0.2381 -1.4769
  315MOL0     H42468   2.540   4.457   7.579  0.7779 -0.0356 -0.4254
  315MOL0     H42469   2.395   4.405   7.492 -0.3048 -0.5653 -0.1829
  315MOL0     H42470   2.603   4.272   7.509  0.3928  1.6155  1.1689
  315MOL0     H42471   2.549   4.288   7.340 -0.2183 -2.9607  0.5080
  315MOL0     H42472   2.741   4.470   7.303 -1.6321  0.6548 -0.3137
  315MOL0     H42473   2.809   4.327   7.345  1.9969  1.0027  0.0684
  315MOL0     H42474   2.750   4.551   7.547 -1.7971 -2.4111  3.3794
  315MOL0     H42475   2.800   4.393   7.585 -3.3371 -0.9725 -0.5522
  315MOL0     H42476   3.051   4.415   7.652 -1.0194  1.1502  1.4155
  315MOL0     H42477   3.271   4.623   7.683 -1.7586 -1.7244  0.5163
  315MOL0     H42478   3.284   4.456   7.648  4.3135 -0.8576 -1.4475
  315MOL0     H42479   3.414   4.489   7.432  2.0549  1.7575 -1.3908
  315MOL0     H42480   3.408   4.665   7.472 -1.5250 -1.2299 -2.5450
  315MOL0     H42481   3.620   4.526   7.515 -0.6084 -3.7518 -0.9423
  315MOL0     H42482   3.545   4.454   7.642 -0.6908  1.2150  1.2551
  315MOL0     H42483   3.638   4.625   7.756 -1.9760 -2.9629  0.4710
  315MOL0     H42484   3.472   4.667   7.737  0.6747 -0.2688  1.6022
  315MOL0     H42485   3.836   4.655   7.644  0.7247 -0.1191  1.0408
  315MOL0     H42486   4.033   4.744   7.619 -0.5944 -0.3221  2.1390
  315MOL0     H42487   4.320   5.133   7.724 -0.6620  0.7583 -0.4116
  315MOL0     H42488   4.566   5.230   7.701 -0.6380 -0.8191  2.3011
  315MOL0     H42489   4.866   5.002   7.432  1.5743  0.7034  1.7775
  315MOL0     H42490   4.774   5.127   7.345  0.3810 -0.3803 -0.2995
  315MOL0     H42491   4.924   5.297   7.383 -1.7695 -0.4445  0.5172
  315MOL0     H42492   4.979   5.222   7.532 -1.0767 -1.5957  0.7530
  315MOL0     H42493   5.104   5.048   7.408  1.2031  0.2456  0.0910
  315MOL0     H42494   5.052   5.127   7.256 -2.0097 -0.1719 -0.3180
  315MOL0     H42495   5.187   5.260   7.489 -1.8973  0.4452 -0.5687
  315MOL0     H42496   5.155   5.333   7.338 -1.0521 -1.6164 -3.2506
  315MOL0     H42497   5.320   5.148   7.246 -0.4624 -0.7061  0.9379
  315MOL0     H42498   5.368   5.123   7.411 -1.3883 -0.1623  0.8776
  315MOL0     H42499   5.392   5.394   7.284 -2.4981 -1.0596 -0.2101
  315MOL0     H42500   5.440   5.347   7.453 -0.9969 -1.2601  0.4478
  315MOL0     H42501   5.571   5.225   7.208  2.4487 -2.7185  1.8507
  315MOL0     H42502   5.617   5.206   7.383  1.2108 -0.0145 -0.3951
  315MOL0     H42503   5.750   5.393   7.231  0.7064 -1.5885  1.6235
  315MOL0     H42504   5.601   5.481   7.256  1.3530  0.5238 -1.3534
  315MOL0     H42505   4.640   4.917   7.420 -0.9501 -0.5713 -0.2688
  315MOL0     H42506   4.406   4.842   7.438  1.0958  0.4260 -1.7292
  315MOL0     H42507   3.860   5.127   7.506 -1.3902  0.1699  0.6038
  315MOL0     H42508   3.642   5.037   7.572  0.5362  0.2503 -1.6381
  315MOL0     H42509   1.974   4.879   7.312 -3.9054  0.2317 -0.4562
  315MOL0     H42510   1.787   4.954   7.179 -0.1716  3.1554 -0.4666
  315MOL0     H42511   1.723   5.010   6.683 -0.1004 -0.5873 -0.7866
  315MOL0     H42512   1.540   5.025   6.523  2.2875 -1.7889  0.6392
  315MOL0     H42513   1.188   5.292   6.628 -3.2052  1.0334 -0.4685
  315MOL0     H42514   1.117   5.137   6.671  0.5221  1.7922  0.9331
  315MOL0     H42515   1.011   5.224   6.472 -0.1480 -0.4614  1.9798
  315MOL0     H42516   1.091   5.071   6.444 -0.0930  0.5288  0.0338
  315MOL0     H42517   1.282   5.201   6.332  0.9116  1.6041  2.8376
  315MOL0     H42518   1.235   5.345   6.407  0.9057 -1.6989  3.1444
  315MOL0     H42519   1.194   5.359   6.177 -0.4399 -0.3411  0.5763
  315MOL0     H42520   1.093   5.224   6.162 -2.2648  1.7093 -0.4795
  315MOL0     H42521   0.806   5.476   6.333  1.1713  0.5647  3.0768
  315MOL0     H42522   1.298   5.228   6.812 -0.9924 -0.3874 -3.3243
  315MOL0     H42523   1.500   5.160   7.109 -0.4118 -1.0627 -0.1134
  315MOL0     H42524   1.510   5.317   7.037 -0.5154  0.0397 -1.4819
  315MOL0     H42525   1.358   5.226   7.026 -0.3296 -1.2268  0.4735
  316MOL0     O42526  10.227   5.583   8.316 -0.1596 -0.5557 -0.0133
  316MOL0     C42527  10.174   5.480   8.268  0.4455 -0.3314  0.2865
  316MOL0     O42528  10.225   5.357   8.258 -0.8558 -0.3347  0.3101
  316MOL0     C42529  10.351   5.328   8.300  0.1599  0.1043  1.3642
  316MOL0     C42530  10.458   5.415   8.332 -0.4575  0.6553  0.1955
  316MOL0     C42531  10.579   5.358   8.378 -0.9071 -0.1432  0.5998
  316MOL0     C42532  10.598   5.220   8.409  0.7906 -0.0726 -0.2290
  316MOL0     O42533  10.706   5.162   8.457 -0.2909  0.3754  0.5154
  316MOL0     C42534  10.826   5.240   8.478 -0.3735 -0.0158  0.3015
  316MOL0     C42535  10.932   5.147   8.536  0.5117 -0.7235  0.7983
  316MOL0     C42536  11.079   5.186   8.552 -0.4732  0.7737  0.0032
  316MOL0     C42537  11.095   5.315   8.616 -1.4253 -0.1575 -0.2402
  316MOL0     C42538  11.248   5.373   8.635  1.3644 -0.1386  0.2490
  316MOL0     C42539  11.320   5.299   8.739 -0.7453 -0.4519  0.7106
  316MOL0     C42540  11.471   5.320   8.717  0.2456 -0.0474  0.1453
  316MOL0     C42541  11.563   5.247   8.817 -0.6792  0.1398 -0.0001
  316MOL0     N42542  11.697   5.245   8.764 -1.1084 -0.0122 -0.1967
  316MOL0     C42543  11.806   5.329   8.792  0.6841 -0.0448 -0.3154
  316MOL0     C42544  11.895   5.290   8.701  0.2715  0.3493 -0.2046
  316MOL0     C42545  12.027   5.352   8.685 -0.7790 -0.3969  1.2066
  316MOL0     C42546  12.120   5.290   8.584  0.1006  0.7321 -0.2181
  316MOL0     C42547  12.235   5.391   8.582 -0.1672  0.4446  1.3279
  316MOL0     C42548  12.351   5.339   8.491  0.0464 -0.3760 -0.3713
  316MOL0     O42549  12.449   5.442   8.461 -0.1798 -0.0985  0.1299
  316MOL0     C42550  12.571   5.411   8.410  0.5192  0.3693  0.7471
  316MOL0     C42551  12.680   5.489   8.447  0.1900  0.1239  0.3105
  316MOL0     C42552  12.810   5.447   8.423 -0.5668 -0.3421  0.7676
  316MOL0     C42553  12.835   5.332   8.347  0.5553  0.3686  0.1366
  316MOL0     C42554  12.969   5.297   8.308  0.0069  0.2613 -0.8072
  316MOL0     O42555  13.072   5.356   8.378 -0.4265 -0.3350  0.0259
  316MOL0     C42556  13.195   5.339   8.329 -0.5486 -0.4311 -0.3234
  316MOL0     C42557  13.274   5.452   8.323 -0.3631  0.3226  0.2004
  316MOL0     C42558  13.399   5.446   8.259 -0.3967  0.0307  0.4308
  316MOL0     C42559  13.449   5.322   8.218 -0.8939  0.7496  0.0977
  316MOL0     O42560  13.557   5.334   8.145 -0.1485  0.5531 -0.0108
  316MOL0     C42561  13.619   5.221   8.091 -0.8929  0.4051  0.4699
  316MOL0     C42562  13.757   5.250   8.031 -0.4456 -0.7958  0.2376
  316MOL0     C42563  13.856   5.314   8.130  0.2709 -0.1748 -1.0706
  316MOL0     C42564  13.998   5.298   8.089 -0.5663  0.7122 -0.0792
  316MOL0     C42565  14.041   5.403   7.982  0.1646  0.9418 -0.0016
  316MOL0     C42566  14.170   5.370   7.912 -0.3730 -0.2481 -0.0178
  316MOL0     C42567  14.191   5.465   7.796  0.4972  1.0995  0.5122
  316MOL0     C42568  14.329   5.433   7.730 -0.2408  0.7106  0.0508
  316MOL0    Cl42569  14.409   5.585   7.699 -0.1691 -0.0580 -0.1489
  316MOL0     C42570  13.377   5.203   8.233  0.6127  0.7304 -1.2035
  316MOL0     C42571  13.244   5.212   8.282  0.0609 -0.4999  0.4364
  316MOL0     O42572  12.977   5.229   8.205 -0.2407 -0.7094 -0.2624
  316MOL0     C42573  12.723   5.260   8.297  0.1321 -0.6377 -0.3478
  316MOL0     C42574  12.591   5.304   8.330  0.5451  0.4347  0.0292
  316MOL0     N42575  11.862   5.178   8.640  0.1448 -0.3923  0.4195
  316MOL0     N42576  11.737   5.153   8.672  0.5467  0.4086  0.0517
  316MOL0     C42577  10.486   5.135   8.387 -0.4483 -0.1451  0.4398
  316MOL0     C42578  10.371   5.190   8.334  0.3504  0.4399 -0.4169
  316MOL0     C42579  10.034   5.493   8.210 -1.5427  0.7096 -0.4821
  316MOL0     C42580   9.989   5.386   8.126 -0.1765 -0.7591  0.3153
  316MOL0     C42581   9.870   5.398   8.060  0.6303  0.4941  0.0897
  316MOL0     C42582   9.790   5.512   8.073 -0.4338  0.6772  0.1279
  316MOL0     O42583   9.673   5.540   8.012 -0.2861  0.2260  0.8005
  316MOL0     C42584   9.592   5.425   7.974 -0.3894  0.6855 -0.2682
  316MOL0     C42585   9.457   5.464   7.919  0.1669 -0.3309 -0.1686
  316MOL0     C42586   9.480   5.566   7.803  0.7613 -0.1976 -0.6352
  316MOL0     C42587   9.348   5.601   7.730  0.0950  0.7501 -0.6057
  316MOL0     C42588   9.267   5.498   7.662  0.0199  0.4153  0.0850
  316MOL0     C42589   9.207   5.415   7.594  0.2671 -0.3326 -0.0254
  316MOL0     C42590   9.835   5.617   8.145 -0.1777 -0.1282 -0.4943
  316MOL0     C42591   9.951   5.609   8.218 -0.2049  0.3668  0.8899
  316MOL0     C42592   9.987   5.736   8.296 -0.1369  0.0710  0.1367
  316MOL0     H42593  10.460   5.523   8.329 -1.3851  0.8865  3.6591
  316MOL0     H42594  10.667   5.421   8.385  0.7885 -2.2287 -0.8100
  316MOL0     H42595  10.861   5.275   8.381 -0.7497 -0.8908 -0.1593
  316MOL0     H42596  10.800   5.333   8.529 -1.1797 -1.4524  2.7130
  316MOL0     H42597  10.927   5.053   8.479 -1.4762 -0.5933  0.6726
  316MOL0     H42598  10.900   5.112   8.635  2.0364 -2.8296  0.6257
  316MOL0     H42599  11.131   5.183   8.456 -0.3417 -0.4855  0.0913
  316MOL0     H42600  11.118   5.109   8.619  0.9013  1.4115 -0.0377
  316MOL0     H42601  11.043   5.390   8.557 -4.7981 -1.6013  0.6293
  316MOL0     H42602  11.043   5.318   8.713  0.8557 -1.0303  1.0954
  316MOL0     H42603  11.289   5.379   8.534 -2.1368  2.0228 -1.2462
  316MOL0     H42604  11.234   5.475   8.671 -1.0155  0.1582 -1.2821
  316MOL0     H42605  11.304   5.341   8.839 -0.1402  1.8825 -0.1031
  316MOL0     H42606  11.300   5.192   8.739  2.4842 -1.1729  1.3311
  316MOL0     H42607  11.489   5.427   8.738 -2.9966  0.0569  3.4469
  316MOL0     H42608  11.494   5.287   8.616  0.4501 -0.7629  0.4175
  316MOL0     H42609  11.570   5.288   8.918  2.4991  2.9441 -1.1744
  316MOL0     H42610  11.542   5.141   8.830 -0.3090  0.2952  2.0852
  316MOL0     H42611  11.821   5.409   8.864  2.9811 -1.4997  0.9488
  316MOL0     H42612  12.009   5.459   8.671 -1.3908 -0.5139  1.0516
  316MOL0     H42613  12.083   5.350   8.779  0.3249 -3.1756  0.5696
  316MOL0     H42614  12.144   5.192   8.626 -1.1564  0.1594 -0.7912
  316MOL0     H42615  12.064   5.272   8.492 -2.5966 -0.4350  1.5291
  316MOL0     H42616  12.289   5.403   8.677 -0.3154  1.0160  1.3455
  316MOL0     H42617  12.210   5.485   8.532 -1.3545 -0.7609 -0.4639
  316MOL0     H42618  12.316   5.304   8.393  1.2043 -0.7633 -0.6602
  316MOL0     H42619  12.411   5.258   8.534 -0.5396  0.9027  3.2260
  316MOL0     H42620  12.667   5.574   8.514  0.5039 -1.2204  2.1482
  316MOL0     H42621  12.894   5.505   8.458 -0.8505  0.5150  0.0709
  316MOL0     H42622  13.247   5.550   8.361  1.3542 -0.7080  4.5911
  316MOL0     H42623  13.453   5.538   8.239  0.6349 -1.0246 -2.1070
  316MOL0     H42624  13.624   5.142   8.167  1.1422 -0.1319 -0.1582
  316MOL0     H42625  13.557   5.184   8.008 -0.2486  0.2139  0.0671
  316MOL0     H42626  13.803   5.155   8.000 -0.8014 -1.0719  0.5426
  316MOL0     H42627  13.756   5.322   7.949  1.0144  0.7938  1.5306
  316MOL0     H42628  13.830   5.420   8.141 -0.1045 -0.3121 -0.6229
  316MOL0     H42629  13.846   5.274   8.231 -0.3369  0.4088 -0.8958
  316MOL0     H42630  14.017   5.200   8.045  0.8010  1.6489 -1.6769
  316MOL0     H42631  14.052   5.314   8.183 -1.0387 -2.6328  0.8782
  316MOL0     H42632  14.060   5.499   8.032  1.3445  1.7754 -1.9382
  316MOL0     H42633  13.968   5.418   7.903 -1.1418  2.6207  1.4430
  316MOL0     H42634  14.256   5.368   7.980 -1.8647 -1.4011  1.9112
  316MOL0     H42635  14.173   5.267   7.874  4.0771 -0.2144 -0.3837
  316MOL0     H42636  14.175   5.562   7.843 -0.0903  1.8265 -1.1003
  316MOL0     H42637  14.110   5.446   7.724  0.0588  0.9675  1.0360
  316MOL0     H42638  14.396   5.383   7.800  0.1505 -0.7095 -1.2856
  316MOL0     H42639  14.314   5.359   7.651 -1.2001 -2.7194  3.1794
  316MOL0     H42640  13.409   5.104   8.201  1.4199  0.4004  0.5481
  316MOL0     H42641  13.191   5.118   8.281  0.6054 -0.9352 -3.5773
  316MOL0     H42642  12.729   5.169   8.238  2.0492 -0.8449  0.1290
  316MOL0     H42643  12.509   5.245   8.290  1.8965 -2.7980  1.6238
  316MOL0     H42644  10.486   5.027   8.404 -2.9390 -0.4795 -1.1815
  316MOL0     H42645  10.293   5.117   8.313 -1.8297  1.9251  1.9697
  316MOL0     H42646  10.047   5.295   8.114  1.2868  0.1392  0.4608
  316MOL0     H42647   9.837   5.322   7.990 -0.4802  1.8081 -0.8612
  316MOL0     H42648   9.578   5.367   8.066  0.9724  0.5726 -0.1132
  316MOL0     H42649   9.646   5.365   7.900 -1.8318  0.1818 -0.9487
  316MOL0     H42650   9.398   5.501   8.003  1.3852  1.2449  0.0518
  316MOL0     H42651   9.408   5.373   7.883 -0.4003  0.0943 -0.4952
  316MOL0     H42652   9.554   5.528   7.732 -0.5762 -2.9393 -0.7035
  316MOL0     H42653   9.515   5.663   7.840  0.2311 -0.3467  0.2773
  316MOL0     H42654   9.282   5.648   7.804 -0.1324  0.4265 -0.6014
  316MOL0     H42655   9.379   5.678   7.659 -1.6664  0.9442 -1.2358
  316MOL0     H42656   9.144   5.357   7.529  1.5416 -2.3492  0.4312
  316MOL0     H42657   9.783   5.712   8.133  0.8278  0.7394  1.6396
  316MOL0     H42658   9.902   5.804   8.306 -0.4697  0.3912 -3.6190
  316MOL0     H42659  10.020   5.700   8.394  1.3671 -1.0197 -0.7262
  316MOL0     H42660  10.071   5.791   8.253 -0.3372 -0.2316 -0.6568
  317MOL0     O42661  10.577   4.650   7.080 -0.2286 -0.1730  0.3914
  317MOL0     C42662  10.529   4.758   7.047 -0.6104 -0.8004  0.0699
  317MOL0     O42663  10.546   4.883   7.117 -0.1262  1.4789 -0.2119
  317MOL0     C42664  10.604   4.863   7.247  0.1853  0.3623  0.0281
  317MOL0     C42665  10.712   4.938   7.292 -0.1028  0.5396  0.0471
  317MOL0     C42666  10.768   4.923   7.416  0.1717 -0.1771  0.1624
  317MOL0     C42667  10.714   4.822   7.501  0.1128 -0.6468 -0.0616
  317MOL0     O42668  10.782   4.809   7.627 -0.4881 -0.2707 -0.1169
  317MOL0     C42669  10.712   4.739   7.738 -0.0037  0.1187  0.0655
  317MOL0     C42670  10.779   4.785   7.867  0.2331  0.0990  0.3235
  317MOL0     C42671  10.733   4.923   7.918  1.2436  0.0728  0.0680
  317MOL0     C42672  10.796   4.955   8.056 -0.4221  0.1858 -0.1899
  317MOL0     C42673  10.759   5.078   8.114  0.4906 -0.1830  0.1992
  317MOL0     C42674  10.802   5.198   8.024 -0.3818  0.7307 -0.8790
  317MOL0     C42675  10.752   5.328   8.081 -1.0641 -0.5468  0.4760
  317MOL0     C42676  10.811   5.447   8.001 -0.6247 -0.0443  0.3846
  317MOL0     N42677  10.958   5.454   8.012  0.7685 -0.1553  0.4416
  317MOL0     C42678  11.019   5.487   8.127 -0.1552  0.4880 -0.0038
  317MOL0     C42679  11.148   5.494   8.104  0.2079  0.5075  0.0759
  317MOL0     C42680  11.260   5.517   8.200  0.7513  0.0069 -0.0660
  317MOL0     C42681  11.324   5.389   8.254 -0.2899 -0.5056  0.3975
  317MOL0     C42682  11.444   5.338   8.180  0.7328  0.0357 -0.4132
  317MOL0     C42683  11.512   5.225   8.253 -0.5638  0.0875 -0.6767
  317MOL0     O42684  11.579   5.139   8.164 -0.2896 -0.6108 -0.5932
  317MOL0     C42685  11.704   5.181   8.123 -0.0039  0.1379 -0.9404
  317MOL0     C42686  11.747   5.094   8.025 -0.4411 -0.7718  0.1966
  317MOL0     C42687  11.882   5.101   7.974 -0.0248  0.1118 -0.3649
  317MOL0     C42688  11.967   5.197   8.016  0.2884 -0.4452 -0.0485
  317MOL0     C42689  12.106   5.206   7.978  0.0694  0.2296  0.2854
  317MOL0     O42690  12.180   5.298   8.042 -0.4867  0.0845  0.4489
  317MOL0     C42691  12.314   5.317   8.013 -0.6767  0.2919  0.4005
  317MOL0     C42692  12.360   5.448   8.035  0.5908 -0.2835  0.9176
  317MOL0     C42693  12.490   5.477   8.013 -0.6110 -1.0204  0.4498
  317MOL0     C42694  12.589   5.389   7.977  0.4200  0.4238  0.0952
  317MOL0     O42695  12.716   5.445   7.960 -0.2688 -0.3275 -0.0594
  317MOL0     C42696  12.823   5.348   7.936 -0.4354  0.6131 -0.8204
  317MOL0     C42697  12.957   5.423   7.947 -0.2761  0.8057  0.2553
  317MOL0     C42698  13.082   5.350   7.899  0.1712 -0.3201  0.7005
  317MOL0     C42699  13.210   5.433   7.902 -0.2000 -0.5495 -0.0922
  317MOL0     C42700  13.326   5.357   7.825 -1.1991 -0.6067 -0.0472
  317MOL0     C42701  13.447   5.439   7.797 -0.2473  0.5482 -0.3146
  317MOL0     C42702  13.548   5.362   7.713  0.0121  0.2384  0.4936
  317MOL0     C42703  13.670   5.444   7.679 -0.3285 -0.4862  0.3495
  317MOL0    Cl42704  13.617   5.560   7.559  0.0641  0.2237 -0.4361
  317MOL0     C42705  12.543   5.256   7.954 -0.7798  0.0904 -0.2226
  317MOL0     C42706  12.411   5.214   7.968 -0.9845 -0.3481  0.4860
  317MOL0     O42707  12.144   5.144   7.881 -0.0977  0.0325 -0.3493
  317MOL0     C42708  11.919   5.295   8.104  0.3587  0.5463  0.0912
  317MOL0     C42709  11.787   5.295   8.153 -0.4956 -0.1236  0.9378
  317MOL0     N42710  11.169   5.463   7.972 -0.2274  0.1731  0.1386
  317MOL0     N42711  11.055   5.444   7.917 -0.1548 -0.9892  0.1825
  317MOL0     C42712  10.596   4.755   7.460  0.2738 -0.0927 -1.0576
  317MOL0     C42713  10.532   4.781   7.339 -0.4286  0.1594  0.3345
  317MOL0     C42714  10.459   4.744   6.921 -0.9104  0.6243 -0.1952
  317MOL0     C42715  10.524   4.663   6.822 -0.0869  1.0502  0.5436
  317MOL0     C42716  10.457   4.655   6.699 -0.4778  0.0086  0.5616
  317MOL0     C42717  10.343   4.730   6.661  0.4434 -0.0481  0.3685
  317MOL0     O42718  10.280   4.722   6.534 -0.2401  0.3613  0.0903
  317MOL0     C42719  10.344   4.666   6.418  0.5347  0.1143 -0.5535
  317MOL0     C42720  10.314   4.514   6.396 -0.2470 -0.2156 -0.0554
  317MOL0     C42721  10.173   4.497   6.361 -0.1411  0.2549 -0.0384
  317MOL0     C42722  10.068   4.464   6.468 -0.7328  0.2248 -0.2730
  317MOL0     C42723   9.941   4.426   6.411  0.4080  0.0296 -1.5368
  317MOL0     C42724   9.831   4.396   6.366 -0.0767 -0.5786  0.0459
  317MOL0     C42725  10.280   4.799   6.759 -0.6666  0.5567 -0.9939
  317MOL0     C42726  10.343   4.815   6.886  0.0432  0.9284 -0.4124
  317MOL0     C42727  10.273   4.903   6.987  0.2375 -0.1104 -0.1961
  317MOL0     H42728  10.758   4.985   7.205  1.4232 -0.8415  0.0530
  317MOL0     H42729  10.853   4.986   7.440 -1.2989  1.8766  0.2843
  317MOL0     H42730  10.609   4.775   7.731 -0.0602  0.6704  2.7944
  317MOL0     H42731  10.720   4.631   7.726  0.1162 -0.1225  2.0273
  317MOL0     H42732  10.889   4.788   7.860  0.2045 -1.0517 -1.1308
  317MOL0     H42733  10.757   4.708   7.942 -2.0360 -0.3517 -0.7240
  317MOL0     H42734  10.624   4.913   7.927  1.0080  1.0512 -1.2761
  317MOL0     H42735  10.762   5.003   7.849  1.7441 -0.0445  0.1426
  317MOL0     H42736  10.764   4.872   8.121  2.7380 -0.6226  0.5390
  317MOL0     H42737  10.905   4.952   8.061 -0.2423  3.8324  0.6712
  317MOL0     H42738  10.650   5.071   8.121  0.5811 -1.8850  0.3042
  317MOL0     H42739  10.806   5.086   8.213 -1.4656 -1.3777  1.3083
  317MOL0     H42740  10.911   5.201   8.025 -0.0999 -1.4288  3.8388
  317MOL0     H42741  10.753   5.191   7.926 -2.2805  0.9525 -0.0011
  317MOL0     H42742  10.779   5.334   8.187  0.9642 -1.4966  0.0720
  317MOL0     H42743  10.643   5.326   8.072 -0.9811 -2.9585 -0.5086
  317MOL0     H42744  10.787   5.446   7.895  0.2163 -0.8426  0.1934
  317MOL0     H42745  10.761   5.535   8.043  0.4746  0.7191  0.1543
  317MOL0     H42746  10.972   5.496   8.224 -0.1677 -1.8489  0.2583
  317MOL0     H42747  11.336   5.581   8.154  2.4469  0.3303  2.9258
  317MOL0     H42748  11.210   5.567   8.282 -2.4116  0.8808 -2.3342
  317MOL0     H42749  11.357   5.419   8.354  3.1578  1.1304 -1.0207
  317MOL0     H42750  11.249   5.311   8.261  1.2435 -1.9380  1.7247
  317MOL0     H42751  11.519   5.416   8.167  0.8479 -0.1866 -1.0900
  317MOL0     H42752  11.415   5.307   8.080 -0.4700  1.2782 -0.4793
  317MOL0     H42753  11.437   5.159   8.297  0.5971 -1.4155 -0.8895
  317MOL0     H42754  11.566   5.272   8.336  3.2863  1.5738 -3.7046
  317MOL0     H42755  11.686   5.008   7.999  0.8601 -1.7310  0.2161
  317MOL0     H42756  11.916   5.025   7.906 -2.1574 -1.8250  0.6031
  317MOL0     H42757  12.300   5.524   8.084  1.7765  1.2927  0.0100
  317MOL0     H42758  12.515   5.582   8.021 -0.1640 -0.9001 -1.8064
  317MOL0     H42759  12.821   5.268   8.010  0.5867  1.3226  0.0070
  317MOL0     H42760  12.820   5.295   7.840  0.2057 -2.4535  0.7035
  317MOL0     H42761  12.934   5.506   7.880 -1.9950  0.2311  0.0975
  317MOL0     H42762  12.983   5.463   8.045  1.8117  1.3522 -0.4693
  317MOL0     H42763  13.103   5.261   7.958  1.2843 -0.6907 -0.2210
  317MOL0     H42764  13.051   5.316   7.799 -0.5261  2.7587 -0.2234
  317MOL0     H42765  13.235   5.440   8.008  2.5202 -1.3247 -0.5861
  317MOL0     H42766  13.192   5.533   7.863  0.4823 -0.1703  0.5363
  317MOL0     H42767  13.280   5.330   7.730 -1.9295  0.3180  0.0216
  317MOL0     H42768  13.356   5.263   7.870  3.2290  0.5234 -0.1877
  317MOL0     H42769  13.428   5.532   7.743 -1.1742 -0.8601 -2.5451
  317MOL0     H42770  13.488   5.472   7.893  0.5191 -0.8782 -0.1316
  317MOL0     H42771  13.503   5.328   7.619 -1.0381 -1.0733  1.4302
  317MOL0     H42772  13.576   5.273   7.771 -2.7864 -0.9272  0.2261
  317MOL0     H42773  13.720   5.494   7.763 -0.2078  0.9445 -0.5443
  317MOL0     H42774  13.747   5.381   7.634  0.1111  0.0195  0.3831
  317MOL0     H42775  12.612   5.180   7.918 -0.7813  0.2701 -0.6098
  317MOL0     H42776  12.378   5.113   7.945 -0.6762  0.1026 -2.3561
  317MOL0     H42777  11.976   5.381   8.138  0.9976 -0.9083  3.0068
  317MOL0     H42778  11.746   5.379   8.209  2.5497  1.2096  1.3388
  317MOL0     H42779  10.551   4.681   7.526  0.8607  0.1865 -0.3320
  317MOL0     H42780  10.437   4.735   7.314 -0.1548  0.5540 -1.5674
  317MOL0     H42781  10.615   4.604   6.829 -0.2745  0.2972 -2.0992
  317MOL0     H42782  10.503   4.580   6.635 -0.6940  0.5545 -0.2497
  317MOL0     H42783  10.450   4.689   6.421  0.0372  3.0245  3.8777
  317MOL0     H42784  10.312   4.721   6.329 -0.5523  2.5552  1.2460
  317MOL0     H42785  10.343   4.467   6.491  2.2775  0.3551 -0.4611
  317MOL0     H42786  10.380   4.468   6.322  0.7767 -2.5674  2.1326
  317MOL0     H42787  10.172   4.399   6.312 -0.7027  0.9702 -1.5225
  317MOL0     H42788  10.134   4.577   6.298 -2.7169  1.3414  2.7019
  317MOL0     H42789  10.105   4.382   6.530 -0.1179  0.9299  0.3099
  317MOL0     H42790  10.069   4.550   6.535  0.9978 -0.5816  0.8053
  317MOL0     H42791   9.734   4.365   6.334  0.3104 -1.0542 -0.6705
  317MOL0     H42792  10.189   4.854   6.737 -1.5797  0.0365  1.2677
  317MOL0     H42793  10.172   4.925   6.950 -1.3813  1.5505  4.4619
  317MOL0     H42794  10.270   4.868   7.091 -1.4571  2.6182  0.7856
  317MOL0     H42795  10.319   5.001   6.974  0.3899 -0.2926 -1.0927
  318MOL0     O42796   2.215   0.106   5.698 -0.0733 -0.4162 -0.0994
  318MOL0     C42797   2.196   0.167   5.804 -0.7535 -0.0668  0.8693
  318MOL0     O42798   2.287   0.181   5.904 -1.0309  0.0892  0.1607
  318MOL0     C42799   2.413   0.127   5.879  0.0432 -0.7853 -0.9843
  318MOL0     C42800   2.430  -0.014   5.884  0.9031  0.5554  0.0815
  318MOL0     C42801   2.556  -0.069   5.872  0.8034  0.0364  0.7281
  318MOL0     C42802   2.670   0.012   5.851 -0.1052 -0.2596  0.0025
  318MOL0     O42803   2.786  -0.061   5.839  0.5863 -0.2309  0.3721
  318MOL0     C42804   2.909   0.016   5.844 -0.1261  0.5944  0.1363
  318MOL0     C42805   3.016  -0.084   5.798  1.0035 -0.2732  0.3712
  318MOL0     C42806   3.146  -0.016   5.752  0.2002 -0.1451  0.9492
  318MOL0     C42807   3.262  -0.124   5.749 -1.3674 -0.2266  0.4035
  318MOL0     C42808   3.406  -0.075   5.724 -0.1986 -0.4529 -0.1525
  318MOL0     C42809   3.493  -0.174   5.646 -0.3898 -0.8216 -0.5224
  318MOL0     C42810   3.640  -0.128   5.654 -0.8383  0.2529 -0.3430
  318MOL0     C42811   3.735  -0.225   5.585  0.9883  0.2086  0.6291
  318MOL0     N42812   3.713  -0.371   5.605 -0.5856  0.1210 -0.4761
  318MOL0     C42813   3.629  -0.447   5.532 -0.2210 -0.3133 -1.2879
  318MOL0     C42814   3.636  -0.569   5.591 -0.1186 -0.9740  0.1448
  318MOL0     C42815   3.574  -0.702   5.544  0.2011  0.9761 -0.0456
  318MOL0     C42816   3.477  -0.760   5.651 -0.4473  0.5916  0.1231
  318MOL0     C42817   3.333  -0.686   5.651 -0.3742 -0.7871  0.6423
  318MOL0     C42818   3.326  -0.535   5.634 -0.5507  0.3450 -0.3813
  318MOL0     O42819   3.197  -0.484   5.675 -0.9014  0.4679 -0.7407
  318MOL0     C42820   3.087  -0.502   5.600 -0.0373  0.2096 -0.0309
  318MOL0     C42821   2.967  -0.478   5.665 -0.1244  0.1951  0.1152
  318MOL0     C42822   2.842  -0.483   5.600 -0.2256  1.6426  0.5234
  318MOL0     C42823   2.844  -0.513   5.460  0.0939  1.1487 -0.7331
  318MOL0     C42824   2.719  -0.528   5.384  0.1473 -0.1282 -0.1521
  318MOL0     O42825   2.606  -0.495   5.450  0.1957  0.3600 -0.1619
  318MOL0     C42826   2.478  -0.530   5.413 -0.0421 -0.0775  0.2140
  318MOL0     C42827   2.443  -0.642   5.334 -0.3333 -0.4032  0.0426
  318MOL0     C42828   2.312  -0.659   5.288  0.8741  0.9263  0.1972
  318MOL0     C42829   2.205  -0.570   5.320 -0.3290 -0.1038 -0.0118
  318MOL0     O42830   2.072  -0.577   5.274  0.8129  0.0612  0.2607
  318MOL0     C42831   2.034  -0.710   5.238  0.1551  0.2435  0.1038
  318MOL0     C42832   1.896  -0.694   5.176 -0.4700 -0.8434 -0.3163
  318MOL0     C42833   1.829  -0.833   5.157 -0.1557 -0.6716  0.4697
  318MOL0     C42834   1.701  -0.795   5.086 -0.2045 -0.3613 -0.0870
  318MOL0     C42835   1.641  -0.917   5.031 -0.7018  0.5159  0.1237
  318MOL0     C42836   1.507  -0.895   4.961  0.1256  0.9904  0.7606
  318MOL0     C42837   1.454  -1.030   4.909  0.1922 -0.7211  0.1059
  318MOL0     C42838   1.360  -1.100   5.007  0.1131 -0.1754  0.3552
  318MOL0    Cl42839   1.204  -1.009   5.007 -0.1521  0.2578 -0.3754
  318MOL0     C42840   2.243  -0.463   5.401  1.2970 -0.2764  0.6073
  318MOL0     C42841   2.378  -0.437   5.446  0.2609 -0.5577  0.4186
  318MOL0     O42842   2.728  -0.584   5.277  0.1743  0.4587 -0.3538
  318MOL0     C42843   2.966  -0.534   5.390 -1.0569 -0.2138  0.3525
  318MOL0     C42844   3.088  -0.528   5.465 -0.7619 -0.3244 -0.3186
  318MOL0     N42845   3.714  -0.566   5.701 -0.3821 -0.7088  0.1141
  318MOL0     N42846   3.762  -0.450   5.714  0.0100 -0.0243  0.7827
  318MOL0     C42847   2.653   0.157   5.842  0.2661 -0.4506 -0.1419
  318MOL0     C42848   2.528   0.212   5.863  0.3275  0.3292 -0.1742
  318MOL0     C42849   2.072   0.249   5.834  0.1560 -0.7602 -0.4412
  318MOL0     C42850   2.070   0.328   5.953  0.0286  0.4658 -0.4881
  318MOL0     C42851   1.956   0.396   6.000  1.2533  0.0250 -0.0835
  318MOL0     C42852   1.833   0.391   5.929 -0.3737  0.6921 -0.1629
  318MOL0     O42853   1.708   0.449   5.949  0.3821  0.6708  0.1333
  318MOL0     C42854   1.689   0.542   6.059  1.1495  0.5779  0.2167
  318MOL0     C42855   1.559   0.613   6.041 -0.8831 -0.6289 -0.3565
  318MOL0     C42856   1.435   0.533   6.026  0.0810 -0.4546 -0.0284
  318MOL0     C42857   1.426   0.413   6.124  0.0463 -0.0432 -0.3209
  318MOL0     C42858   1.434   0.458   6.259  0.7464  0.6349  0.2025
  318MOL0     C42859   1.464   0.491   6.365 -0.5185 -0.0583 -0.1503
  318MOL0     C42860   1.847   0.329   5.806  0.4168 -1.1501 -0.6506
  318MOL0     C42861   1.962   0.264   5.751  0.5711  0.4067  0.3789
  318MOL0     C42862   1.947   0.191   5.620  0.8801  0.0721  0.4345
  318MOL0     H42863   2.349  -0.084   5.903 -2.2771  3.1510 -2.5247
  318MOL0     H42864   2.565  -0.176   5.886  0.4636 -0.1551 -0.4448
  318MOL0     H42865   2.907   0.109   5.785  0.9283 -0.2668 -1.3291
  318MOL0     H42866   2.941   0.046   5.944  1.3101  0.3574 -0.2291
  318MOL0     H42867   2.975  -0.141   5.714 -1.2556  0.7836  0.6595
  318MOL0     H42868   3.036  -0.150   5.883  1.2512 -0.4595  0.1683
  318MOL0     H42869   3.178   0.058   5.826  0.6530 -0.9161  1.5433
  318MOL0     H42870   3.148   0.029   5.652  2.1096  0.3162  1.1466
  318MOL0     H42871   3.277  -0.172   5.846  0.5594  3.5709  2.2009
  318MOL0     H42872   3.252  -0.204   5.675  1.1011 -0.2242 -0.0352
  318MOL0     H42873   3.398   0.012   5.658 -0.7717 -1.2410 -1.1469
  318MOL0     H42874   3.455  -0.038   5.814  0.5940 -1.1619 -0.2762
  318MOL0     H42875   3.468  -0.267   5.698 -0.1232 -0.5417  0.1240
  318MOL0     H42876   3.471  -0.190   5.540  0.0612  0.9678 -0.9191
  318MOL0     H42877   3.662  -0.140   5.761 -2.2986 -0.4521 -0.0934
  318MOL0     H42878   3.652  -0.023   5.628 -0.9389 -0.0476 -1.6454
  318MOL0     H42879   3.731  -0.208   5.477  2.3735  1.9492  0.8035
  318MOL0     H42880   3.832  -0.189   5.620  0.6358  0.9661  0.8338
  318MOL0     H42881   3.567  -0.424   5.446  0.1951  0.5971 -1.3552
  318MOL0     H42882   3.526  -0.694   5.445 -1.2642 -0.4100  0.5115
  318MOL0     H42883   3.660  -0.769   5.537 -0.2050  0.0976  2.4651
  318MOL0     H42884   3.468  -0.867   5.631  0.7128  0.3671  0.6849
  318MOL0     H42885   3.527  -0.752   5.748  1.9805 -2.2098 -0.7435
  318MOL0     H42886   3.280  -0.716   5.742 -1.2577 -4.3347 -0.8670
  318MOL0     H42887   3.275  -0.737   5.574  0.9832 -1.3860 -0.0279
  318MOL0     H42888   3.333  -0.499   5.531 -1.7657  2.7482  0.3012
  318MOL0     H42889   3.409  -0.501   5.697 -0.2491 -0.4002 -0.3644
  318MOL0     H42890   2.963  -0.444   5.768 -1.4398 -0.2997  0.2423
  318MOL0     H42891   2.749  -0.481   5.657  0.0257 -3.6360  1.6722
  318MOL0     H42892   2.514  -0.718   5.306 -0.7456  0.0052 -2.2777
  318MOL0     H42893   2.291  -0.743   5.223  0.8134  0.4109  0.8707
  318MOL0     H42894   2.094  -0.755   5.159 -0.9208  1.6671 -1.6095
  318MOL0     H42895   2.035  -0.777   5.325 -0.2887  0.8255  0.5703
  318MOL0     H42896   1.833  -0.631   5.239  1.4035  1.6201 -0.8002
  318MOL0     H42897   1.895  -0.636   5.084 -3.8941 -0.5031 -0.1859
  318MOL0     H42898   1.881  -0.906   5.095 -0.9304 -0.0517 -0.9803
  318MOL0     H42899   1.803  -0.886   5.249  0.9259 -1.9502  0.0628
  318MOL0     H42900   1.717  -0.727   5.002 -1.5073 -0.4441 -0.4310
  318MOL0     H42901   1.633  -0.744   5.155 -0.7434  0.3967 -1.1542
  318MOL0     H42902   1.630  -0.988   5.114 -0.1914  0.8823  0.5143
  318MOL0     H42903   1.711  -0.960   4.959  1.1031  0.3741  1.8924
  318MOL0     H42904   1.441  -0.851   5.035 -1.5510 -0.6756  0.3327
  318MOL0     H42905   1.522  -0.812   4.891  3.6409  2.5348  3.0655
  318MOL0     H42906   1.537  -1.094   4.881  0.9388 -0.5002  1.6904
  318MOL0     H42907   1.389  -1.022   4.821 -0.5229 -1.6908  0.5288
  318MOL0     H42908   1.341  -1.203   4.975  0.5853  0.0735 -0.7686
  318MOL0     H42909   1.413  -1.104   5.102 -0.8988  0.2089  0.9531
  318MOL0     H42910   2.180  -0.377   5.421  2.3273  1.1010 -1.6355
  318MOL0     H42911   2.413  -0.345   5.491  2.0413  0.1688 -2.2522
  318MOL0     H42912   2.967  -0.558   5.285 -2.4342  1.1072 -0.0016
  318MOL0     H42913   3.180  -0.537   5.407 -0.8539 -3.2080 -0.1988
  318MOL0     H42914   2.739   0.222   5.826 -0.9507  1.3265  0.2501
  318MOL0     H42915   2.514   0.318   5.845 -2.0604  0.1954  0.5437
  318MOL0     H42916   2.157   0.323   6.017  0.7299  2.1006 -1.2454
  318MOL0     H42917   1.960   0.447   6.096 -0.7089  1.0299 -0.4880
  318MOL0     H42918   1.768   0.618   6.057  1.8932 -0.1173 -2.7197
  318MOL0     H42919   1.683   0.485   6.152 -3.0145  0.5803  0.1439
  318MOL0     H42920   1.571   0.656   5.941 -1.3059  1.6250  0.4993
  318MOL0     H42921   1.552   0.691   6.118 -1.7920 -0.7880 -0.2628
  318MOL0     H42922   1.418   0.498   5.924 -0.3479 -2.9002  0.8231
  318MOL0     H42923   1.345   0.590   6.054 -0.6215 -2.0857  1.2001
  318MOL0     H42924   1.333   0.355   6.110  0.7468 -2.0731  2.5368
  318MOL0     H42925   1.505   0.342   6.097  0.5365  0.8272 -1.2202
  318MOL0     H42926   1.493   0.529   6.462 -1.0705 -1.0416  0.4187
  318MOL0     H42927   1.759   0.327   5.743  1.5551  3.1036 -2.7435
  318MOL0     H42928   1.850   0.214   5.575  0.3486 -0.9123  1.0633
  318MOL0     H42929   2.022   0.214   5.544  0.6532  0.8674  0.4428
  318MOL0     H42930   1.956   0.083   5.636  1.4056 -0.1043 -0.9401
  319MOL0     O42931   3.831   6.351   7.571 -0.7282 -0.0942  0.0765
  319MOL0     C42932   3.727   6.289   7.554  0.6043  0.2279  0.8667
  319MOL0     O42933   3.712   6.180   7.460 -0.1897  0.4985  0.4097
  319MOL0     C42934   3.809   6.141   7.366  0.9009 -0.6403  0.3594
  319MOL0     C42935   3.805   6.010   7.320  0.2156  0.1384 -0.2427
  319MOL0     C42936   3.867   5.963   7.208  0.0543 -0.7962  0.1017
  319MOL0     C42937   3.960   6.052   7.146 -0.5508 -0.5994 -0.5248
  319MOL0     O42938   4.033   5.999   7.042 -0.7280 -0.1322  0.6779
  319MOL0     C42939   4.088   6.094   6.947  0.2982 -0.6053  0.1385
  319MOL0     C42940   4.229   6.157   6.976  0.1384 -0.8331  0.3454
  319MOL0     C42941   4.344   6.063   6.929  1.3864 -0.0305 -0.1544
  319MOL0     C42942   4.478   6.091   7.000  0.7659  0.2206  0.5241
  319MOL0     C42943   4.532   6.232   6.964 -0.0285  0.3876  0.4312
  319MOL0     C42944   4.688   6.231   6.998 -0.1509 -1.0233  1.0076
  319MOL0     C42945   4.741   6.379   6.991  0.3134 -0.7778 -0.8830
  319MOL0     C42946   4.891   6.401   6.961 -0.2891 -0.1532 -0.1691
  319MOL0     N42947   4.936   6.539   6.984 -0.3351 -0.4699  0.5191
  319MOL0     C42948   5.033   6.586   7.075 -0.3949  0.4168 -0.1046
  319MOL0     C42949   5.075   6.698   7.024 -0.2336  0.2046 -1.1996
  319MOL0     C42950   5.170   6.792   7.082 -1.1876  0.2840  0.6336
  319MOL0     C42951   5.312   6.760   7.049 -0.2515  0.0669  0.1175
  319MOL0     C42952   5.398   6.883   7.096  0.2785  0.7563  0.4807
  319MOL0     C42953   5.550   6.849   7.074 -0.3295 -0.9594  0.1372
  319MOL0     O42954   5.622   6.974   7.101 -0.0811 -0.2204  0.1797
  319MOL0     C42955   5.733   6.972   7.176  0.7435  0.5807 -0.7740
  319MOL0     C42956   5.846   6.893   7.143 -0.1683  0.5154  0.3065
  319MOL0     C42957   5.953   6.887   7.237 -0.1866  0.1902 -0.5560
  319MOL0     C42958   5.979   6.977   7.346  0.0979 -0.3002 -0.5018
  319MOL0     C42959   6.097   6.987   7.431  0.8673 -0.3127 -0.3438
  319MOL0     O42960   6.116   7.103   7.508  0.6303 -0.1416  0.0745
  319MOL0     C42961   6.220   7.116   7.595  0.6371  0.7282 -0.3253
  319MOL0     C42962   6.270   7.245   7.614 -1.1666 -0.2133  0.1255
  319MOL0     C42963   6.389   7.267   7.695 -0.1894 -0.6068  0.1624
  319MOL0     C42964   6.450   7.159   7.753 -1.0154  0.4705  0.3626
  319MOL0     O42965   6.571   7.193   7.811  0.4668 -0.4045  0.2392
  319MOL0     C42966   6.633   7.085   7.862 -0.5007  0.0304 -0.7912
  319MOL0     C42967   6.773   7.109   7.922 -0.0688  0.5557  0.8412
  319MOL0     C42968   6.863   7.172   7.818  0.2405  0.8796 -0.7972
  319MOL0     C42969   7.004   7.180   7.874 -0.8001 -0.6419  0.5864
  319MOL0     C42970   7.109   7.174   7.759 -0.2200  0.1508 -0.1873
  319MOL0     C42971   7.262   7.154   7.800  0.2596  0.0011 -0.3697
  319MOL0     C42972   7.354   7.194   7.693 -0.7498  0.2443  0.1889
  319MOL0     C42973   7.498   7.149   7.720 -0.0664  0.1979  0.4410
  319MOL0    Cl42974   7.595   7.145   7.568  0.0265 -0.2947  0.1789
  319MOL0     C42975   6.395   7.033   7.737  0.0029 -0.3007  0.8252
  319MOL0     C42976   6.275   7.017   7.666 -0.5835 -0.1955 -0.1131
  319MOL0     O42977   6.176   6.891   7.428 -0.0726  0.3241  0.9373
  319MOL0     C42978   5.872   7.066   7.372  0.9063 -0.5084 -0.1023
  319MOL0     C42979   5.751   7.059   7.290  0.8169  0.3815  1.4747
  319MOL0     N42980   5.007   6.727   6.904  0.2110 -0.7846 -0.9757
  319MOL0     N42981   4.922   6.634   6.882 -0.5486  0.7449  0.1489
  319MOL0     C42982   3.980   6.182   7.202  0.1627 -0.2441 -1.0666
  319MOL0     C42983   3.898   6.233   7.305  0.3634 -0.2335 -0.2756
  319MOL0     C42984   3.618   6.325   7.635 -0.2109 -0.3973 -0.1871
  319MOL0     C42985   3.498   6.351   7.574 -1.1459  0.6190 -0.5535
  319MOL0     C42986   3.371   6.371   7.642 -0.8103 -0.3121 -0.2186
  319MOL0     C42987   3.377   6.378   7.784 -0.1403  0.3843 -0.5075
  319MOL0     O42988   3.256   6.400   7.854 -0.4153 -0.0072 -0.7514
  319MOL0     C42989   3.270   6.439   7.992 -0.2058  0.4852  0.0380
  319MOL0     C42990   3.138   6.476   8.059 -0.3446  0.3008  0.4285
  319MOL0     C42991   3.083   6.599   7.996 -0.1376  0.0849 -0.4345
  319MOL0     C42992   2.948   6.640   8.035  0.4673 -0.1665 -0.9741
  319MOL0     C42993   2.913   6.773   7.990 -0.6233  0.3980 -0.4815
  319MOL0     C42994   2.866   6.869   7.960  0.5312 -0.3826 -0.5463
  319MOL0     C42995   3.505   6.359   7.844 -0.6394 -0.2955 -1.2309
  319MOL0     C42996   3.624   6.331   7.774  0.8114  0.0474 -0.0963
  319MOL0     C42997   3.747   6.292   7.848  0.3943  0.0199  0.3282
  319MOL0     H42998   3.738   5.936   7.362 -1.9490  0.4176 -2.9528
  319MOL0     H42999   3.860   5.864   7.165  0.7631 -0.5828 -0.5386
  319MOL0     H43000   4.107   6.032   6.860  0.4486 -4.5785  2.7358
  319MOL0     H43001   4.024   6.181   6.929  1.2286  0.4298  1.5810
  319MOL0     H43002   4.237   6.172   7.084 -3.0203  2.0641  0.3313
  319MOL0     H43003   4.238   6.252   6.923  2.4965 -1.5934 -0.8085
  319MOL0     H43004   4.351   6.080   6.821 -1.8752  0.9523 -0.3098
  319MOL0     H43005   4.315   5.958   6.937  4.6919 -0.9748  1.0783
  319MOL0     H43006   4.469   6.075   7.108 -2.9913 -1.2507  0.1535
  319MOL0     H43007   4.551   6.021   6.959 -0.7009 -2.1995  1.8039
  319MOL0     H43008   4.518   6.262   6.859 -2.2459  0.3672  0.6650
  319MOL0     H43009   4.475   6.306   7.022  0.3328  1.9116 -1.0788
  319MOL0     H43010   4.710   6.172   7.088  0.2044 -0.0900  1.5521
  319MOL0     H43011   4.741   6.178   6.919  2.6929  0.6682  1.6654
  319MOL0     H43012   4.712   6.433   7.081 -0.9561 -3.1576  0.2366
  319MOL0     H43013   4.674   6.435   6.924 -0.6025  1.8448  2.0248
  319MOL0     H43014   4.946   6.326   7.019 -0.0934 -1.3495 -1.8283
  319MOL0     H43015   4.912   6.376   6.857 -0.9967 -0.4844 -0.2378
  319MOL0     H43016   5.067   6.529   7.160 -2.7216  0.4726  0.9585
  319MOL0     H43017   5.149   6.895   7.050 -0.9190  0.5053  1.1649
  319MOL0     H43018   5.156   6.780   7.190  0.7407  1.8121  1.1140
  319MOL0     H43019   5.355   6.674   7.101  2.6314  1.4195  0.1240
  319MOL0     H43020   5.327   6.741   6.943 -1.0624 -1.3722  0.2278
  319MOL0     H43021   5.364   6.917   7.195  1.1482  2.9198  0.0771
  319MOL0     H43022   5.378   6.956   7.017  0.5913 -1.6360 -1.9513
  319MOL0     H43023   5.578   6.798   6.982 -0.7484  0.4960 -0.8200
  319MOL0     H43024   5.582   6.779   7.152 -1.1022 -1.2525  0.1978
  319MOL0     H43025   5.846   6.829   7.056 -4.0039  2.2747 -1.2379
  319MOL0     H43026   6.025   6.811   7.209  0.6558  0.3676  1.0430
  319MOL0     H43027   6.234   7.328   7.553  0.0653  0.6992  0.5815
  319MOL0     H43028   6.440   7.362   7.706  1.1896 -1.4941  1.7967
  319MOL0     H43029   6.571   7.050   7.944  0.6733 -0.6093 -0.1555
  319MOL0     H43030   6.639   7.019   7.775  0.6391  0.6413 -1.1984
  319MOL0     H43031   6.754   7.175   8.007 -1.7102  1.0845  0.1070
  319MOL0     H43032   6.815   7.016   7.962 -0.2499  1.4439  3.2930
  319MOL0     H43033   6.873   7.114   7.726  1.7012 -1.0173  0.4831
  319MOL0     H43034   6.825   7.273   7.800 -0.1112  0.9686  0.3335
  319MOL0     H43035   7.021   7.105   7.951  1.3431 -0.1999  0.5939
  319MOL0     H43036   7.017   7.277   7.923  0.2290 -0.2219 -0.4701
  319MOL0     H43037   7.087   7.252   7.685 -1.7889 -0.8891 -0.8813
  319MOL0     H43038   7.082   7.081   7.708 -3.7744  1.2991 -0.6907
  319MOL0     H43039   7.275   7.201   7.898 -1.3458 -1.4214  0.5850
  319MOL0     H43040   7.271   7.047   7.820 -2.8654 -0.3299 -0.1487
  319MOL0     H43041   7.355   7.303   7.699  1.1357  0.2543  0.4538
  319MOL0     H43042   7.321   7.160   7.594 -0.4218  1.2979 -0.2906
  319MOL0     H43043   7.543   7.223   7.787 -0.4022 -0.7902  1.8293
  319MOL0     H43044   7.511   7.051   7.769 -0.2450 -0.6092 -1.0778
  319MOL0     H43045   6.432   6.937   7.772 -3.1697 -1.4117  1.4106
  319MOL0     H43046   6.235   6.917   7.665 -0.1247 -0.3837  0.0805
  319MOL0     H43047   5.879   7.142   7.449 -2.1846  0.0026 -0.1793
  319MOL0     H43048   5.673   7.132   7.309  2.5434  2.4451  1.0606
  319MOL0     H43049   4.052   6.254   7.164 -1.3878  1.0989 -1.5785
  319MOL0     H43050   3.901   6.333   7.348  0.3580 -2.3679  5.4342
  319MOL0     H43051   3.488   6.323   7.469 -2.6539  3.2138 -1.1715
  319MOL0     H43052   3.278   6.377   7.586 -1.0867  0.5175  0.3035
  319MOL0     H43053   3.343   6.520   7.996  2.1820 -1.4739 -1.2965
  319MOL0     H43054   3.313   6.355   8.047 -3.2699 -0.8597  0.5949
  319MOL0     H43055   3.148   6.489   8.168 -0.8082  0.0465  0.5021
  319MOL0     H43056   3.072   6.390   8.047 -0.0057 -0.3918  2.8253
  319MOL0     H43057   3.088   6.603   7.887  0.6320 -0.8703 -0.4449
  319MOL0     H43058   3.155   6.666   8.043 -1.4659  0.4772  1.1387
  319MOL0     H43059   2.876   6.568   7.996 -0.9905  0.1809  0.9207
  319MOL0     H43060   2.933   6.624   8.142 -3.2630 -1.1828 -1.5220
  319MOL0     H43061   2.824   6.960   7.923  1.7056  2.2420  3.8855
  319MOL0     H43062   3.518   6.358   7.952 -1.0184 -0.2670 -1.1838
  319MOL0     H43063   3.815   6.224   7.796  2.8128  1.5390  1.3580
  319MOL0     H43064   3.807   6.383   7.853  2.0895 -0.8751 -1.7694
  319MOL0     H43065   3.725   6.256   7.949  0.8516  0.8885  0.7466
  320MOL0     O43066   0.147   2.790   6.621 -0.0373  0.0866 -0.5562
  320MOL0     C43067   0.100   2.882   6.549  0.1328 -0.3611 -0.2578
  320MOL0     O43068   0.175   2.990   6.509  0.0400 -0.2628  0.6411
  320MOL0     C43069   0.308   2.997   6.518 -0.1722 -0.0341  0.2334
  320MOL0     C43070   0.384   2.996   6.643 -0.3933 -0.3620  0.5060
  320MOL0     C43071   0.528   3.012   6.642  0.2413 -0.2288  0.1463
  320MOL0     C43072   0.597   3.029   6.523  0.4017  0.3827  0.1239
  320MOL0     O43073   0.738   3.026   6.515  0.2621  0.2383 -0.5345
  320MOL0     C43074   0.829   3.032   6.625 -0.0334 -0.6408  0.2086
  320MOL0     C43075   0.968   3.073   6.578 -0.0004 -0.5619  0.1198
  320MOL0     C43076   0.969   3.227   6.537  0.4869 -0.0923  0.3423
  320MOL0     C43077   1.101   3.291   6.559 -0.1060 -0.8103  0.6416
  320MOL0     C43078   1.214   3.248   6.459 -0.2726 -0.3643  0.7846
  320MOL0     C43079   1.344   3.332   6.455  0.0871 -0.4738  0.0369
  320MOL0     C43080   1.334   3.469   6.379  0.5609  0.3218  0.0612
  320MOL0     C43081   1.369   3.451   6.229  0.6203 -0.5533 -0.3546
  320MOL0     N43082   1.501   3.488   6.192 -0.4810 -0.3470 -0.8291
  320MOL0     C43083   1.535   3.608   6.144 -0.0424  0.2227 -0.6702
  320MOL0     C43084   1.672   3.595   6.153  0.5489 -0.0711 -0.6246
  320MOL0     C43085   1.773   3.695   6.100 -0.2032 -0.8122 -0.2950
  320MOL0     C43086   1.722   3.836   6.122  0.2756  0.3164 -0.3953
  320MOL0     C43087   1.829   3.943   6.065  0.4800 -0.2508 -0.5007
  320MOL0     C43088   1.793   4.079   6.130 -0.0532 -0.5996  0.0778
  320MOL0     O43089   1.855   4.184   6.052 -0.1851  0.1104  0.1111
  320MOL0     C43090   1.995   4.201   6.072  0.9825 -0.6318 -0.2696
  320MOL0     C43091   2.071   4.132   6.162 -0.2174 -0.3970  0.6004
  320MOL0     C43092   2.212   4.140   6.152 -0.2135 -0.9398  0.4085
  320MOL0     C43093   2.275   4.243   6.074 -0.6445  0.3864 -0.7041
  320MOL0     C43094   2.421   4.259   6.093 -0.1790 -0.3126  0.3140
  320MOL0     O43095   2.488   4.341   6.009  0.4357 -0.1580 -0.2926
  320MOL0     C43096   2.625   4.344   6.010  0.7213  0.2771 -0.0448
  320MOL0     C43097   2.691   4.394   6.118 -0.5488 -1.3129 -0.4285
  320MOL0     C43098   2.828   4.373   6.144 -0.2786 -0.4914 -0.6999
  320MOL0     C43099   2.907   4.310   6.041 -0.0094 -0.1656 -1.0201
  320MOL0     O43100   3.044   4.301   6.068 -1.1503  0.0960 -0.1825
  320MOL0     C43101   3.127   4.271   5.953 -0.0126 -0.9464  0.5716
  320MOL0     C43102   3.271   4.314   5.998  0.0793 -0.3000  0.4896
  320MOL0     C43103   3.384   4.228   5.922  0.5159  0.0883  0.0701
  320MOL0     C43104   3.521   4.254   5.977 -0.5185 -0.0326  0.5768
  320MOL0     C43105   3.579   4.387   5.919  0.1836 -0.2051  0.1218
  320MOL0     C43106   3.714   4.417   5.968  0.6793  0.3822 -0.0648
  320MOL0     C43107   3.742   4.568   5.967 -0.8549  0.5803 -0.0710
  320MOL0     C43108   3.891   4.612   5.971 -0.2386  0.4241 -0.0390
  320MOL0    Cl43109   3.961   4.540   6.116  0.5766  0.2865  0.4163
  320MOL0     C43110   2.845   4.269   5.926  0.5408 -0.3580 -0.1282
  320MOL0     C43111   2.702   4.281   5.918 -0.5869 -0.4360  0.7967
  320MOL0     O43112   2.478   4.189   6.175  0.0264 -0.1005 -0.4888
  320MOL0     C43113   2.198   4.317   5.985  0.1370  0.6447 -0.1813
  320MOL0     C43114   2.059   4.296   5.984 -0.3184  0.0593 -0.4306
  320MOL0     N43115   1.708   3.485   6.221 -0.5766  0.0569 -0.3300
  320MOL0     N43116   1.605   3.423   6.249 -0.4521  0.3651 -0.2155
  320MOL0     C43117   0.527   3.029   6.405 -0.2352 -0.6403 -0.6198
  320MOL0     C43118   0.388   3.005   6.401  0.2213 -0.7573  0.8624
  320MOL0     C43119  -0.043   2.884   6.525  0.0869  0.4925 -0.4623
  320MOL0     C43120  -0.122   2.770   6.525  0.7766  0.0422  0.2023
  320MOL0     C43121  -0.260   2.784   6.497 -0.3216  0.0851 -0.7195
  320MOL0     C43122  -0.325   2.906   6.476 -0.0671  0.1727  0.5294
  320MOL0     O43123  -0.462   2.929   6.448  1.2222  0.3873 -0.0283
  320MOL0     C43124  -0.556   2.813   6.439 -0.1813 -1.1820  0.0844
  320MOL0     C43125  -0.708   2.862   6.421  0.3419  0.0239 -0.4817
  320MOL0     C43126  -0.764   2.856   6.560  0.4031 -0.0378  0.4002
  320MOL0     C43127  -0.856   2.730   6.582 -0.4312 -0.0227  0.7691
  320MOL0     C43128  -0.781   2.614   6.632  0.1849  0.0659 -0.0115
  320MOL0     C43129  -0.734   2.507   6.680 -0.4290  0.7165 -0.4626
  320MOL0     C43130  -0.249   3.021   6.478 -0.5352  0.1852 -0.1420
  320MOL0     C43131  -0.107   3.013   6.499 -0.4000 -0.3985 -0.2139
  320MOL0     C43132  -0.044   3.154   6.500 -0.6687 -0.2083  0.0335
  320MOL0     H43133   0.325   2.988   6.734 -0.8959  2.0379  0.4509
  320MOL0     H43134   0.577   3.018   6.738  0.5455  2.4936 -0.1196
  320MOL0     H43135   0.793   3.111   6.691 -0.0214 -0.7154  0.3042
  320MOL0     H43136   0.838   2.941   6.684  2.5399  0.3279  1.4459
  320MOL0     H43137   1.017   3.011   6.502  2.0416  1.3903 -0.2681
  320MOL0     H43138   1.030   3.074   6.668 -0.1956  1.7247  0.2819
  320MOL0     H43139   0.896   3.277   6.601 -1.0918 -2.8699  0.9015
  320MOL0     H43140   0.931   3.224   6.435  2.5545 -0.3357 -0.4665
  320MOL0     H43141   1.087   3.399   6.546  1.0735 -0.5825  1.1660
  320MOL0     H43142   1.129   3.267   6.661  0.8986  1.0868  0.8583
  320MOL0     H43143   1.242   3.143   6.463  1.1194 -0.1847 -1.6680
  320MOL0     H43144   1.172   3.254   6.358  0.1168 -2.3331  0.4652
  320MOL0     H43145   1.370   3.352   6.560  0.5061  1.1523 -0.3511
  320MOL0     H43146   1.425   3.269   6.417 -0.7325 -1.5596  0.0348
  320MOL0     H43147   1.401   3.541   6.428  3.3468 -2.7067  1.0945
  320MOL0     H43148   1.231   3.505   6.381  0.0890 -0.9753  2.0752
  320MOL0     H43149   1.356   3.345   6.204  2.1784 -1.1299  1.1527
  320MOL0     H43150   1.302   3.513   6.168 -1.5894  1.7589  3.9684
  320MOL0     H43151   1.476   3.686   6.097 -2.5602 -0.6688  0.8265
  320MOL0     H43152   1.871   3.689   6.149  0.7540 -1.4779 -2.1864
  320MOL0     H43153   1.791   3.672   5.995  1.0208 -0.8613 -0.0931
  320MOL0     H43154   1.637   3.847   6.055  0.2778 -0.4532 -0.5351
  320MOL0     H43155   1.694   3.860   6.225  1.8067 -0.8065  0.3221
  320MOL0     H43156   1.812   3.957   5.958 -1.8199  0.6439 -0.0744
  320MOL0     H43157   1.932   3.917   6.092 -0.1209 -0.6227  1.5839
  320MOL0     H43158   1.827   4.081   6.235 -1.4203 -1.5888  0.5715
  320MOL0     H43159   1.685   4.093   6.131  0.3676  4.8961 -0.5136
  320MOL0     H43160   2.019   4.069   6.234 -2.4641 -1.5470 -1.8606
  320MOL0     H43161   2.271   4.082   6.223  0.9834 -0.8429 -0.4766
  320MOL0     H43162   2.641   4.448   6.198 -0.0947 -0.2771 -0.8199
  320MOL0     H43163   2.881   4.414   6.230 -1.1544  1.1416 -0.9009
  320MOL0     H43164   3.109   4.165   5.934 -1.2256 -0.7604  0.5948
  320MOL0     H43165   3.109   4.318   5.856 -0.7020 -1.5157  0.4148
  320MOL0     H43166   3.296   4.417   5.972  0.9858 -0.8802 -1.0411
  320MOL0     H43167   3.277   4.291   6.105  0.6654 -1.0490  0.3046
  320MOL0     H43168   3.360   4.123   5.943  1.5097 -0.1492  0.0670
  320MOL0     H43169   3.386   4.244   5.814  0.2015 -0.9542 -0.1026
  320MOL0     H43170   3.586   4.171   5.948  0.8846  1.6192 -1.3350
  320MOL0     H43171   3.509   4.261   6.086 -0.6697 -0.5825  0.5963
  320MOL0     H43172   3.511   4.466   5.953  1.5173 -0.4275  3.7644
  320MOL0     H43173   3.574   4.387   5.810  1.0141  0.4721  0.0697
  320MOL0     H43174   3.726   4.387   6.072  0.8420  4.9210  1.4602
  320MOL0     H43175   3.791   4.371   5.905  0.9373  3.6679 -2.4673
  320MOL0     H43176   3.685   4.628   6.039  2.8608  0.2784  3.4682
  320MOL0     H43177   3.701   4.610   5.874 -1.4030 -0.4687 -0.3220
  320MOL0     H43178   3.942   4.570   5.884 -2.3320 -0.6641 -0.8372
  320MOL0     H43179   3.879   4.720   5.972 -0.1648  0.4310  0.4143
  320MOL0     H43180   2.896   4.240   5.834  1.3259  4.4366 -1.4722
  320MOL0     H43181   2.664   4.241   5.825  2.7961  0.8082 -1.3349
  320MOL0     H43182   2.242   4.384   5.912 -0.0483  2.4355  1.2826
  320MOL0     H43183   1.999   4.361   5.921  3.3245  0.6758 -3.7131
  320MOL0     H43184   0.589   3.045   6.317  1.0806 -3.8898 -0.4331
  320MOL0     H43185   0.336   3.007   6.306 -0.8596  0.1036  1.4473
  320MOL0     H43186  -0.072   2.675   6.543  3.9059  1.2414 -1.4283
  320MOL0     H43187  -0.318   2.693   6.496 -0.4269  0.0749  1.4855
  320MOL0     H43188  -0.537   2.760   6.533  2.9590  2.3872  1.7538
  320MOL0     H43189  -0.520   2.746   6.361 -0.5771  0.0088 -1.1613
  320MOL0     H43190  -0.753   2.781   6.362 -1.2721  1.5256 -1.4135
  320MOL0     H43191  -0.708   2.955   6.365  1.9763 -1.8640 -3.9133
  320MOL0     H43192  -0.826   2.945   6.579 -1.3505 -1.4660  1.7712
  320MOL0     H43193  -0.690   2.868   6.639  1.2996  0.8397 -0.5506
  320MOL0     H43194  -0.922   2.752   6.666  1.0299  0.1986  1.9079
  320MOL0     H43195  -0.914   2.711   6.491 -0.5531  0.5358  0.7254
  320MOL0     H43196  -0.675   2.421   6.705 -2.5533 -0.8870 -0.7516
  320MOL0     H43197  -0.300   3.116   6.471 -0.8138  0.3098  2.5574
  320MOL0     H43198   0.017   3.168   6.410  0.5883  0.3538  0.9361
  320MOL0     H43199  -0.111   3.239   6.516  0.5024  0.3154  2.7252
  320MOL0     H43200   0.031   3.160   6.580  1.2923  1.1730 -1.7897
  321MOL0     O43201   9.790   7.278   0.858 -0.1148 -0.1114 -0.0958
  321MOL0     C43202   9.833   7.277   0.742 -0.1179  0.2460 -0.1362
  321MOL0     O43203   9.963   7.282   0.706 -0.3163  0.2331  0.6272
  321MOL0     C43204  10.056   7.304   0.805 -0.2602 -0.9758 -1.1555
  321MOL0     C43205  10.135   7.195   0.860 -0.7327  0.1338 -0.1895
  321MOL0     C43206  10.251   7.215   0.931 -0.2778 -0.0165 -0.5302
  321MOL0     C43207  10.296   7.342   0.972 -0.0334 -0.0410  0.1870
  321MOL0     O43208  10.402   7.373   1.055 -0.2862  0.1355  0.3342
  321MOL0     C43209  10.529   7.324   1.004  0.2907  0.2473 -0.1021
  321MOL0     C43210  10.616   7.297   1.130 -0.2952  0.0265 -0.5399
  321MOL0     C43211  10.756   7.272   1.077 -0.5661  0.5655  0.1699
  321MOL0     C43212  10.866   7.274   1.181  0.5035 -0.3112  0.6310
  321MOL0     C43213  11.000   7.227   1.120  0.4987 -0.0007  0.7418
  321MOL0     C43214  11.102   7.217   1.228 -0.1669  0.3403 -0.2067
  321MOL0     C43215  11.237   7.207   1.174 -0.4472  0.1506  0.3888
  321MOL0     C43216  11.271   7.068   1.106 -0.1918  0.0433 -1.2911
  321MOL0     N43217  11.418   7.043   1.127  0.3841  0.1609  0.6683
  321MOL0     C43218  11.526   7.094   1.058  0.3284  0.4510  0.5439
  321MOL0     C43219  11.633   7.012   1.087  0.1850 -0.1049  0.0993
  321MOL0     C43220  11.767   7.020   1.023  0.3744  0.5223  0.1035
  321MOL0     C43221  11.818   7.166   0.988  0.4031  0.2057 -1.6587
  321MOL0     C43222  11.879   7.246   1.109  0.0626  0.7053 -0.2024
  321MOL0     C43223  12.030   7.264   1.092 -0.2936  0.0245 -0.1013
  321MOL0     O43224  12.074   7.354   1.187  0.3149 -0.1741  0.0311
  321MOL0     C43225  12.207   7.397   1.193 -0.6330  0.4007  0.0634
  321MOL0     C43226  12.238   7.485   1.298  0.1135 -0.8011  0.3683
  321MOL0     C43227  12.369   7.523   1.307 -0.0812 -0.2397  0.2401
  321MOL0     C43228  12.473   7.481   1.212  0.3528  0.4051 -0.1449
  321MOL0     C43229  12.606   7.533   1.229 -0.0603 -1.0507 -0.0732
  321MOL0     O43230  12.701   7.474   1.141  0.4324 -1.1349 -0.3499
  321MOL0     C43231  12.840   7.502   1.147  0.9602 -1.4370 -0.4646
  321MOL0     C43232  12.917   7.562   1.249 -0.0543 -0.7568  0.2456
  321MOL0     C43233  13.055   7.573   1.235 -0.4003  0.1923 -0.6034
  321MOL0     C43234  13.119   7.522   1.117 -0.0341 -0.8274 -0.0351
  321MOL0     O43235  13.249   7.558   1.087 -1.0990 -0.0139  0.2580
  321MOL0     C43236  13.358   7.512   1.167 -0.0099  0.6344  0.5128
  321MOL0     C43237  13.475   7.599   1.142  0.2553 -0.4664  0.0193
  321MOL0     C43238  13.596   7.570   1.236  0.0065 -0.0313 -0.3826
  321MOL0     C43239  13.726   7.570   1.169  0.1510  0.2596 -0.4388
  321MOL0     C43240  13.759   7.695   1.074 -0.6205 -1.3683  0.5613
  321MOL0     C43241  13.740   7.827   1.149  0.5670  0.4491 -0.2080
  321MOL0     C43242  13.835   7.940   1.108 -0.1091  0.4682 -0.0333
  321MOL0     C43243  13.796   8.077   1.174 -0.4669  0.9624 -0.2380
  321MOL0    Cl43244  13.890   8.216   1.090  0.3723  0.1178 -0.4189
  321MOL0     C43245  13.045   7.452   1.020 -0.0684  0.4247  0.0030
  321MOL0     C43246  12.905   7.447   1.037 -0.1902 -0.0547 -0.2759
  321MOL0     O43247  12.620   7.626   1.310 -0.1268  0.3762  0.6095
  321MOL0     C43248  12.437   7.391   1.110  1.3493  0.2374  0.0887
  321MOL0     C43249  12.304   7.345   1.106  0.6485  0.3038  0.9348
  321MOL0     N43250  11.584   6.922   1.184 -0.5450  0.2938 -0.3448
  321MOL0     N43251  11.460   6.940   1.211  0.4191 -0.3602 -0.8502
  321MOL0     C43252  10.213   7.448   0.936  0.8991 -0.2314  0.3590
  321MOL0     C43253  10.094   7.432   0.854 -0.0404  0.5962  0.1982
  321MOL0     C43254   9.741   7.265   0.622  0.1471 -0.5067  0.1977
  321MOL0     C43255   9.784   7.313   0.497 -0.2324 -0.7250  0.3480
  321MOL0     C43256   9.705   7.310   0.385 -0.7440 -0.5262  0.6363
  321MOL0     C43257   9.570   7.259   0.391  0.0352 -0.1244 -0.1758
  321MOL0     O43258   9.503   7.266   0.277  0.3486  0.2772  0.2384
  321MOL0     C43259   9.363   7.220   0.269 -1.3400 -0.4524 -1.1053
  321MOL0     C43260   9.315   7.273   0.131  0.0521 -0.3475 -0.6570
  321MOL0     C43261   9.266   7.419   0.152  0.8519 -0.0403 -0.3715
  321MOL0     C43262   9.200   7.497   0.040  0.0997 -0.3369  0.4031
  321MOL0     C43263   9.073   7.435  -0.011 -0.4564  0.8561  0.6008
  321MOL0     C43264   8.971   7.367  -0.043  0.2726 -0.6167 -0.3376
  321MOL0     C43265   9.522   7.210   0.509 -0.3182  0.1565  0.8594
  321MOL0     C43266   9.607   7.216   0.623 -0.1586  0.4677 -0.4701
  321MOL0     C43267   9.555   7.152   0.748  0.1591 -0.3285 -0.7894
  321MOL0     H43268  10.114   7.093   0.830  1.8809 -1.5289  2.9693
  321MOL0     H43269  10.313   7.128   0.949 -2.3010 -0.9472  2.7313
  321MOL0     H43270  10.523   7.238   0.936 -1.2628  2.1670 -2.5668
  321MOL0     H43271  10.590   7.401   0.955  1.1183 -0.6237 -0.4796
  321MOL0     H43272  10.582   7.220   1.199  2.8079 -1.2638 -0.2644
  321MOL0     H43273  10.632   7.391   1.184  0.7789 -0.6863  0.4236
  321MOL0     H43274  10.779   7.336   0.992  2.5307 -1.4362 -0.6613
  321MOL0     H43275  10.759   7.168   1.043 -0.6634  0.4242  0.5883
  321MOL0     H43276  10.874   7.372   1.228  1.2838 -0.5851  1.0902
  321MOL0     H43277  10.834   7.203   1.258  2.1621 -1.7026  0.1239
  321MOL0     H43278  10.988   7.130   1.072  2.4377 -0.2956  0.7635
  321MOL0     H43279  11.040   7.287   1.038 -1.4867  1.3507  0.6913
  321MOL0     H43280  11.089   7.310   1.286 -1.3081  1.5888 -2.3324
  321MOL0     H43281  11.077   7.134   1.294 -1.4896  0.5956 -0.3487
  321MOL0     H43282  11.309   7.237   1.252 -1.3343  0.9456  0.9271
  321MOL0     H43283  11.239   7.286   1.099 -0.9638 -0.4788 -0.2910
  321MOL0     H43284  11.220   6.984   1.153  1.9076 -0.6967 -0.2029
  321MOL0     H43285  11.236   7.063   1.003 -1.7422 -0.5365 -0.7571
  321MOL0     H43286  11.515   7.177   0.989  1.6215  1.0791  1.0496
  321MOL0     H43287  11.837   6.973   1.092  0.6128 -1.5164 -1.4270
  321MOL0     H43288  11.770   6.959   0.932  1.2944  0.3691  0.2283
  321MOL0     H43289  11.899   7.145   0.918 -0.1906 -3.7736 -1.3845
  321MOL0     H43290  11.737   7.222   0.941 -0.4058  1.8593  1.4087
  321MOL0     H43291  11.878   7.190   1.203  0.1053 -1.5775 -1.4841
  321MOL0     H43292  11.830   7.344   1.113  0.3495  1.0209 -2.9124
  321MOL0     H43293  12.049   7.294   0.989  0.8360 -2.3568 -0.6781
  321MOL0     H43294  12.079   7.166   1.103 -2.5516 -1.1796 -0.1721
  321MOL0     H43295  12.166   7.521   1.371  0.2390  0.5108 -0.1318
  321MOL0     H43296  12.389   7.587   1.392 -3.2394  1.3803 -0.0896
  321MOL0     H43297  12.868   7.594   1.341  1.8303  0.5539  0.8379
  321MOL0     H43298  13.114   7.634   1.304 -0.7358 -0.7005  0.4944
  321MOL0     H43299  13.330   7.518   1.273  1.0702  0.0221  0.8517
  321MOL0     H43300  13.388   7.410   1.140  0.4116  0.0647  2.8513
  321MOL0     H43301  13.514   7.581   1.042  1.1043 -0.9627  0.4276
  321MOL0     H43302  13.438   7.700   1.163 -4.3968 -2.0680  0.7866
  321MOL0     H43303  13.592   7.652   1.308  2.2260 -0.1852 -0.0085
  321MOL0     H43304  13.585   7.477   1.292  1.8585  0.1966  0.4238
  321MOL0     H43305  13.731   7.480   1.107 -2.7513  0.8719 -1.7098
  321MOL0     H43306  13.794   7.558   1.254 -2.2807 -0.0107  1.5536
  321MOL0     H43307  13.710   7.698   0.977 -1.9890 -1.0205  1.2422
  321MOL0     H43308  13.867   7.688   1.055 -0.9037  0.5425 -2.2658
  321MOL0     H43309  13.634   7.851   1.147  0.7983  1.5968 -3.3884
  321MOL0     H43310  13.768   7.806   1.253 -3.0901  0.7258  0.9721
  321MOL0     H43311  13.836   7.942   0.998  0.6861  0.1410 -0.0368
  321MOL0     H43312  13.937   7.916   1.138 -1.0413 -1.0257  2.1187
  321MOL0     H43313  13.687   8.086   1.175 -0.3294  3.3026  1.6544
  321MOL0     H43314  13.832   8.068   1.277 -1.5835 -2.4549 -0.0006
  321MOL0     H43315  13.106   7.421   0.935  1.7519 -0.1527  1.4650
  321MOL0     H43316  12.852   7.381   0.969  3.0969 -2.3337 -0.8899
  321MOL0     H43317  12.510   7.354   1.038 -0.2985 -2.0403 -0.5396
  321MOL0     H43318  12.280   7.263   1.039  0.6419 -1.0180  2.4935
  321MOL0     H43319  10.239   7.549   0.965 -2.1305  0.4245  1.0971
  321MOL0     H43320  10.034   7.514   0.816  0.9112  0.7328 -1.0627
  321MOL0     H43321   9.871   7.377   0.487 -2.2402  1.7910 -3.1149
  321MOL0     H43322   9.728   7.347   0.286 -2.9932 -2.9128 -0.8914
  321MOL0     H43323   9.307   7.263   0.352  0.5310  0.3289 -0.1869
  321MOL0     H43324   9.341   7.113   0.264 -2.4263 -0.1807 -2.9882
  321MOL0     H43325   9.243   7.207   0.082 -0.9474 -1.4642  2.0947
  321MOL0     H43326   9.407   7.273   0.072  0.5784 -1.8078  0.1154
  321MOL0     H43327   9.350   7.482   0.181 -1.8189  3.2978  0.8439
  321MOL0     H43328   9.195   7.417   0.235 -0.5409 -3.2137 -1.4920
  321MOL0     H43329   9.182   7.595   0.084  0.1158 -1.2431  2.5704
  321MOL0     H43330   9.275   7.504  -0.040 -1.6302  1.0044 -1.1842
  321MOL0     H43331   8.887   7.304  -0.066 -0.1929  0.9593 -3.5878
  321MOL0     H43332   9.425   7.163   0.522 -0.8645  1.2236  0.7012
  321MOL0     H43333   9.474   7.083   0.724  0.6782 -0.6137 -1.7568
  321MOL0     H43334   9.627   7.083   0.794 -1.7923 -1.4261  0.7925
  321MOL0     H43335   9.521   7.230   0.817  2.6915 -1.3767  1.8847
  322MOL0     O43336   4.064   9.336   5.645 -0.4479  0.1508 -0.0207
  322MOL0     C43337   3.986   9.364   5.553 -0.4583 -0.2510  0.2112
  322MOL0     O43338   4.025   9.407   5.429 -0.0939  0.6588 -0.4124
  322MOL0     C43339   4.157   9.387   5.388 -0.3230  1.1207  0.4395
  322MOL0     C43340   4.200   9.469   5.276  0.4914  0.8325  0.2588
  322MOL0     C43341   4.335   9.470   5.236 -0.3230  0.0960  0.3385
  322MOL0     C43342   4.435   9.387   5.297  0.1050 -0.5839  0.2374
  322MOL0     O43343   4.564   9.372   5.245  0.5475  0.1943 -0.1327
  322MOL0     C43344   4.596   9.423   5.113  0.4101 -0.3933  0.1912
  322MOL0     C43345   4.730   9.374   5.062  0.1397  0.6359  0.0876
  322MOL0     C43346   4.762   9.417   4.918  0.2949 -0.2606  0.4852
  322MOL0     C43347   4.787   9.560   4.905 -0.2665  0.0059  0.6785
  322MOL0     C43348   4.755   9.608   4.767  0.5254  0.3286  0.8649
  322MOL0     C43349   4.823   9.537   4.650 -0.0958  0.2310  0.1900
  322MOL0     C43350   4.754   9.580   4.516 -0.5381 -0.3945 -0.2908
  322MOL0     C43351   4.829   9.541   4.385 -0.6285  0.7073 -0.3066
  322MOL0     N43352   4.758   9.560   4.270  0.3275  0.9839  0.3454
  322MOL0     C43353   4.690   9.460   4.205  0.2870  0.2717 -0.0632
  322MOL0     C43354   4.628   9.521   4.101 -0.2455  0.8718 -0.3512
  322MOL0     C43355   4.529   9.459   4.003 -0.2680  0.4008  0.2886
  322MOL0     C43356   4.385   9.464   4.068  0.2038 -0.8153  0.3010
  322MOL0     C43357   4.278   9.443   3.957  0.2969 -0.9488 -0.0965
  322MOL0     C43358   4.145   9.395   4.025 -0.4231 -0.0502  0.1300
  322MOL0     O43359   4.109   9.462   4.145 -0.7413  0.5607 -0.3469
  322MOL0     C43360   3.986   9.446   4.200  0.5366 -0.0310 -0.2802
  322MOL0     C43361   3.884   9.356   4.146 -0.3698  0.3416 -1.0395
  322MOL0     C43362   3.768   9.332   4.223 -0.0778  0.2585 -0.3613
  322MOL0     C43363   3.746   9.393   4.349 -0.9473  0.3528  0.0713
  322MOL0     C43364   3.622   9.392   4.418  1.0998  0.2623  0.3269
  322MOL0     O43365   3.554   9.270   4.436 -0.4799  0.3688  0.2749
  322MOL0     C43366   3.442   9.256   4.508 -0.2136 -0.5992 -0.1084
  322MOL0     C43367   3.316   9.320   4.480  0.4621 -0.4389 -0.0741
  322MOL0     C43368   3.206   9.291   4.556  0.1951 -0.6259 -0.1828
  322MOL0     C43369   3.214   9.207   4.667 -0.4419 -0.0017  0.7269
  322MOL0     O43370   3.102   9.201   4.749  0.1472 -0.1927 -0.3645
  322MOL0     C43371   3.089   9.089   4.841  0.2007 -0.5008 -0.8215
  322MOL0     C43372   3.072   9.137   4.989  0.2454  0.4450 -0.9244
  322MOL0     C43373   2.966   9.247   5.001  0.1881  0.2555  0.2436
  322MOL0     C43374   2.825   9.200   4.947 -0.7949  0.0969  0.5109
  322MOL0     C43375   2.725   9.308   4.986  1.2116  0.0993 -0.0077
  322MOL0     C43376   2.605   9.300   4.885  0.0577 -0.6294  0.4443
  322MOL0     C43377   2.508   9.192   4.919  0.3044  0.1538  0.2245
  322MOL0     C43378   2.379   9.216   4.839 -0.4615 -0.1138  0.8262
  322MOL0    Cl43379   2.295   9.361   4.901 -0.2389 -0.2005 -0.2185
  322MOL0     C43380   3.342   9.145   4.698  0.1556 -0.5101  0.1217
  322MOL0     C43381   3.449   9.167   4.616 -0.4376  0.2325  0.5342
  322MOL0     O43382   3.586   9.502   4.460 -0.4724  0.3154  0.0832
  322MOL0     C43383   3.846   9.483   4.396  0.1383 -0.7046  0.5987
  322MOL0     C43384   3.961   9.504   4.326  0.5242  0.1588  0.2742
  322MOL0     N43385   4.678   9.649   4.098 -0.2239 -0.4920  0.8275
  322MOL0     N43386   4.751   9.672   4.197  0.5239 -0.4772  0.3245
  322MOL0     C43387   4.387   9.293   5.394  0.0918  0.1611 -1.2128
  322MOL0     C43388   4.255   9.297   5.441 -0.0259 -0.2354 -0.5866
  322MOL0     C43389   3.838   9.349   5.589 -0.2451  0.2931 -0.0591
  322MOL0     C43390   3.801   9.335   5.722  0.2666  0.1458 -0.9778
  322MOL0     C43391   3.667   9.323   5.757 -0.2864 -0.6793 -0.3172
  322MOL0     C43392   3.567   9.343   5.666 -0.3871  0.1743  0.2858
  322MOL0     O43393   3.433   9.342   5.694 -0.1946  0.1993  0.8741
  322MOL0     C43394   3.372   9.287   5.808  0.2063 -0.4528  0.1300
  322MOL0     C43395   3.306   9.388   5.900  0.2052 -0.5871  1.0717
  322MOL0     C43396   3.420   9.491   5.955 -0.2933 -0.2390  0.6210
  322MOL0     C43397   3.371   9.582   6.071 -0.4212  1.1754 -0.1986
  322MOL0     C43398   3.247   9.653   6.044  0.2678 -0.3917  0.0574
  322MOL0     C43399   3.144   9.713   6.008  0.0809  0.2122  0.2666
  322MOL0     C43400   3.604   9.361   5.534 -0.2408  0.0216  0.1094
  322MOL0     C43401   3.733   9.364   5.493  0.0575 -0.9468 -0.3554
  322MOL0     C43402   3.756   9.360   5.345 -0.7876  0.3776 -0.3812
  322MOL0     H43403   4.118   9.522   5.228 -1.0020 -1.0672  0.5995
  322MOL0     H43404   4.371   9.543   5.164  0.9648 -0.8922 -0.0614
  322MOL0     H43405   4.525   9.397   5.034 -0.1969  0.2900  0.5042
  322MOL0     H43406   4.594   9.532   5.118 -0.9770 -0.2670 -1.8881
  322MOL0     H43407   4.735   9.265   5.054  0.9812  0.7640 -1.4858
  322MOL0     H43408   4.810   9.412   5.125  2.3782 -1.3418 -1.3972
  322MOL0     H43409   4.683   9.378   4.853  0.9688 -2.6818  1.0075
  322MOL0     H43410   4.847   9.356   4.888  0.2443  1.2082 -3.0516
  322MOL0     H43411   4.737   9.621   4.981  2.0724  1.4010  1.2165
  322MOL0     H43412   4.896   9.569   4.917  0.0530  0.2994 -1.8165
  322MOL0     H43413   4.651   9.581   4.750  0.8202 -0.5254  0.3595
  322MOL0     H43414   4.763   9.718   4.769 -0.9727  0.4530  1.5031
  322MOL0     H43415   4.929   9.560   4.639 -0.3667  0.8975 -1.3516
  322MOL0     H43416   4.825   9.428   4.664  1.6375 -0.0633 -1.8968
  322MOL0     H43417   4.742   9.689   4.519 -0.3414 -0.3719 -0.3062
  322MOL0     H43418   4.654   9.536   4.509 -0.7139  0.0026 -0.3130
  322MOL0     H43419   4.918   9.604   4.373  0.2674 -0.1621  1.3815
  322MOL0     H43420   4.870   9.440   4.399 -2.2973  0.4073  3.6197
  322MOL0     H43421   4.687   9.354   4.232  1.7815 -0.8141 -3.5761
  322MOL0     H43422   4.532   9.524   3.915 -0.6277  0.1873  0.1175
  322MOL0     H43423   4.554   9.357   3.972 -1.3703  1.1426 -3.5080
  322MOL0     H43424   4.393   9.379   4.136  1.8818 -0.1862  0.9342
  322MOL0     H43425   4.352   9.555   4.119 -0.5435 -0.5396 -0.6345
  322MOL0     H43426   4.314   9.369   3.886 -0.7581 -1.8037  0.2266
  322MOL0     H43427   4.266   9.534   3.899  3.2275 -0.1321  0.4227
  322MOL0     H43428   4.159   9.290   4.052 -0.0599 -0.6273 -2.0612
  322MOL0     H43429   4.064   9.408   3.954  1.6650  1.6756 -2.1082
  322MOL0     H43430   3.893   9.305   4.051 -0.4750 -1.4886 -0.1238
  322MOL0     H43431   3.692   9.263   4.185  1.1583 -2.1094  1.2047
  322MOL0     H43432   3.306   9.394   4.401 -0.9905  1.2862  1.6400
  322MOL0     H43433   3.118   9.349   4.530 -1.1631 -2.3020  0.4255
  322MOL0     H43434   2.993   9.043   4.817 -1.6781  1.0819  2.8410
  322MOL0     H43435   3.172   9.020   4.832  0.6818 -0.1584  0.6889
  322MOL0     H43436   3.050   9.057   5.060  1.0061 -0.2074 -1.4047
  322MOL0     H43437   3.169   9.183   5.013  1.5724 -3.3927  2.1370
  322MOL0     H43438   2.954   9.296   5.098 -3.0663 -2.2781  1.3263
  322MOL0     H43439   2.994   9.327   4.932  1.0788 -1.7306 -1.8660
  322MOL0     H43440   2.803   9.104   4.993  0.3269 -0.8334 -0.8258
  322MOL0     H43441   2.834   9.198   4.838 -1.3058  0.5324  0.4528
  322MOL0     H43442   2.775   9.402   4.962  1.5502 -0.5314 -1.9574
  322MOL0     H43443   2.694   9.305   5.091 -0.0045 -1.5252 -0.3657
  322MOL0     H43444   2.556   9.396   4.899  0.7213 -0.2088 -0.0720
  322MOL0     H43445   2.643   9.293   4.782  0.5462 -1.6069  0.6815
  322MOL0     H43446   2.481   9.183   5.025 -3.6171  1.7828 -0.4435
  322MOL0     H43447   2.545   9.096   4.883  1.6545  1.8473 -3.2955
  322MOL0     H43448   2.390   9.222   4.731  0.2354  2.2534  0.9739
  322MOL0     H43449   2.323   9.124   4.857 -0.1709 -0.6371 -0.7733
  322MOL0     H43450   3.369   9.089   4.787  0.9269 -1.8438 -0.9166
  322MOL0     H43451   3.542   9.118   4.644  0.1159  2.4384  3.0405
  322MOL0     H43452   3.828   9.548   4.482  2.2011 -0.5301  0.9341
  322MOL0     H43453   4.033   9.579   4.357  1.3805 -1.9062  3.9069
  322MOL0     H43454   4.465   9.227   5.432 -0.4775 -0.2174 -0.6896
  322MOL0     H43455   4.234   9.225   5.519  2.3060 -1.1444 -0.7044
  322MOL0     H43456   3.877   9.321   5.798  1.2853 -3.1486 -2.4230
  322MOL0     H43457   3.657   9.308   5.865  1.5401  0.4263  0.0395
  322MOL0     H43458   3.449   9.234   5.864  0.7594  0.4423  0.2451
  322MOL0     H43459   3.304   9.211   5.770  0.0411 -0.0347 -0.4385
  322MOL0     H43460   3.251   9.346   5.984  2.7811 -4.1730  1.2014
  322MOL0     H43461   3.240   9.444   5.833 -0.4480 -3.0763 -0.4652
  322MOL0     H43462   3.468   9.556   5.881  0.7883  1.2441  2.5224
  322MOL0     H43463   3.506   9.434   5.990 -0.2101 -0.2339  0.4287
  322MOL0     H43464   3.355   9.508   6.150 -0.3754  0.1591 -1.1185
  322MOL0     H43465   3.440   9.640   6.132 -0.1697 -0.6556  1.3426
  322MOL0     H43466   3.055   9.766   5.979  3.1351  4.5394 -2.3239
  322MOL0     H43467   3.519   9.358   5.467 -0.9795  0.8784  0.9729
  322MOL0     H43468   3.797   9.263   5.317  0.3537  0.5170  0.7391
  322MOL0     H43469   3.659   9.376   5.295 -2.0386 -2.7378  0.8204
  322MOL0     H43470   3.832   9.431   5.311  1.7246 -1.2109  1.5657
  323MOL0     O43471  11.079   2.892   7.802  0.2015 -0.4400  0.0353
  323MOL0     C43472  11.043   2.777   7.773  0.2349  0.1326  0.0626
  323MOL0     O43473  11.127   2.674   7.759 -0.3122 -0.6235  0.4736
  323MOL0     C43474  11.253   2.696   7.711  0.5819 -0.7900 -0.5057
  323MOL0     C43475  11.357   2.738   7.791 -0.0689  0.8705 -0.3335
  323MOL0     C43476  11.483   2.758   7.736  0.0650 -1.0338 -0.4477
  323MOL0     C43477  11.513   2.732   7.605 -0.3965  0.1244 -0.0258
  323MOL0     O43478  11.638   2.753   7.561  0.2919 -0.2327 -0.1978
  323MOL0     C43479  11.684   2.688   7.449 -0.3764  0.4669  0.7573
  323MOL0     C43480  11.830   2.725   7.425 -0.3135 -0.2501  0.6625
  323MOL0     C43481  11.854   2.879   7.422  0.3316  0.8856 -0.6518
  323MOL0     C43482  12.000   2.895   7.379 -1.0502 -0.3474  0.1827
  323MOL0     C43483  12.046   3.039   7.408  0.8563 -0.1128  0.2756
  323MOL0     C43484  12.192   3.062   7.354  0.8438 -0.3071 -0.6391
  323MOL0     C43485  12.225   3.210   7.345 -0.6988 -0.1584 -0.4216
  323MOL0     C43486  12.358   3.230   7.283  0.2853  0.9380  0.3830
  323MOL0     N43487  12.460   3.199   7.387  0.7906  0.1177 -0.3061
  323MOL0     C43488  12.482   3.269   7.509 -0.6915  0.0396  0.2695
  323MOL0     C43489  12.606   3.226   7.548  0.2334 -0.0511  0.7711
  323MOL0     C43490  12.673   3.262   7.676 -0.0266 -0.0105  0.7253
  323MOL0     C43491  12.837   3.276   7.669 -0.5515 -0.0502 -0.8059
  323MOL0     C43492  12.902   3.143   7.702 -0.4800  0.6838  0.0630
  323MOL0     C43493  13.062   3.158   7.692  0.5988  0.3555 -0.3018
  323MOL0     O43494  13.096   3.248   7.794 -0.2588 -0.7848  0.6797
  323MOL0     C43495  13.237   3.264   7.814  0.0502  0.3803  0.6903
  323MOL0     C43496  13.336   3.184   7.747 -0.1555 -0.3564  0.6374
  323MOL0     C43497  13.468   3.214   7.774 -1.0511  0.0962  0.2274
  323MOL0     C43498  13.511   3.330   7.850  0.2244 -0.2438 -0.1403
  323MOL0     C43499  13.652   3.349   7.882  0.9237  0.0942  0.4590
  323MOL0     O43500  13.742   3.250   7.847  0.2396  0.3966 -0.5591
  323MOL0     C43501  13.880   3.254   7.881  0.0285 -0.7354 -0.2031
  323MOL0     C43502  13.973   3.248   7.778 -0.7250  0.7681  0.7104
  323MOL0     C43503  14.111   3.255   7.819 -0.2130  0.1170  0.2898
  323MOL0     C43504  14.150   3.267   7.956 -0.3849  0.4405  0.1577
  323MOL0     O43505  14.282   3.253   8.005  0.5486 -0.2620  0.1367
  323MOL0     C43506  14.378   3.186   7.919  0.0450  0.0344  0.3578
  323MOL0     C43507  14.521   3.168   7.972 -0.5544  0.7551 -0.1513
  323MOL0     C43508  14.608   3.087   7.876  0.7635 -0.5788 -0.1834
  323MOL0     C43509  14.741   3.050   7.943  0.9730 -0.2811 -0.5008
  323MOL0     C43510  14.849   2.982   7.859  0.9816  0.1289  0.2749
  323MOL0     C43511  14.914   3.071   7.760 -0.1870 -0.0262 -0.4857
  323MOL0     C43512  15.004   2.991   7.660  0.5017 -0.7829  0.2898
  323MOL0     C43513  15.063   3.083   7.547 -0.5718 -0.8338  0.4250
  323MOL0    Cl43514  15.189   3.001   7.452  0.2136 -0.2646 -0.3380
  323MOL0     C43515  14.047   3.278   8.047 -0.3057  0.2232  0.1958
  323MOL0     C43516  13.911   3.271   8.010  0.2586  0.4813  0.2285
  323MOL0     O43517  13.681   3.441   7.957 -0.5807 -0.1339 -0.3654
  323MOL0     C43518  13.415   3.410   7.908 -0.4462  0.2442  0.2566
  323MOL0     C43519  13.279   3.373   7.891 -0.4602  0.6291  0.0076
  323MOL0     N43520  12.646   3.123   7.462 -0.0982  0.1287  0.0309
  323MOL0     N43521  12.557   3.111   7.362 -0.4361 -0.2769  0.1670
  323MOL0     C43522  11.401   2.703   7.525 -0.3099  0.7286  0.0333
  323MOL0     C43523  11.272   2.675   7.576 -0.2908 -0.0534  0.1921
  323MOL0     C43524  10.892   2.756   7.760  0.1302  0.1357 -0.0361
  323MOL0     C43525  10.851   2.635   7.695 -0.5608 -0.8455  0.3390
  323MOL0     C43526  10.717   2.604   7.691 -0.5095 -0.2737  0.1090
  323MOL0     C43527  10.628   2.677   7.761  0.9747  0.2881 -0.7009
  323MOL0     O43528  10.496   2.633   7.740  1.0177  0.1414 -0.4517
  323MOL0     C43529  10.393   2.692   7.825  0.0347  0.2976 -0.1377
  323MOL0     C43530  10.261   2.599   7.824  0.1584  0.5852  0.4597
  323MOL0     C43531  10.301   2.445   7.848  0.1646  0.4595  0.3127
  323MOL0     C43532  10.187   2.347   7.813  0.0546 -0.1349 -0.0579
  323MOL0     C43533  10.068   2.377   7.893 -0.2837  0.0999  0.7880
  323MOL0     C43534   9.967   2.384   7.955 -0.8519 -1.0054 -0.3549
  323MOL0     C43535  10.664   2.792   7.833  0.4589 -0.0400  1.0840
  323MOL0     C43536  10.798   2.838   7.828 -0.2626  0.3004 -0.1764
  323MOL0     C43537  10.833   2.964   7.903  0.1661  0.3867  0.1160
  323MOL0     H43538  11.331   2.762   7.894 -1.1178 -2.6966  0.3565
  323MOL0     H43539  11.567   2.781   7.801  0.9248 -2.9186 -0.8388
  323MOL0     H43540  11.673   2.580   7.458 -0.3564  0.5073  1.2627
  323MOL0     H43541  11.631   2.707   7.354 -0.5414  3.9675  1.3932
  323MOL0     H43542  11.870   2.693   7.328 -3.8456 -0.5555 -0.8300
  323MOL0     H43543  11.891   2.683   7.505  1.5142 -0.2252 -0.6330
  323MOL0     H43544  11.830   2.919   7.521  1.4258  0.8000 -0.3378
  323MOL0     H43545  11.789   2.930   7.351 -0.2722  1.4239  0.2737
  323MOL0     H43546  12.070   2.829   7.430 -2.0410 -2.1634 -0.7044
  323MOL0     H43547  12.006   2.868   7.273  2.9097 -1.5536  0.5417
  323MOL0     H43548  11.978   3.113   7.366  0.9382 -0.0750  0.2093
  323MOL0     H43549  12.060   3.054   7.515  1.1158  1.2605  0.0648
  323MOL0     H43550  12.261   3.000   7.412  0.3611 -0.1655  0.0981
  323MOL0     H43551  12.197   3.028   7.250 -0.5653  1.2646 -1.2760
  323MOL0     H43552  12.208   3.249   7.445  0.8619  0.1607 -0.2503
  323MOL0     H43553  12.156   3.252   7.272  0.9597  1.1885 -1.2992
  323MOL0     H43554  12.374   3.159   7.201  0.3718 -0.8189  1.8864
  323MOL0     H43555  12.373   3.335   7.253  0.4255  0.3778 -1.6990
  323MOL0     H43556  12.427   3.350   7.557 -0.0041 -0.9821  2.9634
  323MOL0     H43557  12.638   3.350   7.732  0.3045  0.4437  0.2357
  323MOL0     H43558  12.652   3.181   7.746  0.7566 -0.6921  0.1906
  323MOL0     H43559  12.862   3.322   7.573 -1.5392 -0.3478 -1.2218
  323MOL0     H43560  12.868   3.344   7.749  3.9445 -1.7950 -0.8034
  323MOL0     H43561  12.864   3.068   7.632  0.7424 -0.7990  0.9419
  323MOL0     H43562  12.882   3.117   7.806 -1.4006  0.5393 -0.1359
  323MOL0     H43563  13.094   3.178   7.589  1.0851  2.3146  0.1996
  323MOL0     H43564  13.101   3.058   7.712 -0.1976 -0.4937 -2.6350
  323MOL0     H43565  13.313   3.107   7.675 -3.6075  1.0155  0.0964
  323MOL0     H43566  13.537   3.150   7.721  0.0113 -0.9538  2.6989
  323MOL0     H43567  13.943   3.245   7.674 -0.2678 -0.5364  0.5970
  323MOL0     H43568  14.184   3.258   7.739 -0.1316  0.8346  0.3819
  323MOL0     H43569  14.326   3.092   7.897 -1.6244  0.9404  0.2195
  323MOL0     H43570  14.369   3.248   7.829 -3.5528  0.6647  0.9984
  323MOL0     H43571  14.571   3.263   7.992 -0.4281  0.9940 -1.4612
  323MOL0     H43572  14.512   3.115   8.067  1.6820  3.4747  1.7559
  323MOL0     H43573  14.557   3.006   7.823  0.3614 -0.2927 -0.2415
  323MOL0     H43574  14.630   3.149   7.788  0.2454  0.6614  0.5337
  323MOL0     H43575  14.709   2.978   8.019  0.2441  0.9099  0.3607
  323MOL0     H43576  14.779   3.136   8.001 -2.9181  0.0724  1.8876
  323MOL0     H43577  14.798   2.909   7.795  3.0618 -2.0367  0.9368
  323MOL0     H43578  14.927   2.931   7.915  1.2974  0.8435  0.5024
  323MOL0     H43579  14.841   3.126   7.699  0.7769  2.1617  0.2251
  323MOL0     H43580  14.969   3.148   7.814 -0.3049 -0.3070  0.0433
  323MOL0     H43581  14.946   2.911   7.614 -0.7890 -1.0923  2.3565
  323MOL0     H43582  15.095   2.964   7.715  1.1427  2.2868  0.9321
  323MOL0     H43583  14.980   3.125   7.490  0.9057  3.1489  0.8532
  323MOL0     H43584  15.110   3.170   7.595 -0.5392 -0.8355  0.3960
  323MOL0     H43585  14.084   3.297   8.147 -0.1767 -2.2575  0.6877
  323MOL0     H43586  13.835   3.277   8.087 -0.0709 -0.0341 -0.0546
  323MOL0     H43587  13.442   3.496   7.969 -2.6601  0.3168  1.2309
  323MOL0     H43588  13.211   3.445   7.937 -0.5945  2.3866 -2.7075
  323MOL0     H43589  11.415   2.703   7.417  1.3414 -0.2499  0.2124
  323MOL0     H43590  11.188   2.648   7.513 -1.2550 -0.9242  1.7847
  323MOL0     H43591  10.927   2.571   7.651 -1.8566 -2.9982  1.0952
  323MOL0     H43592  10.679   2.512   7.648 -2.8601  0.8078 -0.2345
  323MOL0     H43593  10.375   2.790   7.778  0.0858 -0.3666 -1.5980
  323MOL0     H43594  10.417   2.708   7.930 -1.0423  0.6006  0.0753
  323MOL0     H43595  10.201   2.627   7.737 -0.1751  2.9283  1.3716
  323MOL0     H43596  10.194   2.629   7.905  0.8133  2.3784  0.3640
  323MOL0     H43597  10.322   2.441   7.956 -0.7783 -3.2541  0.5152
  323MOL0     H43598  10.387   2.412   7.789  0.1128  0.9973 -0.0626
  323MOL0     H43599  10.161   2.355   7.707 -1.4579  3.9525  0.4682
  323MOL0     H43600  10.221   2.244   7.830 -2.6228 -1.2962 -1.0777
  323MOL0     H43601   9.879   2.402   8.013  0.0444 -0.3421  0.8465
  323MOL0     H43602  10.579   2.841   7.878 -3.0882 -1.7752 -2.9978
  323MOL0     H43603  10.894   2.939   7.990  1.1758  0.8859 -0.4364
  323MOL0     H43604  10.891   3.034   7.842  1.0509 -0.9014 -0.5593
  323MOL0     H43605  10.741   3.006   7.946 -0.1867 -1.7255  1.6300
  324MOL0     O43606   5.335   4.604   3.912 -0.5953 -0.2983  0.0829
  324MOL0     C43607   5.275   4.587   3.808 -0.2419  0.2178  1.3188
  324MOL0     O43608   5.321   4.578   3.679  0.0617 -0.0912 -0.1470
  324MOL0     C43609   5.445   4.618   3.651 -0.3505  0.5985 -0.1066
  324MOL0     C43610   5.557   4.544   3.684 -0.3893 -0.1989  0.2063
  324MOL0     C43611   5.685   4.591   3.651  0.6754 -0.4812  0.2159
  324MOL0     C43612   5.704   4.710   3.584  0.1388 -0.1460  0.0034
  324MOL0     O43613   5.827   4.755   3.570 -0.2539 -0.1639  0.1125
  324MOL0     C43614   5.854   4.888   3.505 -0.1366  0.8917  0.9686
  324MOL0     C43615   5.997   4.908   3.465  0.4555  0.2067 -0.5935
  324MOL0     C43616   6.083   4.904   3.599 -0.9240 -0.4372  0.3008
  324MOL0     C43617   6.228   4.944   3.580  0.3214 -1.1733 -0.3867
  324MOL0     C43618   6.315   4.962   3.701  1.1696 -0.0689 -0.7682
  324MOL0     C43619   6.346   4.824   3.775  0.5555 -0.2483  0.0884
  324MOL0     C43620   6.426   4.713   3.694 -0.0957  0.2555 -0.1253
  324MOL0     C43621   6.459   4.588   3.789  0.5524 -0.1501  0.1642
  324MOL0     N43622   6.567   4.502   3.742  0.3407 -0.3156  0.1017
  324MOL0     C43623   6.704   4.524   3.730 -0.2005 -0.2234 -0.4727
  324MOL0     C43624   6.760   4.419   3.651 -0.2763  0.5706 -0.0139
  324MOL0     C43625   6.901   4.375   3.627 -0.0123 -0.2990  0.1316
  324MOL0     C43626   6.954   4.287   3.735 -0.0397 -0.2817 -0.8744
  324MOL0     C43627   7.111   4.285   3.737  0.3277 -0.1927  0.9085
  324MOL0     C43628   7.151   4.411   3.818 -1.2234 -0.5350 -0.0035
  324MOL0     O43629   7.271   4.470   3.778  0.3559 -0.0937  0.2936
  324MOL0     C43630   7.358   4.502   3.879 -0.2217 -0.8101 -0.5484
  324MOL0     C43631   7.438   4.401   3.927  0.8901  0.1429 -0.7276
  324MOL0     C43632   7.538   4.438   4.015 -0.3372  0.3281  0.4995
  324MOL0     C43633   7.554   4.564   4.076 -0.4861 -0.8735 -0.5581
  324MOL0     C43634   7.650   4.597   4.179  0.7485 -0.6188 -0.0124
  324MOL0     O43635   7.633   4.725   4.235  0.8822  0.1244 -0.2861
  324MOL0     C43636   7.745   4.794   4.285  0.7040  0.0562 -0.5197
  324MOL0     C43637   7.868   4.796   4.219  0.1695 -0.0363 -0.4970
  324MOL0     C43638   7.972   4.868   4.278 -0.7210  0.0082  0.3644
  324MOL0     C43639   7.944   4.945   4.395 -0.2272  0.4891  0.0764
  324MOL0     O43640   8.051   4.985   4.469 -0.1297  0.3220 -0.2950
  324MOL0     C43641   8.037   5.061   4.586  0.3499 -0.0370  0.2543
  324MOL0     C43642   8.172   5.077   4.644  0.3221 -0.4032  0.0918
  324MOL0     C43643   8.275   5.155   4.558  0.6562 -0.1970  0.6793
  324MOL0     C43644   8.407   5.179   4.627 -0.1425  0.1153 -0.3718
  324MOL0     C43645   8.513   5.239   4.537 -0.1018  0.3500  0.2704
  324MOL0     C43646   8.642   5.266   4.600 -0.2738 -0.0549  0.2314
  324MOL0     C43647   8.631   5.395   4.674  0.8286  0.4147  0.7735
  324MOL0     C43648   8.769   5.421   4.750  0.4881 -0.4896  0.6433
  324MOL0    Cl43649   8.798   5.302   4.888  0.3419 -0.0746 -0.2796
  324MOL0     C43650   7.814   4.959   4.450 -0.3826 -0.0351  0.5278
  324MOL0     C43651   7.714   4.884   4.391  0.0562 -0.0676  1.1534
  324MOL0     O43652   7.745   4.526   4.211  0.2370  0.4650 -0.0911
  324MOL0     C43653   7.469   4.664   4.019  0.1821  0.4455 -0.5147
  324MOL0     C43654   7.376   4.632   3.919  0.1284 -0.7488  0.3417
  324MOL0     N43655   6.649   4.334   3.629 -0.0507 -0.9910 -0.3109
  324MOL0     N43656   6.536   4.383   3.679 -0.1997 -0.2104  0.5834
  324MOL0     C43657   5.587   4.777   3.537 -0.1478  0.5565 -0.2674
  324MOL0     C43658   5.463   4.735   3.578 -0.3807 -0.6496  0.0235
  324MOL0     C43659   5.127   4.556   3.814 -1.4474 -0.4981 -0.5584
  324MOL0     C43660   5.062   4.500   3.705 -0.6171  0.2514 -0.5723
  324MOL0     C43661   4.928   4.463   3.718 -0.0238 -0.5949  0.5359
  324MOL0     C43662   4.857   4.474   3.838 -0.1818  0.0425 -0.0416
  324MOL0     O43663   4.727   4.430   3.859 -0.0502  0.4363  0.6521
  324MOL0     C43664   4.651   4.370   3.751  0.1131  0.6403  0.0284
  324MOL0     C43665   4.516   4.340   3.816 -0.2004  0.3446 -0.0844
  324MOL0     C43666   4.435   4.257   3.723 -0.7352  0.6401  0.1887
  324MOL0     C43667   4.323   4.202   3.814 -0.0608  1.0451  0.0137
  324MOL0     C43668   4.230   4.112   3.747  0.0790  0.4241  0.5382
  324MOL0     C43669   4.166   4.033   3.677 -0.1577 -0.3260  0.6660
  324MOL0     C43670   4.923   4.535   3.940 -0.2862 -0.4044  0.2396
  324MOL0     C43671   5.054   4.580   3.933 -0.7076  0.2979 -0.5194
  324MOL0     C43672   5.096   4.666   4.050 -0.6414 -0.0760 -0.2449
  324MOL0     H43673   5.542   4.462   3.753  1.1197  2.3830  3.9657
  324MOL0     H43674   5.768   4.522   3.663 -0.0795 -1.8320 -1.6924
  324MOL0     H43675   5.802   4.888   3.409  0.0579 -0.3366  0.8433
  324MOL0     H43676   5.814   4.970   3.566 -1.3108  0.5706  0.6577
  324MOL0     H43677   5.998   5.011   3.426  2.3862  0.9432  1.1811
  324MOL0     H43678   6.029   4.836   3.390 -2.1432 -0.7876 -0.8552
  324MOL0     H43679   6.076   4.806   3.647 -1.7103 -0.7749 -0.4828
  324MOL0     H43680   6.039   4.973   3.672 -0.6277 -2.8165  2.8788
  324MOL0     H43681   6.277   4.887   3.501  3.2268  2.7357 -1.7317
  324MOL0     H43682   6.237   5.045   3.538  1.3557 -0.8585  0.5342
  324MOL0     H43683   6.411   5.004   3.670  1.3046 -0.0752 -0.3646
  324MOL0     H43684   6.270   5.037   3.767  1.5812 -0.3824 -0.1175
  324MOL0     H43685   6.415   4.856   3.854 -1.1065  1.1465  1.0241
  324MOL0     H43686   6.256   4.777   3.815  1.4819 -0.5617  1.9026
  324MOL0     H43687   6.518   4.755   3.652  0.3255 -0.6800 -0.1617
  324MOL0     H43688   6.375   4.676   3.605 -2.6838 -0.3300  1.5059
  324MOL0     H43689   6.487   4.631   3.886 -1.7540  0.7318  0.4925
  324MOL0     H43690   6.370   4.525   3.793  1.6585 -1.7072  2.3432
  324MOL0     H43691   6.750   4.616   3.764 -2.3905  1.2240 -1.2107
  324MOL0     H43692   6.924   4.335   3.528 -2.5550 -1.4787 -0.0532
  324MOL0     H43693   6.967   4.462   3.625  1.1910 -1.1740 -2.3001
  324MOL0     H43694   6.928   4.320   3.836  2.0584 -0.9418 -0.0628
  324MOL0     H43695   6.915   4.188   3.710  2.1774 -0.9436 -1.9084
  324MOL0     H43696   7.149   4.295   3.635 -1.1367  0.6309  0.4066
  324MOL0     H43697   7.152   4.195   3.782  2.1639  0.5820  0.8928
  324MOL0     H43698   7.165   4.372   3.920 -0.1706 -4.0985 -1.3624
  324MOL0     H43699   7.073   4.488   3.819 -1.2343 -0.4618  2.5822
  324MOL0     H43700   7.432   4.297   3.899  0.0764 -0.7861  2.4482
  324MOL0     H43701   7.589   4.353   4.059  2.7342  0.9975 -1.5227
  324MOL0     H43702   7.886   4.735   4.132 -0.2682  2.9307 -2.8602
  324MOL0     H43703   8.077   4.865   4.250 -0.2771 -1.2548  1.9688
  324MOL0     H43704   7.992   5.153   4.546 -1.1122 -0.8857 -0.1544
  324MOL0     H43705   7.968   5.015   4.658 -1.6135  0.8268 -0.9704
  324MOL0     H43706   8.162   5.141   4.732 -1.8701  0.5075 -0.7581
  324MOL0     H43707   8.218   4.981   4.668 -2.4358 -2.4196 -2.0547
  324MOL0     H43708   8.292   5.098   4.466 -2.7614 -0.0089 -0.1983
  324MOL0     H43709   8.235   5.250   4.522  0.3190 -0.3798  0.5717
  324MOL0     H43710   8.437   5.086   4.678 -1.9796  0.7659  2.1252
  324MOL0     H43711   8.378   5.242   4.712  1.5169  2.3063 -1.3617
  324MOL0     H43712   8.465   5.335   4.512 -0.3450  0.6764  1.8624
  324MOL0     H43713   8.519   5.174   4.450  1.5567  1.5945 -0.6003
  324MOL0     H43714   8.672   5.184   4.666 -0.4912  0.1643  0.6031
  324MOL0     H43715   8.703   5.254   4.510 -2.6026 -1.9821 -1.2124
  324MOL0     H43716   8.548   5.389   4.745 -0.7424  0.8266 -0.9840
  324MOL0     H43717   8.608   5.479   4.609 -1.2368 -0.7699 -0.1100
  324MOL0     H43718   8.854   5.426   4.682 -0.8274  0.7427 -0.9995
  324MOL0     H43719   8.757   5.521   4.791 -1.5069 -0.7433  0.8184
  324MOL0     H43720   7.783   5.003   4.544  1.8247 -0.3797  1.4972
  324MOL0     H43721   7.617   4.884   4.438 -1.5106 -1.1013 -1.8238
  324MOL0     H43722   7.480   4.766   4.053  2.8416 -0.0055  0.2032
  324MOL0     H43723   7.308   4.706   3.878  0.1414  0.0945  1.7453
  324MOL0     H43724   5.587   4.872   3.483 -1.9929  1.0461  0.5209
  324MOL0     H43725   5.377   4.793   3.546  0.2449 -0.3563 -1.1509
  324MOL0     H43726   5.102   4.485   3.605 -2.9157 -0.8338 -1.3886
  324MOL0     H43727   4.878   4.424   3.630  0.5315  0.6743 -0.3710
  324MOL0     H43728   4.694   4.272   3.725  0.1493  0.3323  1.2145
  324MOL0     H43729   4.640   4.438   3.666 -0.1116  0.6032  0.0271
  324MOL0     H43730   4.465   4.433   3.841  0.2185 -0.0328  2.4577
  324MOL0     H43731   4.535   4.279   3.906 -0.1535  1.1829  0.4826
  324MOL0     H43732   4.498   4.174   3.689  2.4987  3.8952 -2.4787
  324MOL0     H43733   4.415   4.305   3.628  3.0700  1.6011 -0.2946
  324MOL0     H43734   4.370   4.145   3.895  1.5150  0.0162 -1.5399
  324MOL0     H43735   4.278   4.291   3.858 -0.2048  0.2742  1.4734
  324MOL0     H43736   4.105   3.961   3.626  0.8403 -2.1326  1.8974
  324MOL0     H43737   4.870   4.538   4.034 -0.4470 -0.2578  0.1444
  324MOL0     H43738   5.165   4.610   4.114 -1.7696 -1.3202 -0.0632
  324MOL0     H43739   5.138   4.752   3.997 -3.0051  0.0137 -2.1254
  324MOL0     H43740   5.011   4.687   4.115 -1.0666 -0.9788 -0.4895
  325MOL0     O43741   8.630   3.656   8.967 -0.3459  0.3890 -0.0313
  325MOL0     C43742   8.585   3.612   9.069 -0.2401  0.3600 -0.0024
  325MOL0     O43743   8.655   3.576   9.189  0.3728  0.1823  0.9533
  325MOL0     C43744   8.795   3.567   9.185  0.1202  0.7520  0.4703
  325MOL0     C43745   8.865   3.462   9.234  0.1421  0.9862 -0.1593
  325MOL0     C43746   9.010   3.454   9.244  0.1058  0.1595 -0.6788
  325MOL0     C43747   9.092   3.568   9.207  1.3067 -0.3484  0.4898
  325MOL0     O43748   9.224   3.573   9.195 -0.8364 -0.4066 -0.6191
  325MOL0     C43749   9.303   3.462   9.235  0.4260  1.2845 -0.1527
  325MOL0     C43750   9.452   3.491   9.184  0.2943  0.3543 -0.2697
  325MOL0     C43751   9.549   3.404   9.253 -0.4948  0.4680 -0.4190
  325MOL0     C43752   9.687   3.454   9.210  0.5235 -1.0139 -0.2780
  325MOL0     C43753   9.797   3.361   9.252 -0.0660 -0.3167  0.1968
  325MOL0     C43754   9.935   3.409   9.195 -1.2377 -1.0379 -0.2242
  325MOL0     C43755   9.985   3.542   9.253  0.0894 -1.3382 -0.9056
  325MOL0     C43756  10.018   3.539   9.405 -0.4851  0.1961  0.3446
  325MOL0     N43757  10.127   3.434   9.435  0.6680 -0.6761 -0.3809
  325MOL0     C43758  10.254   3.436   9.386  0.0228 -0.4480 -0.5614
  325MOL0     C43759  10.322   3.333   9.446  0.0178  0.2239 -0.7091
  325MOL0     C43760  10.458   3.287   9.447  0.1673  0.3321 -0.7022
  325MOL0     C43761  10.518   3.282   9.589 -0.3504  0.4216 -0.4236
  325MOL0     C43762  10.660   3.219   9.602  0.0539 -0.1855  0.0154
  325MOL0     C43763  10.765   3.289   9.518  0.1331  0.7221 -0.1314
  325MOL0     O43764  10.894   3.241   9.553 -0.3341 -0.2049 -1.0268
  325MOL0     C43765  11.000   3.255   9.467 -0.1756 -0.3000 -0.3990
  325MOL0     C43766  11.116   3.300   9.524  0.1038  1.1172  0.2729
  325MOL0     C43767  11.238   3.283   9.452 -0.2940 -0.1736  0.1218
  325MOL0     C43768  11.235   3.248   9.318  0.4130  0.2554  0.1120
  325MOL0     C43769  11.367   3.239   9.237  0.3749  0.8640  0.5685
  325MOL0     O43770  11.478   3.262   9.319  0.0019  0.2399 -0.1043
  325MOL0     C43771  11.610   3.261   9.266  0.2366 -0.8580  1.2317
  325MOL0     C43772  11.712   3.222   9.353 -0.5331  0.3649 -0.3454
  325MOL0     C43773  11.847   3.220   9.314  0.6960  0.4252 -1.1345
  325MOL0     C43774  11.881   3.255   9.174 -0.0266 -0.2568  0.2150
  325MOL0     O43775  12.014   3.255   9.144  0.0629 -0.3065  0.5573
  325MOL0     C43776  12.079   3.344   9.061  0.7370  0.6647  0.1778
  325MOL0     C43777  12.159   3.263   8.954  0.7180 -0.2327 -0.5997
  325MOL0     C43778  12.215   3.362   8.853 -0.1931 -0.3394 -0.8167
  325MOL0     C43779  12.294   3.276   8.741 -0.2499  0.4508 -0.8013
  325MOL0     C43780  12.342   3.377   8.631  0.1829  0.1272 -0.3421
  325MOL0     C43781  12.419   3.290   8.520  0.4345  0.4491  1.0414
  325MOL0     C43782  12.544   3.236   8.592 -0.1644 -0.3922 -0.6370
  325MOL0     C43783  12.671   3.203   8.514  0.3399  0.1045 -0.3101
  325MOL0    Cl43784  12.806   3.164   8.631  0.2965  0.4501 -0.3700
  325MOL0     C43785  11.770   3.280   9.082 -0.6090  0.0720 -0.2028
  325MOL0     C43786  11.637   3.291   9.126  0.4392  0.6685 -0.4176
  325MOL0     O43787  11.367   3.225   9.116  0.1570  0.3816 -0.2100
  325MOL0     C43788  11.114   3.212   9.259 -0.1286  0.3542 -0.3291
  325MOL0     C43789  11.000   3.206   9.334  0.3150 -0.1783  0.4347
  325MOL0     N43790  10.229   3.273   9.536 -0.2974  0.4128 -0.5498
  325MOL0     N43791  10.115   3.330   9.525 -0.4088 -0.4850  0.1393
  325MOL0     C43792   9.016   3.669   9.144 -0.1590  0.0121 -0.0976
  325MOL0     C43793   8.872   3.674   9.134 -0.3846  0.4808 -0.8454
  325MOL0     C43794   8.437   3.598   9.077 -0.3861  0.4979  0.2784
  325MOL0     C43795   8.390   3.502   9.164  0.2559 -0.2098  0.0532
  325MOL0     C43796   8.263   3.456   9.157 -0.3683  0.3647  0.0878
  325MOL0     C43797   8.173   3.502   9.060  0.3678  0.5598  0.2036
  325MOL0     O43798   8.043   3.452   9.056  0.0208 -0.2192 -0.5351
  325MOL0     C43799   7.944   3.486   8.966  0.7729 -0.5689  0.7056
  325MOL0     C43800   7.828   3.382   8.993 -0.3171  0.1025 -0.2507
  325MOL0     C43801   7.717   3.385   8.879  0.3095  0.2168 -0.3507
  325MOL0     C43802   7.621   3.507   8.899  0.9276  0.2149  0.0848
  325MOL0     C43803   7.528   3.483   9.009  0.1435 -0.2458  0.3582
  325MOL0     C43804   7.439   3.470   9.093 -0.2237 -0.1190 -0.7917
  325MOL0     C43805   8.218   3.592   8.965 -0.2671 -0.2519 -0.9603
  325MOL0     C43806   8.351   3.646   8.976 -0.0725 -0.6255 -0.4690
  325MOL0     C43807   8.375   3.761   8.894 -0.5960 -0.6583 -0.1952
  325MOL0     H43808   8.815   3.370   9.262  1.2394 -0.9911 -4.0333
  325MOL0     H43809   9.067   3.370   9.282 -0.9631 -0.4853 -0.4644
  325MOL0     H43810   9.305   3.450   9.344 -1.4298  2.3514  0.0295
  325MOL0     H43811   9.267   3.369   9.191 -0.5121  1.6516 -0.1794
  325MOL0     H43812   9.484   3.592   9.209  0.7341 -0.0054  0.6306
  325MOL0     H43813   9.466   3.483   9.075 -0.1913  0.1718 -0.3208
  325MOL0     H43814   9.550   3.298   9.226  1.0781  0.3958 -0.1619
  325MOL0     H43815   9.543   3.408   9.363 -1.3998  0.6696 -0.4647
  325MOL0     H43816   9.687   3.465   9.101 -1.3389 -1.3053 -0.3457
  325MOL0     H43817   9.705   3.551   9.258  0.1531 -0.6415 -0.8783
  325MOL0     H43818   9.793   3.361   9.361 -2.7114  1.1474  0.1729
  325MOL0     H43819   9.774   3.262   9.212 -1.2162  0.1464 -0.3239
  325MOL0     H43820  10.021   3.342   9.211 -0.1964  0.3943  0.3769
  325MOL0     H43821   9.936   3.411   9.085 -0.6414 -0.9842 -0.2224
  325MOL0     H43822   9.929   3.633   9.229  1.4655 -0.5589 -1.2687
  325MOL0     H43823  10.082   3.569   9.210  0.3685  0.7562  0.8407
  325MOL0     H43824  10.055   3.638   9.434  1.4553 -1.1068  2.8475
  325MOL0     H43825   9.926   3.521   9.462 -0.7749  2.1620  0.5484
  325MOL0     H43826  10.293   3.502   9.308  0.2888  0.7495  0.5532
  325MOL0     H43827  10.447   3.183   9.414  0.5113 -0.2287  0.8814
  325MOL0     H43828  10.518   3.340   9.372  0.0176 -2.3999 -2.9189
  325MOL0     H43829  10.524   3.382   9.633  0.7876 -0.0297  0.5160
  325MOL0     H43830  10.457   3.231   9.664  3.0786  0.3792  2.6358
  325MOL0     H43831  10.656   3.113   9.576  0.5734 -0.2017 -0.0077
  325MOL0     H43832  10.691   3.237   9.706 -1.8319  1.5080  0.3467
  325MOL0     H43833  10.760   3.397   9.535 -3.0949  0.7265 -0.4976
  325MOL0     H43834  10.748   3.267   9.412  2.8516 -2.7168 -0.0234
  325MOL0     H43835  11.123   3.341   9.624  0.5157  1.2025  0.2140
  325MOL0     H43836  11.329   3.311   9.504 -2.0496  3.0934  1.8184
  325MOL0     H43837  11.679   3.224   9.456  1.9713 -0.8509  0.5568
  325MOL0     H43838  11.930   3.211   9.382  0.8744  0.4377 -1.3483
  325MOL0     H43839  11.999   3.404   9.018 -1.3188 -1.1857  1.1902
  325MOL0     H43840  12.146   3.410   9.116 -1.1046  1.0154  2.1132
  325MOL0     H43841  12.243   3.223   9.011  0.4273  2.1023  1.6643
  325MOL0     H43842  12.100   3.185   8.905 -1.2286  0.4590  0.5351
  325MOL0     H43843  12.122   3.408   8.818  0.1238  0.6019 -0.4422
  325MOL0     H43844  12.283   3.434   8.899 -1.0488 -0.3811  0.5756
  325MOL0     H43845  12.216   3.218   8.691  0.1413  0.1947 -1.1140
  325MOL0     H43846  12.371   3.216   8.792  1.0307  1.8819 -0.9781
  325MOL0     H43847  12.405   3.456   8.673 -0.3513  0.5267 -0.2857
  325MOL0     H43848  12.256   3.427   8.587 -0.3325  1.5419  2.0975
  325MOL0     H43849  12.356   3.219   8.467 -0.1933  0.7364  1.3839
  325MOL0     H43850  12.448   3.365   8.446 -2.7880  1.7329  0.9041
  325MOL0     H43851  12.512   3.142   8.638 -0.2101  0.5991  1.5074
  325MOL0     H43852  12.574   3.305   8.671  0.7013  1.0228 -2.1408
  325MOL0     H43853  12.650   3.113   8.456 -0.4784 -0.3443  0.6484
  325MOL0     H43854  12.699   3.283   8.444 -0.4557 -0.7529 -1.6260
  325MOL0     H43855  11.788   3.294   8.975  1.2923  1.0157  0.2049
  325MOL0     H43856  11.565   3.333   9.056  2.5824  1.5853 -2.2316
  325MOL0     H43857  11.117   3.188   9.153 -0.1143 -1.7583  0.1041
  325MOL0     H43858  10.908   3.190   9.280 -0.1700 -1.8293  1.6659
  325MOL0     H43859   9.061   3.756   9.098  1.3191  0.1912  1.5701
  325MOL0     H43860   8.823   3.761   9.092  0.1977 -0.8017 -4.5749
  325MOL0     H43861   8.463   3.456   9.231 -0.2132 -2.0857 -0.6519
  325MOL0     H43862   8.233   3.371   9.218  2.4854 -2.5623 -2.1870
  325MOL0     H43863   7.988   3.483   8.866 -1.6142  0.1322 -0.4398
  325MOL0     H43864   7.903   3.586   8.985 -1.3886 -0.9807 -1.3103
  325MOL0     H43865   7.787   3.382   9.094  0.8696 -2.9403  0.3519
  325MOL0     H43866   7.874   3.282   8.988 -0.6931 -0.0628 -0.3949
  325MOL0     H43867   7.654   3.299   8.904  1.1153  0.0938  1.4550
  325MOL0     H43868   7.753   3.389   8.776 -1.9918  1.0612 -1.1794
  325MOL0     H43869   7.672   3.602   8.912  0.7700  0.1407  1.2896
  325MOL0     H43870   7.559   3.513   8.808  2.3646  2.0469 -0.8316
  325MOL0     H43871   7.373   3.451   9.175 -0.2730 -0.6063 -0.9463
  325MOL0     H43872   8.150   3.629   8.889 -0.2807 -0.9945 -1.3167
  325MOL0     H43873   8.379   3.724   8.791 -4.0348 -2.5409  0.2070
  325MOL0     H43874   8.286   3.824   8.898 -0.3627 -0.2572 -0.9956
  325MOL0     H43875   8.458   3.822   8.930 -0.2295  0.0919 -2.1875
  326MOL0     O43876   9.351   1.318   0.394  0.0053  0.5980 -0.1424
  326MOL0     C43877   9.283   1.257   0.309  0.1806 -0.2420 -0.6086
  326MOL0     O43878   9.333   1.194   0.199  0.2521  0.0970  0.3229
  326MOL0     C43879   9.465   1.199   0.164  0.2252 -0.4173  0.0640
  326MOL0     C43880   9.538   1.081   0.131  0.3482 -0.1584 -0.6226
  326MOL0     C43881   9.663   1.079   0.083  0.0557 -0.6198  0.0020
  326MOL0     C43882   9.740   1.197   0.088  0.0426 -0.7941  0.3859
  326MOL0     O43883   9.864   1.174   0.043 -0.1713  0.2696  0.2662
  326MOL0     C43884   9.968   1.245   0.103 -0.6103  0.1419 -0.2657
  326MOL0     C43885  10.097   1.177   0.071 -0.6617  0.3634 -0.5081
  326MOL0     C43886  10.217   1.246   0.132 -0.3343 -0.1058  0.1701
  326MOL0     C43887  10.340   1.170   0.081 -0.3815 -0.7019 -0.0369
  326MOL0     C43888  10.458   1.227   0.155 -0.2582 -0.3290  0.1496
  326MOL0     C43889  10.590   1.167   0.084  0.0780 -0.8645  0.1848
  326MOL0     C43890  10.697   1.213   0.180 -0.4298 -0.1178 -1.1049
  326MOL0     C43891  10.838   1.216   0.108  0.0817 -0.5028 -0.7556
  326MOL0     N43892  10.883   1.088   0.068  0.2819 -0.0266 -0.3128
  326MOL0     C43893  10.838   1.015  -0.048  0.1409  0.2738  0.0756
  326MOL0     C43894  10.897   0.887  -0.035 -0.3276 -0.8954  0.4745
  326MOL0     C43895  10.872   0.758  -0.117  1.3488 -0.3448 -0.3049
  326MOL0     C43896  10.981   0.706  -0.205  0.0798 -0.4814 -0.3755
  326MOL0     C43897  11.099   0.648  -0.138  0.1420 -0.2041 -0.2837
  326MOL0     C43898  11.178   0.560  -0.227 -0.5942 -0.0521 -0.4705
  326MOL0     O43899  11.294   0.528  -0.150  0.3916 -0.1625 -0.0536
  326MOL0     C43900  11.400   0.473  -0.219  0.2152 -0.4975 -0.2448
  326MOL0     C43901  11.520   0.480  -0.151 -0.5897 -0.2776  0.0861
  326MOL0     C43902  11.633   0.412  -0.198  0.2697 -0.8816  0.6776
  326MOL0     C43903  11.633   0.346  -0.322  0.3073 -0.4321 -0.5140
  326MOL0     C43904  11.761   0.292  -0.372 -0.2111 -0.0225 -0.4718
  326MOL0     O43905  11.882   0.296  -0.300  0.7389  0.2455  0.2198
  326MOL0     C43906  11.991   0.250  -0.370 -0.2849  0.3024 -0.1131
  326MOL0     C43907  12.098   0.332  -0.397 -0.9809  0.4149 -0.6511
  326MOL0     C43908  12.222   0.289  -0.451  0.0600  0.4176  1.1274
  326MOL0     C43909  12.234   0.153  -0.480 -0.6032  0.0801  0.7351
  326MOL0     O43910  12.356   0.108  -0.530  0.5550 -0.1266  0.6868
  326MOL0     C43911  12.398  -0.025  -0.503  0.5343 -0.3833  0.6064
  326MOL0     C43912  12.551  -0.052  -0.536  1.3796  0.3037 -0.3189
  326MOL0     C43913  12.650   0.036  -0.458 -0.3751 -0.0244  0.3956
  326MOL0     C43914  12.795  -0.023  -0.478 -0.1717  0.3717 -0.0212
  326MOL0     C43915  12.905   0.044  -0.399 -0.1678 -0.7734  0.2258
  326MOL0     C43916  13.041   0.009  -0.457 -0.1873  0.2413  0.6329
  326MOL0     C43917  13.077  -0.138  -0.454  0.0469 -0.4227  0.6002
  326MOL0     C43918  13.095  -0.198  -0.320  0.4850 -0.4278  0.2127
  326MOL0    Cl43919  13.265  -0.184  -0.270 -0.0763  0.2140  0.5875
  326MOL0     C43920  12.127   0.062  -0.449 -0.2736 -0.3067 -0.6284
  326MOL0     C43921  12.003   0.120  -0.405 -0.8876  0.4090  0.3206
  326MOL0     O43922  11.756   0.246  -0.484 -0.2408  0.3483  0.2130
  326MOL0     C43923  11.519   0.347  -0.396  0.2572 -0.2984 -0.7021
  326MOL0     C43924  11.405   0.401  -0.346  0.0683 -0.4674 -0.3132
  326MOL0     N43925  10.986   0.899   0.069 -0.8478 -0.6033  0.5181
  326MOL0     N43926  10.981   1.010   0.125  0.4233  0.4160  0.0181
  326MOL0     C43927   9.676   1.326   0.118 -0.5075 -0.8511 -0.3408
  326MOL0     C43928   9.537   1.316   0.148 -0.4644 -0.7350 -0.1235
  326MOL0     C43929   9.139   1.258   0.340  0.3612 -0.5570  0.3514
  326MOL0     C43930   9.091   1.229   0.471  0.8259 -0.0414 -0.6210
  326MOL0     C43931   8.953   1.237   0.495 -1.1274  0.3250 -0.3927
  326MOL0     C43932   8.866   1.278   0.402  0.0925  0.9539  0.3741
  326MOL0     O43933   8.732   1.291   0.445 -0.1971  0.3810 -0.4984
  326MOL0     C43934   8.636   1.314   0.337  0.4519  0.2527 -0.8383
  326MOL0     C43935   8.488   1.307   0.382  0.4665 -0.3265 -0.1585
  326MOL0     C43936   8.435   1.165   0.414 -0.2484  0.0009  0.9228
  326MOL0     C43937   8.349   1.099   0.306 -0.0699 -0.1388 -0.1480
  326MOL0     C43938   8.431   1.077   0.182 -0.2375 -0.6143  0.0493
  326MOL0     C43939   8.477   1.056   0.072 -0.5414  0.4348 -0.2679
  326MOL0     C43940   8.910   1.311   0.270  0.1219 -0.2596  0.0316
  326MOL0     C43941   9.048   1.296   0.238 -0.1029  0.5962  0.0257
  326MOL0     C43942   9.088   1.323   0.093  0.9301  0.5789  0.8712
  326MOL0     H43943   9.479   0.990   0.140 -0.4728  0.5762  3.3491
  326MOL0     H43944   9.713   0.985   0.065  0.2523 -0.4584 -0.3045
  326MOL0     H43945   9.969   1.349   0.070  0.5868  0.9853  2.2314
  326MOL0     H43946   9.951   1.258   0.210  1.7358  1.1301  0.0409
  326MOL0     H43947  10.113   1.173  -0.038 -1.0770  2.4576 -0.6820
  326MOL0     H43948  10.087   1.071   0.093  4.4117 -0.2300  0.1540
  326MOL0     H43949  10.215   1.245   0.242 -1.4794  0.1835  0.1671
  326MOL0     H43950  10.231   1.350   0.102  1.8841  0.9493  4.0881
  326MOL0     H43951  10.327   1.065   0.106 -1.8672 -0.5730 -0.1593
  326MOL0     H43952  10.353   1.180  -0.027  3.0519 -0.9149  0.2519
  326MOL0     H43953  10.463   1.334   0.136 -1.5077 -0.5575 -1.7713
  326MOL0     H43954  10.450   1.206   0.262 -0.3556  2.7289  0.8294
  326MOL0     H43955  10.593   1.058   0.082 -1.5072 -0.9290  0.0546
  326MOL0     H43956  10.599   1.222  -0.011  1.7305  0.8123  1.2330
  326MOL0     H43957  10.712   1.135   0.256  2.6317  0.4335 -1.0205
  326MOL0     H43958  10.675   1.308   0.229 -0.8138 -0.6377 -0.2377
  326MOL0     H43959  10.826   1.290   0.029  0.8598  0.9580  0.4424
  326MOL0     H43960  10.902   1.257   0.187 -2.2457  0.8767  0.4966
  326MOL0     H43961  10.761   1.047  -0.118 -1.2719 -3.2992 -0.2374
  326MOL0     H43962  10.832   0.672  -0.062 -0.2522  0.6120  0.0954
  326MOL0     H43963  10.796   0.789  -0.189  3.7354  1.9219 -2.0163
  326MOL0     H43964  10.939   0.627  -0.268  0.0522 -0.1148 -0.8296
  326MOL0     H43965  11.015   0.788  -0.270 -2.0318  0.2628 -0.6202
  326MOL0     H43966  11.048   0.593  -0.058  1.4157  0.5628  1.1123
  326MOL0     H43967  11.161   0.726  -0.093 -0.8999 -1.1579  3.1416
  326MOL0     H43968  11.213   0.620  -0.311  0.5802 -0.6708 -0.4429
  326MOL0     H43969  11.117   0.476  -0.263 -1.2767  1.7030 -3.7681
  326MOL0     H43970  11.540   0.536  -0.059  2.4951 -0.0210 -0.6491
  326MOL0     H43971  11.724   0.411  -0.141  1.3101  1.3419 -0.7948
  326MOL0     H43972  12.083   0.435  -0.367  0.4509  0.8030 -1.1779
  326MOL0     H43973  12.297   0.363  -0.473  0.7756 -0.8408 -0.9942
  326MOL0     H43974  12.367  -0.056  -0.403 -1.0838  3.3227  1.4022
  326MOL0     H43975  12.359  -0.092  -0.581  0.3970  0.1092  0.2451
  326MOL0     H43976  12.564  -0.153  -0.497 -0.4414 -0.2688 -1.0655
  326MOL0     H43977  12.570  -0.043  -0.644 -0.6761 -2.6178 -1.0418
  326MOL0     H43978  12.640   0.131  -0.511  0.1968 -0.0232  0.2849
  326MOL0     H43979  12.630   0.056  -0.353  1.6889  0.5684  0.7289
  326MOL0     H43980  12.808  -0.011  -0.586 -1.7202 -1.7866 -0.5105
  326MOL0     H43981  12.789  -0.129  -0.450 -0.0966  1.0787  3.0434
  326MOL0     H43982  12.909   0.018  -0.293  1.0943  0.1240  0.4205
  326MOL0     H43983  12.892   0.151  -0.419  2.8008  0.0741  2.1070
  326MOL0     H43984  13.065   0.039  -0.559  0.6604  1.6381  1.1952
  326MOL0     H43985  13.117   0.060  -0.396  1.7701 -0.5687 -1.0102
  326MOL0     H43986  13.171  -0.158  -0.506  1.1618  1.9682  1.5623
  326MOL0     H43987  13.001  -0.207  -0.492 -0.1350 -0.5067  1.0999
  326MOL0     H43988  13.042  -0.144  -0.242  0.4166  0.5589 -0.4972
  326MOL0     H43989  13.068  -0.304  -0.322 -0.1974 -0.2700 -2.3081
  326MOL0     H43990  12.137  -0.046  -0.451 -2.5909 -0.6680  1.9743
  326MOL0     H43991  11.919   0.058  -0.377 -0.1386 -0.4185  0.8102
  326MOL0     H43992  11.525   0.315  -0.500 -0.8603  1.9254 -1.5110
  326MOL0     H43993  11.312   0.392  -0.402 -1.6364  2.6629  1.7162
  326MOL0     H43994   9.734   1.416   0.132  1.7581 -2.3546  0.4645
  326MOL0     H43995   9.490   1.406   0.185 -1.3780 -1.1182 -0.3191
  326MOL0     H43996   9.157   1.181   0.543 -1.6547 -0.3065  1.6634
  326MOL0     H43997   8.910   1.196   0.586 -0.6275  0.7718  0.0516
  326MOL0     H43998   8.651   1.229   0.270  3.5121 -0.9955  1.1809
  326MOL0     H43999   8.649   1.412   0.290  2.2434  0.7288  0.5211
  326MOL0     H44000   8.425   1.348   0.303 -0.4475 -1.7725 -0.2353
  326MOL0     H44001   8.480   1.369   0.472 -2.7483  1.6117 -1.6031
  326MOL0     H44002   8.376   1.158   0.506 -0.8081  0.9192  0.6381
  326MOL0     H44003   8.527   1.107   0.431  0.1762  0.1215 -0.7501
  326MOL0     H44004   8.311   1.003   0.343  1.7907 -0.0688  2.2110
  326MOL0     H44005   8.263   1.164   0.290 -0.5286  0.0668  2.6029
  326MOL0     H44006   8.518   1.023  -0.021  1.4253 -2.1684  1.3654
  326MOL0     H44007   8.838   1.341   0.195  1.7235  1.4049 -0.9347
  326MOL0     H44008   9.110   1.429   0.075  0.9528  0.4502  0.1082
  326MOL0     H44009   9.170   1.266   0.049 -0.3792 -1.4560  0.9266
  326MOL0     H44010   9.001   1.306   0.028  1.0860  1.1808  0.4956
  327MOL0     O44011   6.006   8.031   0.121 -0.6605  0.2798 -0.2879
  327MOL0     C44012   6.060   8.069   0.019  0.5611 -0.4523 -0.5785
  327MOL0     O44013   6.195   8.085  -0.003  0.3502  0.3393 -0.7172
  327MOL0     C44014   6.286   8.046   0.089 -0.0719  0.5809  0.1384
  327MOL0     C44015   6.409   8.107   0.065 -0.8593  0.3755  0.0235
  327MOL0     C44016   6.524   8.058   0.138 -0.5556 -0.6367  0.1439
  327MOL0     C44017   6.520   7.950   0.225  0.5805 -0.4284 -0.1031
  327MOL0     O44018   6.627   7.894   0.284  0.9727 -0.1798 -0.2632
  327MOL0     C44019   6.756   7.950   0.261  0.1919 -0.0621  0.1543
  327MOL0     C44020   6.846   7.896   0.370 -0.2863  0.4297  0.3088
  327MOL0     C44021   6.997   7.937   0.330  0.8598 -0.2521 -0.1295
  327MOL0     C44022   7.077   7.860   0.432  0.1089 -0.5541 -0.3858
  327MOL0     C44023   7.223   7.896   0.420 -0.2701 -0.4291 -0.3247
  327MOL0     C44024   7.309   7.847   0.537  0.5432 -0.6863 -1.2208
  327MOL0     C44025   7.435   7.927   0.550 -0.1198 -0.1118  0.4518
  327MOL0     C44026   7.525   7.913   0.427 -0.4695  1.5672 -0.1059
  327MOL0     N44027   7.659   7.986   0.425  0.7506 -0.5893  0.2818
  327MOL0     C44028   7.658   8.118   0.434 -0.2830  0.2750 -0.2314
  327MOL0     C44029   7.793   8.145   0.456  0.1920  0.6201  0.1269
  327MOL0     C44030   7.845   8.285   0.454 -0.4209  0.3579 -0.4675
  327MOL0     C44031   7.873   8.345   0.313  0.2592 -0.4596 -0.1275
  327MOL0     C44032   7.972   8.264   0.222 -0.5107 -0.4111  0.2666
  327MOL0     C44033   7.953   8.314   0.078  0.2782 -0.0956 -1.0121
  327MOL0     O44034   8.030   8.433   0.056 -0.0231 -0.2434 -0.4147
  327MOL0     C44035   8.167   8.421   0.041 -0.3883  0.6349 -0.2816
  327MOL0     C44036   8.249   8.306   0.050  0.7918 -0.3158  0.3249
  327MOL0     C44037   8.386   8.312   0.041  0.3675  0.0357 -1.4027
  327MOL0     C44038   8.448   8.436   0.026  0.7389  0.6708  0.3580
  327MOL0     C44039   8.588   8.429  -0.009 -0.0095  0.0212 -0.8677
  327MOL0     O44040   8.666   8.343   0.060 -0.1583 -0.2788  0.0540
  327MOL0     C44041   8.800   8.348   0.050 -0.1144  0.6945 -0.5273
  327MOL0     C44042   8.887   8.460   0.046  0.2017 -0.2402  0.1456
  327MOL0     C44043   9.025   8.447   0.041 -0.8780  0.3737 -1.1548
  327MOL0     C44044   9.090   8.326   0.037  0.6572  0.6501 -0.3054
  327MOL0     O44045   9.223   8.311   0.029  0.2497  0.8517  0.0544
  327MOL0     C44046   9.312   8.418   0.076 -0.3907  0.4202  0.4816
  327MOL0     C44047   9.450   8.378   0.115 -0.7739  0.3958 -0.9120
  327MOL0     C44048   9.443   8.293   0.239 -0.1373  0.5164 -0.5876
  327MOL0     C44049   9.585   8.291   0.293 -0.1254 -0.1785  0.5131
  327MOL0     C44050   9.598   8.177   0.393 -0.2999  0.4696 -0.1477
  327MOL0     C44051   9.742   8.158   0.445  0.3714 -1.3895  0.0709
  327MOL0     C44052   9.810   8.298   0.473  0.6286 -0.7642 -0.0462
  327MOL0     C44053   9.936   8.291   0.551 -0.7625 -0.1375 -0.1368
  327MOL0    Cl44054  10.074   8.205   0.471  0.2256 -0.0304  0.5212
  327MOL0     C44055   9.010   8.213   0.042  0.2359  0.0252 -0.1163
  327MOL0     C44056   8.868   8.221   0.045 -0.4182 -0.2566 -0.5474
  327MOL0     O44057   8.631   8.525  -0.073 -0.3709  0.9846 -0.3141
  327MOL0     C44058   8.368   8.552   0.014  0.2000 -0.5671 -0.0058
  327MOL0     C44059   8.232   8.541   0.028 -0.6228  0.6233 -0.4713
  327MOL0     N44060   7.866   8.027   0.466 -0.0931 -0.3990 -0.6134
  327MOL0     N44061   7.784   7.933   0.434  0.0430  0.6423  0.4804
  327MOL0     C44062   6.390   7.899   0.255  0.1107  0.6482  0.7943
  327MOL0     C44063   6.273   7.949   0.188 -0.2178  0.0524 -0.0267
  327MOL0     C44064   5.973   8.126  -0.090  0.3548  0.5742 -0.6847
  327MOL0     C44065   6.044   8.172  -0.204 -0.1268  0.0709  0.3523
  327MOL0     C44066   5.972   8.244  -0.300 -0.0324 -0.1983  0.0354
  327MOL0     C44067   5.832   8.258  -0.292 -0.7979  0.2482  0.9002
  327MOL0     O44068   5.783   8.330  -0.399 -0.3395 -0.7597 -0.3873
  327MOL0     C44069   5.648   8.374  -0.397 -0.5083  1.1171  0.4819
  327MOL0     C44070   5.616   8.504  -0.321 -0.1801  0.6194  0.5794
  327MOL0     C44071   5.484   8.553  -0.364  0.8372  0.3924 -0.7305
  327MOL0     C44072   5.454   8.695  -0.314 -0.3289  1.0912 -0.3017
  327MOL0     C44073   5.423   8.692  -0.177  0.5402 -0.7031 -0.3043
  327MOL0     C44074   5.395   8.697  -0.054  0.6780 -0.0243 -0.4325
  327MOL0     C44075   5.767   8.191  -0.191 -0.1557 -0.3997 -0.2144
  327MOL0     C44076   5.832   8.126  -0.089  0.2034 -0.1641  0.1241
  327MOL0     C44077   5.746   8.070   0.010  0.5594  0.5288 -0.4288
  327MOL0     H44078   6.416   8.191  -0.003 -1.6942 -1.4171 -2.4310
  327MOL0     H44079   6.618   8.102   0.108 -1.9232  2.2944 -0.1308
  327MOL0     H44080   6.778   7.924   0.157 -0.0849  0.4697 -0.0433
  327MOL0     H44081   6.761   8.058   0.277  2.3605 -0.2699  1.2411
  327MOL0     H44082   6.835   7.789   0.386 -2.2578  0.2913 -1.4553
  327MOL0     H44083   6.820   7.951   0.461  3.8157  0.4253  1.6771
  327MOL0     H44084   7.011   8.045   0.330  1.0861 -0.2218  2.1836
  327MOL0     H44085   7.025   7.899   0.231 -1.8544  1.9101 -1.8556
  327MOL0     H44086   7.052   7.888   0.535  0.1406  2.5553 -1.1338
  327MOL0     H44087   7.063   7.754   0.408 -2.3403  0.1895 -2.6414
  327MOL0     H44088   7.258   7.848   0.328 -0.8514  0.1584 -0.8650
  327MOL0     H44089   7.242   8.003   0.412  3.0219 -0.9214 -0.4224
  327MOL0     H44090   7.244   7.864   0.623 -1.3717  2.1741 -3.1042
  327MOL0     H44091   7.332   7.740   0.534 -2.6499 -1.5041 -0.1669
  327MOL0     H44092   7.488   7.888   0.637 -0.4555  0.4067  0.8934
  327MOL0     H44093   7.397   8.029   0.563 -0.1458 -0.3792  2.8030
  327MOL0     H44094   7.569   7.813   0.426  1.8606  2.5180 -0.5442
  327MOL0     H44095   7.466   7.934   0.337 -0.2088 -0.4940 -0.8031
  327MOL0     H44096   7.569   8.180   0.429  0.3836  1.2857 -0.0305
  327MOL0     H44097   7.776   8.352   0.506 -0.9627 -2.6090  3.0517
  327MOL0     H44098   7.938   8.284   0.513 -1.5076 -1.2932  1.3534
  327MOL0     H44099   7.779   8.367   0.263  1.8735  1.9799 -2.3580
  327MOL0     H44100   7.916   8.444   0.331 -1.9874  0.8454 -1.4985
  327MOL0     H44101   7.963   8.156   0.231  0.9971 -0.8456 -2.4112
  327MOL0     H44102   8.075   8.282   0.255 -0.9154  2.7620  0.1893
  327MOL0     H44103   7.848   8.343   0.065  0.1169 -0.0987  0.1718
  327MOL0     H44104   7.982   8.241   0.002 -1.2256 -0.7988 -0.9489
  327MOL0     H44105   8.198   8.211   0.068 -1.5226  0.9240  0.7275
  327MOL0     H44106   8.439   8.217   0.046 -1.6606 -1.0873  0.7086
  327MOL0     H44107   8.846   8.561   0.038  0.2506 -0.2985 -0.9691
  327MOL0     H44108   9.089   8.535   0.046 -1.5217  0.8408 -0.9546
  327MOL0     H44109   9.304   8.483  -0.012 -0.8258 -0.3423 -0.0547
  327MOL0     H44110   9.260   8.471   0.156 -0.9704  3.0002 -1.4773
  327MOL0     H44111   9.500   8.323   0.034 -0.7437  0.3092 -0.8348
  327MOL0     H44112   9.511   8.467   0.129  0.1953 -0.4607  0.6011
  327MOL0     H44113   9.374   8.329   0.316 -0.6419 -1.2220 -0.1620
  327MOL0     H44114   9.409   8.194   0.206  0.6652  0.5384 -1.5246
  327MOL0     H44115   9.599   8.389   0.339 -2.2500  0.6300 -0.4141
  327MOL0     H44116   9.659   8.279   0.213 -1.0433  0.1665 -0.4208
  327MOL0     H44117   9.566   8.084   0.345  1.9904 -0.2480 -0.4264
  327MOL0     H44118   9.520   8.189   0.468 -0.3368 -0.3513 -0.0427
  327MOL0     H44119   9.734   8.093   0.532  0.1494 -3.9096 -1.7153
  327MOL0     H44120   9.803   8.101   0.374  0.5757 -1.8280  0.5947
  327MOL0     H44121   9.741   8.357   0.533  2.4757  0.9389  0.5130
  327MOL0     H44122   9.834   8.358   0.385  2.1816  0.0891  0.9166
  327MOL0     H44123   9.968   8.393   0.575  1.1000 -0.7511  0.1568
  327MOL0     H44124   9.911   8.249   0.649  0.1786  1.4211  0.8270
  327MOL0     H44125   9.060   8.117   0.032  0.6246 -0.1770  3.0069
  327MOL0     H44126   8.819   8.125   0.032  2.5379 -1.9262 -0.1920
  327MOL0     H44127   8.421   8.644  -0.008 -2.5507  1.4198  1.1409
  327MOL0     H44128   8.172   8.630   0.021  0.2644  1.2917  0.2187
  327MOL0     H44129   6.385   7.816   0.326  1.8385 -0.1866  0.0059
  327MOL0     H44130   6.179   7.899   0.207  0.5457 -3.1035 -3.4779
  327MOL0     H44131   6.152   8.166  -0.213 -0.0866  2.6034 -2.2860
  327MOL0     H44132   6.032   8.286  -0.381  3.8840 -3.2216  1.0387
  327MOL0     H44133   5.582   8.295  -0.361  0.0166 -0.0955 -1.0837
  327MOL0     H44134   5.624   8.396  -0.502 -2.3163  2.1001  1.0448
  327MOL0     H44135   5.691   8.573  -0.362 -0.1190  1.2120  1.6449
  327MOL0     H44136   5.620   8.510  -0.212 -1.7561 -1.4064  0.8057
  327MOL0     H44137   5.411   8.480  -0.327  2.7512 -1.0744  0.2787
  327MOL0     H44138   5.480   8.556  -0.473  1.7472  2.0787 -0.7397
  327MOL0     H44139   5.543   8.757  -0.331  2.2865 -1.8480  1.5823
  327MOL0     H44140   5.381   8.737  -0.384 -0.9812  4.6241  2.2505
  327MOL0     H44141   5.391   8.718   0.051 -0.5452  1.1761 -0.6927
  327MOL0     H44142   5.658   8.198  -0.192 -0.1166  1.2346  1.7020
  327MOL0     H44143   5.759   8.119   0.106 -0.1124 -1.4242  0.7105
  327MOL0     H44144   5.641   8.073  -0.018 -0.0210  0.5955  1.6139
  327MOL0     H44145   5.757   7.963   0.029 -1.3127  0.5003  0.6933
  328MOL0     O44146   7.111  10.022   3.117  0.9635 -0.6511  0.8914
  328MOL0     C44147   7.046  10.016   3.015 -0.3150 -0.1241 -0.5002
  328MOL0     O44148   7.099  10.009   2.891  0.0093  0.4902  0.2513
  328MOL0     C44149   7.225  10.021   2.877  0.2882 -0.5926 -1.1858
  328MOL0     C44150   7.292  10.143   2.865  0.2222  0.8581 -0.0776
  328MOL0     C44151   7.425  10.154   2.855 -0.3917  0.8569 -0.4180
  328MOL0     C44152   7.503  10.034   2.855  0.0445 -0.8311 -0.1923
  328MOL0     O44153   7.634  10.033   2.860 -0.2381 -0.1483  0.6307
  328MOL0     C44154   7.695  10.125   2.957 -0.1022  0.4905 -0.0003
  328MOL0     C44155   7.835  10.067   2.960 -0.2401 -0.6989  0.1759
  328MOL0     C44156   7.915  10.118   2.840 -0.8845  0.2825  0.6999
  328MOL0     C44157   8.056  10.050   2.840  0.2771 -0.5110 -0.3329
  328MOL0     C44158   8.148  10.097   2.728 -0.0757  0.0226  0.7383
  328MOL0     C44159   8.289  10.040   2.743  0.3540  0.2271  0.4998
  328MOL0     C44160   8.391  10.079   2.636 -0.5894  0.8489  0.2899
  328MOL0     C44161   8.327  10.087   2.500  0.6866  0.3933 -0.4069
  328MOL0     N44162   8.436  10.121   2.408 -0.0413  0.4211  0.8837
  328MOL0     C44163   8.488  10.038   2.313 -0.1871  0.6370  0.1594
  328MOL0     C44164   8.576  10.121   2.247 -0.3366  0.5027  0.3206
  328MOL0     C44165   8.655  10.086   2.131 -0.7820  0.9540 -0.5069
  328MOL0     C44166   8.735   9.956   2.157  0.3517 -0.0402  0.4001
  328MOL0     C44167   8.863   9.925   2.072 -0.0288 -0.2324 -0.0173
  328MOL0     C44168   8.986   9.980   2.128  0.4419  0.3492 -0.3285
  328MOL0     O44169   9.092   9.919   2.050  1.0266 -0.5452  0.2384
  328MOL0     C44170   9.221   9.963   2.070 -0.4008 -0.1714  0.4798
  328MOL0     C44171   9.266  10.063   2.158  0.5096  0.1877  0.4612
  328MOL0     C44172   9.408  10.094   2.174  0.8122  0.0027 -0.4022
  328MOL0     C44173   9.507  10.022   2.099 -0.8796 -0.0401 -0.5591
  328MOL0     C44174   9.646  10.059   2.113 -0.0693 -0.4424  0.2414
  328MOL0     O44175   9.732   9.973   2.054  0.5269 -0.1286 -0.0522
  328MOL0     C44176   9.869  10.017   2.054  0.9554  0.5871 -0.0686
  328MOL0     C44177   9.946   9.956   2.144  0.0389 -0.7936  0.0528
  328MOL0     C44178  10.079   9.980   2.143  0.2473 -0.0107 -0.6094
  328MOL0     C44179  10.133  10.078   2.059  0.3162  0.9046 -0.2122
  328MOL0     O44180  10.265  10.104   2.059  0.6701  0.0324  0.4855
  328MOL0     C44181  10.329  10.144   1.937 -0.1831  0.0890  0.0039
  328MOL0     C44182  10.482  10.136   1.956  0.0632  0.1400 -0.5433
  328MOL0     C44183  10.566  10.140   1.824  0.4067 -1.1686  1.3336
  328MOL0     C44184  10.713  10.184   1.841 -0.7718 -0.3596  0.2629
  328MOL0     C44185  10.804  10.150   1.717  0.3807 -0.4039  0.3929
  328MOL0     C44186  10.953  10.165   1.750 -0.5539 -0.6951 -0.7381
  328MOL0     C44187  11.039  10.161   1.618  0.0464  0.1828  0.4294
  328MOL0     C44188  11.181  10.193   1.650 -0.3656  0.5417 -0.9420
  328MOL0    Cl44189  11.259  10.048   1.718 -0.5187  0.4175  0.0683
  328MOL0     C44190  10.042  10.155   1.972 -0.0773  0.1129  0.4646
  328MOL0     C44191   9.911  10.112   1.964 -0.3366  0.9994  0.7071
  328MOL0     O44192   9.670  10.159   2.176 -0.6122 -0.2045  0.2602
  328MOL0     C44193   9.458   9.940   1.995 -0.7797  0.8699 -0.1509
  328MOL0     C44194   9.324   9.899   1.990 -0.5879 -1.1637 -0.5751
  328MOL0     N44195   8.552  10.247   2.290 -0.4856 -0.4253 -0.2480
  328MOL0     N44196   8.470  10.245   2.388  0.4388  0.6382 -0.7659
  328MOL0     C44197   7.439   9.913   2.855  0.4882  0.4207 -0.4928
  328MOL0     C44198   7.298   9.908   2.873  0.0058  0.0904  1.4741
  328MOL0     C44199   6.897  10.023   3.040 -0.6583 -0.1207 -0.7209
  328MOL0     C44200   6.822  10.033   2.928 -0.0988 -0.1312  0.3045
  328MOL0     C44201   6.686  10.050   2.937 -0.4975  0.9648 -0.0784
  328MOL0     C44202   6.620  10.056   3.058  0.6330 -0.8844 -0.1052
  328MOL0     O44203   6.486  10.081   3.076 -0.8393  0.4483 -0.0539
  328MOL0     C44204   6.410   9.970   3.125  0.2742 -0.1081 -0.5397
  328MOL0     C44205   6.266   9.969   3.065  0.6501 -0.3269  0.1069
  328MOL0     C44206   6.184  10.091   3.109 -0.1069 -0.1035 -0.0429
  328MOL0     C44207   6.041  10.068   3.055  0.7466 -0.5888 -0.4586
  328MOL0     C44208   5.957   9.987   3.144 -0.8327  0.7331  0.4422
  328MOL0     C44209   5.868   9.922   3.203  0.4620 -0.1637  0.3558
  328MOL0     C44210   6.699  10.054   3.171  0.5420 -0.2517 -0.0835
  328MOL0     C44211   6.832  10.040   3.164  0.1872 -0.2455 -0.5019
  328MOL0     C44212   6.908  10.051   3.290  0.4483 -0.3062 -0.5725
  328MOL0     H44213   7.230  10.232   2.857  0.6012  0.9838 -2.1128
  328MOL0     H44214   7.483  10.245   2.856  0.9106  0.1093  2.5995
  328MOL0     H44215   7.686  10.232   2.933 -3.4429  0.1660 -0.6803
  328MOL0     H44216   7.646  10.103   3.052 -0.9177  4.5125  0.6988
  328MOL0     H44217   7.836   9.958   2.965 -1.4878 -0.7899 -0.8747
  328MOL0     H44218   7.890  10.102   3.048 -1.2035  2.4400 -0.3407
  328MOL0     H44219   7.935  10.225   2.851  1.2701  0.0230 -0.1948
  328MOL0     H44220   7.876  10.100   2.740  2.0181  1.9416 -0.8622
  328MOL0     H44221   8.111  10.072   2.933  0.9063  0.1326 -0.8387
  328MOL0     H44222   8.047   9.942   2.828 -1.0370 -0.6033  1.1842
  328MOL0     H44223   8.106  10.060   2.633  3.9313 -4.3599  0.2911
  328MOL0     H44224   8.146  10.206   2.732 -1.4901 -0.0169  2.7063
  328MOL0     H44225   8.329  10.063   2.842  2.5495 -1.9954  0.2038
  328MOL0     H44226   8.274   9.932   2.738  3.8094 -0.3192 -0.9777
  328MOL0     H44227   8.480  10.016   2.649 -1.5076 -0.2850  1.3497
  328MOL0     H44228   8.429  10.177   2.666  0.7000 -0.1881  2.2769
  328MOL0     H44229   8.286   9.988   2.479  0.4705 -0.3106  2.8195
  328MOL0     H44230   8.242  10.152   2.478  1.3040  0.5972 -2.4549
  328MOL0     H44231   8.468   9.933   2.300 -0.7406  0.8782 -1.1057
  328MOL0     H44232   8.596  10.074   2.039 -0.1648 -1.0785 -0.6837
  328MOL0     H44233   8.738  10.157   2.119  0.2342  0.2499  1.7628
  328MOL0     H44234   8.758   9.944   2.263 -1.4482  0.1389  0.8531
  328MOL0     H44235   8.665   9.871   2.147  0.0229 -0.0364  2.3694
  328MOL0     H44236   8.855   9.961   1.969 -0.0417  0.3077  0.1714
  328MOL0     H44237   8.876   9.816   2.074  0.5215 -0.2162 -1.5000
  328MOL0     H44238   8.997   9.943   2.231  0.2283 -0.1806 -0.4906
  328MOL0     H44239   8.973  10.088   2.119 -1.2687  0.3812  1.7853
  328MOL0     H44240   9.192  10.122   2.211 -0.5781 -0.0325 -0.7515
  328MOL0     H44241   9.425  10.183   2.233 -0.2206  0.8948 -1.4229
  328MOL0     H44242   9.899   9.875   2.198  1.1338 -1.6080 -0.2017
  328MOL0     H44243  10.135   9.911   2.205 -0.6795 -0.5838 -0.3975
  328MOL0     H44244  10.306  10.088   1.846 -1.6941  1.7940 -0.7400
  328MOL0     H44245  10.305  10.249   1.917  2.3153  1.0459  1.5873
  328MOL0     H44246  10.522  10.198   2.037  0.9593  0.8815 -1.5259
  328MOL0     H44247  10.504  10.037   1.997  0.4939 -0.0341 -1.1747
  328MOL0     H44248  10.561  10.043   1.773 -1.1953 -1.5463  2.1436
  328MOL0     H44249  10.516  10.201   1.748 -1.8902 -4.5273 -0.1090
  328MOL0     H44250  10.759  10.136   1.928  2.7644 -0.9691 -1.7910
  328MOL0     H44251  10.721  10.292   1.856  4.5574 -0.7336  2.1025
  328MOL0     H44252  10.791  10.220   1.634  1.7996 -0.4367  0.1254
  328MOL0     H44253  10.782  10.050   1.679  2.1759 -0.8006  0.3352
  328MOL0     H44254  10.966  10.261   1.801  0.5744 -0.1927 -1.9209
  328MOL0     H44255  10.983  10.085   1.817 -2.2278 -1.5098 -0.9095
  328MOL0     H44256  11.006  10.233   1.542 -1.3408 -0.6105  0.2497
  328MOL0     H44257  11.030  10.061   1.575  0.8900 -0.2082  1.1291
  328MOL0     H44258  11.248  10.220   1.567  1.0873  5.4016  1.4356
  328MOL0     H44259  11.186  10.278   1.718 -1.9345 -0.5742  0.6422
  328MOL0     H44260  10.073  10.232   1.902  1.3081 -0.4215  0.4641
  328MOL0     H44261   9.849  10.153   1.885  0.3063  3.5863  1.4427
  328MOL0     H44262   9.529   9.894   1.926  1.0660 -0.5695  2.5372
  328MOL0     H44263   9.285   9.821   1.925 -2.9559 -1.0995  0.6682
  328MOL0     H44264   7.482   9.815   2.872 -1.0053 -0.2941 -0.7179
  328MOL0     H44265   7.245   9.815   2.887 -1.2460  0.2129 -1.6507
  328MOL0     H44266   6.859  10.064   2.831 -0.7163 -0.7519 -0.1368
  328MOL0     H44267   6.640  10.062   2.840  1.5306 -1.7169 -1.5247
  328MOL0     H44268   6.403   9.969   3.234 -0.1370  0.6037 -0.5526
  328MOL0     H44269   6.453   9.880   3.081  0.3082  1.0291 -3.0121
  328MOL0     H44270   6.227   9.873   3.101  3.5856 -1.7939 -0.3944
  328MOL0     H44271   6.263   9.969   2.956 -2.1534  0.2050  0.0916
  328MOL0     H44272   6.230  10.176   3.059  2.5652 -1.6735 -0.4105
  328MOL0     H44273   6.181  10.102   3.218 -0.1006 -2.5769  0.2681
  328MOL0     H44274   5.998  10.165   3.030  0.6226 -0.2742  0.9082
  328MOL0     H44275   6.037  10.018   2.958 -3.2228 -0.7102 -0.3866
  328MOL0     H44276   5.789   9.877   3.259 -0.3993 -1.7626 -2.0005
  328MOL0     H44277   6.654  10.084   3.266 -0.6351  0.5068 -0.8536
  328MOL0     H44278   6.962  10.146   3.283  0.9674 -0.5028  0.6103
  328MOL0     H44279   6.837  10.049   3.374 -4.1736 -1.3732 -4.0986
  328MOL0     H44280   6.974   9.965   3.298 -0.5489 -1.5213 -4.0013
  329MOL0     O44281   6.609   6.812   9.202  0.5926 -0.1544  0.1158
  329MOL0     C44282   6.568   6.876   9.298 -0.9864 -0.1288 -0.1077
  329MOL0     O44283   6.639   6.888   9.413  0.1791 -0.1376  0.5483
  329MOL0     C44284   6.770   6.843   9.420 -0.2437  0.1802  0.0132
  329MOL0     C44285   6.813   6.716   9.383  0.6026 -0.3885  0.6871
  329MOL0     C44286   6.950   6.681   9.386  0.1725  0.5668  0.6184
  329MOL0     C44287   7.050   6.760   9.441 -0.4637  0.1773  0.4606
  329MOL0     O44288   7.181   6.714   9.457  0.5639 -0.7024 -0.1937
  329MOL0     C44289   7.282   6.813   9.436 -0.3462  0.0419  0.0180
  329MOL0     C44290   7.425   6.752   9.431  0.6347 -0.5060  0.3474
  329MOL0     C44291   7.539   6.844   9.465  0.5242 -0.2252 -0.2087
  329MOL0     C44292   7.669   6.782   9.422 -0.1850  1.2131  0.5843
  329MOL0     C44293   7.784   6.859   9.486  0.3443 -0.1269  1.1165
  329MOL0     C44294   7.930   6.799   9.472 -0.5714 -0.9222 -0.3139
  329MOL0     C44295   7.966   6.716   9.346 -0.3078  0.0353  0.8375
  329MOL0     C44296   7.976   6.794   9.215 -0.2444 -0.2887  0.4555
  329MOL0     N44297   8.070   6.909   9.219  0.1855 -0.2654 -0.2976
  329MOL0     C44298   8.049   7.028   9.283 -0.7785 -0.2940 -0.2523
  329MOL0     C44299   8.172   7.084   9.291 -0.6777 -0.6429  0.6207
  329MOL0     C44300   8.215   7.215   9.358  0.5923  0.4985  0.1004
  329MOL0     C44301   8.331   7.202   9.453  0.1044 -0.9751  0.3713
  329MOL0     C44302   8.370   7.347   9.495  1.0843 -0.2050  0.0595
  329MOL0     C44303   8.488   7.342   9.591 -0.5219  0.4110  0.3006
  329MOL0     O44304   8.620   7.295   9.544  1.0716  0.4187 -0.0180
  329MOL0     C44305   8.737   7.331   9.598 -0.1017 -0.4550  0.2446
  329MOL0     C44306   8.803   7.246   9.688  1.0277 -0.7861 -0.3116
  329MOL0     C44307   8.927   7.272   9.734 -0.1255 -0.6357 -0.5359
  329MOL0     C44308   8.994   7.393   9.703 -0.6748  0.4718  0.1097
  329MOL0     C44309   9.137   7.418   9.745 -0.4960 -0.4187 -0.1513
  329MOL0     O44310   9.199   7.326   9.821 -0.3591  0.6929  0.1249
  329MOL0     C44311   9.322   7.354   9.866 -0.1272 -0.2855 -0.2739
  329MOL0     C44312   9.435   7.401   9.791  0.3813  0.3239  0.3188
  329MOL0     C44313   9.564   7.412   9.843  0.6053  0.1701  0.2684
  329MOL0     C44314   9.587   7.390   9.978  0.0827 -0.2945 -0.3548
  329MOL0     O44315   9.705   7.404  10.044  0.4348  0.5551 -0.1507
  329MOL0     C44316   9.820   7.455   9.968 -0.4911  0.6561  0.4756
  329MOL0     C44317   9.936   7.492  10.064  0.6370 -0.0137 -0.4900
  329MOL0     C44318   9.886   7.575  10.181  0.1676  0.0395 -0.4658
  329MOL0     C44319  10.001   7.630  10.270 -0.2796 -0.0193  0.2516
  329MOL0     C44320   9.958   7.729  10.378 -0.0921 -0.2798 -0.3898
  329MOL0     C44321   9.854   7.675  10.470  0.0176 -0.2220 -0.1766
  329MOL0     C44322   9.715   7.726  10.427  0.2296  1.2077  0.2871
  329MOL0     C44323   9.605   7.672  10.517  0.2655 -0.3661  0.7785
  329MOL0    Cl44324   9.574   7.493  10.478 -0.6585 -0.2998  0.1043
  329MOL0     C44325   9.479   7.345  10.053  0.2432 -0.0630 -0.6038
  329MOL0     C44326   9.351   7.321  10.004 -0.7595 -0.1273  0.4546
  329MOL0     O44327   9.193   7.518   9.693 -0.2371  0.3295 -0.1086
  329MOL0     C44328   8.925   7.489   9.623  0.2222 -0.3994  0.2489
  329MOL0     C44329   8.789   7.453   9.580 -0.7053 -1.2817  0.2190
  329MOL0     N44330   8.264   7.006   9.214  0.1812  0.4696  0.1701
  329MOL0     N44331   8.196   6.898   9.186 -0.3947 -0.1686  0.1612
  329MOL0     C44332   7.000   6.885   9.484  0.4207  0.3343  1.1929
  329MOL0     C44333   6.862   6.922   9.474 -0.2340 -0.6723  0.1948
  329MOL0     C44334   6.433   6.939   9.282  0.4575  0.0000  0.4282
  329MOL0     C44335   6.364   6.916   9.165  0.2623 -0.3585 -0.4724
  329MOL0     C44336   6.239   6.962   9.145 -0.5824 -1.0086  0.5619
  329MOL0     C44337   6.180   7.052   9.236 -0.8827  0.8076  0.5604
  329MOL0     O44338   6.063   7.120   9.213 -0.7156  0.5532 -0.3599
  329MOL0     C44339   5.950   7.102   9.302  0.8754  0.0824 -0.9283
  329MOL0     C44340   5.875   6.980   9.249 -0.3024  0.2606  1.3401
  329MOL0     C44341   5.762   6.935   9.335  0.6238 -0.2524  0.0683
  329MOL0     C44342   5.702   6.805   9.286 -0.2711  0.1642  0.2128
  329MOL0     C44343   5.583   6.773   9.366 -0.0137 -0.0084 -0.5075
  329MOL0     C44344   5.492   6.756   9.447 -1.1178 -0.1178 -0.1949
  329MOL0     C44345   6.253   7.086   9.347  0.2539 -0.0862  0.0469
  329MOL0     C44346   6.380   7.036   9.370  0.4629 -0.0821  0.8513
  329MOL0     C44347   6.451   7.090   9.494 -0.2733 -0.4667  0.0342
  329MOL0     H44348   6.738   6.648   9.343 -0.8772  1.4597  0.1725
  329MOL0     H44349   6.966   6.583   9.342 -1.9225  1.3266 -2.0612
  329MOL0     H44350   7.268   6.858   9.337 -2.4844  2.0200  1.1381
  329MOL0     H44351   7.289   6.890   9.513  1.5603  1.8805 -1.8502
  329MOL0     H44352   7.440   6.704   9.334 -0.5063  1.4170 -0.8592
  329MOL0     H44353   7.423   6.670   9.503 -0.9122 -1.0749 -0.3097
  329MOL0     H44354   7.546   6.857   9.573  3.0614 -4.5576  0.3574
  329MOL0     H44355   7.519   6.943   9.422  0.8845  1.1106  2.4830
  329MOL0     H44356   7.680   6.680   9.460 -1.6775  0.9586  0.4053
  329MOL0     H44357   7.671   6.784   9.313 -1.0646 -1.5147  0.4566
  329MOL0     H44358   7.790   6.959   9.442 -0.7526 -1.0452 -1.2995
  329MOL0     H44359   7.760   6.881   9.590  0.1940  0.2539  1.0006
  329MOL0     H44360   8.004   6.878   9.490 -0.6567 -1.1323  1.0702
  329MOL0     H44361   7.955   6.740   9.560  2.2327  0.0518 -0.3300
  329MOL0     H44362   7.903   6.630   9.323 -0.1761 -0.0349  0.7410
  329MOL0     H44363   8.066   6.676   9.362  0.7681  1.3014 -2.0230
  329MOL0     H44364   8.011   6.739   9.128  1.8409  0.8916  0.4947
  329MOL0     H44365   7.874   6.827   9.191  0.2361 -0.3633 -1.9034
  329MOL0     H44366   7.959   7.064   9.332 -0.5737 -0.8913  0.5805
  329MOL0     H44367   8.233   7.291   9.281  0.4167  1.1427  0.6849
  329MOL0     H44368   8.125   7.242   9.413 -0.0898 -0.5117 -0.4705
  329MOL0     H44369   8.307   7.147   9.545  0.9640 -1.4500  0.3182
  329MOL0     H44370   8.408   7.146   9.400  0.3742 -0.4710  0.2205
  329MOL0     H44371   8.277   7.391   9.532 -0.1672 -1.8696 -1.0160
  329MOL0     H44372   8.409   7.409   9.414  1.8498 -0.5408  0.1627
  329MOL0     H44373   8.465   7.288   9.683  0.1730 -0.1793  0.1373
  329MOL0     H44374   8.511   7.445   9.623 -1.0815  0.4688  0.5237
  329MOL0     H44375   8.751   7.157   9.720  0.2375 -0.3114 -0.2402
  329MOL0     H44376   8.978   7.193   9.788  2.8002  0.2251 -1.8460
  329MOL0     H44377   9.434   7.430   9.686  1.4337  0.6255  0.3805
  329MOL0     H44378   9.639   7.437   9.768 -1.0842  2.3424 -0.8201
  329MOL0     H44379   9.854   7.377   9.899 -2.2067 -1.0587  1.4484
  329MOL0     H44380   9.796   7.547   9.915  0.8627 -0.0582 -1.4952
  329MOL0     H44381   9.984   7.399  10.096  0.4839 -0.3976 -1.3484
  329MOL0     H44382  10.012   7.551  10.013  0.1524  1.2922  0.2530
  329MOL0     H44383   9.849   7.674  10.152  0.5535  1.1096  2.4379
  329MOL0     H44384   9.802   7.527  10.232 -0.3257 -1.6163 -2.6680
  329MOL0     H44385  10.072   7.681  10.205 -1.5266  0.8565 -0.4664
  329MOL0     H44386  10.050   7.542  10.313 -0.8089 -0.8432 -0.7811
  329MOL0     H44387   9.926   7.822  10.330  1.6088 -0.2344 -1.5133
  329MOL0     H44388  10.049   7.744  10.436 -1.7852  2.0732  1.9002
  329MOL0     H44389   9.851   7.566  10.474 -1.5435 -0.2339 -0.9437
  329MOL0     H44390   9.867   7.717  10.570 -0.1282  0.0697 -0.2786
  329MOL0     H44391   9.693   7.687  10.327  0.5326 -1.6433  1.2416
  329MOL0     H44392   9.708   7.833  10.406  2.0224  1.3032 -0.0505
  329MOL0     H44393   9.623   7.687  10.624 -2.0105 -0.4798  1.2187
  329MOL0     H44394   9.516   7.733  10.505 -0.1455 -0.8609  1.2294
  329MOL0     H44395   9.500   7.322  10.157 -0.3810 -0.6222 -0.5902
  329MOL0     H44396   9.274   7.285  10.071 -0.4317 -1.9349 -0.0834
  329MOL0     H44397   8.969   7.582   9.589  0.3355  0.2338  2.0397
  329MOL0     H44398   8.741   7.526   9.515 -0.8060 -0.2497  1.4134
  329MOL0     H44399   7.068   6.960   9.523 -0.6816  2.2751 -0.4272
  329MOL0     H44400   6.833   7.019   9.513  0.9956 -1.3376  3.0258
  329MOL0     H44401   6.402   6.849   9.089 -1.4024  1.0131 -2.6233
  329MOL0     H44402   6.181   6.933   9.059  0.7567 -0.5127 -0.5380
  329MOL0     H44403   5.896   7.197   9.306 -0.1899 -0.4857 -1.2381
  329MOL0     H44404   5.986   7.074   9.401  1.9119 -2.0555 -1.8304
  329MOL0     H44405   5.948   6.901   9.229  0.3424  1.4639 -1.5607
  329MOL0     H44406   5.843   7.017   9.151  0.1788  1.7514  1.7179
  329MOL0     H44407   5.687   7.014   9.343 -1.3195 -1.9611 -0.4695
  329MOL0     H44408   5.800   6.914   9.435  2.6135  2.3169 -0.0590
  329MOL0     H44409   5.677   6.819   9.181 -0.4301 -1.3371  0.0288
  329MOL0     H44410   5.778   6.726   9.286 -0.9493 -0.4983 -0.0007
  329MOL0     H44411   5.414   6.748   9.521  0.9505 -0.4819  2.0512
  329MOL0     H44412   6.216   7.148   9.428 -0.8800 -1.3129  0.5077
  329MOL0     H44413   6.380   7.144   9.557 -0.9218  1.4546 -2.2017
  329MOL0     H44414   6.500   7.011   9.551 -1.4792 -1.3898 -0.1458
  329MOL0     H44415   6.532   7.149   9.452 -0.2443 -1.3620 -1.2414
  330MOL0     O44416   2.883   1.177   3.703  0.3608  0.4140 -0.5641
  330MOL0     C44417   2.786   1.114   3.744  0.2887 -0.3579 -0.9778
  330MOL0     O44418   2.769   1.055   3.869 -0.8413  0.9236  1.0115
  330MOL0     C44419   2.872   1.018   3.952  0.0033 -0.1043 -0.3360
  330MOL0     C44420   2.858   1.017   4.097  0.1665  0.1060  0.0596
  330MOL0     C44421   2.947   0.975   4.186 -0.1873  0.9039 -0.0234
  330MOL0     C44422   3.084   0.964   4.146 -0.0926 -0.2532 -0.7853
  330MOL0     O44423   3.180   0.947   4.243 -0.3200  0.3127  0.4103
  330MOL0     C44424   3.302   0.878   4.212  0.1617 -0.2767  0.6681
  330MOL0     C44425   3.413   0.978   4.184 -0.4642  0.8220 -0.0577
  330MOL0     C44426   3.548   0.908   4.174 -1.8390 -0.1504  0.5787
  330MOL0     C44427   3.662   1.012   4.142  0.5920  0.6841 -0.0828
  330MOL0     C44428   3.808   0.949   4.134 -0.1582 -0.0813  0.0483
  330MOL0     C44429   3.916   1.058   4.122 -0.1043  0.1717  0.0515
  330MOL0     C44430   4.043   1.005   4.055  0.2583 -0.0452  0.6368
  330MOL0     C44431   4.160   1.100   4.046  0.1585  0.8346 -0.1177
  330MOL0     N44432   4.271   1.061   3.965  0.2080  0.7413 -0.3420
  330MOL0     C44433   4.320   1.130   3.857  0.3560 -0.3033  0.1177
  330MOL0     C44434   4.439   1.064   3.823  0.2567  0.7122 -0.5632
  330MOL0     C44435   4.541   1.091   3.709  0.4506  0.1636 -0.0792
  330MOL0     C44436   4.663   1.168   3.751  0.7666  0.0206  0.3952
  330MOL0     C44437   4.775   1.074   3.804  0.2982  0.0336  0.1906
  330MOL0     C44438   4.906   1.148   3.824 -0.0009  0.4481  0.0107
  330MOL0     O44439   4.991   1.064   3.900 -0.3622  0.2825 -0.2999
  330MOL0     C44440   5.107   1.127   3.923 -0.3830 -0.5008 -0.1388
  330MOL0     C44441   5.164   1.234   3.858 -0.2659  0.0578 -0.4893
  330MOL0     C44442   5.295   1.272   3.888  0.0537  0.0496  0.5412
  330MOL0     C44443   5.383   1.201   3.974  0.5557 -0.4078  0.4157
  330MOL0     C44444   5.525   1.235   3.992 -0.2168 -0.4703 -0.4359
  330MOL0     O44445   5.579   1.196   4.120  0.8263  0.0268 -0.3691
  330MOL0     C44446   5.710   1.226   4.157 -0.1028 -0.6389 -0.2727
  330MOL0     C44447   5.788   1.344   4.118  0.3625 -0.4388  0.2895
  330MOL0     C44448   5.907   1.374   4.177 -0.0372  0.0302 -0.9180
  330MOL0     C44449   5.959   1.289   4.279  0.2843 -0.5998 -0.1193
  330MOL0     O44450   6.072   1.324   4.335 -0.1368  0.0640 -0.6538
  330MOL0     C44451   6.081   1.448   4.403 -0.4033  0.5826  0.6282
  330MOL0     C44452   6.187   1.537   4.340  0.8477  0.0914  0.5047
  330MOL0     C44453   6.330   1.480   4.370  0.0874  0.2165  0.1466
  330MOL0     C44454   6.426   1.498   4.246  0.2024  0.5164  0.1859
  330MOL0     C44455   6.450   1.646   4.206  0.2094  0.4146 -0.1306
  330MOL0     C44456   6.539   1.727   4.307  0.6862 -0.6063  0.1374
  330MOL0     C44457   6.683   1.704   4.272  0.0425 -0.3306 -0.0317
  330MOL0     C44458   6.729   1.811   4.167  0.1825  0.3471  0.7676
  330MOL0    Cl44459   6.904   1.802   4.151 -0.3101 -0.0372  0.4381
  330MOL0     C44460   5.894   1.170   4.308 -0.5928 -0.2131  0.2999
  330MOL0     C44461   5.769   1.142   4.249  0.0992  0.2506  0.6616
  330MOL0     O44462   5.590   1.293   3.907  0.0992 -0.1145 -0.2358
  330MOL0     C44463   5.322   1.101   4.052 -0.1948  0.0498 -0.9168
  330MOL0     C44464   5.192   1.063   4.017  0.9865 -0.5349  0.1820
  330MOL0     N44465   4.446   0.957   3.912 -0.3609  0.2263  0.0010
  330MOL0     N44466   4.345   0.958   3.994 -0.0534 -0.3747 -0.0326
  330MOL0     C44467   3.110   0.974   4.011  0.2509 -0.1756 -0.0161
  330MOL0     C44468   3.007   0.998   3.917  0.8224  0.8084  0.6535
  330MOL0     C44469   2.660   1.110   3.660  0.4821  0.1278  0.7801
  330MOL0     C44470   2.547   1.049   3.714  0.5846 -0.2707  0.0461
  330MOL0     C44471   2.421   1.034   3.648  0.2816  0.1280 -0.2054
  330MOL0     C44472   2.413   1.090   3.521 -0.4565 -0.7398 -0.1991
  330MOL0     O44473   2.296   1.059   3.460  0.1806  0.2513  0.3267
  330MOL0     C44474   2.311   1.026   3.319 -0.4314  0.2182 -0.4366
  330MOL0     C44475   2.396   0.898   3.293  0.9819 -0.0271  0.4701
  330MOL0     C44476   2.323   0.772   3.345  0.6224  0.6592 -0.2324
  330MOL0     C44477   2.300   0.776   3.498  0.1054  0.3996  0.1448
  330MOL0     C44478   2.255   0.641   3.536  0.3321 -0.2369  0.5145
  330MOL0     C44479   2.203   0.538   3.565 -0.2699 -0.0895 -0.3791
  330MOL0     C44480   2.528   1.141   3.460  0.3878 -0.2241  0.1582
  330MOL0     C44481   2.648   1.159   3.530  0.5046 -0.0933 -0.2242
  330MOL0     C44482   2.759   1.220   3.443  0.0991 -0.0853  0.0392
  330MOL0     H44483   2.761   1.037   4.141 -0.8405 -3.0752 -0.4623
  330MOL0     H44484   2.928   0.975   4.293  1.2159  0.5935  0.2474
  330MOL0     H44485   3.342   0.822   4.297  1.3963 -0.0559  0.2506
  330MOL0     H44486   3.282   0.809   4.130  1.3023 -2.3573  2.0756
  330MOL0     H44487   3.419   1.059   4.258 -0.4179 -0.8932  1.9046
  330MOL0     H44488   3.394   1.027   4.088 -1.0904  0.0566 -0.3310
  330MOL0     H44489   3.550   0.822   4.107 -1.7251 -0.1722  0.6084
  330MOL0     H44490   3.579   0.854   4.264 -0.2592 -1.6933 -0.8108
  330MOL0     H44491   3.630   1.063   4.050 -1.4741 -1.6253 -0.7509
  330MOL0     H44492   3.663   1.078   4.229 -2.6986  1.5033 -0.5361
  330MOL0     H44493   3.839   0.893   4.223  3.7503 -0.1659 -1.1719
  330MOL0     H44494   3.807   0.889   4.043 -0.6662  0.7715 -0.5193
  330MOL0     H44495   3.881   1.135   4.052 -1.7602 -1.0981 -0.5732
  330MOL0     H44496   3.925   1.101   4.222 -2.5272  3.2227 -0.8834
  330MOL0     H44497   4.020   0.964   3.956  3.4023 -0.9905  0.1955
  330MOL0     H44498   4.077   0.923   4.120  3.6666  0.5853 -0.1746
  330MOL0     H44499   4.123   1.193   4.003 -3.2457 -0.4128 -0.1996
  330MOL0     H44500   4.196   1.125   4.146  0.9322 -2.2167  0.4828
  330MOL0     H44501   4.276   1.221   3.818 -0.4949 -0.4128  0.7658
  330MOL0     H44502   4.573   0.999   3.660  1.7062 -0.1167  1.1927
  330MOL0     H44503   4.490   1.152   3.634 -0.7488 -0.3627  0.2791
  330MOL0     H44504   4.700   1.219   3.662 -1.2476  1.9712  0.5935
  330MOL0     H44505   4.636   1.237   3.832  2.8006  1.2381  0.1273
  330MOL0     H44506   4.784   0.999   3.725 -1.6113 -0.4719  0.3973
  330MOL0     H44507   4.753   1.029   3.901  1.0781  0.2463  0.4790
  330MOL0     H44508   4.893   1.249   3.863  3.5907  1.8570 -2.0215
  330MOL0     H44509   4.952   1.152   3.725  3.3881 -0.4234  1.3682
  330MOL0     H44510   5.105   1.274   3.776 -1.6770  1.3937  1.1083
  330MOL0     H44511   5.335   1.362   3.841  0.6528  0.6298  2.0965
  330MOL0     H44512   5.738   1.417   4.056 -3.8167 -0.6468  2.9978
  330MOL0     H44513   5.960   1.466   4.154  0.4161  0.1261  0.3905
  330MOL0     H44514   5.980   1.492   4.409 -0.2986  0.7935  0.9008
  330MOL0     H44515   6.112   1.449   4.508 -2.5358  1.9594  1.3361
  330MOL0     H44516   6.167   1.540   4.232 -1.4187 -1.9645  0.7520
  330MOL0     H44517   6.185   1.636   4.385 -2.9124  0.0469  0.8072
  330MOL0     H44518   6.376   1.530   4.455 -2.1378  2.3943  0.1924
  330MOL0     H44519   6.316   1.374   4.395 -0.4512  0.8940  3.1276
  330MOL0     H44520   6.384   1.446   4.159  1.1145 -0.6259  0.4048
  330MOL0     H44521   6.517   1.448   4.278 -2.3734 -2.8076  3.1500
  330MOL0     H44522   6.350   1.690   4.202 -0.3725 -0.8255  0.1975
  330MOL0     H44523   6.490   1.654   4.105 -0.9928  3.2753 -0.4871
  330MOL0     H44524   6.516   1.832   4.291 -0.1407 -1.1234 -2.6363
  330MOL0     H44525   6.515   1.700   4.410  1.6865  2.1670  1.1828
  330MOL0     H44526   6.707   1.604   4.236  0.2923 -1.1742  2.3114
  330MOL0     H44527   6.742   1.723   4.362 -0.3410  1.3230 -0.0900
  330MOL0     H44528   6.688   1.788   4.068  0.2245  0.8836  0.6208
  330MOL0     H44529   6.705   1.915   4.192 -1.7208  0.1645 -0.1293
  330MOL0     H44530   5.924   1.095   4.381 -0.8440 -0.3667  0.2467
  330MOL0     H44531   5.710   1.059   4.285  0.8500  0.3283  2.1305
  330MOL0     H44532   5.375   1.044   4.126 -1.8814 -1.0855 -0.5252
  330MOL0     H44533   5.152   0.982   4.077 -1.7957  0.4063 -0.2760
  330MOL0     H44534   3.212   0.973   3.971 -0.0138  0.1569 -0.7307
  330MOL0     H44535   3.032   1.007   3.811 -3.9380  0.5606 -0.7116
  330MOL0     H44536   2.545   1.003   3.812 -5.0285  0.2617  0.4745
  330MOL0     H44537   2.345   0.970   3.691 -0.0036 -1.1331 -2.4145
  330MOL0     H44538   2.346   1.108   3.256  2.9135 -0.9533 -0.2775
  330MOL0     H44539   2.212   1.010   3.274 -0.3486  2.0273 -1.3575
  330MOL0     H44540   2.497   0.900   3.336  1.3244  2.9924 -0.2298
  330MOL0     H44541   2.403   0.881   3.186  0.3794 -2.7398  0.7970
  330MOL0     H44542   2.377   0.684   3.309  1.1651  0.5493  0.7967
  330MOL0     H44543   2.222   0.777   3.306  0.7396  5.8433 -0.5583
  330MOL0     H44544   2.391   0.810   3.548  0.6288  0.6474 -0.9313
  330MOL0     H44545   2.218   0.843   3.524  0.5254  0.2223  2.0815
  330MOL0     H44546   2.171   0.443   3.604  0.7943  0.0211  0.8695
  330MOL0     H44547   2.519   1.163   3.354  1.3816 -0.0335  0.1041
  330MOL0     H44548   2.838   1.145   3.437 -1.5915 -2.0005  0.2189
  330MOL0     H44549   2.722   1.238   3.342 -2.1733  1.3054  1.0146
  330MOL0     H44550   2.800   1.307   3.496  0.8610 -0.3356 -0.1296
  331MOL0     O44551   6.830   4.593  11.064  0.3341  0.7814 -0.3206
  331MOL0     C44552   6.911   4.504  11.032  0.1019  0.0637  0.0417
  331MOL0     O44553   6.937   4.470  10.903 -0.0184 -0.1920  0.9692
  331MOL0     C44554   6.860   4.527  10.813 -0.8471  0.4729  0.1888
  331MOL0     C44555   6.742   4.472  10.762 -0.0477  1.1082  0.3620
  331MOL0     C44556   6.666   4.536  10.667 -0.0323 -0.5535  0.5762
  331MOL0     C44557   6.686   4.671  10.639 -0.3522  0.9146  0.1296
  331MOL0     O44558   6.612   4.726  10.538  0.8019  1.2463 -0.2036
  331MOL0     C44559   6.640   4.859  10.488 -0.1751  0.0084 -0.6878
  331MOL0     C44560   6.589   4.860  10.345 -0.5211 -0.4329  0.0477
  331MOL0     C44561   6.555   4.996  10.292  0.0874  0.3807  0.0005
  331MOL0     C44562   6.679   5.090  10.292  0.0810 -0.4229  0.3963
  331MOL0     C44563   6.663   5.207  10.190 -0.5245 -0.3226  0.0376
  331MOL0     C44564   6.536   5.280  10.214 -0.0885 -0.0688  0.4205
  331MOL0     C44565   6.543   5.426  10.169 -0.3554  0.2431 -0.6291
  331MOL0     C44566   6.590   5.437  10.025  0.3794  0.0491 -0.1102
  331MOL0     N44567   6.589   5.572   9.964 -0.1839 -0.4739 -0.5288
  331MOL0     C44568   6.680   5.667  10.006 -0.3156 -0.6922  0.0829
  331MOL0     C44569   6.641   5.768   9.929 -1.0960 -0.3074 -0.6633
  331MOL0     C44570   6.692   5.905   9.957 -0.0807  0.3208  0.4143
  331MOL0     C44571   6.853   5.913   9.964  0.6069  0.0736 -0.3162
  331MOL0     C44572   6.919   5.853   9.850  0.4419  0.1725 -0.4122
  331MOL0     C44573   7.067   5.877   9.838  0.3756  0.0798 -0.0083
  331MOL0     O44574   7.139   5.855   9.962  0.1078  0.4677 -0.0785
  331MOL0     C44575   7.267   5.890   9.949  0.2683  0.1244 -0.8927
  331MOL0     C44576   7.309   6.017   9.913 -0.4027 -0.8149 -0.2963
  331MOL0     C44577   7.445   6.051   9.911 -0.5207 -0.0699 -0.1269
  331MOL0     C44578   7.545   5.955   9.934  0.4467  0.0938 -0.4868
  331MOL0     C44579   7.685   5.987   9.906  0.0666  0.1540  0.0586
  331MOL0     O44580   7.768   5.882   9.934 -0.2074  0.1977 -0.6450
  331MOL0     C44581   7.902   5.882   9.905 -0.1246  0.0351 -0.4017
  331MOL0     C44582   7.988   5.803   9.980 -0.0370 -0.3808  0.2847
  331MOL0     C44583   8.122   5.809   9.955  0.0812  0.1380 -0.2650
  331MOL0     C44584   8.174   5.880   9.852 -0.3936 -0.7442 -0.5043
  331MOL0     O44585   8.312   5.867   9.846 -0.2469 -0.2065 -0.2244
  331MOL0     C44586   8.387   5.992   9.850  0.3373  0.1685 -0.1405
  331MOL0     C44587   8.528   5.965   9.788 -0.8141  0.4716 -0.3477
  331MOL0     C44588   8.623   6.078   9.824  0.6730  0.0023 -0.5293
  331MOL0     C44589   8.760   6.068   9.750  0.0304  0.9863 -0.1891
  331MOL0     C44590   8.845   6.195   9.774 -0.1257 -0.1629  0.4013
  331MOL0     C44591   8.966   6.194   9.675 -0.7703  0.6815  1.2633
  331MOL0     C44592   9.064   6.310   9.674 -1.1411 -0.2878 -0.0110
  331MOL0     C44593   8.998   6.445   9.692  0.5716  0.0221 -0.1095
  331MOL0    Cl44594   8.879   6.486   9.569 -0.0371 -0.5581 -0.0392
  331MOL0     C44595   8.083   5.952   9.767  0.2501  0.2669  0.2490
  331MOL0     C44596   7.951   5.952   9.800 -0.5820 -0.4657  0.2220
  331MOL0     O44597   7.713   6.101   9.859  0.0811  0.1875 -0.4316
  331MOL0     C44598   7.499   5.825   9.976 -0.6122  0.1730  0.2987
  331MOL0     C44599   7.364   5.799   9.991  0.5431 -0.1721 -0.2640
  331MOL0     N44600   6.534   5.746   9.850  0.5858  0.2385  0.2558
  331MOL0     N44601   6.494   5.625   9.880  0.3612  0.3345 -0.3126
  331MOL0     C44602   6.797   4.742  10.698 -0.5199 -0.0534 -0.5214
  331MOL0     C44603   6.884   4.667  10.779 -0.6175  0.6016 -0.6889
  331MOL0     C44604   6.991   4.430  11.136 -0.2823 -0.1557 -0.1834
  331MOL0     C44605   7.125   4.400  11.112 -0.0572 -0.4841  0.0353
  331MOL0     C44606   7.202   4.369  11.220 -0.7995 -0.1709  0.4683
  331MOL0     C44607   7.152   4.325  11.343  0.1121 -0.3276 -0.3792
  331MOL0     O44608   7.234   4.277  11.444 -0.6230 -0.4380 -0.0801
  331MOL0     C44609   7.184   4.230  11.562 -0.1552  0.5233 -0.0466
  331MOL0     C44610   7.298   4.192  11.655  0.1910  0.3215 -0.8135
  331MOL0     C44611   7.369   4.310  11.710  0.6632  0.1945  0.1868
  331MOL0     C44612   7.482   4.282  11.819  0.1929 -0.5885 -0.3785
  331MOL0     C44613   7.606   4.215  11.769  0.2616 -0.6148 -0.2398
  331MOL0     C44614   7.706   4.173  11.725  0.1978 -0.4245  0.3255
  331MOL0     C44615   7.009   4.339  11.355  0.2626  0.1480 -0.6141
  331MOL0     C44616   6.933   4.402  11.257 -0.7998  0.0754  0.1463
  331MOL0     C44617   6.780   4.425  11.287 -0.1974 -0.6411 -0.0159
  331MOL0     H44618   6.716   4.368  10.784 -0.2498  1.6479  3.0062
  331MOL0     H44619   6.586   4.488  10.612  0.2350 -0.3857  0.0282
  331MOL0     H44620   6.598   4.933  10.557  0.1577 -1.7107  1.4964
  331MOL0     H44621   6.747   4.877  10.477 -0.3513  2.4060  0.8908
  331MOL0     H44622   6.493   4.809  10.345  0.1405 -1.7207 -0.5057
  331MOL0     H44623   6.665   4.810  10.285  0.2327 -0.5734  1.0838
  331MOL0     H44624   6.474   5.041  10.351  1.3244  0.8878  1.3673
  331MOL0     H44625   6.524   4.994  10.187 -2.4065  1.6317  0.6243
  331MOL0     H44626   6.695   5.123  10.395 -1.1203  0.3300  0.3638
  331MOL0     H44627   6.765   5.030  10.263 -1.2905 -1.8046 -1.0138
  331MOL0     H44628   6.750   5.272  10.205 -1.1382  0.9471 -1.6576
  331MOL0     H44629   6.662   5.165  10.089 -0.9096  1.2105 -0.6231
  331MOL0     H44630   6.454   5.240  10.155  0.1067 -0.1225  0.1837
  331MOL0     H44631   6.518   5.265  10.321 -0.5303  1.7047  0.6260
  331MOL0     H44632   6.613   5.482  10.232  0.7047 -0.3707 -1.2241
  331MOL0     H44633   6.444   5.469  10.182 -1.0548 -1.8203  1.4115
  331MOL0     H44634   6.687   5.387  10.020  0.8481  0.5759  2.2551
  331MOL0     H44635   6.525   5.376   9.963  1.3684 -0.4240 -0.7120
  331MOL0     H44636   6.768   5.653  10.067  1.0552  1.9148 -1.1192
  331MOL0     H44637   6.655   5.975   9.881 -1.0715 -1.2980 -0.6517
  331MOL0     H44638   6.646   5.934  10.052  2.3528  0.5195  1.5895
  331MOL0     H44639   6.890   6.015   9.976  0.9962 -0.1641  0.5553
  331MOL0     H44640   6.875   5.869  10.061 -2.7468 -1.9761 -0.3254
  331MOL0     H44641   6.870   5.898   9.763  1.8431  0.0759 -1.2712
  331MOL0     H44642   6.911   5.744   9.864  0.7507  0.0577 -1.0963
  331MOL0     H44643   7.085   5.979   9.803  0.5885  0.4136  1.0181
  331MOL0     H44644   7.116   5.803   9.774  2.0205  1.5820 -0.5486
  331MOL0     H44645   7.236   6.096   9.894 -0.7249 -0.7595  1.0660
  331MOL0     H44646   7.469   6.153   9.880 -3.1523  0.3277 -1.1472
  331MOL0     H44647   7.947   5.745  10.062  0.1207 -0.1753  0.5107
  331MOL0     H44648   8.195   5.754  10.014  0.4753  0.1392 -0.7421
  331MOL0     H44649   8.345   6.070   9.786  0.8564  0.3520 -0.2654
  331MOL0     H44650   8.395   6.020   9.956  2.7851  0.4168 -0.3313
  331MOL0     H44651   8.566   5.870   9.826 -3.3231 -0.5273 -0.1286
  331MOL0     H44652   8.514   5.965   9.680 -2.1945  2.4967 -0.2201
  331MOL0     H44653   8.575   6.173   9.800  1.0626  1.2591  3.0494
  331MOL0     H44654   8.644   6.079   9.931 -4.1803  0.5841  0.6578
  331MOL0     H44655   8.742   6.059   9.643 -1.3252  2.1341 -0.0981
  331MOL0     H44656   8.824   5.986   9.785 -0.0051  2.1623  3.0139
  331MOL0     H44657   8.875   6.199   9.879  1.0340  0.1107  0.0731
  331MOL0     H44658   8.783   6.284   9.758 -1.1275 -0.7551  0.8826
  331MOL0     H44659   9.024   6.105   9.699 -2.4662 -1.4054 -1.7439
  331MOL0     H44660   8.928   6.182   9.573  0.4081  0.8363  0.7962
  331MOL0     H44661   9.120   6.317   9.581 -0.5022 -0.6559  0.3360
  331MOL0     H44662   9.133   6.298   9.759 -2.7116 -0.9285  1.2278
  331MOL0     H44663   8.960   6.461   9.793 -1.0766  1.3071 -0.8917
  331MOL0     H44664   9.078   6.519   9.676 -0.5039  1.2889  0.1759
  331MOL0     H44665   8.128   5.991   9.677  1.6586 -1.3519  0.1812
  331MOL0     H44666   7.889   6.019   9.739 -1.7602  1.3831  3.2361
  331MOL0     H44667   7.568   5.746  10.003  0.8439  1.6218  1.0088
  331MOL0     H44668   7.335   5.698  10.020  1.7541 -0.2978  0.5989
  331MOL0     H44669   6.829   4.842  10.671 -1.9809  0.2606 -1.1586
  331MOL0     H44670   6.968   4.718  10.825 -0.5105  0.7240 -1.0185
  331MOL0     H44671   7.180   4.415  11.019 -2.4338  0.9633 -1.2275
  331MOL0     H44672   7.305   4.356  11.190 -0.4557  1.8728  0.6048
  331MOL0     H44673   7.123   4.142  11.537 -2.5413  2.8320 -3.1065
  331MOL0     H44674   7.120   4.313  11.594  0.7624  3.0247 -4.0306
  331MOL0     H44675   7.374   4.128  11.611  1.5101  0.3609  1.2651
  331MOL0     H44676   7.273   4.134  11.744 -0.0883 -0.1703 -1.2087
  331MOL0     H44677   7.293   4.380  11.748 -0.1210 -0.7792  0.4686
  331MOL0     H44678   7.411   4.351  11.618 -1.7137 -0.8031 -1.4618
  331MOL0     H44679   7.509   4.378  11.864 -2.5815 -0.3808  1.0929
  331MOL0     H44680   7.437   4.227  11.902  3.1225 -1.8870  0.4630
  331MOL0     H44681   7.797   4.146  11.675  0.3782  1.5159 -0.4797
  331MOL0     H44682   6.955   4.313  11.445 -1.9851  2.1309 -1.2707
  331MOL0     H44683   6.718   4.401  11.200 -1.8853  0.2044  0.9001
  331MOL0     H44684   6.740   4.375  11.376 -2.4656  2.7238  1.0728
  331MOL0     H44685   6.770   4.530  11.315 -1.4049 -1.1333  1.5647
  332MOL0     O44686  10.570   8.712   6.809  0.1480  0.4499 -0.6446
  332MOL0     C44687  10.501   8.610   6.809 -0.3204 -0.2818 -0.1348
  332MOL0     O44688  10.557   8.486   6.781 -0.4395  0.2351  0.1055
  332MOL0     C44689  10.683   8.478   6.726  0.1582 -0.8098 -0.1826
  332MOL0     C44690  10.783   8.411   6.799  0.3965  0.4125  0.3259
  332MOL0     C44691  10.906   8.379   6.736 -0.0705 -0.6672 -0.6428
  332MOL0     C44692  10.941   8.427   6.609 -0.0083 -1.1567  0.0267
  332MOL0     O44693  11.055   8.382   6.559  0.0025 -0.1951  0.2234
  332MOL0     C44694  11.069   8.385   6.419 -0.1923 -0.1732  0.6810
  332MOL0     C44695  11.193   8.309   6.387 -0.4079 -0.0469 -0.1561
  332MOL0     C44696  11.254   8.356   6.259  1.3578 -0.6506 -0.2187
  332MOL0     C44697  11.406   8.323   6.231  0.3005  0.0931  0.5765
  332MOL0     C44698  11.444   8.353   6.082  0.8501  0.2226 -0.6574
  332MOL0     C44699  11.586   8.292   6.060 -0.2373 -0.1567  1.2900
  332MOL0     C44700  11.647   8.291   5.922 -0.1352  0.9193 -0.3686
  332MOL0     C44701  11.633   8.432   5.862 -0.1699 -0.1669 -0.3806
  332MOL0     N44702  11.711   8.458   5.737  0.1904  0.7691 -0.5970
  332MOL0     C44703  11.845   8.447   5.723 -0.0165  0.6449  0.3511
  332MOL0     C44704  11.860   8.507   5.601 -0.6708  0.5080  0.0104
  332MOL0     C44705  11.996   8.529   5.552 -0.5113  0.5828  0.1338
  332MOL0     C44706  12.060   8.652   5.617  0.6046  0.1537 -0.3638
  332MOL0     C44707  12.209   8.658   5.570 -0.1133 -1.0627  0.5658
  332MOL0     C44708  12.286   8.768   5.647  0.0663  0.3839 -0.1617
  332MOL0     O44709  12.367   8.859   5.567  0.0041  0.0657 -0.4289
  332MOL0     C44710  12.482   8.813   5.510  0.2331  0.3181  0.5391
  332MOL0     C44711  12.568   8.911   5.460  0.2000  0.1482  0.0080
  332MOL0     C44712  12.680   8.880   5.392  0.0842 -0.1652  0.0658
  332MOL0     C44713  12.710   8.750   5.368  0.8851  0.5445 -0.1694
  332MOL0     C44714  12.836   8.715   5.287 -0.5145  0.3708  0.0741
  332MOL0     O44715  12.879   8.589   5.296 -0.7539  0.2380 -0.2345
  332MOL0     C44716  12.997   8.555   5.239 -0.7472 -0.5389  0.3615
  332MOL0     C44717  13.116   8.625   5.272  0.2717  0.3551 -0.1721
  332MOL0     C44718  13.238   8.579   5.221  0.1538 -0.2022 -0.3105
  332MOL0     C44719  13.243   8.479   5.119 -0.5236 -0.3830 -0.6217
  332MOL0     O44720  13.364   8.439   5.069  1.1085  0.2863  0.5407
  332MOL0     C44721  13.486   8.464   5.128  0.7611 -1.2726  0.3050
  332MOL0     C44722  13.585   8.359   5.076 -0.1136 -0.4570  0.7298
  332MOL0     C44723  13.684   8.418   4.979 -0.9337  0.5118 -0.1773
  332MOL0     C44724  13.814   8.482   5.035  0.5339  0.0834  0.2784
  332MOL0     C44725  13.912   8.498   4.919 -0.2705  0.2478 -0.6555
  332MOL0     C44726  14.044   8.572   4.957 -0.1056 -0.3464 -0.5102
  332MOL0     C44727  14.113   8.612   4.823  0.1379 -0.1336 -0.4198
  332MOL0     C44728  14.231   8.709   4.855 -0.9900  0.4891 -0.3575
  332MOL0    Cl44729  14.365   8.607   4.934 -0.5023  0.0304 -0.3316
  332MOL0     C44730  13.131   8.407   5.098 -0.0829 -0.0249  0.3948
  332MOL0     C44731  13.009   8.437   5.163 -0.3299 -0.9169  0.1351
  332MOL0     O44732  12.884   8.808   5.220 -0.1571  0.6282 -0.1804
  332MOL0     C44733  12.632   8.651   5.428  0.7168 -0.0780 -0.2817
  332MOL0     C44734  12.520   8.682   5.501  0.8442 -0.4152  0.1420
  332MOL0     N44735  11.746   8.543   5.541  0.9551 -0.2643 -0.0373
  332MOL0     N44736  11.655   8.522   5.630  0.4685 -0.8427  0.1062
  332MOL0     C44737  10.842   8.510   6.546 -0.5208  0.1995  0.6811
  332MOL0     C44738  10.714   8.534   6.603 -0.3684 -0.8896  0.0208
  332MOL0     C44739  10.362   8.634   6.848  1.4526 -0.5793  0.3778
  332MOL0     C44740  10.297   8.536   6.923  0.1522 -0.2856  0.3598
  332MOL0     C44741  10.160   8.555   6.954  0.3959 -0.0676 -0.5515
  332MOL0     C44742  10.087   8.666   6.910  0.4098  0.2839  0.3527
  332MOL0     O44743   9.946   8.685   6.904  0.8385  0.1767 -0.0504
  332MOL0     C44744   9.865   8.600   6.988  0.4599  0.9368 -0.0941
  332MOL0     C44745   9.715   8.650   6.989  0.6642  0.5361  0.0091
  332MOL0     C44746   9.636   8.636   6.850  0.1211  0.5952  0.1238
  332MOL0     C44747   9.499   8.695   6.857  0.1916  0.8533  0.2795
  332MOL0     C44748   9.419   8.613   6.943  0.2875  0.3688 -0.1323
  332MOL0     C44749   9.335   8.542   6.997  0.0864  0.0768 -0.8537
  332MOL0     C44750  10.154   8.764   6.830 -0.6922  0.3153  0.1081
  332MOL0     C44751  10.288   8.745   6.794 -0.3149 -0.1944 -0.5070
  332MOL0     C44752  10.343   8.845   6.697 -0.0581 -0.7037  0.2567
  332MOL0     H44753  10.776   8.383   6.904  5.2257 -0.2511  0.7140
  332MOL0     H44754  10.980   8.324   6.795  0.4351 -0.6653 -1.2590
  332MOL0     H44755  10.987   8.339   6.364  0.4617 -0.5983  0.0429
  332MOL0     H44756  11.078   8.492   6.397  1.5290  0.0730  2.3272
  332MOL0     H44757  11.175   8.201   6.391  0.6243 -0.4836 -3.6742
  332MOL0     H44758  11.269   8.331   6.463  1.0884 -0.6915 -1.4068
  332MOL0     H44759  11.245   8.465   6.253  1.1982 -0.5561  1.4778
  332MOL0     H44760  11.192   8.318   6.177  1.1553 -1.6142  0.3633
  332MOL0     H44761  11.476   8.375   6.297  2.6365  1.6297 -2.7953
  332MOL0     H44762  11.417   8.214   6.234 -1.9120 -0.2071 -0.0350
  332MOL0     H44763  11.372   8.309   6.013  0.3647  2.0119 -1.3421
  332MOL0     H44764  11.439   8.460   6.060 -1.6039  0.6802  1.6253
  332MOL0     H44765  11.661   8.353   6.113  3.0139 -1.7973 -1.0873
  332MOL0     H44766  11.591   8.187   6.089 -0.6314 -0.0642  1.7035
  332MOL0     H44767  11.603   8.209   5.865  2.4563 -0.7772 -0.0617
  332MOL0     H44768  11.753   8.268   5.932 -0.5181 -0.7102  0.3926
  332MOL0     H44769  11.528   8.459   5.849 -0.2061 -1.2076 -2.7313
  332MOL0     H44770  11.678   8.494   5.940 -0.0538 -3.1680  2.1366
  332MOL0     H44771  11.913   8.415   5.802  0.7454  2.4351  0.4521
  332MOL0     H44772  12.053   8.439   5.579 -1.3430 -0.5703 -1.8045
  332MOL0     H44773  11.991   8.534   5.443 -0.2674 -0.1755  0.0818
  332MOL0     H44774  12.004   8.739   5.581 -3.1500 -3.1328 -3.4029
  332MOL0     H44775  12.071   8.626   5.723 -0.9367 -2.7304 -0.8399
  332MOL0     H44776  12.207   8.672   5.461 -2.0728 -1.0476  0.5629
  332MOL0     H44777  12.268   8.569   5.591  2.1126  0.6061  1.8274
  332MOL0     H44778  12.349   8.721   5.723 -0.0857 -0.7856 -0.7462
  332MOL0     H44779  12.214   8.828   5.705  2.5806  2.3454  1.1141
  332MOL0     H44780  12.535   9.015   5.464 -0.0574  0.3253 -3.6017
  332MOL0     H44781  12.745   8.952   5.342  0.4197 -0.8282 -0.4652
  332MOL0     H44782  13.114   8.713   5.336  0.6720 -0.2892  0.7622
  332MOL0     H44783  13.322   8.636   5.261 -0.3727  0.5922 -0.3171
  332MOL0     H44784  13.526   8.565   5.113  1.2780 -1.2013  1.9987
  332MOL0     H44785  13.469   8.459   5.236  0.2355 -2.0478  0.1918
  332MOL0     H44786  13.636   8.308   5.159  0.8180 -2.3930 -0.9346
  332MOL0     H44787  13.537   8.272   5.030 -2.2167  0.5821  0.8193
  332MOL0     H44788  13.713   8.339   4.909 -2.3139  0.1386 -0.3750
  332MOL0     H44789  13.635   8.495   4.918 -0.7933  0.4467 -0.3737
  332MOL0     H44790  13.865   8.423   5.112 -0.9338 -0.0448  1.1849
  332MOL0     H44791  13.798   8.582   5.076  1.1306 -0.3286  1.6040
  332MOL0     H44792  13.862   8.544   4.834 -0.6445 -1.3198 -1.3271
  332MOL0     H44793  13.947   8.396   4.898  2.4793  1.1240 -0.7042
  332MOL0     H44794  14.014   8.661   5.014  0.3969  0.0874 -0.9067
  332MOL0     H44795  14.105   8.512   5.025  1.1098 -2.4419 -3.2792
  332MOL0     H44796  14.048   8.679   4.767  0.2348  3.5404  3.3778
  332MOL0     H44797  14.151   8.527   4.766 -0.6176 -1.1009  0.4698
  332MOL0     H44798  14.270   8.754   4.764 -2.6983 -0.4935 -1.6460
  332MOL0     H44799  14.209   8.788   4.927  0.8140  0.2435  0.5172
  332MOL0     H44800  13.126   8.321   5.032  0.5282 -0.6953  1.2012
  332MOL0     H44801  12.924   8.372   5.143 -0.9376  0.1637 -0.9121
  332MOL0     H44802  12.672   8.552   5.410  0.2100  0.1960 -3.4112
  332MOL0     H44803  12.470   8.597   5.545 -0.4138 -0.9537 -2.1581
  332MOL0     H44804  10.847   8.551   6.445  2.5595 -1.1481  0.1554
  332MOL0     H44805  10.635   8.579   6.545  0.6547  0.1487 -0.6212
  332MOL0     H44806  10.350   8.444   6.945  3.8858  0.9489 -2.4210
  332MOL0     H44807  10.108   8.487   7.019 -0.1687  0.2276 -0.6890
  332MOL0     H44808   9.896   8.593   7.093  0.1600 -2.2863 -0.1321
  332MOL0     H44809   9.860   8.497   6.950 -3.5299  0.7960  0.3818
  332MOL0     H44810   9.718   8.755   7.021 -1.2911  1.0917 -1.4140
  332MOL0     H44811   9.649   8.608   7.065 -2.6612  1.3403 -2.2119
  332MOL0     H44812   9.635   8.531   6.823  1.7483  0.5257  0.2007
  332MOL0     H44813   9.699   8.686   6.775  2.5190 -1.1534  0.8310
  332MOL0     H44814   9.510   8.797   6.894  3.5927  0.6888 -0.0047
  332MOL0     H44815   9.463   8.695   6.753  1.2321 -2.3107 -0.2111
  332MOL0     H44816   9.281   8.472   7.057  1.5423  0.1643  0.6367
  332MOL0     H44817  10.100   8.842   6.778  0.4319 -0.0522 -1.7175
  332MOL0     H44818  10.386   8.784   6.617 -0.8908  0.0539 -0.8066
  332MOL0     H44819  10.267   8.909   6.650  0.2121 -1.3822 -1.1609
  332MOL0     H44820  10.424   8.906   6.740 -0.2460  0.6202 -1.1720
  333MOL0     O44821   4.337   3.026   0.446  0.4704 -0.5468 -0.4141
  333MOL0     C44822   4.287   3.114   0.515 -0.5458 -0.2602 -0.8182
  333MOL0     O44823   4.318   3.247   0.503  0.2007  0.7283  0.5162
  333MOL0     C44824   4.430   3.294   0.431 -0.1015  0.4410  0.2497
  333MOL0     C44825   4.411   3.406   0.348 -0.5895  0.0073 -0.1006
  333MOL0     C44826   4.516   3.447   0.261  0.4826  0.0685 -0.1976
  333MOL0     C44827   4.636   3.376   0.273 -0.8600  0.5175  0.7469
  333MOL0     O44828   4.750   3.399   0.196  0.1500  0.4301 -0.4123
  333MOL0     C44829   4.736   3.504   0.108 -0.5921 -0.6247  0.4963
  333MOL0     C44830   4.867   3.521   0.026 -0.5882 -1.0078 -1.1610
  333MOL0     C44831   4.993   3.539   0.110 -0.6534 -1.4740  0.0498
  333MOL0     C44832   5.116   3.539   0.017 -0.2053  0.1541 -0.1374
  333MOL0     C44833   5.251   3.563   0.082 -0.1076  0.4897 -0.1179
  333MOL0     C44834   5.288   3.448   0.180  0.0379 -0.1514  0.2231
  333MOL0     C44835   5.408   3.482   0.275 -0.7502 -0.7152 -0.4176
  333MOL0     C44836   5.526   3.558   0.211 -0.3421 -0.5007 -0.3881
  333MOL0     N44837   5.629   3.584   0.313  0.1361  0.0871 -0.8229
  333MOL0     C44838   5.648   3.696   0.397  0.1063 -0.2844  1.4004
  333MOL0     C44839   5.756   3.674   0.470 -0.0815  0.6782  0.1579
  333MOL0     C44840   5.791   3.768   0.579 -0.0634  0.1749  0.2784
  333MOL0     C44841   5.941   3.807   0.569  0.0094 -1.1936 -1.2918
  333MOL0     C44842   5.974   3.889   0.449  0.0111 -0.4798  0.2530
  333MOL0     C44843   6.128   3.908   0.444 -0.1901  0.7729  1.0639
  333MOL0     O44844   6.161   3.997   0.559 -0.0720  0.3422 -0.4231
  333MOL0     C44845   6.281   3.986   0.625  0.5477  0.2537  0.2586
  333MOL0     C44846   6.306   4.069   0.729 -0.1702 -0.2205 -0.1468
  333MOL0     C44847   6.427   4.063   0.811 -0.0009  0.4887  0.2356
  333MOL0     C44848   6.528   3.972   0.780 -0.6136 -0.2181 -0.7016
  333MOL0     C44849   6.660   3.960   0.857  0.1206 -0.3070  0.4084
  333MOL0     O44850   6.665   4.022   0.975 -0.8173  0.6794  0.0894
  333MOL0     C44851   6.774   4.000   1.059 -0.0058 -1.1726  0.1842
  333MOL0     C44852   6.764   3.904   1.157  1.0189 -0.3763 -0.5697
  333MOL0     C44853   6.876   3.881   1.242  0.5051 -0.4087  0.2321
  333MOL0     C44854   6.996   3.963   1.231 -0.2115  0.4558 -0.4600
  333MOL0     O44855   7.097   3.931   1.322  0.8795  0.5791  0.0581
  333MOL0     C44856   7.219   4.007   1.312  0.2577 -0.5801 -0.0894
  333MOL0     C44857   7.309   3.954   1.423  0.3396 -0.5521  0.2916
  333MOL0     C44858   7.456   3.981   1.414 -0.0016 -0.3675  0.7267
  333MOL0     C44859   7.480   4.127   1.372  0.0675  0.2711  0.2719
  333MOL0     C44860   7.621   4.181   1.392  0.5537 -0.6191 -1.6074
  333MOL0     C44861   7.650   4.201   1.541 -0.0028 -0.2766 -0.0482
  333MOL0     C44862   7.793   4.245   1.560 -0.1953 -0.4136  0.5352
  333MOL0     C44863   7.899   4.127   1.545 -0.3237 -0.1259  0.3412
  333MOL0    Cl44864   8.066   4.186   1.555  0.1048  0.1387  0.4179
  333MOL0     C44865   7.004   4.068   1.134  0.2595  0.1869  0.3238
  333MOL0     C44866   6.888   4.087   1.054 -0.2429  0.7297 -0.4475
  333MOL0     O44867   6.746   3.885   0.812 -0.2505  0.0195 -0.1921
  333MOL0     C44868   6.503   3.891   0.671  0.6940  0.1557  0.5813
  333MOL0     C44869   6.381   3.898   0.594 -0.1464  0.7324 -0.4565
  333MOL0     N44870   5.802   3.544   0.442  0.9962  1.0085 -0.2328
  333MOL0     N44871   5.734   3.507   0.332  0.3145  1.2627 -1.1814
  333MOL0     C44872   4.647   3.258   0.347 -0.0842  0.4224 -0.2989
  333MOL0     C44873   4.542   3.219   0.421 -0.6398  0.4609 -0.3045
  333MOL0     C44874   4.174   3.073   0.600  0.7401 -0.9100 -0.7089
  333MOL0     C44875   4.091   3.177   0.646 -0.3438 -0.7477  0.6536
  333MOL0     C44876   3.988   3.164   0.737  1.2017  0.5677  0.8712
  333MOL0     C44877   3.978   3.041   0.802 -0.2817 -0.2004 -0.2414
  333MOL0     O44878   3.878   3.017   0.891 -0.4195  0.0254  0.2705
  333MOL0     C44879   3.810   3.124   0.956 -0.8644 -0.0007 -0.0205
  333MOL0     C44880   3.672   3.071   1.016  0.0427  0.1815 -0.7459
  333MOL0     C44881   3.686   3.063   1.167  0.2605 -0.0647 -0.3313
  333MOL0     C44882   3.556   3.037   1.239  0.2443 -0.0497 -0.4243
  333MOL0     C44883   3.478   2.924   1.200 -0.7592  0.5725 -0.0235
  333MOL0     C44884   3.398   2.837   1.172  0.4673  0.4253  0.5569
  333MOL0     C44885   4.051   2.932   0.766  0.0871 -0.1348  0.1457
  333MOL0     C44886   4.159   2.951   0.670  0.2476 -1.2125 -0.0712
  333MOL0     C44887   4.247   2.833   0.651  0.3672  0.3786 -0.0745
  333MOL0     H44888   4.316   3.458   0.344 -0.6048 -0.0139 -0.0257
  333MOL0     H44889   4.505   3.532   0.194  0.8913 -0.8240 -1.4464
  333MOL0     H44890   4.655   3.479   0.039  0.6599 -0.1507 -1.2042
  333MOL0     H44891   4.708   3.594   0.165 -0.6210 -0.1997 -0.1784
  333MOL0     H44892   4.851   3.610  -0.036 -0.5784 -0.0234  0.2049
  333MOL0     H44893   4.875   3.432  -0.037  0.6627 -1.3508 -0.5369
  333MOL0     H44894   4.992   3.473   0.197 -1.1127  0.3214  1.4695
  333MOL0     H44895   4.990   3.642   0.148 -1.4826 -0.8609 -1.5804
  333MOL0     H44896   5.122   3.441  -0.033  0.0093 -0.7259  1.5348
  333MOL0     H44897   5.094   3.615  -0.058 -0.4849 -1.2909 -1.5884
  333MOL0     H44898   5.329   3.577   0.007 -0.1787 -0.0675 -0.3000
  333MOL0     H44899   5.238   3.658   0.136  0.9922  1.4315 -1.4386
  333MOL0     H44900   5.205   3.416   0.243 -1.5119  2.3900 -0.3737
  333MOL0     H44901   5.324   3.372   0.111 -0.6082  0.6719 -1.0565
  333MOL0     H44902   5.444   3.392   0.326  0.5249  0.6910  1.2821
  333MOL0     H44903   5.371   3.547   0.354  1.0020 -0.9557  0.6583
  333MOL0     H44904   5.574   3.487   0.144 -0.7751 -0.7456 -0.4413
  333MOL0     H44905   5.502   3.656   0.167  1.1106  0.1691  0.2293
  333MOL0     H44906   5.591   3.787   0.384  0.3483 -0.3126  0.0308
  333MOL0     H44907   5.726   3.856   0.577  1.5625  1.4457  1.1259
  333MOL0     H44908   5.777   3.712   0.672  0.9097 -2.6623 -1.1669
  333MOL0     H44909   5.982   3.866   0.652  0.9767  0.5970 -2.9508
  333MOL0     H44910   6.003   3.717   0.569  1.2198 -0.3987 -2.4413
  333MOL0     H44911   5.932   3.990   0.449 -2.2520 -1.3430  1.6545
  333MOL0     H44912   5.948   3.845   0.352 -1.0346 -1.9093  1.1507
  333MOL0     H44913   6.151   3.953   0.347 -1.2987  0.0747  0.4476
  333MOL0     H44914   6.185   3.814   0.441  1.7698  1.9301 -0.4148
  333MOL0     H44915   6.226   4.141   0.745 -1.3659 -1.1174 -1.7597
  333MOL0     H44916   6.444   4.134   0.891  0.6198  2.2445 -1.3751
  333MOL0     H44917   6.672   3.847   1.171  0.1080  1.1487 -0.1660
  333MOL0     H44918   6.881   3.796   1.310  2.1926 -2.0663 -1.8266
  333MOL0     H44919   7.256   3.981   1.213 -1.2252 -1.6246 -0.3925
  333MOL0     H44920   7.208   4.114   1.331  1.0204 -0.7490  1.5110
  333MOL0     H44921   7.268   3.990   1.518 -1.8196  0.1214 -0.8181
  333MOL0     H44922   7.303   3.845   1.426 -1.9901 -0.5667 -1.5759
  333MOL0     H44923   7.500   3.960   1.512  0.3567 -1.3212  0.3758
  333MOL0     H44924   7.498   3.918   1.335 -2.1068  1.4624 -2.0636
  333MOL0     H44925   7.406   4.197   1.409 -0.6833 -0.6697  0.5953
  333MOL0     H44926   7.456   4.114   1.266 -0.7598 -1.4894  0.6457
  333MOL0     H44927   7.630   4.271   1.330 -1.3279  0.4632 -0.4216
  333MOL0     H44928   7.680   4.097   1.354  0.5167 -2.3165  1.7370
  333MOL0     H44929   7.584   4.283   1.574  1.0734  0.0620  1.3433
  333MOL0     H44930   7.626   4.115   1.605  3.6709 -2.4343 -1.2780
  333MOL0     H44931   7.803   4.304   1.651 -1.6565 -1.3015  1.3003
  333MOL0     H44932   7.818   4.320   1.484 -1.1005 -0.2125  0.4268
  333MOL0     H44933   7.888   4.056   1.628  0.3262 -0.2431  0.3366
  333MOL0     H44934   7.878   4.074   1.452  1.4263 -1.9500  0.9148
  333MOL0     H44935   7.093   4.125   1.111  0.3913  0.7293  2.0848
  333MOL0     H44936   6.887   4.150   0.966  1.7418 -0.6849 -1.5741
  333MOL0     H44937   6.581   3.821   0.642  0.7932  1.4043 -2.5837
  333MOL0     H44938   6.370   3.822   0.517  0.8720  0.5273 -0.4166
  333MOL0     H44939   4.735   3.195   0.347 -0.7216 -0.4845  0.0943
  333MOL0     H44940   4.569   3.133   0.482  0.9482  1.2649  0.2075
  333MOL0     H44941   4.102   3.278   0.607  0.1457 -0.7894  0.6896
  333MOL0     H44942   3.935   3.257   0.754 -1.7445 -1.2166  2.2055
  333MOL0     H44943   3.788   3.208   0.890  0.5868  1.4814  1.3086
  333MOL0     H44944   3.874   3.164   1.035 -1.5616 -0.5852  0.8743
  333MOL0     H44945   3.654   2.968   0.983  2.0948  0.0860 -1.7157
  333MOL0     H44946   3.587   3.135   0.991 -0.0924  0.3647  0.1746
  333MOL0     H44947   3.735   3.152   1.208  2.0335 -0.7212 -0.9198
  333MOL0     H44948   3.764   2.989   1.186  0.2302 -0.0741 -0.2427
  333MOL0     H44949   3.584   3.032   1.344  2.8148  5.5191 -0.4801
  333MOL0     H44950   3.494   3.127   1.237 -0.1714 -0.3286 -0.2472
  333MOL0     H44951   3.339   2.752   1.143 -0.6653  0.8818  1.4382
  333MOL0     H44952   4.041   2.844   0.829  0.3531 -0.8516 -0.7979
  333MOL0     H44953   4.351   2.864   0.665  0.6794  0.3436 -2.0382
  333MOL0     H44954   4.223   2.744   0.710 -1.4923  0.3030 -0.8957
  333MOL0     H44955   4.243   2.809   0.545  4.3177  0.0825 -0.3278
  334MOL0     O44956  10.937   3.235   8.953 -0.0858 -0.6556 -0.2817
  334MOL0     C44957  10.954   3.351   8.991  0.0723 -0.8901 -0.4150
  334MOL0     O44958  11.053   3.435   8.954  0.5954  0.1231 -0.4352
  334MOL0     C44959  11.158   3.395   8.886  0.1623  0.2071  0.1974
  334MOL0     C44960  11.216   3.264   8.858 -0.3976 -0.2842 -0.6123
  334MOL0     C44961  11.335   3.253   8.785  0.9150 -0.2655 -0.5643
  334MOL0     C44962  11.411   3.369   8.749 -0.2116  0.1222 -0.5021
  334MOL0     O44963  11.538   3.378   8.698 -0.2758 -0.0404 -0.2582
  334MOL0     C44964  11.608   3.248   8.701 -0.5477  0.4353 -0.7039
  334MOL0     C44965  11.748   3.245   8.650 -0.2203 -0.1513 -0.5004
  334MOL0     C44966  11.770   3.331   8.519 -0.3840 -0.1367 -0.3195
  334MOL0     C44967  11.894   3.283   8.447 -0.1696 -0.4282 -0.3340
  334MOL0     C44968  11.949   3.383   8.351 -0.5966  0.4868 -0.4608
  334MOL0     C44969  12.088   3.334   8.292 -0.3042  0.0946 -0.3924
  334MOL0     C44970  12.142   3.434   8.199 -0.1617  0.1993  0.1711
  334MOL0     C44971  12.070   3.416   8.056 -0.9022 -0.8156 -0.3212
  334MOL0     N44972  12.155   3.336   7.979 -0.6542 -0.2633  0.8645
  334MOL0     C44973  12.127   3.211   7.943  0.0772 -0.0179 -0.6734
  334MOL0     C44974  12.238   3.160   7.877  0.7246  0.5814 -0.5537
  334MOL0     C44975  12.241   3.039   7.795 -0.3343 -0.9603 -0.3114
  334MOL0     C44976  12.379   2.999   7.759 -0.2121  0.0379  1.3965
  334MOL0     C44977  12.402   2.848   7.745  1.0230  0.1777 -0.0357
  334MOL0     C44978  12.551   2.820   7.712  0.4819  0.8534 -0.0184
  334MOL0     O44979  12.611   2.828   7.838  0.6309  0.2819 -1.1912
  334MOL0     C44980  12.745   2.829   7.846 -0.5064 -0.3417 -0.1141
  334MOL0     C44981  12.793   2.879   7.971  0.0700  0.2875  0.3180
  334MOL0     C44982  12.926   2.887   7.992 -0.2059  0.1245  0.8241
  334MOL0     C44983  13.021   2.844   7.892  0.3938 -0.1948 -0.6487
  334MOL0     C44984  13.164   2.863   7.921 -0.4714  0.5221 -0.6122
  334MOL0     O44985  13.203   2.890   8.042  0.3467  0.4059  0.2618
  334MOL0     C44986  13.331   2.921   8.074 -0.3431 -0.0504  0.5950
  334MOL0     C44987  13.447   2.936   7.993 -0.0090  0.0547  0.2363
  334MOL0     C44988  13.570   2.979   8.049 -0.1017  0.4886  0.0871
  334MOL0     C44989  13.572   3.015   8.178 -0.7964  0.1097  0.4211
  334MOL0     O44990  13.684   3.066   8.240  0.4803 -0.1193 -0.3283
  334MOL0     C44991  13.802   2.978   8.230 -0.4091  0.1935  0.0766
  334MOL0     C44992  13.917   3.043   8.305 -0.3221  0.3624  0.2035
  334MOL0     C44993  14.041   2.965   8.312  0.3750 -0.0890 -0.4582
  334MOL0     C44994  14.079   2.910   8.170 -0.1123 -0.0781  0.1757
  334MOL0     C44995  14.232   2.911   8.145  0.4648  0.4639  0.0819
  334MOL0     C44996  14.303   2.814   8.232  0.0239 -0.4364 -0.3058
  334MOL0     C44997  14.451   2.846   8.238 -0.7566  0.9719  1.1328
  334MOL0     C44998  14.522   2.789   8.112  0.8037  0.2703  0.4692
  334MOL0    Cl44999  14.699   2.763   8.150  0.2604 -0.0653  0.0739
  334MOL0     C45000  13.460   2.978   8.266  0.4968 -0.2863 -0.2982
  334MOL0     C45001  13.346   2.937   8.211  0.3392  1.1777 -0.1340
  334MOL0     O45002  13.240   2.840   7.828 -0.8004  0.5301 -0.9920
  334MOL0     C45003  12.973   2.805   7.763 -0.8196 -0.2506  0.8285
  334MOL0     C45004  12.836   2.792   7.746  0.5479  0.2529  0.1596
  334MOL0     N45005  12.326   3.263   7.875 -0.8860 -0.3530 -0.2756
  334MOL0     N45006  12.276   3.368   7.932  0.4219 -0.1100 -0.3335
  334MOL0     C45007  11.353   3.495   8.779  0.8398  0.8254  0.1280
  334MOL0     C45008  11.230   3.506   8.844  0.5999 -0.0298  0.9281
  334MOL0     C45009  10.844   3.407   9.073  0.1665  0.2470 -0.2403
  334MOL0     C45010  10.853   3.540   9.125 -0.1814 -0.4065  0.9685
  334MOL0     C45011  10.749   3.601   9.197 -0.5699 -0.4160  0.5533
  334MOL0     C45012  10.624   3.539   9.205 -0.3342 -0.5211  0.2223
  334MOL0     O45013  10.521   3.589   9.274  0.2118  0.3968 -0.2569
  334MOL0     C45014  10.503   3.731   9.291 -0.2599  0.0457  0.4019
  334MOL0     C45015  10.452   3.783   9.156 -0.1607 -0.2709 -0.1160
  334MOL0     C45016  10.310   3.737   9.128  0.4333  0.2141  0.4607
  334MOL0     C45017  10.258   3.802   8.998 -0.3426 -0.0642  0.0706
  334MOL0     C45018  10.134   3.735   8.950  0.7359 -0.6162  1.2506
  334MOL0     C45019  10.044   3.673   8.909  0.4155 -0.6106  0.2436
  334MOL0     C45020  10.615   3.411   9.148 -0.0976  0.2909  0.8609
  334MOL0     C45021  10.725   3.337   9.093  0.2735 -0.3057  0.0039
  334MOL0     C45022  10.688   3.195   9.052  0.8683  0.4681 -0.5527
  334MOL0     H45023  11.173   3.171   8.893  0.6641 -0.0063  1.6511
  334MOL0     H45024  11.357   3.150   8.757  0.1104 -0.4593 -0.5038
  334MOL0     H45025  11.620   3.210   8.803  3.1327  1.8696 -0.4412
  334MOL0     H45026  11.551   3.177   8.642 -0.6648 -0.6338  0.6500
  334MOL0     H45027  11.781   3.142   8.630 -3.3864 -1.5317  0.6493
  334MOL0     H45028  11.816   3.290   8.722  0.0639 -0.8644 -0.3110
  334MOL0     H45029  11.762   3.434   8.555 -1.3886 -0.4631  0.4281
  334MOL0     H45030  11.683   3.316   8.454 -1.2730 -0.6308  0.9381
  334MOL0     H45031  11.972   3.262   8.521 -2.5080  1.5937  2.9531
  334MOL0     H45032  11.875   3.190   8.392 -0.6524  0.6391 -2.0469
  334MOL0     H45033  11.882   3.392   8.265 -1.4042 -0.2373  0.0821
  334MOL0     H45034  11.961   3.482   8.398 -0.6591 -0.5197  1.8283
  334MOL0     H45035  12.155   3.322   8.377  0.5801 -0.1310 -1.1097
  334MOL0     H45036  12.083   3.237   8.242  1.6412 -0.1265 -0.2377
  334MOL0     H45037  12.247   3.415   8.173 -0.3265  2.5136 -2.7638
  334MOL0     H45038  12.136   3.540   8.227  1.6848 -0.2293  2.5224
  334MOL0     H45039  11.972   3.369   8.068 -2.4893  2.0575 -1.1711
  334MOL0     H45040  12.057   3.510   8.002  0.4838 -1.2153 -1.4218
  334MOL0     H45041  12.032   3.159   7.947  1.3846 -2.5131  0.3074
  334MOL0     H45042  12.194   2.968   7.864  0.0530  2.3776  3.7590
  334MOL0     H45043  12.180   3.047   7.704  0.6215 -1.2110 -0.9996
  334MOL0     H45044  12.407   3.045   7.664 -1.6293 -0.2411  0.8161
  334MOL0     H45045  12.454   3.019   7.835  1.0636  0.3612  0.0971
  334MOL0     H45046  12.340   2.808   7.665  1.2525 -1.5991  0.6463
  334MOL0     H45047  12.365   2.796   7.833 -2.5233  2.9340  0.3452
  334MOL0     H45048  12.581   2.901   7.645 -0.9531  2.7521  1.4920
  334MOL0     H45049  12.566   2.727   7.657 -1.2196  1.1500 -1.0569
  334MOL0     H45050  12.727   2.922   8.045 -2.2219 -1.8187 -0.4011
  334MOL0     H45051  12.959   2.920   8.091 -0.5032  3.3124 -0.0246
  334MOL0     H45052  13.456   2.919   7.886 -1.7886  3.5186 -0.6203
  334MOL0     H45053  13.655   3.010   7.991  0.2383  1.4863  1.0876
  334MOL0     H45054  13.787   2.877   8.269  3.6113 -1.4426 -2.0886
  334MOL0     H45055  13.826   2.966   8.125  1.3433  1.5491  0.2795
  334MOL0     H45056  13.931   3.144   8.265 -1.0002  0.0540 -0.8335
  334MOL0     H45057  13.893   3.071   8.408  0.4875 -1.4119  0.9316
  334MOL0     H45058  14.104   3.052   8.333  0.0207 -0.1927  1.0997
  334MOL0     H45059  14.041   2.891   8.393 -5.3763  1.6116  1.5621
  334MOL0     H45060  14.048   2.975   8.088  0.1901  0.1557  0.2446
  334MOL0     H45061  14.043   2.809   8.154  1.4587 -0.3110 -2.4501
  334MOL0     H45062  14.286   3.004   8.167  1.7602 -0.8523  3.1600
  334MOL0     H45063  14.248   2.878   8.042  2.9790  2.7828 -0.4026
  334MOL0     H45064  14.268   2.829   8.335 -1.2991 -1.9117 -0.5102
  334MOL0     H45065  14.283   2.709   8.211  1.9115 -1.2236  1.5054
  334MOL0     H45066  14.493   2.797   8.326 -0.0273  2.0063  1.3762
  334MOL0     H45067  14.474   2.952   8.251 -0.3244  0.9366  0.6761
  334MOL0     H45068  14.494   2.685   8.095 -0.4408  0.4776  1.1314
  334MOL0     H45069  14.507   2.845   8.019  0.9997 -0.9214 -0.2978
  334MOL0     H45070  13.468   2.984   8.374  2.3964 -2.1296 -0.2505
  334MOL0     H45071  13.271   2.917   8.286 -1.2481  0.7423 -1.7468
  334MOL0     H45072  13.042   2.776   7.685 -1.8771 -1.7142  0.3890
  334MOL0     H45073  12.794   2.749   7.656  0.4688  0.2338  0.2052
  334MOL0     H45074  11.392   3.590   8.742  0.6492  0.6305 -0.5924
  334MOL0     H45075  11.193   3.602   8.878  0.4498  0.1982  0.1308
  334MOL0     H45076  10.947   3.594   9.123 -0.9531  1.0018 -1.4711
  334MOL0     H45077  10.762   3.693   9.254  1.6375 -1.1103  1.2991
  334MOL0     H45078  10.596   3.780   9.320 -1.8157  1.0938  4.2370
  334MOL0     H45079  10.429   3.744   9.371 -0.2084  1.2460  0.2637
  334MOL0     H45080  10.514   3.773   9.066 -2.4381 -0.2562 -1.7778
  334MOL0     H45081  10.449   3.890   9.177 -1.6687 -0.6577  1.9850
  334MOL0     H45082  10.245   3.775   9.207 -1.7336 -0.7587 -0.7874
  334MOL0     H45083  10.308   3.628   9.112 -4.1737 -0.2308  2.6932
  334MOL0     H45084  10.231   3.905   9.021  1.1016  0.2055  0.6717
  334MOL0     H45085  10.331   3.799   8.917  1.9419  0.1365  2.0159
  334MOL0     H45086   9.961   3.611   8.884  0.6022 -0.9396  0.4245
  334MOL0     H45087  10.512   3.379   9.150  0.4192 -2.3049 -3.1327
  334MOL0     H45088  10.765   3.122   9.078  1.3723  0.8146 -1.0521
  334MOL0     H45089  10.600   3.169   9.112  2.3882  0.9502  1.9927
  334MOL0     H45090  10.671   3.191   8.944 -4.2553 -0.9885  0.0120
  335MOL0     O45091   0.974   5.480   3.100 -0.0368  0.0752  0.1409
  335MOL0     C45092   0.999   5.546   3.199 -0.0296 -0.0937 -0.2166
  335MOL0     O45093   1.121   5.581   3.247  0.4589  0.1244 -0.2994
  335MOL0     C45094   1.223   5.548   3.171 -0.4063  0.3526  0.9951
  335MOL0     C45095   1.233   5.549   3.031  0.2693 -1.2492  0.9134
  335MOL0     C45096   1.356   5.511   2.973 -0.8942 -0.4692 -0.0352
  335MOL0     C45097   1.468   5.470   3.046  0.1383 -0.1373 -0.0881
  335MOL0     O45098   1.594   5.442   2.987  0.7602 -0.0885 -0.0626
  335MOL0     C45099   1.706   5.403   3.068  0.1532 -0.0888 -0.0724
  335MOL0     C45100   1.824   5.354   2.985  0.4170  1.0173 -1.0332
  335MOL0     C45101   1.957   5.341   3.068  0.2188  0.4441 -0.4251
  335MOL0     C45102   2.067   5.310   2.975 -0.4140 -1.2717  0.1652
  335MOL0     C45103   2.209   5.321   3.039  0.3982  0.1679  0.1508
  335MOL0     C45104   2.242   5.458   3.107 -0.2088 -0.0293  0.1356
  335MOL0     C45105   2.203   5.578   3.022  1.0573  0.4000  0.1974
  335MOL0     C45106   2.295   5.700   3.050  0.4489 -0.2476  0.3163
  335MOL0     N45107   2.312   5.726   3.195  0.2655 -0.2588 -0.5965
  335MOL0     C45108   2.213   5.756   3.279 -0.3024 -0.5705 -0.4940
  335MOL0     C45109   2.270   5.771   3.407  0.4302 -0.7114 -0.0771
  335MOL0     C45110   2.194   5.795   3.536  0.6996 -0.0383  0.2872
  335MOL0     C45111   2.072   5.699   3.538 -0.0138 -0.0986  0.1163
  335MOL0     C45112   1.981   5.722   3.658  0.5685 -0.6381  0.3693
  335MOL0     C45113   1.866   5.624   3.659  0.1936  0.2754  0.0950
  335MOL0     O45114   1.776   5.629   3.537 -0.2409  0.0759 -0.1319
  335MOL0     C45115   1.638   5.634   3.565 -0.5073  0.6380 -0.6625
  335MOL0     C45116   1.587   5.576   3.680 -0.2962 -0.5559  0.0857
  335MOL0     C45117   1.455   5.607   3.712  0.1198  0.3511 -0.3425
  335MOL0     C45118   1.377   5.696   3.638 -0.3480  0.0559  0.3739
  335MOL0     C45119   1.241   5.742   3.690 -0.7985 -1.1474  0.1963
  335MOL0     O45120   1.198   5.673   3.798  0.2052  0.1729  0.4028
  335MOL0     C45121   1.067   5.699   3.841  0.1504 -0.7467 -0.6221
  335MOL0     C45122   0.956   5.672   3.762 -0.3921 -0.7666  0.3120
  335MOL0     C45123   0.819   5.687   3.809 -0.6177 -0.4218 -0.6763
  335MOL0     C45124   0.794   5.738   3.940 -0.2663  0.8095 -0.5308
  335MOL0     O45125   0.671   5.743   4.003 -0.3729 -0.3504 -0.0869
  335MOL0     C45126   0.568   5.661   3.971  0.1828 -0.4434 -0.1226
  335MOL0     C45127   0.465   5.685   4.078  0.2323  0.1043 -0.2165
  335MOL0     C45128   0.344   5.599   4.063  0.1269 -0.1274 -0.1680
  335MOL0     C45129   0.238   5.604   4.173  0.8155 -0.1985  0.4475
  335MOL0     C45130   0.128   5.505   4.150 -0.1291  0.4139  0.1586
  335MOL0     C45131   0.011   5.523   4.240 -0.2331 -0.9950  0.4360
  335MOL0     C45132  -0.085   5.400   4.256  0.2761  0.5309 -0.4513
  335MOL0     C45133  -0.124   5.327   4.123  0.3024  0.6543  0.5435
  335MOL0    Cl45134  -0.226   5.451   4.027  0.1970  0.2768 -0.3447
  335MOL0     C45135   0.902   5.751   4.022  0.0858  0.6005  0.2193
  335MOL0     C45136   1.036   5.729   3.981 -0.4610  0.2559 -0.6748
  335MOL0     O45137   1.181   5.834   3.637 -0.1829  0.2505 -0.1275
  335MOL0     C45138   1.433   5.749   3.524  0.2362  0.0275 -0.3408
  335MOL0     C45139   1.563   5.714   3.487  0.3957  0.0534  0.7564
  335MOL0     N45140   2.405   5.751   3.389  0.2042 -0.6779  0.0845
  335MOL0     N45141   2.433   5.736   3.260  0.2811 -0.1626 -0.8008
  335MOL0     C45142   1.460   5.481   3.185  0.4731  0.1127 -0.1531
  335MOL0     C45143   1.340   5.522   3.240 -0.4876  0.4271 -0.5359
  335MOL0     C45144   0.883   5.604   3.271  0.9650  0.3383 -0.0799
  335MOL0     C45145   0.913   5.675   3.382 -0.7211  0.1154 -0.6657
  335MOL0     C45146   0.811   5.739   3.456 -0.2798  0.3953  0.1599
  335MOL0     C45147   0.670   5.727   3.426  0.3635 -1.3541  0.5160
  335MOL0     O45148   0.576   5.775   3.509  0.0612 -0.0958  0.3079
  335MOL0     C45149   0.433   5.764   3.468 -0.1593  0.8780 -1.6181
  335MOL0     C45150   0.403   5.869   3.364  0.2096  0.3282 -0.6591
  335MOL0     C45151   0.265   5.843   3.303 -0.3143 -0.0316 -0.8488
  335MOL0     C45152   0.149   5.841   3.405 -0.2903 -0.8895  0.1881
  335MOL0     C45153   0.015   5.846   3.329  0.0872 -0.1946  0.7044
  335MOL0     C45154  -0.092   5.850   3.286  1.0161 -0.2876  1.2180
  335MOL0     C45155   0.645   5.646   3.311 -1.0422 -0.3600 -0.1398
  335MOL0     C45156   0.743   5.585   3.232 -0.4230 -0.2700  0.6998
  335MOL0     C45157   0.692   5.507   3.111  0.3209 -0.2525 -0.2817
  335MOL0     H45158   1.156   5.575   2.959  1.8734 -2.7826 -1.5418
  335MOL0     H45159   1.364   5.507   2.865  2.8116  2.5789 -0.0760
  335MOL0     H45160   1.744   5.483   3.132  1.6466 -1.6187  1.0331
  335MOL0     H45161   1.672   5.323   3.135 -0.8354 -1.0616 -1.6519
  335MOL0     H45162   1.838   5.413   2.893 -0.1192  0.2137 -1.6482
  335MOL0     H45163   1.809   5.255   2.940  1.4200 -0.3799  1.4976
  335MOL0     H45164   1.936   5.254   3.131  1.6538  2.3095  2.8636
  335MOL0     H45165   1.974   5.429   3.130 -0.3832 -0.8045  1.6085
  335MOL0     H45166   2.059   5.205   2.942 -0.9239 -1.7974  1.8894
  335MOL0     H45167   2.066   5.381   2.891  0.1248 -1.0685  0.3226
  335MOL0     H45168   2.215   5.242   3.115 -3.1604  0.4510  0.8752
  335MOL0     H45169   2.282   5.302   2.960  1.1902  1.0119  0.6594
  335MOL0     H45170   2.178   5.457   3.195 -0.1976  0.1099  0.1458
  335MOL0     H45171   2.348   5.468   3.135 -0.8543  1.7436  2.2295
  335MOL0     H45172   2.095   5.595   3.031  1.3098  1.0246  2.5349
  335MOL0     H45173   2.220   5.550   2.918 -2.9096  1.2954 -0.8578
  335MOL0     H45174   2.397   5.682   3.017  1.1793 -0.3195  2.4951
  335MOL0     H45175   2.254   5.791   3.003  0.7244 -1.0763 -1.6085
  335MOL0     H45176   2.110   5.780   3.255  0.3987  0.0631 -3.0996
  335MOL0     H45177   2.255   5.777   3.625 -0.3629 -3.0494  0.5387
  335MOL0     H45178   2.153   5.896   3.524 -0.8759 -0.6346  0.3455
  335MOL0     H45179   2.006   5.720   3.454 -0.7001  0.2712  0.7318
  335MOL0     H45180   2.104   5.595   3.528  2.9534  0.8691 -1.7065
  335MOL0     H45181   1.933   5.820   3.652  0.4828 -0.6461  0.9497
  335MOL0     H45182   2.044   5.727   3.747 -1.7293 -2.1389  2.1792
  335MOL0     H45183   1.812   5.653   3.750  2.1136 -0.1540  1.4416
  335MOL0     H45184   1.891   5.521   3.685 -3.1739 -0.4610  0.8824
  335MOL0     H45185   1.650   5.522   3.749  2.1916  0.4526 -1.2789
  335MOL0     H45186   1.409   5.572   3.804 -1.9815 -1.2594 -1.9243
  335MOL0     H45187   0.970   5.642   3.659 -1.1042  1.0767 -0.3721
  335MOL0     H45188   0.739   5.671   3.737 -0.5493 -2.0922 -0.4081
  335MOL0     H45189   0.525   5.689   3.874 -2.3878 -1.9374  0.4852
  335MOL0     H45190   0.603   5.558   3.972  3.2952  0.5352  0.1145
  335MOL0     H45191   0.508   5.661   4.175 -1.1435  0.3267  0.4692
  335MOL0     H45192   0.432   5.788   4.089 -1.6410 -0.3602 -1.1050
  335MOL0     H45193   0.291   5.629   3.972 -0.8901 -2.9174 -0.6157
  335MOL0     H45194   0.378   5.496   4.046  0.5557 -0.1808  0.9640
  335MOL0     H45195   0.199   5.706   4.166  2.1952  0.4630  1.6933
  335MOL0     H45196   0.281   5.578   4.270 -1.3983 -2.1561  0.9844
  335MOL0     H45197   0.170   5.404   4.151 -0.7926  0.1235 -0.0446
  335MOL0     H45198   0.099   5.521   4.045 -0.4870 -2.0835 -0.1808
  335MOL0     H45199   0.047   5.537   4.342 -1.3666 -0.4551  0.7771
  335MOL0     H45200  -0.048   5.611   4.214 -0.0152 -0.4225  1.8361
  335MOL0     H45201  -0.180   5.435   4.297  0.6587 -0.3113  1.2414
  335MOL0     H45202  -0.046   5.329   4.329 -0.3638  0.5882 -0.0490
  335MOL0     H45203  -0.037   5.291   4.067 -0.5806 -1.3201  0.3715
  335MOL0     H45204  -0.183   5.237   4.143  3.1242 -0.9561  2.3364
  335MOL0     H45205   0.884   5.774   4.127 -3.1139 -0.2671 -0.0370
  335MOL0     H45206   1.111   5.720   4.059  0.0555  1.2523 -1.0407
  335MOL0     H45207   1.376   5.817   3.462 -0.1874 -1.6935 -1.9412
  335MOL0     H45208   1.611   5.768   3.405 -0.7858 -0.1598 -0.1067
  335MOL0     H45209   1.548   5.463   3.247  0.1977  0.7499  0.4401
  335MOL0     H45210   1.335   5.519   3.348  0.9691  1.3803 -0.4174
  335MOL0     H45211   1.011   5.705   3.416 -1.3395  2.0930 -0.5141
  335MOL0     H45212   0.844   5.792   3.545  0.6464 -0.1288  0.1410
  335MOL0     H45213   0.366   5.786   3.552  0.2946  1.0668 -1.3033
  335MOL0     H45214   0.405   5.664   3.433  1.4826 -0.1873 -0.0369
  335MOL0     H45215   0.474   5.882   3.283 -0.9380  1.8110 -1.4675
  335MOL0     H45216   0.401   5.966   3.414 -1.4428  1.3985 -2.6719
  335MOL0     H45217   0.252   5.757   3.236  0.0245 -0.0700 -0.8639
  335MOL0     H45218   0.244   5.932   3.243  1.7467  2.6315  2.0513
  335MOL0     H45219   0.149   5.749   3.464  1.6055  0.5071  2.4919
  335MOL0     H45220   0.166   5.934   3.460  1.2710  0.8518 -2.9762
  335MOL0     H45221  -0.189   5.873   3.247  0.9316 -2.1093  0.2788
  335MOL0     H45222   0.541   5.636   3.283 -0.4181 -2.2081 -2.0957
  335MOL0     H45223   0.584   5.497   3.102  0.5958 -3.1322 -1.1369
  335MOL0     H45224   0.720   5.551   3.015  0.7220 -2.2477 -1.1172
  335MOL0     H45225   0.734   5.407   3.121  0.0269 -0.3368  0.1384
  336MOL0     O45226   2.845   2.126   2.368 -0.6557  0.5112  0.1384
  336MOL0     C45227   2.887   2.233   2.411  1.0841  0.1446 -0.6203
  336MOL0     O45228   3.015   2.265   2.448 -0.0167 -1.1237 -0.0166
  336MOL0     C45229   3.126   2.190   2.421 -0.6713  0.3969  0.4128
  336MOL0     C45230   3.143   2.127   2.297 -0.3722 -0.4050 -0.9109
  336MOL0     C45231   3.240   2.033   2.281 -0.0196  0.8446  0.4146
  336MOL0     C45232   3.314   1.988   2.388  0.3719  0.1312 -0.2271
  336MOL0     O45233   3.383   1.871   2.384  0.3146  0.1828  0.6137
  336MOL0     C45234   3.484   1.854   2.281 -0.0840 -0.8586  0.0548
  336MOL0     C45235   3.600   1.776   2.352 -0.8044 -0.2950  0.5836
  336MOL0     C45236   3.668   1.857   2.463 -0.0590  0.9536 -0.6425
  336MOL0     C45237   3.745   1.774   2.574 -0.0571  0.7974 -0.6789
  336MOL0     C45238   3.823   1.659   2.531 -0.2334  0.1449 -0.4923
  336MOL0     C45239   3.884   1.595   2.664 -0.0318 -0.1158  0.4926
  336MOL0     C45240   3.966   1.465   2.655  0.5180  0.5902 -0.0138
  336MOL0     C45241   4.072   1.487   2.543 -0.1619 -0.1545  0.2391
  336MOL0     N45242   4.160   1.602   2.565 -0.1095 -0.0700  0.2289
  336MOL0     C45243   4.252   1.623   2.675  0.4063 -0.0902  0.0827
  336MOL0     C45244   4.305   1.744   2.646 -0.1912  0.6118 -0.2691
  336MOL0     C45245   4.397   1.797   2.742 -0.2541  0.6981 -0.6086
  336MOL0     C45246   4.534   1.731   2.730  0.4988  0.1077  0.2771
  336MOL0     C45247   4.617   1.772   2.857  0.3655 -0.1484  0.4365
  336MOL0     C45248   4.758   1.731   2.828 -0.2256  0.2610  0.1027
  336MOL0     O45249   4.826   1.845   2.776  0.4505 -0.3239 -0.3231
  336MOL0     C45250   4.959   1.853   2.790 -1.0435  0.8002 -0.8343
  336MOL0     C45251   5.040   1.759   2.850 -1.1835  0.4304 -0.0348
  336MOL0     C45252   5.175   1.781   2.869 -0.2931 -0.2497 -0.3527
  336MOL0     C45253   5.238   1.901   2.823  0.3883  0.1606 -0.2000
  336MOL0     C45254   5.373   1.938   2.868 -1.4176  0.2987  0.7026
  336MOL0     O45255   5.443   1.848   2.941 -0.7089  0.1233  0.0024
  336MOL0     C45256   5.571   1.888   2.965 -0.2955 -0.5749 -0.6637
  336MOL0     C45257   5.671   1.919   2.872  0.0784 -0.2435 -0.8439
  336MOL0     C45258   5.805   1.925   2.919  0.0937  0.2038  1.0573
  336MOL0     C45259   5.833   1.911   3.057 -0.0676 -0.3069 -0.1901
  336MOL0     O45260   5.959   1.903   3.116  0.2331  0.1738 -0.0377
  336MOL0     C45261   6.080   1.904   3.040 -0.9775  0.0537 -0.0813
  336MOL0     C45262   6.194   1.965   3.114  0.0136  0.1436  0.7858
  336MOL0     C45263   6.325   1.943   3.046 -0.9470  0.1344  0.0022
  336MOL0     C45264   6.444   1.986   3.130  0.0232  0.0908  0.0380
  336MOL0     C45265   6.582   1.959   3.058 -0.0789 -0.0785 -0.8781
  336MOL0     C45266   6.612   1.817   3.017  0.2466  0.0502 -0.0200
  336MOL0     C45267   6.772   1.789   3.018  0.0990  0.2947  0.4325
  336MOL0     C45268   6.796   1.649   2.985 -0.2556  0.7571  0.1485
  336MOL0    Cl45269   6.962   1.607   2.997 -0.0896 -0.2811  0.3316
  336MOL0     C45270   5.726   1.903   3.146  0.3898  0.0122 -0.0858
  336MOL0     C45271   5.598   1.888   3.103  0.4375  1.0714  0.0301
  336MOL0     O45272   5.412   2.051   2.842 -0.4333 -0.4061  0.7749
  336MOL0     C45273   5.154   1.995   2.751  0.0477  0.0912  0.5453
  336MOL0     C45274   5.016   1.972   2.736  0.6211 -0.1897 -0.4046
  336MOL0     N45275   4.243   1.799   2.541 -0.1828 -0.4986  0.4391
  336MOL0     N45276   4.157   1.714   2.490 -0.0911 -0.3614  0.8568
  336MOL0     C45277   3.302   2.051   2.512 -0.0145 -0.0663  0.4145
  336MOL0     C45278   3.212   2.154   2.525 -0.2750 -0.5664  0.6745
  336MOL0     C45279   2.778   2.324   2.448 -0.5857 -0.2252 -0.2601
  336MOL0     C45280   2.655   2.270   2.475  0.6226 -0.3334  0.1577
  336MOL0     C45281   2.547   2.350   2.524 -0.0434  0.4267 -0.9033
  336MOL0     C45282   2.566   2.483   2.549  0.3137  0.3615  0.0690
  336MOL0     O45283   2.467   2.553   2.606 -0.0479  0.5182  0.1427
  336MOL0     C45284   2.428   2.684   2.548 -0.3730 -0.0731 -0.1177
  336MOL0     C45285   2.289   2.664   2.498 -0.0402 -0.3140  0.5042
  336MOL0     C45286   2.212   2.795   2.471 -0.4720  0.4430 -0.3093
  336MOL0     C45287   2.080   2.765   2.400 -0.3840  0.8017 -0.5742
  336MOL0     C45288   2.110   2.785   2.254  0.1086  0.5799  0.7505
  336MOL0     C45289   2.119   2.802   2.134 -0.4999  0.0033 -0.8886
  336MOL0     C45290   2.689   2.538   2.532 -0.0645 -0.4474  0.2230
  336MOL0     C45291   2.795   2.463   2.469  0.7216 -0.3403  0.3822
  336MOL0     C45292   2.929   2.539   2.464  0.3261 -0.4827 -0.0623
  336MOL0     H45293   3.071   2.147   2.219 -1.5217 -2.4816 -0.4534
  336MOL0     H45294   3.223   1.979   2.188  0.6066  3.3284 -1.2622
  336MOL0     H45295   3.449   1.798   2.194 -3.8152  0.3944  0.5546
  336MOL0     H45296   3.515   1.952   2.247 -2.0657 -0.6793 -1.4253
  336MOL0     H45297   3.664   1.734   2.274 -0.8679 -0.6787  0.7390
  336MOL0     H45298   3.545   1.694   2.398 -2.0768 -0.1381 -0.5957
  336MOL0     H45299   3.597   1.925   2.510 -1.5756  0.0810 -1.6115
  336MOL0     H45300   3.749   1.910   2.412  2.3864 -0.2917  1.6855
  336MOL0     H45301   3.805   1.846   2.630 -1.1806  0.6212  0.8062
  336MOL0     H45302   3.669   1.729   2.638  2.9578 -2.4835  0.8934
  336MOL0     H45303   3.762   1.589   2.473 -1.3544  1.0312 -0.4427
  336MOL0     H45304   3.897   1.684   2.455  2.3105 -2.0305  1.1145
  336MOL0     H45305   3.944   1.679   2.700  0.0330 -0.8389  2.1650
  336MOL0     H45306   3.804   1.580   2.736 -0.2091  0.7855  0.4970
  336MOL0     H45307   3.899   1.384   2.625 -0.2330  1.3217 -0.3566
  336MOL0     H45308   4.018   1.450   2.750 -1.8435  0.8261  1.3997
  336MOL0     H45309   4.128   1.393   2.547  0.4920  0.2406  0.4468
  336MOL0     H45310   4.024   1.505   2.447  1.0518 -0.9741 -0.5387
  336MOL0     H45311   4.268   1.562   2.763 -1.5751  1.4683  1.6224
  336MOL0     H45312   4.414   1.905   2.732  1.3645  0.7727  1.9493
  336MOL0     H45313   4.356   1.788   2.843  4.2432  1.0455  1.5241
  336MOL0     H45314   4.528   1.622   2.724  1.6124  0.0260  0.4853
  336MOL0     H45315   4.582   1.761   2.636 -1.4532 -4.1555 -2.3764
  336MOL0     H45316   4.580   1.723   2.947  0.9268  1.1418  1.4081
  336MOL0     H45317   4.623   1.881   2.863 -0.3962 -0.0805  0.0764
  336MOL0     H45318   4.772   1.649   2.757  1.7496 -0.1348  0.8815
  336MOL0     H45319   4.793   1.680   2.919  2.0329 -0.1566 -0.9286
  336MOL0     H45320   4.997   1.670   2.894  0.2497 -1.3397 -2.0091
  336MOL0     H45321   5.230   1.718   2.938 -1.3983 -1.2253 -0.3357
  336MOL0     H45322   5.651   1.920   2.765  1.8235  0.5615 -1.2028
  336MOL0     H45323   5.877   1.936   2.838  0.9091 -3.9892  0.9824
  336MOL0     H45324   6.112   1.800   3.022  1.5212  0.8647 -0.7433
  336MOL0     H45325   6.054   1.949   2.945 -0.3865 -0.3420 -0.4378
  336MOL0     H45326   6.177   2.072   3.130  2.4864  0.7883 -0.4476
  336MOL0     H45327   6.199   1.918   3.212 -2.1258  0.0004  0.8713
  336MOL0     H45328   6.351   1.839   3.024 -0.9921 -0.2830  1.7966
  336MOL0     H45329   6.324   2.006   2.956 -1.3518 -2.2045 -1.7108
  336MOL0     H45330   6.446   1.929   3.224  3.1982 -2.0054 -1.1331
  336MOL0     H45331   6.438   2.094   3.150 -0.8268  0.4549 -1.9546
  336MOL0     H45332   6.661   2.005   3.120 -0.5222 -1.8408  1.0955
  336MOL0     H45333   6.578   2.006   2.960 -0.9813 -2.7002 -2.1661
  336MOL0     H45334   6.575   1.743   3.088 -0.3768  0.1382 -0.2514
  336MOL0     H45335   6.571   1.808   2.916 -0.9378  0.7139  0.3835
  336MOL0     H45336   6.821   1.805   3.115 -1.8220  1.8136  1.2260
  336MOL0     H45337   6.823   1.848   2.942  0.0292  0.2856  0.3785
  336MOL0     H45338   6.735   1.583   3.047  1.4609 -2.7396 -1.5252
  336MOL0     H45339   6.771   1.641   2.878 -0.6980  1.1063  0.2276
  336MOL0     H45340   5.740   1.880   3.251 -1.5783 -0.7541  0.0644
  336MOL0     H45341   5.513   1.863   3.166  0.6438  0.7252  0.1757
  336MOL0     H45342   5.199   2.080   2.701 -3.2180  1.8688  0.3220
  336MOL0     H45343   4.955   2.050   2.693  2.2729  1.3843 -0.0070
  336MOL0     H45344   3.362   2.004   2.590  0.3752 -0.7804 -0.2988
  336MOL0     H45345   3.187   2.209   2.616 -3.6500 -0.6457 -0.0876
  336MOL0     H45346   2.639   2.165   2.451  3.4638 -1.0819  1.2075
  336MOL0     H45347   2.450   2.302   2.533  0.7470 -1.3174 -1.2054
  336MOL0     H45348   2.487   2.705   2.459  0.1436 -0.8177  0.0388
  336MOL0     H45349   2.436   2.763   2.622 -0.0446 -0.6213  0.4366
  336MOL0     H45350   2.228   2.614   2.574 -0.7502  1.0070  0.8293
  336MOL0     H45351   2.294   2.600   2.409  1.6275 -1.1475  1.1568
  336MOL0     H45352   2.279   2.853   2.407  2.1952 -1.9653  0.0961
  336MOL0     H45353   2.208   2.843   2.570  2.1071  1.4095 -0.5910
  336MOL0     H45354   2.061   2.660   2.424  4.0325 -0.2589 -0.9160
  336MOL0     H45355   2.008   2.839   2.437  2.1346  2.2986  1.6576
  336MOL0     H45356   2.133   2.810   2.029  0.7973  0.9520 -0.6761
  336MOL0     H45357   2.695   2.641   2.565 -1.6146  0.2928 -1.6439
  336MOL0     H45358   2.901   2.641   2.490  2.2686 -0.3885  1.9717
  336MOL0     H45359   3.004   2.508   2.538 -0.0791  1.0157  1.0073
  336MOL0     H45360   2.972   2.528   2.364 -2.5025  1.6797 -1.6536
  337MOL0     O45361   5.310  10.231   4.912 -0.3637  0.0202 -0.0407
  337MOL0     C45362   5.247  10.259   4.815  0.1140  0.4732 -0.2428
  337MOL0     O45363   5.289  10.247   4.683 -0.5909 -0.5176  0.0240
  337MOL0     C45364   5.414  10.199   4.659  1.0326  0.6219 -0.2537
  337MOL0     C45365   5.510  10.296   4.671 -0.2897  0.2556 -0.6358
  337MOL0     C45366   5.644  10.267   4.648 -0.1429 -0.7958 -0.0578
  337MOL0     C45367   5.677  10.135   4.606 -0.3918  0.0025 -0.4597
  337MOL0     O45368   5.803  10.094   4.578  0.0586 -0.4610 -0.2211
  337MOL0     C45369   5.911  10.183   4.611 -0.5064 -0.4016 -0.5956
  337MOL0     C45370   6.051  10.117   4.578 -0.5583 -0.1469  0.2213
  337MOL0     C45371   6.171  10.197   4.597  0.5126  0.3969  0.0762
  337MOL0     C45372   6.292  10.126   4.563 -0.0073  0.2409 -0.1766
  337MOL0     C45373   6.422  10.201   4.591  0.1229 -0.5386  0.5066
  337MOL0     C45374   6.451  10.227   4.744  0.4897  0.5996  0.3200
  337MOL0     C45375   6.587  10.252   4.788  0.6583 -0.7926 -0.4208
  337MOL0     C45376   6.664  10.129   4.820 -0.0781  0.0059  0.7701
  337MOL0     N45377   6.805  10.148   4.869 -0.5899  0.4906  0.6941
  337MOL0     C45378   6.839  10.214   4.986 -0.0499 -0.0887  1.1145
  337MOL0     C45379   6.975  10.226   4.982 -0.1195 -1.0985  0.3409
  337MOL0     C45380   7.066  10.295   5.084 -0.3126  0.4401  0.2845
  337MOL0     C45381   7.093  10.206   5.193 -0.4110  1.1595 -1.0565
  337MOL0     C45382   7.193  10.087   5.154  0.4054 -0.3445  0.6683
  337MOL0     C45383   7.207   9.980   5.264  0.4030 -0.2777 -0.2181
  337MOL0     O45384   7.295  10.023   5.374 -0.3612 -0.1129  0.1799
  337MOL0     C45385   7.435  10.031   5.349  0.1541  0.6062 -0.7084
  337MOL0     C45386   7.507   9.968   5.243  1.2283 -1.0959 -0.2366
  337MOL0     C45387   7.642   9.979   5.220 -0.3884 -0.0977 -0.2506
  337MOL0     C45388   7.724  10.043   5.314 -1.1544 -1.0017 -0.3000
  337MOL0     C45389   7.868  10.030   5.312 -0.1438 -0.7946  0.5025
  337MOL0     O45390   7.932  10.098   5.407  0.9551 -0.5355 -0.5460
  337MOL0     C45391   8.068  10.113   5.414 -0.4390  0.1038 -0.4148
  337MOL0     C45392   8.144   9.997   5.458 -0.0147  0.7555 -0.0361
  337MOL0     C45393   8.278  10.006   5.480  0.7446 -0.5010 -0.6486
  337MOL0     C45394   8.346  10.131   5.464 -0.1397 -0.0774 -1.1520
  337MOL0     O45395   8.479  10.156   5.497  0.0899 -0.2565 -0.2261
  337MOL0     C45396   8.572  10.052   5.511  0.3743 -0.2997 -0.1418
  337MOL0     C45397   8.701  10.116   5.555  0.4404 -0.0818  0.5663
  337MOL0     C45398   8.807  10.009   5.575 -0.4456  0.2139  0.3574
  337MOL0     C45399   8.934  10.073   5.618 -0.6744 -0.0907  0.1168
  337MOL0     C45400   9.033   9.980   5.677 -0.8364  0.3378  0.1338
  337MOL0     C45401   9.158  10.059   5.714 -0.3429 -0.5231  0.1885
  337MOL0     C45402   9.247   9.978   5.799 -0.3427  0.2417  0.1857
  337MOL0     C45403   9.322   9.868   5.716 -0.0943 -0.3884  0.5247
  337MOL0    Cl45404   9.427   9.927   5.588 -0.1870 -0.0753  0.3449
  337MOL0     C45405   8.273  10.243   5.414  0.1060  0.2288 -0.1973
  337MOL0     C45406   8.140  10.237   5.398  0.6110 -0.2750 -0.1908
  337MOL0     O45407   7.926   9.959   5.228  0.4854  0.1254  0.0919
  337MOL0     C45408   7.655  10.111   5.421  0.1375 -0.5861 -0.3549
  337MOL0     C45409   7.513  10.110   5.430 -0.5617 -0.2966  1.1199
  337MOL0     N45410   7.020  10.165   4.862 -0.3427 -0.0487  0.2793
  337MOL0     N45411   6.921  10.113   4.802 -0.1034 -0.3154  0.3998
  337MOL0     C45412   5.572  10.046   4.583 -0.4337 -1.0699 -0.3267
  337MOL0     C45413   5.440  10.071   4.610 -0.2793  0.0635 -0.3075
  337MOL0     C45414   5.113  10.315   4.828  0.2845 -0.1881 -0.6267
  337MOL0     C45415   5.049  10.376   4.720 -0.0112  0.7805  1.0453
  337MOL0     C45416   4.923  10.434   4.719 -0.2145 -0.6092  0.0009
  337MOL0     C45417   4.866  10.452   4.843  0.7657  0.3373 -0.8602
  337MOL0     O45418   4.753  10.522   4.870 -0.0963  0.7664  0.4733
  337MOL0     C45419   4.681  10.592   4.760 -0.2964 -0.0798 -0.8581
  337MOL0     C45420   4.767  10.724   4.739  0.5268  0.0391  0.5307
  337MOL0     C45421   4.709  10.829   4.650 -0.1848 -0.2245  0.4579
  337MOL0     C45422   4.667  10.775   4.509  0.7766 -0.5880 -0.4402
  337MOL0     C45423   4.641  10.882   4.418  0.0868 -0.0198 -0.1139
  337MOL0     C45424   4.630  10.969   4.332 -0.4122  0.7836  0.5789
  337MOL0     C45425   4.932  10.406   4.957 -0.8057 -0.9148 -0.9994
  337MOL0     C45426   5.047  10.324   4.956 -0.1244  0.4271  0.0133
  337MOL0     C45427   5.090  10.257   5.088  0.0469 -0.8071  0.0129
  337MOL0     H45428   5.477  10.393   4.707 -1.3066 -1.5307  3.8776
  337MOL0     H45429   5.720  10.342   4.667  0.1067 -0.3393 -2.4617
  337MOL0     H45430   5.895  10.272   4.549  1.4608 -0.1339 -0.7556
  337MOL0     H45431   5.912  10.212   4.717 -0.4192 -1.6883 -0.2278
  337MOL0     H45432   6.056  10.072   4.479  0.4572 -1.2140  0.7321
  337MOL0     H45433   6.067  10.032   4.646  2.8707  1.1605  1.2589
  337MOL0     H45434   6.167  10.229   4.701 -2.6812  0.6103 -0.0149
  337MOL0     H45435   6.166  10.288   4.538  1.1414  1.1762  1.1881
  337MOL0     H45436   6.286  10.028   4.610  0.0203 -0.5330 -1.7074
  337MOL0     H45437   6.290  10.101   4.456  1.8197 -1.4104  0.1144
  337MOL0     H45438   6.509  10.148   4.552  0.0443  0.9210 -1.8439
  337MOL0     H45439   6.425  10.289   4.526 -1.2390 -1.4847 -0.9111
  337MOL0     H45440   6.386  10.310   4.773 -0.6263 -0.1345 -0.0091
  337MOL0     H45441   6.423  10.129   4.785 -2.2779 -0.6102 -3.7837
  337MOL0     H45442   6.580  10.312   4.879  1.0381  0.2723 -1.0698
  337MOL0     H45443   6.640  10.312   4.713  0.4940 -0.1325 -0.0170
  337MOL0     H45444   6.611  10.083   4.905 -1.7705 -0.1636 -0.3343
  337MOL0     H45445   6.666  10.058   4.737  3.1574  0.9313 -0.0834
  337MOL0     H45446   6.773  10.257   5.060 -0.1630 -0.6942  1.3719
  337MOL0     H45447   7.158  10.328   5.035  1.7828 -0.4551  3.3174
  337MOL0     H45448   7.016  10.384   5.123 -2.0722 -0.9436  1.3469
  337MOL0     H45449   7.138  10.261   5.276  0.0120 -1.1450  0.3270
  337MOL0     H45450   7.003  10.157   5.230 -0.1706  2.5391  1.6092
  337MOL0     H45451   7.291  10.112   5.113  0.4970 -0.0588  1.0536
  337MOL0     H45452   7.153  10.027   5.072 -0.8865  1.2911  0.0405
  337MOL0     H45453   7.250   9.890   5.220  0.0324 -0.4936 -0.1411
  337MOL0     H45454   7.113   9.951   5.311 -0.0121  0.6380 -0.4640
  337MOL0     H45455   7.453   9.895   5.184 -1.1157  1.0310 -0.8834
  337MOL0     H45456   7.681   9.922   5.136 -3.1384  0.2970 -1.9497
  337MOL0     H45457   8.098   9.900   5.472  1.2272 -0.2075 -2.1468
  337MOL0     H45458   8.335   9.923   5.521 -0.4112 -1.4212 -0.8318
  337MOL0     H45459   8.532   9.982   5.585 -1.8355 -1.3366 -2.2139
  337MOL0     H45460   8.586  10.009   5.412  0.1795 -2.1327  0.5909
  337MOL0     H45461   8.724  10.192   5.481 -0.1656  0.6155  1.0762
  337MOL0     H45462   8.680  10.165   5.651  0.2330 -2.5094  1.8315
  337MOL0     H45463   8.778   9.937   5.651 -0.3380  0.2124  0.3981
  337MOL0     H45464   8.820   9.949   5.484 -0.1537 -1.6962  1.6045
  337MOL0     H45465   8.910  10.143   5.698 -0.0752 -2.5855  2.6544
  337MOL0     H45466   8.978  10.128   5.534 -0.6269  0.7227  0.6583
  337MOL0     H45467   9.060   9.899   5.608 -0.4101 -2.6814  3.5610
  337MOL0     H45468   8.984   9.924   5.757  1.3748 -0.5790  0.9230
  337MOL0     H45469   9.210  10.091   5.623 -1.4785  2.4020  0.4746
  337MOL0     H45470   9.141  10.152   5.768  1.2883  0.9746 -1.7060
  337MOL0     H45471   9.201   9.933   5.887 -2.5823 -0.8167 -1.4308
  337MOL0     H45472   9.334  10.039   5.825  0.5315 -0.1557 -1.6346
  337MOL0     H45473   9.388   9.814   5.784 -1.0021 -0.0619  1.6880
  337MOL0     H45474   9.251   9.803   5.663 -0.3505  1.5456 -1.6647
  337MOL0     H45475   8.320  10.339   5.394 -1.0916  1.0385  0.7179
  337MOL0     H45476   8.076  10.325   5.388 -1.2230 -1.0893  3.1298
  337MOL0     H45477   7.713  10.168   5.493  1.1737 -0.4017 -1.3048
  337MOL0     H45478   7.466  10.159   5.514 -0.7872  0.5075  0.5296
  337MOL0     H45479   5.607   9.955   4.535  3.4136 -0.7387  1.4498
  337MOL0     H45480   5.357  10.005   4.585  0.7707 -1.8149  0.9291
  337MOL0     H45481   5.103  10.367   4.627 -0.3416 -2.0265  1.0347
  337MOL0     H45482   4.885  10.471   4.624 -0.4078  1.7907  0.9475
  337MOL0     H45483   4.584  10.618   4.805 -0.2267 -1.8934  0.4900
  337MOL0     H45484   4.668  10.535   4.668 -0.6208 -3.4519  1.1066
  337MOL0     H45485   4.864  10.702   4.692 -0.0295 -0.1062 -0.5899
  337MOL0     H45486   4.801  10.774   4.830  2.3192 -0.1406  0.0035
  337MOL0     H45487   4.787  10.902   4.627 -1.2329  1.3965  1.7815
  337MOL0     H45488   4.623  10.871   4.704  1.3434  1.4915  1.6642
  337MOL0     H45489   4.744  10.714   4.462  0.8137 -2.3639  1.7556
  337MOL0     H45490   4.573  10.722   4.526 -1.0345  2.7838  0.9333
  337MOL0     H45491   4.632  11.050   4.262 -0.6361 -0.8497 -1.4122
  337MOL0     H45492   4.877  10.419   5.050 -1.2520 -0.2645 -1.3478
  337MOL0     H45493   5.190  10.284   5.122  0.6556 -0.2163 -2.1124
  337MOL0     H45494   5.027  10.288   5.172  1.2287  0.4801  0.4568
  337MOL0     H45495   5.088  10.149   5.073 -3.8123 -0.8853  0.0215
  338MOL0     O45496   3.580   4.112   2.653 -1.7951 -0.2649  0.1814
  338MOL0     C45497   3.680   4.159   2.711  0.4987 -0.5259 -0.6854
  338MOL0     O45498   3.807   4.161   2.665 -0.5278 -0.1433 -0.4751
  338MOL0     C45499   3.826   4.094   2.551 -0.5993  0.6855  0.7807
  338MOL0     C45500   3.809   4.152   2.433 -0.1080  0.0053  0.4932
  338MOL0     C45501   3.852   4.078   2.323  0.5231 -0.3447 -0.2082
  338MOL0     C45502   3.924   3.960   2.330 -0.8415 -0.5917 -1.1507
  338MOL0     O45503   3.977   3.898   2.224  0.1927  0.7157  0.6028
  338MOL0     C45504   4.076   3.969   2.148 -0.0621  0.5936  0.9342
  338MOL0     C45505   4.209   4.004   2.233  0.4998  0.2287 -0.3323
  338MOL0     C45506   4.340   3.960   2.170 -0.4310 -0.3553 -1.0927
  338MOL0     C45507   4.459   3.978   2.265 -0.4831  0.1294 -0.5531
  338MOL0     C45508   4.587   3.910   2.223 -0.3004  0.2143 -0.5895
  338MOL0     C45509   4.632   3.955   2.080 -1.1960 -0.2635  0.0353
  338MOL0     C45510   4.773   3.913   2.056 -0.2109 -0.8231 -0.1572
  338MOL0     C45511   4.799   3.919   1.904 -0.0815 -1.0290 -0.9035
  338MOL0     N45512   4.933   3.867   1.874 -0.9220 -0.2951 -0.4148
  338MOL0     C45513   4.973   3.736   1.858 -0.1308 -0.3956  0.7467
  338MOL0     C45514   5.108   3.740   1.870  0.3601  0.2931  0.5609
  338MOL0     C45515   5.193   3.616   1.878  0.2501 -0.4403  0.9650
  338MOL0     C45516   5.347   3.633   1.837  0.4272 -0.9573  0.3309
  338MOL0     C45517   5.426   3.499   1.836  0.1547 -0.6459 -0.1925
  338MOL0     C45518   5.408   3.438   1.696  0.5743  0.0672 -0.4079
  338MOL0     O45519   5.440   3.302   1.707 -0.1489  0.8992 -0.3437
  338MOL0     C45520   5.567   3.261   1.691 -0.5000  0.2434  1.2214
  338MOL0     C45521   5.684   3.335   1.712  0.6439 -0.1339  0.2601
  338MOL0     C45522   5.805   3.285   1.690 -0.2977 -0.7323  0.3209
  338MOL0     C45523   5.825   3.146   1.649 -0.6590  0.8320  0.1291
  338MOL0     C45524   5.959   3.086   1.632 -0.7926 -0.1678 -0.3948
  338MOL0     O45525   5.969   2.969   1.558  0.2742  0.8495  0.6147
  338MOL0     C45526   6.085   2.916   1.519 -0.2378  1.1440  1.1355
  338MOL0     C45527   6.090   2.860   1.388  0.6717  0.2987  0.1831
  338MOL0     C45528   6.208   2.795   1.337  0.7137 -0.5552  0.6842
  338MOL0     C45529   6.318   2.779   1.409 -0.7508 -0.7025 -0.1019
  338MOL0     O45530   6.427   2.724   1.344 -0.2003 -0.0005 -0.5946
  338MOL0     C45531   6.526   2.657   1.428  0.5359  0.6041  0.6278
  338MOL0     C45532   6.646   2.742   1.444  0.2518 -0.2969  0.3855
  338MOL0     C45533   6.763   2.676   1.525  0.7152  0.3501  0.0234
  338MOL0     C45534   6.850   2.803   1.563 -0.0585  0.0643 -0.1967
  338MOL0     C45535   6.981   2.762   1.626 -0.2064 -0.5395  0.6822
  338MOL0     C45536   7.086   2.682   1.547 -0.5943 -0.4441  0.0070
  338MOL0     C45537   7.142   2.755   1.427  0.2393 -0.2862  0.1287
  338MOL0     C45538   7.273   2.699   1.381 -0.5514 -0.0093 -0.2725
  338MOL0    Cl45539   7.398   2.784   1.493 -0.2329 -0.6710  0.1798
  338MOL0     C45540   6.322   2.833   1.541 -0.0423 -0.0130  1.2335
  338MOL0     C45541   6.203   2.896   1.588  0.6795 -0.4180 -0.5716
  338MOL0     O45542   6.057   3.145   1.678  0.2630  0.1172  0.2068
  338MOL0     C45543   5.709   3.070   1.638  0.0449  0.1904  0.2294
  338MOL0     C45544   5.584   3.125   1.652  0.3566 -0.3495  0.5793
  338MOL0     N45545   5.144   3.862   1.899 -0.2343  0.2913 -0.2984
  338MOL0     N45546   5.049   3.943   1.893 -0.1375 -0.2130  0.3786
  338MOL0     C45547   3.930   3.896   2.456  0.9996 -0.0413 -0.1659
  338MOL0     C45548   3.882   3.965   2.574 -0.3733  0.2940  0.5719
  338MOL0     C45549   3.643   4.230   2.835 -0.6213  0.2055  0.4815
  338MOL0     C45550   3.507   4.244   2.869  0.4729 -0.4428  0.0832
  338MOL0     C45551   3.465   4.332   2.963  0.1119 -0.7452  0.5555
  338MOL0     C45552   3.563   4.404   3.043 -0.6644 -0.0742  0.2892
  338MOL0     O45553   3.535   4.503   3.130 -0.1086 -0.2414 -0.1155
  338MOL0     C45554   3.401   4.508   3.182  0.3832 -0.5699 -0.3480
  338MOL0     C45555   3.408   4.583   3.323 -0.1286  0.1703 -0.1436
  338MOL0     C45556   3.487   4.711   3.298  0.3698 -1.1616 -1.0951
  338MOL0     C45557   3.427   4.830   3.387  0.5431 -0.3483  0.5041
  338MOL0     C45558   3.433   4.786   3.531  0.3931 -0.3855  0.8001
  338MOL0     C45559   3.447   4.783   3.652  0.2120 -0.6280  0.6102
  338MOL0     C45560   3.698   4.368   3.022 -0.2083 -0.5645  0.5539
  338MOL0     C45561   3.744   4.289   2.923 -0.0743  0.2016 -1.0737
  338MOL0     C45562   3.900   4.278   2.916 -0.2805 -0.2404 -0.7207
  338MOL0     H45563   3.775   4.255   2.427  2.6685  0.9220 -2.7921
  338MOL0     H45564   3.838   4.131   2.230  2.1226  0.8639  0.1782
  338MOL0     H45565   4.098   3.900   2.067 -1.1077 -0.5191  1.5587
  338MOL0     H45566   4.039   4.061   2.102  1.2725  1.5862  1.7768
  338MOL0     H45567   4.199   3.951   2.328 -1.8959  2.1724  0.6114
  338MOL0     H45568   4.203   4.112   2.247  0.9853  0.3229 -0.8460
  338MOL0     H45569   4.364   4.017   2.079  0.5397  0.1174 -0.5623
  338MOL0     H45570   4.328   3.853   2.153 -3.1722 -0.6083  1.6813
  338MOL0     H45571   4.485   4.083   2.277  1.3131 -0.4015  0.7123
  338MOL0     H45572   4.448   3.922   2.358  4.0905 -0.8516 -0.3618
  338MOL0     H45573   4.662   3.939   2.297 -0.2121  1.7190 -1.2303
  338MOL0     H45574   4.571   3.802   2.224  0.1647  0.1476 -0.0049
  338MOL0     H45575   4.570   3.894   2.013  0.0846  0.6497 -2.0926
  338MOL0     H45576   4.623   4.063   2.069  1.5702 -0.0590 -0.9803
  338MOL0     H45577   4.802   3.813   2.090  2.4623 -0.3216 -0.7781
  338MOL0     H45578   4.839   3.983   2.106 -2.6335  1.3329  0.2382
  338MOL0     H45579   4.714   3.879   1.848 -1.9360  1.8194 -0.3434
  338MOL0     H45580   4.799   4.025   1.876 -0.0593 -0.4732  1.1066
  338MOL0     H45581   4.906   3.654   1.833  0.8503 -1.0645  0.2740
  338MOL0     H45582   5.188   3.574   1.979 -3.0739 -0.5805  0.8507
  338MOL0     H45583   5.154   3.541   1.809 -1.8831  0.0995  1.5311
  338MOL0     H45584   5.352   3.674   1.736 -0.7003 -0.1261  0.5963
  338MOL0     H45585   5.391   3.697   1.913  0.1461 -1.6448  1.0948
  338MOL0     H45586   5.367   3.437   1.905 -0.9988  1.1039  0.4599
  338MOL0     H45587   5.532   3.514   1.858  0.4023  0.5695 -2.0088
  338MOL0     H45588   5.470   3.493   1.625  0.8810  1.4138  0.8424
  338MOL0     H45589   5.308   3.457   1.657  0.7178 -0.0276 -0.8211
  338MOL0     H45590   5.681   3.437   1.749 -1.4435  0.2547 -0.7793
  338MOL0     H45591   5.892   3.350   1.699 -1.6242  1.6829 -2.6255
  338MOL0     H45592   6.000   2.868   1.327  0.1603 -0.2912  0.8419
  338MOL0     H45593   6.207   2.749   1.239 -1.0368 -1.2456  0.9744
  338MOL0     H45594   6.486   2.630   1.526  0.0434  1.3753  0.6438
  338MOL0     H45595   6.541   2.563   1.375 -2.6731 -1.9292  3.7542
  338MOL0     H45596   6.671   2.765   1.341 -0.6936  1.4549  0.5028
  338MOL0     H45597   6.624   2.836   1.496  0.5571 -0.0341  0.0366
  338MOL0     H45598   6.726   2.615   1.607  0.6987  2.0369  1.3103
  338MOL0     H45599   6.819   2.615   1.453 -1.2389 -1.4625 -0.0659
  338MOL0     H45600   6.799   2.863   1.638 -0.2588  0.9441 -1.0151
  338MOL0     H45601   6.875   2.864   1.476 -2.5979  0.1509 -0.9619
  338MOL0     H45602   6.958   2.711   1.720 -1.6357 -2.3086 -0.5508
  338MOL0     H45603   7.032   2.854   1.656 -0.0422 -0.4671  0.1975
  338MOL0     H45604   7.173   2.660   1.610 -0.3196  2.2391  0.7060
  338MOL0     H45605   7.034   2.591   1.515  2.4248 -1.5180 -2.3008
  338MOL0     H45606   7.137   2.864   1.438 -0.1947  0.2277 -3.7376
  338MOL0     H45607   7.064   2.736   1.352  1.5800 -1.9232 -0.8970
  338MOL0     H45608   7.285   2.592   1.397  0.6299  0.3758  1.8470
  338MOL0     H45609   7.294   2.725   1.277 -0.6237 -1.4965 -0.6830
  338MOL0     H45610   6.411   2.822   1.602  0.0202 -0.2957  1.0956
  338MOL0     H45611   6.197   2.909   1.696 -0.3983 -3.4346 -0.1645
  338MOL0     H45612   5.719   2.967   1.604  0.5344 -0.2778  1.6840
  338MOL0     H45613   5.498   3.064   1.622 -1.0037  1.1938  1.1954
  338MOL0     H45614   3.970   3.795   2.460  1.1574  0.0495  2.0063
  338MOL0     H45615   3.895   3.923   2.673  0.9741 -1.2978 -0.2060
  338MOL0     H45616   3.429   4.195   2.811  1.6276  0.3656 -2.2807
  338MOL0     H45617   3.357   4.336   2.976  0.2829 -0.9118  2.3786
  338MOL0     H45618   3.341   4.418   3.195 -0.1292  0.0676  2.2562
  338MOL0     H45619   3.346   4.562   3.104  0.3755 -0.7439 -0.4638
  338MOL0     H45620   3.474   4.527   3.390  0.2967 -0.4915 -1.0834
  338MOL0     H45621   3.310   4.598   3.369 -1.6987  0.7747 -3.4264
  338MOL0     H45622   3.497   4.735   3.192  1.0058  0.1861 -0.7649
  338MOL0     H45623   3.588   4.699   3.338 -0.3223  1.1418  1.7618
  338MOL0     H45624   3.485   4.923   3.388 -1.2416  0.8117  1.2425
  338MOL0     H45625   3.328   4.849   3.344  0.2460 -2.4342  0.1611
  338MOL0     H45626   3.455   4.789   3.759  1.2326  2.3079  0.4675
  338MOL0     H45627   3.767   4.413   3.093  0.6469  1.8338 -1.6298
  338MOL0     H45628   3.930   4.303   2.814  0.7125 -0.6271 -0.5374
  338MOL0     H45629   3.941   4.344   2.993 -0.4617 -0.3839 -0.4977
  338MOL0     H45630   3.933   4.175   2.935 -0.6452 -0.8025 -2.7931
  339MOL0     O45631   1.946   5.958   3.231  0.0695  0.1375  0.2717
  339MOL0     C45632   1.934   6.082   3.254  0.1563  0.2520  0.8928
  339MOL0     O45633   2.018   6.181   3.214  0.0556  0.3052 -0.1206
  339MOL0     C45634   2.127   6.141   3.139 -0.7135 -0.2954  0.0280
  339MOL0     C45635   2.114   6.137   3.005  0.5873  0.7616 -0.3275
  339MOL0     C45636   2.215   6.107   2.919 -0.1427 -0.0564  0.2674
  339MOL0     C45637   2.340   6.071   2.976  0.1349  0.0400  0.1359
  339MOL0     O45638   2.460   6.049   2.910  1.0175  0.2598 -0.8143
  339MOL0     C45639   2.475   6.081   2.772 -0.3599 -1.0103  0.0549
  339MOL0     C45640   2.418   5.966   2.682 -0.0034 -0.2609  0.6020
  339MOL0     C45641   2.485   5.834   2.714  0.2829  0.5498 -0.2234
  339MOL0     C45642   2.606   5.815   2.624 -1.6261 -0.5055 -0.4392
  339MOL0     C45643   2.675   5.685   2.654 -0.0313  1.3018 -0.8359
  339MOL0     C45644   2.811   5.684   2.584 -0.7047 -0.2911  0.1718
  339MOL0     C45645   2.885   5.549   2.605  0.4083 -0.0734  0.6097
  339MOL0     C45646   3.012   5.536   2.518 -0.4375  0.1315 -0.5996
  339MOL0     N45647   3.111   5.643   2.559  0.0815 -0.6068  0.5163
  339MOL0     C45648   3.181   5.656   2.675 -0.3952  0.3386 -0.1716
  339MOL0     C45649   3.224   5.780   2.685 -0.4828  0.7383  0.1038
  339MOL0     C45650   3.313   5.846   2.783 -0.7709  0.2250 -0.3229
  339MOL0     C45651   3.460   5.824   2.747  0.1093  0.7118  0.1376
  339MOL0     C45652   3.501   5.874   2.611 -0.2175  0.4341 -0.5853
  339MOL0     C45653   3.651   5.834   2.592  0.5743  0.7589  0.4052
  339MOL0     O45654   3.721   5.917   2.685  0.5352  0.1505 -0.5994
  339MOL0     C45655   3.856   5.901   2.684  0.3477  0.0203 -0.1594
  339MOL0     C45656   3.924   6.016   2.723  0.5546  0.2219  0.2997
  339MOL0     C45657   4.064   6.021   2.713 -0.4361 -0.1113 -0.5565
  339MOL0     C45658   4.144   5.911   2.665  0.0371 -0.1917  0.3282
  339MOL0     C45659   4.292   5.918   2.650  0.7098 -0.3920  0.6503
  339MOL0     O45660   4.357   5.805   2.627  0.3556 -0.3742  0.2813
  339MOL0     C45661   4.496   5.814   2.615  0.1776  0.9986  0.4545
  339MOL0     C45662   4.546   5.845   2.485  0.2384  0.4191  0.3998
  339MOL0     C45663   4.689   5.842   2.462  0.4855 -0.1915  0.1607
  339MOL0     C45664   4.776   5.795   2.562  0.5301  0.6127 -0.2720
  339MOL0     O45665   4.911   5.789   2.552  0.7504 -0.4364  0.5148
  339MOL0     C45666   4.983   5.897   2.477  0.4874  0.0845  0.1588
  339MOL0     C45667   5.123   5.886   2.531 -0.3134  0.7510 -0.9279
  339MOL0     C45668   5.196   5.770   2.472  0.0707  0.0651  0.0655
  339MOL0     C45669   5.331   5.746   2.537 -0.0674  0.2449 -0.9558
  339MOL0     C45670   5.384   5.618   2.484 -0.5559 -0.2387 -0.6009
  339MOL0     C45671   5.533   5.634   2.496 -0.1234  0.1459  0.0584
  339MOL0     C45672   5.607   5.505   2.489 -0.1832  0.3660 -0.4133
  339MOL0     C45673   5.733   5.515   2.566  0.2389 -0.1653  0.3508
  339MOL0    Cl45674   5.833   5.379   2.525 -0.5416 -0.2618 -0.0208
  339MOL0     C45675   4.725   5.766   2.689 -0.2022 -0.2526  0.0293
  339MOL0     C45676   4.585   5.772   2.719 -0.6651  0.2466  0.1613
  339MOL0     O45677   4.341   6.029   2.669  1.2167  0.6305  0.1994
  339MOL0     C45678   4.074   5.799   2.639 -0.1872 -0.4437 -0.1628
  339MOL0     C45679   3.936   5.791   2.654  0.2933  0.1018  1.0180
  339MOL0     N45680   3.169   5.851   2.580 -0.1024  0.0418 -0.4869
  339MOL0     N45681   3.115   5.768   2.502 -0.0010 -0.2124  0.3918
  339MOL0     C45682   2.354   6.076   3.109 -0.4361 -0.1280  0.0779
  339MOL0     C45683   2.244   6.101   3.197 -0.1388 -0.3737  0.4778
  339MOL0     C45684   1.818   6.113   3.337  0.2612  0.6390  1.2318
  339MOL0     C45685   1.755   6.011   3.416  0.2001 -0.0616  1.1923
  339MOL0     C45686   1.651   6.043   3.501 -0.3901  0.1424 -1.3169
  339MOL0     C45687   1.597   6.170   3.507  0.2849 -0.5646 -0.2437
  339MOL0     O45688   1.484   6.180   3.584 -0.4583 -0.5038 -0.1377
  339MOL0     C45689   1.425   6.309   3.600  0.3284 -0.4174  0.2792
  339MOL0     C45690   1.314   6.292   3.708  0.4545  0.2611 -0.4167
  339MOL0     C45691   1.199   6.198   3.666 -0.3951 -0.4426  0.3762
  339MOL0     C45692   1.116   6.159   3.787  0.6442 -0.1481  0.0168
  339MOL0     C45693   1.048   6.278   3.843  0.1388 -0.1146  0.5033
  339MOL0     C45694   0.981   6.378   3.866 -0.4254  0.9407  0.9034
  339MOL0     C45695   1.653   6.271   3.425  0.3246  0.1910  0.3017
  339MOL0     C45696   1.761   6.244   3.343 -1.0671  0.8595 -0.5636
  339MOL0     C45697   1.796   6.362   3.245  0.1150  0.5197  0.2833
  339MOL0     H45698   2.020   6.184   2.977  0.3803  0.2579 -0.4884
  339MOL0     H45699   2.191   6.114   2.813 -0.9819  1.7016  0.5368
  339MOL0     H45700   2.433   6.181   2.758  0.8495 -0.3549  0.9139
  339MOL0     H45701   2.579   6.100   2.747 -0.5291  0.6972  0.5549
  339MOL0     H45702   2.438   5.984   2.575  1.0940  0.5355  0.9170
  339MOL0     H45703   2.310   5.960   2.693 -0.1091  0.9284  0.3432
  339MOL0     H45704   2.405   5.761   2.701 -0.1851 -0.1389  4.6851
  339MOL0     H45705   2.514   5.830   2.819  0.4536  3.3942 -0.0827
  339MOL0     H45706   2.570   5.826   2.521 -1.2100  0.8081 -0.4622
  339MOL0     H45707   2.674   5.899   2.636 -1.5826  0.0901 -3.9330
  339MOL0     H45708   2.698   5.672   2.761  1.2140 -0.3234 -1.2620
  339MOL0     H45709   2.611   5.602   2.624  2.6981 -1.4335  0.4245
  339MOL0     H45710   2.804   5.712   2.479  0.4860 -2.4264 -0.5328
  339MOL0     H45711   2.870   5.767   2.625 -1.2647 -0.0399  0.4845
  339MOL0     H45712   2.810   5.476   2.571  0.1202 -0.3953  1.8866
  339MOL0     H45713   2.903   5.526   2.710 -0.6428 -0.8477  0.6414
  339MOL0     H45714   3.051   5.438   2.545 -0.9112  0.6343  2.2318
  339MOL0     H45715   2.982   5.546   2.413  1.5540 -0.3032 -1.2583
  339MOL0     H45716   3.210   5.585   2.752  1.6180  1.3760  0.0963
  339MOL0     H45717   3.292   5.953   2.784  1.4376  0.7109  1.2510
  339MOL0     H45718   3.289   5.811   2.884 -1.0857 -1.5934 -0.9962
  339MOL0     H45719   3.534   5.880   2.805  3.7479 -1.8342 -1.6449
  339MOL0     H45720   3.476   5.717   2.762  0.5945  0.8877  0.9409
  339MOL0     H45721   3.485   5.981   2.598 -2.8849  0.0272 -1.4429
  339MOL0     H45722   3.442   5.819   2.536 -0.1990 -4.5195  2.5614
  339MOL0     H45723   3.693   5.863   2.495  3.2153  0.5244  1.4095
  339MOL0     H45724   3.657   5.726   2.607 -2.0048  0.7069  1.6392
  339MOL0     H45725   3.856   6.099   2.738 -0.9932 -0.8988 -0.3100
  339MOL0     H45726   4.113   6.116   2.727 -1.7239  0.3491  1.2388
  339MOL0     H45727   4.468   5.866   2.413 -0.1310  0.5385  0.8284
  339MOL0     H45728   4.712   5.860   2.358 -1.1066 -0.2095 -0.2322
  339MOL0     H45729   4.979   5.874   2.370 -0.3223 -0.9595  0.3912
  339MOL0     H45730   4.947   6.000   2.482  0.2652 -0.0262  0.8628
  339MOL0     H45731   5.182   5.973   2.500  1.2797  0.1950  0.3888
  339MOL0     H45732   5.132   5.880   2.640  2.6889 -0.0060 -1.1298
  339MOL0     H45733   5.142   5.675   2.473  2.6685 -1.5007  0.0256
  339MOL0     H45734   5.222   5.783   2.367  2.0179 -1.1363  0.3596
  339MOL0     H45735   5.317   5.741   2.646  3.2451  0.9780 -0.3944
  339MOL0     H45736   5.400   5.828   2.515 -1.0217  1.8686  1.5913
  339MOL0     H45737   5.364   5.595   2.379 -1.7498  1.7417 -0.8621
  339MOL0     H45738   5.346   5.541   2.551  0.3782  0.3910  0.7014
  339MOL0     H45739   5.561   5.702   2.415 -2.0730 -0.1789 -0.9519
  339MOL0     H45740   5.552   5.683   2.592 -0.5716 -0.1414  0.2963
  339MOL0     H45741   5.624   5.475   2.386 -5.2413  1.6353 -1.9048
  339MOL0     H45742   5.543   5.424   2.525  0.5495 -1.8836 -3.7495
  339MOL0     H45743   5.795   5.598   2.532  0.8798 -0.3969  0.9249
  339MOL0     H45744   5.727   5.531   2.674  1.9833  1.6675  0.2350
  339MOL0     H45745   4.800   5.737   2.763  0.5008 -1.2030 -1.0194
  339MOL0     H45746   4.551   5.752   2.820  1.1744 -1.7186  0.4563
  339MOL0     H45747   4.124   5.707   2.610  3.5606  1.4204 -0.1988
  339MOL0     H45748   3.893   5.695   2.628 -2.5149  1.8254 -1.2838
  339MOL0     H45749   2.454   6.057   3.146 -1.3683 -0.9056  2.3610
  339MOL0     H45750   2.258   6.090   3.305  0.2201 -1.3667  0.3406
  339MOL0     H45751   1.784   5.906   3.413 -2.2831 -0.7649 -0.9432
  339MOL0     H45752   1.610   5.973   3.573  1.6220 -0.6079 -0.8110
  339MOL0     H45753   1.379   6.344   3.507 -0.2689  1.2316  1.1532
  339MOL0     H45754   1.496   6.389   3.623  0.6279 -0.9322  1.2146
  339MOL0     H45755   1.268   6.391   3.721 -0.4289 -0.2266  0.3444
  339MOL0     H45756   1.362   6.253   3.798  1.9010  2.2053 -0.2855
  339MOL0     H45757   1.246   6.108   3.627  0.1097  0.0884 -0.2543
  339MOL0     H45758   1.152   6.245   3.579 -0.4964 -0.4769  0.4115
  339MOL0     H45759   1.043   6.078   3.773  1.2274 -0.8414  0.8489
  339MOL0     H45760   1.176   6.113   3.866  0.1058 -0.7404  0.0963
  339MOL0     H45761   0.939   6.476   3.880  0.0042  1.2027  0.4256
  339MOL0     H45762   1.596   6.362   3.411 -3.5444 -1.9021  0.9967
  339MOL0     H45763   1.900   6.375   3.213  0.1813  1.8490  0.9721
  339MOL0     H45764   1.735   6.351   3.155 -0.5166 -2.1997  0.9720
  339MOL0     H45765   1.760   6.461   3.276  2.4921  1.6702 -0.3501
  340MOL0     O45766   5.723   2.607   1.513 -0.3509 -0.2204  0.1099
  340MOL0     C45767   5.697   2.525   1.421 -0.7302  0.8156  0.6614
  340MOL0     O45768   5.794   2.437   1.372  0.4779  0.1944 -0.1101
  340MOL0     C45769   5.913   2.432   1.442  0.0369 -0.5012 -0.0913
  340MOL0     C45770   6.009   2.534   1.473 -0.2054 -0.0248 -0.4742
  340MOL0     C45771   6.116   2.512   1.563 -0.3739  0.2146  1.0337
  340MOL0     C45772   6.138   2.381   1.619 -0.2095 -0.4407  0.8414
  340MOL0     O45773   6.238   2.339   1.701  0.5439  0.4747  0.7581
  340MOL0     C45774   6.355   2.422   1.713 -0.4352  0.0580 -0.5022
  340MOL0     C45775   6.453   2.362   1.819 -0.2260  0.5959 -0.0987
  340MOL0     C45776   6.593   2.416   1.790  0.0874 -0.5668 -0.5793
  340MOL0     C45777   6.699   2.343   1.883 -0.5413 -0.0653  0.8728
  340MOL0     C45778   6.835   2.386   1.849 -0.9548 -0.0371 -0.0006
  340MOL0     C45779   6.937   2.277   1.891 -0.0308  0.0252 -0.3936
  340MOL0     C45780   6.962   2.291   2.042  0.4809 -0.6535 -0.6133
  340MOL0     C45781   7.050   2.182   2.103 -0.5006  0.1764  0.3964
  340MOL0     N45782   7.193   2.219   2.087 -0.3465  0.1791 -0.8480
  340MOL0     C45783   7.281   2.232   1.982  0.8709  0.0866 -0.3711
  340MOL0     C45784   7.403   2.227   2.036  0.2997  0.0828 -0.2904
  340MOL0     C45785   7.529   2.218   1.956  0.4303  0.2114  0.3549
  340MOL0     C45786   7.664   2.173   2.026  0.0709  0.1142  0.1212
  340MOL0     C45787   7.780   2.208   1.940  0.2760  0.7276 -0.3151
  340MOL0     C45788   7.909   2.149   1.990  0.2712 -0.0048 -0.5028
  340MOL0     O45789   8.002   2.205   1.904 -0.0247 -0.6368  0.4192
  340MOL0     C45790   8.133   2.193   1.936  0.1174  0.6882  0.1319
  340MOL0     C45791   8.177   2.115   2.047 -0.7157 -0.1814 -0.1168
  340MOL0     C45792   8.316   2.088   2.063  0.6094 -0.0160  0.1383
  340MOL0     C45793   8.410   2.148   1.977  0.3989  0.2455 -0.3945
  340MOL0     C45794   8.555   2.124   1.987 -0.2151  0.2984 -0.8345
  340MOL0     O45795   8.638   2.191   1.906  0.1702 -0.1301  0.2151
  340MOL0     C45796   8.778   2.172   1.911 -0.3853  0.8967  0.7587
  340MOL0     C45797   8.851   2.295   1.923 -0.6048  0.2688  0.1702
  340MOL0     C45798   8.986   2.292   1.950 -0.0564 -0.4934  0.6877
  340MOL0     C45799   9.055   2.170   1.941 -0.3561  0.3136  0.6634
  340MOL0     O45800   9.189   2.148   1.959 -0.4634 -0.3255 -0.6788
  340MOL0     C45801   9.269   2.266   1.951  0.4273  0.9990  0.5557
  340MOL0     C45802   9.413   2.225   1.998  0.2391 -0.0149 -0.6513
  340MOL0     C45803   9.485   2.354   2.042 -0.6415  0.3109  1.0154
  340MOL0     C45804   9.538   2.429   1.925 -0.1783  0.0970 -0.1304
  340MOL0     C45805   9.603   2.552   1.962 -0.1927  0.4307 -0.5079
  340MOL0     C45806   9.662   2.632   1.842 -0.2562  0.2814  0.0616
  340MOL0     C45807   9.717   2.765   1.871  0.0746  0.1446 -0.6393
  340MOL0     C45808   9.764   2.827   1.736 -0.1566 -0.5580  0.1365
  340MOL0    Cl45809   9.639   2.833   1.617  0.1858 -0.1143  0.3519
  340MOL0     C45810   8.981   2.051   1.921  0.4360  0.8111 -0.7304
  340MOL0     C45811   8.849   2.051   1.910  0.1090  0.6755 -0.6074
  340MOL0     O45812   8.585   2.039   2.069  0.1997  0.0469  0.3179
  340MOL0     C45813   8.359   2.220   1.870 -0.3912  0.2705  0.3748
  340MOL0     C45814   8.221   2.244   1.844 -0.5991  0.8402  0.3350
  340MOL0     N45815   7.399   2.214   2.172 -0.6086  0.3481  0.6012
  340MOL0     N45816   7.277   2.224   2.198  0.0579  0.0018 -0.5657
  340MOL0     C45817   6.048   2.282   1.582  0.7652  0.1257  0.3420
  340MOL0     C45818   5.940   2.306   1.496 -0.1616 -0.9954 -0.4022
  340MOL0     C45819   5.566   2.519   1.343  0.3394  0.4647  0.3350
  340MOL0     C45820   5.527   2.398   1.278 -0.8523 -0.4052 -0.6084
  340MOL0     C45821   5.407   2.378   1.215  0.4538 -0.1427  0.0169
  340MOL0     C45822   5.312   2.482   1.216  0.6625  0.0718  1.1803
  340MOL0     O45823   5.184   2.470   1.162  0.4452  0.3223  0.1044
  340MOL0     C45824   5.066   2.481   1.245 -0.0168  0.3118 -0.3967
  340MOL0     C45825   4.943   2.423   1.170 -0.5134  0.3283 -0.1810
  340MOL0     C45826   4.871   2.526   1.085 -0.5434 -0.6584  0.8718
  340MOL0     C45827   4.811   2.482   0.949  0.2195 -0.1687  0.5294
  340MOL0     C45828   4.693   2.407   0.962  0.2289  0.1119 -0.7217
  340MOL0     C45829   4.594   2.343   0.982  0.0870  0.1413  1.0388
  340MOL0     C45830   5.341   2.606   1.281  0.3923  1.0824 -0.2972
  340MOL0     C45831   5.470   2.628   1.342  0.2644 -0.4012 -0.2306
  340MOL0     C45832   5.493   2.754   1.423  0.1878  0.1471  0.3153
  340MOL0     H45833   5.985   2.634   1.438 -1.1267  0.0322  0.2811
  340MOL0     H45834   6.174   2.599   1.592  0.0020 -0.3304  1.9799
  340MOL0     H45835   6.414   2.428   1.621 -0.2570 -1.3970 -0.4995
  340MOL0     H45836   6.333   2.524   1.747  2.6668  0.3549  1.0181
  340MOL0     H45837   6.460   2.253   1.817  3.0810  0.6967 -0.7104
  340MOL0     H45838   6.423   2.397   1.918 -2.8057 -0.7938 -0.3172
  340MOL0     H45839   6.592   2.524   1.807  0.1619 -0.4186 -1.4649
  340MOL0     H45840   6.609   2.405   1.682 -0.2488  0.2793 -0.7223
  340MOL0     H45841   6.671   2.359   1.988 -3.6431  0.6333  0.0423
  340MOL0     H45842   6.688   2.237   1.860 -1.7348 -0.5556  3.3895
  340MOL0     H45843   6.843   2.393   1.740 -0.6405 -1.0874 -0.0518
  340MOL0     H45844   6.862   2.481   1.896 -0.6807  0.3271 -0.8603
  340MOL0     H45845   6.900   2.175   1.874 -0.6078  0.3921 -1.4539
  340MOL0     H45846   7.036   2.280   1.844 -0.2007  0.5829 -0.7260
  340MOL0     H45847   6.862   2.284   2.084  0.0094 -0.2336 -1.6145
  340MOL0     H45848   6.998   2.391   2.068  0.0444 -0.9674  1.3052
  340MOL0     H45849   7.020   2.162   2.206  3.4829 -0.7152  1.5412
  340MOL0     H45850   7.039   2.086   2.051 -0.3007  1.0167 -1.2581
  340MOL0     H45851   7.249   2.229   1.879 -0.5124 -0.8186  0.0580
  340MOL0     H45852   7.501   2.149   1.876  1.9569 -0.0376 -0.0014
  340MOL0     H45853   7.563   2.308   1.906  2.3514 -0.6670 -0.0178
  340MOL0     H45854   7.676   2.228   2.120 -2.7382  1.0558  0.0179
  340MOL0     H45855   7.657   2.066   2.049 -0.9577 -0.2447 -1.6918
  340MOL0     H45856   7.785   2.317   1.940 -0.2217  0.7778  1.3340
  340MOL0     H45857   7.774   2.165   1.840  3.7110 -2.1111  0.4698
  340MOL0     H45858   7.902   2.040   1.982  3.2955 -0.3892  0.7524
  340MOL0     H45859   7.929   2.177   2.093  4.2203 -1.8240 -0.5627
  340MOL0     H45860   8.110   2.077   2.123  0.2961 -0.1395  0.8213
  340MOL0     H45861   8.343   2.010   2.134 -0.5328 -0.5083  0.0533
  340MOL0     H45862   8.787   2.383   1.928 -0.1694  0.5378  2.1324
  340MOL0     H45863   9.028   2.391   1.964 -2.5489  0.8692 -0.7187
  340MOL0     H45864   9.266   2.298   1.847 -2.1558 -0.2052  0.1764
  340MOL0     H45865   9.225   2.339   2.020 -1.3874 -0.8755  1.4830
  340MOL0     H45866   9.413   2.151   2.079  0.8811 -0.5521 -1.1296
  340MOL0     H45867   9.463   2.164   1.923  0.2696 -2.8567  1.5236
  340MOL0     H45868   9.419   2.419   2.101 -1.6615  2.2696 -2.0047
  340MOL0     H45869   9.570   2.326   2.105 -0.0721 -1.1377 -0.3307
  340MOL0     H45870   9.457   2.455   1.856  0.7268 -0.8321 -1.6015
  340MOL0     H45871   9.616   2.373   1.871 -2.0587 -1.9408 -0.8615
  340MOL0     H45872   9.680   2.529   2.036 -1.3335  0.6449  0.7926
  340MOL0     H45873   9.531   2.616   2.013  1.1517 -1.0916  3.7606
  340MOL0     H45874   9.736   2.569   1.792 -0.6111 -0.3638  0.3361
  340MOL0     H45875   9.579   2.634   1.771 -1.9070  0.2556  1.8910
  340MOL0     H45876   9.791   2.750   1.950 -1.2548 -0.5739  0.5253
  340MOL0     H45877   9.635   2.831   1.903  1.4049  1.2997  0.5718
  340MOL0     H45878   9.797   2.928   1.761 -0.0716 -0.8255  1.1770
  340MOL0     H45879   9.850   2.770   1.702 -0.8284 -0.8626 -1.0985
  340MOL0     H45880   9.040   1.962   1.907  0.6104  0.5186  1.5010
  340MOL0     H45881   8.798   1.956   1.905  3.2858 -1.2019 -0.5834
  340MOL0     H45882   8.424   2.254   1.791 -2.2020 -0.5415 -1.5702
  340MOL0     H45883   8.185   2.298   1.757 -2.3348  2.7993  2.1667
  340MOL0     H45884   6.058   2.181   1.619 -1.9670 -0.9956 -1.6140
  340MOL0     H45885   5.878   2.221   1.466 -1.5913  0.3932 -1.5276
  340MOL0     H45886   5.592   2.312   1.295 -2.4666 -1.2113  2.1370
  340MOL0     H45887   5.386   2.285   1.164  0.0522  0.0815 -0.2350
  340MOL0     H45888   5.049   2.581   1.287  0.8917  0.3935 -0.2054
  340MOL0     H45889   5.085   2.429   1.339  1.4323 -0.7136 -1.2352
  340MOL0     H45890   4.865   2.373   1.228 -0.3629 -2.2588 -2.0110
  340MOL0     H45891   4.979   2.343   1.104  1.3742  0.5550  0.4862
  340MOL0     H45892   4.944   2.606   1.068  0.6347 -1.5457  1.6336
  340MOL0     H45893   4.787   2.570   1.140  0.8050  3.0356  0.2480
  340MOL0     H45894   4.781   2.564   0.884 -1.1414 -0.5463  0.6435
  340MOL0     H45895   4.892   2.439   0.890 -1.1844  0.4770 -2.0181
  340MOL0     H45896   4.502   2.292   1.007 -0.1738  0.7273  1.2791
  340MOL0     H45897   5.255   2.671   1.292 -0.5737 -0.3155  0.8253
  340MOL0     H45898   5.399   2.809   1.408 -0.9478 -2.4594 -3.7200
  340MOL0     H45899   5.506   2.730   1.529 -0.8045 -0.0695  0.4007
  340MOL0     H45900   5.574   2.813   1.379  1.2700 -0.3944  1.5277
  341MOL0     O45901   5.427   8.754  10.215 -1.2978 -0.7938 -0.3922
  341MOL0     C45902   5.496   8.665  10.258 -0.1196  0.1247  0.1285
  341MOL0     O45903   5.621   8.625  10.211  0.0288 -0.4074 -0.3063
  341MOL0     C45904   5.683   8.708  10.119 -0.2415 -0.2005 -0.2001
  341MOL0     C45905   5.627   8.722   9.997 -0.2000 -0.0914 -0.0427
  341MOL0     C45906   5.675   8.811   9.903 -0.0698  0.0066 -0.3474
  341MOL0     C45907   5.788   8.884   9.940  0.8142  0.6006 -0.9401
  341MOL0     O45908   5.853   8.978   9.859 -0.0356  0.1563  0.5822
  341MOL0     C45909   5.852   8.951   9.716  0.4200  0.6574 -0.6477
  341MOL0     C45910   5.934   9.060   9.654 -1.2343 -0.2761 -0.1001
  341MOL0     C45911   6.081   9.006   9.649 -0.2817  0.3596  0.3720
  341MOL0     C45912   6.103   8.905   9.537 -0.1111 -0.5354  0.3746
  341MOL0     C45913   6.240   8.839   9.537  0.3469  0.4142  0.0812
  341MOL0     C45914   6.366   8.921   9.487  0.2718  0.1557 -1.0405
  341MOL0     C45915   6.369   8.934   9.333 -0.0167 -0.0955  0.0572
  341MOL0     C45916   6.476   9.037   9.290  0.4188 -0.4071 -0.4108
  341MOL0     N45917   6.620   9.024   9.335 -0.3156  0.6787  0.0110
  341MOL0     C45918   6.728   8.997   9.248 -0.4235 -0.0107  0.2973
  341MOL0     C45919   6.837   8.986   9.325  0.6453  0.4305 -0.3047
  341MOL0     C45920   6.970   8.949   9.275  0.2446 -0.2841  1.0163
  341MOL0     C45921   7.081   9.060   9.305  0.5613 -0.0142 -0.6323
  341MOL0     C45922   7.218   8.999   9.288 -0.5283 -0.2543 -0.0258
  341MOL0     C45923   7.327   9.106   9.275  0.2856 -0.9484  0.6958
  341MOL0     O45924   7.328   9.202   9.386  0.4452 -0.1618 -0.2406
  341MOL0     C45925   7.453   9.252   9.424 -0.2025  0.3898 -0.2183
  341MOL0     C45926   7.460   9.299   9.558 -0.0337  0.4744  0.2676
  341MOL0     C45927   7.580   9.324   9.622 -0.3765  0.3197  0.6938
  341MOL0     C45928   7.697   9.318   9.546 -0.0605  0.0572  0.6229
  341MOL0     C45929   7.832   9.341   9.609 -0.7565  0.2244  0.5961
  341MOL0     O45930   7.931   9.378   9.528 -0.0405  0.0889  0.5820
  341MOL0     C45931   8.060   9.400   9.585  0.3647  0.8239 -1.0781
  341MOL0     C45932   8.086   9.490   9.688 -0.3419  0.2559 -0.7973
  341MOL0     C45933   8.219   9.511   9.727  0.0455  0.0150 -0.0281
  341MOL0     C45934   8.324   9.434   9.679  0.3526  0.6103  0.0468
  341MOL0     O45935   8.445   9.455   9.740  0.1351  0.0812  0.1386
  341MOL0     C45936   8.556   9.373   9.700  0.0909 -0.0185  0.6637
  341MOL0     C45937   8.683   9.419   9.768  0.7677  0.1657 -0.2133
  341MOL0     C45938   8.815   9.355   9.701  0.1802 -0.1847  0.7696
  341MOL0     C45939   8.859   9.225   9.772  0.1067 -0.4229 -0.4473
  341MOL0     C45940   8.978   9.156   9.713  0.4469 -0.1171 -0.2115
  341MOL0     C45941   9.109   9.220   9.750 -0.3923 -0.3724  0.4452
  341MOL0     C45942   9.224   9.158   9.679  0.1849 -0.0999  0.5157
  341MOL0     C45943   9.361   9.220   9.721  0.4977 -0.3481  0.5847
  341MOL0    Cl45944   9.470   9.225   9.592 -0.3824  0.0962 -0.4159
  341MOL0     C45945   8.293   9.359   9.556 -0.7762 -0.3605 -0.6693
  341MOL0     C45946   8.163   9.340   9.517 -0.4936 -0.3948  0.2986
  341MOL0     O45947   7.841   9.318   9.730  0.6047 -0.3319  0.3553
  341MOL0     C45948   7.684   9.302   9.403 -0.4752  0.5398 -0.2570
  341MOL0     C45949   7.563   9.260   9.344 -0.3047 -0.9455 -0.0798
  341MOL0     N45950   6.796   9.018   9.454 -0.3527  0.2967  0.2695
  341MOL0     N45951   6.671   9.045   9.453 -0.0575 -0.0981 -0.1694
  341MOL0     C45952   5.846   8.868  10.071  0.7336 -0.8776  0.4211
  341MOL0     C45953   5.793   8.779  10.164 -0.2315  0.0566 -0.5734
  341MOL0     C45954   5.441   8.573  10.370  0.5270 -0.4266 -0.0926
  341MOL0     C45955   5.529   8.478  10.426  1.4047  0.0012  0.3422
  341MOL0     C45956   5.497   8.398  10.533 -0.0554  0.6855 -0.6823
  341MOL0     C45957   5.370   8.411  10.595 -0.4093  0.3581 -0.2146
  341MOL0     O45958   5.335   8.330  10.702 -0.2864  0.4996 -0.0667
  341MOL0     C45959   5.196   8.325  10.751  0.4451 -0.3107  0.1672
  341MOL0     C45960   5.179   8.248  10.877 -1.2589  0.5068  0.2597
  341MOL0     C45961   5.240   8.111  10.883 -0.8925  0.0366 -0.1900
  341MOL0     C45962   5.236   8.053  11.026 -0.5809  0.2698 -0.3294
  341MOL0     C45963   5.103   8.038  11.085  0.5443 -0.0515  0.4187
  341MOL0     C45964   4.984   8.029  11.110  0.1685 -0.0115  0.0264
  341MOL0     C45965   5.282   8.508  10.544 -0.9368  0.0432 -0.0583
  341MOL0     C45966   5.314   8.587  10.432  0.5031 -0.6442  0.1204
  341MOL0     C45967   5.209   8.690  10.401 -0.6852 -0.3319 -0.9550
  341MOL0     H45968   5.536   8.664   9.986  0.8332 -1.5471 -1.3614
  341MOL0     H45969   5.629   8.822   9.805  2.5261  2.4178 -1.4379
  341MOL0     H45970   5.881   8.848   9.695 -1.3779  0.2162 -1.0843
  341MOL0     H45971   5.751   8.967   9.680  0.4659  1.4841 -0.4282
  341MOL0     H45972   5.919   9.148   9.716  1.1551  0.2980 -0.2468
  341MOL0     H45973   5.905   9.086   9.552 -1.1963 -0.3328 -0.1260
  341MOL0     H45974   6.117   8.966   9.744  0.3848  1.7263  0.7164
  341MOL0     H45975   6.146   9.094   9.641  1.1355 -0.7958 -2.0478
  341MOL0     H45976   6.025   8.829   9.539 -1.8191  1.0434  4.0770
  341MOL0     H45977   6.083   8.943   9.436  1.8759 -2.8222 -0.9779
  341MOL0     H45978   6.250   8.797   9.638 -1.5442 -2.2044 -0.7052
  341MOL0     H45979   6.228   8.751   9.473 -1.2007  0.2162  0.5945
  341MOL0     H45980   6.370   9.017   9.539  1.0271 -0.6868  0.5507
  341MOL0     H45981   6.456   8.864   9.511  0.4283  1.2941  1.4344
  341MOL0     H45982   6.275   8.968   9.288 -0.7399 -1.3299  0.5515
  341MOL0     H45983   6.379   8.836   9.285  2.2552  0.5083 -0.8001
  341MOL0     H45984   6.477   9.046   9.181 -0.1288  1.3477 -0.2912
  341MOL0     H45985   6.441   9.135   9.320  2.8702  1.2691 -2.5369
  341MOL0     H45986   6.725   8.978   9.141  0.8264 -2.5783  0.6272
  341MOL0     H45987   7.003   8.853   9.316  3.8331 -0.4372 -1.7414
  341MOL0     H45988   6.966   8.933   9.167  0.9911 -2.0431  1.2127
  341MOL0     H45989   7.057   9.145   9.240 -0.0770  0.4277  0.1491
  341MOL0     H45990   7.070   9.099   9.407 -1.7438 -0.3526 -0.6958
  341MOL0     H45991   7.222   8.935   9.199 -0.5130  0.8111 -0.8173
  341MOL0     H45992   7.244   8.922   9.361  3.6580 -2.1086 -3.0675
  341MOL0     H45993   7.285   9.165   9.192 -1.7705 -0.2872  2.1208
  341MOL0     H45994   7.423   9.058   9.256  1.7684  1.3324  1.9211
  341MOL0     H45995   7.363   9.291   9.607 -0.1547 -0.0965 -0.0588
  341MOL0     H45996   7.583   9.356   9.726 -3.2275  0.7262  0.7386
  341MOL0     H45997   8.006   9.543   9.740 -0.3171  1.0997 -1.5960
  341MOL0     H45998   8.241   9.584   9.804  0.0866 -0.4851  0.4400
  341MOL0     H45999   8.535   9.269   9.723 -1.7578  0.6819  2.4120
  341MOL0     H46000   8.567   9.381   9.591  0.3690 -1.0022  0.6090
  341MOL0     H46001   8.690   9.528   9.757  3.2912  0.1826  0.9031
  341MOL0     H46002   8.680   9.404   9.876 -0.9374  2.8838  0.2165
  341MOL0     H46003   8.798   9.350   9.593 -1.7042 -2.1465  1.0727
  341MOL0     H46004   8.901   9.421   9.706 -0.4685  1.3296 -3.6118
  341MOL0     H46005   8.774   9.156   9.777 -1.4296  0.7181 -5.4284
  341MOL0     H46006   8.886   9.253   9.874 -0.2649 -0.0313 -0.4531
  341MOL0     H46007   8.962   9.141   9.606 -0.9874 -0.1714 -0.0095
  341MOL0     H46008   8.993   9.058   9.760  3.9476 -0.7993 -2.3692
  341MOL0     H46009   9.113   9.330   9.748  0.8315 -0.2976  3.0084
  341MOL0     H46010   9.123   9.194   9.856  4.3738 -2.3535 -0.4192
  341MOL0     H46011   9.224   9.174   9.571  0.2844 -0.3985  0.4727
  341MOL0     H46012   9.221   9.049   9.690  0.1735  0.1010  3.3231
  341MOL0     H46013   9.344   9.325   9.747 -0.4915 -0.3072 -0.1453
  341MOL0     H46014   9.412   9.169   9.803 -0.5252 -0.0588  1.4255
  341MOL0     H46015   8.376   9.306   9.510 -1.6197 -0.9655 -1.5483
  341MOL0     H46016   8.147   9.278   9.430  2.3398 -1.0967  0.1836
  341MOL0     H46017   7.775   9.319   9.346 -1.5947  3.3862 -1.3691
  341MOL0     H46018   7.554   9.241   9.238  0.8525  1.9301 -0.7951
  341MOL0     H46019   5.931   8.931  10.094  1.5665 -1.2752 -1.3845
  341MOL0     H46020   5.840   8.776  10.262  1.1073  1.2897 -1.1383
  341MOL0     H46021   5.628   8.466  10.383  1.7645  6.0144 -1.5178
  341MOL0     H46022   5.563   8.320  10.570 -2.4543 -1.4477 -0.5739
  341MOL0     H46023   5.132   8.287  10.671 -0.8877  1.6318  0.2417
  341MOL0     H46024   5.169   8.427  10.778  0.5254 -0.5884  1.3579
  341MOL0     H46025   5.074   8.231  10.902 -0.7931 -0.3653  1.7559
  341MOL0     H46026   5.218   8.303  10.964  3.0667  0.3683 -1.3799
  341MOL0     H46027   5.343   8.112  10.846  0.0385  0.5453  2.2250
  341MOL0     H46028   5.177   8.043  10.825  0.5089 -1.2023 -0.3129
  341MOL0     H46029   5.275   7.951  11.015 -0.9195  0.0956  0.0723
  341MOL0     H46030   5.310   8.105  11.088 -0.1865 -2.9762  2.2257
  341MOL0     H46031   4.880   8.023  11.134 -0.8431 -0.5523 -3.8056
  341MOL0     H46032   5.180   8.523  10.580 -0.2246  0.5338  1.8849
  341MOL0     H46033   5.256   8.781  10.437  2.1155 -3.1069  3.4112
  341MOL0     H46034   5.193   8.691  10.293  0.2736 -0.0705 -1.0955
  341MOL0     H46035   5.114   8.676  10.455 -0.8552 -0.1185 -1.1984
  342MOL0     O46036   5.221   3.362   6.150 -0.2934  0.6964  0.0213
  342MOL0     C46037   5.201   3.376   6.026  0.6501 -0.6628  0.1781
  342MOL0     O46038   5.289   3.345   5.925 -0.2155 -0.0543  0.3822
  342MOL0     C46039   5.418   3.369   5.971 -0.9487 -0.2178 -0.2002
  342MOL0     C46040   5.465   3.500   5.992  0.3484 -0.3646  0.7116
  342MOL0     C46041   5.593   3.527   6.038  0.2591 -0.3511 -0.7132
  342MOL0     C46042   5.679   3.425   6.077 -0.5662 -0.5377  0.1935
  342MOL0     O46043   5.805   3.466   6.121 -0.0239  0.4668 -0.1777
  342MOL0     C46044   5.912   3.391   6.066  0.1753  0.2982 -0.0144
  342MOL0     C46045   6.050   3.458   6.070 -0.4272  0.3430  0.3378
  342MOL0     C46046   6.159   3.352   6.040 -0.5600  0.5717 -0.2908
  342MOL0     C46047   6.289   3.415   6.031 -0.2852  0.3219 -0.2945
  342MOL0     C46048   6.410   3.335   5.987  0.0339 -0.9261 -0.3374
  342MOL0     C46049   6.551   3.392   5.995  0.8900  0.0555 -0.2646
  342MOL0     C46050   6.570   3.520   5.910 -0.7054 -0.7947 -0.9536
  342MOL0     C46051   6.721   3.571   5.920 -0.5784 -0.2063  0.4489
  342MOL0     N46052   6.824   3.470   5.882  0.2426  0.2085  0.7150
  342MOL0     C46053   6.842   3.404   5.769  0.5611  1.0182  0.9480
  342MOL0     C46054   6.928   3.296   5.798  0.0406 -0.2275 -0.4115
  342MOL0     C46055   6.961   3.185   5.697 -1.0962  0.0281 -0.2192
  342MOL0     C46056   7.103   3.139   5.688 -1.0341  0.0859 -0.4346
  342MOL0     C46057   7.204   3.250   5.637 -0.2627  0.4811  0.3597
  342MOL0     C46058   7.347   3.196   5.645 -0.1463 -0.0374  0.1212
  342MOL0     O46059   7.421   3.284   5.559  0.2559 -0.6027  1.0340
  342MOL0     C46060   7.558   3.259   5.538 -0.2135  0.0818 -0.3865
  342MOL0     C46061   7.640   3.369   5.496  0.1609  0.3295  0.4639
  342MOL0     C46062   7.777   3.351   5.478  0.5517  0.4714  0.7584
  342MOL0     C46063   7.836   3.226   5.512 -0.5716 -0.2986 -0.1513
  342MOL0     C46064   7.982   3.211   5.500 -1.0384 -0.5967 -0.4196
  342MOL0     O46065   8.050   3.291   5.415 -0.4060 -0.1230 -0.1303
  342MOL0     C46066   8.188   3.292   5.416  0.5161 -0.9180 -0.3631
  342MOL0     C46067   8.261   3.190   5.366  0.2295  0.7801  0.5172
  342MOL0     C46068   8.402   3.181   5.362 -0.3986  0.2895 -0.0872
  342MOL0     C46069   8.472   3.289   5.421  0.3799  0.3414 -0.6507
  342MOL0     O46070   8.609   3.306   5.419  0.8329  0.1880  0.4648
  342MOL0     C46071   8.690   3.189   5.394 -0.3566 -0.7110  0.3498
  342MOL0     C46072   8.827   3.244   5.410 -0.3537 -1.1505  0.1877
  342MOL0     C46073   8.930   3.129   5.418  1.1606  0.0375  0.2244
  342MOL0     C46074   9.063   3.169   5.466 -0.9151 -0.0932 -0.3997
  342MOL0     C46075   9.183   3.072   5.455 -0.3757 -0.1258 -0.1106
  342MOL0     C46076   9.311   3.137   5.508  0.2702  0.7321  0.3499
  342MOL0     C46077   9.414   3.038   5.572  0.0693  0.1513 -0.1484
  342MOL0     C46078   9.522   3.112   5.646 -0.9280 -0.3147  1.1909
  342MOL0    Cl46079   9.650   2.984   5.691  0.2401 -0.1551  0.2033
  342MOL0     C46080   8.396   3.397   5.466  0.3473  0.0475 -0.2946
  342MOL0     C46081   8.257   3.401   5.465 -0.3314  1.0808 -0.1657
  342MOL0     O46082   8.039   3.145   5.584  0.3858  0.5253  1.0539
  342MOL0     C46083   7.761   3.115   5.544 -0.6164  0.4243  0.3492
  342MOL0     C46084   7.619   3.132   5.565 -0.4692  0.7057 -0.7544
  342MOL0     N46085   6.966   3.310   5.933 -0.3935  0.6856 -0.1157
  342MOL0     N46086   6.904   3.413   5.979  1.3477 -0.3046 -0.6105
  342MOL0     C46087   5.632   3.294   6.052  0.5559  0.2746  0.3672
  342MOL0     C46088   5.503   3.265   6.013  0.2857 -0.0408 -0.1162
  342MOL0     C46089   5.070   3.413   5.980 -0.0346 -0.5718  0.2379
  342MOL0     C46090   5.055   3.440   5.844  0.2066  0.4326 -0.0605
  342MOL0     C46091   4.933   3.474   5.798 -0.0398  0.2316 -0.4963
  342MOL0     C46092   4.818   3.471   5.880 -0.0410 -0.0713 -0.1933
  342MOL0     O46093   4.696   3.497   5.815 -0.4532  0.3802 -0.1517
  342MOL0     C46094   4.583   3.457   5.888 -0.1869  0.6705  0.9145
  342MOL0     C46095   4.460   3.461   5.802 -0.8591 -0.8130  0.4235
  342MOL0     C46096   4.352   3.357   5.835 -0.0708  0.1729  0.1436
  342MOL0     C46097   4.298   3.380   5.968 -0.8133  0.5284 -1.4854
  342MOL0     C46098   4.390   3.345   6.086 -0.8740  0.3687  0.1352
  342MOL0     C46099   4.467   3.345   6.180 -0.0688  0.2607 -0.6459
  342MOL0     C46100   4.831   3.432   6.009 -0.0511  1.1747 -0.1541
  342MOL0     C46101   4.955   3.414   6.068  0.1359  0.7081  0.3134
  342MOL0     C46102   4.950   3.377   6.220  0.5397 -0.1907  0.5490
  342MOL0     H46103   5.397   3.582   5.976  1.8645  0.9745  0.8721
  342MOL0     H46104   5.627   3.628   6.058  0.7469 -0.6445 -0.0214
  342MOL0     H46105   5.930   3.303   6.129 -1.7941  0.7582  1.2565
  342MOL0     H46106   5.889   3.369   5.961 -0.1239  1.6854 -0.2580
  342MOL0     H46107   6.056   3.490   6.175 -0.5533 -0.7647  0.6986
  342MOL0     H46108   6.053   3.546   6.006  2.4249  1.8540  2.3051
  342MOL0     H46109   6.145   3.300   5.945 -0.6873  2.6850 -1.4748
  342MOL0     H46110   6.165   3.286   6.127 -4.4996  1.0499  0.5481
  342MOL0     H46111   6.273   3.488   5.951  1.2870  0.5538 -0.4347
  342MOL0     H46112   6.308   3.456   6.131  0.9763  0.0049 -0.3843
  342MOL0     H46113   6.407   3.239   6.039 -1.0985 -0.3833  0.6278
  342MOL0     H46114   6.395   3.333   5.879  1.2138  3.7062 -0.7980
  342MOL0     H46115   6.592   3.397   6.096  0.6648  0.9599 -0.2110
  342MOL0     H46116   6.623   3.328   5.943  1.1086 -1.2247  1.5317
  342MOL0     H46117   6.519   3.602   5.962 -1.3299 -0.8215 -1.5265
  342MOL0     H46118   6.530   3.519   5.809 -0.8426  2.0207 -1.0047
  342MOL0     H46119   6.708   3.648   5.843  0.2348 -1.0378 -0.5480
  342MOL0     H46120   6.742   3.615   6.018 -2.0359  0.3449  0.5439
  342MOL0     H46121   6.812   3.420   5.666 -1.4696  0.4394  1.4000
  342MOL0     H46122   6.914   3.088   5.717  1.2144 -1.4411 -1.3753
  342MOL0     H46123   6.922   3.219   5.600 -0.9566 -0.3301 -0.4036
  342MOL0     H46124   7.128   3.120   5.793 -2.0978  0.5638 -0.0879
  342MOL0     H46125   7.106   3.055   5.618 -1.1425 -0.2554 -0.0329
  342MOL0     H46126   7.192   3.341   5.698  2.9381  0.5738  1.0219
  342MOL0     H46127   7.175   3.271   5.534 -1.3943  1.9955  0.9449
  342MOL0     H46128   7.349   3.096   5.600 -0.5038  0.8985 -2.0901
  342MOL0     H46129   7.384   3.187   5.748 -2.6965 -1.4012  1.0040
  342MOL0     H46130   7.596   3.464   5.467 -1.1442 -0.5637 -0.6317
  342MOL0     H46131   7.840   3.429   5.436 -0.1921  0.9813  0.5893
  342MOL0     H46132   8.210   3.109   5.316  1.5565 -0.2985  0.8680
  342MOL0     H46133   8.447   3.098   5.307 -0.4694  1.1645 -1.5136
  342MOL0     H46134   8.678   3.105   5.463  0.8014 -2.6072 -1.6521
  342MOL0     H46135   8.674   3.162   5.289  0.5708 -0.4056  0.1195
  342MOL0     H46136   8.850   3.313   5.329  2.8211 -0.1286  1.7676
  342MOL0     H46137   8.847   3.294   5.506  0.6517  2.0218 -1.5318
  342MOL0     H46138   8.890   3.057   5.490 -0.5557 -0.5711 -1.2693
  342MOL0     H46139   8.927   3.075   5.323 -1.7057 -1.4122  1.0213
  342MOL0     H46140   9.053   3.193   5.572 -1.4067  0.5087 -0.5747
  342MOL0     H46141   9.087   3.259   5.407  0.1681  0.6030  1.0465
  342MOL0     H46142   9.203   3.045   5.351 -0.8343 -1.5708  0.1615
  342MOL0     H46143   9.176   2.981   5.515 -0.5798 -0.0539 -0.0232
  342MOL0     H46144   9.358   3.188   5.423  1.9845 -2.5891 -0.8959
  342MOL0     H46145   9.284   3.215   5.580  0.4028  0.0106  1.1903
  342MOL0     H46146   9.461   2.976   5.495  1.9076 -1.1684  1.9431
  342MOL0     H46147   9.356   2.974   5.640  1.4795  0.1264  1.0732
  342MOL0     H46148   9.569   3.189   5.584  1.7085  0.2827  3.7326
  342MOL0     H46149   9.470   3.150   5.734 -3.5451  1.3813 -0.9127
  342MOL0     H46150   8.448   3.482   5.509 -1.8894  0.9974  0.7474
  342MOL0     H46151   8.208   3.475   5.527 -0.8727 -0.0498  0.8058
  342MOL0     H46152   7.802   3.016   5.557  0.4722  0.6510 -1.1593
  342MOL0     H46153   7.560   3.047   5.597  0.1245  0.4635 -0.2797
  342MOL0     H46154   5.706   3.215   6.064 -0.1025 -0.1779  1.5759
  342MOL0     H46155   5.472   3.162   5.998 -0.3835  0.0413  0.6827
  342MOL0     H46156   5.137   3.440   5.774  1.2773 -0.5946  1.1333
  342MOL0     H46157   4.906   3.510   5.699  0.7032  2.6629  0.1305
  342MOL0     H46158   4.571   3.518   5.978  1.3046 -0.1131  1.6668
  342MOL0     H46159   4.598   3.353   5.918  2.4673  0.3381 -1.1337
  342MOL0     H46160   4.501   3.439   5.703 -1.5620  1.8923 -0.5593
  342MOL0     H46161   4.418   3.561   5.813 -1.6114 -1.1653  0.8332
  342MOL0     H46162   4.390   3.254   5.838 -0.9032 -0.1231  0.6299
  342MOL0     H46163   4.267   3.354   5.767 -2.2289  1.6411  2.5987
  342MOL0     H46164   4.271   3.484   5.989 -0.3263 -0.0247  3.0931
  342MOL0     H46165   4.207   3.321   5.971 -1.5111  1.5097  2.4915
  342MOL0     H46166   4.542   3.315   6.250  2.1277  1.6190 -2.2801
  342MOL0     H46167   4.744   3.422   6.072  0.4366  0.2962  0.3997
  342MOL0     H46168   5.021   3.294   6.232  2.8920  1.0112 -3.0897
  342MOL0     H46169   4.981   3.463   6.281 -1.5129  3.2032 -2.7360
  342MOL0     H46170   4.849   3.344   6.245 -0.2895  2.1797  0.5538
  343MOL0     O46171  11.021   2.769   1.119  0.0507  0.5773  0.0621
  343MOL0     C46172  10.904   2.729   1.094  0.0865  0.7774 -0.4550
  343MOL0     O46173  10.874   2.621   1.020 -0.2766 -0.0809  0.3958
  343MOL0     C46174  10.958   2.534   0.954  0.0292 -0.6817  0.0990
  343MOL0     C46175  11.093   2.507   0.996  0.6711 -0.4273  0.2529
  343MOL0     C46176  11.178   2.446   0.902 -0.3091 -0.5875  0.1659
  343MOL0     C46177  11.142   2.398   0.775 -0.0708 -0.3276  0.5521
  343MOL0     O46178  11.216   2.333   0.682  0.1977 -0.3134 -0.1787
  343MOL0     C46179  11.284   2.214   0.729  0.6147  0.6645  0.2553
  343MOL0     C46180  11.396   2.183   0.636  0.1959  0.4337 -0.3040
  343MOL0     C46181  11.537   2.229   0.683 -0.1418 -0.0532 -0.3458
  343MOL0     C46182  11.556   2.374   0.723  0.5347 -0.0289 -0.1425
  343MOL0     C46183  11.704   2.419   0.719  0.2720  0.1401 -0.9683
  343MOL0     C46184  11.802   2.366   0.837  0.2712  0.2103 -0.3776
  343MOL0     C46185  11.940   2.398   0.784 -0.7845  0.0173  0.4290
  343MOL0     C46186  12.063   2.392   0.873 -0.4030  0.2954 -0.1822
  343MOL0     N46187  12.089   2.252   0.914  0.3216 -0.6580 -0.0919
  343MOL0     C46188  12.073   2.204   1.043  0.2901 -0.6718  0.3443
  343MOL0     C46189  12.081   2.067   1.023  1.3618  0.1507 -0.5421
  343MOL0     C46190  12.094   1.957   1.133  0.8712  0.1503  0.1822
  343MOL0     C46191  12.013   1.973   1.260 -0.6456 -0.0852  0.0366
  343MOL0     C46192  12.083   2.072   1.361 -0.0417 -0.3499  1.0108
  343MOL0     C46193  12.159   1.990   1.460 -0.4590  0.2052 -0.1804
  343MOL0     O46194  12.289   1.950   1.404 -0.5280  0.4111 -0.3138
  343MOL0     C46195  12.400   1.948   1.484  0.2408  1.6066 -1.1412
  343MOL0     C46196  12.525   1.955   1.417 -0.2490  0.9685  0.1548
  343MOL0     C46197  12.648   1.956   1.484  0.3734  0.0573 -0.8829
  343MOL0     C46198  12.648   1.952   1.632 -0.1758  0.3731 -0.3832
  343MOL0     C46199  12.781   1.960   1.698 -0.1232 -0.5015 -0.5995
  343MOL0     O46200  12.792   1.915   1.828  0.1427  0.0386  0.5116
  343MOL0     C46201  12.916   1.879   1.875 -0.6490 -0.3286  0.7390
  343MOL0     C46202  12.992   1.773   1.833  0.0319  0.3815  0.2159
  343MOL0     C46203  13.102   1.734   1.898 -0.6606 -0.3007  0.6944
  343MOL0     C46204  13.149   1.792   2.015  0.0719 -0.8439  1.2680
  343MOL0     O46205  13.268   1.763   2.080  0.1461  0.0423 -0.0933
  343MOL0     C46206  13.324   1.633   2.057  0.3858 -0.0786 -0.0924
  343MOL0     C46207  13.450   1.641   2.134 -0.5843 -0.4987  0.9226
  343MOL0     C46208  13.522   1.510   2.111  0.1141  0.5607  0.0293
  343MOL0     C46209  13.619   1.478   2.219 -0.3955  0.2313 -0.2674
  343MOL0     C46210  13.656   1.325   2.221  0.6372  0.2998  0.2668
  343MOL0     C46211  13.746   1.277   2.104  0.0354 -0.6578  0.5255
  343MOL0     C46212  13.851   1.170   2.141  0.5782 -0.8617 -0.7048
  343MOL0     C46213  13.971   1.230   2.222  0.3465  0.3040 -0.3134
  343MOL0    Cl46214  14.120   1.129   2.242  0.0523 -0.1318 -0.2184
  343MOL0     C46215  13.063   1.897   2.069  0.1892  0.2638 -0.3312
  343MOL0     C46216  12.954   1.937   1.993 -0.1225 -0.3259  0.1133
  343MOL0     O46217  12.880   1.993   1.631  0.3745 -0.2455 -0.1066
  343MOL0     C46218  12.524   1.923   1.696 -0.3955 -0.6544 -0.3713
  343MOL0     C46219  12.400   1.933   1.626 -0.3933 -0.4510 -0.0877
  343MOL0     N46220  12.088   2.042   0.893  0.3165 -0.1348  0.9977
  343MOL0     N46221  12.091   2.148   0.824 -0.1721  0.4931 -0.9541
  343MOL0     C46222  11.010   2.420   0.748  0.4734 -0.4673  0.4859
  343MOL0     C46223  10.919   2.497   0.827 -0.7188 -0.7241 -0.0924
  343MOL0     C46224  10.795   2.803   1.154  0.0676 -1.1178  0.1988
  343MOL0     C46225  10.817   2.933   1.211  0.2411  0.3877  0.7785
  343MOL0     C46226  10.715   3.002   1.268  0.5152 -0.8937 -1.1772
  343MOL0     C46227  10.584   2.952   1.285 -0.2137 -0.0845  0.0412
  343MOL0     O46228  10.490   3.027   1.352 -0.5808  0.0983  0.1432
  343MOL0     C46229  10.352   2.993   1.379  0.5709 -0.4477 -0.0490
  343MOL0     C46230  10.230   3.061   1.289 -0.4716  0.0898 -0.5239
  343MOL0     C46231  10.229   3.212   1.296 -0.0114 -0.4623 -0.2089
  343MOL0     C46232  10.191   3.265   1.153 -0.7585 -0.7846  0.3335
  343MOL0     C46233  10.055   3.238   1.128 -0.0560 -0.0831  0.6410
  343MOL0     C46234   9.933   3.225   1.130  0.2903  0.0264  0.4140
  343MOL0     C46235  10.560   2.828   1.237  0.3926  0.4354  0.0338
  343MOL0     C46236  10.660   2.754   1.170 -0.0226 -0.5234 -0.4715
  343MOL0     C46237  10.618   2.614   1.136 -0.0990  0.8587  0.1451
  343MOL0     H46238  11.123   2.523   1.099 -2.8312  1.1859  1.1636
  343MOL0     H46239  11.273   2.431   0.952 -0.2078  2.0711  0.8981
  343MOL0     H46240  11.323   2.214   0.831  0.4037  2.3411  0.3512
  343MOL0     H46241  11.206   2.136   0.725 -0.8998  1.9934  2.1358
  343MOL0     H46242  11.379   2.225   0.536  2.9156  0.5113 -0.8124
  343MOL0     H46243  11.407   2.075   0.620 -2.3836  0.0401  0.1365
  343MOL0     H46244  11.605   2.210   0.600 -1.1496  1.2275 -1.5062
  343MOL0     H46245  11.568   2.167   0.768  1.8460  0.1172 -0.9144
  343MOL0     H46246  11.514   2.443   0.650 -0.8487 -0.7035 -0.0331
  343MOL0     H46247  11.505   2.389   0.818  2.5759 -0.6650  1.1176
  343MOL0     H46248  11.743   2.404   0.618  2.9246  3.4753 -0.6185
  343MOL0     H46249  11.707   2.527   0.735  0.4700 -0.1362  1.2923
  343MOL0     H46250  11.778   2.412   0.934 -0.5286 -0.1680 -0.3867
  343MOL0     H46251  11.784   2.259   0.851 -3.7995  0.8337  0.3649
  343MOL0     H46252  11.943   2.498   0.740 -0.7242 -0.2309 -0.1281
  343MOL0     H46253  11.960   2.329   0.701 -1.1000 -0.2214  0.5479
  343MOL0     H46254  12.151   2.427   0.818 -0.2563 -0.1129 -0.2158
  343MOL0     H46255  12.057   2.444   0.969  3.5684 -2.9308  2.1755
  343MOL0     H46256  12.069   2.259   1.136  1.1366 -0.2076  0.1130
  343MOL0     H46257  12.062   1.863   1.086  0.2642  0.6878 -0.5099
  343MOL0     H46258  12.199   1.948   1.162  0.2381 -2.0894  2.0590
  343MOL0     H46259  11.910   2.007   1.243 -1.1509 -0.4781  1.9346
  343MOL0     H46260  12.007   1.871   1.299  2.6100 -1.1319 -1.8331
  343MOL0     H46261  12.002   2.132   1.404 -2.6592 -1.6762 -1.6664
  343MOL0     H46262  12.154   2.137   1.310  0.7706 -2.4445 -0.6908
  343MOL0     H46263  12.109   1.898   1.493  3.5929 -1.9160  0.6854
  343MOL0     H46264  12.179   2.043   1.553  2.0033  1.5836 -1.4045
  343MOL0     H46265  12.525   1.965   1.309  3.0475  0.2033  0.0016
  343MOL0     H46266  12.736   1.969   1.423  0.9184  0.4480 -0.0363
  343MOL0     H46267  12.967   1.714   1.745 -1.3784  1.3592 -0.0769
  343MOL0     H46268  13.155   1.658   1.841 -2.2576 -0.0364 -1.2507
  343MOL0     H46269  13.261   1.556   2.104  0.0046  1.9665  3.0215
  343MOL0     H46270  13.343   1.602   1.954  0.1072 -0.2466 -0.0968
  343MOL0     H46271  13.504   1.727   2.093 -2.4980  0.5664  0.5227
  343MOL0     H46272  13.429   1.666   2.239 -1.0480  1.6936  0.3583
  343MOL0     H46273  13.445   1.433   2.118 -0.6376  1.2456 -0.5488
  343MOL0     H46274  13.568   1.512   2.012  2.6386  0.6526  1.1170
  343MOL0     H46275  13.566   1.499   2.313 -0.1705  0.6086 -0.2243
  343MOL0     H46276  13.711   1.537   2.219 -0.0789 -0.1876  1.5270
  343MOL0     H46277  13.569   1.258   2.216  0.1545  0.9903 -1.3958
  343MOL0     H46278  13.708   1.310   2.316  1.3265  1.6670  0.1351
  343MOL0     H46279  13.684   1.235   2.024 -0.3728  0.3073  0.3242
  343MOL0     H46280  13.804   1.360   2.063  2.7014 -1.4664  2.3957
  343MOL0     H46281  13.892   1.120   2.052 -1.6559 -2.4651 -0.9202
  343MOL0     H46282  13.803   1.083   2.186 -1.0388  0.1922 -0.3465
  343MOL0     H46283  13.997   1.322   2.168  0.1403 -1.1367 -3.0425
  343MOL0     H46284  13.934   1.256   2.322 -2.1793 -3.9270  0.0745
  343MOL0     H46285  13.086   1.944   2.165 -2.2581 -0.6615  0.7821
  343MOL0     H46286  12.902   2.021   2.037  1.0077  0.2927  0.3040
  343MOL0     H46287  12.535   1.909   1.803 -0.9338  1.0040 -0.0784
  343MOL0     H46288  12.299   1.925   1.667  0.2038 -0.9077  1.3497
  343MOL0     H46289  10.979   2.389   0.649  4.2194  0.5918 -1.2155
  343MOL0     H46290  10.816   2.511   0.794 -0.3010 -1.2958 -1.7481
  343MOL0     H46291  10.914   2.979   1.196 -1.2766  2.8250 -2.8615
  343MOL0     H46292  10.737   3.106   1.291 -1.2224 -0.2090 -2.4404
  343MOL0     H46293  10.335   3.020   1.484 -0.8985  0.0402 -0.3854
  343MOL0     H46294  10.340   2.884   1.383 -0.2466 -0.3343  2.2357
  343MOL0     H46295  10.134   3.029   1.332  1.1576 -0.3125  3.1740
  343MOL0     H46296  10.247   3.005   1.197  0.4321 -3.0307  1.4096
  343MOL0     H46297  10.325   3.256   1.324  0.2183 -2.7248  3.1536
  343MOL0     H46298  10.150   3.241   1.367 -1.4163  0.4638 -2.0558
  343MOL0     H46299  10.203   3.373   1.147 -0.5456 -0.7913  0.6101
  343MOL0     H46300  10.254   3.218   1.076  1.9924 -1.2649  2.6789
  343MOL0     H46301   9.828   3.222   1.150  0.4497 -1.0953  1.1709
  343MOL0     H46302  10.457   2.795   1.242  0.8092 -0.7533  1.5537
  343MOL0     H46303  10.646   2.569   1.041 -1.5859 -1.5573  0.7495
  343MOL0     H46304  10.666   2.544   1.205  0.1722  2.5049  1.7212
  343MOL0     H46305  10.510   2.595   1.125  0.2272 -0.2351 -1.6068
  344MOL0     O46306   9.810   4.255   7.245 -0.4969  0.4818  0.4409
  344MOL0     C46307   9.701   4.210   7.275  0.5718  0.2043 -0.0843
  344MOL0     O46308   9.677   4.125   7.391 -0.7940 -0.1879  0.0367
  344MOL0     C46309   9.790   4.063   7.448  0.2869 -0.4915 -0.5090
  344MOL0     C46310   9.798   3.932   7.415 -0.2521  0.4388  0.5881
  344MOL0     C46311   9.902   3.852   7.469 -0.0115  0.0695  0.6909
  344MOL0     C46312   9.997   3.910   7.557  0.5383 -0.5589  0.0248
  344MOL0     O46313  10.117   3.838   7.598  0.2586 -0.2108 -0.0984
  344MOL0     C46314  10.215   3.918   7.673  0.8621  0.8691  0.2902
  344MOL0     C46315  10.341   3.862   7.717 -0.9846  0.0690 -0.0117
  344MOL0     C46316  10.426   3.974   7.777 -0.5217  0.6669  0.0486
  344MOL0     C46317  10.523   3.921   7.873 -0.4580  0.4627 -0.4360
  344MOL0     C46318  10.643   4.018   7.897  0.0890 -0.1822 -0.0312
  344MOL0     C46319  10.762   3.960   7.979  0.2386 -0.0644 -0.3675
  344MOL0     C46320  10.722   3.938   8.120  0.7217  0.2144  0.2936
  344MOL0     C46321  10.836   3.886   8.212 -0.2335  0.3049 -0.2803
  344MOL0     N46322  10.941   3.985   8.247  0.9080 -0.3262 -0.5204
  344MOL0     C46323  10.926   4.101   8.324  0.4115 -0.3103  0.3846
  344MOL0     C46324  11.047   4.143   8.358 -0.1203 -1.2995  0.3239
  344MOL0     C46325  11.095   4.264   8.431 -0.5298 -0.1841 -0.5748
  344MOL0     C46326  11.053   4.241   8.577  0.3346  0.6353  0.5885
  344MOL0     C46327  11.118   4.349   8.655 -0.4533  0.1736  0.6059
  344MOL0     C46328  11.069   4.361   8.801  0.5227 -0.3153  0.1579
  344MOL0     O46329  11.118   4.260   8.891  0.8574  0.3338  0.5476
  344MOL0     C46330  11.253   4.251   8.907 -0.5391 -0.4558  0.0242
  344MOL0     C46331  11.315   4.128   8.910  0.5523  0.0984 -1.5101
  344MOL0     C46332  11.454   4.120   8.928  0.3404  0.7023  0.6064
  344MOL0     C46333  11.536   4.229   8.940 -0.2461 -0.1015 -0.7136
  344MOL0     C46334  11.678   4.211   8.937  0.0866 -0.2205 -0.0597
  344MOL0     O46335  11.757   4.317   8.955  0.0722 -0.6427 -0.0785
  344MOL0     C46336  11.897   4.299   8.949 -0.0738 -0.5909 -0.1775
  344MOL0     C46337  11.962   4.229   9.046 -0.1729 -0.5382 -0.5192
  344MOL0     C46338  12.104   4.220   9.044 -0.0869 -0.2103  0.0325
  344MOL0     C46339  12.174   4.305   8.949  0.5701  0.5033 -1.1219
  344MOL0     O46340  12.313   4.314   8.943 -0.3821  0.2422  0.3021
  344MOL0     C46341  12.377   4.307   9.077 -0.7273  0.2041  0.1072
  344MOL0     C46342  12.520   4.357   9.053  0.4925 -0.3656 -0.5925
  344MOL0     C46343  12.608   4.327   9.175 -0.0688  0.6474  0.9165
  344MOL0     C46344  12.750   4.395   9.163 -0.3884  0.3761  0.3841
  344MOL0     C46345  12.831   4.349   9.042  0.2828 -0.6985  0.6498
  344MOL0     C46346  12.967   4.417   9.050 -0.8386 -0.5596  1.0779
  344MOL0     C46347  13.062   4.370   8.938 -0.5831 -0.2335  0.3376
  344MOL0     C46348  13.208   4.410   8.975  0.3398 -0.5604  0.0344
  344MOL0    Cl46349  13.328   4.364   8.855  0.2794 -0.2785 -0.0274
  344MOL0     C46350  12.104   4.376   8.857 -0.1596 -0.2693 -0.8480
  344MOL0     C46351  11.965   4.370   8.845 -0.4097  0.1330 -0.3543
  344MOL0     O46352  11.713   4.097   8.940 -0.0609 -0.0199 -0.1146
  344MOL0     C46353  11.471   4.354   8.940  0.5472  0.0817  1.0023
  344MOL0     C46354  11.337   4.363   8.924  0.4118  0.5530 -0.1931
  344MOL0     N46355  11.140   4.056   8.284 -0.3088 -0.5700  0.1181
  344MOL0     N46356  11.074   3.956   8.230  0.1772  0.1491  0.3112
  344MOL0     C46357   9.976   4.049   7.587  0.0338 -0.1491  0.4541
  344MOL0     C46358   9.879   4.129   7.532 -0.1176 -0.5819  0.3629
  344MOL0     C46359   9.582   4.239   7.190 -0.1170  0.1260  0.0320
  344MOL0     C46360   9.610   4.295   7.065 -0.3770 -0.2175 -0.5404
  344MOL0     C46361   9.505   4.343   6.983 -0.2129  1.0040  0.7420
  344MOL0     C46362   9.369   4.319   7.021 -0.3877  0.4659 -0.1898
  344MOL0     O46363   9.280   4.371   6.940  0.5843 -0.0807 -0.4363
  344MOL0     C46364   9.136   4.359   6.970  0.5176  0.0226  0.4108
  344MOL0     C46365   9.056   4.416   6.848  0.1098  0.5349 -0.8155
  344MOL0     C46366   8.919   4.461   6.893  0.0110 -0.1949  0.3432
  344MOL0     C46367   8.812   4.460   6.787 -0.2605  0.4922  0.8341
  344MOL0     C46368   8.791   4.343   6.697 -0.0327 -0.3982  0.7235
  344MOL0     C46369   8.786   4.244   6.635  0.2038 -0.0374  0.3221
  344MOL0     C46370   9.350   4.250   7.142  0.7059  0.4702  0.5657
  344MOL0     C46371   9.455   4.204   7.217  0.1034  0.1481 -0.3683
  344MOL0     C46372   9.414   4.118   7.329  0.3432 -0.3920  0.3899
  344MOL0     H46373   9.733   3.885   7.342 -0.1586 -0.2488  0.9348
  344MOL0     H46374   9.919   3.748   7.443 -0.2023  0.1149  0.3777
  344MOL0     H46375  10.235   4.010   7.618 -0.7059  0.8019 -0.4436
  344MOL0     H46376  10.168   3.951   7.766 -2.1581 -1.4918 -0.2533
  344MOL0     H46377  10.396   3.832   7.627 -1.2555  0.2430 -0.2394
  344MOL0     H46378  10.332   3.770   7.775  2.3261  2.0510  4.1771
  344MOL0     H46379  10.352   4.042   7.821 -0.5710  1.1156 -0.7092
  344MOL0     H46380  10.462   4.037   7.695 -1.6787  0.9740 -0.2356
  344MOL0     H46381  10.464   3.902   7.963  0.3833  1.5843  0.3874
  344MOL0     H46382  10.552   3.821   7.841 -1.2571 -0.1645  0.7105
  344MOL0     H46383  10.683   4.051   7.800 -2.4189 -1.7371 -1.6957
  344MOL0     H46384  10.605   4.110   7.941  1.0880  0.8214 -1.1879
  344MOL0     H46385  10.808   3.870   7.938 -1.4685 -1.3855  0.5143
  344MOL0     H46386  10.838   4.039   7.981  1.1720 -0.9350 -0.6605
  344MOL0     H46387  10.635   3.871   8.114  0.1586  1.0513 -2.7828
  344MOL0     H46388  10.683   4.033   8.157  2.5180  1.7401 -1.5598
  344MOL0     H46389  10.797   3.861   8.311  0.8360  0.2714  0.1493
  344MOL0     H46390  10.875   3.797   8.162 -3.4915 -1.8990  0.7884
  344MOL0     H46391  10.831   4.144   8.354 -0.5476 -0.3882 -2.3056
  344MOL0     H46392  11.205   4.265   8.429 -0.5110 -1.3848 -1.5854
  344MOL0     H46393  11.053   4.360   8.401  2.2936  1.3014 -0.1015
  344MOL0     H46394  10.946   4.260   8.592  0.2875  0.8747  0.0090
  344MOL0     H46395  11.078   4.145   8.622 -1.7807  0.8504  2.3757
  344MOL0     H46396  11.096   4.437   8.595  0.6043 -0.5058 -0.8564
  344MOL0     H46397  11.226   4.330   8.643 -0.0676  0.7852  2.7265
  344MOL0     H46398  10.961   4.379   8.805  0.2231 -2.1027  1.2541
  344MOL0     H46399  11.101   4.456   8.843  0.4115 -0.4265  0.4967
  344MOL0     H46400  11.250   4.041   8.904 -0.3302  0.7831 -2.0447
  344MOL0     H46401  11.504   4.025   8.946 -1.2643 -0.0427  1.2937
  344MOL0     H46402  11.905   4.184   9.127 -1.0227 -0.6317 -1.1435
  344MOL0     H46403  12.164   4.157   9.110 -0.5054 -1.4829 -0.7651
  344MOL0     H46404  12.312   4.370   9.138 -1.5198  0.9953 -1.4757
  344MOL0     H46405  12.375   4.210   9.127  0.1462  0.7747  1.2761
  344MOL0     H46406  12.564   4.305   8.968  2.5199 -1.0132  0.7906
  344MOL0     H46407  12.519   4.463   9.024  2.1587 -1.1032 -3.8810
  344MOL0     H46408  12.563   4.378   9.261  2.3518  3.7718  0.4968
  344MOL0     H46409  12.617   4.220   9.197 -0.0495 -0.1342 -2.3964
  344MOL0     H46410  12.808   4.370   9.253 -0.3803 -3.8878 -0.5994
  344MOL0     H46411  12.737   4.504   9.163 -1.7000  0.2406 -0.4552
  344MOL0     H46412  12.781   4.361   8.946 -2.1853 -1.9214  1.6672
  344MOL0     H46413  12.843   4.241   9.057 -0.2959 -0.7673  0.6607
  344MOL0     H46414  12.957   4.524   9.033  4.0229 -0.0006  0.1993
  344MOL0     H46415  13.015   4.408   9.147 -0.2977  0.2645  0.8968
  344MOL0     H46416  13.035   4.416   8.843 -2.5413  0.3147  1.1199
  344MOL0     H46417  13.053   4.261   8.931  3.4399 -0.6333 -2.6282
  344MOL0     H46418  13.218   4.519   8.977 -2.0192 -0.2777 -0.8973
  344MOL0     H46419  13.235   4.377   9.076  2.2904 -0.8649 -0.5507
  344MOL0     H46420  12.161   4.443   8.793 -1.4338  1.9652  0.2611
  344MOL0     H46421  11.924   4.421   8.758 -0.7175 -0.7175 -0.7157
  344MOL0     H46422  11.534   4.441   8.955  0.6943  0.1557  0.0174
  344MOL0     H46423  11.294   4.460   8.900  0.6311  0.2680 -1.9370
  344MOL0     H46424  10.050   4.094   7.653  3.7681 -3.3166 -1.1480
  344MOL0     H46425   9.870   4.234   7.554  0.1076 -0.5971  0.5185
  344MOL0     H46426   9.710   4.324   7.034 -0.3942 -0.5044 -0.8765
  344MOL0     H46427   9.518   4.401   6.892 -0.3088  1.3862  0.9671
  344MOL0     H46428   9.112   4.412   7.062 -0.2128 -0.4554  0.5024
  344MOL0     H46429   9.097   4.258   6.984  2.1572 -0.8480 -0.8233
  344MOL0     H46430   9.048   4.337   6.773  1.0539  0.1307 -0.4946
  344MOL0     H46431   9.116   4.494   6.800 -0.9002  1.7751 -0.1256
  344MOL0     H46432   8.921   4.561   6.936  0.3110 -0.1796  0.2987
  344MOL0     H46433   8.897   4.390   6.973 -0.0308  0.3394  0.8137
  344MOL0     H46434   8.719   4.474   6.842 -1.5142 -1.2065 -0.7240
  344MOL0     H46435   8.818   4.547   6.721  2.1985  0.1445  0.4908
  344MOL0     H46436   8.798   4.153   6.580  0.7710 -0.4340  1.0784
  344MOL0     H46437   9.251   4.213   7.167  1.5434 -1.6509  0.9077
  344MOL0     H46438   9.317   4.068   7.319  0.3730 -0.3575 -0.0888
  344MOL0     H46439   9.476   4.028   7.329 -0.5680 -1.0611  1.7873
  344MOL0     H46440   9.421   4.173   7.424 -0.7647 -0.0847  0.3066
  345MOL0     O46441   9.004   2.834  10.366 -1.1765  0.3841 -0.2108
  345MOL0     C46442   8.947   2.762  10.450  0.6566  0.1297 -0.3508
  345MOL0     O46443   9.000   2.673  10.539 -0.3305  0.4600 -0.1829
  345MOL0     C46444   9.132   2.631  10.540  0.0440 -0.3530  0.0208
  345MOL0     C46445   9.167   2.542  10.643 -0.2830  0.2502 -0.6465
  345MOL0     C46446   9.295   2.498  10.666  0.3232 -0.5124 -0.4739
  345MOL0     C46447   9.400   2.538  10.586 -0.5768 -0.3011 -0.1960
  345MOL0     O46448   9.519   2.484  10.613  0.1974 -0.4017  0.0250
  345MOL0     C46449   9.647   2.555  10.579  0.4769  0.0004  0.2794
  345MOL0     C46450   9.753   2.504  10.662  0.4337 -0.1433 -0.4708
  345MOL0     C46451   9.890   2.511  10.583 -0.7506 -0.7487 -1.3792
  345MOL0     C46452  10.008   2.451  10.662 -0.5296 -0.2226  0.5341
  345MOL0     C46453  10.118   2.401  10.568  0.1668  0.4337  0.6111
  345MOL0     C46454  10.238   2.344  10.638 -0.2496  0.2471  0.1856
  345MOL0     C46455  10.354   2.286  10.546  0.0981  0.3590 -0.6058
  345MOL0     C46456  10.440   2.393  10.481  0.6068 -0.7163  0.2423
  345MOL0     N46457  10.556   2.329  10.427  1.1063 -1.1348 -0.4025
  345MOL0     C46458  10.559   2.244  10.320  0.2245  0.7885 -0.5819
  345MOL0     C46459  10.682   2.188  10.316  0.2293 -0.7396  0.2852
  345MOL0     C46460  10.730   2.100  10.211  0.9124 -0.0360  0.2557
  345MOL0     C46461  10.803   2.184  10.104  0.1173 -0.4148 -0.2027
  345MOL0     C46462  10.936   2.255  10.150 -0.2513 -0.1000  0.1866
  345MOL0     C46463  11.009   2.319  10.028 -0.4761 -0.4571 -0.2462
  345MOL0     O46464  11.112   2.228   9.982  0.1792  0.1465  0.0329
  345MOL0     C46465  11.216   2.283   9.918  0.4771  0.1191  0.1805
  345MOL0     C46466  11.342   2.255   9.971  0.2192 -0.4302  0.4821
  345MOL0     C46467  11.457   2.282   9.903 -0.3530 -0.5169  0.4020
  345MOL0     C46468  11.452   2.365   9.790 -0.2148  0.5285 -0.1360
  345MOL0     C46469  11.580   2.403   9.729 -0.1609  1.6878  0.2305
  345MOL0     O46470  11.571   2.500   9.637  0.1394  0.1132  0.0952
  345MOL0     C46471  11.694   2.516   9.573  0.7014 -1.0913  0.0953
  345MOL0     C46472  11.739   2.422   9.483 -0.3584 -0.6399  0.3126
  345MOL0     C46473  11.869   2.438   9.423  0.3713  0.1883  0.3832
  345MOL0     C46474  11.946   2.551   9.453 -0.8864 -0.1488  0.2022
  345MOL0     O46475  12.064   2.568   9.379  0.7211  0.5677  0.4146
  345MOL0     C46476  12.156   2.662   9.439 -0.4929  0.9598 -0.0029
  345MOL0     C46477  12.297   2.655   9.373  0.1250  0.1640 -0.4847
  345MOL0     C46478  12.311   2.698   9.226 -0.4377 -0.3575 -0.3646
  345MOL0     C46479  12.458   2.721   9.195  0.2408  0.4654  0.1604
  345MOL0     C46480  12.474   2.713   9.042  1.3334 -0.1488 -0.0159
  345MOL0     C46481  12.617   2.703   9.000 -0.3559  0.2598 -0.0828
  345MOL0     C46482  12.712   2.824   9.043 -0.2882  0.3198 -0.0054
  345MOL0     C46483  12.649   2.965   9.006  0.0143  1.7598 -1.1783
  345MOL0    Cl46484  12.566   2.988   8.847  0.4017  0.1746 -0.6193
  345MOL0     C46485  11.889   2.651   9.538  0.5631 -0.0665 -0.8794
  345MOL0     C46486  11.762   2.632   9.594 -0.3034 -0.8678 -0.9773
  345MOL0     O46487  11.682   2.332   9.744 -0.3469  0.7871  0.1259
  345MOL0     C46488  11.322   2.404   9.745  0.5055  0.0946  0.0615
  345MOL0     C46489  11.210   2.360   9.805 -0.4397  0.2590 -0.0642
  345MOL0     N46490  10.753   2.230  10.424 -0.1733 -0.0534 -0.3578
  345MOL0     N46491  10.678   2.315  10.484 -0.8644 -0.4520  0.2891
  345MOL0     C46492   9.370   2.624  10.478  0.9055  0.2677  1.0675
  345MOL0     C46493   9.234   2.667  10.451 -0.6748 -0.0340  0.9055
  345MOL0     C46494   8.788   2.784  10.462 -0.0682  0.3193 -0.1632
  345MOL0     C46495   8.717   2.843  10.351 -0.1673  0.3261 -0.6346
  345MOL0     C46496   8.583   2.862  10.354  0.9788  0.4414  0.8444
  345MOL0     C46497   8.512   2.853  10.475  0.1827  0.1381  0.6938
  345MOL0     O46498   8.374   2.874  10.476 -0.0618  0.0285 -0.2717
  345MOL0     C46499   8.318   2.950  10.590  0.0836 -0.0059  0.8893
  345MOL0     C46500   8.196   3.028  10.531 -0.1490 -0.0630  0.3055
  345MOL0     C46501   8.083   2.932  10.499  0.4258  0.2946  0.4085
  345MOL0     C46502   7.975   2.909  10.606 -0.1159  0.2519  0.0638
  345MOL0     C46503   8.018   2.838  10.732  0.0392  0.9244 -0.4929
  345MOL0     C46504   8.062   2.773  10.826  0.1529 -0.5076 -0.1009
  345MOL0     C46505   8.575   2.800  10.587  0.0515 -0.3566  0.0763
  345MOL0     C46506   8.709   2.756  10.579 -0.4674 -0.9229 -0.5075
  345MOL0     C46507   8.766   2.692  10.704 -0.0152 -0.0356 -0.0340
  345MOL0     H46508   9.084   2.525  10.711  0.6435 -1.0258  0.2038
  345MOL0     H46509   9.302   2.426  10.747 -2.5531 -0.7045 -0.2695
  345MOL0     H46510   9.685   2.550  10.477  0.0243  1.5179  0.0196
  345MOL0     H46511   9.627   2.660  10.599 -0.5884 -0.0295 -0.4968
  345MOL0     H46512   9.745   2.395  10.670 -0.5433  0.0110  5.4162
  345MOL0     H46513   9.762   2.555  10.759  2.0257  1.9804 -1.6490
  345MOL0     H46514   9.921   2.612  10.556 -1.7435  0.1194  0.5382
  345MOL0     H46515   9.876   2.455  10.490 -3.1744 -0.0600 -1.5034
  345MOL0     H46516  10.050   2.519  10.737 -1.2065  0.9205 -0.0939
  345MOL0     H46517   9.976   2.362  10.717 -0.5543  0.5423  1.7954
  345MOL0     H46518  10.085   2.322  10.499 -1.0688  2.2066 -0.9171
  345MOL0     H46519  10.150   2.481  10.501  1.1543  0.1044  0.6741
  345MOL0     H46520  10.277   2.426  10.699 -1.5970 -0.2881  1.8648
  345MOL0     H46521  10.193   2.275  10.710 -0.9211  0.7487  0.2476
  345MOL0     H46522  10.320   2.217  10.468  1.7861 -0.6513 -0.4763
  345MOL0     H46523  10.424   2.234  10.612 -2.2566 -0.3191  1.5365
  345MOL0     H46524  10.400   2.460  10.404 -1.9367 -1.4793  0.8210
  345MOL0     H46525  10.468   2.460  10.563 -2.9813 -0.9739  1.8383
  345MOL0     H46526  10.477   2.203  10.262  1.3934 -0.4817 -1.4180
  345MOL0     H46527  10.794   2.024  10.257 -1.4742 -0.2012  3.6091
  345MOL0     H46528  10.649   2.053  10.155  2.1728 -0.3664 -1.3940
  345MOL0     H46529  10.831   2.125  10.016  0.5461 -3.0865  1.6176
  345MOL0     H46530  10.747   2.271  10.068 -0.1591 -0.6307 -0.3021
  345MOL0     H46531  11.013   2.195  10.198  1.4432 -0.2733 -2.5290
  345MOL0     H46532  10.913   2.341  10.215 -0.9212  1.0560 -1.4966
  345MOL0     H46533  11.058   2.415  10.044 -0.4926 -0.5284  0.2622
  345MOL0     H46534  10.933   2.340   9.952 -1.3231  4.2381  1.5623
  345MOL0     H46535  11.346   2.202  10.065 -1.6174  0.9415  1.4117
  345MOL0     H46536  11.553   2.244   9.935  1.2431  2.2220 -0.7339
  345MOL0     H46537  11.699   2.322   9.471  0.0179 -0.5479 -2.1658
  345MOL0     H46538  11.913   2.363   9.359  1.9625 -1.1997  2.9275
  345MOL0     H46539  12.119   2.764   9.438 -1.7874  0.5103  0.0765
  345MOL0     H46540  12.163   2.631   9.544 -2.3080  0.3230 -0.0365
  345MOL0     H46541  12.367   2.710   9.437 -1.3384  2.2281 -0.5623
  345MOL0     H46542  12.319   2.549   9.384 -2.6073 -0.2593  2.3408
  345MOL0     H46543  12.266   2.623   9.160  1.2178  0.2392 -2.2561
  345MOL0     H46544  12.258   2.793   9.215  1.6077  0.6281 -2.4276
  345MOL0     H46545  12.511   2.632   9.232  2.1174  1.7796  0.7776
  345MOL0     H46546  12.489   2.810   9.250 -0.0003 -0.4452  1.8440
  345MOL0     H46547  12.428   2.800   8.995 -1.3148 -0.2921  2.0562
  345MOL0     H46548  12.415   2.629   9.002 -0.9268  0.5259  1.7187
  345MOL0     H46549  12.660   2.609   9.034  0.1112  0.0999 -1.0637
  345MOL0     H46550  12.619   2.693   8.891 -0.9124 -0.7198 -0.0170
  345MOL0     H46551  12.812   2.801   9.006 -0.7479  0.1044 -1.1416
  345MOL0     H46552  12.724   2.823   9.152  0.9117 -0.5989 -0.1292
  345MOL0     H46553  12.572   2.970   9.083  2.0205 -2.0758  1.3673
  345MOL0     H46554  12.720   3.046   9.023  1.4631 -0.0968  2.7670
  345MOL0     H46555  11.933   2.748   9.559 -0.9307  0.6263 -0.7989
  345MOL0     H46556  11.727   2.716   9.654 -0.7993  0.1642 -2.6622
  345MOL0     H46557  11.312   2.475   9.664 -1.3456 -0.3785 -0.1650
  345MOL0     H46558  11.115   2.378   9.757 -2.5209 -1.4202  3.0658
  345MOL0     H46559   9.441   2.658  10.404 -0.1505  0.0879 -0.0472
  345MOL0     H46560   9.217   2.737  10.370  1.7710 -0.0245  0.3224
  345MOL0     H46561   8.762   2.858  10.253  2.6840 -3.9633 -0.2666
  345MOL0     H46562   8.526   2.897  10.269 -2.0869 -2.4381  1.4993
  345MOL0     H46563   8.388   3.019  10.638 -1.0968  2.1183 -0.3181
  345MOL0     H46564   8.288   2.883  10.672  0.1272  1.0407  1.7850
  345MOL0     H46565   8.215   3.083  10.438  0.6254 -0.5701  0.1568
  345MOL0     H46566   8.156   3.098  10.605 -1.8940 -0.9665  0.2643
  345MOL0     H46567   8.125   2.834  10.474 -1.0806  0.1413 -1.9572
  345MOL0     H46568   8.031   2.958  10.406 -3.0935 -0.7575  1.8829
  345MOL0     H46569   7.930   3.006  10.627  1.2709  0.9725 -0.1334
  345MOL0     H46570   7.898   2.840  10.570  0.3212  1.1321 -2.8036
  345MOL0     H46571   8.067   2.705  10.909 -0.0541 -0.3852  0.0127
  345MOL0     H46572   8.516   2.803  10.678  0.4969 -0.7520  0.3792
  345MOL0     H46573   8.798   2.592  10.674 -0.4210  0.2832 -1.6283
  345MOL0     H46574   8.842   2.758  10.747 -0.8873  1.6970 -1.0456
  345MOL0     H46575   8.685   2.669  10.775  0.7704 -0.3417  0.7796
  346MOL0     O46576   6.259   0.321   1.394  0.8617 -0.5662  0.4956
  346MOL0     C46577   6.227   0.441   1.383 -0.1496 -0.9197  0.0659
  346MOL0     O46578   6.311   0.550   1.400  0.4531  0.2441  0.1391
  346MOL0     C46579   6.441   0.532   1.437  0.5848 -0.2262 -0.6332
  346MOL0     C46580   6.483   0.615   1.542 -0.3319  0.3010 -0.6594
  346MOL0     C46581   6.620   0.601   1.586 -0.1586  0.1550  0.4500
  346MOL0     C46582   6.704   0.511   1.527  0.2675  0.6053  0.1394
  346MOL0     O46583   6.834   0.517   1.574  1.0253 -0.3935 -0.0743
  346MOL0     C46584   6.934   0.444   1.502  0.4515  0.3649  0.3681
  346MOL0     C46585   7.067   0.469   1.568 -0.4230 -0.0461 -0.4301
  346MOL0     C46586   7.177   0.414   1.481  0.7811  0.0409  0.2219
  346MOL0     C46587   7.319   0.439   1.531 -0.0498 -0.0865  0.6892
  346MOL0     C46588   7.375   0.583   1.513  0.5196 -0.0053 -0.3585
  346MOL0     C46589   7.330   0.679   1.631 -0.5713 -0.1334 -0.7503
  346MOL0     C46590   7.414   0.804   1.616 -1.0349 -0.5419  0.3292
  346MOL0     C46591   7.385   0.906   1.725 -0.4448  0.0526  0.1352
  346MOL0     N46592   7.248   0.965   1.707 -0.0613 -0.3807  0.0723
  346MOL0     C46593   7.148   0.914   1.782  0.9008 -0.2995  0.8780
  346MOL0     C46594   7.045   0.995   1.752 -0.1662 -0.2694 -0.7918
  346MOL0     C46595   6.909   0.990   1.813  0.5566 -0.0169 -0.0590
  346MOL0     C46596   6.838   0.858   1.790  0.4697 -0.0892 -0.3922
  346MOL0     C46597   6.713   0.856   1.884  0.3657 -0.3806  0.6981
  346MOL0     C46598   6.596   0.952   1.830 -0.1603 -0.0301 -0.3103
  346MOL0     O46599   6.488   0.953   1.930  0.8064 -0.2172 -0.0244
  346MOL0     C46600   6.357   0.946   1.901  0.0828  0.1107 -0.3290
  346MOL0     C46601   6.308   0.934   1.764 -0.0405  0.2119 -0.1578
  346MOL0     C46602   6.169   0.935   1.747 -0.5039  0.4602  0.4794
  346MOL0     C46603   6.072   0.936   1.849 -0.5606  0.3651 -0.0164
  346MOL0     C46604   5.927   0.934   1.813 -0.4029  0.3113 -0.1544
  346MOL0     O46605   5.839   0.985   1.903  0.3034  0.2698  0.3656
  346MOL0     C46606   5.706   0.967   1.878  0.1690 -1.0961 -0.0349
  346MOL0     C46607   5.624   1.081   1.855  0.0726  0.0248 -0.0579
  346MOL0     C46608   5.493   1.065   1.825 -0.0291  0.3644  0.0404
  346MOL0     C46609   5.428   0.945   1.846  0.8470  0.2205 -0.4138
  346MOL0     O46610   5.292   0.948   1.832  0.4343  0.3023 -0.6185
  346MOL0     C46611   5.211   0.825   1.833  0.2075  0.5637 -0.2546
  346MOL0     C46612   5.076   0.833   1.759 -0.2042  0.0408  0.3923
  346MOL0     C46613   4.956   0.784   1.846  0.1185 -0.7125  0.0897
  346MOL0     C46614   4.826   0.786   1.772  0.2948 -0.5036  0.1697
  346MOL0     C46615   4.711   0.748   1.871 -0.1786 -1.0900  0.8676
  346MOL0     C46616   4.577   0.755   1.800  0.0011 -0.3319  0.1891
  346MOL0     C46617   4.472   0.691   1.887  0.1909 -0.0349 -0.5087
  346MOL0     C46618   4.335   0.741   1.858 -0.8311  0.4092  0.2801
  346MOL0    Cl46619   4.308   0.679   1.683 -0.1051  0.2014 -0.0625
  346MOL0     C46620   5.507   0.836   1.871 -1.4278  0.5415 -0.1043
  346MOL0     C46621   5.646   0.838   1.879 -0.2403 -0.1175 -0.4378
  346MOL0     O46622   5.891   0.891   1.702  0.1072 -0.1252  0.1019
  346MOL0     C46623   6.127   0.951   1.977 -0.5579 -0.5555  0.1673
  346MOL0     C46624   6.259   0.952   2.003 -0.1855  0.4204  0.1428
  346MOL0     N46625   7.077   1.086   1.651 -0.8515  0.0248 -0.1126
  346MOL0     N46626   7.199   1.062   1.625  0.4344  0.4032  1.1544
  346MOL0     C46627   6.651   0.423   1.438 -0.6529  0.0947 -1.1408
  346MOL0     C46628   6.524   0.426   1.396  0.2087 -0.1433  0.0828
  346MOL0     C46629   6.086   0.456   1.347  0.1135 -0.7029 -0.2772
  346MOL0     C46630   6.024   0.362   1.263 -0.1634  0.1842  0.9918
  346MOL0     C46631   5.892   0.361   1.228 -0.1766 -0.7744 -0.5992
  346MOL0     C46632   5.804   0.457   1.276 -0.3559 -0.0104  0.0172
  346MOL0     O46633   5.665   0.462   1.257  0.2065 -0.5601 -0.3852
  346MOL0     C46634   5.614   0.375   1.154  0.1747  0.1610  0.0741
  346MOL0     C46635   5.487   0.435   1.114  0.0603  0.5334  0.3514
  346MOL0     C46636   5.393   0.332   1.061  0.3759 -0.2136  0.1899
  346MOL0     C46637   5.246   0.371   1.023  0.3239 -0.2583 -0.0793
  346MOL0     C46638   5.197   0.255   0.942 -0.0158 -0.4184  0.4004
  346MOL0     C46639   5.148   0.177   0.871  0.6354 -0.0455 -0.3260
  346MOL0     C46640   5.861   0.550   1.364 -0.1479 -0.3373 -0.1951
  346MOL0     C46641   5.994   0.556   1.404 -0.1237  0.3685  0.0763
  346MOL0     C46642   6.047   0.659   1.500 -0.1462 -0.5170 -0.4898
  346MOL0     H46643   6.411   0.678   1.594 -1.4057  0.2920 -2.0881
  346MOL0     H46644   6.650   0.677   1.658  2.5174  0.1375 -0.5307
  346MOL0     H46645   6.917   0.336   1.500  2.2332  0.0593 -0.4055
  346MOL0     H46646   6.926   0.494   1.405 -0.0591  2.7888  1.5750
  346MOL0     H46647   7.071   0.416   1.664  0.0234 -3.6761 -2.3087
  346MOL0     H46648   7.060   0.577   1.585 -0.5019 -0.4905  3.2252
  346MOL0     H46649   7.168   0.456   1.381 -2.3678  1.8390  1.1288
  346MOL0     H46650   7.172   0.305   1.483  0.6944  0.0252 -0.6802
  346MOL0     H46651   7.313   0.401   1.633 -0.4498 -0.2994  0.5907
  346MOL0     H46652   7.372   0.368   1.467  0.8713  0.0477  1.2896
  346MOL0     H46653   7.484   0.578   1.515  0.5027 -0.2207  0.4396
  346MOL0     H46654   7.355   0.636   1.419  3.8391 -0.9339 -1.7374
  346MOL0     H46655   7.222   0.693   1.625 -0.9142 -1.9089  0.4090
  346MOL0     H46656   7.341   0.629   1.728 -0.2150  1.3433 -0.0012
  346MOL0     H46657   7.400   0.837   1.513  0.4924 -1.2008 -0.1316
  346MOL0     H46658   7.523   0.792   1.612 -0.7800  1.5227 -0.1967
  346MOL0     H46659   7.411   0.863   1.822 -3.1866  1.1595  1.4722
  346MOL0     H46660   7.449   0.995   1.719  1.5352 -1.2612  0.6745
  346MOL0     H46661   7.146   0.836   1.858  0.0229 -2.5207 -1.2596
  346MOL0     H46662   6.920   1.022   1.917 -1.5181 -0.0504  0.1984
  346MOL0     H46663   6.858   1.059   1.746  0.9950 -0.6124 -1.0429
  346MOL0     H46664   6.815   0.846   1.684  2.2375 -0.9834 -0.7217
  346MOL0     H46665   6.905   0.776   1.818  2.3711  1.9363  1.4139
  346MOL0     H46666   6.742   0.875   1.988 -1.1959 -1.0973  1.2979
  346MOL0     H46667   6.675   0.754   1.892 -4.3455  1.2604  2.4915
  346MOL0     H46668   6.562   0.912   1.734 -1.6350  1.7125 -0.5725
  346MOL0     H46669   6.630   1.055   1.817 -0.5289  0.1256 -0.0680
  346MOL0     H46670   6.371   0.929   1.676  0.0767  3.2042 -0.3382
  346MOL0     H46671   6.147   0.916   1.643 -1.6872 -1.1423  0.9886
  346MOL0     H46672   5.668   1.180   1.850 -1.3156  0.6111 -1.3748
  346MOL0     H46673   5.444   1.158   1.797  1.5469  0.9608 -0.8723
  346MOL0     H46674   5.259   0.740   1.785  1.4797 -0.3015  2.3941
  346MOL0     H46675   5.202   0.793   1.937  2.7641 -0.9821 -0.4431
  346MOL0     H46676   5.060   0.939   1.735 -2.9004 -0.8385 -2.3170
  346MOL0     H46677   5.084   0.785   1.662 -1.0167 -2.2901  1.3942
  346MOL0     H46678   4.979   0.677   1.855 -1.4250 -1.1536 -0.8788
  346MOL0     H46679   4.950   0.851   1.932 -1.3014  2.7229 -2.4543
  346MOL0     H46680   4.826   0.732   1.677  2.0088 -0.5902  0.1887
  346MOL0     H46681   4.803   0.888   1.742 -1.4103 -1.3286 -1.5688
  346MOL0     H46682   4.693   0.808   1.961 -3.3968  1.4010 -1.2220
  346MOL0     H46683   4.720   0.644   1.904 -1.3507 -1.1842  0.9305
  346MOL0     H46684   4.559   0.858   1.766 -1.4620 -1.3833 -2.6050
  346MOL0     H46685   4.581   0.704   1.703  1.6479 -0.7551  0.4560
  346MOL0     H46686   4.495   0.723   1.989  2.8054  2.9094 -1.8580
  346MOL0     H46687   4.484   0.582   1.882 -0.5997 -0.0981 -1.2956
  346MOL0     H46688   4.263   0.705   1.932 -1.3870  1.2491  0.1515
  346MOL0     H46689   4.328   0.850   1.859  0.7433  0.5326  0.0026
  346MOL0     H46690   5.457   0.740   1.873 -0.5328  0.0748  0.7346
  346MOL0     H46691   5.709   0.750   1.876  0.4070  0.1120  2.6746
  346MOL0     H46692   6.050   0.953   2.054 -3.2243  0.8843 -2.3276
  346MOL0     H46693   6.282   0.949   2.109 -2.8813  0.0861  0.7773
  346MOL0     H46694   6.707   0.336   1.405  2.1459  0.8560  1.2070
  346MOL0     H46695   6.478   0.355   1.328 -1.1397  1.2101 -0.4727
  346MOL0     H46696   6.079   0.277   1.224 -1.8607  0.0666 -1.3439
  346MOL0     H46697   5.852   0.273   1.177 -1.8161  0.2905 -1.2702
  346MOL0     H46698   5.614   0.271   1.189  0.4620  0.5523  1.2745
  346MOL0     H46699   5.680   0.367   1.067 -0.5113 -0.9447 -0.3698
  346MOL0     H46700   5.508   0.519   1.047 -0.4588  0.3575 -0.0360
  346MOL0     H46701   5.445   0.471   1.209  0.6120 -2.3349  1.8146
  346MOL0     H46702   5.378   0.259   1.141 -2.7604  1.8164  1.7011
  346MOL0     H46703   5.437   0.283   0.973 -1.0357 -0.5697 -0.3451
  346MOL0     H46704   5.185   0.382   1.113 -2.4020  0.6436 -1.9156
  346MOL0     H46705   5.249   0.463   0.964  3.0704 -0.9592 -1.2057
  346MOL0     H46706   5.089   0.103   0.822 -0.8459  2.0318 -1.8498
  346MOL0     H46707   5.781   0.615   1.398  0.2450 -0.3857  0.8599
  346MOL0     H46708   5.973   0.738   1.514  1.0328  1.0590 -2.6207
  346MOL0     H46709   6.076   0.603   1.589 -1.6144 -1.4147 -0.5404
  346MOL0     H46710   6.136   0.714   1.467  1.3481 -2.2174  0.4776
  347MOL0     O46711   1.055   4.155   6.432 -0.0214 -0.0868 -0.3175
  347MOL0     C46712   1.035   4.192   6.545  0.9973 -0.1931 -0.2644
  347MOL0     O46713   1.139   4.207   6.639  0.6904  0.9631  0.3658
  347MOL0     C46714   1.273   4.194   6.608  0.2755  0.1820  0.3391
  347MOL0     C46715   1.354   4.261   6.702 -0.1508  0.1024 -0.0340
  347MOL0     C46716   1.493   4.269   6.691  0.0841 -0.2127 -1.1140
  347MOL0     C46717   1.558   4.200   6.582  0.1227 -0.7565 -0.4046
  347MOL0     O46718   1.695   4.216   6.576  0.1586 -0.9008  0.3485
  347MOL0     C46719   1.783   4.100   6.593 -0.4891 -0.1991  1.1610
  347MOL0     C46720   1.915   4.154   6.542  0.5898  0.0222 -0.2501
  347MOL0     C46721   2.019   4.034   6.525  0.2375 -0.7169  0.3294
  347MOL0     C46722   2.158   4.092   6.538 -0.6156 -0.1479 -0.2159
  347MOL0     C46723   2.274   3.993   6.527 -1.2908 -0.0958 -0.2764
  347MOL0     C46724   2.415   4.060   6.514  0.0087  0.7761  0.0543
  347MOL0     C46725   2.522   3.976   6.583 -0.6733  0.2334  0.0398
  347MOL0     C46726   2.558   4.008   6.732  0.5782 -0.4915 -1.1441
  347MOL0     N46727   2.679   3.943   6.787  0.6301  0.6370  0.4029
  347MOL0     C46728   2.787   3.925   6.704 -0.1796 -0.1699 -0.4460
  347MOL0     C46729   2.878   3.867   6.787  0.1686 -0.8806 -0.0331
  347MOL0     C46730   3.007   3.821   6.744 -0.8220  0.7080  0.0375
  347MOL0     C46731   3.092   3.728   6.840 -0.0725  0.6984  0.4462
  347MOL0     C46732   3.130   3.802   6.967  0.0945  0.3226 -0.4936
  347MOL0     C46733   3.260   3.750   7.031  0.6784 -0.5312  0.3763
  347MOL0     O46734   3.373   3.808   6.961 -0.5041 -0.2216  0.2178
  347MOL0     C46735   3.499   3.795   7.016  0.3010  0.5365 -0.5387
  347MOL0     C46736   3.539   3.722   7.130  0.2079  0.1758  0.0897
  347MOL0     C46737   3.671   3.717   7.170  0.0808  0.3396 -0.6356
  347MOL0     C46738   3.772   3.775   7.090 -0.2632  0.7056 -0.2583
  347MOL0     C46739   3.911   3.778   7.144 -0.8991 -1.2510 -0.4091
  347MOL0     O46740   3.931   3.751   7.276 -0.1804  0.1831 -1.2389
  347MOL0     C46741   4.062   3.739   7.321 -0.1464  0.2354  0.3671
  347MOL0     C46742   4.128   3.850   7.369  0.2028 -0.5309  0.1584
  347MOL0     C46743   4.254   3.835   7.433  0.4239  0.4542 -0.1297
  347MOL0     C46744   4.318   3.710   7.439  0.8985  1.2513 -0.5745
  347MOL0     O46745   4.430   3.691   7.518 -0.5352  0.0045 -0.3571
  347MOL0     C46746   4.533   3.792   7.505 -0.5403  0.1170 -0.0095
  347MOL0     C46747   4.643   3.754   7.603  0.7720  0.8315 -0.3467
  347MOL0     C46748   4.753   3.842   7.562 -0.3573  1.2653  0.2686
  347MOL0     C46749   4.850   3.861   7.673  0.7781  0.0221 -0.2872
  347MOL0     C46750   4.989   3.887   7.617  0.1468 -0.9299  0.1885
  347MOL0     C46751   5.087   3.959   7.720  0.0107  0.4423  0.2716
  347MOL0     C46752   5.236   3.948   7.676 -0.0287 -0.1302 -0.3512
  347MOL0     C46753   5.271   4.006   7.542  0.1145  0.0600  0.9883
  347MOL0    Cl46754   5.445   4.047   7.549 -0.2118  0.1341  0.4351
  347MOL0     C46755   4.250   3.599   7.388 -0.1757 -0.2617  0.6794
  347MOL0     C46756   4.122   3.607   7.331  0.1800  0.5398  0.3193
  347MOL0     O46757   3.998   3.816   7.067  0.1344 -0.0788 -0.1537
  347MOL0     C46758   3.737   3.852   6.973 -0.2725  0.5210 -0.5054
  347MOL0     C46759   3.601   3.857   6.938 -1.2134  0.1620  0.5482
  347MOL0     N46760   2.819   3.852   6.910 -0.0516 -0.3944  0.1247
  347MOL0     N46761   2.693   3.881   6.903  0.4364  0.0579  0.7230
  347MOL0     C46762   1.485   4.139   6.488  0.3814 -0.2634 -0.8288
  347MOL0     C46763   1.344   4.144   6.495  0.4599  0.0710  0.4958
  347MOL0     C46764   0.899   4.225   6.593 -0.1931 -0.4792 -0.0195
  347MOL0     C46765   0.880   4.268   6.725  0.5538  1.1230  0.6259
  347MOL0     C46766   0.757   4.301   6.775 -0.3686  0.3249  0.2769
  347MOL0     C46767   0.646   4.298   6.695  0.0266 -0.1485 -0.2887
  347MOL0     O46768   0.531   4.340   6.759 -0.4357  0.1779  0.2163
  347MOL0     C46769   0.405   4.324   6.697 -0.1143  0.4655 -0.2249
  347MOL0     C46770   0.286   4.333   6.802  0.2146 -0.9329  0.2876
  347MOL0     C46771   0.292   4.213   6.895  0.2244 -0.8425  0.1949
  347MOL0     C46772   0.224   4.236   7.030 -0.2599  0.0941 -0.6086
  347MOL0     C46773   0.081   4.250   7.020 -0.2839  0.2068 -0.1560
  347MOL0     C46774  -0.039   4.260   7.024  0.5018 -0.0018 -0.3023
  347MOL0     C46775   0.663   4.255   6.562 -0.6491  0.1071 -0.7261
  347MOL0     C46776   0.787   4.217   6.508  0.6888 -1.0573  1.4016
  347MOL0     C46777   0.792   4.176   6.359  0.2980 -0.0079  0.3924
  347MOL0     H46778   1.303   4.312   6.783 -3.4647 -3.1053  0.1466
  347MOL0     H46779   1.561   4.318   6.761  1.7210 -1.4947 -1.7575
  347MOL0     H46780   1.779   4.075   6.699  2.1177 -0.6318  1.2388
  347MOL0     H46781   1.752   4.015   6.532 -0.5423  0.6063  0.0161
  347MOL0     H46782   1.957   4.230   6.609  2.3312  0.3078 -1.5962
  347MOL0     H46783   1.903   4.207   6.447  1.1833  1.5517  0.4902
  347MOL0     H46784   2.011   3.981   6.430  0.2879  0.0682 -0.1217
  347MOL0     H46785   2.001   3.964   6.608 -1.2544  2.0839  2.5473
  347MOL0     H46786   2.163   4.161   6.453  0.1804 -1.7934 -1.5783
  347MOL0     H46787   2.166   4.145   6.633  0.3980  0.1317 -0.4460
  347MOL0     H46788   2.271   3.934   6.619 -1.4402  2.6825  1.6450
  347MOL0     H46789   2.260   3.928   6.441  0.3494 -0.6561 -0.1535
  347MOL0     H46790   2.448   4.074   6.410  0.1259 -0.1837 -0.0459
  347MOL0     H46791   2.412   4.161   6.557 -0.8408  0.9697 -0.4433
  347MOL0     H46792   2.607   3.996   6.518  1.2884 -0.7693  2.1404
  347MOL0     H46793   2.487   3.873   6.571  1.8320 -0.6219 -0.4850
  347MOL0     H46794   2.566   4.116   6.751 -2.3580 -0.4623  0.6317
  347MOL0     H46795   2.474   3.973   6.793  2.0967 -0.3275  1.1956
  347MOL0     H46796   2.802   3.942   6.598  2.6773 -3.0368 -0.6596
  347MOL0     H46797   2.997   3.770   6.648 -1.5190 -0.3254  0.6399
  347MOL0     H46798   3.074   3.904   6.718  1.9932 -0.5944  2.5260
  347MOL0     H46799   3.036   3.640   6.872  3.9954 -2.3249  0.0640
  347MOL0     H46800   3.178   3.686   6.788  2.0765  0.9961  3.5455
  347MOL0     H46801   3.049   3.795   7.041 -0.1756  0.2137 -0.7928
  347MOL0     H46802   3.144   3.905   6.935 -1.9881  0.8733  0.2197
  347MOL0     H46803   3.273   3.642   7.039  0.8433 -0.4194  1.7554
  347MOL0     H46804   3.254   3.790   7.133  1.6020 -1.4553  0.8074
  347MOL0     H46805   3.459   3.674   7.186 -2.3068  3.3034 -0.5384
  347MOL0     H46806   3.706   3.679   7.265  3.2361  1.0938 -1.3736
  347MOL0     H46807   4.086   3.950   7.371  1.4004 -0.0055 -0.1244
  347MOL0     H46808   4.293   3.928   7.474 -0.3026  1.6247 -1.9590
  347MOL0     H46809   4.575   3.795   7.405 -0.0913 -1.8099  0.0881
  347MOL0     H46810   4.496   3.891   7.536 -1.5210 -0.1423 -0.3048
  347MOL0     H46811   4.613   3.777   7.706  0.8896 -2.1570  0.4512
  347MOL0     H46812   4.665   3.647   7.596  2.8560  1.1128  1.1428
  347MOL0     H46813   4.798   3.800   7.471 -0.1312  1.9491  0.0607
  347MOL0     H46814   4.719   3.941   7.530  0.3929  1.6608  0.6601
  347MOL0     H46815   4.858   3.785   7.752  2.9817 -1.5010 -1.8334
  347MOL0     H46816   4.820   3.953   7.723  1.4267  0.6200 -0.9736
  347MOL0     H46817   4.977   3.943   7.524 -3.7194 -3.3850 -1.0519
  347MOL0     H46818   5.029   3.785   7.609 -0.1722 -1.0460  0.0675
  347MOL0     H46819   5.058   4.064   7.729  1.8797  1.0463 -0.3101
  347MOL0     H46820   5.070   3.908   7.815  2.2452 -2.8742 -0.9080
  347MOL0     H46821   5.261   3.843   7.654  2.0169  0.7548 -2.6801
  347MOL0     H46822   5.301   3.978   7.758 -0.0967 -0.3038 -0.2317
  347MOL0     H46823   5.256   3.927   7.468 -0.9413  0.3399  0.8861
  347MOL0     H46824   5.218   4.096   7.509 -0.2272 -1.0325 -1.7460
  347MOL0     H46825   4.295   3.503   7.409  0.1946 -0.6087 -1.4413
  347MOL0     H46826   4.056   3.526   7.303 -0.6056  1.4820 -0.6589
  347MOL0     H46827   3.795   3.914   6.905  1.9436  1.7092  2.2225
  347MOL0     H46828   3.580   3.907   6.844  0.5816  0.4123  0.2482
  347MOL0     H46829   1.536   4.088   6.406  2.3904  0.8994 -0.3681
  347MOL0     H46830   1.286   4.099   6.415  0.2030  3.9989 -1.7569
  347MOL0     H46831   0.968   4.293   6.782  0.1013  1.2928  1.2644
  347MOL0     H46832   0.748   4.342   6.875  1.2199  1.5861 -0.0442
  347MOL0     H46833   0.399   4.223   6.655 -2.6938  1.1610 -1.8192
  347MOL0     H46834   0.387   4.391   6.612  0.2952  2.0242  0.8717
  347MOL0     H46835   0.192   4.322   6.746 -0.1506 -0.6627  0.8455
  347MOL0     H46836   0.284   4.430   6.853  1.3140 -1.5867  1.6208
  347MOL0     H46837   0.395   4.180   6.909 -0.0922 -2.9210 -1.6729
  347MOL0     H46838   0.237   4.128   6.852  0.1285 -1.0238  0.6691
  347MOL0     H46839   0.246   4.151   7.095 -1.3501  1.4829  1.7072
  347MOL0     H46840   0.270   4.321   7.082 -1.7692  0.5589  0.0239
  347MOL0     H46841  -0.146   4.256   7.038  0.3195 -0.9745 -1.6932
  347MOL0     H46842   0.582   4.249   6.489 -1.1297 -0.1252 -0.1851
  347MOL0     H46843   0.695   4.175   6.308 -0.5967 -0.5739  2.0154
  347MOL0     H46844   0.853   4.248   6.304  0.6351 -2.1942 -2.3166
  347MOL0     H46845   0.842   4.079   6.355  0.6653  0.1415  1.1138
  348MOL0     O46846   1.474   4.150   5.038  0.1855  0.6607 -0.2677
  348MOL0     C46847   1.501   4.182   5.153  0.2725  0.3921  0.0132
  348MOL0     O46848   1.619   4.205   5.205  0.2487  0.1083 -0.4970
  348MOL0     C46849   1.743   4.173   5.150  0.2332 -1.1594 -0.6595
  348MOL0     C46850   1.850   4.211   5.224  0.2063 -0.2355  0.5843
  348MOL0     C46851   1.979   4.199   5.169  0.4966 -0.6428 -0.7842
  348MOL0     C46852   2.006   4.124   5.057  0.1760 -0.0608 -0.5043
  348MOL0     O46853   2.144   4.109   5.029  0.5965 -0.0627 -0.1131
  348MOL0     C46854   2.178   4.024   4.927 -1.1925 -0.0787  0.7396
  348MOL0     C46855   2.330   4.012   4.893 -0.0718 -0.2587  0.4303
  348MOL0     C46856   2.406   3.930   4.996 -0.1904 -1.0722 -0.0067
  348MOL0     C46857   2.556   3.928   4.981 -0.3106  0.0973  0.6686
  348MOL0     C46858   2.631   3.838   5.078 -0.1643 -0.2636  1.1813
  348MOL0     C46859   2.785   3.856   5.054  0.2660 -0.0447  0.5849
  348MOL0     C46860   2.861   3.765   5.147 -0.0460 -0.4807 -0.4838
  348MOL0     C46861   3.010   3.796   5.155 -0.3899  0.1254 -0.2969
  348MOL0     N46862   3.078   3.701   5.246 -0.7397 -0.3126  0.0337
  348MOL0     C46863   3.053   3.567   5.264 -1.2150 -0.7154  0.6451
  348MOL0     C46864   3.141   3.518   5.344  0.0555 -0.3051  0.5600
  348MOL0     C46865   3.148   3.379   5.379  0.9877 -0.1139  0.6288
  348MOL0     C46866   3.280   3.317   5.336 -0.4639 -0.5059  0.3096
  348MOL0     C46867   3.306   3.200   5.421  0.0248  0.1432 -0.3866
  348MOL0     C46868   3.425   3.121   5.371  0.2460 -0.1361  0.7459
  348MOL0     O46869   3.546   3.203   5.368 -0.2202 -0.3134 -0.1534
  348MOL0     C46870   3.656   3.146   5.315 -0.0770 -0.1403 -0.2785
  348MOL0     C46871   3.674   3.012   5.291  0.4849 -0.0207  0.3948
  348MOL0     C46872   3.791   2.961   5.235 -0.5342  0.2607 -0.5764
  348MOL0     C46873   3.895   3.046   5.206  0.3637  0.0103  0.2114
  348MOL0     C46874   4.021   3.011   5.151 -0.3814  0.2613  0.2796
  348MOL0     O46875   4.124   3.091   5.173 -0.5808  0.4721 -0.2774
  348MOL0     C46876   4.240   3.085   5.107 -0.6078 -0.6705  0.3478
  348MOL0     C46877   4.272   3.041   4.973  0.0977 -0.1661  0.4085
  348MOL0     C46878   4.393   3.075   4.912  0.8196 -0.6404 -0.2503
  348MOL0     C46879   4.496   3.146   4.983  0.1282  0.3186 -0.4094
  348MOL0     O46880   4.622   3.165   4.930  0.2466 -0.2673 -0.6228
  348MOL0     C46881   4.701   3.051   4.889  0.3582 -0.3267  0.4482
  348MOL0     C46882   4.849   3.072   4.931 -0.5806  0.9024 -1.0537
  348MOL0     C46883   4.927   3.176   4.858 -0.2292  0.1856  0.1273
  348MOL0     C46884   5.077   3.180   4.910  0.4484 -0.5936  0.8459
  348MOL0     C46885   5.165   3.281   4.830  0.4468  0.0223 -0.4442
  348MOL0     C46886   5.311   3.250   4.853  0.3382 -0.0857  0.4718
  348MOL0     C46887   5.405   3.345   4.780  0.3964  0.0362 -0.3948
  348MOL0     C46888   5.548   3.319   4.827 -0.8290 -0.0952  0.1541
  348MOL0    Cl46889   5.660   3.443   4.765  0.0256  0.7576  0.0607
  348MOL0     C46890   4.477   3.162   5.118 -0.3132 -0.1223 -1.1374
  348MOL0     C46891   4.350   3.143   5.176 -0.1235 -0.4502  0.0966
  348MOL0     O46892   4.029   2.907   5.085  0.0899 -0.0894 -0.2100
  348MOL0     C46893   3.878   3.184   5.240  0.8610  0.1521 -0.0701
  348MOL0     C46894   3.758   3.237   5.290  0.4216  0.2429 -0.6820
  348MOL0     N46895   3.224   3.618   5.386 -0.3790  0.9005  0.2537
  348MOL0     N46896   3.188   3.725   5.315 -0.7268 -0.3594 -0.1587
  348MOL0     C46897   1.899   4.074   4.981  0.7929 -1.0608 -0.2319
  348MOL0     C46898   1.766   4.108   5.025 -0.0929  0.0173 -0.5708
  348MOL0     C46899   1.397   4.191   5.249 -0.1796 -0.9768  0.0711
  348MOL0     C46900   1.426   4.200   5.393 -0.0038 -0.6174 -0.5541
  348MOL0     C46901   1.328   4.204   5.489 -0.3024 -0.8799  0.1364
  348MOL0     C46902   1.194   4.203   5.446 -0.3480  0.2900 -0.1605
  348MOL0     O46903   1.090   4.205   5.531  0.4321  0.0255 -0.5030
  348MOL0     C46904   1.104   4.170   5.668 -0.0188 -0.0341  0.8396
  348MOL0     C46905   0.967   4.137   5.728  1.0787  0.8442  0.8798
  348MOL0     C46906   0.900   4.020   5.660  0.2177  0.6079  0.0538
  348MOL0     C46907   0.743   4.006   5.694 -0.5771 -0.1715  0.0856
  348MOL0     C46908   0.659   4.114   5.653  0.5690 -0.0679  0.4802
  348MOL0     C46909   0.590   4.207   5.629  0.0274 -0.0058 -0.2371
  348MOL0     C46910   1.164   4.211   5.314  0.2661  0.6732 -1.0507
  348MOL0     C46911   1.259   4.193   5.219 -0.2670 -0.6557 -0.8902
  348MOL0     C46912   1.201   4.187   5.086 -0.7354  0.4905  0.2903
  348MOL0     H46913   1.837   4.256   5.322 -2.2730 -0.7234  0.5482
  348MOL0     H46914   2.051   4.251   5.232 -0.0054 -0.4900 -0.3310
  348MOL0     H46915   2.134   3.926   4.946 -1.5877 -0.2188 -0.7248
  348MOL0     H46916   2.138   4.067   4.834  0.2325  1.6391  0.8586
  348MOL0     H46917   2.358   4.118   4.885 -2.4620  0.3170 -1.1286
  348MOL0     H46918   2.355   3.972   4.794  1.9303  1.7430  0.0405
  348MOL0     H46919   2.371   3.827   5.001 -1.2978 -0.6862  0.7543
  348MOL0     H46920   2.373   3.976   5.090 -2.8196  2.0687 -2.2286
  348MOL0     H46921   2.586   3.899   4.879  1.0354 -4.1614  2.0580
  348MOL0     H46922   2.590   4.029   5.006  0.3711  0.4029 -1.2925
  348MOL0     H46923   2.607   3.854   5.183 -3.4260  0.8462  0.3918
  348MOL0     H46924   2.605   3.735   5.052  0.3665  0.5533 -3.4693
  348MOL0     H46925   2.796   3.818   4.952 -2.4208 -2.4214  1.0521
  348MOL0     H46926   2.819   3.959   5.047  2.4546 -0.7831 -4.7309
  348MOL0     H46927   2.847   3.657   5.148  2.1854 -1.0151  4.5266
  348MOL0     H46928   2.828   3.777   5.251  0.7655 -2.1149  0.0057
  348MOL0     H46929   3.058   3.782   5.058 -0.9936 -2.5053 -0.2876
  348MOL0     H46930   3.023   3.900   5.187  1.7735  0.0394 -0.7358
  348MOL0     H46931   2.977   3.509   5.212 -2.1347  1.8579 -1.1170
  348MOL0     H46932   3.131   3.356   5.484  2.9354 -1.1359  0.7569
  348MOL0     H46933   3.071   3.334   5.316  0.0650  2.5482 -0.2716
  348MOL0     H46934   3.281   3.281   5.233 -1.3200 -1.6420  0.6686
  348MOL0     H46935   3.360   3.389   5.353 -1.6227  0.2855  2.9863
  348MOL0     H46936   3.230   3.123   5.416  1.2676 -1.2439  0.8759
  348MOL0     H46937   3.329   3.219   5.527  0.1859 -4.0963  0.5160
  348MOL0     H46938   3.403   3.078   5.273  0.3609  0.9203  0.2432
  348MOL0     H46939   3.430   3.023   5.419 -0.0639 -1.0510 -1.0041
  348MOL0     H46940   3.590   2.944   5.295  0.6715 -0.3340 -0.7359
  348MOL0     H46941   3.807   2.854   5.221 -0.5276 -0.1269  1.9433
  348MOL0     H46942   4.187   3.006   4.915  1.5743 -1.4494 -1.0759
  348MOL0     H46943   4.410   3.072   4.805 -0.6258  2.1197 -0.6381
  348MOL0     H46944   4.662   2.957   4.928  0.0022 -0.0182  0.8421
  348MOL0     H46945   4.688   3.049   4.780  2.0586  0.5408  0.1857
  348MOL0     H46946   4.866   3.093   5.037  1.9805  0.7393 -1.3815
  348MOL0     H46947   4.896   2.977   4.907  1.7826  1.4866  0.8551
  348MOL0     H46948   4.927   3.168   4.749 -0.2322  2.0002 -0.0334
  348MOL0     H46949   4.880   3.270   4.888  1.6907  0.4940  2.4573
  348MOL0     H46950   5.123   3.080   4.910 -0.6567 -1.1257 -0.2000
  348MOL0     H46951   5.070   3.215   5.013  0.8920 -4.9073  2.5803
  348MOL0     H46952   5.129   3.382   4.850 -2.2705 -0.9461 -0.0742
  348MOL0     H46953   5.135   3.261   4.727  2.3493  0.6310 -1.1557
  348MOL0     H46954   5.316   3.262   4.961 -2.6044 -3.8989  1.2384
  348MOL0     H46955   5.325   3.143   4.839 -0.0072 -0.0150 -0.5492
  348MOL0     H46956   5.376   3.450   4.793  0.2044 -0.2037  1.3321
  348MOL0     H46957   5.397   3.312   4.676 -2.5388 -4.9293  1.0981
  348MOL0     H46958   5.564   3.321   4.935  0.8909  0.7349 -0.0890
  348MOL0     H46959   5.592   3.222   4.804 -0.3198  0.4117 -1.1569
  348MOL0     H46960   4.565   3.195   5.171 -0.8074 -0.6249  0.0324
  348MOL0     H46961   4.328   3.181   5.275 -2.0174  0.2773 -0.5479
  348MOL0     H46962   3.953   3.261   5.224 -0.4675  1.1071 -1.9470
  348MOL0     H46963   3.736   3.334   5.334 -0.8479 -1.2324  2.2751
  348MOL0     H46964   1.905   4.017   4.889  1.7335 -1.3854  0.0149
  348MOL0     H46965   1.689   4.100   4.949 -0.0481  2.6220 -0.9659
  348MOL0     H46966   1.527   4.213   5.431 -0.2811 -0.3481  0.0932
  348MOL0     H46967   1.355   4.212   5.594  1.3614 -2.3243 -0.1320
  348MOL0     H46968   1.152   4.250   5.725 -0.0534  0.7772 -0.2423
  348MOL0     H46969   1.164   4.079   5.664  1.3705  0.8552 -2.4939
  348MOL0     H46970   0.904   4.225   5.717 -0.5561 -0.5945 -2.7697
  348MOL0     H46971   0.981   4.114   5.835  0.4999 -2.2351  0.4022
  348MOL0     H46972   0.951   3.929   5.692  0.0107  0.4265 -0.1377
  348MOL0     H46973   0.903   4.025   5.551 -0.9063 -1.3061 -0.0938
  348MOL0     H46974   0.707   3.913   5.650 -1.1903 -0.5829  1.3867
  348MOL0     H46975   0.726   4.002   5.802 -1.7634  0.0255 -0.0871
  348MOL0     H46976   0.531   4.295   5.611 -1.1460 -0.2048  2.2011
  348MOL0     H46977   1.057   4.215   5.296  0.3604 -0.6111 -2.0490
  348MOL0     H46978   1.207   4.085   5.049 -1.9113  1.3775 -2.6184
  348MOL0     H46979   1.098   4.222   5.082 -1.2650 -1.1333 -1.9978
  348MOL0     H46980   1.257   4.244   5.011  0.6469 -1.2037 -0.0311
  349MOL0     O46981   8.606   5.085   7.923  0.0560 -0.2841 -0.3184
  349MOL0     C46982   8.619   5.072   7.800  0.2990  0.2677  0.7683
  349MOL0     O46983   8.738   5.048   7.737  0.4535 -0.0497  0.6311
  349MOL0     C46984   8.843   5.052   7.821  0.2335  0.0964 -0.9161
  349MOL0     C46985   8.934   5.161   7.832 -0.3549  0.9890  0.4017
  349MOL0     C46986   9.047   5.157   7.908 -0.6175  0.2571  0.3062
  349MOL0     C46987   9.077   5.043   7.988  0.4868  0.6161 -0.0020
  349MOL0     O46988   9.183   5.038   8.070 -0.4404 -0.1633  0.4319
  349MOL0     C46989   9.154   5.061   8.209  0.3444 -0.8318  0.6220
  349MOL0     C46990   9.106   5.207   8.248  0.1956  0.4087 -0.2995
  349MOL0     C46991   9.059   5.212   8.398 -0.2208  0.0840  0.8553
  349MOL0     C46992   9.163   5.165   8.504  0.4647 -0.0671  0.6586
  349MOL0     C46993   9.103   5.180   8.643 -0.0541  0.3193 -0.6154
  349MOL0     C46994   9.201   5.137   8.747 -0.8757  0.2104 -0.0750
  349MOL0     C46995   9.135   5.156   8.891 -1.3779  0.5572  0.1242
  349MOL0     C46996   9.207   5.060   8.993 -0.5276  0.1579 -0.3698
  349MOL0     N46997   9.348   5.092   9.021  0.1870  0.0537  0.3468
  349MOL0     C46998   9.447   5.110   8.924 -0.0596  0.2757 -0.3118
  349MOL0     C46999   9.551   5.151   9.007 -0.2385  0.3631  0.8099
  349MOL0     C47000   9.683   5.196   8.951 -0.4884 -0.0360  0.5416
  349MOL0     C47001   9.732   5.330   9.014 -0.5847 -0.0048 -0.1555
  349MOL0     C47002   9.815   5.315   9.137  0.2978 -0.3305 -0.3783
  349MOL0     C47003   9.959   5.283   9.106  0.4056  0.5177  0.0883
  349MOL0     O47004  10.022   5.206   9.207 -0.3850 -0.6809  0.2295
  349MOL0     C47005  10.155   5.207   9.207  0.1473 -0.1234  0.4874
  349MOL0     C47006  10.244   5.247   9.102  0.6438 -0.5408 -0.6673
  349MOL0     C47007  10.383   5.253   9.121  0.4384  0.2827  0.0276
  349MOL0     C47008  10.443   5.206   9.236 -0.5155 -0.0395  0.1720
  349MOL0     C47009  10.592   5.212   9.255  0.0001 -0.0855 -0.7221
  349MOL0     O47010  10.645   5.156   9.371 -0.5384  0.2824  0.6703
  349MOL0     C47011  10.771   5.183   9.413  0.4538  0.8311  0.5395
  349MOL0     C47012  10.810   5.090   9.513  0.0558  0.5980  0.1807
  349MOL0     C47013  10.931   5.099   9.577 -0.6047  0.1992 -0.1829
  349MOL0     C47014  11.025   5.199   9.533  0.5325  0.8474 -0.6321
  349MOL0     O47015  11.140   5.193   9.606  0.5724  0.2566 -0.3817
  349MOL0     C47016  11.229   5.304   9.613 -0.3386 -0.0600  1.4492
  349MOL0     C47017  11.333   5.307   9.721 -0.2282  0.0719 -0.3782
  349MOL0     C47018  11.448   5.399   9.677 -0.1143 -0.3057  0.0074
  349MOL0     C47019  11.582   5.385   9.734 -0.3836 -0.7802  0.3223
  349MOL0     C47020  11.687   5.467   9.653  0.2868  0.4249  0.1861
  349MOL0     C47021  11.820   5.474   9.725 -0.1261  0.2617 -0.5299
  349MOL0     C47022  11.812   5.560   9.856 -0.5454 -0.3183 -0.0269
  349MOL0     C47023  11.932   5.536   9.941 -0.5543  0.5015  0.6065
  349MOL0    Cl47024  12.080   5.584   9.855  0.2833  0.0561 -0.5380
  349MOL0     C47025  10.983   5.291   9.435  0.4585 -0.1235  0.0268
  349MOL0     C47026  10.863   5.280   9.379  0.2561  0.2960 -0.4262
  349MOL0     O47027  10.654   5.279   9.169 -0.2650  0.3054  0.2810
  349MOL0     C47028  10.361   5.151   9.334 -0.5760 -0.0968 -0.5598
  349MOL0     C47029  10.221   5.163   9.321 -0.1823  0.8780  0.6265
  349MOL0     N47030   9.514   5.152   9.143 -0.0403 -0.4178 -0.0483
  349MOL0     N47031   9.392   5.122   9.144  0.5743 -0.3425  0.5371
  349MOL0     C47032   8.993   4.930   7.970  0.7962  0.2886  0.8802
  349MOL0     C47033   8.874   4.931   7.895  0.8727 -1.1652  0.4407
  349MOL0     C47034   8.500   5.077   7.719  1.0354  0.3657 -0.1933
  349MOL0     C47035   8.387   5.134   7.789 -0.2494 -0.5050  0.3627
  349MOL0     C47036   8.270   5.162   7.719  0.2831  0.1002  0.1932
  349MOL0     C47037   8.255   5.121   7.588 -0.5363  0.1813  0.5415
  349MOL0     O47038   8.129   5.122   7.533  0.2211 -0.5608  0.0491
  349MOL0     C47039   8.118   5.128   7.390  1.1894  0.9320 -0.1244
  349MOL0     C47040   7.967   5.125   7.360  0.1816 -0.4485  0.1871
  349MOL0     C47041   7.888   5.224   7.438 -0.6536  0.1774 -0.6340
  349MOL0     C47042   7.745   5.231   7.397  0.5504  0.5392 -0.4469
  349MOL0     C47043   7.664   5.107   7.403  0.0576 -0.4543  0.1995
  349MOL0     C47044   7.595   5.011   7.384 -0.0893  0.5128  0.1667
  349MOL0     C47045   8.369   5.057   7.527  0.8585  0.8533 -0.1583
  349MOL0     C47046   8.494   5.037   7.586  0.8319 -0.3081  0.0397
  349MOL0     C47047   8.600   5.012   7.485 -0.3108  0.3330 -0.2239
  349MOL0     H47048   8.914   5.252   7.776 -3.7548 -0.5551 -1.1918
  349MOL0     H47049   9.114   5.242   7.919 -2.7802  1.8112  2.3445
  349MOL0     H47050   9.095   4.977   8.247 -1.1235 -0.8610 -1.5423
  349MOL0     H47051   9.254   5.056   8.254  2.2746  0.6050 -3.0517
  349MOL0     H47052   9.035   5.244   8.174 -0.0865 -0.2238 -0.3532
  349MOL0     H47053   9.182   5.285   8.240 -1.8780  2.5010 -0.6156
  349MOL0     H47054   8.969   5.151   8.406 -1.7951  1.8637 -1.8137
  349MOL0     H47055   9.033   5.317   8.415  0.9377  0.1704  2.3392
  349MOL0     H47056   9.172   5.058   8.482  0.8712  0.1873 -0.4701
  349MOL0     H47057   9.256   5.221   8.492 -1.8927  3.7592 -1.8592
  349MOL0     H47058   9.067   5.280   8.669 -0.7747 -0.3965  1.3795
  349MOL0     H47059   9.013   5.118   8.642  0.1285 -0.0121  0.6679
  349MOL0     H47060   9.239   5.035   8.737 -0.8583  0.0720  1.2908
  349MOL0     H47061   9.291   5.199   8.744  1.0625 -2.3230  1.4848
  349MOL0     H47062   9.030   5.129   8.883 -0.6244 -2.5793 -0.7668
  349MOL0     H47063   9.144   5.258   8.929 -1.7639  1.0366 -1.0164
  349MOL0     H47064   9.149   5.054   9.086  1.3765  1.3887  0.9584
  349MOL0     H47065   9.204   4.956   8.959  2.3313 -0.7968  1.8457
  349MOL0     H47066   9.461   5.108   8.816 -0.2153  1.1343 -0.3536
  349MOL0     H47067   9.757   5.117   8.961  0.9736  1.4292  1.7099
  349MOL0     H47068   9.684   5.209   8.842  1.2966 -1.2858  0.3787
  349MOL0     H47069   9.787   5.383   8.936  1.5892 -1.1133  0.5462
  349MOL0     H47070   9.646   5.390   9.046 -1.2859 -1.3508  0.5547
  349MOL0     H47071   9.774   5.241   9.208  1.2668  0.5514  1.1667
  349MOL0     H47072   9.811   5.414   9.183 -1.2418 -1.4588  2.2166
  349MOL0     H47073  10.028   5.365   9.084  0.9774 -0.3035 -1.3916
  349MOL0     H47074   9.959   5.217   9.018  1.6075  0.8663 -0.1959
  349MOL0     H47075  10.186   5.270   9.013 -0.0523  3.1666  0.5739
  349MOL0     H47076  10.435   5.299   9.038 -1.7240 -0.1590 -1.6634
  349MOL0     H47077  10.741   5.014   9.547 -0.5774  1.3185  0.5262
  349MOL0     H47078  10.945   5.029   9.660 -2.8920 -0.7177 -0.4973
  349MOL0     H47079  11.282   5.298   9.517 -0.5180  3.0532  1.0704
  349MOL0     H47080  11.178   5.400   9.612 -3.3220 -1.5131  0.4790
  349MOL0     H47081  11.284   5.345   9.811 -1.4896  0.5821 -1.2613
  349MOL0     H47082  11.381   5.209   9.735  0.7555  0.7474  1.3172
  349MOL0     H47083  11.462   5.377   9.571 -0.3608 -1.8118  0.2596
  349MOL0     H47084  11.410   5.501   9.687 -2.3804 -0.9610 -1.1486
  349MOL0     H47085  11.608   5.281   9.713 -2.9309 -1.0374 -2.3044
  349MOL0     H47086  11.573   5.412   9.839  0.8115  0.4725  0.1333
  349MOL0     H47087  11.647   5.567   9.639 -0.6410  0.3571  2.0838
  349MOL0     H47088  11.700   5.419   9.555  0.6213  1.9378 -0.5329
  349MOL0     H47089  11.853   5.374   9.755 -1.3102 -0.3797 -1.2967
  349MOL0     H47090  11.888   5.512   9.649  0.3702  1.4208  0.4662
  349MOL0     H47091  11.728   5.526   9.917 -1.6919  1.3738 -0.6020
  349MOL0     H47092  11.804   5.666   9.833  1.3608 -0.6809 -3.0442
  349MOL0     H47093  11.932   5.599  10.031 -0.0567  1.6436 -0.1740
  349MOL0     H47094  11.935   5.430   9.965 -0.2978  0.0538 -1.2791
  349MOL0     H47095  11.043   5.378   9.412  1.4037 -0.7233  0.1512
  349MOL0     H47096  10.843   5.356   9.305  2.6697  1.3996 -0.0642
  349MOL0     H47097  10.401   5.120   9.430 -1.1133 -0.2143 -0.3683
  349MOL0     H47098  10.148   5.136   9.397 -1.8318  2.9318 -0.1097
  349MOL0     H47099   9.015   4.837   8.020 -2.8250 -1.5029 -0.4813
  349MOL0     H47100   8.808   4.846   7.879  1.3531 -1.8344  1.8866
  349MOL0     H47101   8.385   5.175   7.889 -0.5783 -0.7564  0.4578
  349MOL0     H47102   8.190   5.214   7.771  1.5995  3.1074 -0.5254
  349MOL0     H47103   8.160   5.040   7.341  0.5600  0.3433  0.3738
  349MOL0     H47104   8.162   5.219   7.348  1.6031  1.0347  0.5248
  349MOL0     H47105   7.918   5.030   7.381 -1.1906  0.6395  2.1975
  349MOL0     H47106   7.952   5.163   7.259 -3.4780 -0.3335  0.6693
  349MOL0     H47107   7.934   5.323   7.442 -0.8215  0.2201  2.4111
  349MOL0     H47108   7.882   5.189   7.541  0.8413 -2.3768 -1.3064
  349MOL0     H47109   7.701   5.305   7.464  1.3525  0.9185 -0.3327
  349MOL0     H47110   7.741   5.255   7.290  1.0178 -1.8493 -1.0537
  349MOL0     H47111   7.542   4.918   7.389 -0.9290  0.9416 -0.4536
  349MOL0     H47112   8.353   5.018   7.427  0.6509  1.6258 -0.4404
  349MOL0     H47113   8.645   4.914   7.507 -0.0705  0.6814  0.9130
  349MOL0     H47114   8.564   5.011   7.382  2.8276 -0.8600 -1.4440
  349MOL0     H47115   8.677   5.090   7.483  3.0031 -2.6164  0.9915
  350MOL0     O47116  10.096   6.900   0.219  0.3845 -0.3325 -0.2488
  350MOL0     C47117  10.069   6.963   0.114 -0.1004  0.0223 -0.0807
  350MOL0     O47118  10.110   7.092   0.081  0.4600 -0.7033  0.2706
  350MOL0     C47119  10.172   7.168   0.173 -0.3194 -0.2388 -0.7215
  350MOL0     C47120  10.283   7.242   0.128 -0.4994 -0.0434 -0.5408
  350MOL0     C47121  10.347   7.337   0.209 -0.1042  0.0807 -0.1914
  350MOL0     C47122  10.294   7.367   0.335  0.7033  0.0914  0.9577
  350MOL0     O47123  10.349   7.472   0.407  0.3071  0.2971 -0.1838
  350MOL0     C47124  10.316   7.471   0.542  0.5280 -0.8517  0.6709
  350MOL0     C47125  10.404   7.567   0.617  0.3287 -0.5336  0.0228
  350MOL0     C47126  10.547   7.516   0.663 -0.4496  0.8506  0.3300
  350MOL0     C47127  10.634   7.461   0.545  0.3901 -0.7615 -0.6184
  350MOL0     C47128  10.777   7.431   0.608 -0.3298 -0.4166  0.3224
  350MOL0     C47129  10.861   7.375   0.491 -0.7930 -0.1203 -0.7870
  350MOL0     C47130  11.007   7.351   0.552  0.3314 -0.3993 -1.0722
  350MOL0     C47131  10.994   7.237   0.660 -0.2917 -0.3094 -0.2828
  350MOL0     N47132  11.125   7.192   0.701  0.1169  1.1168  1.0005
  350MOL0     C47133  11.188   7.078   0.654  0.6047 -0.0695 -0.0906
  350MOL0     C47134  11.308   7.073   0.719 -0.2446 -0.1350 -0.4793
  350MOL0     C47135  11.412   6.961   0.695  0.7423 -0.1300 -0.9124
  350MOL0     C47136  11.453   6.950   0.548  0.0606 -0.1246 -0.0606
  350MOL0     C47137  11.577   6.850   0.518 -0.2865 -0.2230 -0.2424
  350MOL0     C47138  11.708   6.910   0.572  0.1797 -0.1366  0.1443
  350MOL0     O47139  11.814   6.816   0.572  0.3708 -0.0896 -0.0263
  350MOL0     C47140  11.933   6.852   0.632  0.4402 -0.0742 -0.1943
  350MOL0     C47141  11.970   6.982   0.664  0.7002 -0.4488 -0.1868
  350MOL0     C47142  12.081   6.997   0.748  0.4134 -0.6840  0.3075
  350MOL0     C47143  12.163   6.895   0.771  0.0046 -0.2498 -0.7775
  350MOL0     C47144  12.277   6.919   0.865  0.5048 -0.4757  0.4155
  350MOL0     O47145  12.390   6.851   0.823  0.8255  0.3369 -1.0598
  350MOL0     C47146  12.511   6.869   0.883  0.6242 -0.3942  1.0973
  350MOL0     C47147  12.528   6.890   1.021 -0.0098  0.3107 -0.3369
  350MOL0     C47148  12.657   6.900   1.076  0.4394 -0.3977 -0.1280
  350MOL0     C47149  12.774   6.891   0.993  0.1268  1.0279 -0.0276
  350MOL0     O47150  12.900   6.874   1.048  0.2876  0.8683  0.4131
  350MOL0     C47151  13.002   6.953   0.996 -0.4052 -0.0002  0.6349
  350MOL0     C47152  13.120   6.965   1.096 -0.8332  0.1284  0.3005
  350MOL0     C47153  13.071   7.013   1.236  0.1208  0.4607 -0.2790
  350MOL0     C47154  13.029   7.162   1.244 -0.4649  0.3677 -0.1262
  350MOL0     C47155  12.956   7.208   1.376 -1.0821  0.0415  0.2853
  350MOL0     C47156  12.806   7.177   1.364 -0.1302 -0.8234 -0.4187
  350MOL0     C47157  12.739   7.186   1.506 -0.2438  0.8077  0.4812
  350MOL0     C47158  12.599   7.219   1.494  0.0818  0.5129 -0.0511
  350MOL0    Cl47159  12.519   7.104   1.382  0.0193  0.2593  0.1832
  350MOL0     C47160  12.760   6.879   0.849  0.7747 -0.3535  0.4547
  350MOL0     C47161  12.625   6.854   0.800 -0.5409  0.6425 -0.2506
  350MOL0     O47162  12.265   6.993   0.963 -0.0237  0.1478 -0.0780
  350MOL0     C47163  12.144   6.770   0.714 -0.2939  0.2803  0.3398
  350MOL0     C47164  12.026   6.745   0.648  0.4000 -0.7161 -0.2045
  350MOL0     N47165  11.313   7.179   0.803  0.1678  0.3570  0.6461
  350MOL0     N47166  11.213   7.261   0.779 -0.5419  0.1275  0.8614
  350MOL0     C47167  10.184   7.295   0.374 -0.3948 -0.5889 -0.8742
  350MOL0     C47168  10.119   7.194   0.299  0.6009  0.4382  0.3635
  350MOL0     C47169   9.988   6.901   0.017 -0.2293 -0.4559 -0.6032
  350MOL0     C47170  10.051   6.808  -0.065 -0.9640  0.4399 -0.2232
  350MOL0     C47171   9.975   6.735  -0.155  0.5216  0.5510  0.1175
  350MOL0     C47172   9.840   6.775  -0.184 -0.0263  0.4050 -0.3742
  350MOL0     O47173   9.763   6.708  -0.271  0.7017 -0.1603 -0.1729
  350MOL0     C47174   9.697   6.795  -0.376 -0.1864  0.3069 -0.4845
  350MOL0     C47175   9.691   6.724  -0.504 -0.4040  0.6153  0.2436
  350MOL0     C47176   9.611   6.597  -0.492 -0.1502  0.9066 -0.5206
  350MOL0     C47177   9.460   6.613  -0.471 -0.4218  0.0933  0.5244
  350MOL0     C47178   9.387   6.650  -0.592 -0.5616  0.1459 -0.3456
  350MOL0     C47179   9.324   6.697  -0.684 -0.1452  0.1041  0.4363
  350MOL0     C47180   9.780   6.873  -0.106 -0.0944  0.4060  0.2668
  350MOL0     C47181   9.856   6.938  -0.006  0.0713  0.0112 -0.3008
  350MOL0     C47182   9.785   7.048   0.080 -0.4396  0.1938  0.0539
  350MOL0     H47183  10.315   7.225   0.026  0.2820 -0.7533 -0.1976
  350MOL0     H47184  10.437   7.389   0.178  0.5774  0.7539  2.6058
  350MOL0     H47185  10.216   7.515   0.552  0.5281 -0.6353 -0.2292
  350MOL0     H47186  10.324   7.377   0.597  1.0033 -0.4482  1.3084
  350MOL0     H47187  10.349   7.610   0.701  2.3293  2.2454  0.0424
  350MOL0     H47188  10.417   7.650   0.547  0.1588 -1.0029 -0.5801
  350MOL0     H47189  10.527   7.435   0.734  0.5044 -2.4676 -2.8664
  350MOL0     H47190  10.601   7.597   0.713 -1.6714  1.8996 -0.0155
  350MOL0     H47191  10.580   7.382   0.491 -1.5570  0.0552  0.0289
  350MOL0     H47192  10.644   7.531   0.462  1.2961  0.3767  0.4192
  350MOL0     H47193  10.830   7.517   0.650  2.4508 -1.2294 -1.2946
  350MOL0     H47194  10.752   7.354   0.682  0.8680 -1.1825 -0.0555
  350MOL0     H47195  10.829   7.276   0.458 -1.9550  0.9391 -3.0153
  350MOL0     H47196  10.867   7.446   0.408  2.2385 -3.1922 -3.4813
  350MOL0     H47197  11.050   7.444   0.590  2.5714 -0.1879 -3.8077
  350MOL0     H47198  11.082   7.325   0.477  2.6354  2.6964 -0.0698
  350MOL0     H47199  10.952   7.282   0.750  0.1167 -2.0886  0.8376
  350MOL0     H47200  10.937   7.159   0.607 -0.5370  0.1266 -0.6650
  350MOL0     H47201  11.166   7.009   0.574  3.4217 -1.4518  0.2061
  350MOL0     H47202  11.503   6.977   0.755 -0.5290  0.7744  0.8418
  350MOL0     H47203  11.380   6.862   0.730  0.3812  0.2996  0.0170
  350MOL0     H47204  11.373   6.909   0.487 -0.3500 -1.7667  1.5042
  350MOL0     H47205  11.480   7.049   0.510 -0.3988  0.6420  1.5016
  350MOL0     H47206  11.572   6.846   0.409 -1.4440  1.0338 -0.2597
  350MOL0     H47207  11.559   6.750   0.557  1.3195 -0.9929 -1.3731
  350MOL0     H47208  11.692   6.943   0.675 -2.2408  1.1920 -0.5804
  350MOL0     H47209  11.740   6.997   0.514  2.1411 -0.7765  0.2095
  350MOL0     H47210  11.915   7.074   0.643 -1.6639 -0.6412  3.9865
  350MOL0     H47211  12.102   7.093   0.795  1.2120 -0.8758  0.3535
  350MOL0     H47212  12.442   6.873   1.085 -1.4650  0.7197 -2.1190
  350MOL0     H47213  12.660   6.907   1.184 -1.4841 -2.0064  0.0767
  350MOL0     H47214  13.044   6.911   0.905  1.0331  0.6468  0.9785
  350MOL0     H47215  12.970   7.056   0.977  0.2148  0.5170  2.1746
  350MOL0     H47216  13.165   6.869   1.121  1.3338  1.2299  0.9070
  350MOL0     H47217  13.203   7.028   1.062 -1.7390  0.6871 -0.9360
  350MOL0     H47218  12.985   6.951   1.264  2.2087 -2.1418  0.8670
  350MOL0     H47219  13.151   7.003   1.310  0.6666  0.5271 -0.8492
  350MOL0     H47220  12.974   7.184   1.152  0.6386  0.2340 -0.8354
  350MOL0     H47221  13.117   7.228   1.242 -0.4161  0.3314  0.5673
  350MOL0     H47222  12.965   7.317   1.377 -2.6124  0.2852 -2.2965
  350MOL0     H47223  12.998   7.154   1.461  1.5580  0.1020 -0.8837
  350MOL0     H47224  12.760   7.254   1.302  1.3169  1.5648  1.2984
  350MOL0     H47225  12.790   7.086   1.305 -2.8898  1.2433 -3.1696
  350MOL0     H47226  12.805   7.240   1.575  1.8368  1.1098 -1.6004
  350MOL0     H47227  12.734   7.081   1.537 -1.0443 -0.1370 -2.5435
  350MOL0     H47228  12.549   7.226   1.591 -1.5937  0.4924 -0.8830
  350MOL0     H47229  12.581   7.316   1.447  1.2412  0.2701 -1.0371
  350MOL0     H47230  12.838   6.856   0.776 -1.7292 -3.8041 -1.4996
  350MOL0     H47231  12.628   6.812   0.700  1.0667 -0.1842  0.1059
  350MOL0     H47232  12.213   6.688   0.729 -0.1085 -0.1330 -2.2977
  350MOL0     H47233  12.017   6.641   0.619 -1.6322 -0.9927  1.1928
  350MOL0     H47234  10.132   7.314   0.467  2.0618 -0.5122  0.5693
  350MOL0     H47235  10.031   7.141   0.334  0.8118  0.2792  0.6445
  350MOL0     H47236  10.158   6.792  -0.058 -0.8091 -1.0224 -3.9672
  350MOL0     H47237  10.006   6.645  -0.206  0.4779 -0.7358  2.2572
  350MOL0     H47238   9.734   6.895  -0.397 -2.5526  1.1243 -1.1292
  350MOL0     H47239   9.597   6.820  -0.338 -0.2658 -0.4991 -0.1304
  350MOL0     H47240   9.795   6.698  -0.524 -0.2219  1.3868  0.1464
  350MOL0     H47241   9.654   6.788  -0.584  2.1448  1.3537 -0.4519
  350MOL0     H47242   9.655   6.543  -0.408  0.4902 -0.9728 -1.9752
  350MOL0     H47243   9.629   6.534  -0.580  1.1400  0.7567 -0.1826
  350MOL0     H47244   9.419   6.517  -0.438  3.6187 -1.8276  0.5145
  350MOL0     H47245   9.434   6.688  -0.395 -1.4996  0.0782  0.1915
  350MOL0     H47246   9.282   6.742  -0.772  0.5598 -1.4978 -0.7821
  350MOL0     H47247   9.674   6.892  -0.125 -0.6068 -0.1053  2.2984
  350MOL0     H47248   9.769   7.006   0.179  1.0754 -1.1947 -0.2419
  350MOL0     H47249   9.851   7.134   0.087 -0.5009  0.3068 -0.6712
  350MOL0     H47250   9.694   7.079   0.027 -1.2025 -2.2068 -0.1908
  351MOL0     O47251   0.182  10.481   2.772  0.2917 -0.6323  0.1207
  351MOL0     C47252   0.100  10.449   2.863  1.4890  0.1913  0.3145
  351MOL0     O47253   0.129  10.443   2.996  0.4025  1.1197  0.6397
  351MOL0     C47254   0.249  10.488   3.037  0.2899  0.8283 -0.4579
  351MOL0     C47255   0.371  10.432   2.997  0.2885  0.2594 -0.0750
  351MOL0     C47256   0.488  10.486   3.048 -0.6630 -0.3172 -0.2581
  351MOL0     C47257   0.484  10.589   3.138  0.0173 -0.6080  0.0621
  351MOL0     O47258   0.585  10.640   3.216 -0.1497  0.9347  0.1442
  351MOL0     C47259   0.719  10.615   3.174  0.3216 -0.7565  1.0289
  351MOL0     C47260   0.796  10.670   3.285  0.2936  0.0148 -0.0633
  351MOL0     C47261   0.942  10.671   3.236 -0.0570  0.6475 -0.3192
  351MOL0     C47262   1.036  10.703   3.349 -0.8176  0.7002  1.0922
  351MOL0     C47263   1.181  10.712   3.287  0.0893  0.0043 -0.1855
  351MOL0     C47264   1.272  10.780   3.391  0.2137 -1.1097 -0.1563
  351MOL0     C47265   1.420  10.757   3.355 -0.1692  0.1805 -0.0456
  351MOL0     C47266   1.502  10.886   3.388  0.0093 -0.7557  0.4821
  351MOL0     N47267   1.653  10.864   3.386  0.2152  0.2323  0.1971
  351MOL0     C47268   1.730  10.806   3.287 -0.4148  0.5745  0.0532
  351MOL0     C47269   1.857  10.816   3.329  0.6603 -0.8962 -0.3144
  351MOL0     C47270   1.971  10.757   3.251 -0.0652  0.3811 -0.9210
  351MOL0     C47271   2.015  10.837   3.124 -0.4282  0.2218  0.6351
  351MOL0     C47272   2.158  10.788   3.097 -0.5230  0.7867  0.2726
  351MOL0     C47273   2.269  10.827   3.198 -0.1828 -0.1065 -0.3811
  351MOL0     O47274   2.274  10.970   3.210  0.6949 -0.0210  0.7335
  351MOL0     C47275   2.388  11.026   3.264  0.6994 -0.2839  0.4912
  351MOL0     C47276   2.390  11.167   3.252  0.1137  0.0560  0.4660
  351MOL0     C47277   2.506  11.244   3.282 -0.4292  0.9545  0.0050
  351MOL0     C47278   2.621  11.173   3.328  0.0499 -0.2870  0.2284
  351MOL0     C47279   2.747  11.244   3.350 -0.2149  0.1731 -0.0398
  351MOL0     O47280   2.736  11.373   3.311 -0.5067 -0.0851  0.2547
  351MOL0     C47281   2.845  11.450   3.329 -1.3131 -0.6214  0.7754
  351MOL0     C47282   2.939  11.477   3.220  1.0922  0.9469  0.2035
  351MOL0     C47283   3.050  11.549   3.237 -0.6167 -0.8989 -0.3117
  351MOL0     C47284   3.089  11.601   3.366 -0.3290 -0.0188  0.3920
  351MOL0     O47285   3.211  11.652   3.406  0.5080 -0.0211  0.3375
  351MOL0     C47286   3.302  11.668   3.300 -0.7366  0.1932  0.3962
  351MOL0     C47287   3.421  11.733   3.363 -0.8765 -0.1135 -0.7182
  351MOL0     C47288   3.548  11.749   3.279  0.1501 -0.4075  0.6272
  351MOL0     C47289   3.601  11.618   3.217  0.7062 -0.3850 -0.1075
  351MOL0     C47290   3.748  11.628   3.181 -0.4363  0.2424 -0.5426
  351MOL0     C47291   3.795  11.746   3.091 -0.5805 -0.4133 -0.3591
  351MOL0     C47292   3.945  11.737   3.057 -0.2769 -0.4881  0.8691
  351MOL0     C47293   4.032  11.743   3.180 -0.5516 -0.6232 -0.0046
  351MOL0    Cl47294   4.005  11.902   3.257 -0.0639  0.3058 -0.3106
  351MOL0     C47295   3.000  11.572   3.465 -0.1598 -1.1026  0.5217
  351MOL0     C47296   2.883  11.504   3.456  0.8100  0.3468 -0.0516
  351MOL0     O47297   2.845  11.185   3.398  0.3116  0.0931 -0.2538
  351MOL0     C47298   2.610  11.033   3.350 -0.6845 -0.8483 -0.6232
  351MOL0     C47299   2.493  10.961   3.323  0.3626 -0.0994 -0.5019
  351MOL0     N47300   1.856  10.898   3.441  0.6079 -0.1535  0.2051
  351MOL0     N47301   1.740  10.927   3.472  0.6347 -0.1861 -0.4169
  351MOL0     C47302   0.360  10.636   3.182  0.3374 -0.3153 -0.4247
  351MOL0     C47303   0.244  10.590   3.138  0.0821 -0.8760 -0.3134
  351MOL0     C47304  -0.044  10.415   2.829  0.0931  0.3694 -0.3065
  351MOL0     C47305  -0.125  10.348   2.920  0.4451  0.1623  0.4863
  351MOL0     C47306  -0.259  10.313   2.882  0.6577  0.2666  0.5801
  351MOL0     C47307  -0.324  10.359   2.765  0.3352 -0.0442  0.0420
  351MOL0     O47308  -0.443  10.322   2.720  0.6662  0.0034 -0.0867
  351MOL0     C47309  -0.534  10.256   2.805  0.1050 -0.3805  0.1659
  351MOL0     C47310  -0.613  10.355   2.889  0.9203 -0.9182 -0.0277
  351MOL0     C47311  -0.716  10.442   2.803 -0.7086  1.3481 -0.8387
  351MOL0     C47312  -0.835  10.360   2.749 -0.5239 -0.4283  0.8945
  351MOL0     C47313  -0.913  10.295   2.850  0.3221  0.0751  0.5996
  351MOL0     C47314  -0.982  10.254   2.943 -0.0596 -1.0895  0.5376
  351MOL0     C47315  -0.242  10.423   2.674  0.0532 -0.8864  0.2816
  351MOL0     C47316  -0.102  10.448   2.699  0.4047 -0.6399 -0.5319
  351MOL0     C47317  -0.028  10.515   2.582  0.2558  0.3775 -0.3749
  351MOL0     H47318   0.383  10.347   2.931  0.6763  0.7444 -0.6361
  351MOL0     H47319   0.584  10.443   3.021 -0.7626 -1.5433  1.1955
  351MOL0     H47320   0.742  10.509   3.158  0.5397 -0.6163  0.3830
  351MOL0     H47321   0.732  10.673   3.082 -1.1848  0.7426  1.7064
  351MOL0     H47322   0.788  10.601   3.369 -2.2982  0.6490  0.3051
  351MOL0     H47323   0.769  10.772   3.317  0.8887  0.3704 -0.6658
  351MOL0     H47324   0.963  10.752   3.166  0.0016  1.2077  0.3291
  351MOL0     H47325   0.966  10.576   3.188  0.0424  0.2609  0.4710
  351MOL0     H47326   1.017  10.804   3.387  2.0255  0.5542  3.2660
  351MOL0     H47327   1.040  10.630   3.430 -0.6656 -1.8201 -1.0552
  351MOL0     H47328   1.216  10.609   3.274  0.4044  0.0691  0.1248
  351MOL0     H47329   1.187  10.769   3.194  2.2136  1.2146  0.6124
  351MOL0     H47330   1.254  10.887   3.388 -0.3985 -1.1281  1.6103
  351MOL0     H47331   1.242  10.742   3.489 -4.8644 -3.0706 -2.1150
  351MOL0     H47332   1.431  10.733   3.248  0.8174 -0.1654  0.1180
  351MOL0     H47333   1.466  10.675   3.411  0.9963  1.6861  1.3064
  351MOL0     H47334   1.472  10.961   3.315 -1.1735 -3.1108 -1.5754
  351MOL0     H47335   1.473  10.921   3.487 -0.4288  1.9858 -0.5448
  351MOL0     H47336   1.691  10.751   3.202  0.2179 -0.5524  0.4688
  351MOL0     H47337   2.055  10.747   3.320  1.5338  2.1419 -2.5037
  351MOL0     H47338   1.940  10.653   3.233  1.3339  0.0217 -1.4421
  351MOL0     H47339   1.947  10.822   3.039  0.6417  0.0867 -0.2140
  351MOL0     H47340   2.019  10.942   3.155  0.2512  0.0176  1.2684
  351MOL0     H47341   2.195  10.840   3.008  0.0491  1.1010  0.6833
  351MOL0     H47342   2.154  10.682   3.069 -0.8322  1.2119 -1.4062
  351MOL0     H47343   2.365  10.784   3.168  0.3142 -0.6217  1.7413
  351MOL0     H47344   2.257  10.770   3.291 -0.1124 -0.2260 -0.4462
  351MOL0     H47345   2.303  11.215   3.208  2.5718  1.9210 -2.8472
  351MOL0     H47346   2.497  11.351   3.270 -1.8535  0.8556  0.0002
  351MOL0     H47347   2.908  11.425   3.130  0.9424  1.2258  0.0932
  351MOL0     H47348   3.108  11.557   3.145 -4.1819  1.6315 -2.6052
  351MOL0     H47349   3.323  11.568   3.260  0.5831  0.3331  0.7125
  351MOL0     H47350   3.262  11.732   3.221 -3.3921 -0.4545  1.1076
  351MOL0     H47351   3.396  11.837   3.387  2.7685  0.7832 -0.1903
  351MOL0     H47352   3.450  11.684   3.456  0.4612  2.9801  0.6346
  351MOL0     H47353   3.521  11.819   3.199 -3.9828 -1.3519  0.9604
  351MOL0     H47354   3.628  11.795   3.338  1.0321  1.6509 -1.9905
  351MOL0     H47355   3.553  11.598   3.121  1.2016  3.4411 -1.3376
  351MOL0     H47356   3.593  11.539   3.293 -0.7760  0.0741  0.2471
  351MOL0     H47357   3.775  11.537   3.127  0.8260  0.7840 -0.8625
  351MOL0     H47358   3.801  11.630   3.277  2.9838  1.9437 -2.2817
  351MOL0     H47359   3.740  11.731   2.997  0.0808 -2.4046 -0.4729
  351MOL0     H47360   3.779  11.846   3.132  3.7780  0.2589  0.1879
  351MOL0     H47361   3.968  11.824   2.995 -1.7476 -0.0550  0.8967
  351MOL0     H47362   3.956  11.646   2.998  0.1403  1.3314 -2.0761
  351MOL0     H47363   4.011  11.657   3.245 -0.9633  1.1288  2.3001
  351MOL0     H47364   4.133  11.738   3.139 -1.5646  1.3015 -3.0793
  351MOL0     H47365   3.029  11.591   3.568 -6.2289 -0.1516  2.4294
  351MOL0     H47366   2.822  11.487   3.544  0.2578  0.1691 -0.4573
  351MOL0     H47367   2.680  10.985   3.418 -1.8253  0.5419  1.6553
  351MOL0     H47368   2.490  10.857   3.353 -0.3040  0.2985  0.9013
  351MOL0     H47369   0.372  10.709   3.262  3.6096  0.1263 -1.1906
  351MOL0     H47370   0.152  10.642   3.162  2.2362  2.5428  1.3428
  351MOL0     H47371  -0.077  10.319   3.012  2.5528 -0.9607 -0.8964
  351MOL0     H47372  -0.311  10.258   2.959  2.3460  0.6787  2.0822
  351MOL0     H47373  -0.497  10.180   2.874 -1.6927 -1.4260  0.0239
  351MOL0     H47374  -0.598  10.200   2.736  2.0614 -0.6685 -1.5215
  351MOL0     H47375  -0.541  10.416   2.944 -2.8932 -0.3116  5.0072
  351MOL0     H47376  -0.665  10.310   2.973  3.3021 -1.6079  1.1547
  351MOL0     H47377  -0.656  10.478   2.719 -2.1172 -1.0553 -3.0076
  351MOL0     H47378  -0.757  10.522   2.866 -0.2384  1.8852 -1.2106
  351MOL0     H47379  -0.900  10.430   2.696 -2.3781 -1.7352  1.3621
  351MOL0     H47380  -0.793  10.292   2.674 -3.0618 -0.2734 -0.7827
  351MOL0     H47381  -1.024  10.204   3.028  2.1431 -4.0952  0.0377
  351MOL0     H47382  -0.297  10.454   2.586  3.1657  0.7953 -1.2386
  351MOL0     H47383  -0.084  10.520   2.488  0.2199 -0.1247 -0.3861
  351MOL0     H47384  -0.003  10.614   2.619 -0.0918  0.7281 -1.0565
  351MOL0     H47385   0.061  10.455   2.560  1.4173  1.3667  1.4287
  352MOL0     O47386   5.792   0.460   0.496 -0.5787  0.0020  0.5876
  352MOL0     C47387   5.695   0.422   0.572 -1.0500 -0.4769 -0.0359
  352MOL0     O47388   5.704   0.405   0.702 -0.7631  0.8982  0.1479
  352MOL0     C47389   5.835   0.407   0.756 -0.2631 -0.9829 -0.4119
  352MOL0     C47390   5.908   0.289   0.770 -0.0016 -1.2153 -0.3297
  352MOL0     C47391   6.040   0.283   0.815  0.4064  0.1211  0.0342
  352MOL0     C47392   6.099   0.399   0.874 -0.2749 -0.3053 -0.3293
  352MOL0     O47393   6.228   0.392   0.923  0.1807  1.0983 -0.3943
  352MOL0     C47394   6.283   0.498   1.000  0.0795  0.2558 -0.1252
  352MOL0     C47395   6.354   0.601   0.903  0.3328 -0.0514 -0.0979
  352MOL0     C47396   6.500   0.567   0.855  0.3602 -1.1497  0.6954
  352MOL0     C47397   6.617   0.574   0.943 -0.3277  0.2253 -0.0483
  352MOL0     C47398   6.748   0.530   0.868  0.2988  1.0012 -0.5723
  352MOL0     C47399   6.872   0.529   0.954  0.6136  0.0689 -0.2185
  352MOL0     C47400   7.002   0.496   0.877  0.3579 -0.1150  0.1502
  352MOL0     C47401   7.014   0.341   0.836 -0.2641  0.7923 -0.6629
  352MOL0     N47402   6.965   0.300   0.702  0.0904 -0.1068  0.1325
  352MOL0     C47403   6.912   0.383   0.606 -0.1516 -0.2456  0.3776
  352MOL0     C47404   6.843   0.298   0.523  0.0429 -0.2542  0.9670
  352MOL0     C47405   6.750   0.341   0.417  0.0865 -0.1077 -0.4554
  352MOL0     C47406   6.780   0.297   0.275  0.0102 -0.0856 -0.1483
  352MOL0     C47407   6.678   0.365   0.176 -0.9448  0.0223 -0.9528
  352MOL0     C47408   6.535   0.324   0.182 -0.1641 -0.0217 -0.0709
  352MOL0     O47409   6.525   0.179   0.169 -0.2347  0.5252  0.4754
  352MOL0     C47410   6.409   0.114   0.136 -0.0179  0.5607 -0.1653
  352MOL0     C47411   6.417  -0.017   0.087  0.8344  0.0884  0.2231
  352MOL0     C47412   6.307  -0.099   0.060  0.2657 -0.2621 -0.0079
  352MOL0     C47413   6.178  -0.041   0.073  0.3150  0.6176  0.7884
  352MOL0     C47414   6.050  -0.127   0.051  0.1477  0.3807  0.0069
  352MOL0     O47415   5.923  -0.064   0.072 -0.4086  0.2637 -0.1640
  352MOL0     C47416   5.815  -0.147   0.076 -0.7137  0.0245 -0.3153
  352MOL0     C47417   5.819  -0.270   0.147  0.0981 -0.0377 -0.7334
  352MOL0     C47418   5.709  -0.353   0.150 -0.0552 -0.7261  0.1140
  352MOL0     C47419   5.586  -0.311   0.098  0.8905 -0.3673 -1.1787
  352MOL0     O47420   5.476  -0.407   0.099 -0.4512 -0.3549  0.3097
  352MOL0     C47421   5.354  -0.358   0.055  0.5443 -0.1668  0.0398
  352MOL0     C47422   5.246  -0.468   0.073  0.3132  0.3281 -1.0684
  352MOL0     C47423   5.100  -0.433   0.048 -0.8893 -0.7265  0.0615
  352MOL0     C47424   5.007  -0.550   0.034 -0.2275  0.6444 -0.0431
  352MOL0     C47425   4.866  -0.522  -0.007  0.1210 -0.8637  0.2273
  352MOL0     C47426   4.793  -0.434   0.100  0.0310  0.9733  0.9734
  352MOL0     C47427   4.651  -0.433   0.043  0.1107 -0.6303  0.2077
  352MOL0     C47428   4.554  -0.364   0.135 -0.2605 -0.4928 -0.1603
  352MOL0    Cl47429   4.404  -0.333   0.049 -0.0000 -0.0165 -0.3683
  352MOL0     C47430   5.580  -0.181   0.051  0.1251  0.3218 -0.0660
  352MOL0     C47431   5.693  -0.101   0.041  0.0227  0.3652  0.5310
  352MOL0     O47432   6.068  -0.237  -0.001  0.3872  0.0966  0.6345
  352MOL0     C47433   6.172   0.090   0.116  0.0227 -0.3644  0.0752
  352MOL0     C47434   6.283   0.168   0.147  0.1215  0.3961  0.3893
  352MOL0     N47435   6.859   0.171   0.563  0.7774  0.7543  0.3918
  352MOL0     N47436   6.927   0.167   0.666  0.2833 -0.4465 -0.2504
  352MOL0     C47437   6.022   0.522   0.869 -0.5323 -0.6545 -0.7671
  352MOL0     C47438   5.895   0.527   0.814  0.4820  0.1197 -0.5992
  352MOL0     C47439   5.569   0.404   0.507  0.0593  0.9889 -0.3373
  352MOL0     C47440   5.517   0.501   0.426  0.1572  0.2713 -0.4858
  352MOL0     C47441   5.392   0.502   0.386 -0.0644  0.4972  0.4993
  352MOL0     C47442   5.304   0.401   0.424  0.5790  1.0174  0.0472
  352MOL0     O47443   5.171   0.409   0.381  0.4131 -0.2833 -0.0925
  352MOL0     C47444   5.068   0.308   0.410  0.4882 -0.4259 -0.4514
  352MOL0     C47445   5.025   0.319   0.562  0.4765 -0.4686  0.1948
  352MOL0     C47446   4.903   0.233   0.603  0.3076 -0.6202 -0.2403
  352MOL0     C47447   4.770   0.279   0.537 -1.1670  0.9647 -0.1871
  352MOL0     C47448   4.729   0.414   0.575 -0.3265 -0.3900  0.2770
  352MOL0     C47449   4.700   0.531   0.598  0.1537 -0.0918  0.3764
  352MOL0     C47450   5.351   0.296   0.503  0.0080  0.8074  0.3800
  352MOL0     C47451   5.479   0.303   0.551 -0.0086 -0.1099 -0.1322
  352MOL0     C47452   5.514   0.177   0.632  0.6451 -0.9345  0.3366
  352MOL0     H47453   5.860   0.203   0.723 -1.8737  0.4599 -1.6567
  352MOL0     H47454   6.092   0.187   0.815 -1.6792 -1.0768 -0.3454
  352MOL0     H47455   6.210   0.543   1.068 -0.2718 -0.0948 -0.2700
  352MOL0     H47456   6.354   0.450   1.068 -0.3214  2.3962  1.9423
  352MOL0     H47457   6.360   0.695   0.959  0.9273 -0.6641  0.9042
  352MOL0     H47458   6.287   0.617   0.818 -0.7229  3.3808  1.2055
  352MOL0     H47459   6.510   0.632   0.768  2.2246 -2.3601 -0.0449
  352MOL0     H47460   6.493   0.475   0.796 -2.3416  0.2957 -1.4550
  352MOL0     H47461   6.635   0.668   0.996  0.4834  0.0493  0.0001
  352MOL0     H47462   6.590   0.505   1.023  1.7086  0.2133  0.6923
  352MOL0     H47463   6.721   0.432   0.829  0.5748  0.6340  0.1597
  352MOL0     H47464   6.758   0.595   0.780 -1.9139 -0.2437 -1.8551
  352MOL0     H47465   6.876   0.634   0.985  2.3973 -0.6388  2.3035
  352MOL0     H47466   6.857   0.476   1.048 -0.5459 -3.1034 -2.0525
  352MOL0     H47467   7.085   0.520   0.943  0.8370 -1.0446 -0.0864
  352MOL0     H47468   7.011   0.566   0.794  1.1035  0.5052  0.7458
  352MOL0     H47469   7.121   0.323   0.840 -0.3049 -0.1462 -2.7763
  352MOL0     H47470   6.974   0.273   0.912  2.4113 -0.9240 -0.6796
  352MOL0     H47471   6.904   0.491   0.606  0.0912 -0.2192 -0.6952
  352MOL0     H47472   6.652   0.294   0.435 -0.3291  0.5676 -0.9029
  352MOL0     H47473   6.732   0.448   0.423  0.3915 -0.1294  1.1355
  352MOL0     H47474   6.884   0.322   0.254 -0.2556  0.0498 -1.3854
  352MOL0     H47475   6.769   0.188   0.270  0.9080 -0.1287 -1.6057
  352MOL0     H47476   6.730   0.354   0.080  0.5151 -1.5656 -0.0479
  352MOL0     H47477   6.674   0.470   0.204 -0.4680 -0.9348  3.4987
  352MOL0     H47478   6.479   0.378   0.105 -3.2208 -0.4643  1.6801
  352MOL0     H47479   6.490   0.354   0.276  0.3548 -0.9805  0.4989
  352MOL0     H47480   6.511  -0.066   0.064  0.3879 -0.0440 -1.4794
  352MOL0     H47481   6.317  -0.205   0.042 -0.6399 -0.3570 -0.0003
  352MOL0     H47482   5.914  -0.302   0.189 -1.1466  0.9714  3.4185
  352MOL0     H47483   5.714  -0.458   0.177 -2.6027 -1.0010 -0.2273
  352MOL0     H47484   5.319  -0.280   0.123 -5.1238 -1.6376 -0.7000
  352MOL0     H47485   5.355  -0.325  -0.049 -3.2428 -0.6692 -0.2770
  352MOL0     H47486   5.278  -0.550   0.008  0.8889 -0.8587  0.6370
  352MOL0     H47487   5.259  -0.500   0.177  2.4911  1.0581 -1.0508
  352MOL0     H47488   5.070  -0.368   0.130  0.1563 -0.9206  0.6144
  352MOL0     H47489   5.104  -0.385  -0.050 -1.0783 -1.0136 -0.0908
  352MOL0     H47490   5.018  -0.607   0.126  0.6047 -1.2484 -1.2384
  352MOL0     H47491   5.050  -0.612  -0.046 -1.0562  0.8437 -0.6657
  352MOL0     H47492   4.814  -0.617  -0.003 -0.5401 -0.4750  1.3287
  352MOL0     H47493   4.854  -0.487  -0.110  0.6766  0.7653  0.6766
  352MOL0     H47494   4.790  -0.479   0.200  0.7647 -1.9402 -0.1970
  352MOL0     H47495   4.851  -0.342   0.106 -0.3344  1.4188 -1.3767
  352MOL0     H47496   4.605  -0.528   0.014 -0.2962 -0.0233 -1.2483
  352MOL0     H47497   4.652  -0.374  -0.050  4.2585  0.8592  0.9619
  352MOL0     H47498   4.536  -0.425   0.224  1.6505 -1.7250 -0.5514
  352MOL0     H47499   4.608  -0.272   0.159  0.6447 -0.9753 -0.2916
  352MOL0     H47500   5.483  -0.147   0.016 -0.5018 -1.4353 -0.1527
  352MOL0     H47501   5.678  -0.004  -0.005  2.3125  2.0117  2.9539
  352MOL0     H47502   6.075   0.137   0.117  0.4952  0.6225  0.2663
  352MOL0     H47503   6.282   0.276   0.162 -0.9856  0.6956 -1.4629
  352MOL0     H47504   6.067   0.613   0.909 -2.9076 -1.0483  3.3223
  352MOL0     H47505   5.854   0.627   0.806  0.3834  0.5425  3.3315
  352MOL0     H47506   5.573   0.593   0.417 -0.2866  0.5184 -0.7274
  352MOL0     H47507   5.364   0.594   0.334 -0.0008 -0.7222 -1.8253
  352MOL0     H47508   5.095   0.209   0.371 -1.1854 -0.6456 -1.1532
  352MOL0     H47509   4.985   0.344   0.348 -1.7572  1.1288  3.1732
  352MOL0     H47510   4.998   0.423   0.583  2.6295  0.0648  0.5715
  352MOL0     H47511   5.116   0.295   0.618  2.0158 -3.2312 -3.1968
  352MOL0     H47512   4.902   0.217   0.711  1.2909  0.4289 -0.0501
  352MOL0     H47513   4.922   0.127   0.579 -2.2949 -0.9870 -0.9863
  352MOL0     H47514   4.774   0.284   0.428  0.8996 -2.8232 -0.4523
  352MOL0     H47515   4.697   0.206   0.572 -0.0200 -0.3238 -0.4146
  352MOL0     H47516   4.666   0.629   0.622  1.0741  0.2044  0.4929
  352MOL0     H47517   5.280   0.217   0.527 -2.0214  2.5749  0.5160
  352MOL0     H47518   5.436   0.101   0.618 -0.5991  0.6800 -2.1917
  352MOL0     H47519   5.611   0.132   0.609  1.3434  0.8075 -0.2647
  352MOL0     H47520   5.527   0.205   0.737  2.3806 -1.3513  0.2715
  353MOL0     O47521   1.937   6.443   2.239  0.7046  0.0136  0.8566
  353MOL0     C47522   1.928   6.510   2.133 -0.4465 -0.2085 -0.1284
  353MOL0     O47523   2.032   6.571   2.073  0.2592 -0.0224 -0.0636
  353MOL0     C47524   2.160   6.561   2.126  0.7783  0.1398 -1.0910
  353MOL0     C47525   2.229   6.443   2.167  0.1619 -0.1828 -0.2330
  353MOL0     C47526   2.361   6.443   2.224  0.6394 -0.6313 -0.4851
  353MOL0     C47527   2.425   6.558   2.263 -0.4485 -0.4248 -0.5069
  353MOL0     O47528   2.547   6.558   2.322  0.0520  0.2029 -0.0983
  353MOL0     C47529   2.636   6.671   2.339 -0.0568 -0.2904  0.0352
  353MOL0     C47530   2.762   6.627   2.400 -0.8241 -0.7508 -0.4136
  353MOL0     C47531   2.856   6.748   2.454  0.3353  0.5159 -0.1548
  353MOL0     C47532   2.996   6.710   2.501 -0.1042 -0.2366  0.3903
  353MOL0     C47533   3.094   6.819   2.551 -0.7936 -0.3187  0.2926
  353MOL0     C47534   3.231   6.772   2.611 -0.0567  0.3169 -0.7159
  353MOL0     C47535   3.332   6.885   2.589 -0.2087 -0.2110  0.3513
  353MOL0     C47536   3.445   6.860   2.694 -0.5140  0.3040 -0.0231
  353MOL0     N47537   3.544   6.965   2.687 -0.1666  0.0677 -0.3600
  353MOL0     C47538   3.680   6.969   2.658 -0.7779  0.2196 -0.3630
  353MOL0     C47539   3.720   7.096   2.667 -0.1168  0.2793  0.5010
  353MOL0     C47540   3.847   7.150   2.621  0.1704  0.2120 -0.9187
  353MOL0     C47541   3.882   7.115   2.480  0.6034  0.0195 -0.5904
  353MOL0     C47542   3.999   7.187   2.429 -0.1110 -0.4992  0.0634
  353MOL0     C47543   4.116   7.159   2.520  0.2691  0.2317 -0.0298
  353MOL0     O47544   4.231   7.230   2.458 -0.2439 -0.7827 -0.3094
  353MOL0     C47545   4.356   7.213   2.510  0.6505  0.1573  0.0126
  353MOL0     C47546   4.456   7.268   2.434 -0.3128  0.8076 -0.5010
  353MOL0     C47547   4.587   7.257   2.487  0.0739 -0.0135  1.0690
  353MOL0     C47548   4.605   7.199   2.616 -0.7760 -0.1125  0.8924
  353MOL0     C47549   4.737   7.173   2.670 -0.3621  0.1579 -0.5599
  353MOL0     O47550   4.839   7.197   2.583 -0.9059 -0.2639  0.3467
  353MOL0     C47551   4.968   7.173   2.640 -0.8166 -0.3739  0.1581
  353MOL0     C47552   5.031   7.048   2.626  0.0496 -0.4046 -0.4547
  353MOL0     C47553   5.162   7.040   2.679  0.2929  0.2653  0.1772
  353MOL0     C47554   5.221   7.142   2.749 -0.2629  0.3612 -0.6530
  353MOL0     O47555   5.337   7.102   2.795 -0.3788  0.5599 -0.1423
  353MOL0     C47556   5.441   7.202   2.818  1.7655 -1.0710 -0.0631
  353MOL0     C47557   5.571   7.151   2.886 -0.5414 -0.1821  0.2417
  353MOL0     C47558   5.670   7.274   2.898  0.6186 -0.3461 -0.4364
  353MOL0     C47559   5.785   7.235   2.989  0.2736 -0.2173 -0.8981
  353MOL0     C47560   5.877   7.139   2.907 -0.0358 -0.1884  0.7578
  353MOL0     C47561   6.015   7.126   2.970 -0.2529 -0.5746 -0.0580
  353MOL0     C47562   6.107   7.037   2.881  0.3253  0.1902 -0.1554
  353MOL0     C47563   6.235   7.005   2.957  0.5115 -0.3713 -0.4953
  353MOL0    Cl47564   6.320   7.154   3.011 -0.1183  0.5772  0.1642
  353MOL0     C47565   5.167   7.261   2.762 -0.3131 -0.4230  0.0517
  353MOL0     C47566   5.039   7.282   2.700 -0.9067 -0.0306 -0.6688
  353MOL0     O47567   4.747   7.128   2.788  0.5163 -0.8749  0.1592
  353MOL0     C47568   4.499   7.144   2.680  0.1239  1.1370 -0.1166
  353MOL0     C47569   4.372   7.156   2.632 -0.0724  0.0349  0.2136
  353MOL0     N47570   3.617   7.177   2.702 -0.1160 -0.3015  0.6273
  353MOL0     N47571   3.513   7.097   2.706  0.2898 -0.6727 -0.1757
  353MOL0     C47572   2.363   6.674   2.226 -0.0882 -0.5006  0.6595
  353MOL0     C47573   2.237   6.674   2.161  0.0386 -0.2378  0.2383
  353MOL0     C47574   1.791   6.515   2.069 -0.4600 -0.0027 -0.1383
  353MOL0     C47575   1.707   6.407   2.088  0.8506 -0.0250  0.4360
  353MOL0     C47576   1.578   6.420   2.044  0.3657  1.0501  0.0410
  353MOL0     C47577   1.533   6.532   1.972 -0.1490 -0.2820 -0.3261
  353MOL0     O47578   1.401   6.544   1.940  0.3947  0.1043  0.0190
  353MOL0     C47579   1.296   6.447   1.981 -0.1167  0.1422 -0.1008
  353MOL0     C47580   1.160   6.474   1.904 -0.7652 -0.2399  0.0175
  353MOL0     C47581   1.168   6.435   1.761 -0.3769 -0.5052  0.6116
  353MOL0     C47582   1.022   6.451   1.708 -0.0846 -0.0202  0.0870
  353MOL0     C47583   1.007   6.385   1.576 -0.2948 -1.0639 -0.8037
  353MOL0     C47584   0.984   6.334   1.468  0.0320  0.8841  0.0726
  353MOL0     C47585   1.626   6.630   1.940  0.2229  0.2233 -0.6610
  353MOL0     C47586   1.755   6.629   1.988 -0.4170 -0.1162 -0.0331
  353MOL0     C47587   1.843   6.754   1.961  1.1330  0.5166  0.4438
  353MOL0     H47588   2.186   6.347   2.141  2.3643 -1.1171 -0.6500
  353MOL0     H47589   2.412   6.356   2.263 -1.9222 -0.3306  4.4223
  353MOL0     H47590   2.644   6.721   2.242 -1.1108  0.8024  0.4983
  353MOL0     H47591   2.583   6.743   2.401 -1.4676  0.5139 -2.0237
  353MOL0     H47592   2.822   6.558   2.340 -0.1810 -3.8911  3.4283
  353MOL0     H47593   2.731   6.566   2.485  0.4867 -0.7427  0.1039
  353MOL0     H47594   2.799   6.802   2.531  1.0469 -0.7084  1.2837
  353MOL0     H47595   2.869   6.817   2.370 -0.1348 -0.8884 -1.4139
  353MOL0     H47596   2.984   6.652   2.593  1.0939  0.1770  0.8192
  353MOL0     H47597   3.042   6.647   2.424  0.2872  2.0469 -1.3470
  353MOL0     H47598   3.116   6.877   2.461 -1.9373 -0.4861 -0.1121
  353MOL0     H47599   3.043   6.891   2.615 -0.4315  1.2175 -1.0964
  353MOL0     H47600   3.216   6.749   2.717  0.4681  1.9094 -0.2732
  353MOL0     H47601   3.270   6.686   2.555 -0.9504 -0.0189 -0.8318
  353MOL0     H47602   3.278   6.979   2.609  0.0482  0.0201 -0.0287
  353MOL0     H47603   3.370   6.890   2.487  0.2659  0.2907  0.5458
  353MOL0     H47604   3.408   6.850   2.797 -2.4707 -0.2596 -0.7320
  353MOL0     H47605   3.497   6.770   2.659 -1.5110  0.3935 -1.8588
  353MOL0     H47606   3.732   6.886   2.612  0.0150 -0.8025  2.2027
  353MOL0     H47607   3.849   7.258   2.640  1.4976  0.1613 -0.6863
  353MOL0     H47608   3.921   7.103   2.687  1.1749  0.7013 -1.6699
  353MOL0     H47609   3.899   7.007   2.476  2.7751  0.3240 -0.4674
  353MOL0     H47610   3.800   7.135   2.409  0.6306 -1.7765 -1.1625
  353MOL0     H47611   3.970   7.293   2.430 -1.6447 -0.8858 -0.7088
  353MOL0     H47612   4.024   7.149   2.330  2.3275 -1.1057  0.8333
  353MOL0     H47613   4.137   7.052   2.513 -1.2097 -0.1206  0.6445
  353MOL0     H47614   4.098   7.195   2.621 -2.7432 -2.0455  0.3814
  353MOL0     H47615   4.447   7.308   2.334  0.1290 -0.5314 -1.0938
  353MOL0     H47616   4.665   7.290   2.418 -2.0054  2.0170 -0.4948
  353MOL0     H47617   4.979   6.965   2.579 -1.3282 -1.9579  3.3708
  353MOL0     H47618   5.203   6.940   2.672 -0.6670 -0.1998  0.9735
  353MOL0     H47619   5.464   7.246   2.720 -0.5320  0.2447 -0.0709
  353MOL0     H47620   5.401   7.281   2.882  0.6870 -1.7797  0.1678
  353MOL0     H47621   5.538   7.109   2.981 -1.2945 -0.5982 -0.1984
  353MOL0     H47622   5.624   7.073   2.831 -0.9068  1.5972 -2.9059
  353MOL0     H47623   5.702   7.302   2.798  0.4983 -0.4144 -0.4946
  353MOL0     H47624   5.619   7.362   2.939  2.9768  1.2173 -0.6538
  353MOL0     H47625   5.756   7.200   3.088 -1.4224 -0.1730 -1.3524
  353MOL0     H47626   5.843   7.327   3.002  0.6982 -0.9003  3.5159
  353MOL0     H47627   5.888   7.174   2.804  2.5936  0.1165  1.0690
  353MOL0     H47628   5.834   7.039   2.897 -0.6190  0.2928 -4.4245
  353MOL0     H47629   6.050   7.230   2.979 -1.7617  0.3168 -3.0968
  353MOL0     H47630   6.008   7.092   3.074  0.5080  0.4389  0.3389
  353MOL0     H47631   6.144   7.085   2.789 -0.3717 -2.2829 -1.8190
  353MOL0     H47632   6.055   6.945   2.854  1.2531 -0.6994  1.0264
  353MOL0     H47633   6.205   6.954   3.049  1.9718 -0.4016  0.0006
  353MOL0     H47634   6.303   6.936   2.906  1.9556  1.2066 -0.7884
  353MOL0     H47635   5.224   7.346   2.799  1.9611 -1.0419 -1.7904
  353MOL0     H47636   4.991   7.380   2.701  0.8433  0.8827  0.2211
  353MOL0     H47637   4.519   7.095   2.775 -2.0031  0.1347 -0.1067
  353MOL0     H47638   4.291   7.117   2.693  0.2383 -0.8123  0.1078
  353MOL0     H47639   2.422   6.762   2.250 -0.7369 -0.6805  3.1545
  353MOL0     H47640   2.199   6.775   2.152  1.3044  0.4453  1.9751
  353MOL0     H47641   1.731   6.313   2.138  1.8225 -1.0155 -1.7371
  353MOL0     H47642   1.511   6.338   2.067  0.6997  0.1242 -2.0839
  353MOL0     H47643   1.283   6.448   2.090 -3.9364 -1.9003 -0.3748
  353MOL0     H47644   1.335   6.348   1.955  2.4895  0.7103  1.2631
  353MOL0     H47645   1.143   6.582   1.906  1.1853  0.2638 -3.5091
  353MOL0     H47646   1.083   6.413   1.953  0.3821 -1.0850  0.8309
  353MOL0     H47647   1.210   6.335   1.752  3.0829  0.8020  0.6731
  353MOL0     H47648   1.237   6.510   1.720 -1.0383  1.9666  3.6626
  353MOL0     H47649   0.952   6.394   1.771  0.2072 -0.7259 -0.2121
  353MOL0     H47650   0.994   6.556   1.699  2.6517  0.9615  1.8833
  353MOL0     H47651   0.970   6.288   1.372  0.9189  1.7608 -0.4956
  353MOL0     H47652   1.599   6.710   1.871  0.7648  0.0030 -1.1312
  353MOL0     H47653   1.862   6.809   2.054 -0.5661  0.5049  0.8239
  353MOL0     H47654   1.940   6.739   1.912  0.4476  0.1922 -0.8440
  353MOL0     H47655   1.786   6.807   1.885 -2.2223 -1.0186  1.7233
  354MOL0     O47656   3.638   6.963  10.448  0.3592  0.4259 -0.6818
  354MOL0     C47657   3.581   6.905  10.538  0.0124  0.8288  0.3904
  354MOL0     O47658   3.641   6.845  10.649  0.2303 -0.5159  0.1994
  354MOL0     C47659   3.758   6.916  10.677 -0.3207  0.3968  0.9588
  354MOL0     C47660   3.888   6.883  10.630  0.4380  1.7152  0.4167
  354MOL0     C47661   4.004   6.955  10.661 -0.3176 -0.4687  0.4684
  354MOL0     C47662   3.992   7.063  10.746 -0.5758 -0.4113 -0.3510
  354MOL0     O47663   4.109   7.136  10.783 -0.2007 -0.1869 -0.5643
  354MOL0     C47664   4.106   7.224  10.902  0.3294  0.8923 -0.2644
  354MOL0     C47665   4.239   7.296  10.908 -0.1842  0.9799  0.5533
  354MOL0     C47666   4.258   7.382  10.785 -0.3279  0.4736 -0.1198
  354MOL0     C47667   4.407   7.423  10.775  0.2482 -0.4149 -0.0420
  354MOL0     C47668   4.500   7.313  10.719  0.1225  0.7804  0.4845
  354MOL0     C47669   4.465   7.293  10.563  0.0994 -0.0792  0.0708
  354MOL0     C47670   4.557   7.183  10.503  0.0139  0.6081 -0.2228
  354MOL0     C47671   4.525   7.149  10.358 -0.5532 -0.4582  0.0287
  354MOL0     N47672   4.631   7.061  10.293 -0.1889  0.0843 -0.3667
  354MOL0     C47673   4.674   6.941  10.344  0.6366 -0.3009  0.0251
  354MOL0     C47674   4.748   6.884  10.247 -0.6416 -0.3383  0.4386
  354MOL0     C47675   4.833   6.754  10.267  0.9895 -0.0608 -0.1110
  354MOL0     C47676   4.959   6.778  10.353 -0.0405 -0.3924  1.2804
  354MOL0     C47677   5.062   6.888  10.301 -0.0997  0.2547  0.2872
  354MOL0     C47678   5.183   6.900  10.390  0.2190 -0.1183 -0.0127
  354MOL0     O47679   5.148   6.954  10.515  0.6382 -0.5586  0.3306
  354MOL0     C47680   5.230   7.007  10.614  0.2394  0.1268 -0.2623
  354MOL0     C47681   5.363   7.025  10.593 -0.0105 -0.4028 -0.1509
  354MOL0     C47682   5.454   7.082  10.685 -0.3002 -0.0762  0.1072
  354MOL0     C47683   5.414   7.121  10.812  1.2908 -0.7780  0.9843
  354MOL0     C47684   5.509   7.186  10.903 -0.5792  0.1298  0.0883
  354MOL0     O47685   5.646   7.189  10.879 -0.6275 -0.5459  0.5202
  354MOL0     C47686   5.729   7.250  10.968 -1.1166  0.0760  0.8308
  354MOL0     C47687   5.697   7.373  11.023  0.6827  0.0075 -0.9413
  354MOL0     C47688   5.796   7.450  11.095  0.5363  1.0328  0.0587
  354MOL0     C47689   5.928   7.396  11.107 -0.1349  1.0304  1.1337
  354MOL0     O47690   6.034   7.459  11.170 -0.3021  0.2394 -0.1154
  354MOL0     C47691   6.005   7.504  11.307 -0.7425 -0.1421  0.1059
  354MOL0     C47692   6.092   7.628  11.316 -0.2971 -0.4896  0.1213
  354MOL0     C47693   6.251   7.603  11.306  0.1878 -0.2196 -0.0580
  354MOL0     C47694   6.306   7.525  11.426  0.1475 -0.2367  0.6389
  354MOL0     C47695   6.463   7.540  11.424  0.5307 -0.1410 -0.3244
  354MOL0     C47696   6.519   7.494  11.555  0.1139  0.1406 -1.0634
  354MOL0     C47697   6.531   7.334  11.535  0.0624 -0.1460 -0.4216
  354MOL0     C47698   6.509   7.274  11.677 -0.6758 -0.2411  1.5383
  354MOL0    Cl47699   6.654   7.281  11.789  0.2080  0.0462  0.1086
  354MOL0     C47700   5.961   7.276  11.036 -0.1790 -0.0555  0.1104
  354MOL0     C47701   5.858   7.203  10.975  0.2018  0.1585  0.2140
  354MOL0     O47702   5.454   7.227  11.005  0.4544 -0.4656  0.3781
  354MOL0     C47703   5.271   7.102  10.834 -0.7470 -0.1107 -1.0782
  354MOL0     C47704   5.189   7.042  10.746  0.5516 -0.0697  0.7453
  354MOL0     N47705   4.761   6.974  10.145  0.3767 -0.4310 -0.2490
  354MOL0     N47706   4.673   7.076  10.162 -0.0722 -0.4925  0.2787
  354MOL0     C47707   3.862   7.102  10.786  1.0293  0.6141  0.0289
  354MOL0     C47708   3.752   7.036  10.745 -0.0030 -0.5969 -0.4624
  354MOL0     C47709   3.442   6.872  10.510  0.1290  0.0275 -0.4566
  354MOL0     C47710   3.386   6.852  10.380  0.2754 -0.2422  0.4995
  354MOL0     C47711   3.247   6.838  10.362 -0.3256  0.3405  0.3454
  354MOL0     C47712   3.158   6.854  10.461  0.2714  0.7105  0.4060
  354MOL0     O47713   3.020   6.853  10.450 -0.2944 -0.5846  0.5369
  354MOL0     C47714   2.973   6.878  10.316 -0.8023  0.6435  0.2267
  354MOL0     C47715   2.821   6.891  10.338 -0.8553 -0.4442  0.0806
  354MOL0     C47716   2.761   6.749  10.356  0.0979 -0.4188  0.1420
  354MOL0     C47717   2.606   6.763  10.392  0.0942  0.4433 -0.6384
  354MOL0     C47718   2.519   6.827  10.287 -0.8119  0.2226  0.2615
  354MOL0     C47719   2.447   6.883  10.201  0.6587 -0.0905 -0.0961
  354MOL0     C47720   3.207   6.864  10.591 -0.7837  0.0789 -0.1109
  354MOL0     C47721   3.343   6.877  10.613 -0.6012 -0.1896  0.0156
  354MOL0     C47722   3.371   6.885  10.767 -0.1363  0.8313  0.3709
  354MOL0     H47723   3.900   6.789  10.578 -3.6544  2.1133 -1.6298
  354MOL0     H47724   4.097   6.930  10.610 -1.6961  1.2232 -3.2293
  354MOL0     H47725   4.021   7.292  10.898 -0.9596 -0.6861 -1.7586
  354MOL0     H47726   4.106   7.168  10.996 -0.6069 -0.2321 -0.8902
  354MOL0     H47727   4.320   7.223  10.913  1.4639  2.5022 -1.7326
  354MOL0     H47728   4.233   7.360  10.996 -2.6952  1.3905  0.1595
  354MOL0     H47729   4.189   7.467  10.789 -1.0270 -0.1153  0.4827
  354MOL0     H47730   4.223   7.323  10.700 -0.6732  1.2313 -0.5157
  354MOL0     H47731   4.426   7.506  10.706 -0.1140 -1.6953 -1.7698
  354MOL0     H47732   4.450   7.449  10.872  0.6263  0.1530 -0.3538
  354MOL0     H47733   4.605   7.343  10.723 -0.6240  4.1993 -1.3338
  354MOL0     H47734   4.480   7.215  10.764  1.8814  0.3700  0.4391
  354MOL0     H47735   4.361   7.261  10.549  0.1293 -0.2842  0.3129
  354MOL0     H47736   4.484   7.380  10.499 -0.2859 -0.5150 -0.6547
  354MOL0     H47737   4.563   7.097  10.570  1.3623 -0.5149 -1.7014
  354MOL0     H47738   4.661   7.216  10.499  1.0993 -2.5915 -2.0490
  354MOL0     H47739   4.423   7.109  10.357 -0.2155 -1.3449 -0.8359
  354MOL0     H47740   4.531   7.248  10.310  2.7605 -1.0678 -1.1019
  354MOL0     H47741   4.651   6.890  10.436 -1.9060 -1.0593 -0.9480
  354MOL0     H47742   4.773   6.674  10.309 -0.3310 -0.5613 -2.7341
  354MOL0     H47743   4.860   6.701  10.175 -4.0320 -1.4239 -1.1125
  354MOL0     H47744   4.932   6.805  10.455 -0.0244 -0.1867  1.2313
  354MOL0     H47745   5.002   6.679  10.369 -2.7269 -1.4279  2.7435
  354MOL0     H47746   5.014   6.985  10.316  0.5005  0.7192 -0.7112
  354MOL0     H47747   5.079   6.856  10.197 -1.7726 -2.5031  0.7501
  354MOL0     H47748   5.253   6.971  10.344  1.2413 -1.9811 -1.5314
  354MOL0     H47749   5.231   6.802  10.400 -1.7631 -1.4332 -2.4111
  354MOL0     H47750   5.416   7.007  10.500  0.5048 -3.4498  0.6096
  354MOL0     H47751   5.557   7.105  10.659  0.5591 -1.0506  2.4299
  354MOL0     H47752   5.605   7.424  10.994  0.0518  0.5677  1.7782
  354MOL0     H47753   5.779   7.551  11.128 -1.1020  0.8797 -0.2639
  354MOL0     H47754   5.904   7.540  11.329  0.5133  1.6385  3.7682
  354MOL0     H47755   6.028   7.433  11.387 -1.0235  1.5223  1.7441
  354MOL0     H47756   6.049   7.693  11.239 -1.0710 -1.1614 -0.0215
  354MOL0     H47757   6.065   7.684  11.406 -0.2711 -0.8558  0.3594
  354MOL0     H47758   6.271   7.548  11.214 -0.2740  2.0040 -1.5734
  354MOL0     H47759   6.301   7.699  11.290  0.0980 -0.4610 -2.0570
  354MOL0     H47760   6.266   7.423  11.428 -2.8262  0.7612 -0.8549
  354MOL0     H47761   6.278   7.578  11.517  0.7153  1.4917 -0.1471
  354MOL0     H47762   6.478   7.648  11.412  0.4673 -0.3442 -2.7294
  354MOL0     H47763   6.502   7.497  11.332  1.9448  0.5879 -0.0860
  354MOL0     H47764   6.620   7.537  11.565 -0.6569  2.1555 -1.4803
  354MOL0     H47765   6.467   7.533  11.643  2.4351  1.7465 -0.2897
  354MOL0     H47766   6.628   7.299  11.499 -0.4054 -1.6369 -0.2932
  354MOL0     H47767   6.455   7.300  11.464 -0.3930  0.9153 -0.4538
  354MOL0     H47768   6.428   7.334  11.720  0.3258  2.3646  0.0557
  354MOL0     H47769   6.469   7.173  11.662 -1.0644 -0.1604  2.0082
  354MOL0     H47770   6.055   7.228  11.060 -0.8217 -0.8087  1.2454
  354MOL0     H47771   5.872   7.100  10.944 -0.2985 -0.6591  2.5158
  354MOL0     H47772   5.231   7.144  10.925 -1.6150 -1.3187 -0.8807
  354MOL0     H47773   5.088   7.017  10.777 -0.4918  1.2013 -1.3856
  354MOL0     H47774   3.849   7.196  10.839 -1.2987 -1.9437  4.6051
  354MOL0     H47775   3.652   7.065  10.777 -0.3383  0.2430 -2.1575
  354MOL0     H47776   3.442   6.848  10.287 -1.3534  1.5027 -0.6405
  354MOL0     H47777   3.215   6.796  10.267  1.3078 -2.0226  0.7675
  354MOL0     H47778   2.978   6.790  10.251  0.2580 -0.5678  1.8777
  354MOL0     H47779   3.018   6.964  10.265 -0.3003 -0.6496 -1.6393
  354MOL0     H47780   2.777   6.932  10.246 -0.1759 -0.2473 -0.1605
  354MOL0     H47781   2.797   6.944  10.430 -1.0646  0.6540 -0.5850
  354MOL0     H47782   2.813   6.694  10.435  2.4378  3.7046  1.7755
  354MOL0     H47783   2.777   6.695  10.262  0.2754 -1.3372  0.6872
  354MOL0     H47784   2.555   6.669  10.413  0.1620  0.4262 -0.5527
  354MOL0     H47785   2.599   6.828  10.479 -0.1193  0.9609 -1.0352
  354MOL0     H47786   2.382   6.933  10.133  0.8674  2.8849  1.7225
  354MOL0     H47787   3.139   6.876  10.675  0.7127  2.5799  0.8773
  354MOL0     H47788   3.428   6.795  10.794 -1.1877  0.4727  1.4680
  354MOL0     H47789   3.434   6.974  10.775 -1.2895  2.2681 -3.8567
  354MOL0     H47790   3.279   6.913  10.819  0.1307  0.6293  0.9728
  355MOL0     O47791   5.818   5.153   6.325 -0.1797  0.0707  0.0049
  355MOL0     C47792   5.785   5.152   6.206 -0.3183 -0.1469  0.5851
  355MOL0     O47793   5.867   5.190   6.102 -0.7657 -0.0777 -0.4579
  355MOL0     C47794   5.995   5.230   6.143  0.3497 -0.6205  0.2642
  355MOL0     C47795   6.099   5.144   6.112 -0.6279  0.0855 -0.8369
  355MOL0     C47796   6.225   5.197   6.104  0.2293 -0.3615 -0.1378
  355MOL0     C47797   6.255   5.330   6.154  1.2336  0.5688 -0.6347
  355MOL0     O47798   6.375   5.394   6.158 -0.6218 -0.1357 -0.5223
  355MOL0     C47799   6.495   5.319   6.115  0.5674  0.2316  0.4364
  355MOL0     C47800   6.608   5.411   6.161 -0.3640 -0.4801 -0.0550
  355MOL0     C47801   6.745   5.332   6.185  0.5707  0.3473 -0.2883
  355MOL0     C47802   6.832   5.426   6.267  0.0695  0.3160  0.2383
  355MOL0     C47803   6.980   5.395   6.253 -0.5775 -0.0137 -0.9226
  355MOL0     C47804   7.074   5.490   6.329 -1.1395 -0.9986 -0.2093
  355MOL0     C47805   7.224   5.461   6.322  0.2085  0.5425 -0.4689
  355MOL0     C47806   7.306   5.578   6.384  0.0398 -0.1919  0.4199
  355MOL0     N47807   7.453   5.558   6.380 -0.0712 -0.5050  0.3194
  355MOL0     C47808   7.520   5.527   6.267 -0.3222 -1.0344 -1.1213
  355MOL0     C47809   7.647   5.515   6.302 -0.3250  0.8950 -0.1670
  355MOL0     C47810   7.753   5.474   6.206 -0.1980 -1.0875  0.0916
  355MOL0     C47811   7.860   5.587   6.213  0.6764  0.3761 -0.0814
  355MOL0     C47812   7.975   5.563   6.110  0.1920  0.0563  0.2817
  355MOL0     C47813   8.090   5.666   6.112  0.5634  0.3989 -0.4345
  355MOL0     O47814   8.146   5.666   5.985 -0.5942 -0.5018 -0.0218
  355MOL0     C47815   8.269   5.731   5.974  1.0805 -0.4382 -1.2237
  355MOL0     C47816   8.283   5.798   5.854 -0.7863 -0.2835 -0.1196
  355MOL0     C47817   8.408   5.847   5.830  0.6144 -0.0170  0.2159
  355MOL0     C47818   8.510   5.862   5.920 -0.2394 -0.6420  0.3111
  355MOL0     C47819   8.626   5.952   5.876 -0.5308  0.2446 -0.7532
  355MOL0     O47820   8.627   6.015   5.753  0.0531  0.2276  0.3294
  355MOL0     C47821   8.743   6.091   5.735  1.1569 -0.2248  0.9848
  355MOL0     C47822   8.733   6.223   5.792 -0.2026  0.1970 -0.7015
  355MOL0     C47823   8.854   6.294   5.805 -0.2968 -0.2090 -0.2223
  355MOL0     C47824   8.979   6.249   5.763 -0.0379  0.2023  0.3361
  355MOL0     O47825   9.103   6.309   5.764  0.3055 -0.1487  0.1575
  355MOL0     C47826   9.123   6.378   5.885  0.6792 -0.0127  0.2659
  355MOL0     C47827   9.244   6.464   5.896  0.3301  0.3668 -0.5964
  355MOL0     C47828   9.230   6.586   5.805 -0.1187  0.5188 -0.2039
  355MOL0     C47829   9.358   6.665   5.814 -0.4242  0.3258 -0.0092
  355MOL0     C47830   9.337   6.802   5.746 -0.3114 -0.7345  0.1123
  355MOL0     C47831   9.468   6.885   5.749  0.7861  0.3535  0.2419
  355MOL0     C47832   9.443   7.023   5.692 -0.6626  0.4693  0.1877
  355MOL0     C47833   9.570   7.099   5.666 -0.2816  0.2794 -0.3650
  355MOL0    Cl47834   9.537   7.242   5.568 -0.1369  0.0964  0.0168
  355MOL0     C47835   8.976   6.123   5.702 -0.7083 -0.0454 -0.5560
  355MOL0     C47836   8.864   6.040   5.699 -0.3075 -0.1874 -0.0405
  355MOL0     O47837   8.708   5.966   5.966  0.0707 -0.2426 -0.1404
  355MOL0     C47838   8.490   5.801   6.046  0.3132  0.6648 -0.1883
  355MOL0     C47839   8.376   5.724   6.063  0.8928  0.1610 -0.6264
  355MOL0     N47840   7.656   5.544   6.430  0.4226  0.0435  0.0865
  355MOL0     N47841   7.535   5.577   6.477 -0.0839  0.5413 -0.3632
  355MOL0     C47842   6.149   5.400   6.191  0.5090 -0.1517 -0.2740
  355MOL0     C47843   6.019   5.357   6.196  0.0402  0.5037  0.6932
  355MOL0     C47844   5.655   5.093   6.166  0.1887  0.5352 -0.0959
  355MOL0     C47845   5.643   5.043   6.035  0.0814 -1.0474  0.1358
  355MOL0     C47846   5.513   4.993   5.991  0.0824  0.0968 -0.0897
  355MOL0     C47847   5.401   4.997   6.073  0.1324 -0.0022 -0.2816
  355MOL0     O47848   5.284   4.956   6.010  0.2632 -0.8504  0.2104
  355MOL0     C47849   5.159   4.994   6.079 -0.1562  0.8731 -0.0989
  355MOL0     C47850   5.052   4.925   6.001  0.7704  0.0565 -0.3234
  355MOL0     C47851   4.917   4.912   6.062 -0.6840 -0.1824 -0.7554
  355MOL0     C47852   4.815   5.026   6.038  0.0365  1.0653  0.1904
  355MOL0     C47853   4.863   5.160   6.081  0.5681  0.5833 -0.4998
  355MOL0     C47854   4.901   5.263   6.131 -0.4395  0.1568  0.4174
  355MOL0     C47855   5.424   5.039   6.208  0.4449 -0.2486 -0.1840
  355MOL0     C47856   5.542   5.085   6.258 -0.3627  0.4864 -0.0907
  355MOL0     C47857   5.551   5.129   6.395 -0.3453  0.1602 -0.9033
  355MOL0     H47858   6.084   5.043   6.077  0.0734 -0.8028  1.2616
  355MOL0     H47859   6.309   5.130   6.085  2.0377  1.9649 -0.7503
  355MOL0     H47860   6.502   5.218   6.158  0.5735  0.5365  1.1577
  355MOL0     H47861   6.495   5.316   6.006  1.8153  2.4476  0.3244
  355MOL0     H47862   6.580   5.457   6.255 -0.5063  3.0727 -1.6876
  355MOL0     H47863   6.626   5.491   6.088 -2.5145 -0.5285 -0.6950
  355MOL0     H47864   6.798   5.306   6.093 -0.3580  0.6667 -0.9284
  355MOL0     H47865   6.714   5.247   6.247 -0.4550  1.2358  0.4446
  355MOL0     H47866   6.808   5.528   6.235  1.0420 -0.1242 -2.0284
  355MOL0     H47867   6.801   5.428   6.372  0.9670  1.6283  0.4975
  355MOL0     H47868   7.014   5.300   6.295  0.0387 -0.1323 -1.6581
  355MOL0     H47869   6.995   5.395   6.144  0.9783 -0.6712 -0.7428
  355MOL0     H47870   7.067   5.597   6.303  0.4910 -0.4682  1.3406
  355MOL0     H47871   7.037   5.498   6.432 -1.0959 -1.8052 -0.1284
  355MOL0     H47872   7.247   5.443   6.217  1.1672 -0.6423 -0.0841
  355MOL0     H47873   7.248   5.371   6.379 -0.2773 -0.6683 -2.0924
  355MOL0     H47874   7.278   5.666   6.325 -3.6939 -1.7856 -0.4091
  355MOL0     H47875   7.281   5.606   6.487 -0.9958  0.5936 -0.0372
  355MOL0     H47876   7.483   5.513   6.166  0.4001  0.5648 -1.6437
  355MOL0     H47877   7.795   5.375   6.227 -1.3829 -1.4176  1.0096
  355MOL0     H47878   7.711   5.471   6.105  2.3494 -0.9920 -1.0610
  355MOL0     H47879   7.819   5.688   6.200  2.1409  1.1231  0.7221
  355MOL0     H47880   7.909   5.592   6.311 -2.0582  1.0931  1.3379
  355MOL0     H47881   7.929   5.572   6.011 -0.8353 -1.3680  0.5982
  355MOL0     H47882   8.015   5.461   6.109 -2.1391 -0.9244 -1.6165
  355MOL0     H47883   8.166   5.636   6.185  1.7402  1.6769 -1.1003
  355MOL0     H47884   8.038   5.759   6.135  0.7337  0.4349 -0.1886
  355MOL0     H47885   8.213   5.789   5.772 -1.3246 -1.7003  0.4613
  355MOL0     H47886   8.434   5.876   5.728 -1.1394  0.1391 -0.2136
  355MOL0     H47887   8.638   6.257   5.834  1.6771  2.4206  2.1230
  355MOL0     H47888   8.843   6.392   5.849 -0.5488 -0.4434  0.2411
  355MOL0     H47889   9.046   6.454   5.898 -2.5121 -3.1259  0.9076
  355MOL0     H47890   9.116   6.310   5.970  1.3862 -1.9305 -1.1465
  355MOL0     H47891   9.234   6.495   6.000  2.9190 -2.0869  0.5232
  355MOL0     H47892   9.336   6.408   5.880 -0.5124 -1.3728  0.3619
  355MOL0     H47893   9.214   6.564   5.699 -2.3615  2.6832 -0.4124
  355MOL0     H47894   9.143   6.641   5.843  1.2989  3.4551 -0.9516
  355MOL0     H47895   9.423   6.601   5.754 -2.1581  1.0522 -2.8534
  355MOL0     H47896   9.400   6.673   5.915 -0.4942 -0.6693  0.1147
  355MOL0     H47897   9.253   6.860   5.784 -1.1857 -2.3672  0.7730
  355MOL0     H47898   9.318   6.780   5.640  1.1345 -3.6547  0.3421
  355MOL0     H47899   9.514   6.893   5.848  0.1294  1.6858  0.4640
  355MOL0     H47900   9.542   6.831   5.688 -1.4660 -1.1187 -1.3520
  355MOL0     H47901   9.378   7.076   5.762 -0.4977 -1.1780  1.6695
  355MOL0     H47902   9.390   7.015   5.597  0.7510 -0.8040 -0.5260
  355MOL0     H47903   9.614   7.144   5.756 -1.7137 -1.2298  1.1675
  355MOL0     H47904   9.643   7.042   5.607  0.1883 -0.4855  0.9137
  355MOL0     H47905   9.065   6.081   5.657  0.0290 -0.1271  0.9503
  355MOL0     H47906   8.881   5.937   5.668 -1.4713  0.5571 -3.6397
  355MOL0     H47907   8.549   5.797   6.137  0.7184  1.4907 -0.4048
  355MOL0     H47908   8.375   5.666   6.155  1.9449 -2.4154 -2.1612
  355MOL0     H47909   6.158   5.499   6.235  3.7211 -0.5692  0.2751
  355MOL0     H47910   5.946   5.435   6.218 -0.8317  0.8894 -2.9203
  355MOL0     H47911   5.733   5.044   5.975  1.2051 -2.9596  1.6759
  355MOL0     H47912   5.513   4.943   5.894  2.7671 -1.6380  0.7006
  355MOL0     H47913   5.137   5.100   6.066 -2.0049  0.4447 -0.7278
  355MOL0     H47914   5.170   4.966   6.185  0.7860  0.0623 -0.3936
  355MOL0     H47915   5.089   4.824   5.979  0.1926 -0.4873  1.0747
  355MOL0     H47916   5.039   4.989   5.913  0.9866 -0.2643 -0.5922
  355MOL0     H47917   4.918   4.900   6.170 -1.1442  2.0272 -0.4552
  355MOL0     H47918   4.873   4.824   6.014  2.4155 -2.4552  0.2333
  355MOL0     H47919   4.792   5.027   5.931  0.4907 -2.2504 -0.0510
  355MOL0     H47920   4.722   5.001   6.090 -1.2944  1.1572 -2.0549
  355MOL0     H47921   4.933   5.362   6.160 -1.5578  0.2704  1.3599
  355MOL0     H47922   5.340   5.032   6.277  0.3846  1.4404 -0.0515
  355MOL0     H47923   5.593   5.229   6.411 -0.4853 -0.1952  2.5100
  355MOL0     H47924   5.454   5.137   6.444 -0.2479  0.6961 -0.7849
  355MOL0     H47925   5.608   5.057   6.455  2.5127  1.5828 -1.7162
  356MOL0     O47926   7.353   4.381   3.467 -0.3817 -0.5989 -0.1862
  356MOL0     C47927   7.384   4.481   3.393 -0.1181  0.0050 -0.4138
  356MOL0     O47928   7.298   4.574   3.340 -0.1506 -0.1113 -0.3476
  356MOL0     C47929   7.193   4.626   3.410 -0.0132 -0.9290  0.4149
  356MOL0     C47930   7.204   4.664   3.543  0.1189  0.3001  0.1988
  356MOL0     C47931   7.092   4.715   3.616 -0.8497  0.5570 -0.4730
  356MOL0     C47932   6.977   4.741   3.540 -0.4392  0.1615 -0.2035
  356MOL0     O47933   6.854   4.769   3.594 -0.2705  0.4051 -0.4072
  356MOL0     C47934   6.833   4.890   3.656 -0.1798  0.1083 -0.0770
  356MOL0     C47935   6.874   4.884   3.807 -0.9713 -0.7660 -0.4202
  356MOL0     C47936   6.765   4.922   3.906  0.2173  0.4613  0.4841
  356MOL0     C47937   6.723   5.061   3.899 -0.2509 -0.3901 -0.0296
  356MOL0     C47938   6.602   5.083   4.001  0.1286 -0.3114  0.4866
  356MOL0     C47939   6.517   5.209   3.959 -0.1880  0.4234 -0.2850
  356MOL0     C47940   6.580   5.345   3.999 -0.6072  1.0694  0.2183
  356MOL0     C47941   6.505   5.455   3.948  0.0065 -0.5302 -0.0557
  356MOL0     N47942   6.571   5.587   3.988 -0.1012 -0.0950  0.0991
  356MOL0     C47943   6.682   5.643   3.927 -0.3355 -0.1566 -0.2921
  356MOL0     C47944   6.688   5.771   3.981 -0.7868  0.2927  0.4901
  356MOL0     C47945   6.793   5.875   3.946 -0.8873 -0.0441  0.2170
  356MOL0     C47946   6.899   5.886   4.062  0.4431  0.9452  0.3641
  356MOL0     C47947   7.008   5.974   4.016  0.3051 -0.1297 -0.7554
  356MOL0     C47948   7.125   5.992   4.105  0.8460 -0.3671 -0.6904
  356MOL0     O47949   7.213   6.105   4.068 -0.4353  0.2652 -0.2336
  356MOL0     C47950   7.313   6.145   4.162  0.0903 -0.5071 -0.0653
  356MOL0     C47951   7.337   6.089   4.283 -0.4495  0.1462 -0.2672
  356MOL0     C47952   7.436   6.142   4.372 -0.7975  1.3235 -0.1136
  356MOL0     C47953   7.511   6.253   4.339 -0.0409  0.1505  0.0013
  356MOL0     C47954   7.610   6.310   4.434  0.7235  0.7048  0.1283
  356MOL0     O47955   7.611   6.270   4.565 -0.2262  0.3451  0.1013
  356MOL0     C47956   7.693   6.336   4.652  0.5376  0.5325  0.2668
  356MOL0     C47957   7.825   6.340   4.610 -0.1194  0.0536 -0.6228
  356MOL0     C47958   7.925   6.402   4.687  0.7772 -0.6295 -0.2016
  356MOL0     C47959   7.892   6.452   4.813 -0.4181 -0.5053  0.1042
  356MOL0     O47960   7.992   6.492   4.890 -0.4627  0.2340  0.1166
  356MOL0     C47961   7.962   6.609   4.968  0.0572  0.4569  0.0146
  356MOL0     C47962   8.091   6.664   5.025 -0.6318 -0.3976 -0.1248
  356MOL0     C47963   8.190   6.745   4.938  0.2762 -0.3271 -0.1133
  356MOL0     C47964   8.324   6.783   5.001 -0.3809  0.0330 -0.1206
  356MOL0     C47965   8.410   6.853   4.894  0.9964 -0.3105  0.4533
  356MOL0     C47966   8.539   6.897   4.958  0.1527 -0.0818  0.4090
  356MOL0     C47967   8.622   6.964   4.857  0.6150 -0.4451  0.0112
  356MOL0     C47968   8.772   6.960   4.892 -0.2112 -0.0201 -0.5737
  356MOL0    Cl47969   8.893   7.014   4.764  0.6532  0.0933 -0.0795
  356MOL0     C47970   7.760   6.443   4.853  0.3031 -1.2176 -0.7798
  356MOL0     C47971   7.655   6.393   4.769 -0.1135 -0.2349 -0.1211
  356MOL0     O47972   7.666   6.412   4.391  0.1374  0.4136  1.1574
  356MOL0     C47973   7.493   6.310   4.210  0.3954  0.5557  0.1778
  356MOL0     C47974   7.395   6.255   4.123  0.2467  0.2265 -0.9358
  356MOL0     N47975   6.595   5.775   4.082 -0.3227  0.5204 -0.5841
  356MOL0     N47976   6.525   5.672   4.079 -0.4961  0.9320  0.5500
  356MOL0     C47977   6.973   4.716   3.403  0.3434  0.5107 -0.2604
  356MOL0     C47978   7.087   4.666   3.337  0.5397  0.1100  0.0734
  356MOL0     C47979   7.529   4.504   3.355 -0.1855 -0.1425 -0.4251
  356MOL0     C47980   7.563   4.524   3.222  0.8503  0.1168  0.4959
  356MOL0     C47981   7.686   4.537   3.178 -0.5103 -1.0903  0.0119
  356MOL0     C47982   7.790   4.528   3.269 -0.5930 -0.9820 -0.4899
  356MOL0     O47983   7.916   4.519   3.228 -0.9599 -0.0497  0.0699
  356MOL0     C47984   7.945   4.401   3.150 -0.2230  0.2586  0.1254
  356MOL0     C47985   8.078   4.385   3.076  0.5829 -0.4583  0.2437
  356MOL0     C47986   8.191   4.413   3.180  0.1108 -0.1600  0.2643
  356MOL0     C47987   8.215   4.309   3.286  0.4153 -0.4098  0.2129
  356MOL0     C47988   8.272   4.196   3.215 -0.7441  0.1756 -0.1792
  356MOL0     C47989   8.303   4.098   3.150 -0.4005 -0.2640  0.4203
  356MOL0     C47990   7.760   4.514   3.404 -0.6717 -0.4831 -0.3086
  356MOL0     C47991   7.632   4.501   3.450 -0.2562 -0.4569 -0.3701
  356MOL0     C47992   7.608   4.472   3.597  0.4206 -0.0561 -0.4516
  356MOL0     H47993   7.301   4.644   3.588  2.0034  1.5612 -2.9763
  356MOL0     H47994   7.097   4.738   3.722  1.1354 -1.1413 -0.1363
  356MOL0     H47995   6.881   4.973   3.604  3.6598 -2.7062 -1.4873
  356MOL0     H47996   6.725   4.907   3.656 -0.4664 -1.4304  1.0878
  356MOL0     H47997   6.960   4.952   3.805 -0.6112 -1.1913  0.3675
  356MOL0     H47998   6.905   4.781   3.825 -0.5511 -0.3949  1.1608
  356MOL0     H47999   6.810   4.905   4.004  0.2114 -2.8234  0.0277
  356MOL0     H48000   6.684   4.851   3.888 -0.6355  1.9345 -1.9754
  356MOL0     H48001   6.808   5.123   3.928 -0.8777 -0.4373  2.0199
  356MOL0     H48002   6.691   5.086   3.797  1.5971 -1.5889 -0.9545
  356MOL0     H48003   6.530   5.003   4.017 -1.6300  1.3078  1.0111
  356MOL0     H48004   6.649   5.103   4.098 -2.1426  0.6214  1.4628
  356MOL0     H48005   6.495   5.209   3.851 -2.5627 -3.2866  0.0275
  356MOL0     H48006   6.431   5.200   4.026  1.4728 -2.1801  1.6846
  356MOL0     H48007   6.682   5.355   3.960 -0.4389  1.6526  0.7886
  356MOL0     H48008   6.584   5.362   4.107 -1.9983  2.7093  0.0632
  356MOL0     H48009   6.501   5.448   3.839  0.6304  1.2447 -0.2238
  356MOL0     H48010   6.402   5.456   3.984 -0.2751  0.6796 -0.8350
  356MOL0     H48011   6.735   5.611   3.838  0.9726  1.2089 -0.0545
  356MOL0     H48012   6.837   5.852   3.849 -0.1852  2.1427 -0.0555
  356MOL0     H48013   6.746   5.973   3.929 -0.0485  0.0644 -1.7776
  356MOL0     H48014   6.849   5.922   4.152 -1.4524  0.2861 -0.3717
  356MOL0     H48015   6.937   5.787   4.088 -2.3999 -0.8166 -1.5306
  356MOL0     H48016   6.968   6.074   3.998  0.0839  0.5194  2.5917
  356MOL0     H48017   7.047   5.941   3.919  2.6624 -1.4835  0.5492
  356MOL0     H48018   7.181   5.898   4.102 -0.5759 -1.2631 -4.0804
  356MOL0     H48019   7.088   6.005   4.207 -0.0676 -3.9705 -0.4326
  356MOL0     H48020   7.270   6.010   4.315 -0.6671  0.0765 -0.8982
  356MOL0     H48021   7.461   6.094   4.466 -1.2468  0.1105 -0.6003
  356MOL0     H48022   7.843   6.306   4.509 -0.8817  0.8347 -1.0407
  356MOL0     H48023   8.026   6.407   4.647  0.6597  2.2130 -0.2929
  356MOL0     H48024   7.926   6.696   4.911 -1.0431  0.9783  1.4581
  356MOL0     H48025   7.878   6.595   5.036 -1.7372  1.7956 -1.7835
  356MOL0     H48026   8.056   6.731   5.104 -0.1740 -0.2545 -0.0468
  356MOL0     H48027   8.135   6.579   5.077 -1.7996 -0.4748  0.7934
  356MOL0     H48028   8.213   6.697   4.842  2.9215  1.7810 -0.6480
  356MOL0     H48029   8.151   6.843   4.910 -0.2580 -0.4541  0.1671
  356MOL0     H48030   8.379   6.700   5.047  2.2453  0.9630 -1.3908
  356MOL0     H48031   8.310   6.855   5.082  0.1518  1.0141 -0.8913
  356MOL0     H48032   8.354   6.936   4.850 -0.0053 -1.5758 -0.7532
  356MOL0     H48033   8.419   6.778   4.815  0.2330  0.9866 -0.9166
  356MOL0     H48034   8.510   6.982   5.020  1.2496  1.3818 -1.0011
  356MOL0     H48035   8.582   6.821   5.024  0.7517 -0.3405 -0.2680
  356MOL0     H48036   8.599   7.069   4.835 -1.8675 -1.0636 -0.6190
  356MOL0     H48037   8.610   6.921   4.758  0.7097 -0.6968  0.1087
  356MOL0     H48038   8.783   7.022   4.981 -0.5550 -3.3683  2.0228
  356MOL0     H48039   8.797   6.857   4.921  1.3940  1.3979  3.8135
  356MOL0     H48040   7.724   6.476   4.950  0.3329  0.1718 -1.2094
  356MOL0     H48041   7.550   6.409   4.792  0.3256 -0.0543  1.9763
  356MOL0     H48042   7.547   6.397   4.175  0.4835  0.2517 -0.4592
  356MOL0     H48043   7.373   6.305   4.030  0.2851 -0.6102 -1.4049
  356MOL0     H48044   6.880   4.739   3.352 -2.2347 -5.1552  1.1277
  356MOL0     H48045   7.095   4.656   3.229  1.6603 -0.6995  0.2116
  356MOL0     H48046   7.491   4.529   3.140  1.1593  0.0175  0.2193
  356MOL0     H48047   7.711   4.548   3.072  0.1307 -2.7318 -0.0365
  356MOL0     H48048   7.863   4.395   3.078  1.4744  3.0403 -2.2551
  356MOL0     H48049   7.915   4.321   3.218 -3.2058  0.9998 -0.1563
  356MOL0     H48050   8.086   4.478   3.020 -2.1008  2.3548  4.0304
  356MOL0     H48051   8.089   4.292   3.019 -0.6322 -0.4130 -0.0845
  356MOL0     H48052   8.174   4.507   3.234  1.2948 -0.0210  0.4237
  356MOL0     H48053   8.288   4.432   3.135  1.7491 -2.0921  2.6772
  356MOL0     H48054   8.283   4.346   3.363  1.3413 -0.3968 -0.6066
  356MOL0     H48055   8.122   4.280   3.336 -1.1415  0.0162 -2.2562
  356MOL0     H48056   8.326   4.008   3.096  0.6638  0.7215 -0.8244
  356MOL0     H48057   7.843   4.516   3.474 -0.1444  1.1279 -0.9380
  356MOL0     H48058   7.504   4.468   3.631  0.3912 -0.9677 -0.6138
  356MOL0     H48059   7.650   4.373   3.619 -0.4064 -0.8298 -2.1389
  356MOL0     H48060   7.651   4.557   3.650  0.4469 -0.1847 -0.2661
  357MOL0     O48061   7.244   9.622   2.207 -0.2214 -0.3135 -0.6178
  357MOL0     C48062   7.308   9.705   2.147 -0.0874 -0.0421  0.3860
  357MOL0     O48063   7.256   9.811   2.084  0.6473  0.1010  0.4189
  357MOL0     C48064   7.124   9.804   2.037  0.2123  0.0693  0.3887
  357MOL0     C48065   7.097   9.727   1.925 -0.6871  0.4176  0.8628
  357MOL0     C48066   6.978   9.735   1.862  0.0469  0.4220 -0.9921
  357MOL0     C48067   6.870   9.807   1.924 -0.0398  0.8087 -0.1958
  357MOL0     O48068   6.739   9.797   1.881  0.1325 -0.1689  0.0896
  357MOL0     C48069   6.693   9.676   1.817 -0.3277 -0.7058 -0.2699
  357MOL0     C48070   6.543   9.682   1.806  0.5763 -0.3062 -0.7603
  357MOL0     C48071   6.482   9.592   1.707 -0.4584  0.8241  0.1180
  357MOL0     C48072   6.366   9.651   1.632 -0.3771 -0.3537  0.1852
  357MOL0     C48073   6.286   9.538   1.577 -0.1131  0.9258 -0.5204
  357MOL0     C48074   6.151   9.591   1.522 -0.0716 -0.2511  0.8410
  357MOL0     C48075   6.088   9.476   1.449  0.3413  0.0900  0.4118
  357MOL0     C48076   5.949   9.504   1.390  0.8986 -0.2639  0.3122
  357MOL0     N48077   5.842   9.529   1.490 -0.3979 -0.5395  0.4582
  357MOL0     C48078   5.770   9.426   1.540 -0.0112 -0.0057 -0.0043
  357MOL0     C48079   5.694   9.492   1.633  0.9178 -0.1467  0.4008
  357MOL0     C48080   5.578   9.425   1.716 -0.5457  0.2628  0.3830
  357MOL0     C48081   5.462   9.378   1.626 -0.3621 -0.6181  0.0260
  357MOL0     C48082   5.410   9.488   1.529  0.2601  0.0394  0.9253
  357MOL0     C48083   5.363   9.624   1.589  0.8136  0.4066  0.5074
  357MOL0     O48084   5.296   9.714   1.501  0.1945  0.4680  0.0695
  357MOL0     C48085   5.370   9.780   1.405  0.7160 -0.2222 -0.2801
  357MOL0     C48086   5.503   9.819   1.423 -0.3128 -0.2782  0.2894
  357MOL0     C48087   5.568   9.891   1.323  0.3613 -0.7041  0.1207
  357MOL0     C48088   5.499   9.934   1.201 -0.3162  0.0038  0.4085
  357MOL0     C48089   5.559  10.024   1.098 -0.5468  0.2439  0.0990
  357MOL0     O48090   5.676  10.098   1.128 -0.3889 -0.0918  0.3705
  357MOL0     C48091   5.731  10.184   1.036  0.0181  0.2291 -0.5875
  357MOL0     C48092   5.664  10.295   0.984  0.3904  0.7023 -0.5547
  357MOL0     C48093   5.720  10.386   0.902  0.2443  0.1785  0.4770
  357MOL0     C48094   5.851  10.358   0.866 -0.3789  0.2217  0.2733
  357MOL0     O48095   5.900  10.450   0.774 -0.5350  0.9896 -0.2310
  357MOL0     C48096   6.005  10.414   0.684  0.4182 -0.5524 -0.2480
  357MOL0     C48097   6.020  10.524   0.575  0.3634 -0.7599 -0.3739
  357MOL0     C48098   5.906  10.518   0.474 -0.2382  0.7094 -0.2292
  357MOL0     C48099   5.938  10.427   0.350  0.3487  0.1342  0.4558
  357MOL0     C48100   5.844  10.449   0.236  1.1151 -1.1119 -0.5656
  357MOL0     C48101   5.873  10.358   0.120 -0.1833  0.0074  0.3303
  357MOL0     C48102   5.738  10.332   0.040  0.3180 -0.0307 -0.3287
  357MOL0     C48103   5.748  10.216  -0.062 -0.2539 -0.9225 -0.3709
  357MOL0    Cl48104   5.882  10.241  -0.171  0.5018 -0.2220  0.0525
  357MOL0     C48105   5.926  10.253   0.910  0.1478  0.3199 -0.3318
  357MOL0     C48106   5.862  10.159   0.994 -0.5901  0.9866  0.5022
  357MOL0     O48107   5.493  10.024   0.990  0.8541 -0.2392 -0.3625
  357MOL0     C48108   5.375   9.868   1.173 -0.6453  0.3558  0.0679
  357MOL0     C48109   5.310   9.790   1.279 -0.1108  0.2111  0.1010
  357MOL0     N48110   5.720   9.632   1.632 -0.4346  0.1121  0.3754
  357MOL0     N48111   5.817   9.647   1.551 -0.0099  1.1390 -0.1642
  357MOL0     C48112   6.897   9.876   2.045 -0.8389 -0.3394  0.0773
  357MOL0     C48113   7.022   9.867   2.106 -0.8325 -0.2049  0.1323
  357MOL0     C48114   7.451   9.708   2.187 -0.4723 -0.5228  0.1450
  357MOL0     C48115   7.503   9.615   2.280 -0.3396 -0.0304 -0.1351
  357MOL0     C48116   7.640   9.604   2.309  0.5810 -0.0493 -0.4786
  357MOL0     C48117   7.735   9.685   2.251 -0.1543 -0.0725  0.4818
  357MOL0     O48118   7.868   9.670   2.294 -0.7355 -0.9264  0.7708
  357MOL0     C48119   7.966   9.764   2.243 -0.1391 -0.2248  0.4198
  357MOL0     C48120   8.013   9.734   2.094  0.9236 -0.1989 -0.0865
  357MOL0     C48121   8.060   9.865   2.022  0.3434 -0.3929 -1.1696
  357MOL0     C48122   8.171   9.941   2.108  0.5092  0.6899 -0.0423
  357MOL0     C48123   8.293   9.859   2.106  0.2873  0.8524  0.3494
  357MOL0     C48124   8.384   9.782   2.103 -0.3835 -0.0946  0.0702
  357MOL0     C48125   7.689   9.786   2.163  0.0996  0.0349 -0.7850
  357MOL0     C48126   7.549   9.799   2.136 -0.1875 -1.0539  0.5050
  357MOL0     C48127   7.520   9.920   2.039 -0.1015 -0.8067 -0.1622
  357MOL0     H48128   7.179   9.666   1.887 -1.5819 -0.8565  0.9206
  357MOL0     H48129   6.949   9.677   1.774 -1.9783  0.0036 -0.1201
  357MOL0     H48130   6.724   9.678   1.712 -0.8358  0.2290 -0.4092
  357MOL0     H48131   6.722   9.585   1.870 -3.4363 -1.6740 -0.0547
  357MOL0     H48132   6.529   9.785   1.773 -0.2219 -1.0532 -2.9063
  357MOL0     H48133   6.492   9.674   1.903  0.1867 -0.0533 -0.9422
  357MOL0     H48134   6.459   9.499   1.760  1.1182  2.3465  3.8186
  357MOL0     H48135   6.553   9.566   1.627  0.9710 -1.3297  1.9393
  357MOL0     H48136   6.306   9.705   1.705 -0.8430 -3.6268  2.4519
  357MOL0     H48137   6.401   9.717   1.552 -0.1962  1.1822  1.4897
  357MOL0     H48138   6.344   9.481   1.504  1.6984 -0.1740  1.6703
  357MOL0     H48139   6.260   9.467   1.656  1.7208  0.2249 -0.5038
  357MOL0     H48140   6.075   9.611   1.598  0.2441  1.3198  0.7892
  357MOL0     H48141   6.162   9.679   1.457 -0.1542  0.4761  1.7739
  357MOL0     H48142   6.083   9.392   1.519 -2.3108  0.9129  1.3470
  357MOL0     H48143   6.150   9.447   1.363  0.0889  1.3366 -0.2180
  357MOL0     H48144   5.955   9.583   1.314  1.8556 -0.5724  0.0523
  357MOL0     H48145   5.916   9.425   1.322 -0.5544  0.3618  0.2481
  357MOL0     H48146   5.771   9.317   1.535  0.9255 -0.0629  0.9411
  357MOL0     H48147   5.625   9.345   1.775  2.6384  2.1943  0.6953
  357MOL0     H48148   5.545   9.499   1.788 -0.9031 -0.2146  0.7163
  357MOL0     H48149   5.492   9.290   1.568 -2.9786 -1.2162 -0.5763
  357MOL0     H48150   5.373   9.357   1.687 -2.0387  0.4495 -1.9248
  357MOL0     H48151   5.338   9.439   1.463 -0.2934  0.6764  1.0401
  357MOL0     H48152   5.492   9.516   1.462 -1.3084  0.9378 -0.6884
  357MOL0     H48153   5.452   9.669   1.633  0.3878  1.7583  0.0118
  357MOL0     H48154   5.295   9.597   1.670  2.8629 -1.4307  1.7373
  357MOL0     H48155   5.556   9.810   1.517  0.2764 -0.8905 -0.0917
  357MOL0     H48156   5.665   9.937   1.339 -0.6926  2.9557 -2.4884
  357MOL0     H48157   5.556  10.310   0.990 -0.0922 -1.2025 -2.9654
  357MOL0     H48158   5.671  10.469   0.854  2.2943  1.1457 -0.0586
  357MOL0     H48159   6.094  10.409   0.748 -0.9284 -0.2086  1.7412
  357MOL0     H48160   5.992  10.321   0.627  2.1946 -0.1104 -1.4639
  357MOL0     H48161   6.029  10.620   0.626  2.3833 -1.2595  0.2702
  357MOL0     H48162   6.121  10.512   0.535  0.6994 -1.3244  0.6043
  357MOL0     H48163   5.812  10.483   0.518  1.1630 -2.9629  0.2606
  357MOL0     H48164   5.887  10.618   0.434 -0.2553 -0.0025 -2.0834
  357MOL0     H48165   5.933  10.320   0.372 -0.6192 -0.3725 -1.9508
  357MOL0     H48166   6.035  10.460   0.312  0.0251  0.0615 -0.4495
  357MOL0     H48167   5.832  10.554   0.208 -3.4789 -1.5547 -0.9341
  357MOL0     H48168   5.748  10.423   0.281  1.0708  2.1970  1.5944
  357MOL0     H48169   5.948  10.395   0.050 -1.3094 -0.3164 -1.0949
  357MOL0     H48170   5.902  10.259   0.157 -1.0038  0.6750  3.0259
  357MOL0     H48171   5.716  10.430  -0.003 -1.8439  1.2504  3.1827
  357MOL0     H48172   5.660  10.310   0.114  3.5527 -1.7427  2.9049
  357MOL0     H48173   5.753  10.128   0.003  0.1226  1.5619  3.2742
  357MOL0     H48174   5.654  10.221  -0.118  0.0561  2.0728 -0.7913
  357MOL0     H48175   6.027  10.233   0.874 -1.0485 -0.7200 -3.3584
  357MOL0     H48176   5.919  10.074   1.030  1.4747  2.0945  0.0023
  357MOL0     H48177   5.320   9.873   1.080 -1.6119 -0.8341  0.5369
  357MOL0     H48178   5.212   9.750   1.256  0.8013 -4.0047  2.4322
  357MOL0     H48179   6.821   9.940   2.088 -0.1801 -0.1111  0.9280
  357MOL0     H48180   7.049   9.906   2.203 -1.6016 -2.4648  1.3263
  357MOL0     H48181   7.439   9.544   2.331 -1.2973  0.6669 -0.3347
  357MOL0     H48182   7.667   9.533   2.386  0.1955  1.0841  0.7224
  357MOL0     H48183   8.054   9.757   2.307  0.6727  0.2086 -0.6333
  357MOL0     H48184   7.921   9.863   2.255 -1.6350 -1.1149  3.2830
  357MOL0     H48185   7.933   9.682   2.040  0.0901 -0.0902  1.0076
  357MOL0     H48186   8.092   9.660   2.106 -0.7135 -2.0775 -0.3026
  357MOL0     H48187   7.976   9.933   2.005 -0.5910 -1.2850 -0.2790
  357MOL0     H48188   8.105   9.847   1.924  0.1828 -1.6246 -1.0337
  357MOL0     H48189   8.208  10.032   2.062  2.6432 -0.2226 -0.2396
  357MOL0     H48190   8.125   9.970   2.203  1.7142 -0.7313  1.0128
  357MOL0     H48191   8.464   9.713   2.085 -0.9380 -0.0985 -2.8725
  357MOL0     H48192   7.755   9.866   2.130  1.6062  1.3318  4.4729
  357MOL0     H48193   7.608   9.980   2.014 -0.9340  0.6751  0.3526
  357MOL0     H48194   7.472   9.887   1.946 -0.3735  0.9391 -0.6745
  357MOL0     H48195   7.454   9.996   2.081  1.4000  0.6153 -0.2920
  358MOL0     O48196   5.367  11.236   1.821 -0.3431 -0.3157  0.4939
  358MOL0     C48197   5.347  11.147   1.740 -0.1106  0.5577 -0.0386
  358MOL0     O48198   5.396  11.017   1.749  0.1427 -0.2970 -0.1718
  358MOL0     C48199   5.488  10.997   1.849  0.4626 -0.0259 -0.1779
  358MOL0     C48200   5.609  10.937   1.802 -0.0772  1.3492 -0.0271
  358MOL0     C48201   5.717  10.914   1.888  0.1679 -0.0241  0.1538
  358MOL0     C48202   5.698  10.937   2.021 -0.2927 -0.0442  0.2110
  358MOL0     O48203   5.804  10.905   2.097  0.0857 -0.5381 -0.5834
  358MOL0     C48204   5.816  10.939   2.236 -0.3627  0.1619  0.4090
  358MOL0     C48205   5.954  10.891   2.278  0.0115  0.4197 -0.2848
  358MOL0     C48206   6.066  10.982   2.224 -0.6700  1.0275  0.6126
  358MOL0     C48207   6.206  10.932   2.266  0.3721  0.0800  0.6783
  358MOL0     C48208   6.312  11.002   2.184  0.4454 -0.0248  0.3989
  358MOL0     C48209   6.400  10.919   2.085 -0.4260 -0.1046  0.4935
  358MOL0     C48210   6.443  10.780   2.146  0.0382  0.1965  0.5026
  358MOL0     C48211   6.500  10.782   2.290  0.7629 -0.3958 -0.3638
  358MOL0     N48212   6.609  10.875   2.291 -0.3136  0.0115 -0.2530
  358MOL0     C48213   6.716  10.866   2.219  0.3435 -0.5142 -0.5952
  358MOL0     C48214   6.797  10.961   2.268 -0.0485 -0.0191  0.1226
  358MOL0     C48215   6.934  11.004   2.219  0.1893 -0.8978  0.0282
  358MOL0     C48216   6.922  11.132   2.145  0.0383  0.8838 -0.1673
  358MOL0     C48217   7.048  11.217   2.143  0.2218 -0.5661  0.5530
  358MOL0     C48218   7.182  11.157   2.090  0.3944  0.3259 -0.5771
  358MOL0     O48219   7.287  11.239   2.137  0.2438  0.2072 -0.0139
  358MOL0     C48220   7.418  11.223   2.094 -0.3387 -0.5089  0.4695
  358MOL0     C48221   7.517  11.300   2.156 -0.2675 -0.2993  0.0274
  358MOL0     C48222   7.648  11.282   2.131 -0.6443 -0.1781  0.4186
  358MOL0     C48223   7.691  11.196   2.024  0.6132  0.4177 -0.3005
  358MOL0     C48224   7.826  11.184   1.973 -0.7930 -0.4088  0.3085
  358MOL0     O48225   7.921  11.243   2.058  0.1804  0.2287 -0.0042
  358MOL0     C48226   8.049  11.238   2.030  0.3180  0.2972  0.0965
  358MOL0     C48227   8.129  11.122   2.049 -0.6291 -0.3066 -0.1390
  358MOL0     C48228   8.262  11.121   2.016 -0.9305 -0.2256 -0.1756
  358MOL0     C48229   8.313  11.228   1.944 -1.3716 -0.6041  0.3727
  358MOL0     O48230   8.447  11.232   1.908 -0.1136 -0.1638 -0.7499
  358MOL0     C48231   8.529  11.124   1.935 -0.3046  0.9443  0.3648
  358MOL0     C48232   8.676  11.164   1.922  0.2356 -0.2246 -0.5756
  358MOL0     C48233   8.763  11.040   1.947 -0.1188  0.4231  0.4952
  358MOL0     C48234   8.916  11.063   1.960 -0.0316  0.2429 -0.2983
  358MOL0     C48235   8.967  11.149   1.839  0.0854  0.3027  0.0020
  358MOL0     C48236   9.121  11.125   1.835  0.5252 -0.3080 -0.3014
  358MOL0     C48237   9.166  11.201   1.713 -0.2120 -0.2754  0.6356
  358MOL0     C48238   9.311  11.194   1.699 -0.3350 -1.2561 -0.0184
  358MOL0    Cl48239   9.386  11.300   1.829 -0.1069 -0.3446 -0.4055
  358MOL0     C48240   8.237  11.342   1.914  0.0361  0.3589 -0.2291
  358MOL0     C48241   8.102  11.348   1.960  0.4494  0.1181  0.0592
  358MOL0     O48242   7.851  11.127   1.864  0.3518  0.0522 -0.0926
  358MOL0     C48243   7.587  11.134   1.946 -0.0012  0.2545 -0.1416
  358MOL0     C48244   7.451  11.137   1.988 -0.2870 -1.3448  0.0605
  358MOL0     N48245   6.740  11.021   2.372  0.2477  0.0937  0.4541
  358MOL0     N48246   6.624  10.967   2.384  0.4001 -0.1587 -0.3022
  358MOL0     C48247   5.578  10.983   2.075  0.1871  0.3863 -0.1998
  358MOL0     C48248   5.478  11.015   1.984  0.0009 -0.0067  0.2482
  358MOL0     C48249   5.260  11.183   1.616  0.4984  0.0125 -0.3240
  358MOL0     C48250   5.251  11.088   1.517 -0.8447 -0.2956  0.2916
  358MOL0     C48251   5.189  11.107   1.398 -0.3076  0.3904  0.6065
  358MOL0     C48252   5.107  11.220   1.376 -0.8988  0.6753  0.4480
  358MOL0     O48253   5.041  11.216   1.256 -0.2188  0.1168  0.7791
  358MOL0     C48254   4.965  11.339   1.228  0.7046  0.5846 -0.2264
  358MOL0     C48255   4.898  11.311   1.086 -0.2294  0.4920 -0.0282
  358MOL0     C48256   4.818  11.428   1.022  0.2866 -0.2954 -0.6125
  358MOL0     C48257   4.704  11.384   0.925 -0.4517  0.4890  0.8003
  358MOL0     C48258   4.629  11.495   0.865  0.0107 -0.6041 -0.3123
  358MOL0     C48259   4.571  11.592   0.826  0.2849 -0.0175  0.1071
  358MOL0     C48260   5.115  11.319   1.471 -0.3938 -1.1201  0.1009
  358MOL0     C48261   5.177  11.299   1.597 -0.7423 -0.5177 -0.6490
  358MOL0     C48262   5.167  11.411   1.696 -0.7008 -0.2288  0.5907
  358MOL0     H48263   5.603  10.897   1.701 -1.8310  1.5605 -0.0322
  358MOL0     H48264   5.795  10.848   1.849 -1.0262 -1.8002  0.6282
  358MOL0     H48265   5.813  11.048   2.239  2.5102  0.4177 -1.8046
  358MOL0     H48266   5.750  10.876   2.296  2.1444 -2.1837  0.9032
  358MOL0     H48267   5.958  10.787   2.243 -3.3768  0.2628 -0.5135
  358MOL0     H48268   5.974  10.891   2.386  0.6793 -1.9244 -0.3575
  358MOL0     H48269   6.043  11.084   2.256 -0.7691  0.8814  1.0158
  358MOL0     H48270   6.066  10.975   2.115 -2.4783  1.7946  0.5238
  358MOL0     H48271   6.209  10.958   2.373 -0.2485  1.3308  0.4149
  358MOL0     H48272   6.213  10.824   2.249  1.3084  0.0296  1.3263
  358MOL0     H48273   6.273  11.086   2.126  0.3053 -1.5677 -1.8627
  358MOL0     H48274   6.378  11.045   2.259  0.3180  0.5430  0.1892
  358MOL0     H48275   6.346  10.902   1.992 -0.5107  1.1976  0.2961
  358MOL0     H48276   6.490  10.970   2.050 -0.4653 -0.5414 -0.2628
  358MOL0     H48277   6.522  10.737   2.083  1.2671  2.2905  0.5246
  358MOL0     H48278   6.354  10.717   2.138 -0.5716  1.2542 -2.7244
  358MOL0     H48279   6.436  10.826   2.366 -1.4378 -3.0006 -0.5369
  358MOL0     H48280   6.537  10.684   2.324 -0.2085 -1.1803 -1.4733
  358MOL0     H48281   6.739  10.795   2.140  0.6659 -0.4394 -0.5688
  358MOL0     H48282   7.001  11.013   2.305  1.3159 -0.0618 -0.9016
  358MOL0     H48283   6.958  10.931   2.142  1.8272  0.2779 -0.6242
  358MOL0     H48284   6.902  11.099   2.043  1.6670  0.8344 -0.4938
  358MOL0     H48285   6.832  11.183   2.181  0.6873  1.0600  1.2816
  358MOL0     H48286   7.072  11.258   2.241 -0.6806 -1.7606  1.2924
  358MOL0     H48287   7.022  11.306   2.084  0.7965 -1.2893 -0.8341
  358MOL0     H48288   7.189  11.152   1.981  1.8042  2.5430 -0.6469
  358MOL0     H48289   7.206  11.067   2.147  0.9947  2.1240  2.2252
  358MOL0     H48290   7.498  11.373   2.234  1.4873 -0.6568  0.8548
  358MOL0     H48291   7.716  11.340   2.193  0.3787 -0.4911 -0.3800
  358MOL0     H48292   8.085  11.028   2.081 -1.3451 -0.6899 -2.0892
  358MOL0     H48293   8.324  11.038   2.049 -0.7473 -0.2009 -0.4468
  358MOL0     H48294   8.519  11.101   2.041  1.5376 -0.2346  0.3426
  358MOL0     H48295   8.498  11.037   1.876  0.3648  1.0585 -0.1699
  358MOL0     H48296   8.703  11.206   1.824  0.2574  0.4114 -0.3032
  358MOL0     H48297   8.693  11.239   2.000 -0.2377 -1.8202  1.1226
  358MOL0     H48298   8.722  11.005   2.042 -2.3673  3.5536  0.8279
  358MOL0     H48299   8.733  10.982   1.859 -2.9681  0.9196  1.0428
  358MOL0     H48300   8.970  10.968   1.964 -0.4412 -0.0400 -1.2146
  358MOL0     H48301   8.951  11.115   2.050  3.5229  0.9347 -1.8702
  358MOL0     H48302   8.938  11.253   1.854 -1.0768 -0.1756  1.2973
  358MOL0     H48303   8.925  11.110   1.746  3.0478  2.0389 -2.2478
  358MOL0     H48304   9.159  11.163   1.930 -2.0607  0.9773  0.3374
  358MOL0     H48305   9.137  11.017   1.831  0.7979 -0.4120  2.0038
  358MOL0     H48306   9.150  11.308   1.727  0.1297 -0.3618  1.7024
  358MOL0     H48307   9.120  11.162   1.621  2.7591  0.0077 -1.0954
  358MOL0     H48308   9.346  11.091   1.700  1.7189 -0.6141 -0.4367
  358MOL0     H48309   9.347  11.244   1.609 -1.1113  0.7381  0.7113
  358MOL0     H48310   8.289  11.423   1.863  1.9769 -0.4183  0.4378
  358MOL0     H48311   8.037  11.432   1.936  1.6892  1.0559 -0.1531
  358MOL0     H48312   7.613  11.069   1.863 -0.2960 -1.7356  1.2664
  358MOL0     H48313   7.371  11.084   1.938 -1.3967  1.2387 -1.1294
  358MOL0     H48314   5.564  10.990   2.182  0.1808  0.4213 -0.2026
  358MOL0     H48315   5.386  11.054   2.028  0.8036  0.0162  1.9669
  358MOL0     H48316   5.272  10.986   1.547  2.7950  0.7105  1.6308
  358MOL0     H48317   5.185  11.022   1.331 -0.8448 -0.0252  1.1575
  358MOL0     H48318   5.026  11.429   1.219 -1.2186  1.9214 -0.4357
  358MOL0     H48319   4.894  11.360   1.309  0.6881  0.1871 -0.1343
  358MOL0     H48320   4.833  11.225   1.105  1.3063 -0.5677  0.6070
  358MOL0     H48321   4.975  11.290   1.013  0.6344  1.8129  0.4659
  358MOL0     H48322   4.885  11.501   0.976 -2.0157  1.1508 -1.8196
  358MOL0     H48323   4.764  11.476   1.105 -2.3177  0.1627 -2.4498
  358MOL0     H48324   4.744  11.328   0.840 -2.4214  0.8939 -0.4556
  358MOL0     H48325   4.643  11.308   0.974 -2.9655  0.9443 -1.3528
  358MOL0     H48326   4.526  11.687   0.805 -0.6863 -0.7102 -1.0335
  358MOL0     H48327   5.065  11.414   1.457  2.8156  0.8104  0.6825
  358MOL0     H48328   5.266  11.459   1.698  1.8154 -4.6741 -1.1555
  358MOL0     H48329   5.090  11.482   1.666  1.3459  2.0829  0.4165
  358MOL0     H48330   5.145  11.375   1.797 -0.7665 -3.7941 -0.5670
  359MOL0     O48331   1.850  10.296   7.126 -0.2659 -0.1721  0.0648
  359MOL0     C48332   1.827  10.219   7.031  0.2191  0.1593 -0.2788
  359MOL0     O48333   1.914  10.132   6.978  0.2862 -0.0596  0.8342
  359MOL0     C48334   2.051  10.146   6.983  0.3061 -0.2317 -0.0185
  359MOL0     C48335   2.127  10.219   6.891 -0.4832  0.7302  0.3428
  359MOL0     C48336   2.263  10.207   6.894  0.0115  0.2611  0.1757
  359MOL0     C48337   2.331  10.135   6.997  0.3947 -0.0878  0.5541
  359MOL0     O48338   2.467  10.148   6.992  0.2996  0.0384 -0.0318
  359MOL0     C48339   2.539  10.098   7.101  0.0314 -0.7099  0.2752
  359MOL0     C48340   2.689  10.108   7.076  0.3690 -0.6083 -0.1375
  359MOL0     C48341   2.743  10.004   6.978 -0.5488 -0.0079  0.2067
  359MOL0     C48342   2.879  10.048   6.926 -0.0777 -0.8979 -0.4393
  359MOL0     C48343   2.937   9.938   6.843 -0.2901 -0.2552 -0.6731
  359MOL0     C48344   3.064   9.983   6.764  0.3653  0.2823  0.6270
  359MOL0     C48345   3.185   9.981   6.850  0.6393 -0.0181 -0.9384
  359MOL0     C48346   3.224   9.840   6.903  0.2168  0.1663 -0.1462
  359MOL0     N48347   3.359   9.838   6.965 -0.6745 -0.6917 -0.2930
  359MOL0     C48348   3.429   9.946   7.018  0.5835  0.1597 -0.7317
  359MOL0     C48349   3.534   9.894   7.078  0.4089  0.7077  0.1018
  359MOL0     C48350   3.635   9.966   7.145  1.1271  0.8901 -0.1062
  359MOL0     C48351   3.730  10.040   7.054 -0.1727 -0.2568 -0.5024
  359MOL0     C48352   3.827   9.944   6.981  0.0556 -0.6108  0.2694
  359MOL0     C48353   3.937  10.019   6.890  0.6416  0.4046 -0.0601
  359MOL0     O48354   3.986  10.146   6.949  0.5636 -0.3363 -0.0577
  359MOL0     C48355   4.106  10.142   7.013 -0.0189  0.1264  0.3460
  359MOL0     C48356   4.183  10.033   7.056 -0.1532  0.3303  0.3117
  359MOL0     C48357   4.308  10.035   7.104 -0.3995  0.2465 -0.7969
  359MOL0     C48358   4.365  10.162   7.129  0.1737  0.4008  0.7596
  359MOL0     C48359   4.511  10.174   7.165  0.7761 -0.0274 -0.2950
  359MOL0     O48360   4.562  10.305   7.157  1.0346 -0.1697  0.0712
  359MOL0     C48361   4.675  10.342   7.211 -0.2021  0.0114 -0.0784
  359MOL0     C48362   4.765  10.418   7.136  0.7451  0.9890  0.9530
  359MOL0     C48363   4.893  10.445   7.182 -0.1056 -0.0453  0.2173
  359MOL0     C48364   4.932  10.407   7.312  0.0461  0.8151 -0.1420
  359MOL0     O48365   5.067  10.427   7.333  0.1718 -0.2131 -0.1246
  359MOL0     C48366   5.119  10.376   7.451  0.7775 -0.3472 -0.4241
  359MOL0     C48367   5.267  10.410   7.462 -0.3800 -0.2636 -0.2784
  359MOL0     C48368   5.333  10.357   7.593  0.3948  1.3169 -0.0277
  359MOL0     C48369   5.467  10.415   7.611 -1.0436 -0.2169  0.0919
  359MOL0     C48370   5.546  10.323   7.710  0.8808 -0.1561  0.3665
  359MOL0     C48371   5.688  10.381   7.722  0.1398 -0.3909  0.4788
  359MOL0     C48372   5.793  10.335   7.623 -0.1458  0.1092  0.0009
  359MOL0     C48373   5.935  10.401   7.638  0.3323  0.9488 -0.0512
  359MOL0    Cl48374   6.025  10.320   7.503  0.6414  0.2182  0.3638
  359MOL0     C48375   4.835  10.347   7.395  0.3717  0.0921  0.2308
  359MOL0     C48376   4.714  10.316   7.339  1.8156  0.0042  0.1793
  359MOL0     O48377   4.568  10.075   7.210  0.1031  0.2700 -0.0198
  359MOL0     C48378   4.293  10.277   7.091 -0.6511 -0.0544 -0.2412
  359MOL0     C48379   4.170  10.264   7.024 -0.2183 -0.1404 -0.7266
  359MOL0     N48380   3.535   9.758   7.053  0.2591 -0.1877 -0.2229
  359MOL0     N48381   3.428   9.725   6.984 -0.4590  0.7718  0.4248
  359MOL0     C48382   2.254  10.072   7.099  0.1515  0.2086  0.0893
  359MOL0     C48383   2.114  10.080   7.092 -0.2823  0.3674  0.2989
  359MOL0     C48384   1.690  10.203   6.984  0.4321 -0.4639  0.6602
  359MOL0     C48385   1.678  10.196   6.847 -0.0896  0.7486 -0.2455
  359MOL0     C48386   1.553  10.193   6.779  0.3574  0.2509 -0.4822
  359MOL0     C48387   1.439  10.176   6.856  0.0883 -0.6255 -0.3281
  359MOL0     O48388   1.330  10.147   6.782  0.2579 -0.0571  0.2515
  359MOL0     C48389   1.198  10.161   6.843 -0.0813  0.6123  0.9546
  359MOL0     C48390   1.148  10.304   6.836  0.7596  0.9745 -0.3022
  359MOL0     C48391   0.994  10.312   6.849 -0.7240  0.7258  0.3268
  359MOL0     C48392   0.949  10.303   6.997  0.7417 -0.1140  0.9955
  359MOL0     C48393   0.805  10.276   7.002 -0.5369  0.2365 -0.0192
  359MOL0     C48394   0.697  10.237   7.014 -0.0995 -0.3346  0.1158
  359MOL0     C48395   1.447  10.197   6.995 -0.2795  0.3873 -1.0518
  359MOL0     C48396   1.575  10.213   7.063 -0.4975  0.2653 -0.9810
  359MOL0     C48397   1.579  10.245   7.213  0.6721 -0.1461 -0.5917
  359MOL0     H48398   2.074  10.272   6.813 -0.4705  0.6614  0.2867
  359MOL0     H48399   2.314  10.253   6.810 -1.4475 -2.3184 -2.3384
  359MOL0     H48400   2.503  10.157   7.186 -1.6063 -0.8066 -0.3020
  359MOL0     H48401   2.514   9.991   7.108  3.2059 -1.7065 -1.6175
  359MOL0     H48402   2.742  10.111   7.172 -2.3036  3.2754  1.4272
  359MOL0     H48403   2.704  10.210   7.041  1.4251 -0.9102 -0.6341
  359MOL0     H48404   2.676   9.991   6.892  0.6175  2.3159 -1.1516
  359MOL0     H48405   2.764   9.918   7.041 -0.8644  0.5705  1.1199
  359MOL0     H48406   2.874  10.144   6.874  0.1854  0.4312  1.8646
  359MOL0     H48407   2.937  10.067   7.017 -0.7100 -0.0510 -0.2095
  359MOL0     H48408   2.964   9.859   6.915 -0.3790  2.0057  2.0212
  359MOL0     H48409   2.864   9.902   6.771 -2.5918  1.6467  0.5484
  359MOL0     H48410   3.083   9.916   6.679  0.6301  0.7381  0.3222
  359MOL0     H48411   3.039  10.077   6.714 -1.7527 -1.1368 -1.1806
  359MOL0     H48412   3.165  10.045   6.936 -1.7513 -0.7799 -0.8487
  359MOL0     H48413   3.264  10.028   6.791 -1.0171  1.6625 -1.9777
  359MOL0     H48414   3.146   9.820   6.977 -0.1433  1.5098 -0.1420
  359MOL0     H48415   3.223   9.759   6.829  2.6796 -1.5027  1.4782
  359MOL0     H48416   3.391  10.046   7.000 -3.0612 -0.7460  1.0804
  359MOL0     H48417   3.598  10.026   7.229  0.7858 -1.4500  1.5289
  359MOL0     H48418   3.700   9.890   7.190  1.9636  0.6423 -1.6680
  359MOL0     H48419   3.671  10.099   6.984 -1.4710 -0.1066  0.6807
  359MOL0     H48420   3.785  10.109   7.120 -1.3655  2.2347 -1.9727
  359MOL0     H48421   3.771   9.877   6.916  2.3853 -1.8235 -0.6201
  359MOL0     H48422   3.883   9.883   7.052 -0.2427  0.2965  1.3077
  359MOL0     H48423   3.879  10.045   6.801 -0.7493 -0.0297  0.6933
  359MOL0     H48424   4.018   9.952   6.861  0.9380  0.7828 -0.1236
  359MOL0     H48425   4.138   9.934   7.056  0.2392  0.1509  0.9655
  359MOL0     H48426   4.367   9.953   7.143  1.8643  3.3977  3.2071
  359MOL0     H48427   4.715  10.420   7.040  1.0711  0.8206  0.7806
  359MOL0     H48428   4.961  10.484   7.107  0.0591  1.2155  1.0011
  359MOL0     H48429   5.064  10.411   7.539  2.5679 -0.1175  0.6337
  359MOL0     H48430   5.111  10.267   7.450 -1.3986 -0.4261  3.4190
  359MOL0     H48431   5.324  10.380   7.374 -2.2613 -1.7503 -1.0784
  359MOL0     H48432   5.283  10.518   7.471  2.5922 -0.5938 -0.7326
  359MOL0     H48433   5.280  10.384   7.685 -1.9770 -0.9963 -0.6161
  359MOL0     H48434   5.343  10.249   7.586 -3.2462  0.9105 -0.9179
  359MOL0     H48435   5.452  10.518   7.646  0.1188  1.3290 -3.4552
  359MOL0     H48436   5.525  10.420   7.518 -2.1638 -1.8504 -0.7339
  359MOL0     H48437   5.547  10.217   7.685  1.1862 -0.0353 -0.1672
  359MOL0     H48438   5.500  10.326   7.809 -0.1946 -0.7610 -0.0961
  359MOL0     H48439   5.686  10.490   7.714  0.7511 -0.4911 -1.7838
  359MOL0     H48440   5.719  10.372   7.827 -2.8926  1.4623  1.6708
  359MOL0     H48441   5.746  10.372   7.531 -3.1093  1.6299  1.9280
  359MOL0     H48442   5.794  10.226   7.616  3.0181  0.0477  0.1222
  359MOL0     H48443   5.929  10.508   7.614  1.4094  1.6458  2.4454
  359MOL0     H48444   5.968  10.387   7.742  0.4959 -0.4598 -0.2720
  359MOL0     H48445   4.848  10.322   7.499 -0.2439  0.1690  0.3289
  359MOL0     H48446   4.635  10.264   7.391  0.2054  2.5616  0.4193
  359MOL0     H48447   4.329  10.377   7.114  2.3734 -1.2592  0.7554
  359MOL0     H48448   4.125  10.358   6.996 -0.3711 -0.8692 -3.1961
  359MOL0     H48449   2.295  10.009   7.178  1.7391  2.4289  1.1437
  359MOL0     H48450   2.054  10.027   7.166  0.1600  1.9564  1.8507
  359MOL0     H48451   1.770  10.207   6.791 -1.3573  2.0710 -2.2253
  359MOL0     H48452   1.561  10.197   6.671  0.2298  3.2857 -0.4611
  359MOL0     H48453   1.189  10.113   6.941 -1.4333 -2.3184 -0.4559
  359MOL0     H48454   1.132  10.095   6.785  2.3062 -1.1255  0.0778
  359MOL0     H48455   1.177  10.350   6.741 -0.1806  1.6440 -0.2758
  359MOL0     H48456   1.201  10.363   6.912  1.9227  0.4171 -0.6695
  359MOL0     H48457   0.947  10.232   6.792 -0.7727  0.6617  0.4581
  359MOL0     H48458   0.954  10.406   6.807 -0.2083  0.2244 -1.3832
  359MOL0     H48459   1.014  10.232   7.049  0.1027 -0.7606  0.9189
  359MOL0     H48460   0.967  10.397   7.050  0.1781 -0.8581  2.5480
  359MOL0     H48461   0.593  10.213   7.017 -0.1296 -0.1295  2.6081
  359MOL0     H48462   1.360  10.195   7.059 -1.3258  1.4779 -2.3857
  359MOL0     H48463   1.596  10.351   7.229 -3.1736  0.3146  2.0179
  359MOL0     H48464   1.482  10.219   7.257  0.9870 -1.5748 -0.6761
  359MOL0     H48465   1.658  10.197   7.273  0.9682  1.1802  0.1016
  360MOL0     O48466   5.643   2.827   2.985  0.0148  0.5483 -0.6495
  360MOL0     C48467   5.611   2.796   2.868  0.2110  0.6283 -0.3043
  360MOL0     O48468   5.699   2.778   2.767 -0.0343  0.2400 -0.3983
  360MOL0     C48469   5.827   2.788   2.800 -0.4480  0.1111 -0.1812
  360MOL0     C48470   5.891   2.913   2.804 -0.5212  0.2146  0.2389
  360MOL0     C48471   6.029   2.918   2.825 -0.6528 -0.2286 -0.1146
  360MOL0     C48472   6.102   2.804   2.850  0.5016 -0.0924 -0.0149
  360MOL0     O48473   6.244   2.829   2.851 -0.2806 -0.1265  0.7579
  360MOL0     C48474   6.330   2.720   2.860 -0.4492 -0.0255  0.9965
  360MOL0     C48475   6.466   2.791   2.837  0.4633  0.7643  0.7612
  360MOL0     C48476   6.582   2.683   2.842  0.4315  0.5626 -0.7412
  360MOL0     C48477   6.716   2.747   2.813  0.9916  1.2822  0.0969
  360MOL0     C48478   6.831   2.647   2.810 -0.2537  0.1315  0.2167
  360MOL0     C48479   6.966   2.707   2.786  0.1636 -0.2493  0.1275
  360MOL0     C48480   7.068   2.592   2.768  0.9053  0.3763 -0.6746
  360MOL0     C48481   7.209   2.636   2.777 -0.1281 -0.4022  0.3123
  360MOL0     N48482   7.300   2.551   2.694  0.2075 -0.2963  0.6763
  360MOL0     C48483   7.306   2.548   2.559 -0.1604 -0.1126  0.3143
  360MOL0     C48484   7.424   2.488   2.525 -0.2572 -0.1261  0.2990
  360MOL0     C48485   7.453   2.466   2.384  0.8121  0.3218  0.2456
  360MOL0     C48486   7.559   2.558   2.337 -0.5038 -0.3947  1.0353
  360MOL0     C48487   7.584   2.551   2.177 -0.5285  0.3470 -0.1493
  360MOL0     C48488   7.722   2.524   2.116 -0.0605  0.3466 -0.2207
  360MOL0     O48489   7.790   2.646   2.119  0.3798 -0.9769 -0.2059
  360MOL0     C48490   7.926   2.645   2.104 -0.1284  0.2570 -0.4361
  360MOL0     C48491   7.993   2.772   2.129  0.1991 -0.6610  0.1981
  360MOL0     C48492   8.131   2.784   2.118  0.8062 -0.4183 -0.0205
  360MOL0     C48493   8.220   2.679   2.083 -0.8888 -0.2529  0.4184
  360MOL0     C48494   8.363   2.698   2.071  0.8334  0.1954 -0.3232
  360MOL0     O48495   8.427   2.609   1.995  0.2502  0.1870 -0.2951
  360MOL0     C48496   8.557   2.639   1.969 -0.0081 -0.5905 -0.2223
  360MOL0     C48497   8.592   2.725   1.867  0.0924 -0.2207 -0.2696
  360MOL0     C48498   8.725   2.751   1.841 -0.4265  0.8445  0.2064
  360MOL0     C48499   8.836   2.691   1.916  1.4426  0.5032  0.2474
  360MOL0     O48500   8.973   2.712   1.922  0.2332  0.8407  0.2874
  360MOL0     C48501   9.015   2.821   1.838 -0.7810 -0.4307 -1.0318
  360MOL0     C48502   9.178   2.826   1.853  0.2286 -0.4116  1.1033
  360MOL0     C48503   9.206   2.861   2.002  0.0711 -0.4638  1.0508
  360MOL0     C48504   9.349   2.907   1.995  0.4775 -1.3113 -0.1254
  360MOL0     C48505   9.398   2.958   2.125  0.3104 -0.3622  0.2602
  360MOL0     C48506   9.397   2.852   2.238 -0.4742  0.4773 -0.9389
  360MOL0     C48507   9.460   2.913   2.370 -0.3979  0.0231  0.8546
  360MOL0     C48508   9.466   2.806   2.485 -0.2125 -0.3276 -0.0674
  360MOL0    Cl48509   9.311   2.740   2.508 -0.3585  0.5570 -0.4931
  360MOL0     C48510   8.791   2.617   2.025 -1.0701  0.7401  0.5730
  360MOL0     C48511   8.658   2.594   2.052  0.8586  0.5429  0.1295
  360MOL0     O48512   8.407   2.789   2.129 -0.0427 -0.1892  0.1677
  360MOL0     C48513   8.148   2.555   2.060 -0.4800 -0.7990  0.0221
  360MOL0     C48514   8.011   2.534   2.074  1.0365  0.2718 -0.0006
  360MOL0     N48515   7.487   2.454   2.645  0.6798 -0.7609 -0.5550
  360MOL0     N48516   7.415   2.499   2.740  1.1115  0.2902 -0.8118
  360MOL0     C48517   6.039   2.677   2.849  0.7233  0.3939 -0.4951
  360MOL0     C48518   5.903   2.676   2.816 -0.9785 -0.0351 -0.3775
  360MOL0     C48519   5.465   2.786   2.844 -0.0778 -0.0238 -0.3376
  360MOL0     C48520   5.417   2.840   2.724  0.5427 -0.1976  0.1523
  360MOL0     C48521   5.280   2.838   2.698  0.2906  0.7844  0.8671
  360MOL0     C48522   5.188   2.778   2.788 -0.4279  0.3770 -0.2739
  360MOL0     O48523   5.053   2.772   2.772  0.8052 -0.5499  0.1288
  360MOL0     C48524   4.988   2.814   2.657 -0.5243  0.5343 -0.0630
  360MOL0     C48525   4.844   2.817   2.682 -0.3618 -0.7843  0.4372
  360MOL0     C48526   4.768   2.857   2.560 -0.3212 -0.5059  0.7694
  360MOL0     C48527   4.754   2.737   2.460  0.5936 -0.2978  0.6182
  360MOL0     C48528   4.669   2.766   2.353  1.0651 -0.4750 -0.7652
  360MOL0     C48529   4.632   2.791   2.242  0.3917 -0.8741  0.0205
  360MOL0     C48530   5.238   2.714   2.903 -0.1798 -0.2434 -0.0577
  360MOL0     C48531   5.375   2.722   2.934  0.2156 -0.4459 -0.1314
  360MOL0     C48532   5.415   2.656   3.066  0.5230  0.1647 -0.0146
  360MOL0     H48533   5.845   3.003   2.764  0.4560  0.5598 -0.1253
  360MOL0     H48534   6.081   3.013   2.818 -1.4219  0.1791 -0.4203
  360MOL0     H48535   6.334   2.679   2.961 -3.5331 -2.6605  0.2340
  360MOL0     H48536   6.304   2.647   2.783  2.9080  1.9756 -2.3864
  360MOL0     H48537   6.484   2.871   2.910  1.8385 -0.0307  1.3298
  360MOL0     H48538   6.456   2.832   2.736 -0.3734 -2.7012 -0.7139
  360MOL0     H48539   6.566   2.615   2.758  1.6063  1.0800 -1.4200
  360MOL0     H48540   6.588   2.621   2.931  2.4491  1.5177 -0.1430
  360MOL0     H48541   6.730   2.785   2.711  3.1940 -0.4710 -0.3261
  360MOL0     H48542   6.729   2.827   2.886  0.6925  0.0151  1.5950
  360MOL0     H48543   6.833   2.593   2.905 -3.5029  1.6783  1.3018
  360MOL0     H48544   6.809   2.577   2.729  0.5984  1.0804 -0.8749
  360MOL0     H48545   6.954   2.776   2.702  1.5710 -0.2993 -0.1421
  360MOL0     H48546   7.004   2.759   2.875 -1.7078 -0.9515  1.4160
  360MOL0     H48547   7.053   2.562   2.664 -0.0028  0.6078 -0.6203
  360MOL0     H48548   7.055   2.510   2.840  3.3838  0.9437  0.5182
  360MOL0     H48549   7.230   2.742   2.758  0.7492 -0.4989  0.6531
  360MOL0     H48550   7.239   2.620   2.881  0.7031  2.1450  0.5428
  360MOL0     H48551   7.229   2.587   2.493  0.4524 -1.3011 -1.1889
  360MOL0     H48552   7.501   2.368   2.374 -1.1282 -0.4998 -1.9002
  360MOL0     H48553   7.367   2.460   2.317  0.9000 -0.4934  0.1917
  360MOL0     H48554   7.526   2.657   2.370 -0.8998 -0.7198  1.6291
  360MOL0     H48555   7.653   2.545   2.392 -1.0762  1.5593  2.5613
  360MOL0     H48556   7.526   2.631   2.129 -2.7321 -1.8621 -1.4292
  360MOL0     H48557   7.521   2.468   2.143 -4.9499  3.2003  0.2156
  360MOL0     H48558   7.716   2.498   2.010  2.6468 -0.6501 -0.2163
  360MOL0     H48559   7.781   2.448   2.168 -2.8398 -1.5703  0.3771
  360MOL0     H48560   7.925   2.854   2.151  1.2401 -0.1139  1.4522
  360MOL0     H48561   8.170   2.881   2.147 -0.2673  0.7254 -2.2049
  360MOL0     H48562   8.518   2.774   1.805  0.0149  0.6244  0.4707
  360MOL0     H48563   8.743   2.820   1.759  0.3135  1.1552  0.6157
  360MOL0     H48564   8.988   2.798   1.734  2.4151  0.9927 -2.3083
  360MOL0     H48565   8.977   2.921   1.864  1.0950  0.1513 -0.4270
  360MOL0     H48566   9.216   2.724   1.838  2.9130  0.2151  3.0044
  360MOL0     H48567   9.218   2.894   1.778  3.2937 -1.5664  1.5601
  360MOL0     H48568   9.156   2.951   2.037  2.2496  1.6901 -0.9561
  360MOL0     H48569   9.195   2.773   2.067  0.3241 -2.4540 -1.4248
  360MOL0     H48570   9.352   2.991   1.926 -0.6701  0.3050  1.6917
  360MOL0     H48571   9.419   2.828   1.965  3.4897 -1.1018  5.1017
  360MOL0     H48572   9.345   3.046   2.161  0.7437 -0.2192  0.5644
  360MOL0     H48573   9.501   2.994   2.113 -0.5622  2.7320  1.0489
  360MOL0     H48574   9.293   2.824   2.251 -1.4056  2.5064 -3.2254
  360MOL0     H48575   9.449   2.760   2.211 -0.8003 -0.8722  2.5578
  360MOL0     H48576   9.408   3.003   2.405  0.7084  0.0496  2.5662
  360MOL0     H48577   9.563   2.944   2.349 -1.6588  3.3149 -1.2221
  360MOL0     H48578   9.538   2.733   2.446  0.2672 -0.1791  0.5287
  360MOL0     H48579   9.499   2.857   2.576 -0.4249  1.2344 -0.8415
  360MOL0     H48580   8.872   2.568   2.077  1.0552  1.1640 -2.1181
  360MOL0     H48581   8.628   2.543   2.143 -2.1184 -1.5204 -1.7994
  360MOL0     H48582   8.215   2.474   2.033  1.8700 -0.6041  4.3522
  360MOL0     H48583   7.980   2.432   2.059  1.4632 -0.1535  1.7577
  360MOL0     H48584   6.081   2.582   2.881 -1.5510 -0.3980  0.3327
  360MOL0     H48585   5.849   2.582   2.802 -1.6130 -0.0098  1.5690
  360MOL0     H48586   5.477   2.889   2.648 -0.0249 -0.1128 -0.2517
  360MOL0     H48587   5.242   2.885   2.608 -1.4966  1.6820  2.0425
  360MOL0     H48588   5.013   2.748   2.573 -0.3063  0.2301  0.2406
  360MOL0     H48589   5.018   2.915   2.625 -0.0349  0.3387 -0.2438
  360MOL0     H48590   4.827   2.888   2.764 -1.6610 -0.2547 -0.2526
  360MOL0     H48591   4.800   2.724   2.718  0.9036 -1.5206  0.1359
  360MOL0     H48592   4.813   2.935   2.499 -1.4512 -2.1727 -2.4210
  360MOL0     H48593   4.668   2.896   2.580  0.5829  4.6514 -2.8695
  360MOL0     H48594   4.851   2.704   2.420  0.7743  1.5427 -0.5854
  360MOL0     H48595   4.714   2.650   2.512  0.7316 -1.8292 -1.6800
  360MOL0     H48596   4.610   2.801   2.138 -1.0673 -1.7378  0.2257
  360MOL0     H48597   5.174   2.677   2.983 -2.8172  1.0785 -1.4144
  360MOL0     H48598   5.449   2.725   3.144 -1.1780 -0.8729  1.7065
  360MOL0     H48599   5.331   2.601   3.108  0.2447 -2.7306 -3.8078
  360MOL0     H48600   5.495   2.589   3.035  2.2546  2.5995 -1.1739
  361MOL0     O48601   5.552   0.494   5.426 -0.1107  0.4063 -0.2278
  361MOL0     C48602   5.470   0.586   5.449 -0.1463  0.1946 -0.3833
  361MOL0     O48603   5.502   0.717   5.481  0.4986 -0.5131 -0.2806
  361MOL0     C48604   5.628   0.753   5.510 -0.7582 -0.1000  0.0971
  361MOL0     C48605   5.662   0.773   5.643  0.1048  0.1752  0.2317
  361MOL0     C48606   5.798   0.793   5.683  0.2000  0.0060 -0.1099
  361MOL0     C48607   5.891   0.805   5.587 -1.4066 -0.0142  0.2160
  361MOL0     O48608   6.018   0.839   5.626 -0.5405 -0.2283 -0.3086
  361MOL0     C48609   6.135   0.795   5.548  0.9198 -0.2275  0.0386
  361MOL0     C48610   6.242   0.761   5.638 -0.2881 -0.0433  0.0558
  361MOL0     C48611   6.215   0.671   5.756 -0.1469  1.3524 -0.9203
  361MOL0     C48612   6.339   0.571   5.773 -0.5217 -1.1592 -0.4047
  361MOL0     C48613   6.460   0.618   5.854 -0.2948  0.1954  0.0078
  361MOL0     C48614   6.530   0.738   5.794  0.1842  0.5254 -0.5963
  361MOL0     C48615   6.651   0.773   5.883 -0.0248 -0.1759  0.1591
  361MOL0     C48616   6.615   0.835   6.020  0.2671  0.3596 -0.0074
  361MOL0     N48617   6.683   0.957   6.056 -0.5310  0.4340 -0.5030
  361MOL0     C48618   6.811   0.993   6.009  0.6638 -0.4703 -0.0727
  361MOL0     C48619   6.822   1.120   6.067 -0.1745  0.6004  0.8467
  361MOL0     C48620   6.923   1.210   6.018 -0.6045 -0.6080  0.1452
  361MOL0     C48621   7.022   1.236   6.132  0.4808 -0.2394  0.5755
  361MOL0     C48622   6.968   1.334   6.231  0.0156 -0.6701  0.0334
  361MOL0     C48623   7.086   1.388   6.332 -0.1904  0.5467  1.0720
  361MOL0     O48624   7.177   1.471   6.252 -0.2805  0.9594 -0.6332
  361MOL0     C48625   7.282   1.542   6.304 -0.6042 -0.2241 -0.0172
  361MOL0     C48626   7.356   1.617   6.212 -0.0833 -0.0492 -0.0965
  361MOL0     C48627   7.467   1.691   6.252 -0.3275 -0.4013 -0.6000
  361MOL0     C48628   7.511   1.684   6.387 -0.4580 -0.2315 -0.0628
  361MOL0     C48629   7.621   1.779   6.429 -0.1114 -0.0382  0.1963
  361MOL0     O48630   7.627   1.813   6.561 -0.0482  0.5034  0.1570
  361MOL0     C48631   7.733   1.896   6.605 -0.1648  0.1965 -0.5701
  361MOL0     C48632   7.709   1.981   6.717  0.1432  0.1920 -0.4490
  361MOL0     C48633   7.823   2.036   6.784  0.6043 -0.5440  0.4979
  361MOL0     C48634   7.956   2.007   6.746  0.0183 -0.6296 -0.4349
  361MOL0     O48635   8.075   2.039   6.810  0.2214  0.2061  0.4555
  361MOL0     C48636   8.083   2.147   6.911  0.1851 -0.1620  0.3519
  361MOL0     C48637   8.197   2.099   6.993 -0.0549  0.0968  0.0161
  361MOL0     C48638   8.328   2.094   6.916  0.6423  0.3217  0.0780
  361MOL0     C48639   8.368   2.237   6.883 -0.2858  0.8287  0.1067
  361MOL0     C48640   8.521   2.241   6.839  0.5408 -0.4677 -0.1920
  361MOL0     C48641   8.554   2.177   6.698 -0.3037 -0.0646  0.0305
  361MOL0     C48642   8.704   2.137   6.685 -0.7657 -0.2207 -0.8243
  361MOL0     C48643   8.801   2.253   6.682 -0.8268 -0.8373 -0.4277
  361MOL0    Cl48644   8.984   2.218   6.664  0.4216 -0.6874  0.3896
  361MOL0     C48645   7.970   1.934   6.631 -0.5092  0.0622  0.7146
  361MOL0     C48646   7.864   1.874   6.562 -0.3722 -0.4650  1.2524
  361MOL0     O48647   7.695   1.816   6.338  0.0477  0.1102  0.5750
  361MOL0     C48648   7.450   1.592   6.479 -0.1347 -0.2617  0.0597
  361MOL0     C48649   7.338   1.520   6.434  0.5651  0.3900 -0.5259
  361MOL0     N48650   6.705   1.148   6.140 -0.2973  0.3450  0.2759
  361MOL0     N48651   6.630   1.049   6.138 -0.4913  0.1760 -0.2909
  361MOL0     C48652   5.854   0.783   5.451  0.2631 -0.0368  0.3538
  361MOL0     C48653   5.723   0.761   5.416  0.3155 -0.6483  0.7809
  361MOL0     C48654   5.324   0.559   5.420 -1.0302  0.2765 -0.2108
  361MOL0     C48655   5.293   0.456   5.335  0.1850  1.1851 -0.2438
  361MOL0     C48656   5.166   0.437   5.293  0.0136 -0.3391  1.0357
  361MOL0     C48657   5.055   0.504   5.343  0.3155 -0.0458  0.0366
  361MOL0     O48658   4.931   0.478   5.278  0.7942 -0.1225 -0.4987
  361MOL0     C48659   4.830   0.583   5.277  0.0116  0.3700  0.3135
  361MOL0     C48660   4.731   0.547   5.166 -0.6216 -0.0865 -0.8154
  361MOL0     C48661   4.599   0.606   5.166  0.5138  0.2169 -0.3601
  361MOL0     C48662   4.599   0.757   5.194  0.4121 -0.4838 -0.4320
  361MOL0     C48663   4.460   0.804   5.193 -0.0986 -0.3919 -0.4824
  361MOL0     C48664   4.345   0.840   5.213  0.4856  0.6121 -0.5803
  361MOL0     C48665   5.079   0.596   5.437  0.5522  0.4746 -0.2257
  361MOL0     C48666   5.213   0.630   5.475  0.6338  0.6890 -0.4843
  361MOL0     C48667   5.226   0.738   5.573  0.2809  0.1657 -0.0103
  361MOL0     H48668   5.574   0.780   5.705  0.3328 -0.7022  0.6804
  361MOL0     H48669   5.822   0.824   5.784  1.3999  2.0359 -0.9622
  361MOL0     H48670   6.102   0.708   5.490 -1.3277 -1.4924  2.9570
  361MOL0     H48671   6.166   0.873   5.478 -0.6430  1.1105  0.7613
  361MOL0     H48672   6.283   0.857   5.672  1.9687  0.4150 -3.4523
  361MOL0     H48673   6.323   0.721   5.576 -1.4875  1.4088 -2.6460
  361MOL0     H48674   6.122   0.616   5.737 -0.2609 -0.0844  2.9069
  361MOL0     H48675   6.212   0.732   5.846  0.6827 -3.2704  2.6666
  361MOL0     H48676   6.298   0.481   5.820 -0.7838 -0.3287  1.0353
  361MOL0     H48677   6.369   0.535   5.675 -0.9304  0.4581 -1.1629
  361MOL0     H48678   6.435   0.626   5.960  0.4875 -1.2988  0.3279
  361MOL0     H48679   6.534   0.538   5.849  0.2309  0.7027 -0.3645
  361MOL0     H48680   6.566   0.718   5.692 -0.0829 -1.3948 -0.3431
  361MOL0     H48681   6.459   0.822   5.795 -2.3417 -1.4250 -2.2577
  361MOL0     H48682   6.695   0.855   5.826 -2.1464  0.6488 -0.3875
  361MOL0     H48683   6.723   0.692   5.899 -1.7821 -1.3744  2.7901
  361MOL0     H48684   6.507   0.850   6.024  0.2687  0.2833  0.3671
  361MOL0     H48685   6.630   0.759   6.098 -1.1796  0.3326  0.2701
  361MOL0     H48686   6.879   0.948   5.938 -0.0318  0.3732 -1.3057
  361MOL0     H48687   6.969   1.177   5.925  1.9284 -0.2570  1.1817
  361MOL0     H48688   6.887   1.308   5.985  0.7684  0.2135  0.9807
  361MOL0     H48689   7.043   1.143   6.185 -2.0195 -0.9196  0.4832
  361MOL0     H48690   7.113   1.278   6.088 -0.2907  0.6113 -0.2590
  361MOL0     H48691   6.887   1.279   6.281 -0.0596 -2.0619 -1.5155
  361MOL0     H48692   6.931   1.427   6.188 -1.5875 -0.8256  0.9946
  361MOL0     H48693   7.133   1.300   6.376 -0.6512  0.3082  1.0918
  361MOL0     H48694   7.043   1.448   6.413 -1.7986 -1.4211  1.7563
  361MOL0     H48695   7.305   1.636   6.118 -2.1494  0.5514  1.0804
  361MOL0     H48696   7.520   1.748   6.176 -1.9727  3.0508  0.5943
  361MOL0     H48697   7.612   1.991   6.763  0.7550 -3.1439  1.9405
  361MOL0     H48698   7.804   2.089   6.877 -1.9008  0.8393 -0.7138
  361MOL0     H48699   8.096   2.247   6.869 -4.2342 -0.2439 -1.7163
  361MOL0     H48700   7.990   2.151   6.968 -0.9350 -1.2429 -1.3304
  361MOL0     H48701   8.212   2.164   7.080  1.5578 -0.4264  0.1666
  361MOL0     H48702   8.165   2.004   7.034 -0.9546  1.1736  1.9570
  361MOL0     H48703   8.413   2.068   6.980  1.2852  1.4731 -0.2751
  361MOL0     H48704   8.329   2.025   6.831  3.9731  2.8410 -2.1817
  361MOL0     H48705   8.343   2.298   6.969  0.8253  1.2523  0.1379
  361MOL0     H48706   8.303   2.274   6.803  2.1504  4.9805 -0.2229
  361MOL0     H48707   8.578   2.203   6.924  1.0926  0.9871  0.1159
  361MOL0     H48708   8.547   2.347   6.833  3.1255 -0.9460  1.0713
  361MOL0     H48709   8.504   2.080   6.697  0.4668 -0.6866 -5.1525
  361MOL0     H48710   8.536   2.242   6.612 -0.1564 -2.2037 -1.7046
  361MOL0     H48711   8.717   2.071   6.599  0.0989 -1.6095  0.3324
  361MOL0     H48712   8.735   2.079   6.772 -0.8507 -0.7325 -1.1315
  361MOL0     H48713   8.752   2.325   6.615 -1.8516  0.8455  1.9865
  361MOL0     H48714   8.798   2.309   6.775 -0.9341 -0.8724 -0.4105
  361MOL0     H48715   8.075   1.916   6.608 -0.3012  0.7429  1.0854
  361MOL0     H48716   7.890   1.794   6.494  3.7731 -0.1489  2.1948
  361MOL0     H48717   7.483   1.591   6.582  1.7446 -1.4617 -0.4886
  361MOL0     H48718   7.283   1.451   6.497 -0.6318  2.2742  0.5861
  361MOL0     H48719   5.923   0.799   5.369 -0.5984 -1.4724 -0.6876
  361MOL0     H48720   5.685   0.745   5.316 -2.3447 -3.3758  2.0630
  361MOL0     H48721   5.366   0.382   5.305 -1.4578 -2.3835  3.6152
  361MOL0     H48722   5.138   0.358   5.225 -0.9574  1.6481 -0.9985
  361MOL0     H48723   4.884   0.677   5.265 -0.2895  0.4428 -0.5138
  361MOL0     H48724   4.768   0.584   5.367 -1.0401 -1.8593 -0.3261
  361MOL0     H48725   4.718   0.439   5.173  0.3516 -0.1698  0.1513
  361MOL0     H48726   4.791   0.571   5.078 -1.6529 -0.7655 -1.7328
  361MOL0     H48727   4.543   0.561   5.248 -2.7462  2.2442 -1.2741
  361MOL0     H48728   4.551   0.593   5.068 -0.3688 -3.7892  0.4099
  361MOL0     H48729   4.641   0.776   5.294  0.1202 -1.9948  0.0149
  361MOL0     H48730   4.647   0.804   5.109 -1.3685  0.8446 -0.7494
  361MOL0     H48731   4.246   0.874   5.234  0.7928 -0.3042  3.2122
  361MOL0     H48732   5.001   0.648   5.491  0.9991  1.4332 -0.4681
  361MOL0     H48733   5.272   0.818   5.514 -0.3627 -1.0783 -2.3191
  361MOL0     H48734   5.131   0.771   5.616 -0.9422 -3.9855  0.9533
  361MOL0     H48735   5.291   0.716   5.658  0.8081  0.7787 -0.2456
  362MOL0     O48736   6.353   1.554   8.997 -0.7057  0.2150  0.6224
  362MOL0     C48737   6.390   1.516   9.108 -0.0153 -1.0366  0.1283
  362MOL0     O48738   6.307   1.494   9.211 -0.3111 -0.4679 -0.3903
  362MOL0     C48739   6.175   1.519   9.199  0.4318 -0.4711  0.0557
  362MOL0     C48740   6.114   1.635   9.145  0.1483  0.7801  0.8475
  362MOL0     C48741   5.969   1.647   9.149 -0.0043  0.5468  0.4384
  362MOL0     C48742   5.885   1.558   9.212  0.0475 -0.2707  0.0908
  362MOL0     O48743   5.752   1.591   9.209  0.2529 -0.2830 -0.0513
  362MOL0     C48744   5.653   1.531   9.289 -0.6615  0.9142  0.5420
  362MOL0     C48745   5.594   1.404   9.211  0.2473  0.0252 -0.0913
  362MOL0     C48746   5.476   1.329   9.275  0.4458  0.1517 -0.7632
  362MOL0     C48747   5.341   1.388   9.240 -0.1089  0.6953  0.7249
  362MOL0     C48748   5.236   1.295   9.293  0.2524  0.2227 -0.3988
  362MOL0     C48749   5.096   1.361   9.263  0.2087 -0.4463  0.1106
  362MOL0     C48750   4.993   1.256   9.306  0.7826  0.0195  0.8604
  362MOL0     C48751   4.854   1.283   9.235  0.7306 -0.2633 -0.5627
  362MOL0     N48752   4.763   1.193   9.305  0.0579 -0.6782  0.4270
  362MOL0     C48753   4.724   1.068   9.267 -0.2984  0.1723 -1.0981
  362MOL0     C48754   4.650   1.017   9.373  0.0367  0.0461 -0.3079
  362MOL0     C48755   4.584   0.890   9.374  0.9073 -0.0481 -0.6120
  362MOL0     C48756   4.631   0.810   9.502 -0.6908 -0.2518 -0.4107
  362MOL0     C48757   4.778   0.761   9.489  0.6951  0.8243  0.3262
  362MOL0     C48758   4.776   0.627   9.409 -0.5893  0.1750 -0.6200
  362MOL0     O48759   4.910   0.576   9.384 -0.3833 -0.5456  0.4220
  362MOL0     C48760   4.997   0.655   9.316  0.1908  0.0034 -0.5522
  362MOL0     C48761   5.137   0.635   9.331 -0.1113 -0.5794 -0.2943
  362MOL0     C48762   5.227   0.707   9.263  0.5448 -0.6184 -0.2699
  362MOL0     C48763   5.191   0.811   9.172  1.1944  0.3193 -0.7924
  362MOL0     C48764   5.289   0.904   9.111 -0.3748 -0.6750 -1.3348
  362MOL0     O48765   5.415   0.896   9.166 -0.3493 -0.7745  0.3361
  362MOL0     C48766   5.530   0.965   9.118 -0.5211  0.2220 -0.2131
  362MOL0     C48767   5.536   1.027   8.991 -0.1294  0.6133  0.4973
  362MOL0     C48768   5.660   1.083   8.963  0.2835  0.1139  0.0832
  362MOL0     C48769   5.758   1.111   9.060 -0.4240  0.2114  0.6169
  362MOL0     O48770   5.854   1.200   9.025 -1.0023 -0.4359  0.2418
  362MOL0     C48771   5.993   1.181   9.063  0.4730 -0.9493  0.0451
  362MOL0     C48772   6.056   1.081   8.977  0.5128 -0.2880  0.7807
  362MOL0     C48773   6.211   1.087   8.972  0.4969 -0.3881 -0.5158
  362MOL0     C48774   6.273   1.052   9.110 -0.1057 -0.2562 -0.3057
  362MOL0     C48775   6.428   1.021   9.109 -0.0878  0.2868 -0.5541
  362MOL0     C48776   6.525   1.130   9.079 -0.3030  0.1322  0.1542
  362MOL0     C48777   6.671   1.077   9.078 -0.3781 -0.3268  0.0434
  362MOL0     C48778   6.689   0.979   8.962 -0.2342  0.0950  0.1663
  362MOL0    Cl48779   6.863   0.993   8.916 -0.1855 -0.0382 -0.5265
  362MOL0     C48780   5.754   1.033   9.177 -0.7740 -0.5267  0.0987
  362MOL0     C48781   5.635   0.958   9.209  0.5244  0.8699 -0.5417
  362MOL0     O48782   5.250   0.987   9.035  0.1226 -0.2351 -0.9661
  362MOL0     C48783   5.053   0.829   9.150 -0.2316 -0.3664 -0.3490
  362MOL0     C48784   4.963   0.751   9.221  0.3658  0.2975 -0.2529
  362MOL0     N48785   4.625   1.129   9.460  0.0100 -0.2905 -0.4046
  362MOL0     N48786   4.697   1.230   9.419 -0.3153 -0.0500  0.1041
  362MOL0     C48787   5.946   1.450   9.281  0.1496  0.0012  0.1838
  362MOL0     C48788   6.087   1.437   9.276  0.3554 -0.4940  0.1727
  362MOL0     C48789   6.535   1.512   9.142  0.3751 -0.1613 -0.1348
  362MOL0     C48790   6.575   1.526   9.273  0.5230  0.2332 -0.3744
  362MOL0     C48791   6.704   1.496   9.315  0.1453  0.5273 -0.2272
  362MOL0     C48792   6.800   1.470   9.212 -0.4799  0.2146 -0.3910
  362MOL0     O48793   6.935   1.450   9.245  0.0046  0.9204  0.4790
  362MOL0     C48794   7.014   1.348   9.174 -0.0658  0.5671 -1.2453
  362MOL0     C48795   7.158   1.350   9.237  0.0414  0.1063  0.2977
  362MOL0     C48796   7.167   1.263   9.363 -0.2498  0.2360  0.4561
  362MOL0     C48797   7.316   1.240   9.429 -0.4976 -0.2929 -0.2412
  362MOL0     C48798   7.378   1.368   9.462  0.1185  0.0375  0.1918
  362MOL0     C48799   7.419   1.478   9.495 -1.1184  0.5067 -0.3190
  362MOL0     C48800   6.763   1.470   9.083 -0.9345  0.2380  0.0337
  362MOL0     C48801   6.632   1.485   9.043  0.9747  0.0262 -0.0729
  362MOL0     C48802   6.602   1.470   8.893  0.3251  0.0506 -0.6299
  362MOL0     H48803   6.174   1.698   9.081  1.0411 -0.8783 -0.0189
  362MOL0     H48804   5.917   1.722   9.089 -1.4952 -0.1290  0.8463
  362MOL0     H48805   5.696   1.495   9.383  0.9319  0.5540 -0.2994
  362MOL0     H48806   5.575   1.606   9.307  0.1061  1.7214  0.5755
  362MOL0     H48807   5.667   1.322   9.215 -2.0064 -2.0478  1.9221
  362MOL0     H48808   5.580   1.429   9.105  1.7915  0.8863 -0.1249
  362MOL0     H48809   5.487   1.332   9.383  1.7732 -4.1353 -0.5748
  362MOL0     H48810   5.489   1.224   9.247 -1.9642 -1.0257  2.0545
  362MOL0     H48811   5.340   1.488   9.284  3.0906  2.0778 -1.8611
  362MOL0     H48812   5.320   1.391   9.132 -1.0229  0.8918  0.8992
  362MOL0     H48813   5.240   1.194   9.250  1.2848 -1.5568  3.4494
  362MOL0     H48814   5.245   1.279   9.401 -2.6194 -0.6947 -0.1851
  362MOL0     H48815   5.086   1.456   9.316 -1.6332  1.0283 -2.6578
  362MOL0     H48816   5.097   1.386   9.157  1.8845 -1.7015 -0.2161
  362MOL0     H48817   4.984   1.246   9.415 -1.8426 -1.5387  0.5918
  362MOL0     H48818   5.021   1.156   9.270  1.0399  0.7972 -1.2228
  362MOL0     H48819   4.831   1.388   9.255 -0.4525  0.1200 -3.4665
  362MOL0     H48820   4.849   1.279   9.126  0.0633  4.0023 -0.8468
  362MOL0     H48821   4.726   1.018   9.171 -0.1827  1.2655 -1.6800
  362MOL0     H48822   4.476   0.900   9.387  1.1075 -1.0256  2.6806
  362MOL0     H48823   4.610   0.829   9.287  1.7762 -3.8040  2.0182
  362MOL0     H48824   4.614   0.864   9.596  0.1184 -1.7232  0.6308
  362MOL0     H48825   4.569   0.721   9.520  0.9495 -1.0860  1.4893
  362MOL0     H48826   4.807   0.739   9.592 -1.6853 -1.1513  0.6775
  362MOL0     H48827   4.828   0.843   9.437 -0.2799  1.1460 -0.1282
  362MOL0     H48828   4.733   0.658   9.313 -0.1451 -0.2506 -0.9597
  362MOL0     H48829   4.709   0.551   9.451  0.9765  0.1456  2.0161
  362MOL0     H48830   5.174   0.563   9.404 -1.6818 -0.6872  0.4340
  362MOL0     H48831   5.334   0.689   9.275  0.5857 -1.4394 -1.7255
  362MOL0     H48832   5.465   1.009   8.911  1.3684  3.9228 -1.7728
  362MOL0     H48833   5.666   1.133   8.867 -0.2552 -1.0052 -0.5597
  362MOL0     H48834   6.038   1.278   9.040 -0.6314 -0.9466 -2.4618
  362MOL0     H48835   6.009   1.164   9.170 -0.3866  2.1876  0.7900
  362MOL0     H48836   6.025   0.980   9.008 -2.5449 -0.8007 -3.1489
  362MOL0     H48837   6.029   1.095   8.872  4.3576 -0.5110 -0.4013
  362MOL0     H48838   6.252   1.021   8.895  0.2660 -3.1710  1.5846
  362MOL0     H48839   6.235   1.190   8.946  1.1882 -0.5957 -0.7256
  362MOL0     H48840   6.231   0.956   9.139  0.2888 -0.3204  0.0624
  362MOL0     H48841   6.242   1.131   9.179  1.6634  0.3218 -0.0995
  362MOL0     H48842   6.445   0.950   9.028 -2.6204 -0.2271 -0.7144
  362MOL0     H48843   6.437   0.974   9.207 -0.8160 -0.3458 -0.7841
  362MOL0     H48844   6.510   1.189   8.989  1.6314  2.1183  1.0312
  362MOL0     H48845   6.513   1.213   9.149 -0.3429  0.9969 -0.8479
  362MOL0     H48846   6.676   1.026   9.174 -2.8513  0.4665  0.6562
  362MOL0     H48847   6.743   1.159   9.070  2.7887 -3.0514 -3.5124
  362MOL0     H48848   6.657   0.882   9.001  1.8581 -0.8668 -0.3521
  362MOL0     H48849   6.631   1.007   8.874  2.4737 -0.1823 -1.8435
  362MOL0     H48850   5.832   1.047   9.252 -0.4021  0.1782 -0.4090
  362MOL0     H48851   5.633   0.910   9.306 -1.0570  0.2669 -0.8358
  362MOL0     H48852   5.012   0.905   9.085 -1.3471 -0.6763 -0.0204
  362MOL0     H48853   4.857   0.774   9.207  0.3654  0.1352 -0.5156
  362MOL0     H48854   5.889   1.365   9.319 -0.3482 -1.3563 -3.1961
  362MOL0     H48855   6.136   1.374   9.349  3.1658  1.0427 -0.2405
  362MOL0     H48856   6.508   1.558   9.351 -1.6894 -1.9785 -1.2578
  362MOL0     H48857   6.737   1.486   9.418 -0.7967  1.4802  0.1782
  362MOL0     H48858   7.033   1.368   9.068 -1.3475 -2.3675 -2.1385
  362MOL0     H48859   6.966   1.251   9.181 -0.7685  1.0246  0.7457
  362MOL0     H48860   7.178   1.455   9.260  1.0330  0.2397 -1.0241
  362MOL0     H48861   7.235   1.321   9.164 -1.0264  0.3411 -0.9484
  362MOL0     H48862   7.124   1.164   9.344  1.1857 -0.0278 -2.0348
  362MOL0     H48863   7.102   1.311   9.436 -0.8585 -0.7452  0.5721
  362MOL0     H48864   7.297   1.196   9.527  0.4122 -0.4052 -0.1081
  362MOL0     H48865   7.386   1.176   9.374 -0.7458 -0.5267 -0.2867
  362MOL0     H48866   7.458   1.574   9.523 -1.8953  1.2106 -1.5837
  362MOL0     H48867   6.834   1.443   9.006 -1.0622  0.8456 -0.3065
  362MOL0     H48868   6.542   1.550   8.847  1.4217  2.3226  1.6426
  362MOL0     H48869   6.704   1.474   8.852  1.9551 -2.2547  2.8005
  362MOL0     H48870   6.574   1.370   8.859 -0.8438 -0.1561  0.8487
  363MOL0     O48871   6.304   2.414   0.949 -0.0386  0.4323 -0.5748
  363MOL0     C48872   6.252   2.316   0.904  0.8013 -0.3781 -0.0629
  363MOL0     O48873   6.307   2.236   0.809  0.3025  0.0165 -0.2228
  363MOL0     C48874   6.441   2.246   0.764  0.2694  0.4008 -0.1565
  363MOL0     C48875   6.486   2.211   0.640  0.4429 -0.3893  0.2475
  363MOL0     C48876   6.618   2.211   0.609 -0.0587  0.8426 -0.6408
  363MOL0     C48877   6.715   2.234   0.703  0.0098 -0.5255 -0.6469
  363MOL0     O48878   6.851   2.247   0.681  0.2675 -0.4385  0.1908
  363MOL0     C48879   6.907   2.144   0.601  0.0642 -0.0401 -0.0352
  363MOL0     C48880   6.985   2.045   0.690  0.5529  0.2643  0.4581
  363MOL0     C48881   7.087   2.104   0.788  0.3666 -0.2865  0.4992
  363MOL0     C48882   7.167   1.992   0.856  0.1444 -0.6690  0.4378
  363MOL0     C48883   7.250   2.048   0.966 -0.0053 -0.2662  0.6070
  363MOL0     C48884   7.319   1.933   1.039 -0.2362 -0.0533 -0.0200
  363MOL0     C48885   7.442   1.880   0.961 -0.6811  0.5297 -0.1725
  363MOL0     C48886   7.565   1.838   1.050  0.0325 -0.7056 -0.8255
  363MOL0     N48887   7.618   1.955   1.125 -0.3353  0.0827 -0.5991
  363MOL0     C48888   7.715   2.034   1.082  1.5500 -0.6126 -0.1267
  363MOL0     C48889   7.749   2.113   1.189  0.1246  0.1374  0.1055
  363MOL0     C48890   7.867   2.203   1.196  0.1868 -0.1261 -0.1822
  363MOL0     C48891   7.990   2.110   1.195  0.3010  0.0543  0.1878
  363MOL0     C48892   8.111   2.154   1.273  0.1133  0.6811 -0.0967
  363MOL0     C48893   8.092   2.116   1.423 -0.5959 -1.2409 -0.0114
  363MOL0     O48894   8.162   1.992   1.449 -0.8037 -0.0087 -0.3655
  363MOL0     C48895   8.303   1.994   1.464 -0.6578 -0.0010  0.3064
  363MOL0     C48896   8.364   1.884   1.503  0.1818 -0.1421 -0.2530
  363MOL0     C48897   8.505   1.878   1.525  0.3584  0.6837  0.3959
  363MOL0     C48898   8.584   1.995   1.492 -0.6206  0.2688 -0.5308
  363MOL0     C48899   8.728   2.002   1.497 -0.1493  0.8606  0.3544
  363MOL0     O48900   8.794   2.117   1.463 -0.5234 -0.5992 -0.5741
  363MOL0     C48901   8.927   2.115   1.463 -0.1510 -0.0385 -0.1763
  363MOL0     C48902   9.003   2.145   1.569  0.4038  0.3723  0.5144
  363MOL0     C48903   9.142   2.131   1.558 -1.0191  0.1306  0.1695
  363MOL0     C48904   9.204   2.085   1.441 -0.2076  1.1917 -0.5685
  363MOL0     O48905   9.339   2.059   1.429  0.4242  0.3892 -0.0055
  363MOL0     C48906   9.428   2.078   1.539 -0.2775  0.1541  0.3959
  363MOL0     C48907   9.568   2.053   1.496 -0.2380  0.5647  0.4637
  363MOL0     C48908   9.664   2.117   1.601  0.6848 -0.0156  0.0210
  363MOL0     C48909   9.811   2.073   1.573  0.6073 -0.2282  0.3416
  363MOL0     C48910   9.898   2.146   1.677 -0.1731 -0.0295  0.2554
  363MOL0     C48911  10.032   2.079   1.691 -0.8006  1.1357  0.7229
  363MOL0     C48912  10.115   2.148   1.800 -0.7460  0.4694  0.2379
  363MOL0     C48913  10.263   2.090   1.792  0.1945 -0.3657 -0.7244
  363MOL0    Cl48914  10.377   2.177   1.685  0.5482 -0.1979  0.2423
  363MOL0     C48915   9.128   2.058   1.332  0.5327  0.9752 -0.4642
  363MOL0     C48916   8.988   2.065   1.343 -0.3390  0.4787 -0.4075
  363MOL0     O48917   8.781   1.891   1.506 -0.0642 -0.3343  0.5754
  363MOL0     C48918   8.514   2.113   1.453 -0.1288  0.8585  0.3409
  363MOL0     C48919   8.377   2.112   1.434 -0.0515 -0.1050  0.6465
  363MOL0     N48920   7.667   2.072   1.291 -0.1487  0.1000 -0.2223
  363MOL0     N48921   7.588   1.977   1.250 -0.2237 -0.4027  0.8694
  363MOL0     C48922   6.671   2.263   0.829 -0.7988 -0.0655 -0.0135
  363MOL0     C48923   6.537   2.272   0.862 -0.7436 -0.4061  0.8325
  363MOL0     C48924   6.120   2.271   0.955  0.3575 -0.0003  0.0773
  363MOL0     C48925   6.072   2.150   0.906 -0.3639  0.3067  0.1355
  363MOL0     C48926   5.946   2.101   0.951 -0.8300 -0.4907 -0.4939
  363MOL0     C48927   5.866   2.163   1.041  0.1299 -1.0918 -0.3084
  363MOL0     O48928   5.741   2.119   1.087 -0.1296 -0.4347 -0.1959
  363MOL0     C48929   5.679   1.996   1.047  0.2096  0.0222  0.6234
  363MOL0     C48930   5.547   1.970   1.118 -0.9010 -0.6598 -0.1328
  363MOL0     C48931   5.577   1.962   1.265  0.7015 -0.0489  0.0011
  363MOL0     C48932   5.451   1.925   1.343 -0.4761  0.7490  0.0304
  363MOL0     C48933   5.411   1.792   1.307 -0.1418 -0.3876  0.3892
  363MOL0     C48934   5.376   1.689   1.259 -0.2498 -0.4271  0.4053
  363MOL0     C48935   5.915   2.280   1.089 -0.8314  0.5154  0.7422
  363MOL0     C48936   6.038   2.332   1.048 -0.0777 -0.3113 -0.3654
  363MOL0     C48937   6.073   2.466   1.113  0.2750 -0.2070  0.0781
  363MOL0     H48938   6.429   2.183   0.551 -0.1497 -1.3291  0.9060
  363MOL0     H48939   6.644   2.180   0.508  0.8039 -1.7609  0.2962
  363MOL0     H48940   6.828   2.086   0.553 -0.8804  1.2688 -0.1309
  363MOL0     H48941   6.983   2.184   0.533 -0.1119  0.1090 -0.1478
  363MOL0     H48942   7.031   1.970   0.626  0.2145  0.9867 -0.6551
  363MOL0     H48943   6.918   1.984   0.752 -1.2608  2.7870  1.1447
  363MOL0     H48944   7.036   2.162   0.866  0.3229 -2.3218  2.0788
  363MOL0     H48945   7.148   2.169   0.725  0.7369 -1.7867 -0.7649
  363MOL0     H48946   7.097   1.920   0.898  0.1364 -0.8286  0.1537
  363MOL0     H48947   7.225   1.935   0.783 -0.0193 -1.7258  1.1221
  363MOL0     H48948   7.324   2.120   0.931 -0.9135 -0.1463 -1.1805
  363MOL0     H48949   7.189   2.102   1.039 -0.1882  0.7684 -0.2958
  363MOL0     H48950   7.341   1.970   1.140 -1.3847 -2.6370  1.2601
  363MOL0     H48951   7.241   1.858   1.055 -1.4001  0.5596 -2.3793
  363MOL0     H48952   7.495   1.956   0.903 -0.5194  1.2339  0.8572
  363MOL0     H48953   7.409   1.802   0.892 -0.8372 -0.5917  1.1290
  363MOL0     H48954   7.520   1.765   1.118 -2.0288  0.7093 -0.5740
  363MOL0     H48955   7.641   1.796   0.983 -0.4254  0.2280 -1.9699
  363MOL0     H48956   7.770   2.036   0.988  0.1891  0.8572 -0.9441
  363MOL0     H48957   7.871   2.268   1.109 -2.8849 -3.6456 -3.3293
  363MOL0     H48958   7.879   2.263   1.287  1.0099  0.0415 -0.3969
  363MOL0     H48959   7.955   2.016   1.238 -0.4606 -1.7465 -3.8713
  363MOL0     H48960   8.007   2.084   1.090 -2.5313 -1.2675 -0.0496
  363MOL0     H48961   8.145   2.257   1.258  2.3629  0.2097  1.3586
  363MOL0     H48962   8.195   2.103   1.226  0.4283  0.1299  1.0224
  363MOL0     H48963   7.984   2.104   1.434 -0.8063  0.7859  0.6856
  363MOL0     H48964   8.115   2.198   1.492 -2.2734  0.1167 -0.9707
  363MOL0     H48965   8.307   1.796   1.532 -0.7915  1.0948  1.7846
  363MOL0     H48966   8.547   1.779   1.541  0.2687  0.2004 -2.0212
  363MOL0     H48967   8.951   2.183   1.656  1.3446 -0.4275  1.4440
  363MOL0     H48968   9.198   2.152   1.648  0.0686 -1.3890 -0.1062
  363MOL0     H48969   9.417   2.183   1.567  0.1240 -0.1436  1.7507
  363MOL0     H48970   9.409   2.030   1.635  1.5122  1.2049  1.3266
  363MOL0     H48971   9.584   1.945   1.507 -2.3411  0.1462 -0.0349
  363MOL0     H48972   9.590   2.107   1.404 -0.5592  2.7913  1.6232
  363MOL0     H48973   9.658   2.227   1.600  0.8025 -0.0024  0.4873
  363MOL0     H48974   9.645   2.099   1.707 -0.4949 -0.2700 -0.2116
  363MOL0     H48975   9.834   2.095   1.468 -2.9982  0.5231 -0.4263
  363MOL0     H48976   9.813   1.964   1.586 -6.4804 -0.5689  2.2360
  363MOL0     H48977   9.847   2.142   1.774  2.6835  2.8802  2.0891
  363MOL0     H48978   9.921   2.250   1.655  2.3545 -0.0888  2.1390
  363MOL0     H48979  10.011   1.978   1.727 -4.5108  0.5938 -2.3456
  363MOL0     H48980  10.074   2.083   1.589 -0.5881 -0.2301  0.7386
  363MOL0     H48981  10.072   2.120   1.897 -0.0151 -1.0677  0.1572
  363MOL0     H48982  10.120   2.256   1.788  0.2368  0.3496 -0.5205
  363MOL0     H48983  10.316   2.082   1.887 -1.1434  1.9703  0.2942
  363MOL0     H48984  10.255   1.984   1.767 -0.2152 -0.3015 -0.8671
  363MOL0     H48985   9.177   2.012   1.246 -0.2207  0.6353 -0.7134
  363MOL0     H48986   8.921   2.026   1.266  0.7777 -1.0269 -0.6826
  363MOL0     H48987   8.564   2.209   1.442  1.7518 -0.0047  0.9614
  363MOL0     H48988   8.331   2.206   1.404  2.2403  0.9487  0.1561
  363MOL0     H48989   6.755   2.281   0.895  0.3135  0.2454 -1.4526
  363MOL0     H48990   6.515   2.287   0.967  0.7995 -1.5494  1.3763
  363MOL0     H48991   6.129   2.089   0.837 -1.8138  0.7587 -1.5475
  363MOL0     H48992   5.919   2.005   0.910 -0.1751  0.7157 -4.0574
  363MOL0     H48993   5.747   1.915   1.074  0.1548 -0.1659  0.1990
  363MOL0     H48994   5.661   1.993   0.940 -3.9140  2.8560  1.0077
  363MOL0     H48995   5.512   1.875   1.076 -0.1505 -0.4755 -1.1885
  363MOL0     H48996   5.470   2.043   1.092 -1.9017 -2.2358 -1.8501
  363MOL0     H48997   5.620   2.058   1.294 -2.9012  1.8982 -0.5534
  363MOL0     H48998   5.643   1.875   1.267 -3.4326 -3.5605 -1.5998
  363MOL0     H48999   5.460   1.929   1.452 -0.7801 -2.9903  0.3308
  363MOL0     H49000   5.364   1.983   1.311 -2.7966 -1.2145  2.3018
  363MOL0     H49001   5.377   1.587   1.226  0.2198 -0.2878 -0.0212
  363MOL0     H49002   5.841   2.336   1.146 -4.5148 -0.7936 -2.3339
  363MOL0     H49003   6.152   2.457   1.189 -0.6619  1.3203  1.2847
  363MOL0     H49004   6.094   2.537   1.032 -0.2638 -0.1767 -0.0364
  363MOL0     H49005   5.984   2.507   1.161  1.2852  2.1219  0.0894
  364MOL0     O49006  11.182   6.952   0.339 -0.7979  0.0737  0.6558
  364MOL0     C49007  11.134   7.054   0.281 -0.2060  1.0204 -0.1222
  364MOL0     O49008  11.203   7.164   0.245 -0.4399 -0.5479 -0.2465
  364MOL0     C49009  11.343   7.178   0.247  1.3632  0.3731  0.1965
  364MOL0     C49010  11.400   7.273   0.328 -0.9529 -0.8308  0.4737
  364MOL0     C49011  11.542   7.277   0.339  0.8143  0.1973  0.1912
  364MOL0     C49012  11.620   7.184   0.277 -0.5271 -0.4342  0.5578
  364MOL0     O49013  11.753   7.174   0.306  0.7948  0.1236  0.4967
  364MOL0     C49014  11.841   7.132   0.194 -0.1185 -1.2994 -0.2301
  364MOL0     C49015  11.989   7.138   0.248  0.2043  0.2426  0.1437
  364MOL0     C49016  12.098   7.134   0.148 -0.1088  0.7490  0.3814
  364MOL0     C49017  12.234   7.180   0.227  0.4027  0.3372  0.3841
  364MOL0     C49018  12.371   7.153   0.151 -0.8028 -0.2356  0.1825
  364MOL0     C49019  12.499   7.219   0.201  0.4536 -0.0847 -1.2373
  364MOL0     C49020  12.625   7.186   0.110  0.0906 -0.3628 -0.3791
  364MOL0     C49021  12.673   7.040   0.132 -0.5559  0.4201  0.2532
  364MOL0     N49022  12.816   7.031   0.083 -0.2826 -1.1756 -0.0090
  364MOL0     C49023  12.851   6.950  -0.019 -0.1488  0.8433  0.8186
  364MOL0     C49024  12.990   6.957  -0.030  0.8401  0.8472 -0.2844
  364MOL0     C49025  13.072   6.895  -0.144  0.3058 -0.0033  0.0177
  364MOL0     C49026  13.198   6.813  -0.099 -0.0407  0.4077  0.6778
  364MOL0     C49027  13.304   6.907  -0.059 -0.7382 -0.5979 -0.1220
  364MOL0     C49028  13.444   6.841  -0.045  0.4964 -0.8059  0.0887
  364MOL0     O49029  13.449   6.735   0.053 -0.1732 -0.5618  0.4540
  364MOL0     C49030  13.556   6.654   0.058  0.0435  0.2978  0.1114
  364MOL0     C49031  13.546   6.544   0.152  0.5807  0.0254 -0.2307
  364MOL0     C49032  13.652   6.452   0.162  0.2358 -0.3175 -0.6034
  364MOL0     C49033  13.767   6.475   0.095  0.1436 -1.1654 -0.3784
  364MOL0     C49034  13.886   6.390   0.110  0.3488  0.2570  0.1894
  364MOL0     O49035  14.005   6.439   0.059 -0.0032 -0.1322 -0.2849
  364MOL0     C49036  14.105   6.360   0.078 -0.1413 -0.1262 -0.2642
  364MOL0     C49037  14.146   6.287  -0.036  0.8861  0.3454  0.1826
  364MOL0     C49038  14.270   6.223  -0.048  1.0784  0.2051  0.0541
  364MOL0     C49039  14.357   6.243   0.052  0.9115  0.2153 -0.1900
  364MOL0     O49040  14.485   6.186   0.057  0.0745  0.0960  0.0798
  364MOL0     C49041  14.527   6.101  -0.046 -0.2465 -0.1429  0.9079
  364MOL0     C49042  14.671   6.041  -0.020  0.2021 -0.3587  0.8028
  364MOL0     C49043  14.781   6.133   0.007 -0.1467 -0.5269 -1.0710
  364MOL0     C49044  14.910   6.079   0.068 -0.4979 -0.1247  0.7259
  364MOL0     C49045  14.994   6.205   0.087  0.3051 -0.2929  0.4340
  364MOL0     C49046  15.134   6.183   0.133 -0.2300 -0.2837  0.0480
  364MOL0     C49047  15.222   6.309   0.135  1.0171  0.3077 -0.3798
  364MOL0     C49048  15.363   6.275   0.184  0.1441  0.0878 -0.1742
  364MOL0    Cl49049  15.356   6.250   0.356  0.3544  0.0760 -0.2661
  364MOL0     C49050  14.319   6.316   0.167  0.3656 -0.0143 -0.3713
  364MOL0     C49051  14.192   6.367   0.187  0.6251  0.3400 -0.5525
  364MOL0     O49052  13.865   6.274   0.160  0.2010 -0.0608 -0.1571
  364MOL0     C49053  13.782   6.588   0.015 -0.5354 -0.4264  0.4503
  364MOL0     C49054  13.674   6.678  -0.001 -0.8167  0.3938  0.1226
  364MOL0     N49055  13.027   7.049   0.059 -0.1477 -0.2375 -0.4767
  364MOL0     N49056  12.924   7.098   0.126 -0.2107 -0.4467  0.3870
  364MOL0     C49057  11.564   7.091   0.189 -0.4351 -0.1004 -0.0690
  364MOL0     C49058  11.422   7.094   0.172  0.1690  0.3037  0.4003
  364MOL0     C49059  10.992   7.048   0.239  0.5231 -0.4499  0.4537
  364MOL0     C49060  10.922   7.164   0.217 -0.5538  0.5008 -0.6372
  364MOL0     C49061  10.790   7.164   0.184  0.1602  0.1427  0.4763
  364MOL0     C49062  10.714   7.050   0.172  0.3991  0.1194 -0.4261
  364MOL0     O49063  10.577   7.064   0.151 -0.0197 -0.4901  0.6698
  364MOL0     C49064  10.495   6.942   0.111 -0.2336  0.3081 -0.7496
  364MOL0     C49065  10.490   6.915  -0.043 -0.1676  0.2952 -0.3887
  364MOL0     C49066  10.629   6.875  -0.097  0.5445 -0.7119  0.3722
  364MOL0     C49067  10.615   6.834  -0.243  0.0518  0.2572 -0.3746
  364MOL0     C49068  10.742   6.767  -0.288  0.2976  0.4534  0.5827
  364MOL0     C49069  10.840   6.707  -0.334  0.3741 -0.4821  1.1034
  364MOL0     C49070  10.785   6.925   0.185 -0.8951 -0.3182 -0.3306
  364MOL0     C49071  10.926   6.928   0.210  0.4276  0.4782 -0.1737
  364MOL0     C49072  10.989   6.791   0.204  0.7331  0.7212 -0.0331
  364MOL0     H49073  11.333   7.339   0.384  0.1842  0.0237  0.8813
  364MOL0     H49074  11.589   7.362   0.388 -0.9526  2.1001 -1.2267
  364MOL0     H49075  11.817   7.032   0.157 -1.9727 -1.9330  2.3929
  364MOL0     H49076  11.836   7.201   0.110  0.3987 -0.2755  0.5524
  364MOL0     H49077  12.005   7.051   0.312 -1.2172 -0.4066 -0.3717
  364MOL0     H49078  12.002   7.229   0.309  2.7761  1.0094 -1.3744
  364MOL0     H49079  12.083   7.204   0.065 -2.7033  0.5205  0.6017
  364MOL0     H49080  12.119   7.032   0.116 -0.9655  0.4219  0.8528
  364MOL0     H49081  12.236   7.290   0.229  0.6908  0.3859 -1.2584
  364MOL0     H49082  12.243   7.139   0.328  2.1255  0.8621  0.4764
  364MOL0     H49083  12.387   7.045   0.162  0.0957 -0.0386  0.8545
  364MOL0     H49084  12.362   7.161   0.042 -2.7711 -1.1427  0.2272
  364MOL0     H49085  12.478   7.326   0.191  3.2241  0.6027 -0.7400
  364MOL0     H49086  12.534   7.204   0.303  0.1537 -0.6140 -1.2070
  364MOL0     H49087  12.702   7.261   0.130 -0.1912 -0.1072 -0.2493
  364MOL0     H49088  12.601   7.212   0.007  0.6518 -1.0220 -0.6816
  364MOL0     H49089  12.689   7.015   0.237  1.8328  0.1955 -0.1074
  364MOL0     H49090  12.604   6.971   0.083 -0.3533  2.1621 -2.7679
  364MOL0     H49091  12.779   6.897  -0.080  1.5952  0.2667 -0.8251
  364MOL0     H49092  13.016   6.839  -0.219  4.2025 -1.0588 -2.3775
  364MOL0     H49093  13.102   6.983  -0.202 -0.0643 -0.6151 -1.1377
  364MOL0     H49094  13.181   6.747  -0.013  2.1316 -0.6395  0.3639
  364MOL0     H49095  13.226   6.749  -0.183  1.0803  0.9869  0.6036
  364MOL0     H49096  13.281   6.956   0.036  2.4581  1.3662 -0.2366
  364MOL0     H49097  13.305   6.986  -0.134 -0.9739  0.7474  1.2322
  364MOL0     H49098  13.509   6.915   0.001  0.8295 -1.5249  0.8003
  364MOL0     H49099  13.475   6.804  -0.144 -0.7251 -0.3662 -0.4723
  364MOL0     H49100  13.456   6.515   0.206  0.5387 -1.9720 -1.2871
  364MOL0     H49101  13.646   6.369   0.231 -1.7498  1.1704  1.1335
  364MOL0     H49102  14.079   6.284  -0.121  2.4297  1.1523 -1.1308
  364MOL0     H49103  14.283   6.163  -0.138 -1.0570  0.7496 -0.6766
  364MOL0     H49104  14.472   6.007  -0.057  0.5840 -0.4480 -1.0537
  364MOL0     H49105  14.529   6.155  -0.142  2.4095 -0.3923  0.7434
  364MOL0     H49106  14.652   5.980   0.069 -0.2249  0.8455  1.5567
  364MOL0     H49107  14.697   5.978  -0.106 -0.0042 -0.4669  0.8189
  364MOL0     H49108  14.801   6.176  -0.092 -2.5479 -1.9425 -2.2641
  364MOL0     H49109  14.741   6.208   0.076 -1.4103 -1.4638 -0.7506
  364MOL0     H49110  14.955   6.011  -0.004 -0.3685  1.4127 -0.7175
  364MOL0     H49111  14.897   6.029   0.164  3.3574 -1.6065  0.6530
  364MOL0     H49112  14.944   6.262   0.166  1.4755  1.7878 -0.2706
  364MOL0     H49113  14.994   6.278   0.006  1.7913 -1.5703 -0.7892
  364MOL0     H49114  15.123   6.142   0.234 -0.3618 -0.1456  0.0910
  364MOL0     H49115  15.179   6.111   0.064 -0.8413 -0.6055 -0.0247
  364MOL0     H49116  15.187   6.391   0.199  1.1251  0.5797 -0.6721
  364MOL0     H49117  15.230   6.349   0.034 -2.1269  0.1918 -0.7683
  364MOL0     H49118  15.396   6.181   0.139  0.4640  1.2909 -2.5804
  364MOL0     H49119  15.430   6.358   0.160 -0.8528  0.4897 -1.6767
  364MOL0     H49120  14.381   6.325   0.255  1.4118  1.3013 -1.2036
  364MOL0     H49121  14.164   6.423   0.275  0.0501 -2.2863  1.0180
  364MOL0     H49122  13.875   6.622  -0.031 -1.8893  1.0219 -1.4010
  364MOL0     H49123  13.686   6.761  -0.070 -0.4597 -0.0490 -0.3589
  364MOL0     H49124  11.635   7.020   0.147  2.1845  1.6623  1.0726
  364MOL0     H49125  11.375   7.028   0.099  1.1184 -1.3840  1.2548
  364MOL0     H49126  10.965   7.262   0.234  0.5041  0.0331 -0.5200
  364MOL0     H49127  10.737   7.258   0.177 -3.1376 -1.4607  1.8686
  364MOL0     H49128  10.388   6.960   0.129 -0.9900 -1.0039 -3.4269
  364MOL0     H49129  10.526   6.853   0.166  0.4710 -0.6899 -2.7068
  364MOL0     H49130  10.461   7.011  -0.087 -0.2022  1.6861  2.4055
  364MOL0     H49131  10.408   6.851  -0.074  0.2139 -0.9427  1.0292
  364MOL0     H49132  10.674   6.799  -0.033  2.5637 -0.1225 -0.2897
  364MOL0     H49133  10.689   6.966  -0.106  2.1036 -1.9138 -4.0589
  364MOL0     H49134  10.522   6.780  -0.262  0.0023  0.4033 -0.5487
  364MOL0     H49135  10.603   6.925  -0.304  0.0483 -0.1420 -0.9745
  364MOL0     H49136  10.922   6.656  -0.379 -0.5356 -0.5824 -0.5221
  364MOL0     H49137  10.725   6.834   0.191 -1.4710 -0.0451 -1.6096
  364MOL0     H49138  10.965   6.744   0.109  1.1971  3.4552 -1.6104
  364MOL0     H49139  11.098   6.790   0.199  0.7261 -1.3429 -0.6149
  364MOL0     H49140  10.944   6.733   0.285 -0.6242 -0.3068 -1.4747
  365MOL0     O49141   0.360   7.722   6.154 -0.1968 -0.0215  0.6272
  365MOL0     C49142   0.423   7.666   6.238 -0.5223  0.5187 -0.2257
  365MOL0     O49143   0.392   7.662   6.372  0.3309 -0.6213  0.0863
  365MOL0     C49144   0.280   7.731   6.408  0.5448 -0.4355  0.4014
  365MOL0     C49145   0.279   7.873   6.390  0.5971  0.7507 -0.7489
  365MOL0     C49146   0.160   7.950   6.406  0.2466  0.9414 -0.0285
  365MOL0     C49147   0.050   7.887   6.468 -0.3229 -0.0523  0.1394
  365MOL0     O49148  -0.053   7.969   6.496  0.8751 -0.3862 -0.2462
  365MOL0     C49149  -0.166   7.907   6.566  0.7792  0.4010 -0.2373
  365MOL0     C49150  -0.271   8.012   6.598  0.6481  0.1161 -0.0874
  365MOL0     C49151  -0.394   7.943   6.657 -0.3443 -0.0169 -0.5323
  365MOL0     C49152  -0.498   8.051   6.689  0.7853  0.4181 -0.7552
  365MOL0     C49153  -0.648   8.003   6.664  0.5726 -0.0269 -0.3630
  365MOL0     C49154  -0.749   8.114   6.707 -0.0627 -0.1415 -0.0396
  365MOL0     C49155  -0.891   8.091   6.637 -0.3202 -0.7844  0.2517
  365MOL0     C49156  -0.960   8.233   6.649  0.2432 -0.2595 -0.4108
  365MOL0     N49157  -1.099   8.235   6.598 -0.3996 -0.5097  0.1934
  365MOL0     C49158  -1.205   8.286   6.660  0.0587 -0.5780  0.0429
  365MOL0     C49159  -1.308   8.289   6.568  0.1307 -0.2371 -0.2002
  365MOL0     C49160  -1.441   8.340   6.588  0.6163  0.6656 -0.2149
  365MOL0     C49161  -1.464   8.463   6.499 -0.3361 -0.5931 -0.8243
  365MOL0     C49162  -1.364   8.577   6.546  0.2619 -0.5325  0.7394
  365MOL0     C49163  -1.387   8.717   6.482  0.8062  0.1075 -0.0336
  365MOL0     O49164  -1.513   8.780   6.534 -0.1074  0.6143 -0.0890
  365MOL0     C49165  -1.546   8.902   6.477  0.5800 -1.3789  0.1329
  365MOL0     C49166  -1.465   8.967   6.379 -0.6295 -0.5923  0.6548
  365MOL0     C49167  -1.488   9.098   6.329 -0.0040  0.3940  0.3670
  365MOL0     C49168  -1.600   9.168   6.378  0.1568 -0.6602 -0.2948
  365MOL0     C49169  -1.640   9.302   6.320  0.7773  0.4136 -0.4869
  365MOL0     O49170  -1.592   9.331   6.194 -0.9150  0.5517 -0.0085
  365MOL0     C49171  -1.610   9.445   6.120  0.0460 -0.8208 -0.2632
  365MOL0     C49172  -1.727   9.527   6.126  0.1386  0.8788  0.0578
  365MOL0     C49173  -1.742   9.643   6.050  0.3239 -0.4339  0.0476
  365MOL0     C49174  -1.634   9.680   5.971 -0.6865  0.2838  0.0798
  365MOL0     O49175  -1.634   9.797   5.892  0.3874 -0.0197 -0.1482
  365MOL0     C49176  -1.536   9.895   5.922  0.1319 -0.3799 -0.6616
  365MOL0     C49177  -1.472   9.940   5.797 -0.7298  0.1028  0.0235
  365MOL0     C49178  -1.550  10.050   5.718 -0.0867  0.2420 -0.0827
  365MOL0     C49179  -1.461  10.160   5.659 -0.5897  0.0992  0.4191
  365MOL0     C49180  -1.530  10.255   5.566  0.4073 -0.2693 -0.3212
  365MOL0     C49181  -1.438  10.306   5.460  0.2151 -0.6410  0.1363
  365MOL0     C49182  -1.517  10.424   5.386 -0.1178  0.2922 -0.0283
  365MOL0     C49183  -1.494  10.549   5.469  0.0486 -0.3226  1.2483
  365MOL0    Cl49184  -1.322  10.586   5.479 -0.1853 -0.1346 -0.2305
  365MOL0     C49185  -1.521   9.607   5.970  0.4052  0.1166 -0.5764
  365MOL0     C49186  -1.509   9.492   6.046 -0.1967  0.5791  0.7683
  365MOL0     O49187  -1.717   9.369   6.384  0.6664  0.2565 -0.0114
  365MOL0     C49188  -1.676   9.108   6.484  0.6247  0.2522 -0.3612
  365MOL0     C49189  -1.653   8.977   6.524 -0.5094 -0.6640 -0.8842
  365MOL0     N49190  -1.250   8.240   6.447  0.6309 -0.4742 -0.2447
  365MOL0     N49191  -1.127   8.211   6.471  0.4296 -0.1290  0.4577
  365MOL0     C49192   0.057   7.750   6.510 -0.0157  0.3407 -0.0588
  365MOL0     C49193   0.173   7.669   6.473  0.2495  0.0298 -0.0530
  365MOL0     C49194   0.547   7.597   6.197 -0.3937 -1.0898 -0.1334
  365MOL0     C49195   0.644   7.674   6.128 -0.2210  0.4563 -0.4023
  365MOL0     C49196   0.777   7.629   6.121  0.4713 -0.4343  0.9359
  365MOL0     C49197   0.813   7.505   6.175  0.3979  0.1508 -0.2875
  365MOL0     O49198   0.941   7.448   6.176  0.2188 -0.1006 -0.7348
  365MOL0     C49199   1.049   7.522   6.137 -0.8067  0.0921  0.0544
  365MOL0     C49200   1.179   7.459   6.200 -0.2614  0.3357 -0.8708
  365MOL0     C49201   1.182   7.312   6.180 -0.0182  0.0308  0.3852
  365MOL0     C49202   1.176   7.262   6.036  0.2370  0.3476 -0.8224
  365MOL0     C49203   1.229   7.125   6.031 -0.2578 -0.5678 -0.1955
  365MOL0     C49204   1.279   7.016   6.022 -0.1703  0.8117 -0.7174
  365MOL0     C49205   0.715   7.428   6.241 -0.0237 -0.5713 -0.0765
  365MOL0     C49206   0.584   7.473   6.261 -0.4098  0.3012  1.3169
  365MOL0     C49207   0.490   7.383   6.331 -0.8627 -0.3777 -0.4307
  365MOL0     H49208   0.372   7.919   6.360  1.9905 -1.3876  0.0694
  365MOL0     H49209   0.154   8.057   6.392  2.6844  1.4518  1.9813
  365MOL0     H49210  -0.212   7.836   6.497 -0.3695  1.1618 -0.2809
  365MOL0     H49211  -0.127   7.858   6.656  1.7283 -1.3152 -1.5395
  365MOL0     H49212  -0.296   8.082   6.518  0.1295 -1.8653 -1.7455
  365MOL0     H49213  -0.231   8.082   6.672 -0.9836 -0.8067  1.7615
  365MOL0     H49214  -0.373   7.897   6.754 -0.7790  1.3874  0.2479
  365MOL0     H49215  -0.429   7.864   6.589  0.0562 -0.8646  0.2249
  365MOL0     H49216  -0.486   8.082   6.794 -1.3765 -3.7855  0.9784
  365MOL0     H49217  -0.487   8.140   6.626 -3.4507  2.2008  0.6473
  365MOL0     H49218  -0.658   7.973   6.560  0.3961  2.5763 -1.1776
  365MOL0     H49219  -0.655   7.908   6.717  0.0420 -1.9984 -3.7228
  365MOL0     H49220  -0.753   8.116   6.816  1.7044 -2.6928  0.1369
  365MOL0     H49221  -0.713   8.211   6.672 -0.4802 -0.1849 -0.5994
  365MOL0     H49222  -0.945   8.016   6.695 -2.7804  2.4100  2.4157
  365MOL0     H49223  -0.881   8.070   6.530  0.0468  1.9238 -0.3355
  365MOL0     H49224  -0.966   8.265   6.754 -0.2126 -0.6674 -0.3099
  365MOL0     H49225  -0.905   8.311   6.596 -1.9548  0.4180 -1.8110
  365MOL0     H49226  -1.215   8.323   6.761  0.3958  0.2705 -0.2220
  365MOL0     H49227  -1.525   8.271   6.577 -2.1989  3.1140  3.3158
  365MOL0     H49228  -1.441   8.368   6.694  0.6922 -0.1395  0.0024
  365MOL0     H49229  -1.453   8.453   6.391  3.8103  2.4047 -0.9015
  365MOL0     H49230  -1.565   8.497   6.525  0.4142  1.7015 -0.7080
  365MOL0     H49231  -1.260   8.544   6.536 -0.4009 -3.4639  2.2708
  365MOL0     H49232  -1.369   8.591   6.654  3.2416 -3.8520  1.5182
  365MOL0     H49233  -1.383   8.696   6.375  1.0693  1.4853 -0.3074
  365MOL0     H49234  -1.301   8.781   6.504  0.6036  0.2539  0.3475
  365MOL0     H49235  -1.382   8.918   6.329 -0.2067  0.5288  0.2130
  365MOL0     H49236  -1.432   9.126   6.241  0.5736 -1.8754 -0.0624
  365MOL0     H49237  -1.813   9.499   6.186  0.6613 -2.0230 -0.3857
  365MOL0     H49238  -1.826   9.712   6.057 -0.3238 -1.1668 -0.3568
  365MOL0     H49239  -1.576   9.981   5.977  0.2886 -1.1017  0.6378
  365MOL0     H49240  -1.466   9.846   5.991 -0.4214 -1.3217 -0.7551
  365MOL0     H49241  -1.371   9.976   5.821  0.3792 -3.7825  1.9829
  365MOL0     H49242  -1.454   9.853   5.734  0.7869  0.5116 -0.1643
  365MOL0     H49243  -1.623  10.003   5.652 -0.3174 -0.0246  0.3513
  365MOL0     H49244  -1.621  10.102   5.783  0.0317  0.5744 -0.2221
  365MOL0     H49245  -1.389  10.098   5.606 -1.1882  2.3320 -3.3615
  365MOL0     H49246  -1.404  10.218   5.732 -0.8704 -1.7424  2.1905
  365MOL0     H49247  -1.579  10.335   5.621 -1.1074 -0.5441 -1.1994
  365MOL0     H49248  -1.611  10.200   5.516  2.7905 -2.0591 -2.5254
  365MOL0     H49249  -1.338  10.339   5.491 -0.5056  0.8578  0.9804
  365MOL0     H49250  -1.426  10.223   5.390  0.8232  1.0884 -1.9115
  365MOL0     H49251  -1.620  10.394   5.368 -0.5543  1.0886  1.0351
  365MOL0     H49252  -1.466  10.441   5.291 -0.7253 -1.2612 -0.6659
  365MOL0     H49253  -1.543  10.628   5.411  3.1629 -0.3891 -1.8380
  365MOL0     H49254  -1.536  10.546   5.570  0.9748 -1.8865  1.6093
  365MOL0     H49255  -1.446   9.632   5.896  0.5044  0.9823 -0.1992
  365MOL0     H49256  -1.422   9.428   6.037  0.9785  1.5038  4.2127
  365MOL0     H49257  -1.768   9.159   6.512  0.8139  2.0181 -2.5878
  365MOL0     H49258  -1.717   8.935   6.602  0.6685  0.1979  0.6095
  365MOL0     H49259  -0.020   7.695   6.563 -2.1483  0.9505 -2.3449
  365MOL0     H49260   0.179   7.562   6.490 -2.7800 -0.0929  0.9508
  365MOL0     H49261   0.606   7.762   6.078 -0.7823  0.8643  0.7048
  365MOL0     H49262   0.857   7.688   6.078  0.6844 -1.9654 -0.8654
  365MOL0     H49263   1.046   7.622   6.182  6.5111  2.2021 -2.6604
  365MOL0     H49264   1.045   7.535   6.029 -0.3520  2.7529  0.2687
  365MOL0     H49265   1.182   7.470   6.309 -1.0811 -1.8673 -0.5798
  365MOL0     H49266   1.273   7.508   6.173 -1.5516  3.7320  0.2328
  365MOL0     H49267   1.107   7.266   6.245  0.4997 -1.9171 -0.3254
  365MOL0     H49268   1.278   7.284   6.225 -0.0749  1.5191  1.5143
  365MOL0     H49269   1.070   7.264   6.009  0.1770  1.2105 -0.5704
  365MOL0     H49270   1.238   7.332   5.978  1.3720 -0.8283 -1.0744
  365MOL0     H49271   1.304   6.912   6.018 -0.3093  0.6834  0.9687
  365MOL0     H49272   0.756   7.340   6.288  0.0872  0.5331  1.9844
  365MOL0     H49273   0.393   7.397   6.283  0.1381  0.4656 -2.2894
  365MOL0     H49274   0.517   7.278   6.323  0.1069 -0.0748 -1.3448
  365MOL0     H49275   0.491   7.411   6.437  0.6165  0.6807 -0.6986
  366MOL0     O49276   8.721   1.351  10.331  1.3248  0.4517 -1.3924
  366MOL0     C49277   8.673   1.360  10.215 -1.1809 -0.2322 -0.2565
  366MOL0     O49278   8.746   1.363  10.107  0.2129 -0.2459 -0.0600
  366MOL0     C49279   8.880   1.343  10.107  0.4279 -0.2247  0.7343
  366MOL0     C49280   8.949   1.252  10.189 -0.4002 -0.3154 -0.0076
  366MOL0     C49281   9.090   1.247  10.194  0.7303 -0.5959  0.7756
  366MOL0     C49282   9.168   1.327  10.101  0.0928 -0.0291  0.0137
  366MOL0     O49283   9.300   1.325  10.091 -0.8283 -0.0570  0.2543
  366MOL0     C49284   9.363   1.303  10.208 -1.0962 -0.8955 -0.2291
  366MOL0     C49285   9.513   1.337  10.188  0.0493 -0.3087  0.3073
  366MOL0     C49286   9.595   1.245  10.106  0.5395  0.6037  0.6414
  366MOL0     C49287   9.745   1.264  10.126  0.2387 -0.8250  0.4229
  366MOL0     C49288   9.827   1.182  10.023 -0.4546  0.1045 -0.2348
  366MOL0     C49289   9.807   1.212   9.867 -0.2267 -0.9635 -0.2632
  366MOL0     C49290   9.937   1.190   9.797 -0.1457 -0.2535 -0.8232
  366MOL0     C49291   9.923   1.238   9.652 -0.3303 -0.5085 -0.3003
  366MOL0     N49292   9.878   1.119   9.577 -0.0253 -0.5926  1.1819
  366MOL0     C49293   9.961   1.011   9.545  0.7676  0.5768 -0.3070
  366MOL0     C49294   9.890   0.939   9.462 -0.1511  0.4836  0.3315
  366MOL0     C49295   9.932   0.813   9.393  0.1610 -0.4497  0.6784
  366MOL0     C49296  10.007   0.715   9.489  0.5151 -0.3188 -0.3015
  366MOL0     C49297   9.983   0.575   9.448  0.2310  0.1619  0.2217
  366MOL0     C49298  10.040   0.490   9.563  1.2030  0.0828  1.1652
  366MOL0     O49299  10.171   0.519   9.579  0.1866  0.5152  0.3856
  366MOL0     C49300  10.274   0.480   9.499  0.2378  0.3505  0.8710
  366MOL0     C49301  10.403   0.513   9.536 -1.0764  0.1611  0.2982
  366MOL0     C49302  10.516   0.481   9.460 -0.1641  0.5415 -0.3655
  366MOL0     C49303  10.511   0.408   9.341 -0.4007  0.3237  0.1082
  366MOL0     C49304  10.642   0.370   9.269 -0.2267 -0.2820  0.5186
  366MOL0     O49305  10.623   0.253   9.195 -0.7216  0.0714 -0.0469
  366MOL0     C49306  10.725   0.221   9.112 -0.4211  0.1854 -0.0435
  366MOL0     C49307  10.755   0.085   9.093  0.3966  0.0572  0.8128
  366MOL0     C49308  10.848   0.038   9.011 -0.3655  0.0487 -0.6576
  366MOL0     C49309  10.910   0.124   8.926 -0.6498 -0.3857  0.6241
  366MOL0     O49310  11.006   0.071   8.841  0.1192 -0.3102 -0.3366
  366MOL0     C49311  11.143   0.115   8.857  0.1672 -0.5216 -1.0528
  366MOL0     C49312  11.205   0.057   8.987 -0.3135  0.0571 -0.1724
  366MOL0     C49313  11.363   0.050   8.981 -1.1399  0.2021  0.6483
  366MOL0     C49314  11.436  -0.008   9.105 -0.8148 -0.1954  0.5438
  366MOL0     C49315  11.584  -0.016   9.073  0.4177 -0.5962  0.2733
  366MOL0     C49316  11.661  -0.065   9.189 -0.2570  0.3759 -0.8643
  366MOL0     C49317  11.813  -0.070   9.179  0.4854 -0.1795 -0.0687
  366MOL0     C49318  11.879  -0.060   9.315  0.1430  0.3710 -0.4201
  366MOL0    Cl49319  12.064  -0.064   9.296 -0.2685  0.2057 -0.1995
  366MOL0     C49320  10.895   0.268   8.944  0.4606  0.3481 -0.2814
  366MOL0     C49321  10.795   0.310   9.036  0.5972 -0.2329  0.3916
  366MOL0     O49322  10.741   0.445   9.276 -0.7244 -0.0032 -0.3118
  366MOL0     C49323  10.381   0.387   9.298 -0.0584 -0.0713 -0.0292
  366MOL0     C49324  10.265   0.417   9.371 -0.4744  0.4362  0.5442
  366MOL0     N49325   9.772   1.002   9.430  0.4603 -0.3564 -0.3416
  366MOL0     N49326   9.769   1.115   9.495 -0.3104  0.5610 -0.7034
  366MOL0     C49327   9.100   1.416  10.016  0.9367  0.2883  0.0600
  366MOL0     C49328   8.963   1.425  10.021  0.0482  0.0771  0.3786
  366MOL0     C49329   8.522   1.362  10.201  0.0624  0.4986  0.8212
  366MOL0     C49330   8.447   1.294  10.303 -0.1225 -0.6717 -0.4139
  366MOL0     C49331   8.311   1.296  10.290  0.6166 -0.2489 -0.2063
  366MOL0     C49332   8.246   1.369  10.186  0.4807 -0.3360  0.1829
  366MOL0     O49333   8.108   1.391  10.172 -0.2428 -1.0683 -0.3723
  366MOL0     C49334   8.018   1.359  10.280 -0.0284  0.0634  0.3195
  366MOL0     C49335   7.939   1.234  10.253 -0.3998 -0.2644  0.4421
  366MOL0     C49336   7.846   1.257  10.132  0.1183 -0.3726  0.1928
  366MOL0     C49337   7.711   1.178  10.139 -0.1277 -0.2080 -0.6986
  366MOL0     C49338   7.737   1.032  10.142 -0.1674  0.0932  0.3044
  366MOL0     C49339   7.757   0.909  10.140 -0.3109  0.5959  0.3564
  366MOL0     C49340   8.319   1.429  10.086  0.0869  0.1208 -0.3457
  366MOL0     C49341   8.458   1.434  10.093  0.2493  0.9442  0.3961
  366MOL0     C49342   8.524   1.527   9.997 -0.8325 -0.4034  0.4359
  366MOL0     H49343   8.897   1.181  10.252 -0.2249  1.7908  2.7391
  366MOL0     H49344   9.133   1.178  10.266  1.6527  0.8514  1.6700
  366MOL0     H49345   9.326   1.361  10.294  2.1950 -1.0139  1.4011
  366MOL0     H49346   9.351   1.200  10.241 -2.6516 -0.6098  0.2098
  366MOL0     H49347   9.567   1.339  10.284  0.2672 -0.8627  0.1961
  366MOL0     H49348   9.527   1.439  10.149 -3.3706  0.5743  1.0517
  366MOL0     H49349   9.562   1.263  10.003 -5.7238  0.5077  2.2616
  366MOL0     H49350   9.585   1.140  10.132  4.8284 -1.0345 -3.0289
  366MOL0     H49351   9.763   1.371  10.114  2.6001 -1.2815 -0.6610
  366MOL0     H49352   9.785   1.233  10.224  0.8613  0.5721  0.6270
  366MOL0     H49353   9.933   1.190  10.047 -0.0480 -2.6094 -0.8864
  366MOL0     H49354   9.803   1.077  10.037  0.0216  0.2483  1.9104
  366MOL0     H49355   9.726   1.148   9.833 -0.8253  0.5231 -1.7856
  366MOL0     H49356   9.783   1.318   9.852  1.2438 -0.8592 -2.2401
  366MOL0     H49357   9.963   1.084   9.800 -3.4162 -1.1647 -0.5513
  366MOL0     H49358  10.013   1.248   9.851 -0.1478 -2.0255  1.2105
  366MOL0     H49359   9.849   1.317   9.636 -0.2528 -0.3148  0.2761
  366MOL0     H49360  10.015   1.275   9.606  0.3812 -1.7166  0.1004
  366MOL0     H49361  10.059   0.988   9.586  0.2465 -5.1712 -1.4237
  366MOL0     H49362   9.850   0.754   9.350 -1.3845  1.4160  0.9459
  366MOL0     H49363  10.002   0.847   9.317  0.9961 -0.0796  1.5907
  366MOL0     H49364  10.111   0.745   9.506 -0.4309  2.4647  1.2663
  366MOL0     H49365   9.945   0.725   9.579 -0.1934  0.0614 -0.8260
  366MOL0     H49366  10.030   0.569   9.349  0.4035  0.7499  0.2643
  366MOL0     H49367   9.878   0.543   9.441  0.0838  0.1394  2.0799
  366MOL0     H49368  10.014   0.385   9.551  0.3260  0.2143  1.7521
  366MOL0     H49369   9.990   0.524   9.654 -0.0882 -0.0802  0.5463
  366MOL0     H49370  10.412   0.565   9.630 -0.4550  2.7515 -1.1035
  366MOL0     H49371  10.609   0.501   9.513 -0.1200  1.8274 -0.8860
  366MOL0     H49372  10.704   0.007   9.149  1.4501 -1.9018 -0.8199
  366MOL0     H49373  10.869  -0.068   8.999  1.4791  0.0997  1.4952
  366MOL0     H49374  11.209   0.097   8.771  0.2616  0.1925 -1.1352
  366MOL0     H49375  11.138   0.224   8.868 -2.5685 -0.7273  0.5335
  366MOL0     H49376  11.181   0.122   9.072 -1.2481 -0.5359  0.0291
  366MOL0     H49377  11.174  -0.046   9.009  3.5304 -0.8412  1.7354
  366MOL0     H49378  11.395  -0.003   8.891  2.4749  2.9808  0.0839
  366MOL0     H49379  11.395   0.151   8.954 -2.1795  0.1921 -0.7385
  366MOL0     H49380  11.418  -0.111   9.138  0.7450 -0.5602  0.3501
  366MOL0     H49381  11.414   0.047   9.197 -1.5105  1.1741 -0.4052
  366MOL0     H49382  11.618   0.087   9.062 -0.9249 -0.1266  0.3471
  366MOL0     H49383  11.609  -0.062   8.978 -0.0368  1.1451 -0.7341
  366MOL0     H49384  11.636  -0.009   9.280 -0.5581  0.1791 -0.8207
  366MOL0     H49385  11.631  -0.170   9.204  2.0078 -0.0416  1.4963
  366MOL0     H49386  11.860   0.006   9.115  0.4209 -0.6185 -0.6433
  366MOL0     H49387  11.844  -0.163   9.131 -1.6981 -1.1743  0.3177
  366MOL0     H49388  11.850   0.031   9.369  0.7883  0.4318 -0.1674
  366MOL0     H49389  11.839  -0.142   9.375 -0.2022  1.0738  0.3411
  366MOL0     H49390  10.962   0.330   8.884  0.0584  0.9162 -0.1420
  366MOL0     H49391  10.782   0.417   9.044  0.4982 -0.2080 -0.0881
  366MOL0     H49392  10.358   0.325   9.211 -0.9494 -2.3561  1.7298
  366MOL0     H49393  10.166   0.389   9.336 -0.9846  1.8686  0.7593
  366MOL0     H49394   9.160   1.455   9.934  0.5798  1.4524  0.3291
  366MOL0     H49395   8.900   1.479   9.950  1.1945  0.3783 -0.4332
  366MOL0     H49396   8.489   1.246  10.391  2.0832  1.0871 -0.4341
  366MOL0     H49397   8.259   1.241  10.368  1.4593 -1.5657 -0.5350
  366MOL0     H49398   7.956   1.448  10.288 -2.4512 -1.5086  0.2493
  366MOL0     H49399   8.065   1.333  10.375 -0.7310  2.3374  1.3566
  366MOL0     H49400   7.873   1.211  10.337 -1.2988 -0.0436 -0.1884
  366MOL0     H49401   8.011   1.154  10.232  0.1653 -0.4791  2.8622
  366MOL0     H49402   7.895   1.229  10.039  3.1783  1.6365  1.0353
  366MOL0     H49403   7.831   1.366  10.129  1.3849 -0.1774  0.0982
  366MOL0     H49404   7.655   1.194  10.231  0.5513  0.7087 -0.4286
  366MOL0     H49405   7.657   1.195  10.046  1.9498  0.4712 -1.8655
  366MOL0     H49406   7.768   0.803  10.132 -0.3687  0.6410 -0.3305
  366MOL0     H49407   8.248   1.471  10.016 -0.4631 -0.0854  0.0813
  366MOL0     H49408   8.567   1.616  10.043  0.5194  0.5963 -2.5206
  366MOL0     H49409   8.599   1.467   9.944  0.8912  1.0623  1.0968
  366MOL0     H49410   8.454   1.568   9.924 -0.2391  1.5004  0.8694
  367MOL0     O49411   4.524   6.565   4.452 -0.1862 -0.2614 -0.8238
  367MOL0     C49412   4.412   6.513   4.452  0.4671  0.1383 -0.1881
  367MOL0     O49413   4.387   6.383   4.402  0.4001  0.3534 -0.9555
  367MOL0     C49414   4.465   6.329   4.295 -0.2634 -0.3574 -1.2472
  367MOL0     C49415   4.477   6.187   4.297  0.6082  0.2762  0.7938
  367MOL0     C49416   4.570   6.128   4.217  0.4730  0.4660  0.3396
  367MOL0     C49417   4.644   6.201   4.121  0.0615  0.0673 -1.0113
  367MOL0     O49418   4.727   6.142   4.035  0.0244 -0.2870 -0.4011
  367MOL0     C49419   4.684   6.162   3.899  0.2267  0.1296  0.2498
  367MOL0     C49420   4.792   6.095   3.821 -0.5421  0.5977 -0.9818
  367MOL0     C49421   4.898   6.187   3.762 -1.1768 -0.7405 -0.8162
  367MOL0     C49422   5.001   6.239   3.862  0.1142  0.0814  0.0567
  367MOL0     C49423   5.136   6.266   3.789  0.2148  0.1108  0.4425
  367MOL0     C49424   5.243   6.307   3.886  0.2608 -0.2946 -0.0068
  367MOL0     C49425   5.361   6.375   3.797  0.4485 -0.1528  0.6414
  367MOL0     C49426   5.489   6.383   3.879 -1.5977 -0.1676  0.0043
  367MOL0     N49427   5.608   6.415   3.801 -0.1601 -0.0885  0.3009
  367MOL0     C49428   5.686   6.532   3.817  0.1423  0.1316 -0.0609
  367MOL0     C49429   5.803   6.507   3.758  0.8168  0.6285 -0.2558
  367MOL0     C49430   5.920   6.595   3.769  0.2565 -0.3856 -0.0802
  367MOL0     C49431   5.986   6.639   3.633  0.2738  0.1595  0.4880
  367MOL0     C49432   6.059   6.519   3.559  0.8224  0.6573 -0.1604
  367MOL0     C49433   6.166   6.434   3.636  0.2962 -0.0848 -0.0438
  367MOL0     O49434   6.229   6.518   3.733  0.1429 -0.0990 -0.1802
  367MOL0     C49435   6.364   6.513   3.743 -0.1965 -0.5866 -0.6969
  367MOL0     C49436   6.432   6.398   3.802 -0.0796 -0.1304  0.4627
  367MOL0     C49437   6.571   6.383   3.807  0.2049  0.3912 -0.3681
  367MOL0     C49438   6.654   6.491   3.765 -0.2398  1.0643 -0.7697
  367MOL0     C49439   6.800   6.475   3.776 -0.6579  0.3566  0.1968
  367MOL0     O49440   6.878   6.578   3.724 -0.5623 -0.0086 -0.2978
  367MOL0     C49441   7.016   6.568   3.724  0.5841  0.2590  1.0101
  367MOL0     C49442   7.089   6.521   3.834 -0.1665  0.5646  0.1415
  367MOL0     C49443   7.227   6.510   3.813 -1.2593 -0.3660  0.9322
  367MOL0     C49444   7.292   6.538   3.692 -0.2953 -0.2674  0.6606
  367MOL0     O49445   7.430   6.502   3.689  0.5405 -0.1773 -0.4503
  367MOL0     C49446   7.494   6.527   3.564 -0.1525  0.3839  0.2238
  367MOL0     C49447   7.634   6.473   3.566  0.4131  0.2384  0.7471
  367MOL0     C49448   7.725   6.584   3.623  1.0901 -0.1063 -0.6425
  367MOL0     C49449   7.871   6.564   3.586 -0.3609 -0.7827 -0.2479
  367MOL0     C49450   7.964   6.672   3.632  0.3464  0.3073 -0.2599
  367MOL0     C49451   8.117   6.643   3.596  0.0346  0.3825  0.4482
  367MOL0     C49452   8.206   6.763   3.590 -0.2305  0.0764 -0.0156
  367MOL0     C49453   8.290   6.780   3.716 -0.4110  0.0429 -0.3289
  367MOL0    Cl49454   8.405   6.633   3.713  0.2619  0.0864 -0.2510
  367MOL0     C49455   7.222   6.598   3.592  0.2250  0.3943  0.2722
  367MOL0     C49456   7.084   6.609   3.608  0.0454 -0.1772 -0.9266
  367MOL0     O49457   6.849   6.369   3.811 -0.1078 -0.5714 -0.0042
  367MOL0     C49458   6.588   6.613   3.726  0.1362  0.1594 -0.9248
  367MOL0     C49459   6.446   6.622   3.714 -0.3149  0.4727  0.1969
  367MOL0     N49460   5.799   6.378   3.712 -0.1083  0.1990  0.8358
  367MOL0     N49461   5.683   6.331   3.734  0.1179  0.0350  0.1973
  367MOL0     C49462   4.633   6.343   4.125 -0.6973 -0.0607  0.0723
  367MOL0     C49463   4.550   6.404   4.214  0.5009 -0.1216  0.4918
  367MOL0     C49464   4.305   6.570   4.535 -0.1260 -0.6509  0.0690
  367MOL0     C49465   4.204   6.483   4.574 -0.3730 -0.3001  0.1036
  367MOL0     C49466   4.100   6.529   4.654  0.7192 -0.0226 -0.1883
  367MOL0     C49467   4.084   6.664   4.690 -0.6634  0.0311  0.6683
  367MOL0     O49468   3.987   6.714   4.778  0.3808  0.0161 -0.0188
  367MOL0     C49469   3.884   6.628   4.822 -0.1772  0.7261 -0.1873
  367MOL0     C49470   3.914   6.547   4.952 -0.3304 -0.2868  0.4507
  367MOL0     C49471   3.779   6.484   5.000 -0.4691 -0.6089 -0.4039
  367MOL0     C49472   3.811   6.355   5.066  0.1140  0.2084  0.5318
  367MOL0     C49473   3.683   6.306   5.122 -0.1929  0.0896 -0.5303
  367MOL0     C49474   3.584   6.262   5.184  1.0951  0.2779  0.3391
  367MOL0     C49475   4.190   6.754   4.647  1.2282  0.9573  0.2782
  367MOL0     C49476   4.293   6.710   4.566  0.5081 -0.2364 -0.4209
  367MOL0     C49477   4.393   6.822   4.534  0.6029  0.1977 -0.1831
  367MOL0     H49478   4.410   6.135   4.365 -1.2695  3.8945  2.0056
  367MOL0     H49479   4.590   6.021   4.228 -0.5629  0.3272  1.0180
  367MOL0     H49480   4.583   6.121   3.901  0.9787 -1.7736  1.0488
  367MOL0     H49481   4.679   6.268   3.871 -0.7640  0.5427  1.8239
  367MOL0     H49482   4.745   6.033   3.744 -1.3900 -0.0965  0.0588
  367MOL0     H49483   4.842   6.024   3.887 -1.2185  1.0472  0.0512
  367MOL0     H49484   4.848   6.270   3.712 -2.0587  2.0896  4.0829
  367MOL0     H49485   4.967   6.139   3.692  0.3061  3.8957 -2.9156
  367MOL0     H49486   4.962   6.334   3.900  1.9604  1.3785 -1.1132
  367MOL0     H49487   5.025   6.176   3.948 -1.8807  0.3989  0.9114
  367MOL0     H49488   5.168   6.179   3.731 -0.9328  1.1407 -1.8312
  367MOL0     H49489   5.126   6.351   3.721  3.4034 -0.5480 -1.0477
  367MOL0     H49490   5.206   6.385   3.953  0.2461 -0.5191  0.2438
  367MOL0     H49491   5.286   6.217   3.931  3.4406  0.7798 -0.6203
  367MOL0     H49492   5.329   6.477   3.773 -1.8263  0.2303  4.4989
  367MOL0     H49493   5.376   6.317   3.706  2.9447  0.7231  0.4063
  367MOL0     H49494   5.477   6.449   3.965 -2.7980 -1.2210  0.6725
  367MOL0     H49495   5.513   6.285   3.921  2.3174  0.6654  0.0976
  367MOL0     H49496   5.663   6.620   3.877  2.4757  0.7785 -0.0141
  367MOL0     H49497   5.903   6.687   3.826  2.1271 -0.7409  1.1452
  367MOL0     H49498   5.989   6.533   3.827  2.5562  2.3755  0.3847
  367MOL0     H49499   5.908   6.669   3.562  1.0880  1.2238  0.0037
  367MOL0     H49500   6.044   6.730   3.653  0.3781 -0.2768  2.3629
  367MOL0     H49501   6.105   6.554   3.466  1.1361 -0.5079 -0.4620
  367MOL0     H49502   5.975   6.452   3.541 -0.8679  2.9070 -1.1103
  367MOL0     H49503   6.238   6.393   3.564  0.2735 -1.4474  0.6799
  367MOL0     H49504   6.111   6.351   3.680  1.2635 -0.2046  1.0009
  367MOL0     H49505   6.364   6.315   3.819  0.8152 -0.9061  0.3752
  367MOL0     H49506   6.621   6.291   3.837 -0.5890 -0.3703 -1.2957
  367MOL0     H49507   7.031   6.485   3.919 -0.5022 -1.1322 -0.7654
  367MOL0     H49508   7.288   6.469   3.892 -2.7876 -0.2561  2.2350
  367MOL0     H49509   7.444   6.471   3.486 -0.2226  0.1655  0.4242
  367MOL0     H49510   7.486   6.631   3.531 -0.3334 -0.0050 -0.9785
  367MOL0     H49511   7.646   6.383   3.627 -0.6631  0.1180  0.8038
  367MOL0     H49512   7.660   6.439   3.466 -1.2723  2.2428 -0.4471
  367MOL0     H49513   7.682   6.683   3.605  0.4483 -0.6495 -2.2729
  367MOL0     H49514   7.732   6.575   3.732 -0.7938  1.4783 -0.3367
  367MOL0     H49515   7.874   6.565   3.476 -0.4279  1.0030 -0.2550
  367MOL0     H49516   7.906   6.466   3.621 -4.4114 -1.4222  2.5959
  367MOL0     H49517   7.963   6.669   3.742 -0.9843 -0.4335 -0.2699
  367MOL0     H49518   7.922   6.765   3.592 -1.7511 -0.8074 -0.7639
  367MOL0     H49519   8.150   6.562   3.662  0.9123  1.7007  1.7030
  367MOL0     H49520   8.130   6.602   3.495  0.9136  0.2089  0.6290
  367MOL0     H49521   8.154   6.856   3.565 -0.4191  0.6271  2.2457
  367MOL0     H49522   8.279   6.754   3.509 -0.7933  0.5027 -0.5821
  367MOL0     H49523   8.348   6.873   3.718  0.3431 -0.4348  1.4231
  367MOL0     H49524   8.235   6.776   3.810  0.3763  0.5612  0.1678
  367MOL0     H49525   7.282   6.630   3.507  0.2605  1.0796  0.5453
  367MOL0     H49526   7.032   6.658   3.526 -1.7800 -1.9769 -0.9276
  367MOL0     H49527   6.649   6.700   3.701 -0.0715  0.0230 -1.9450
  367MOL0     H49528   6.405   6.715   3.675  1.9886  1.0121 -1.1612
  367MOL0     H49529   4.678   6.405   4.048 -0.3949  0.1340  0.4106
  367MOL0     H49530   4.560   6.512   4.209  1.1783 -0.1243  1.5854
  367MOL0     H49531   4.219   6.377   4.553  0.8450 -0.0656 -0.3276
  367MOL0     H49532   4.025   6.460   4.691 -0.6389  1.7109  0.4341
  367MOL0     H49533   3.859   6.552   4.747  0.5920 -2.8133  2.8751
  367MOL0     H49534   3.801   6.693   4.852 -0.6626 -1.1278  2.8995
  367MOL0     H49535   3.954   6.615   5.028  3.5110  0.1474 -1.7309
  367MOL0     H49536   3.986   6.469   4.926  2.1798  1.3868  1.9476
  367MOL0     H49537   3.721   6.473   4.908 -1.1015  1.6812 -0.3302
  367MOL0     H49538   3.746   6.559   5.072  0.9613 -0.9266  0.6279
  367MOL0     H49539   3.836   6.278   4.992 -2.8544 -0.8971  0.5496
  367MOL0     H49540   3.894   6.362   5.137 -0.1307  3.8804  0.6390
  367MOL0     H49541   3.500   6.244   5.248 -0.1077  3.5733 -0.1689
  367MOL0     H49542   4.192   6.856   4.682  1.6222  0.5102  1.6198
  367MOL0     H49543   4.466   6.822   4.616  0.8916  1.3984 -0.4191
  367MOL0     H49544   4.451   6.800   4.443 -0.3012 -0.1093 -0.6953
  367MOL0     H49545   4.342   6.917   4.519 -0.2908 -0.1900  0.3555
  368MOL0     O49546   6.908  11.008   4.840  0.5649  0.6216  0.7955
  368MOL0     C49547   6.838  11.043   4.934 -0.1639  0.6250 -0.5660
  368MOL0     O49548   6.887  11.099   5.055 -0.0082 -0.1529  0.3986
  368MOL0     C49549   7.023  11.104   5.077 -0.7504 -0.0175 -0.0818
  368MOL0     C49550   7.093  11.223   5.107 -0.3884 -0.1274 -0.0716
  368MOL0     C49551   7.227  11.216   5.145 -0.1829 -0.3149 -0.9489
  368MOL0     C49552   7.292  11.094   5.154  0.1052 -0.1743  0.3035
  368MOL0     O49553   7.422  11.104   5.194 -0.1088  0.3272  0.0709
  368MOL0     C49554   7.493  10.985   5.209 -0.1987  0.2746 -0.1779
  368MOL0     C49555   7.636  11.006   5.256  0.8353 -0.4252  0.2142
  368MOL0     C49556   7.722  11.088   5.163 -1.5036 -0.0317 -0.3139
  368MOL0     C49557   7.871  11.083   5.223  0.0405 -0.3101 -0.1242
  368MOL0     C49558   7.967  11.137   5.117 -1.5728  0.6507  0.4581
  368MOL0     C49559   7.970  11.062   4.981 -0.4598 -0.4904 -0.0204
  368MOL0     C49560   8.100  11.087   4.915  0.4253 -0.5222 -0.4259
  368MOL0     C49561   8.111  11.226   4.856  0.7281 -0.9110 -0.6066
  368MOL0     N49562   8.252  11.268   4.877  0.6758  0.0563  0.5225
  368MOL0     C49563   8.352  11.227   4.791 -0.8608 -0.1467 -0.3190
  368MOL0     C49564   8.459  11.296   4.828  0.7847 -0.7481 -0.6189
  368MOL0     C49565   8.590  11.299   4.767 -0.4913 -1.4074  0.3725
  368MOL0     C49566   8.672  11.176   4.801 -0.1107 -0.7094 -0.1900
  368MOL0     C49567   8.606  11.035   4.772 -0.3888 -1.1734 -0.5149
  368MOL0     C49568   8.712  10.932   4.791 -0.2019  0.2922  1.3110
  368MOL0     O49569   8.795  10.931   4.670  1.2451  0.0853 -0.5443
  368MOL0     C49570   8.930  10.915   4.696 -0.2885  0.5357 -0.4064
  368MOL0     C49571   9.013  10.984   4.782 -0.0401 -0.7596 -0.3466
  368MOL0     C49572   9.155  10.974   4.783 -0.1431  0.2702 -0.1763
  368MOL0     C49573   9.216  10.887   4.691 -0.7240 -0.5809 -0.3104
  368MOL0     C49574   9.357  10.858   4.692 -0.1010 -0.2571 -0.5062
  368MOL0     O49575   9.406  10.746   4.633 -0.2185  0.7886  0.1011
  368MOL0     C49576   9.541  10.711   4.639 -0.4796 -0.0355  0.4448
  368MOL0     C49577   9.594  10.654   4.524 -0.5076  0.9202 -0.5185
  368MOL0     C49578   9.731  10.611   4.516 -0.3455  0.0454 -0.2631
  368MOL0     C49579   9.813  10.625   4.629  0.0859 -0.1515  0.5746
  368MOL0     O49580   9.941  10.584   4.604  0.3331 -0.4731 -0.6903
  368MOL0     C49581  10.051  10.672   4.637  0.4528 -0.1532  1.0178
  368MOL0     C49582  10.126  10.627   4.763 -0.8269 -0.0342 -0.1392
  368MOL0     C49583  10.272  10.682   4.771  0.0919  0.2748  0.1035
  368MOL0     C49584  10.361  10.601   4.860 -0.9240 -0.3445 -0.5776
  368MOL0     C49585  10.497  10.658   4.856  0.6039  0.7739  0.2345
  368MOL0     C49586  10.579  10.588   4.971 -0.2964  0.6050  0.2544
  368MOL0     C49587  10.709  10.672   4.973  0.6454 -0.1775  0.5111
  368MOL0     C49588  10.806  10.601   5.055 -0.5422  0.7338  0.3431
  368MOL0    Cl49589  10.767  10.647   5.230 -0.6890  0.2947  0.4540
  368MOL0     C49590   9.757  10.693   4.739  0.7489 -0.0977  0.3172
  368MOL0     C49591   9.631  10.740   4.753  1.1989  0.7832  1.0876
  368MOL0     O49592   9.421  10.942   4.750 -0.6642 -0.1140  0.8196
  368MOL0     C49593   9.130  10.807   4.613 -0.6265 -1.0094 -0.8166
  368MOL0     C49594   8.992  10.819   4.616 -0.6161  0.1563 -0.2203
  368MOL0     N49595   8.434  11.361   4.949 -0.4206 -0.4658 -0.4363
  368MOL0     N49596   8.308  11.341   4.979 -0.2246  0.3550  0.2188
  368MOL0     C49597   7.227  10.976   5.130  0.3797 -0.7008  0.4880
  368MOL0     C49598   7.092  10.984   5.092  0.0746  0.0313  0.6261
  368MOL0     C49599   6.690  11.033   4.911  0.5958 -0.4152  0.3272
  368MOL0     C49600   6.599  11.011   5.021 -0.4242  0.0813  0.8793
  368MOL0     C49601   6.461  11.006   4.999 -0.2597  0.2104  0.5399
  368MOL0     C49602   6.406  11.013   4.873 -1.1493 -0.1720 -0.0054
  368MOL0     O49603   6.269  10.993   4.856 -0.0282 -0.3380 -0.6096
  368MOL0     C49604   6.209  10.964   4.728  0.5468 -0.3837 -0.1100
  368MOL0     C49605   6.249  10.821   4.685 -0.4351  0.1134  0.8945
  368MOL0     C49606   6.124  10.769   4.604  0.0808  0.7561  0.3707
  368MOL0     C49607   6.145  10.625   4.566  0.0280 -0.2108  0.6218
  368MOL0     C49608   6.128  10.534   4.679  0.5261  0.5464 -0.1126
  368MOL0     C49609   6.104  10.470   4.780  1.0954 -0.0405 -0.6954
  368MOL0     C49610   6.488  11.033   4.765 -0.0467  0.5365 -0.4667
  368MOL0     C49611   6.628  11.035   4.783 -0.3119  0.1239  0.1659
  368MOL0     C49612   6.713  11.046   4.656 -0.5144 -0.1638 -0.2622
  368MOL0     H49613   7.049  11.320   5.088 -3.8154 -1.7386 -1.2564
  368MOL0     H49614   7.277  11.311   5.163 -2.5984  0.7971  0.4398
  368MOL0     H49615   7.430  10.919   5.270 -1.3920  0.0157 -1.6252
  368MOL0     H49616   7.499  10.932   5.113 -1.8154 -2.3393  1.0483
  368MOL0     H49617   7.690  10.913   5.276  1.8535 -0.6771 -3.0157
  368MOL0     H49618   7.624  11.061   5.349  1.2149 -0.3815  0.2417
  368MOL0     H49619   7.703  11.195   5.151  1.6747  0.6913  0.1690
  368MOL0     H49620   7.712  11.040   5.066 -1.7227 -0.0599 -0.2778
  368MOL0     H49621   7.873  11.147   5.311 -0.2266  0.3318 -0.5743
  368MOL0     H49622   7.910  10.984   5.248 -1.2909 -1.0925 -0.9719
  368MOL0     H49623   7.937  11.241   5.096  0.2035  0.9956 -0.6211
  368MOL0     H49624   8.065  11.131   5.166  0.8461  2.9093 -3.5209
  368MOL0     H49625   7.950  10.958   5.008 -0.5721 -0.2372  0.9019
  368MOL0     H49626   7.884  11.095   4.922  0.7066  3.0292  0.0116
  368MOL0     H49627   8.122  11.014   4.837  2.4550 -0.0909 -0.2940
  368MOL0     H49628   8.183  11.075   4.985 -0.1672  0.8152  0.5653
  368MOL0     H49629   8.093  11.235   4.749  0.9129  1.8393 -0.4789
  368MOL0     H49630   8.037  11.292   4.901  0.5261 -1.5695  0.0526
  368MOL0     H49631   8.333  11.165   4.704 -0.1285 -0.3137 -0.3648
  368MOL0     H49632   8.593  11.297   4.657 -1.0796  0.3600  0.2935
  368MOL0     H49633   8.651  11.384   4.798  2.4945 -3.0112 -0.6480
  368MOL0     H49634   8.772  11.183   4.758  0.1873  3.2660  0.7588
  368MOL0     H49635   8.688  11.177   4.909  0.9663 -2.5993 -0.2894
  368MOL0     H49636   8.557  11.038   4.675 -0.7827  1.8968 -0.3220
  368MOL0     H49637   8.530  11.018   4.848 -0.3161  1.2722  0.1852
  368MOL0     H49638   8.661  10.836   4.797 -0.3362  0.2021 -0.8145
  368MOL0     H49639   8.772  10.946   4.882  2.4654  0.8916 -0.3980
  368MOL0     H49640   8.974  11.065   4.843  0.6556  2.1386 -3.4373
  368MOL0     H49641   9.214  11.038   4.848  2.2112  0.7189 -2.5876
  368MOL0     H49642   9.536  10.646   4.433 -1.3722 -1.0741  0.1324
  368MOL0     H49643   9.757  10.583   4.415 -1.7774  1.9200 -1.2299
  368MOL0     H49644  10.126  10.680   4.558 -0.2767 -1.3286  0.1775
  368MOL0     H49645  10.023  10.777   4.647  2.2543  0.2385  2.6108
  368MOL0     H49646  10.086  10.663   4.858  1.6358 -2.3547  1.9498
  368MOL0     H49647  10.148  10.520   4.776 -0.0143 -0.1303 -1.9406
  368MOL0     H49648  10.312  10.682   4.670 -3.1566 -2.3434 -1.3951
  368MOL0     H49649  10.263  10.786   4.803 -2.1005 -0.0362  0.7334
  368MOL0     H49650  10.366  10.497   4.827  0.6149 -0.4324 -0.1585
  368MOL0     H49651  10.321  10.618   4.961 -0.4870  1.5480 -0.6819
  368MOL0     H49652  10.495  10.766   4.869  0.8174  1.0039 -1.3883
  368MOL0     H49653  10.556  10.646   4.764  4.6067  0.2149  2.6147
  368MOL0     H49654  10.536  10.592   5.072  1.6266 -1.4456  1.2442
  368MOL0     H49655  10.597  10.482   4.950  1.0654  1.2702 -2.2996
  368MOL0     H49656  10.720  10.776   5.005  4.9058  0.0478 -1.0477
  368MOL0     H49657  10.747  10.677   4.871  1.3568  0.8893  0.8197
  368MOL0     H49658  10.807  10.495   5.030  0.8809  0.8110  0.0038
  368MOL0     H49659  10.897  10.656   5.029 -1.6881  3.3962  1.5171
  368MOL0     H49660   9.824  10.712   4.823 -1.4323  0.7243  1.9787
  368MOL0     H49661   9.600  10.773   4.851  1.2766 -0.0988  1.4227
  368MOL0     H49662   9.173  10.732   4.547  3.4764  0.6675 -0.3901
  368MOL0     H49663   8.940  10.764   4.539  3.5342  0.7049 -3.8012
  368MOL0     H49664   7.268  10.878   5.154  3.6879 -0.5721 -3.6148
  368MOL0     H49665   7.039  10.890   5.081  0.9833 -0.2525 -1.8542
  368MOL0     H49666   6.632  10.983   5.120  1.3719 -2.1361 -0.2505
  368MOL0     H49667   6.392  10.976   5.078 -1.1884 -3.5771 -1.4598
  368MOL0     H49668   6.238  11.039   4.654  0.9640 -0.5770 -0.1449
  368MOL0     H49669   6.101  10.970   4.746  0.4162 -2.4236  0.0811
  368MOL0     H49670   6.262  10.752   4.769 -0.1419 -2.1940 -0.9294
  368MOL0     H49671   6.341  10.820   4.625 -0.5968  1.1350  0.6004
  368MOL0     H49672   6.120  10.835   4.517  0.3836  1.3454  0.7994
  368MOL0     H49673   6.023  10.772   4.644 -0.4450  3.5083 -0.9236
  368MOL0     H49674   6.062  10.610   4.496 -1.2094 -0.8946  2.1847
  368MOL0     H49675   6.249  10.610   4.536  0.5438  3.5284  0.0849
  368MOL0     H49676   6.087  10.403   4.861  0.6263  1.4403  0.4801
  368MOL0     H49677   6.450  11.038   4.664 -3.7371  0.9764  0.8009
  368MOL0     H49678   6.771  10.955   4.640  1.0577  0.0550  3.2592
  368MOL0     H49679   6.655  11.069   4.566  0.7548  1.1148 -0.8171
  368MOL0     H49680   6.778  11.134   4.669 -0.4299 -0.2364 -0.1938
  369MOL0     O49681   3.083   8.658   9.928 -0.2690  0.1780  0.2407
  369MOL0     C49682   3.010   8.582   9.990  0.1909 -0.3955  0.1358
  369MOL0     O49683   3.049   8.476  10.060 -0.1263  0.1946  0.3801
  369MOL0     C49684   3.185   8.454  10.071 -0.0895 -0.3210 -0.3053
  369MOL0     C49685   3.248   8.509  10.188 -0.2874  0.7977  0.6054
  369MOL0     C49686   3.385   8.485  10.205 -0.3406  0.3786  0.4985
  369MOL0     C49687   3.466   8.412  10.104  1.0077  0.5686  0.4658
  369MOL0     O49688   3.597   8.412  10.132 -0.1798  0.2013 -0.7318
  369MOL0     C49689   3.679   8.303  10.086  0.8991  0.2977 -0.2801
  369MOL0     C49690   3.821   8.320  10.150  0.2409  0.2306 -0.5174
  369MOL0     C49691   3.914   8.204  10.115  1.1383 -1.5633 -0.0763
  369MOL0     C49692   4.044   8.221  10.185  0.6618  0.0326 -0.9806
  369MOL0     C49693   4.120   8.090  10.172 -0.5117 -0.4867 -0.4434
  369MOL0     C49694   4.262   8.120  10.228 -0.0981 -0.7938  0.1752
  369MOL0     C49695   4.362   8.005  10.213  0.1407  0.1627 -0.4146
  369MOL0     C49696   4.483   8.017  10.302  0.2168  0.3326 -0.0843
  369MOL0     N49697   4.565   7.892  10.294  0.6104 -0.0088  0.7681
  369MOL0     C49698   4.552   7.781  10.375  0.4135 -0.7643 -0.1234
  369MOL0     C49699   4.637   7.692  10.319  0.9079  0.0500 -0.1723
  369MOL0     C49700   4.647   7.549  10.365  0.4548  0.2607  0.0653
  369MOL0     C49701   4.781   7.487  10.406  0.0310 -0.7293  0.4490
  369MOL0     C49702   4.879   7.484  10.290 -0.0794 -0.3151  0.4621
  369MOL0     C49703   4.905   7.339  10.246  0.3145  0.0148  0.9886
  369MOL0     O49704   4.959   7.261  10.351  0.9462  0.0266 -0.2261
  369MOL0     C49705   5.079   7.306  10.401  0.7400  0.0853  0.5572
  369MOL0     C49706   5.090   7.371  10.525 -0.8218 -0.0419  0.2377
  369MOL0     C49707   5.213   7.406  10.573 -0.2559 -0.1327  0.4034
  369MOL0     C49708   5.328   7.394  10.490 -0.0050 -1.1574  0.1153
  369MOL0     C49709   5.457   7.443  10.546 -0.0483  0.3070  0.2190
  369MOL0     O49710   5.571   7.455  10.467 -0.2072 -0.2608 -0.1240
  369MOL0     C49711   5.694   7.492  10.512 -0.2208  0.4297 -0.7268
  369MOL0     C49712   5.752   7.596  10.443 -0.1357  0.1690  0.4781
  369MOL0     C49713   5.870   7.658  10.487 -0.8752  0.2655 -0.0506
  369MOL0     C49714   5.945   7.603  10.597 -0.4016  0.0065  0.0752
  369MOL0     O49715   6.071   7.655  10.632  0.0727 -0.5282 -0.4260
  369MOL0     C49716   6.140   7.745  10.549 -0.2435  0.0623  0.6594
  369MOL0     C49717   6.288   7.753  10.590  0.3864 -0.4889 -0.0526
  369MOL0     C49718   6.384   7.817  10.481  0.6344  0.2604 -0.3290
  369MOL0     C49719   6.525   7.822  10.554  1.5572  0.5709 -0.1251
  369MOL0     C49720   6.596   7.948  10.499  0.0562  0.3453 -0.1789
  369MOL0     C49721   6.727   7.965  10.565 -0.0940 -0.4107 -0.0631
  369MOL0     C49722   6.814   8.079  10.498 -0.1271 -0.0175  0.1707
  369MOL0     C49723   6.769   8.218  10.545  0.7437  0.1776  0.2813
  369MOL0    Cl49724   6.793   8.231  10.723  0.0504  0.3764  0.8750
  369MOL0     C49725   5.888   7.501  10.670  0.6902  0.5024 -0.2661
  369MOL0     C49726   5.758   7.442  10.623 -0.1637 -1.1922 -0.2710
  369MOL0     O49727   5.453   7.457  10.674 -0.2625 -0.9595  0.1298
  369MOL0     C49728   5.319   7.344  10.356  0.5882  0.1465  0.1731
  369MOL0     C49729   5.192   7.286  10.319 -0.0606  0.0728 -0.4265
  369MOL0     N49730   4.687   7.752  10.201  0.2309  0.0051 -0.2302
  369MOL0     N49731   4.657   7.877  10.197  0.5314 -1.0125  0.7186
  369MOL0     C49732   3.397   8.374   9.984  0.1460 -0.4391  0.3225
  369MOL0     C49733   3.262   8.396   9.966  0.5719 -0.0836  0.4460
  369MOL0     C49734   2.867   8.599   9.971 -0.2054 -0.4545 -0.3847
  369MOL0     C49735   2.812   8.631   9.842  0.2066  1.3966  0.7155
  369MOL0     C49736   2.681   8.673   9.829 -1.0735 -0.4619  0.6976
  369MOL0     C49737   2.593   8.693   9.939 -0.8412  0.7632  0.0355
  369MOL0     O49738   2.460   8.734   9.912  0.3425  0.4951 -0.4052
  369MOL0     C49739   2.392   8.764  10.034 -0.1068 -0.4217 -0.7585
  369MOL0     C49740   2.250   8.783   9.991 -0.6980  0.1477  0.4915
  369MOL0     C49741   2.166   8.804  10.108  0.7490 -0.4624  0.1874
  369MOL0     C49742   2.022   8.804  10.059  0.1985  0.9826  0.1117
  369MOL0     C49743   1.928   8.844  10.164 -0.1268  0.1404 -0.5711
  369MOL0     C49744   1.850   8.878  10.253 -0.1323 -0.1028 -0.0641
  369MOL0     C49745   2.644   8.651  10.065  0.5604 -0.0842 -0.3816
  369MOL0     C49746   2.770   8.607  10.084  0.0441 -0.1065 -0.0350
  369MOL0     C49747   2.812   8.576  10.230  0.2003  0.1553  0.4524
  369MOL0     H49748   3.183   8.556  10.261  0.2148  0.2168  1.4473
  369MOL0     H49749   3.432   8.523  10.295 -1.7504 -1.4187  2.0809
  369MOL0     H49750   3.638   8.208  10.120 -1.3668  1.2150 -0.2553
  369MOL0     H49751   3.683   8.302   9.977  1.2047  1.7590 -0.3137
  369MOL0     H49752   3.813   8.331  10.258 -3.4527  1.3139 -0.7505
  369MOL0     H49753   3.863   8.419  10.130  0.4566  0.5365  1.2799
  369MOL0     H49754   3.930   8.208  10.007 -1.7034  1.2192 -0.5375
  369MOL0     H49755   3.870   8.112  10.156 -0.5758 -0.8089 -0.1650
  369MOL0     H49756   4.097   8.308  10.143 -1.9794  0.9072 -2.8164
  369MOL0     H49757   4.016   8.244  10.288  0.1055  0.3588 -1.2015
  369MOL0     H49758   4.070   8.009  10.226 -1.1933 -0.3541 -0.8594
  369MOL0     H49759   4.131   8.070  10.065  1.5414  2.0934 -0.8052
  369MOL0     H49760   4.314   8.203  10.180  1.4596 -1.9715 -0.2700
  369MOL0     H49761   4.251   8.142  10.335  1.8493 -0.7103  0.3950
  369MOL0     H49762   4.387   7.993  10.107  2.5074  0.2507  0.0875
  369MOL0     H49763   4.313   7.910  10.236  0.2892 -0.3601 -2.1147
  369MOL0     H49764   4.540   8.099  10.258  1.0518 -0.9727 -1.5554
  369MOL0     H49765   4.458   8.024  10.408 -1.8016 -2.5208 -0.2484
  369MOL0     H49766   4.504   7.776  10.472  0.8714  0.2663  0.1713
  369MOL0     H49767   4.586   7.541  10.456  0.0282 -1.0403 -0.3132
  369MOL0     H49768   4.597   7.485  10.292  1.4248 -1.4842  0.8659
  369MOL0     H49769   4.828   7.553  10.479  0.8224 -0.9212  0.1207
  369MOL0     H49770   4.765   7.390  10.455 -1.6433  0.1007  1.6229
  369MOL0     H49771   4.976   7.527  10.316 -0.9565  4.9785 -3.3076
  369MOL0     H49772   4.850   7.534  10.197  1.9961 -0.3664 -0.2567
  369MOL0     H49773   4.970   7.332  10.159 -3.7182 -1.0349 -2.2673
  369MOL0     H49774   4.814   7.293  10.206  0.1185 -0.4500  1.9390
  369MOL0     H49775   5.006   7.383  10.593 -1.3804  0.9266 -0.5865
  369MOL0     H49776   5.224   7.448  10.672  2.4270 -1.4900  0.7830
  369MOL0     H49777   5.704   7.636  10.354  0.2832  0.4423  0.3697
  369MOL0     H49778   5.910   7.741  10.429 -1.0666  0.8176  0.6006
  369MOL0     H49779   6.130   7.711  10.446  0.7727 -0.3959  0.7026
  369MOL0     H49780   6.100   7.847  10.555 -0.9316  0.1434 -2.9596
  369MOL0     H49781   6.299   7.806  10.686  0.9981 -0.1964 -0.2783
  369MOL0     H49782   6.315   7.650  10.615 -2.5922 -0.8550  2.2346
  369MOL0     H49783   6.384   7.756  10.391  1.5891  0.5477 -0.5353
  369MOL0     H49784   6.358   7.916  10.444  1.3763  0.2378 -0.9358
  369MOL0     H49785   6.581   7.728  10.548 -0.0273 -0.3500 -0.8859
  369MOL0     H49786   6.509   7.835  10.661  0.4081  2.0034 -0.4358
  369MOL0     H49787   6.543   8.041  10.523 -0.2410  1.0558 -3.1815
  369MOL0     H49788   6.621   7.948  10.392 -0.4609  4.2135 -0.4623
  369MOL0     H49789   6.706   7.994  10.668 -1.8446  1.3986 -0.8565
  369MOL0     H49790   6.777   7.870  10.547  0.4253 -0.5482  1.8585
  369MOL0     H49791   6.797   8.074  10.390  0.4057 -2.6402  0.1309
  369MOL0     H49792   6.922   8.069  10.511 -0.0393 -0.6039 -0.8595
  369MOL0     H49793   6.815   8.296  10.484 -0.1459  0.4054 -0.1140
  369MOL0     H49794   6.661   8.230  10.533  0.9256  1.6938 -0.0489
  369MOL0     H49795   5.943   7.456  10.752  1.4810  0.7698 -0.6447
  369MOL0     H49796   5.723   7.359  10.684 -0.1043 -0.3410  0.9611
  369MOL0     H49797   5.401   7.343  10.286  1.0084 -0.3291  0.6596
  369MOL0     H49798   5.169   7.241  10.224 -0.1921 -0.1030 -0.3120
  369MOL0     H49799   3.454   8.326   9.905 -0.7107  2.2996 -2.1150
  369MOL0     H49800   3.221   8.380   9.867 -0.1016 -3.4801  1.1512
  369MOL0     H49801   2.876   8.619   9.755 -2.9314  0.5391 -1.6594
  369MOL0     H49802   2.651   8.711   9.732 -0.1386 -2.0766 -0.2771
  369MOL0     H49803   2.431   8.852  10.085 -1.3465 -1.4389  2.1844
  369MOL0     H49804   2.399   8.683  10.107  1.0422  0.4302  0.1060
  369MOL0     H49805   2.217   8.707   9.920  0.3066  1.1046 -1.0687
  369MOL0     H49806   2.235   8.875   9.933 -3.5785 -0.5157  0.0263
  369MOL0     H49807   2.197   8.898  10.155  1.9404 -1.4158  1.3598
  369MOL0     H49808   2.173   8.726  10.183  1.0508 -2.7877 -2.1249
  369MOL0     H49809   2.011   8.872   9.974 -3.3801  0.1775 -0.2453
  369MOL0     H49810   1.989   8.710  10.013 -0.5963  0.3327  1.9267
  369MOL0     H49811   1.793   8.909  10.337  0.5838  0.2026  0.3206
  369MOL0     H49812   2.584   8.633  10.154 -0.9601 -1.5083 -1.6283
  369MOL0     H49813   2.919   8.593  10.244  0.1918  1.8559 -1.1991
  369MOL0     H49814   2.751   8.632  10.301  1.4208  3.4346 -0.8815
  369MOL0     H49815   2.792   8.468  10.240 -1.8743 -0.1997 -4.5085
  370MOL0     O49816   7.037   5.678   5.338 -0.4044 -0.0748 -0.0830
  370MOL0     C49817   6.922   5.719   5.312  0.5209 -0.3081  0.1643
  370MOL0     O49818   6.891   5.826   5.238 -0.0822  0.4941 -0.2611
  370MOL0     C49819   6.982   5.915   5.192 -0.7438 -1.1691  0.0043
  370MOL0     C49820   7.122   5.903   5.190 -0.7585  0.6976 -0.3154
  370MOL0     C49821   7.206   6.011   5.162  0.0170 -0.2031 -0.4256
  370MOL0     C49822   7.154   6.139   5.131  0.6195  0.1763  0.5473
  370MOL0     O49823   7.246   6.231   5.090  0.2568  0.2081 -0.3511
  370MOL0     C49824   7.205   6.361   5.099 -0.7274 -0.5019  0.4687
  370MOL0     C49825   7.322   6.452   5.046  0.0815  0.3453 -0.1422
  370MOL0     C49826   7.423   6.493   5.158  0.6531 -0.2741  0.0773
  370MOL0     C49827   7.502   6.619   5.106  0.4252  0.7532  0.6192
  370MOL0     C49828   7.592   6.675   5.210 -0.0103  0.1509  0.0195
  370MOL0     C49829   7.640   6.809   5.159 -0.2197 -0.5455 -0.4690
  370MOL0     C49830   7.769   6.869   5.214  0.6384 -0.2755 -1.0320
  370MOL0     C49831   7.741   6.906   5.356 -0.1013 -0.7130 -1.1157
  370MOL0     N49832   7.866   6.975   5.414  0.6077  0.3266 -0.3059
  370MOL0     C49833   7.977   6.915   5.472  0.8673  0.1631 -0.3838
  370MOL0     C49834   8.064   7.021   5.489  0.9605  0.0237  1.2017
  370MOL0     C49835   8.202   7.021   5.526  0.5399 -0.4050 -0.4211
  370MOL0     C49836   8.290   7.083   5.424 -0.4401 -0.0188 -0.9093
  370MOL0     C49837   8.442   7.074   5.463 -0.3423 -0.4415 -0.4371
  370MOL0     C49838   8.527   7.173   5.379 -0.1529  0.7055 -0.4288
  370MOL0     O49839   8.489   7.313   5.393  0.5463  0.7790  1.1068
  370MOL0     C49840   8.528   7.372   5.508  0.5285  0.2406  0.6924
  370MOL0     C49841   8.651   7.434   5.519 -0.3377  0.0585 -0.0946
  370MOL0     C49842   8.698   7.497   5.636 -0.1247  0.2505 -0.4691
  370MOL0     C49843   8.599   7.508   5.743  0.2337  0.3509 -0.5297
  370MOL0     C49844   8.634   7.561   5.874  0.0381  0.0637 -0.1829
  370MOL0     O49845   8.771   7.571   5.896 -0.1421 -0.0151 -0.0370
  370MOL0     C49846   8.820   7.605   6.023  0.6639  0.7218  0.0169
  370MOL0     C49847   8.938   7.667   6.021 -0.8441 -1.3351 -0.8155
  370MOL0     C49848   9.003   7.710   6.141 -0.1447 -0.4515 -0.0478
  370MOL0     C49849   8.956   7.678   6.269  0.3372 -0.2651  0.9988
  370MOL0     O49850   9.042   7.691   6.370 -0.3037 -0.0738 -1.1407
  370MOL0     C49851   8.992   7.671   6.505 -0.2414  0.0484 -0.3656
  370MOL0     C49852   9.106   7.711   6.603 -0.2069 -0.4658  0.7008
  370MOL0     C49853   9.229   7.618   6.604  0.1931 -0.0135 -0.1173
  370MOL0     C49854   9.285   7.628   6.747 -0.3324  0.1561  0.0382
  370MOL0     C49855   9.421   7.557   6.753  0.2511  0.0988 -0.4115
  370MOL0     C49856   9.487   7.586   6.886 -0.5614  0.6123  0.1816
  370MOL0     C49857   9.550   7.725   6.882  0.1568  0.3812  0.2204
  370MOL0     C49858   9.602   7.779   7.013 -0.9822 -1.7570  0.1061
  370MOL0    Cl49859   9.745   7.685   7.059 -0.5046 -0.2486 -0.2463
  370MOL0     C49860   8.832   7.609   6.271 -0.0241 -0.8641  0.3091
  370MOL0     C49861   8.762   7.576   6.146  0.4169  0.2463  0.1863
  370MOL0     O49862   8.547   7.585   5.959 -0.0929  0.2196 -0.1211
  370MOL0     C49863   8.471   7.454   5.731 -0.2306  0.6432  0.6984
  370MOL0     C49864   8.442   7.374   5.616  0.1381 -0.3805 -0.4103
  370MOL0     N49865   7.992   7.136   5.457  0.1239  0.4630  0.8918
  370MOL0     N49866   7.871   7.112   5.419 -0.0995 -0.1739  1.1525
  370MOL0     C49867   7.013   6.155   5.123  0.0349  0.4241 -0.9520
  370MOL0     C49868   6.934   6.049   5.162 -1.0551 -0.0750  0.0189
  370MOL0     C49869   6.806   5.644   5.374 -0.4647 -0.0828  0.4281
  370MOL0     C49870   6.686   5.720   5.380 -0.3735 -0.0295 -0.1146
  370MOL0     C49871   6.572   5.662   5.435  0.2868  0.3923 -0.1488
  370MOL0     C49872   6.567   5.527   5.468 -0.9731  0.1634 -0.1553
  370MOL0     O49873   6.458   5.466   5.527 -0.2262 -0.2484 -0.4303
  370MOL0     C49874   6.357   5.422   5.441 -0.3900  0.0265 -0.0496
  370MOL0     C49875   6.244   5.518   5.411  0.3750  0.4414 -0.0198
  370MOL0     C49876   6.115   5.448   5.361 -0.3374 -0.4007  0.5147
  370MOL0     C49877   6.006   5.549   5.324  0.1221 -0.1354 -0.7721
  370MOL0     C49878   5.892   5.483   5.265  0.1711 -0.4322  0.0703
  370MOL0     C49879   5.792   5.431   5.216  0.0069  0.0337 -0.9860
  370MOL0     C49880   6.685   5.449   5.446  0.2261 -0.0747 -0.0079
  370MOL0     C49881   6.805   5.509   5.400 -0.3235  0.3520  0.5018
  370MOL0     C49882   6.926   5.412   5.374 -0.0479  0.0455  0.0136
  370MOL0     H49883   7.175   5.818   5.233 -1.1596 -1.0265 -2.9636
  370MOL0     H49884   7.313   6.008   5.181  0.2821  0.6357 -1.6654
  370MOL0     H49885   7.111   6.379   5.045 -1.7880 -0.8500  2.0993
  370MOL0     H49886   7.188   6.401   5.200 -1.9072  0.7935 -0.2013
  370MOL0     H49887   7.273   6.543   5.011 -0.0482  0.4226  0.2377
  370MOL0     H49888   7.366   6.418   4.951  1.5284 -0.9512  0.9404
  370MOL0     H49889   7.490   6.407   5.171  1.2271 -0.5038 -3.4045
  370MOL0     H49890   7.381   6.524   5.254  1.3586  0.5264  0.1389
  370MOL0     H49891   7.570   6.586   5.026  2.6514  0.8255  2.3717
  370MOL0     H49892   7.447   6.703   5.063  1.8794  1.0274 -0.8340
  370MOL0     H49893   7.528   6.689   5.298  2.0687  5.8568  1.0613
  370MOL0     H49894   7.678   6.612   5.235  0.0204 -0.0379 -0.5611
  370MOL0     H49895   7.667   6.791   5.054  1.3905  0.2955 -0.2380
  370MOL0     H49896   7.561   6.884   5.169  1.8361  1.9813 -1.9203
  370MOL0     H49897   7.777   6.955   5.146 -1.0061 -0.4621 -1.4991
  370MOL0     H49898   7.850   6.796   5.208  1.1238 -0.4916  3.7883
  370MOL0     H49899   7.662   6.981   5.360 -0.1518 -0.7914  1.9743
  370MOL0     H49900   7.700   6.822   5.413 -3.0899  1.0874 -0.4035
  370MOL0     H49901   8.006   6.814   5.500  0.9470  0.6027  1.1739
  370MOL0     H49902   8.232   7.061   5.623  1.1424  1.7000 -1.3914
  370MOL0     H49903   8.235   6.917   5.532  0.8686 -0.2172  2.1475
  370MOL0     H49904   8.270   7.038   5.327  2.7918  1.2019 -2.3014
  370MOL0     H49905   8.261   7.187   5.411 -0.7209  0.0466  0.1098
  370MOL0     H49906   8.491   6.979   5.444  1.3114 -0.4072  2.9464
  370MOL0     H49907   8.463   7.108   5.565  1.4526  0.6140 -1.1159
  370MOL0     H49908   8.508   7.144   5.276  3.7974  0.7224 -1.3239
  370MOL0     H49909   8.635   7.162   5.396  0.1985  2.8448 -1.0354
  370MOL0     H49910   8.715   7.432   5.431  0.2975  2.6283  0.2128
  370MOL0     H49911   8.795   7.542   5.653 -0.4952  0.6070  0.8184
  370MOL0     H49912   8.991   7.687   5.928  0.9698  1.1021  0.6392
  370MOL0     H49913   9.092   7.772   6.135  0.9513 -1.7699  1.7548
  370MOL0     H49914   8.904   7.733   6.518 -0.5310 -0.2725 -0.7724
  370MOL0     H49915   8.971   7.564   6.520  0.9798 -0.0945  0.4809
  370MOL0     H49916   9.143   7.806   6.563 -0.4711 -0.5554  0.2365
  370MOL0     H49917   9.059   7.727   6.700  2.4838 -0.8403  2.1611
  370MOL0     H49918   9.204   7.514   6.582  0.0014 -0.2040  0.9282
  370MOL0     H49919   9.313   7.656   6.545  0.3756  0.3760  0.3809
  370MOL0     H49920   9.216   7.584   6.819  0.2014 -3.8332 -1.6416
  370MOL0     H49921   9.311   7.733   6.762  0.9236  0.4368 -3.1559
  370MOL0     H49922   9.494   7.587   6.677  1.5630 -0.7563  0.4794
  370MOL0     H49923   9.409   7.450   6.732  0.5767  0.2430 -1.4337
  370MOL0     H49924   9.415   7.570   6.967 -0.7809  0.2686 -0.0771
  370MOL0     H49925   9.577   7.527   6.903 -0.3323  0.8508 -0.1974
  370MOL0     H49926   9.469   7.792   6.851  0.9680  0.8708 -0.9081
  370MOL0     H49927   9.625   7.748   6.806 -1.5828  2.1814 -1.0619
  370MOL0     H49928   9.631   7.882   6.991 -2.4813 -1.6804 -1.8185
  370MOL0     H49929   9.522   7.771   7.087 -2.6377 -1.7985 -1.5967
  370MOL0     H49930   8.789   7.585   6.367  0.3412  0.4691  0.8317
  370MOL0     H49931   8.660   7.542   6.150  0.4904 -0.3463 -1.7447
  370MOL0     H49932   8.396   7.452   5.810  0.3535  0.8338  1.2721
  370MOL0     H49933   8.343   7.328   5.623  0.5440 -1.2620 -0.2584
  370MOL0     H49934   6.961   6.245   5.092 -1.4956 -0.2497 -0.4641
  370MOL0     H49935   6.826   6.057   5.159 -0.9485  2.0887  0.5253
  370MOL0     H49936   6.683   5.824   5.350 -2.2219  0.0471  0.2119
  370MOL0     H49937   6.480   5.717   5.453 -0.2925 -0.2309 -1.1058
  370MOL0     H49938   6.323   5.325   5.479  2.4073 -1.8051 -1.9066
  370MOL0     H49939   6.404   5.386   5.350 -1.2448  0.9365 -0.8761
  370MOL0     H49940   6.271   5.580   5.324  3.2947  2.8767  2.3939
  370MOL0     H49941   6.221   5.576   5.500 -1.4379  0.2595 -0.3397
  370MOL0     H49942   6.074   5.375   5.432 -0.2848 -0.2118  0.7386
  370MOL0     H49943   6.149   5.402   5.268 -0.4004 -1.0618  0.8122
  370MOL0     H49944   5.976   5.590   5.421  0.3135 -1.4248 -0.1479
  370MOL0     H49945   6.043   5.624   5.254  0.6912 -3.2491 -4.0952
  370MOL0     H49946   5.713   5.360   5.203 -0.3206  0.2060 -0.0654
  370MOL0     H49947   6.674   5.342   5.454 -1.0735  0.1024  0.7437
  370MOL0     H49948   6.889   5.309   5.373 -0.8109  0.1706 -4.1345
  370MOL0     H49949   6.985   5.428   5.284  1.2146 -0.2674  0.7660
  370MOL0     H49950   6.997   5.425   5.456 -0.3574 -1.7474  0.5932
  371MOL0     O49951   0.919   1.094   6.617 -0.8797  0.3325  0.0079
  371MOL0     C49952   1.030   1.043   6.627 -0.7054 -1.1143 -0.0304
  371MOL0     O49953   1.062   0.935   6.704 -0.2728  0.1935 -0.0660
  371MOL0     C49954   0.973   0.885   6.807 -0.3664 -0.3674  0.0107
  371MOL0     C49955   1.015   0.762   6.857 -1.0251 -1.0321 -0.5274
  371MOL0     C49956   0.956   0.705   6.967  0.3848  0.2573  0.4322
  371MOL0     C49957   0.843   0.760   7.023  0.4175 -0.4197 -0.3851
  371MOL0     O49958   0.786   0.690   7.122  0.0835 -0.3887 -0.5936
  371MOL0     C49959   0.678   0.750   7.194  0.6974 -0.2996 -0.6599
  371MOL0     C49960   0.642   0.675   7.324  0.0843 -0.6541  0.0741
  371MOL0     C49961   0.495   0.633   7.341 -0.2094  0.4670  0.3145
  371MOL0     C49962   0.458   0.517   7.241 -0.8338 -1.0989 -0.1888
  371MOL0     C49963   0.328   0.452   7.277  0.6753 -0.1324  0.1166
  371MOL0     C49964   0.297   0.341   7.170  0.0557  0.1536  0.3436
  371MOL0     C49965   0.150   0.281   7.192 -0.3235  0.8404  0.6308
  371MOL0     C49966   0.151   0.141   7.122 -0.0486 -0.2828 -0.2183
  371MOL0     N49967   0.029   0.070   7.141  0.4798  0.0556  1.2773
  371MOL0     C49968  -0.102   0.110   7.119 -0.0996 -0.6028  0.8478
  371MOL0     C49969  -0.176  -0.003   7.157 -0.2818 -0.3425  0.5206
  371MOL0     C49970  -0.331  -0.005   7.162  0.0582 -0.4707  0.5946
  371MOL0     C49971  -0.367   0.092   7.270  0.1792  0.7762 -0.6319
  371MOL0     C49972  -0.311   0.051   7.410 -0.0096  0.8609  0.6327
  371MOL0     C49973  -0.240   0.172   7.472 -0.5749 -1.0633  0.0939
  371MOL0     O49974  -0.170   0.146   7.596 -0.2931 -0.4285  0.0389
  371MOL0     C49975  -0.044   0.120   7.581 -0.0769  0.0049 -0.9150
  371MOL0     C49976  -0.002  -0.005   7.551  0.1991  0.3279 -0.2663
  371MOL0     C49977   0.135  -0.027   7.517 -0.5509  0.7402  0.4826
  371MOL0     C49978   0.228   0.075   7.508 -0.2436  0.1367  0.5085
  371MOL0     C49979   0.354   0.046   7.443 -0.5010  0.6430 -0.0285
  371MOL0     O49980   0.388  -0.078   7.398  0.0929 -0.0874  0.3835
  371MOL0     C49981   0.524  -0.119   7.383 -0.0667  0.1607  1.0602
  371MOL0     C49982   0.583  -0.171   7.264 -0.3148  0.0874  0.5339
  371MOL0     C49983   0.721  -0.195   7.253  0.2600 -0.4245  0.6737
  371MOL0     C49984   0.808  -0.167   7.354 -0.0963  0.7404  0.2598
  371MOL0     O49985   0.946  -0.176   7.339  0.3363 -0.0102 -0.0988
  371MOL0     C49986   1.009  -0.138   7.211 -0.2440 -0.0318  0.5551
  371MOL0     C49987   1.164  -0.117   7.228 -0.1858 -0.5395  0.6084
  371MOL0     C49988   1.234  -0.241   7.267 -0.6189  0.0246  0.5316
  371MOL0     C49989   1.360  -0.214   7.350 -0.7796 -0.0423  0.1314
  371MOL0     C49990   1.430  -0.348   7.395 -0.2103 -0.1577 -0.7139
  371MOL0     C49991   1.536  -0.393   7.291  0.3319 -0.4310  0.0244
  371MOL0     C49992   1.618  -0.507   7.354  0.5603  0.7785 -0.0112
  371MOL0     C49993   1.714  -0.574   7.254  0.0267 -0.0916  0.2139
  371MOL0    Cl49994   1.837  -0.445   7.209  0.7018  0.1041 -0.1110
  371MOL0     C49995   0.751  -0.131   7.472 -0.2826  0.5678  0.3814
  371MOL0     C49996   0.614  -0.108   7.490 -0.1415 -0.2352  0.5351
  371MOL0     O49997   0.439   0.140   7.455  0.2828  0.9976  0.0138
  371MOL0     C49998   0.183   0.199   7.536 -0.3746 -0.2402  0.5932
  371MOL0     C49999   0.054   0.219   7.583  0.3475  0.3342  0.0445
  371MOL0     N50000  -0.095  -0.108   7.198 -0.1652  0.3070 -0.6488
  371MOL0     N50001   0.027  -0.063   7.175 -0.7452 -0.1625 -1.1328
  371MOL0     C50002   0.797   0.879   6.976  0.3856  0.1263 -0.0190
  371MOL0     C50003   0.862   0.946   6.867 -0.5324  0.0652  0.1336
  371MOL0     C50004   1.131   1.081   6.529  0.1216  0.8300  0.1334
  371MOL0     C50005   1.249   1.114   6.586 -0.1216 -0.2025  0.1068
  371MOL0     C50006   1.359   1.165   6.511  0.3631 -0.9567  0.0767
  371MOL0     C50007   1.339   1.201   6.374 -0.1492 -0.1836  0.2354
  371MOL0     O50008   1.436   1.272   6.309  0.6305 -0.6363  0.6251
  371MOL0     C50009   1.424   1.288   6.165  0.5152  1.0541  0.9028
  371MOL0     C50010   1.539   1.377   6.109 -0.2605  0.6087  0.3264
  371MOL0     C50011   1.557   1.505   6.183  0.5858 -0.0760  0.0915
  371MOL0     C50012   1.622   1.615   6.092  0.7083  0.1760  0.0318
  371MOL0     C50013   1.766   1.598   6.101 -0.3721  0.5930  0.5963
  371MOL0     C50014   1.884   1.580   6.123 -0.1801 -0.1339  0.7246
  371MOL0     C50015   1.216   1.169   6.318 -0.1161  1.0425 -0.0458
  371MOL0     C50016   1.114   1.102   6.392 -0.8013 -0.2522 -0.0618
  371MOL0     C50017   0.985   1.077   6.318 -0.0494 -0.4133 -0.2036
  371MOL0     H50018   1.105   0.708   6.830 -0.4156 -0.8138  0.9333
  371MOL0     H50019   0.994   0.619   7.022  0.7527 -0.1341 -0.4086
  371MOL0     H50020   0.699   0.854   7.222 -0.8503 -0.3008  0.6626
  371MOL0     H50021   0.591   0.751   7.128  0.4939 -0.4563 -0.3927
  371MOL0     H50022   0.673   0.743   7.404 -1.8942  0.2522  0.1198
  371MOL0     H50023   0.715   0.595   7.337  2.1403  0.8599 -1.3327
  371MOL0     H50024   0.425   0.713   7.316 -1.8007 -0.8921  0.2880
  371MOL0     H50025   0.485   0.602   7.445  3.7651 -1.5631  0.2832
  371MOL0     H50026   0.455   0.548   7.136  1.5419  0.6011  0.1598
  371MOL0     H50027   0.541   0.446   7.245  1.8519  1.8610  1.9803
  371MOL0     H50028   0.344   0.412   7.377  0.9733  1.8625  0.8997
  371MOL0     H50029   0.247   0.525   7.283 -1.3649 -2.3952  3.0692
  371MOL0     H50030   0.288   0.377   7.067  2.2345 -0.2549 -0.0375
  371MOL0     H50031   0.368   0.258   7.176 -2.0258 -1.7079  0.5818
  371MOL0     H50032   0.075   0.341   7.140  0.5497  0.8544 -0.6607
  371MOL0     H50033   0.125   0.263   7.297 -1.2172 -1.2733  0.1212
  371MOL0     H50034   0.178   0.142   7.016  2.7450 -0.0335  0.4126
  371MOL0     H50035   0.230   0.081   7.169  0.8217  0.2474 -0.9690
  371MOL0     H50036  -0.139   0.204   7.080  2.4652  0.5497  1.0378
  371MOL0     H50037  -0.384   0.036   7.075 -0.5397 -2.5970 -0.0889
  371MOL0     H50038  -0.373  -0.104   7.176 -2.7382  0.3320 -1.1998
  371MOL0     H50039  -0.352   0.198   7.249  0.8291  1.0365  1.0078
  371MOL0     H50040  -0.476   0.084   7.276  0.0524  1.7787 -1.2855
  371MOL0     H50041  -0.254  -0.043   7.413 -1.3733 -0.1581 -2.1389
  371MOL0     H50042  -0.398   0.030   7.472  0.3853 -0.0627  0.8802
  371MOL0     H50043  -0.318   0.243   7.502  0.3960  0.2829 -0.4890
  371MOL0     H50044  -0.175   0.225   7.402 -1.1412  1.9748  1.6633
  371MOL0     H50045  -0.066  -0.091   7.570  0.8765  0.1661  1.5102
  371MOL0     H50046   0.167  -0.125   7.482  1.6316  1.7886 -0.6895
  371MOL0     H50047   0.525  -0.185   7.174  0.3519 -0.7106  0.2198
  371MOL0     H50048   0.758  -0.245   7.164  1.1708  1.8956 -0.3036
  371MOL0     H50049   0.997  -0.213   7.132 -1.4135  1.7484 -1.0310
  371MOL0     H50050   0.958  -0.047   7.178 -0.8040 -0.4769  0.1807
  371MOL0     H50051   1.203  -0.084   7.132  0.0913 -2.4584  0.0129
  371MOL0     H50052   1.191  -0.044   7.304 -1.3812 -0.4529  0.9643
  371MOL0     H50053   1.166  -0.309   7.318 -1.7079  1.2424  0.7619
  371MOL0     H50054   1.281  -0.290   7.181 -0.9857  0.2052  0.2268
  371MOL0     H50055   1.332  -0.157   7.440  1.8056 -0.9764  1.6156
  371MOL0     H50056   1.437  -0.153   7.302  1.2242 -1.4582  1.4123
  371MOL0     H50057   1.353  -0.424   7.408 -1.3491  1.1713  0.6864
  371MOL0     H50058   1.474  -0.344   7.495 -0.9848 -1.2605 -0.3114
  371MOL0     H50059   1.495  -0.429   7.196  1.1610  1.0055 -0.9100
  371MOL0     H50060   1.608  -0.311   7.282 -0.7542  0.8834  2.5129
  371MOL0     H50061   1.540  -0.575   7.391  0.4540  0.7817 -0.2264
  371MOL0     H50062   1.670  -0.466   7.441  0.5492  3.7236 -1.2893
  371MOL0     H50063   1.763  -0.659   7.303  1.6324 -0.1777 -1.4093
  371MOL0     H50064   1.643  -0.605   7.176  0.0044 -1.4248  0.7239
  371MOL0     H50065   0.811  -0.121   7.563 -0.9267 -0.8881  0.9869
  371MOL0     H50066   0.576  -0.081   7.588  1.1600  1.0505  0.7323
  371MOL0     H50067   0.249   0.283   7.557  0.1439 -0.5847  0.3623
  371MOL0     H50068   0.020   0.318   7.613 -1.4702  0.1169 -1.1281
  371MOL0     H50069   0.709   0.924   7.022  2.0820  2.9519  0.6776
  371MOL0     H50070   0.823   1.045   6.846 -0.5069 -0.2212 -1.4347
  371MOL0     H50071   1.258   1.098   6.693 -3.4262 -1.1382  0.3373
  371MOL0     H50072   1.455   1.185   6.556  0.3972  1.9216 -1.0382
  371MOL0     H50073   1.335   1.344   6.134  2.6356  4.3057  0.2448
  371MOL0     H50074   1.424   1.190   6.116  0.0031  2.3512 -1.8865
  371MOL0     H50075   1.529   1.391   6.001 -0.3667  1.8633  0.4832
  371MOL0     H50076   1.634   1.324   6.117 -1.0605 -1.0129 -0.4640
  371MOL0     H50077   1.627   1.484   6.264 -1.1699 -1.9516  1.2095
  371MOL0     H50078   1.463   1.545   6.222  0.8821  0.2013  0.5325
  371MOL0     H50079   1.577   1.603   5.994  0.6061  1.5042 -0.1116
  371MOL0     H50080   1.592   1.713   6.131  1.3992 -0.0864  1.2748
  371MOL0     H50081   1.989   1.562   6.131 -0.1577 -0.4938 -0.2159
  371MOL0     H50082   1.191   1.215   6.223  1.6373  1.0026 -0.5603
  371MOL0     H50083   0.997   1.093   6.211  0.9272 -2.4625 -0.4597
  371MOL0     H50084   0.944   0.977   6.336  1.1903 -0.9131 -0.0251
  371MOL0     H50085   0.913   1.148   6.359 -0.4030  0.1580 -1.7632
  372MOL0     O50086   7.688   7.640  10.450 -0.0881  0.3021  0.2865
  372MOL0     C50087   7.684   7.744  10.393 -0.8835  0.0240  0.3968
  372MOL0     O50088   7.759   7.860  10.422 -0.3723 -0.1922  0.2124
  372MOL0     C50089   7.786   7.887  10.548 -0.2723 -0.1435  0.2467
  372MOL0     C50090   7.897   7.970  10.560 -0.2871  0.3691 -0.3177
  372MOL0     C50091   7.949   8.015  10.679  0.4867 -0.2130  0.6942
  372MOL0     C50092   7.891   7.969  10.801 -0.0112 -0.2541 -0.2411
  372MOL0     O50093   7.959   8.001  10.907 -0.0875  0.0079  0.2836
  372MOL0     C50094   7.950   7.924  11.026  0.3430 -0.1821 -0.4845
  372MOL0     C50095   8.075   7.973  11.104  0.3796  0.0243 -0.2031
  372MOL0     C50096   8.208   7.897  11.073 -0.4302  0.9067  0.5633
  372MOL0     C50097   8.323   7.940  11.171 -0.1546 -0.1693 -0.6024
  372MOL0     C50098   8.439   7.845  11.144  0.1764  0.5786  0.6704
  372MOL0     C50099   8.557   7.875  11.239 -0.4960  0.5285  0.5694
  372MOL0     C50100   8.672   7.765  11.224 -0.5070  1.1853 -0.9867
  372MOL0     C50101   8.803   7.798  11.300  0.7305  0.3933  0.1586
  372MOL0     N50102   8.784   7.822  11.445 -0.4976 -0.0737 -0.0665
  372MOL0     C50103   8.701   7.748  11.522  0.0088 -0.6458 -0.6955
  372MOL0     C50104   8.701   7.797  11.650 -1.6404  0.4427  0.8687
  372MOL0     C50105   8.617   7.756  11.761  0.1253 -0.1882  0.5215
  372MOL0     C50106   8.646   7.612  11.810  0.3430 -0.4967 -0.3585
  372MOL0     C50107   8.633   7.495  11.708  0.3110  0.2011  0.8193
  372MOL0     C50108   8.619   7.369  11.781 -1.1246  0.1117  0.2592
  372MOL0     O50109   8.606   7.258  11.689  0.4552 -1.2172 -0.2872
  372MOL0     C50110   8.728   7.193  11.679 -0.2504 -0.8465 -0.7901
  372MOL0     C50111   8.725   7.066  11.733 -0.4514 -0.1405  1.1144
  372MOL0     C50112   8.839   6.985  11.744  0.8348 -0.5272 -0.8826
  372MOL0     C50113   8.962   7.039  11.717 -0.2157 -0.1720  0.5212
  372MOL0     C50114   9.084   6.956  11.727 -0.3309 -1.7355  0.9359
  372MOL0     O50115   9.068   6.833  11.795 -0.2369  0.3656  0.2078
  372MOL0     C50116   9.155   6.721  11.777 -0.1842 -0.8264 -0.9685
  372MOL0     C50117   9.232   6.687  11.669 -0.4206  0.4480 -0.3566
  372MOL0     C50118   9.300   6.572  11.655 -0.1771 -1.1514 -1.2367
  372MOL0     C50119   9.324   6.494  11.769 -0.5649  0.3009  0.5934
  372MOL0     O50120   9.431   6.398  11.756 -0.1183 -0.0013  0.0724
  372MOL0     C50121   9.445   6.304  11.861  0.3946 -1.0708 -0.4766
  372MOL0     C50122   9.529   6.191  11.813 -0.2802  0.8927  0.6170
  372MOL0     C50123   9.659   6.233  11.737  0.6638  0.0108  0.4416
  372MOL0     C50124   9.748   6.324  11.821 -0.0925  0.1085  0.4382
  372MOL0     C50125   9.897   6.327  11.771  0.2900 -0.7224  0.5408
  372MOL0     C50126   9.917   6.372  11.625 -1.2831  1.0023  0.0111
  372MOL0     C50127   9.864   6.513  11.601 -0.6860  0.0239  0.2782
  372MOL0     C50128   9.897   6.556  11.454 -0.7253  0.6116  0.0379
  372MOL0    Cl50129  10.072   6.570  11.431 -0.0366  0.0711  0.2084
  372MOL0     C50130   9.259   6.525  11.883  0.1716 -0.7082  0.3380
  372MOL0     C50131   9.161   6.636  11.890  0.2843  0.0654 -0.3251
  372MOL0     O50132   9.196   7.006  11.690 -0.1146  0.4744  0.4085
  372MOL0     C50133   8.963   7.174  11.682 -1.0055 -0.3254 -0.2895
  372MOL0     C50134   8.853   7.250  11.659  0.3887  0.2637 -0.1896
  372MOL0     N50135   8.781   7.912  11.640  0.8712 -0.5654 -0.5478
  372MOL0     N50136   8.830   7.926  11.524  0.2524  0.7094  0.0507
  372MOL0     C50137   7.772   7.889  10.791 -0.4520  1.1068 -0.5324
  372MOL0     C50138   7.722   7.842  10.661 -1.0258  0.2901 -0.6584
  372MOL0     C50139   7.597   7.732  10.268 -0.0782 -0.1290 -0.7765
  372MOL0     C50140   7.615   7.820  10.158  0.0795 -0.6885 -0.0045
  372MOL0     C50141   7.552   7.795  10.033  0.1104  0.2357  0.4405
  372MOL0     C50142   7.441   7.718  10.029 -0.2888  0.4546  0.4245
  372MOL0     O50143   7.378   7.711   9.906 -0.5649  0.2259  0.3496
  372MOL0     C50144   7.230   7.700   9.892 -0.5081 -0.3169 -0.9252
  372MOL0     C50145   7.184   7.638   9.762  0.9203 -0.3026 -0.2971
  372MOL0     C50146   7.268   7.691   9.648  0.7757 -1.0415  0.7927
  372MOL0     C50147   7.218   7.628   9.510 -0.1523 -0.3219  0.6045
  372MOL0     C50148   7.098   7.688   9.460  0.2188 -0.6859 -0.2602
  372MOL0     C50149   7.002   7.746   9.415 -0.5515  0.0810 -0.5510
  372MOL0     C50150   7.408   7.635  10.139 -0.5150 -1.2033 -0.3997
  372MOL0     C50151   7.479   7.643  10.261 -0.8477  0.0689 -0.2135
  372MOL0     C50152   7.434   7.544  10.362  0.1087  0.9911 -0.1947
  372MOL0     H50153   7.945   7.996  10.466 -0.4644 -1.8503 -1.0791
  372MOL0     H50154   8.031   8.086  10.680  1.0969 -0.8775 -0.6994
  372MOL0     H50155   7.852   7.941  11.071 -0.6303  0.2754 -2.6291
  372MOL0     H50156   7.964   7.818  11.007  0.8561  0.1810 -2.3606
  372MOL0     H50157   8.044   7.954  11.208 -0.5314 -2.6798 -0.8926
  372MOL0     H50158   8.089   8.081  11.109  0.6613  0.1842 -3.1286
  372MOL0     H50159   8.237   7.934  10.975  1.3110 -3.0121 -0.6220
  372MOL0     H50160   8.197   7.788  11.074  1.0280  0.7281 -0.1329
  372MOL0     H50161   8.336   8.048  11.161 -0.6891 -0.2103 -1.9696
  372MOL0     H50162   8.287   7.918  11.272 -0.7590 -1.3831 -1.0611
  372MOL0     H50163   8.405   7.743  11.162  1.0458 -0.2777 -2.1257
  372MOL0     H50164   8.474   7.831  11.041 -1.4086 -1.2123  0.3377
  372MOL0     H50165   8.608   7.967  11.211  0.4642 -0.4014 -0.8555
  372MOL0     H50166   8.528   7.892  11.343  1.2708 -0.9167  1.3426
  372MOL0     H50167   8.689   7.745  11.118 -3.8013 -0.8012 -1.2851
  372MOL0     H50168   8.642   7.668  11.266  3.0179  1.4265  2.7060
  372MOL0     H50169   8.871   7.713  11.291  0.8464  0.6694 -2.4243
  372MOL0     H50170   8.851   7.879  11.244  1.6151 -0.4314 -0.2982
  372MOL0     H50171   8.641   7.667  11.480 -0.4716 -0.6773  0.0369
  372MOL0     H50172   8.614   7.821  11.849  0.4580  0.2494  0.2150
  372MOL0     H50173   8.513   7.748  11.731  0.0654 -0.2523  0.7398
  372MOL0     H50174   8.748   7.618  11.847  0.1133  0.9116  0.1289
  372MOL0     H50175   8.579   7.593  11.895 -1.5298  3.1115 -0.8100
  372MOL0     H50176   8.712   7.494  11.632 -1.8499  0.8125 -1.5804
  372MOL0     H50177   8.533   7.510  11.666  0.1286  1.9019  1.7448
  372MOL0     H50178   8.528   7.363  11.841 -1.9329  2.0449 -0.6643
  372MOL0     H50179   8.708   7.353  11.843  0.3020  0.9578 -1.4590
  372MOL0     H50180   8.626   7.029  11.758 -0.9769 -0.4393 -1.1870
  372MOL0     H50181   8.827   6.882  11.776 -2.2884 -0.0362 -0.1184
  372MOL0     H50182   9.220   6.763  11.593  0.8192  2.0209  0.9373
  372MOL0     H50183   9.347   6.548  11.561 -0.0705 -0.4643 -1.3641
  372MOL0     H50184   9.499   6.346  11.946  2.5520 -3.8803 -0.3113
  372MOL0     H50185   9.353   6.266  11.906 -0.3284  2.2553  1.2057
  372MOL0     H50186   9.556   6.132  11.901 -1.0544 -2.0982 -1.0065
  372MOL0     H50187   9.462   6.137  11.746  0.4950  3.3761 -2.3851
  372MOL0     H50188   9.708   6.141  11.705 -1.2088 -0.8521 -0.1261
  372MOL0     H50189   9.630   6.283  11.644  1.2971 -0.6706 -0.1295
  372MOL0     H50190   9.746   6.282  11.922 -0.2329  1.2363  0.9218
  372MOL0     H50191   9.704   6.424  11.827  1.9266  1.2877 -2.2909
  372MOL0     H50192   9.947   6.230  11.784  0.8152 -0.6354 -0.7202
  372MOL0     H50193   9.953   6.396  11.834  0.9135 -1.2581  0.5852
  372MOL0     H50194  10.024   6.382  11.611 -0.8435 -2.1092  0.3884
  372MOL0     H50195   9.879   6.297  11.555  0.2311 -0.2245  0.4590
  372MOL0     H50196   9.909   6.580  11.674 -2.2212 -0.0325  1.3218
  372MOL0     H50197   9.755   6.512  11.609 -0.6674 -1.1589  0.6401
  372MOL0     H50198   9.863   6.471  11.394 -1.9439  1.8132 -1.0345
  372MOL0     H50199   9.841   6.644  11.422 -0.2465  1.5719  1.7299
  372MOL0     H50200   9.267   6.466  11.973  1.7440  0.5258  1.0538
  372MOL0     H50201   9.120   6.641  11.990  0.8947 -5.7815  0.5949
  372MOL0     H50202   9.063   7.215  11.669 -1.0443  2.6087  5.4771
  372MOL0     H50203   8.866   7.351  11.621  2.2516 -0.2699 -1.0950
  372MOL0     H50204   7.724   7.859  10.884  2.6043 -1.9362  0.2512
  372MOL0     H50205   7.639   7.773  10.663 -2.4137  1.8865 -0.8604
  372MOL0     H50206   7.688   7.900  10.162  0.8687 -1.4394  1.3329
  372MOL0     H50207   7.579   7.848   9.942  0.4752 -1.2279 -0.3470
  372MOL0     H50208   7.189   7.798   9.915  1.0826  0.2310 -0.2444
  372MOL0     H50209   7.201   7.631   9.972  2.9249 -0.2658  0.5701
  372MOL0     H50210   7.074   7.637   9.756  0.9526  1.3591 -2.4154
  372MOL0     H50211   7.215   7.534   9.773  0.0348 -0.7209 -1.5299
  372MOL0     H50212   7.372   7.658   9.655  1.0939 -0.1448  0.3865
  372MOL0     H50213   7.253   7.799   9.645 -1.7662 -1.3368 -0.3675
  372MOL0     H50214   7.295   7.628   9.432  1.5790 -0.7441  2.2437
  372MOL0     H50215   7.211   7.519   9.518 -0.9594 -0.4140 -1.0122
  372MOL0     H50216   6.923   7.806   9.376  0.2460  2.1676  0.8608
  372MOL0     H50217   7.326   7.564  10.135 -0.5460 -1.1560 -0.6180
  372MOL0     H50218   7.504   7.461  10.360 -0.3075  0.6341 -2.1094
  372MOL0     H50219   7.436   7.589  10.462 -1.4123  1.3749 -0.3041
  372MOL0     H50220   7.331   7.511  10.349 -0.1575  1.0185  1.6205
  373MOL0     O50221   4.266   4.019   3.043 -0.0658  0.3830 -0.3573
  373MOL0     C50222   4.248   3.945   2.944 -0.7407  0.0722 -0.1518
  373MOL0     O50223   4.338   3.922   2.846 -0.1094 -0.4036 -0.3089
  373MOL0     C50224   4.463   3.984   2.851 -0.3978  0.6461  0.0703
  373MOL0     C50225   4.500   4.056   2.734 -0.9963 -0.9835 -0.4196
  373MOL0     C50226   4.626   4.121   2.726  0.8546  0.5167  0.6322
  373MOL0     C50227   4.714   4.119   2.835  0.6749 -0.4029 -0.3605
  373MOL0     O50228   4.835   4.183   2.823  0.0376 -0.5166  0.3553
  373MOL0     C50229   4.933   4.186   2.930 -0.2152 -0.8357 -0.7788
  373MOL0     C50230   5.077   4.222   2.878  0.5796 -0.4947  0.3850
  373MOL0     C50231   5.119   4.153   2.739  0.3059  0.5581  0.0569
  373MOL0     C50232   5.184   4.009   2.753  0.3761  0.0998  0.7423
  373MOL0     C50233   5.320   4.002   2.833 -0.2645  0.3195 -0.5898
  373MOL0     C50234   5.425   4.095   2.790  0.8992 -0.0336 -0.4951
  373MOL0     C50235   5.492   4.074   2.650 -0.6179  0.0027  1.1312
  373MOL0     C50236   5.592   4.187   2.601  0.0714  1.1763 -0.9024
  373MOL0     N50237   5.725   4.166   2.664 -0.1047 -0.4897  0.5164
  373MOL0     C50238   5.838   4.106   2.609 -0.0294 -0.5475 -0.0134
  373MOL0     C50239   5.940   4.129   2.693 -0.5189 -0.2423 -0.2801
  373MOL0     C50240   6.077   4.067   2.690 -0.1429 -0.1362  0.0486
  373MOL0     C50241   6.179   4.137   2.771 -0.4343 -0.4466  0.6903
  373MOL0     C50242   6.190   4.084   2.919  0.8103  0.1257  0.6967
  373MOL0     C50243   6.303   4.001   2.960 -0.1174  0.2373  0.6485
  373MOL0     O50244   6.429   4.077   2.949 -0.5354  0.6030  0.8348
  373MOL0     C50245   6.549   4.010   2.945 -0.6385  0.7073  0.2298
  373MOL0     C50246   6.666   4.079   2.918  0.0410  0.4799 -0.3134
  373MOL0     C50247   6.797   4.022   2.924 -0.1201  0.2321 -0.3270
  373MOL0     C50248   6.809   3.890   2.980 -0.7962 -0.7867 -0.1538
  373MOL0     C50249   6.944   3.834   3.005  0.0370 -0.2209  0.2072
  373MOL0     O50250   7.046   3.926   2.989  0.1736  0.0171 -0.6342
  373MOL0     C50251   7.175   3.895   3.028  0.0223  0.7139 -0.3011
  373MOL0     C50252   7.274   3.901   2.937  0.4009 -0.7042  0.3834
  373MOL0     C50253   7.407   3.873   2.955 -0.0718 -1.0329 -0.0015
  373MOL0     C50254   7.449   3.846   3.079  0.7994 -0.1100 -0.8595
  373MOL0     O50255   7.580   3.843   3.109 -0.3428 -0.5434  0.3197
  373MOL0     C50256   7.661   3.762   3.021 -0.4389  0.2814 -0.0559
  373MOL0     C50257   7.616   3.614   3.010 -0.6665  0.1074 -0.3819
  373MOL0     C50258   7.726   3.523   2.959 -0.0735 -0.8839 -0.8086
  373MOL0     C50259   7.764   3.566   2.814 -0.4022  0.1111 -0.1029
  373MOL0     C50260   7.836   3.460   2.729 -0.3075  0.2146  0.3743
  373MOL0     C50261   7.974   3.412   2.773  0.4132  0.2488  0.1110
  373MOL0     C50262   7.970   3.271   2.842 -0.5959 -0.8593 -0.0955
  373MOL0     C50263   7.960   3.163   2.733  0.1678 -1.0807 -0.9592
  373MOL0    Cl50264   7.925   3.007   2.807  0.1153  0.3759 -0.2805
  373MOL0     C50265   7.355   3.846   3.186  0.0186  1.1017  0.0419
  373MOL0     C50266   7.214   3.861   3.156 -0.1445 -0.1015  0.5685
  373MOL0     O50267   6.959   3.721   3.050 -0.1214  0.0166 -0.5144
  373MOL0     C50268   6.695   3.818   2.998 -0.4571  0.3241 -0.0125
  373MOL0     C50269   6.571   3.872   2.981  0.0996  0.5048 -0.3872
  373MOL0     N50270   5.885   4.195   2.804  0.6862  0.2345 -0.4515
  373MOL0     N50271   5.756   4.214   2.786 -1.3340  0.1349 -0.6530
  373MOL0     C50272   4.669   4.055   2.953 -0.1099  0.0124 -0.0700
  373MOL0     C50273   4.549   3.979   2.956  0.2475 -0.6568  0.2071
  373MOL0     C50274   4.109   3.891   2.957 -0.2291 -0.3461 -0.0213
  373MOL0     C50275   4.027   3.925   3.068  0.5020  0.6317  0.1257
  373MOL0     C50276   3.897   3.877   3.076 -0.0755 -0.2685  0.1271
  373MOL0     C50277   3.842   3.784   2.986  0.5728 -0.3901  0.2976
  373MOL0     O50278   3.712   3.747   2.980 -0.0997  0.4224  0.1954
  373MOL0     C50279   3.602   3.811   3.048  1.0360 -0.2494  0.2229
  373MOL0     C50280   3.463   3.788   2.978 -0.2207  0.2860 -0.6042
  373MOL0     C50281   3.451   3.880   2.863  0.2157 -0.5330 -0.2878
  373MOL0     C50282   3.314   3.916   2.807  0.0574  0.5216  0.2852
  373MOL0     C50283   3.244   3.977   2.920 -0.4751 -0.2873 -0.7083
  373MOL0     C50284   3.190   4.019   3.022  0.1976 -0.3037  0.4487
  373MOL0     C50285   3.920   3.743   2.870  0.4316  0.0966 -0.4508
  373MOL0     C50286   4.047   3.802   2.860  0.4353  0.2359  1.0592
  373MOL0     C50287   4.116   3.755   2.731  0.9840  0.6024  0.6375
  373MOL0     H50288   4.431   4.058   2.650 -1.2994  1.3021 -0.1927
  373MOL0     H50289   4.651   4.175   2.635  1.8835 -0.8891  0.0336
  373MOL0     H50290   4.899   4.251   3.011  0.1728 -4.2737  2.4106
  373MOL0     H50291   4.941   4.089   2.980  3.1579 -0.4856 -0.3936
  373MOL0     H50292   5.147   4.198   2.959  1.0299  0.2460  0.2247
  373MOL0     H50293   5.085   4.331   2.867 -0.1313 -0.4098  0.6082
  373MOL0     H50294   5.186   4.218   2.683  0.8660 -0.5494 -0.5713
  373MOL0     H50295   5.030   4.145   2.677  1.2821  1.2170 -1.4678
  373MOL0     H50296   5.112   3.937   2.793 -0.7187  1.2546  0.9086
  373MOL0     H50297   5.203   3.981   2.649 -1.5500  3.9311 -0.8548
  373MOL0     H50298   5.308   4.018   2.940  1.6088  1.4546 -0.5195
  373MOL0     H50299   5.360   3.902   2.810 -0.7966 -0.0408 -0.0015
  373MOL0     H50300   5.383   4.196   2.786  0.4526 -0.1012  1.6615
  373MOL0     H50301   5.501   4.094   2.868 -0.5664  0.2015  0.9706
  373MOL0     H50302   5.417   4.063   2.571  0.7600 -0.0204 -0.2183
  373MOL0     H50303   5.559   3.988   2.650  0.5940  0.9254 -0.2263
  373MOL0     H50304   5.617   4.170   2.496  3.3719  0.1294 -0.0517
  373MOL0     H50305   5.560   4.290   2.621  3.7956  2.1222  1.1040
  373MOL0     H50306   5.842   4.051   2.515  0.3667  1.2798 -1.1061
  373MOL0     H50307   6.082   3.965   2.729  2.6919  1.0965  3.3351
  373MOL0     H50308   6.109   4.075   2.586 -1.3071  1.7615 -0.2111
  373MOL0     H50309   6.279   4.126   2.729  0.9916 -1.7063  4.0411
  373MOL0     H50310   6.164   4.245   2.779 -2.6703 -0.7547  1.4923
  373MOL0     H50311   6.104   4.022   2.947  2.4365 -2.1751  0.9530
  373MOL0     H50312   6.184   4.181   2.968 -0.1363  1.5152 -1.9752
  373MOL0     H50313   6.308   3.907   2.904 -2.8679 -1.1863  2.5614
  373MOL0     H50314   6.290   3.963   3.062  4.7170  0.0103  1.4100
  373MOL0     H50315   6.649   4.184   2.898  1.5052  0.5935 -1.0482
  373MOL0     H50316   6.886   4.082   2.904 -0.5488  0.9871 -0.0178
  373MOL0     H50317   7.245   3.931   2.836 -3.7236 -2.3276  0.8881
  373MOL0     H50318   7.472   3.886   2.869  0.5898 -0.5957  0.5530
  373MOL0     H50319   7.670   3.819   2.928 -0.1605 -1.3918 -1.1002
  373MOL0     H50320   7.759   3.762   3.068 -0.7946  2.6934  0.8371
  373MOL0     H50321   7.595   3.576   3.110 -2.2650  1.1682 -0.2828
  373MOL0     H50322   7.526   3.606   2.949  0.2436 -2.6481 -1.5362
  373MOL0     H50323   7.805   3.534   3.033 -2.4948 -0.0881  1.8479
  373MOL0     H50324   7.691   3.420   2.954  0.0039 -0.8969 -1.1367
  373MOL0     H50325   7.830   3.654   2.820  0.0012 -0.0801 -1.3518
  373MOL0     H50326   7.669   3.586   2.765 -0.2481  1.3749  0.0816
  373MOL0     H50327   7.840   3.488   2.623 -0.3183 -1.4777 -0.1079
  373MOL0     H50328   7.770   3.373   2.729  0.7302 -0.5948  0.6268
  373MOL0     H50329   8.041   3.403   2.687  2.5618 -3.8838  1.9751
  373MOL0     H50330   8.014   3.489   2.840 -2.8295  1.9272  0.3501
  373MOL0     H50331   7.897   3.267   2.924 -0.2728 -1.9198  0.1591
  373MOL0     H50332   8.066   3.263   2.895 -0.0284  3.1580 -0.1863
  373MOL0     H50333   7.885   3.189   2.659  0.1870  0.3877 -0.4871
  373MOL0     H50334   8.057   3.156   2.682  1.5679 -1.8420  1.6216
  373MOL0     H50335   7.392   3.819   3.284 -0.1134 -0.7625 -0.3897
  373MOL0     H50336   7.146   3.850   3.240  1.1521 -3.4850  1.3414
  373MOL0     H50337   6.699   3.716   3.035 -0.3882  0.2619 -0.1903
  373MOL0     H50338   6.480   3.815   2.995  1.8062 -2.2980  0.0748
  373MOL0     H50339   4.727   4.069   3.043  0.0955  2.0685 -0.4683
  373MOL0     H50340   4.528   3.914   3.040  3.6726  0.0208  1.7441
  373MOL0     H50341   4.058   3.993   3.147  2.0377 -2.0722  2.0396
  373MOL0     H50342   3.838   3.906   3.162 -1.5371  0.2942 -1.0135
  373MOL0     H50343   3.610   3.918   3.066  4.3173 -0.2550 -0.7204
  373MOL0     H50344   3.589   3.765   3.147 -1.4529  1.9331  1.0359
  373MOL0     H50345   3.390   3.805   3.058 -1.0594 -2.9301 -0.5260
  373MOL0     H50346   3.451   3.681   2.957  1.1103  0.4939 -2.5868
  373MOL0     H50347   3.522   3.842   2.789 -0.4963 -1.0567 -0.7015
  373MOL0     H50348   3.488   3.979   2.894  0.7907 -1.3989  2.0424
  373MOL0     H50349   3.331   3.978   2.718 -0.9407 -1.6673 -1.5546
  373MOL0     H50350   3.263   3.824   2.776  0.6039 -0.1994  1.4622
  373MOL0     H50351   3.138   4.066   3.103 -0.1031  1.1005 -0.5018
  373MOL0     H50352   3.883   3.670   2.799  1.3839  0.5294 -1.4096
  373MOL0     H50353   4.197   3.688   2.762  1.1821  1.6701  2.6157
  373MOL0     H50354   4.044   3.707   2.665 -0.2003  1.4875  1.2633
  373MOL0     H50355   4.164   3.834   2.673  3.0698 -1.0918 -0.0730
  374MOL0     O50356   1.071   2.363   5.953 -0.8986  0.3017  0.3721
  374MOL0     C50357   1.019   2.408   5.845 -0.8320 -0.5200 -1.5674
  374MOL0     O50358   1.086   2.494   5.759  0.1087 -0.1739 -0.4384
  374MOL0     C50359   1.214   2.537   5.781 -0.2637  0.6743 -0.0979
  374MOL0     C50360   1.236   2.669   5.832 -0.8247 -0.0956  0.2943
  374MOL0     C50361   1.370   2.712   5.858 -0.0946 -0.2455 -0.0276
  374MOL0     C50362   1.475   2.633   5.844  0.4162 -0.0766 -0.5001
  374MOL0     O50363   1.606   2.677   5.866 -0.7601  0.4879  0.3525
  374MOL0     C50364   1.632   2.789   5.952  0.2036 -0.3935 -0.7405
  374MOL0     C50365   1.777   2.837   5.947 -0.3101  0.2906 -0.1694
  374MOL0     C50366   1.900   2.742   5.966 -0.3552 -0.7903 -0.3321
  374MOL0     C50367   2.036   2.815   5.937 -0.4789 -0.0236  0.5065
  374MOL0     C50368   2.157   2.739   5.990 -0.4064  0.6992 -0.0567
  374MOL0     C50369   2.283   2.840   5.992  0.0069 -0.5325  0.3051
  374MOL0     C50370   2.421   2.773   6.020  0.5145  0.6008  0.7176
  374MOL0     C50371   2.538   2.830   5.936  0.0893 -0.0098 -0.4740
  374MOL0     N50372   2.655   2.749   5.966  0.1409 -0.1268 -0.1827
  374MOL0     C50373   2.741   2.759   6.083 -0.3008  0.3014  0.4104
  374MOL0     C50374   2.815   2.645   6.068  0.1272 -0.0106  0.4682
  374MOL0     C50375   2.925   2.613   6.164  0.0507  0.5678  0.2032
  374MOL0     C50376   3.061   2.611   6.094 -0.9800  0.5078  0.8424
  374MOL0     C50377   3.174   2.537   6.167  0.3849 -0.1541 -0.1705
  374MOL0     C50378   3.308   2.512   6.094  0.6890 -0.4891 -0.1409
  374MOL0     O50379   3.395   2.427   6.165  0.7849 -0.0814  0.3068
  374MOL0     C50380   3.524   2.430   6.113  0.2013  0.4049  0.0509
  374MOL0     C50381   3.616   2.517   6.163 -0.1324 -0.4939 -0.3073
  374MOL0     C50382   3.752   2.512   6.134  0.8017  0.6213 -0.1878
  374MOL0     C50383   3.803   2.418   6.041  0.1367 -0.0185  0.0781
  374MOL0     C50384   3.941   2.421   5.981  1.0202  0.7086  0.2342
  374MOL0     O50385   4.032   2.496   6.042 -0.0943  0.7226  0.2314
  374MOL0     C50386   4.147   2.521   5.982 -0.3379  0.1506  0.3223
  374MOL0     C50387   4.262   2.506   6.059  0.8371 -0.1482  0.4462
  374MOL0     C50388   4.387   2.528   6.005 -0.3048 -0.2427 -0.6893
  374MOL0     C50389   4.396   2.582   5.878 -0.3084 -0.0029 -0.0253
  374MOL0     O50390   4.521   2.623   5.845 -0.1371  0.2172 -0.2931
  374MOL0     C50391   4.562   2.617   5.708  0.1391  0.6292  0.4306
  374MOL0     C50392   4.720   2.623   5.707  0.0797 -0.4510 -0.5185
  374MOL0     C50393   4.790   2.532   5.808 -0.4271 -0.1158  0.0957
  374MOL0     C50394   4.948   2.558   5.795 -1.1939  0.2865  0.3844
  374MOL0     C50395   5.020   2.481   5.905 -0.0500 -0.3493 -0.8813
  374MOL0     C50396   5.009   2.544   6.049 -0.1773  0.0028  0.0701
  374MOL0     C50397   5.071   2.463   6.160  0.0971  0.0545  0.5864
  374MOL0     C50398   5.075   2.545   6.281 -0.0320  0.3367 -0.3556
  374MOL0    Cl50399   4.916   2.546   6.362  0.4353  0.0262 -0.3069
  374MOL0     C50400   4.284   2.614   5.800  0.7471 -0.1089 -0.5472
  374MOL0     C50401   4.156   2.577   5.853  0.2804  0.0660 -0.3308
  374MOL0     O50402   3.953   2.356   5.874  0.0904 -0.2933 -0.4758
  374MOL0     C50403   3.705   2.324   5.992 -0.2133 -0.1325 -0.3512
  374MOL0     C50404   3.567   2.328   6.021  0.0990  0.5718  0.3227
  374MOL0     N50405   2.796   2.578   5.939  0.5732  0.7100 -0.0754
  374MOL0     N50406   2.691   2.640   5.889  0.0553 -0.4122  0.2267
  374MOL0     C50407   1.452   2.498   5.810 -0.6242  0.2545 -0.6172
  374MOL0     C50408   1.325   2.450   5.779  0.5429  0.1263  0.4237
  374MOL0     C50409   0.889   2.345   5.805  0.2092  0.0415 -0.0193
  374MOL0     C50410   0.818   2.294   5.911 -0.2601 -0.3678 -0.8331
  374MOL0     C50411   0.700   2.232   5.883 -0.7256 -0.1309  0.9832
  374MOL0     C50412   0.649   2.204   5.758 -0.7035  0.0971  0.8915
  374MOL0     O50413   0.526   2.151   5.752  0.5320 -0.0815 -0.0655
  374MOL0     C50414   0.462   2.142   5.619  0.8504 -0.1199 -0.4132
  374MOL0     C50415   0.329   2.065   5.641  0.0507 -0.0520  0.6361
  374MOL0     C50416   0.229   2.073   5.521 -0.0611  0.6577 -0.0155
  374MOL0     C50417   0.100   1.985   5.547 -0.8303 -0.2691  0.4702
  374MOL0     C50418   0.061   1.909   5.428  0.1304  0.3506  0.2688
  374MOL0     C50419   0.015   1.844   5.345  0.1037  0.3615 -0.1985
  374MOL0     C50420   0.727   2.258   5.646  0.5381 -0.6937 -1.0905
  374MOL0     C50421   0.851   2.326   5.668  0.3866  0.3240  0.5951
  374MOL0     C50422   0.927   2.382   5.550  0.0585  0.4923 -0.9030
  374MOL0     H50423   1.150   2.731   5.854  0.4382  1.4627  1.0315
  374MOL0     H50424   1.368   2.812   5.900  2.2725 -1.1062  2.3873
  374MOL0     H50425   1.570   2.877   5.934 -1.5798 -1.4528 -0.1118
  374MOL0     H50426   1.603   2.762   6.054 -1.0647  1.1151 -0.6507
  374MOL0     H50427   1.785   2.910   6.028 -4.5316 -1.8248  2.5629
  374MOL0     H50428   1.789   2.885   5.850  0.4401 -0.4591 -0.4608
  374MOL0     H50429   1.893   2.657   5.898 -0.1840 -1.1105  0.0447
  374MOL0     H50430   1.897   2.711   6.071  1.3757 -1.7662 -0.5284
  374MOL0     H50431   2.042   2.837   5.830 -1.0324  1.2626  0.7188
  374MOL0     H50432   2.034   2.914   5.982  1.7954  0.9083 -1.2162
  374MOL0     H50433   2.127   2.714   6.092 -0.7127  2.8460  0.4368
  374MOL0     H50434   2.169   2.648   5.930 -1.3701  0.6111 -0.1315
  374MOL0     H50435   2.297   2.896   5.899 -1.4054  1.4078  1.1814
  374MOL0     H50436   2.266   2.908   6.077 -0.6041  0.8783 -0.9032
  374MOL0     H50437   2.405   2.670   5.984  0.5108  0.3637  1.3840
  374MOL0     H50438   2.448   2.769   6.126 -1.3276 -1.9750  1.1939
  374MOL0     H50439   2.511   2.834   5.830  0.7113 -0.3894 -0.6497
  374MOL0     H50440   2.547   2.934   5.967 -2.1856  0.0134  0.2735
  374MOL0     H50441   2.731   2.829   6.166  0.2651  0.4473  0.3602
  374MOL0     H50442   2.931   2.687   6.245  2.2572  0.7870 -0.0806
  374MOL0     H50443   2.905   2.516   6.211  0.0669  0.1607 -0.6252
  374MOL0     H50444   3.053   2.556   6.000  2.5085 -0.0412  0.7293
  374MOL0     H50445   3.105   2.705   6.061  2.4183 -1.4720 -0.7292
  374MOL0     H50446   3.134   2.446   6.212 -0.8087  0.1822 -0.5241
  374MOL0     H50447   3.207   2.602   6.249  0.8952 -0.8444  0.1831
  374MOL0     H50448   3.361   2.604   6.066  1.5705 -1.1630 -0.7213
  374MOL0     H50449   3.286   2.458   6.001 -0.7184 -1.2857  0.6104
  374MOL0     H50450   3.583   2.596   6.230 -0.9719  0.1568 -1.4538
  374MOL0     H50451   3.815   2.584   6.185 -1.1736  0.0364  3.4834
  374MOL0     H50452   4.248   2.477   6.162 -1.0184 -2.9302 -0.4755
  374MOL0     H50453   4.480   2.518   6.059 -0.7244 -2.2311 -0.2740
  374MOL0     H50454   4.539   2.527   5.651  2.2952  1.1483 -1.4382
  374MOL0     H50455   4.521   2.706   5.659  2.6935  1.8319  0.3186
  374MOL0     H50456   4.753   2.607   5.604  2.7327 -1.9898  0.4629
  374MOL0     H50457   4.746   2.727   5.726 -2.1389  0.5758 -2.6472
  374MOL0     H50458   4.761   2.542   5.913  0.5919 -3.0934  0.7524
  374MOL0     H50459   4.775   2.430   5.771 -0.2977  0.0965 -0.5571
  374MOL0     H50460   4.974   2.663   5.812  1.4042 -0.1651 -0.4281
  374MOL0     H50461   4.990   2.520   5.702  0.5488 -1.4520  1.8067
  374MOL0     H50462   5.127   2.473   5.886  0.1152 -0.3617  0.0223
  374MOL0     H50463   4.988   2.376   5.906 -0.7303 -0.1545  0.7312
  374MOL0     H50464   5.053   2.644   6.048 -0.6605  0.2213  0.1736
  374MOL0     H50465   4.903   2.562   6.071  0.1664  1.5722  0.5757
  374MOL0     H50466   5.173   2.431   6.136  0.6856  2.5317 -0.4535
  374MOL0     H50467   5.006   2.375   6.173 -1.6722  1.2197 -0.0309
  374MOL0     H50468   5.146   2.506   6.355 -2.0589 -1.8479  0.6224
  374MOL0     H50469   5.105   2.642   6.241 -1.6904  1.0794  0.0950
  374MOL0     H50470   4.289   2.683   5.716  0.3169  1.2221  0.5046
  374MOL0     H50471   4.072   2.598   5.786  0.2648  1.5237  0.1034
  374MOL0     H50472   3.732   2.259   5.909  0.2188  2.2057 -2.1512
  374MOL0     H50473   3.493   2.259   5.983  1.2899 -0.5005 -0.1459
  374MOL0     H50474   1.535   2.428   5.800 -1.5471 -0.9269 -0.2137
  374MOL0     H50475   1.307   2.346   5.755  2.0529 -0.5301  1.9453
  374MOL0     H50476   0.843   2.312   6.015 -0.7865 -2.8553 -0.2320
  374MOL0     H50477   0.637   2.210   5.968 -3.5572  0.7171 -0.7597
  374MOL0     H50478   0.510   2.092   5.535  0.2661 -0.9152 -0.2897
  374MOL0     H50479   0.436   2.242   5.583  2.4132  0.2520 -0.5884
  374MOL0     H50480   0.270   2.102   5.726  1.3047 -0.1309  1.5692
  374MOL0     H50481   0.361   1.965   5.670  0.2621  0.1129  0.9778
  374MOL0     H50482   0.282   2.033   5.434 -2.2073 -0.9662 -0.6633
  374MOL0     H50483   0.204   2.176   5.497 -1.2625  0.5435  0.6919
  374MOL0     H50484   0.103   1.913   5.629  0.8448 -2.0742 -1.0660
  374MOL0     H50485   0.022   2.054   5.580 -0.4415  0.0625  0.6984
  374MOL0     H50486  -0.025   1.781   5.268 -1.6410  1.5884 -0.3555
  374MOL0     H50487   0.694   2.244   5.544 -1.1703 -0.1994 -0.6384
  374MOL0     H50488   1.031   2.347   5.553 -0.7033 -1.8671 -0.2371
  374MOL0     H50489   0.879   2.350   5.458 -0.5733 -3.3783  0.5745
  374MOL0     H50490   0.921   2.491   5.544 -1.3853  0.3769 -1.9725
  375MOL0     O50491   7.698   7.355   1.134  0.2814 -0.1756  0.3583
  375MOL0     C50492   7.811   7.336   1.106 -0.3885  0.0057  0.0573
  375MOL0     O50493   7.851   7.349   0.977 -0.2533 -0.0840 -0.1857
  375MOL0     C50494   7.762   7.373   0.872  0.5440  0.2440 -0.4289
  375MOL0     C50495   7.696   7.498   0.847 -0.4486  0.5136  0.5269
  375MOL0     C50496   7.588   7.495   0.749  0.0409  0.5232 -0.2358
  375MOL0     C50497   7.555   7.383   0.679  0.5392  0.5603 -0.0251
  375MOL0     O50498   7.455   7.390   0.591 -0.9459  0.2099  0.1222
  375MOL0     C50499   7.334   7.318   0.629  0.6651  0.5267  0.7644
  375MOL0     C50500   7.334   7.165   0.618 -0.9252 -0.3559 -0.4057
  375MOL0     C50501   7.345   7.105   0.471  0.1322 -0.2970 -0.6276
  375MOL0     C50502   7.436   6.978   0.472  0.0688  0.3074 -0.2855
  375MOL0     C50503   7.439   6.914   0.337  1.4566 -1.2374 -0.0952
  375MOL0     C50504   7.539   6.800   0.347 -0.3079 -0.0671  0.0378
  375MOL0     C50505   7.582   6.759   0.204  0.1022 -0.2841 -0.3867
  375MOL0     C50506   7.682   6.861   0.148  1.0166 -0.5081  0.1101
  375MOL0     N50507   7.824   6.805   0.135 -0.1014  0.2848 -0.2270
  375MOL0     C50508   7.845   6.701   0.047  0.1687  0.2821 -0.5516
  375MOL0     C50509   7.959   6.639   0.087  0.0868 -0.2405  0.4933
  375MOL0     C50510   8.038   6.533   0.010  0.3850 -0.3102  1.0900
  375MOL0     C50511   8.106   6.443   0.108 -0.3410  0.1828 -0.0697
  375MOL0     C50512   8.205   6.340   0.053 -0.9159  0.0136 -0.8119
  375MOL0     C50513   8.246   6.253   0.184  0.1968  0.2195 -0.0169
  375MOL0     O50514   8.376   6.286   0.241  0.5103 -0.5797 -0.0830
  375MOL0     C50515   8.493   6.239   0.186  0.2449  0.9166 -0.3943
  375MOL0     C50516   8.605   6.226   0.270  0.5218 -0.1534 -0.4546
  375MOL0     C50517   8.718   6.150   0.233 -0.1685 -0.5984  0.1985
  375MOL0     C50518   8.732   6.111   0.095 -0.3667  1.1463  0.1525
  375MOL0     C50519   8.846   6.021   0.058  0.0277  0.6196  0.2767
  375MOL0     O50520   8.941   6.010   0.154 -0.6107  0.0999 -0.0996
  375MOL0     C50521   9.075   5.993   0.129 -0.1137  0.2677  0.2392
  375MOL0     C50522   9.160   5.985   0.229  0.5331  0.5140 -0.4256
  375MOL0     C50523   9.300   5.961   0.220  0.2683 -0.8883  0.1584
  375MOL0     C50524   9.355   5.933   0.097 -0.0461  1.1408 -0.4016
  375MOL0     O50525   9.482   5.883   0.092 -0.4517  0.2777  0.3914
  375MOL0     C50526   9.571   5.953   0.003  0.3665  0.4015  0.3892
  375MOL0     C50527   9.715   5.896   0.021 -0.4736 -0.3154  0.0432
  375MOL0     C50528   9.817   5.970  -0.069  0.3375 -0.2209  0.4382
  375MOL0     C50529   9.900   6.079  -0.001  0.3824 -0.2007  1.4767
  375MOL0     C50530  10.010   6.147  -0.088  0.1258 -0.2009  0.5953
  375MOL0     C50531  10.121   6.202  -0.009 -0.3382 -0.8312  0.6837
  375MOL0     C50532  10.242   6.228  -0.096 -0.5680 -0.2652 -0.2445
  375MOL0     C50533  10.386   6.219  -0.028 -0.1215 -0.0574  0.0250
  375MOL0    Cl50534  10.424   6.045   0.008  0.2073 -0.1942 -0.3682
  375MOL0     C50535   9.274   5.947  -0.021 -1.0595  0.4058 -0.0637
  375MOL0     C50536   9.140   5.984  -0.003  0.5628  0.5995  0.4906
  375MOL0     O50537   8.848   5.964  -0.051 -0.1004  0.2768 -0.4715
  375MOL0     C50538   8.630   6.147   0.004  0.0820 -0.6567 -0.1825
  375MOL0     C50539   8.510   6.201   0.050 -0.8015  0.6726 -0.6256
  375MOL0     N50540   7.994   6.704   0.203 -0.1264 -0.5478  0.5876
  375MOL0     N50541   7.919   6.807   0.226  0.6597 -0.0145  0.4093
  375MOL0     C50542   7.643   7.275   0.685  0.3722  0.4620  0.3772
  375MOL0     C50543   7.742   7.271   0.783 -0.1893 -0.2726 -0.6217
  375MOL0     C50544   7.904   7.285   1.215  0.3223 -0.4935  0.9855
  375MOL0     C50545   8.033   7.243   1.191 -0.1059  0.2372 -0.8396
  375MOL0     C50546   8.117   7.188   1.293  0.8181  0.5201 -0.0007
  375MOL0     C50547   8.079   7.187   1.422  0.6585  0.7023  0.6563
  375MOL0     O50548   8.172   7.145   1.505 -0.0287 -0.2709  0.0995
  375MOL0     C50549   8.182   7.206   1.628 -0.1137  0.0928 -0.8117
  375MOL0     C50550   8.311   7.166   1.689 -0.2696 -0.1148 -0.5547
  375MOL0     C50551   8.444   7.219   1.625  0.1277 -0.4268 -0.3899
  375MOL0     C50552   8.542   7.279   1.718 -0.3349  0.4898  0.1111
  375MOL0     C50553   8.671   7.302   1.649 -0.3660 -0.3642 -0.7375
  375MOL0     C50554   8.770   7.310   1.583 -0.4958 -0.0902  0.0616
  375MOL0     C50555   7.952   7.238   1.448 -0.2872  0.6645 -0.8217
  375MOL0     C50556   7.858   7.280   1.350 -0.3889 -0.6325  0.2836
  375MOL0     C50557   7.720   7.317   1.393  0.4235 -0.4281 -0.3937
  375MOL0     H50558   7.723   7.592   0.894 -3.5807  2.3828 -1.0220
  375MOL0     H50559   7.517   7.577   0.749 -1.8002 -0.9726  1.0396
  375MOL0     H50560   7.302   7.342   0.731  2.6618  0.1041  1.5358
  375MOL0     H50561   7.249   7.351   0.568 -0.5209 -2.1185  0.8107
  375MOL0     H50562   7.241   7.128   0.660 -0.7487 -0.1732  0.1583
  375MOL0     H50563   7.424   7.127   0.667  1.2319  1.8886 -2.3235
  375MOL0     H50564   7.393   7.173   0.399 -1.4526  2.7175  0.9763
  375MOL0     H50565   7.245   7.078   0.437 -0.2511 -0.7366  0.7773
  375MOL0     H50566   7.535   7.015   0.499 -0.2396  1.2594 -0.3991
  375MOL0     H50567   7.412   6.907   0.552 -0.2525  0.1092 -0.5533
  375MOL0     H50568   7.340   6.871   0.319  0.8789  0.4981 -1.3415
  375MOL0     H50569   7.452   6.988   0.257 -0.8478 -0.8855 -0.2088
  375MOL0     H50570   7.631   6.822   0.402  1.4781 -1.1655 -2.3308
  375MOL0     H50571   7.491   6.719   0.402  2.2407 -1.8445 -0.2050
  375MOL0     H50572   7.502   6.754   0.129  0.0838  1.1342 -0.4858
  375MOL0     H50573   7.635   6.663   0.214 -1.1298 -0.7946  2.1648
  375MOL0     H50574   7.640   6.913   0.062  1.2097  1.8127  1.3434
  375MOL0     H50575   7.685   6.939   0.224 -4.1588 -0.8780  1.0602
  375MOL0     H50576   7.780   6.669  -0.033 -0.9827 -0.5989  0.6901
  375MOL0     H50577   7.980   6.479  -0.065  0.6648  1.5510 -0.5384
  375MOL0     H50578   8.108   6.585  -0.056  0.1165 -1.5210 -0.1879
  375MOL0     H50579   8.166   6.494   0.185  1.2638 -3.8430  1.6204
  375MOL0     H50580   8.023   6.395   0.162  0.1304  1.1749  1.6293
  375MOL0     H50581   8.299   6.382   0.017 -1.0033  0.5421 -0.4305
  375MOL0     H50582   8.167   6.280  -0.030  0.0922 -1.1572 -0.4606
  375MOL0     H50583   8.257   6.148   0.153  1.9154  0.0069  1.1837
  375MOL0     H50584   8.182   6.261   0.272  1.2192  0.3712  0.7337
  375MOL0     H50585   8.595   6.247   0.376 -0.9499  0.3589 -0.6730
  375MOL0     H50586   8.791   6.131   0.311 -1.5492  0.7267  1.8871
  375MOL0     H50587   9.110   5.998   0.324 -3.9377 -0.7514 -2.3354
  375MOL0     H50588   9.350   5.962   0.317 -1.2264  1.0061  0.9971
  375MOL0     H50589   9.544   5.952  -0.103 -0.8278  1.3112  0.6632
  375MOL0     H50590   9.576   6.056   0.039  1.5842  1.2347 -1.9695
  375MOL0     H50591   9.749   5.913   0.124  1.4069  1.6225 -0.8197
  375MOL0     H50592   9.702   5.789   0.005  0.3870 -0.4207 -0.0014
  375MOL0     H50593   9.884   5.891  -0.106  0.5864  0.1498  0.0873
  375MOL0     H50594   9.769   6.011  -0.158 -2.6240 -0.4723  1.8000
  375MOL0     H50595   9.941   6.038   0.092 -0.7200 -0.7555  1.7357
  375MOL0     H50596   9.824   6.155   0.015  0.3699 -0.0379  0.6930
  375MOL0     H50597   9.964   6.222  -0.154  2.1027 -0.7106 -1.4914
  375MOL0     H50598  10.051   6.083  -0.167 -0.8056  1.0402 -0.9653
  375MOL0     H50599  10.086   6.294   0.040  0.9463 -0.7523  1.4878
  375MOL0     H50600  10.140   6.141   0.079 -1.8440  1.0825  2.4590
  375MOL0     H50601  10.239   6.332  -0.129  0.6508  0.4162  1.6133
  375MOL0     H50602  10.242   6.154  -0.177 -1.3928  0.2161 -0.6960
  375MOL0     H50603  10.458   6.265  -0.096  0.3528  1.7571  1.6793
  375MOL0     H50604  10.392   6.281   0.062 -3.6683  1.5201 -0.6647
  375MOL0     H50605   9.314   5.935  -0.121  0.1993  5.0445 -0.3171
  375MOL0     H50606   9.083   5.993  -0.095 -0.5268 -2.3647  0.7633
  375MOL0     H50607   8.628   6.128  -0.103 -2.9975 -2.6357  0.1036
  375MOL0     H50608   8.432   6.213  -0.024  0.5516 -0.6496 -2.3655
  375MOL0     H50609   7.634   7.189   0.620  2.1393  0.7248 -0.2534
  375MOL0     H50610   7.812   7.189   0.797  2.5175  1.4776 -2.7998
  375MOL0     H50611   8.069   7.240   1.089 -1.7819  3.1577 -1.6231
  375MOL0     H50612   8.215   7.144   1.274 -0.0595 -0.2537 -3.3777
  375MOL0     H50613   8.095   7.185   1.690 -0.6559  1.7109 -0.9752
  375MOL0     H50614   8.180   7.315   1.617 -3.3197  0.3170  0.7821
  375MOL0     H50615   8.315   7.056   1.692 -0.1169 -0.2371 -3.1564
  375MOL0     H50616   8.307   7.199   1.793  0.0832  2.6234 -1.3282
  375MOL0     H50617   8.405   7.298   1.559  2.0113  1.1884  0.3431
  375MOL0     H50618   8.480   7.133   1.569 -2.4220 -2.2358  0.5311
  375MOL0     H50619   8.502   7.373   1.756  0.7282  1.3935 -0.9113
  375MOL0     H50620   8.570   7.215   1.803  0.6995  0.5578 -0.1609
  375MOL0     H50621   8.862   7.306   1.529 -0.5453  0.4940 -0.0761
  375MOL0     H50622   7.916   7.235   1.551  0.5410 -1.7300 -0.5377
  375MOL0     H50623   7.696   7.415   1.351  1.6212  0.0206 -0.0672
  375MOL0     H50624   7.639   7.248   1.367 -2.3473  2.4483 -0.0498
  375MOL0     H50625   7.716   7.327   1.502 -2.5901 -0.9985 -0.3763
  376MOL0     O50626   8.402  10.964   9.174  0.1045  0.2753  0.5296
  376MOL0     C50627   8.492  11.030   9.233  0.3940 -0.1265  0.1935
  376MOL0     O50628   8.495  11.166   9.238 -0.5529 -0.5034  0.4723
  376MOL0     C50629   8.400  11.245   9.183 -0.2991  0.2650  0.3793
  376MOL0     C50630   8.444  11.345   9.099 -0.5418 -0.0462  0.3268
  376MOL0     C50631   8.361  11.438   9.035 -0.0929 -0.0366 -0.5751
  376MOL0     C50632   8.232  11.441   9.082 -0.2825  0.3087 -0.1620
  376MOL0     O50633   8.136  11.536   9.040  0.5507  0.1464 -0.6358
  376MOL0     C50634   8.156  11.604   8.910  0.2546 -0.5672 -0.2636
  376MOL0     C50635   8.036  11.701   8.881 -0.7960  0.4401 -0.5952
  376MOL0     C50636   8.070  11.743   8.738 -0.0154  0.6751 -0.3666
  376MOL0     C50637   7.969  11.847   8.690 -0.2593 -0.2705  0.8507
  376MOL0     C50638   7.994  11.902   8.550  0.1903  0.8870 -0.0992
  376MOL0     C50639   8.086  12.021   8.554 -0.0439 -0.0087  0.1656
  376MOL0     C50640   8.154  12.048   8.423 -0.2419 -0.3490 -0.1657
  376MOL0     C50641   8.300  12.017   8.418 -0.7434  0.0511  0.0598
  376MOL0     N50642   8.362  12.064   8.299 -0.5178 -0.4995 -0.4445
  376MOL0     C50643   8.446  12.176   8.288  0.5666  0.0202 -0.4924
  376MOL0     C50644   8.507  12.169   8.170  0.4492  0.3677  0.0630
  376MOL0     C50645   8.590  12.283   8.127  0.0378  0.4258  0.2296
  376MOL0     C50646   8.739  12.264   8.111 -0.1945  0.5521 -0.6556
  376MOL0     C50647   8.772  12.139   8.023 -0.1026  0.2842  0.5684
  376MOL0     C50648   8.924  12.135   8.019  0.4684  0.1666 -0.0806
  376MOL0     O50649   8.981  12.246   7.945  0.0513  0.7274  1.0327
  376MOL0     C50650   9.113  12.252   7.914 -0.3210 -0.1713  0.4484
  376MOL0     C50651   9.203  12.143   7.920  0.5274  0.1282  0.3154
  376MOL0     C50652   9.335  12.146   7.882  0.5698 -0.9767 -0.4560
  376MOL0     C50653   9.391  12.260   7.822  1.0481  0.4587 -0.7801
  376MOL0     C50654   9.536  12.258   7.796 -0.1926  1.0240 -0.2317
  376MOL0     O50655   9.608  12.142   7.832  0.3673  0.4923  0.3867
  376MOL0     C50656   9.744  12.143   7.847 -1.1981 -0.4497 -0.2012
  376MOL0     C50657   9.798  12.015   7.851 -0.4727 -0.1064  1.1922
  376MOL0     C50658   9.935  11.989   7.849 -0.2877  0.6869  0.0012
  376MOL0     C50659  10.021  12.098   7.866 -1.4100 -0.5697  0.2270
  376MOL0     O50660  10.161  12.063   7.870 -0.4484 -0.3026 -0.0028
  376MOL0     C50661  10.255  12.177   7.839 -0.7484  0.1505  0.1010
  376MOL0     C50662  10.378  12.111   7.776 -0.5582 -0.8117 -0.3625
  376MOL0     C50663  10.488  12.222   7.771  0.0167 -0.2960  0.1479
  376MOL0     C50664  10.611  12.174   7.697  0.7859 -0.0043  0.1252
  376MOL0     C50665  10.718  12.289   7.681 -0.0266 -0.5755  0.8709
  376MOL0     C50666  10.770  12.351   7.806 -1.5738  0.0436 -0.2996
  376MOL0     C50667  10.837  12.264   7.908 -0.1330 -0.0725 -0.2081
  376MOL0     C50668  10.837  12.354   8.035  0.6020 -0.1410  0.4377
  376MOL0    Cl50669  10.950  12.496   8.031  0.1583  0.6392 -0.0631
  376MOL0     C50670   9.970  12.232   7.871  0.2555  0.4406  0.5091
  376MOL0     C50671   9.835  12.250   7.852  0.4208 -0.4043 -0.0308
  376MOL0     O50672   9.582  12.359   7.742 -0.5531  0.7439 -0.6311
  376MOL0     C50673   9.301  12.364   7.795 -0.1522  0.6922  0.5750
  376MOL0     C50674   9.165  12.359   7.838  0.1468 -0.8478 -0.3055
  376MOL0     N50675   8.466  12.053   8.097  0.3648  0.0501 -0.3698
  376MOL0     N50676   8.380  11.987   8.182  0.1142  0.2906  1.1343
  376MOL0     C50677   8.184  11.343   9.175  0.5439  0.3501  0.2108
  376MOL0     C50678   8.269  11.242   9.218 -0.0885  0.4115  0.0118
  376MOL0     C50679   8.597  10.967   9.313 -0.9480  0.2508 -0.5782
  376MOL0     C50680   8.696  11.046   9.375  0.2723 -0.1980  0.3566
  376MOL0     C50681   8.787  10.993   9.462 -0.0420 -0.2601  0.1926
  376MOL0     C50682   8.797  10.855   9.468  0.1643 -0.6033  0.4028
  376MOL0     O50683   8.896  10.790   9.527 -0.5833  0.2264 -0.0574
  376MOL0     C50684   8.973  10.870   9.614  0.1605 -0.0263  0.3594
  376MOL0     C50685   9.074  10.783   9.684 -0.0697 -0.1950  0.8074
  376MOL0     C50686   9.199  10.852   9.751  0.5158 -0.0637 -0.2674
  376MOL0     C50687   9.234  10.796   9.889 -0.0371 -0.3010  0.7576
  376MOL0     C50688   9.126  10.822   9.981  0.2886 -0.9551 -0.1514
  376MOL0     C50689   9.029  10.842  10.064  0.4552 -0.1722  0.1181
  376MOL0     C50690   8.697  10.778   9.420 -0.4184  0.2562  0.0810
  376MOL0     C50691   8.596  10.825   9.341  0.8117  0.7185 -0.9579
  376MOL0     C50692   8.501  10.724   9.292  0.1442  0.2317 -0.0728
  376MOL0     H50693   8.548  11.353   9.070 -1.1519 -0.0263 -2.0525
  376MOL0     H50694   8.395  11.518   8.970  0.5557 -0.1091 -0.3372
  376MOL0     H50695   8.242  11.671   8.914  0.9084 -1.3495 -0.8570
  376MOL0     H50696   8.160  11.536   8.825  4.8555  0.5747 -1.2200
  376MOL0     H50697   8.027  11.779   8.957 -0.2362  0.7226 -0.8085
  376MOL0     H50698   7.943  11.644   8.891  0.0136 -0.5531  2.0055
  376MOL0     H50699   8.059  11.655   8.675  0.9974 -0.7607  1.3907
  376MOL0     H50700   8.167  11.794   8.732  0.3608  0.5823  3.0316
  376MOL0     H50701   7.871  11.798   8.697 -0.0230 -0.9913 -0.5882
  376MOL0     H50702   7.963  11.935   8.755  0.4332  0.5862 -0.2085
  376MOL0     H50703   8.045  11.826   8.490 -0.8552 -0.4755  0.6810
  376MOL0     H50704   7.901  11.931   8.502  0.3732  0.1135 -0.9583
  376MOL0     H50705   8.021  12.106   8.576  1.8765  1.6057 -0.1096
  376MOL0     H50706   8.163  12.023   8.632  0.4955 -0.8308 -0.3270
  376MOL0     H50707   8.136  12.154   8.403  1.1794  0.0467  0.5550
  376MOL0     H50708   8.108  11.993   8.341 -1.3513 -0.7298  0.6773
  376MOL0     H50709   8.357  12.045   8.507 -1.3515 -0.5427  0.6481
  376MOL0     H50710   8.307  11.908   8.414  1.3114  0.0701  1.7360
  376MOL0     H50711   8.449  12.260   8.357 -1.7043  1.4419 -1.9722
  376MOL0     H50712   8.548  12.311   8.030 -0.5384 -0.0286  0.3459
  376MOL0     H50713   8.574  12.361   8.202  0.4198 -0.9837  1.8352
  376MOL0     H50714   8.777  12.353   8.060 -2.0868  0.8974 -1.5490
  376MOL0     H50715   8.790  12.239   8.205 -3.2351 -3.0881  0.2653
  376MOL0     H50716   8.737  12.157   7.921 -0.4991 -0.4123  0.5730
  376MOL0     H50717   8.734  12.042   8.057  1.8717 -1.9083 -2.8812
  376MOL0     H50718   8.944  12.047   7.957 -1.6101 -1.7386  1.7764
  376MOL0     H50719   8.971  12.125   8.117  3.3568 -0.0216 -1.3953
  376MOL0     H50720   9.169  12.043   7.944 -0.2242  0.1655 -0.5286
  376MOL0     H50721   9.408  12.067   7.893  2.3200  0.4859 -1.1171
  376MOL0     H50722   9.741  11.925   7.834  2.0589 -1.7178  0.7746
  376MOL0     H50723   9.976  11.889   7.840 -2.6737 -0.3906  0.2705
  376MOL0     H50724  10.213  12.246   7.764 -1.3560 -1.0691 -0.7045
  376MOL0     H50725  10.287  12.229   7.930  1.4632 -0.3813 -0.3012
  376MOL0     H50726  10.417  12.029   7.837  0.3749 -0.7494 -0.8692
  376MOL0     H50727  10.343  12.065   7.683 -0.6557 -1.3932 -0.0419
  376MOL0     H50728  10.451  12.311   7.720 -1.7989 -1.9089 -1.4892
  376MOL0     H50729  10.511  12.247   7.875 -2.1881 -0.6540  0.7636
  376MOL0     H50730  10.582  12.130   7.601  3.7138  2.3531 -2.0125
  376MOL0     H50731  10.654  12.086   7.748  2.8252  0.6179 -0.4319
  376MOL0     H50732  10.674  12.366   7.617 -0.9653 -1.5133  0.3568
  376MOL0     H50733  10.803  12.253   7.622  1.0032  0.3201  1.7444
  376MOL0     H50734  10.845  12.423   7.773  0.0132 -0.4222  2.0312
  376MOL0     H50735  10.686  12.408   7.847  0.1833  2.7262 -0.1935
  376MOL0     H50736  10.939  12.227   7.893 -0.6450 -1.0145 -1.5661
  376MOL0     H50737  10.781  12.173   7.934  0.0868 -0.0714  0.2749
  376MOL0     H50738  10.734  12.389   8.047 -1.3466 -2.6259 -5.5006
  376MOL0     H50739  10.864  12.307   8.130 -1.1735 -0.5813  0.7620
  376MOL0     H50740  10.024  12.323   7.898 -0.9293  0.8727  1.5111
  376MOL0     H50741   9.802  12.353   7.842 -1.3367 -0.8176  1.1066
  376MOL0     H50742   9.337  12.446   7.734  2.8121 -0.6333  0.3869
  376MOL0     H50743   9.094  12.439   7.822  0.2547 -0.6344  0.2651
  376MOL0     H50744   8.079  11.338   9.205  0.7851 -0.4994  0.9632
  376MOL0     H50745   8.232  11.163   9.282  2.0499 -0.8934 -0.2949
  376MOL0     H50746   8.704  11.150   9.345  0.5264 -0.5880 -0.9828
  376MOL0     H50747   8.854  11.057   9.518 -1.3465 -0.7641  2.4514
  376MOL0     H50748   8.914  10.934   9.680  2.1556  3.9328 -1.3717
  376MOL0     H50749   9.032  10.941   9.555  0.2856  0.3773  0.9680
  376MOL0     H50750   9.115  10.704   9.620  0.4436 -0.6722  1.7059
  376MOL0     H50751   9.008  10.732   9.755  1.3989 -2.4211  0.6800
  376MOL0     H50752   9.184  10.960   9.759 -3.9521 -0.5885  0.7926
  376MOL0     H50753   9.283  10.836   9.682 -1.6828 -1.6408 -2.7439
  376MOL0     H50754   9.273  10.694   9.880  4.1642  1.1708 -0.3749
  376MOL0     H50755   9.320  10.856   9.922  0.0821 -0.5967  0.9878
  376MOL0     H50756   8.938  10.843  10.120  0.9563  0.4684  0.9516
  376MOL0     H50757   8.690  10.676   9.455  2.3884  0.7678  2.5057
  376MOL0     H50758   8.514  10.714   9.184 -1.4482 -0.9743 -0.1907
  376MOL0     H50759   8.505  10.627   9.341  0.8941  1.6572  2.9167
  376MOL0     H50760   8.401  10.760   9.320  1.2753  2.9242  0.8891
  377MOL0     O50761   4.847   4.212   7.238 -0.3124  0.7507  0.5369
  377MOL0     C50762   4.840   4.255   7.349 -0.1928 -0.0268 -0.0493
  377MOL0     O50763   4.935   4.333   7.407  0.0353  0.2491 -0.3564
  377MOL0     C50764   5.070   4.319   7.374  0.1807  0.0478 -0.1986
  377MOL0     C50765   5.131   4.254   7.262 -0.1118 -0.2732 -0.6027
  377MOL0     C50766   5.272   4.268   7.252  0.2250 -0.3496 -1.0431
  377MOL0     C50767   5.360   4.327   7.344 -0.2595 -0.1991 -0.6477
  377MOL0     O50768   5.499   4.327   7.329  0.4212  0.8718  0.5164
  377MOL0     C50769   5.566   4.237   7.240 -0.2703 -0.0720 -0.3240
  377MOL0     C50770   5.714   4.250   7.275 -0.4355 -0.2799  0.0303
  377MOL0     C50771   5.768   4.385   7.207  0.0198  0.2403  0.2985
  377MOL0     C50772   5.923   4.398   7.218  0.8123 -0.3689 -0.1047
  377MOL0     C50773   5.993   4.517   7.148 -0.0916  0.1684  0.0881
  377MOL0     C50774   6.136   4.533   7.203  0.0884 -0.1291  0.5434
  377MOL0     C50775   6.177   4.679   7.215 -0.5795 -0.3740  0.4493
  377MOL0     C50776   6.201   4.746   7.080 -0.0457 -0.3370 -0.0491
  377MOL0     N50777   6.325   4.715   7.013  0.0984  0.1594  0.2367
  377MOL0     C50778   6.325   4.634   6.898  0.3048  0.4332 -0.0107
  377MOL0     C50779   6.447   4.668   6.833 -0.3546  0.3454 -0.8221
  377MOL0     C50780   6.483   4.623   6.694  0.1409 -0.4485 -0.6549
  377MOL0     C50781   6.632   4.561   6.691  0.1647  0.1227 -0.4598
  377MOL0     C50782   6.741   4.669   6.708  0.2890  0.1056  0.6984
  377MOL0     C50783   6.866   4.595   6.675  0.0680 -0.2515  0.0082
  377MOL0     O50784   6.967   4.692   6.670  0.8538 -0.5581  0.4091
  377MOL0     C50785   7.101   4.650   6.673 -0.8286 -0.1612  0.5759
  377MOL0     C50786   7.144   4.512   6.662 -0.0821  0.0933 -1.5383
  377MOL0     C50787   7.273   4.471   6.664 -0.3397 -0.1545  1.2507
  377MOL0     C50788   7.374   4.566   6.678 -0.7693 -0.1770 -0.5239
  377MOL0     C50789   7.514   4.533   6.705 -0.0714 -0.4204 -0.2777
  377MOL0     O50790   7.536   4.402   6.732 -0.2738  0.0981  0.3073
  377MOL0     C50791   7.665   4.350   6.706 -0.0877 -0.3755  0.1256
  377MOL0     C50792   7.664   4.226   6.633 -0.8340 -0.7769 -0.6960
  377MOL0     C50793   7.782   4.160   6.602 -0.9937  0.5644  0.1365
  377MOL0     C50794   7.908   4.213   6.639 -0.3874  0.6340 -1.5136
  377MOL0     O50795   8.011   4.133   6.589 -0.5078 -0.0690 -0.3339
  377MOL0     C50796   8.143   4.182   6.605 -0.4931  0.8983  0.3242
  377MOL0     C50797   8.245   4.093   6.522 -0.0485 -0.0969 -0.4716
  377MOL0     C50798   8.392   4.108   6.565 -0.0685 -0.2507 -0.1356
  377MOL0     C50799   8.481   4.003   6.497  0.5590  0.6178  0.1612
  377MOL0     C50800   8.461   3.876   6.587 -0.9818 -0.3014 -0.1161
  377MOL0     C50801   8.522   3.757   6.527 -0.3313  0.5898  0.9728
  377MOL0     C50802   8.486   3.637   6.616  0.8510 -0.1237  0.3562
  377MOL0     C50803   8.547   3.516   6.543 -0.1474 -0.7928  0.0510
  377MOL0    Cl50804   8.724   3.524   6.549 -0.1399 -0.3420 -0.3679
  377MOL0     C50805   7.905   4.332   6.718 -0.4137  0.2566 -0.9182
  377MOL0     C50806   7.784   4.400   6.745 -0.3050 -0.0013 -0.5043
  377MOL0     O50807   7.601   4.618   6.683 -0.1168  0.4419  0.1991
  377MOL0     C50808   7.340   4.709   6.690  0.6121  0.4676 -0.4216
  377MOL0     C50809   7.202   4.749   6.687 -0.5393  0.8648 -0.6956
  377MOL0     N50810   6.513   4.755   6.913  0.0675  0.5163 -0.5901
  377MOL0     N50811   6.442   4.785   7.016 -0.1872  0.1018  0.0305
  377MOL0     C50812   5.293   4.386   7.452  0.1639 -0.0165  0.2245
  377MOL0     C50813   5.152   4.390   7.460  0.3411  0.2702  1.5042
  377MOL0     C50814   4.722   4.236   7.435  0.1195 -0.2734  0.5133
  377MOL0     C50815   4.598   4.237   7.368 -0.4801  0.1965  0.4672
  377MOL0     C50816   4.478   4.206   7.438  0.8502  0.5177 -0.3914
  377MOL0     C50817   4.484   4.196   7.575  0.5134 -0.5032 -0.4306
  377MOL0     O50818   4.363   4.167   7.647 -0.4156  0.4634  0.4438
  377MOL0     C50819   4.311   4.275   7.714 -1.3060 -0.9056  0.0249
  377MOL0     C50820   4.200   4.338   7.626 -0.3292 -0.3361 -0.3477
  377MOL0     C50821   4.081   4.249   7.594  0.0435  0.2916 -0.3111
  377MOL0     C50822   3.945   4.327   7.573  0.6118  0.0662  0.8595
  377MOL0     C50823   3.873   4.360   7.698  0.0088  0.0506 -0.1599
  377MOL0     C50824   3.816   4.387   7.805 -0.3157  0.0829  0.1841
  377MOL0     C50825   4.600   4.217   7.647 -0.9177 -0.6382  0.3515
  377MOL0     C50826   4.725   4.224   7.580 -0.5156 -0.2122  0.2233
  377MOL0     C50827   4.854   4.222   7.655 -0.3560 -0.1416 -0.4132
  377MOL0     H50828   5.088   4.196   7.181  3.2095 -1.5180 -1.6878
  377MOL0     H50829   5.317   4.221   7.165 -1.9848  1.7353 -3.5035
  377MOL0     H50830   5.538   4.135   7.266  1.2154  0.0426  2.0773
  377MOL0     H50831   5.552   4.263   7.135 -1.5673  0.9444  0.0733
  377MOL0     H50832   5.768   4.160   7.245  0.2005 -0.7627  2.4059
  377MOL0     H50833   5.725   4.264   7.383 -0.7000 -0.2424  0.0517
  377MOL0     H50834   5.723   4.473   7.254 -1.1301 -0.6116  0.8481
  377MOL0     H50835   5.754   4.384   7.099 -0.3649  1.3489  0.3260
  377MOL0     H50836   5.948   4.407   7.324  3.7456 -0.3698 -0.7114
  377MOL0     H50837   5.968   4.305   7.182 -1.5589 -0.6771 -2.5740
  377MOL0     H50838   6.001   4.503   7.040 -0.1024 -0.8097  0.2010
  377MOL0     H50839   5.942   4.611   7.171  0.8076  0.7948 -0.4050
  377MOL0     H50840   6.150   4.495   7.305  1.0530  2.3809  1.4266
  377MOL0     H50841   6.199   4.481   7.130 -3.2108 -0.9511 -1.9436
  377MOL0     H50842   6.262   4.681   7.284  0.0256 -4.3534  0.1009
  377MOL0     H50843   6.105   4.736   7.274  0.3744  0.6878  0.6164
  377MOL0     H50844   6.111   4.732   7.020 -0.3174  0.3203  0.2081
  377MOL0     H50845   6.211   4.852   7.103 -0.5714 -0.3790  0.3969
  377MOL0     H50846   6.236   4.585   6.860 -2.6780  2.9403  3.0661
  377MOL0     H50847   6.423   4.537   6.661  0.1595 -2.3273  3.5491
  377MOL0     H50848   6.467   4.714   6.635 -1.4265  0.8753  1.6543
  377MOL0     H50849   6.640   4.485   6.769  1.3887  0.7270  0.0287
  377MOL0     H50850   6.641   4.513   6.593 -2.4318  2.7157 -2.1368
  377MOL0     H50851   6.750   4.709   6.809 -1.6982 -1.8970  1.7281
  377MOL0     H50852   6.721   4.744   6.630 -1.1170 -3.0517 -2.2341
  377MOL0     H50853   6.853   4.539   6.581  3.8362  1.3112 -1.6598
  377MOL0     H50854   6.886   4.517   6.750  1.9064  0.8742  0.7512
  377MOL0     H50855   7.072   4.433   6.642 -2.5040  0.8801  2.9267
  377MOL0     H50856   7.292   4.367   6.642  1.3813  0.1673  1.0625
  377MOL0     H50857   7.565   4.193   6.603 -2.4495  1.5366  1.5626
  377MOL0     H50858   7.773   4.069   6.543 -2.3268 -0.3966  1.7132
  377MOL0     H50859   8.145   4.287   6.574  0.7952 -0.0268 -3.0896
  377MOL0     H50860   8.172   4.172   6.710 -0.2440  1.6917  0.3401
  377MOL0     H50861   8.217   3.988   6.536  0.8412 -0.0156  2.9395
  377MOL0     H50862   8.238   4.118   6.416 -0.5010 -1.4138 -0.7682
  377MOL0     H50863   8.417   4.212   6.539 -0.8773  0.2828  1.1290
  377MOL0     H50864   8.405   4.102   6.673 -2.1645  2.7409  0.4229
  377MOL0     H50865   8.584   4.040   6.493  0.1739  1.6226 -2.9882
  377MOL0     H50866   8.446   3.997   6.393  0.6507  3.4605 -0.1248
  377MOL0     H50867   8.359   3.846   6.613 -0.1151 -2.2574  1.2408
  377MOL0     H50868   8.504   3.898   6.685 -3.2171  1.9030  0.4951
  377MOL0     H50869   8.478   3.737   6.429 -2.3195 -1.0815  2.1311
  377MOL0     H50870   8.628   3.783   6.514 -0.4387 -0.1167 -2.0183
  377MOL0     H50871   8.378   3.643   6.628  0.8173  0.1224 -0.0357
  377MOL0     H50872   8.541   3.633   6.710  1.3531 -2.5574  0.0323
  377MOL0     H50873   8.505   3.424   6.584 -3.0967 -0.5494 -2.0870
  377MOL0     H50874   8.526   3.512   6.435  0.8371 -1.9137 -0.1226
  377MOL0     H50875   7.993   4.379   6.761 -1.7419  1.4713  0.6218
  377MOL0     H50876   7.785   4.490   6.806 -1.1112 -0.9493  0.9640
  377MOL0     H50877   7.418   4.784   6.705  2.9180 -2.2371  2.4194
  377MOL0     H50878   7.191   4.856   6.679 -0.7325  1.2654  3.0102
  377MOL0     H50879   5.362   4.430   7.524  0.2550 -0.1863  0.2404
  377MOL0     H50880   5.101   4.449   7.535 -1.6802  0.3387  0.1739
  377MOL0     H50881   4.608   4.250   7.260 -1.6596 -2.1531  0.0056
  377MOL0     H50882   4.382   4.192   7.390 -0.4913  3.2564  1.2804
  377MOL0     H50883   4.386   4.353   7.732 -2.1035 -0.2850  0.7425
  377MOL0     H50884   4.275   4.242   7.812 -2.3319  1.6323  0.5887
  377MOL0     H50885   4.243   4.382   7.535 -1.0999  1.6604  0.2005
  377MOL0     H50886   4.168   4.426   7.683 -0.3339 -1.2633  1.1345
  377MOL0     H50887   4.079   4.176   7.674  1.3000  0.7704  0.1749
  377MOL0     H50888   4.114   4.197   7.504 -0.6306  1.0098 -0.9938
  377MOL0     H50889   3.966   4.415   7.511 -1.0189  0.4641  0.8296
  377MOL0     H50890   3.870   4.268   7.519 -1.4296  3.2334 -0.1033
  377MOL0     H50891   3.768   4.404   7.899 -1.2471 -2.3721  0.2208
  377MOL0     H50892   4.613   4.204   7.755  2.5665 -0.0874  0.1255
  377MOL0     H50893   4.931   4.169   7.597  2.5346  0.7697  2.2841
  377MOL0     H50894   4.892   4.325   7.657  1.2982 -0.6698 -1.6283
  377MOL0     H50895   4.843   4.168   7.749  2.1338 -3.1848 -1.6737
  378MOL0     O50896   5.829   4.257   5.647  0.0684  0.5008 -0.4120
  378MOL0     C50897   5.829   4.377   5.614  0.1205 -0.1735  0.4723
  378MOL0     O50898   5.877   4.476   5.694 -0.5994  0.5398 -0.3385
  378MOL0     C50899   5.932   4.442   5.815 -0.3629 -0.0188  0.3705
  378MOL0     C50900   6.055   4.384   5.826 -0.3395 -0.3931  1.1736
  378MOL0     C50901   6.117   4.376   5.948  0.5772  0.1686 -0.1166
  378MOL0     C50902   6.049   4.409   6.064 -0.2824 -0.3239  0.7664
  378MOL0     O50903   6.097   4.404   6.189 -0.1274  0.1322 -0.5765
  378MOL0     C50904   6.223   4.349   6.223 -0.9648 -0.3031  0.7878
  378MOL0     C50905   6.340   4.455   6.215 -0.4006  0.5584 -0.3167
  378MOL0     C50906   6.466   4.422   6.304 -0.0464  0.1841 -0.7747
  378MOL0     C50907   6.543   4.299   6.257 -0.0773  0.3259  0.3934
  378MOL0     C50908   6.679   4.284   6.327  0.4883  0.1727  0.5273
  378MOL0     C50909   6.808   4.323   6.245 -0.4425  0.8198  0.6302
  378MOL0     C50910   6.937   4.298   6.322  1.2074  0.0552 -0.2594
  378MOL0     C50911   7.059   4.338   6.248  0.5802  0.0220 -0.4997
  378MOL0     N50912   7.184   4.263   6.293  0.4002  0.0508  0.4236
  378MOL0     C50913   7.308   4.260   6.227  0.4364 -0.2476 -0.0154
  378MOL0     C50914   7.380   4.182   6.300 -0.3938  0.3984  0.1051
  378MOL0     C50915   7.518   4.133   6.248 -0.2529 -0.2991 -0.1927
  378MOL0     C50916   7.526   3.982   6.247  0.0442  0.2850 -0.1674
  378MOL0     C50917   7.649   3.925   6.185 -0.2047  0.6222  0.4957
  378MOL0     C50918   7.784   4.001   6.197 -0.8015 -0.2885  0.1784
  378MOL0     O50919   7.869   3.942   6.100 -0.0930  0.4321  0.0235
  378MOL0     C50920   7.996   3.993   6.092 -0.2121 -0.2457 -0.6298
  378MOL0     C50921   8.097   3.937   6.011 -0.5374 -0.4229 -0.2341
  378MOL0     C50922   8.226   3.978   6.019  0.4269  0.3394  0.1925
  378MOL0     C50923   8.269   4.093   6.094  0.5915  0.3699  0.2711
  378MOL0     C50924   8.409   4.139   6.093  0.7702  0.2323 -0.0288
  378MOL0     O50925   8.493   4.064   6.011 -0.1494 -0.1220 -0.3178
  378MOL0     C50926   8.631   4.090   6.014 -0.3983  0.2792  1.2747
  378MOL0     C50927   8.707   4.074   5.891  1.2309  0.4457 -0.1865
  378MOL0     C50928   8.844   4.084   5.890  0.5818  0.8512  0.3472
  378MOL0     C50929   8.916   4.100   6.002 -0.6376  0.2010  0.3420
  378MOL0     O50930   9.052   4.111   5.973  0.5876  0.6757  0.3582
  378MOL0     C50931   9.148   4.130   6.071  0.1183 -0.5467 -0.2921
  378MOL0     C50932   9.277   4.172   5.997  0.0247 -0.3292  0.1699
  378MOL0     C50933   9.394   4.189   6.086  0.5952 -0.1668  0.5265
  378MOL0     C50934   9.513   4.218   5.997  0.5590  0.5109 -0.2329
  378MOL0     C50935   9.635   4.253   6.075  0.1328  0.3183 -0.5207
  378MOL0     C50936   9.759   4.265   5.983 -0.6199  0.2742 -0.2074
  378MOL0     C50937   9.884   4.329   6.040 -0.4552 -0.4285 -0.5320
  378MOL0     C50938   9.992   4.358   5.935  0.4362 -0.3320 -0.3774
  378MOL0    Cl50939  10.146   4.416   6.021 -0.0370 -0.2803  0.0946
  378MOL0     C50940   8.851   4.108   6.125 -0.3293  0.2706  0.3372
  378MOL0     C50941   8.713   4.095   6.133  0.3867  0.3945  0.1922
  378MOL0     O50942   8.437   4.239   6.160 -0.2337 -1.1754 -0.2473
  378MOL0     C50943   8.171   4.165   6.164 -0.3105  0.4118 -0.3010
  378MOL0     C50944   8.044   4.111   6.165 -0.0829  0.1674  0.6999
  378MOL0     N50945   7.312   4.130   6.408  0.6995  0.2771  0.0574
  378MOL0     N50946   7.196   4.182   6.405 -1.4881  0.4181 -1.0421
  378MOL0     C50947   5.919   4.456   6.050  0.7401  1.5043 -0.0264
  378MOL0     C50948   5.857   4.476   5.924 -0.3774 -0.3422  0.6550
  378MOL0     C50949   5.773   4.416   5.485 -0.1701  0.5087 -0.2086
  378MOL0     C50950   5.754   4.552   5.478  1.0597  0.1285  0.3087
  378MOL0     C50951   5.682   4.603   5.371  0.3487  0.6452 -0.6156
  378MOL0     C50952   5.626   4.518   5.278 -0.2529  0.6042 -0.5957
  378MOL0     O50953   5.554   4.578   5.180 -0.5392 -0.1871  0.0453
  378MOL0     C50954   5.451   4.499   5.119 -0.5854 -0.0889  0.3298
  378MOL0     C50955   5.337   4.480   5.221  0.1587 -0.0195  0.1084
  378MOL0     C50956   5.210   4.402   5.160 -0.2844  0.7556 -0.3995
  378MOL0     C50957   5.224   4.245   5.175 -0.1761 -0.2124  0.6006
  378MOL0     C50958   5.225   4.207   5.315 -0.0918  0.7128 -0.0945
  378MOL0     C50959   5.225   4.174   5.433 -0.6897 -0.2256  0.3981
  378MOL0     C50960   5.653   4.376   5.277  0.0696 -0.6327 -1.0332
  378MOL0     C50961   5.727   4.322   5.381 -0.0578 -0.7073  0.0125
  378MOL0     C50962   5.754   4.172   5.371 -0.0073 -0.2425 -0.5453
  378MOL0     H50963   6.114   4.383   5.735  0.2595 -1.4483  1.5558
  378MOL0     H50964   6.221   4.347   5.962 -0.1050 -1.0617  3.5361
  378MOL0     H50965   6.217   4.319   6.329  0.8415 -1.4215  0.6069
  378MOL0     H50966   6.242   4.258   6.166  1.8146  0.7945 -0.1956
  378MOL0     H50967   6.294   4.550   6.243 -3.8945 -1.1031  0.2331
  378MOL0     H50968   6.370   4.463   6.110  1.5643  0.3562  0.1879
  378MOL0     H50969   6.435   4.407   6.407  0.6133 -0.8509 -0.7134
  378MOL0     H50970   6.534   4.508   6.299  2.7633 -1.6799  1.5999
  378MOL0     H50971   6.484   4.208   6.269 -1.4814  0.9722 -1.2825
  378MOL0     H50972   6.570   4.315   6.153  0.5540  0.3754  0.5615
  378MOL0     H50973   6.671   4.345   6.417 -1.2989  0.1897  0.3937
  378MOL0     H50974   6.689   4.178   6.356  0.0220  0.1693  0.7016
  378MOL0     H50975   6.803   4.266   6.152 -1.2992 -0.4868  1.4581
  378MOL0     H50976   6.811   4.431   6.224 -0.0945  0.7649  0.3882
  378MOL0     H50977   6.949   4.190   6.333  0.8710  0.0235 -0.1844
  378MOL0     H50978   6.942   4.337   6.424 -0.1647 -2.6096  0.9228
  378MOL0     H50979   7.053   4.322   6.140 -0.6483 -0.1029 -0.4241
  378MOL0     H50980   7.068   4.446   6.265 -0.5290 -0.3102  3.1026
  378MOL0     H50981   7.339   4.305   6.134 -0.2902  3.5780  1.3927
  378MOL0     H50982   7.529   4.160   6.143  0.7761  0.2437  0.0459
  378MOL0     H50983   7.592   4.181   6.312 -1.8803  0.2730  1.3403
  378MOL0     H50984   7.524   3.947   6.351 -1.4503 -1.0470 -0.6147
  378MOL0     H50985   7.437   3.942   6.197 -0.5470  0.8861  0.3816
  378MOL0     H50986   7.630   3.913   6.078  0.1559  0.6308  0.4290
  378MOL0     H50987   7.667   3.825   6.224 -0.9334 -0.5568 -2.0230
  378MOL0     H50988   7.824   3.983   6.297  0.9485 -1.2700 -0.6364
  378MOL0     H50989   7.769   4.108   6.180 -0.6034 -0.1977  0.5690
  378MOL0     H50990   8.085   3.846   5.953  1.7132  0.4996 -2.3317
  378MOL0     H50991   8.296   3.921   5.959  1.2652  2.0164 -0.4827
  378MOL0     H50992   8.649   4.063   5.799  0.7479  0.3969  0.1182
  378MOL0     H50993   8.881   4.083   5.789 -1.8760  0.3643 -0.6276
  378MOL0     H50994   9.113   4.215   6.130 -0.4807 -1.1758  0.2803
  378MOL0     H50995   9.165   4.039   6.129  0.2996 -0.3973 -0.1088
  378MOL0     H50996   9.298   4.093   5.923  2.4110  1.5058 -1.2523
  378MOL0     H50997   9.256   4.266   5.945  0.0250  0.0940  0.9183
  378MOL0     H50998   9.390   4.270   6.159  5.8541  0.0890  0.9288
  378MOL0     H50999   9.403   4.091   6.133  0.4740 -1.1152 -1.3310
  378MOL0     H51000   9.482   4.302   5.934  0.6232  1.5187  1.0391
  378MOL0     H51001   9.533   4.125   5.942  0.4891  0.6914 -0.5638
  378MOL0     H51002   9.664   4.181   6.153 -1.4471  0.3168  0.0900
  378MOL0     H51003   9.618   4.344   6.132 -0.2040  0.3253 -0.6317
  378MOL0     H51004   9.775   4.165   5.941 -2.0995 -0.8169  1.6447
  378MOL0     H51005   9.719   4.317   5.896 -1.1871  0.0520 -0.0880
  378MOL0     H51006   9.924   4.266   6.121  0.0862 -1.6844 -1.7339
  378MOL0     H51007   9.854   4.422   6.088  0.0355 -1.1506  1.2724
  378MOL0     H51008   9.998   4.269   5.872 -2.6089  1.1947 -3.1716
  378MOL0     H51009   9.942   4.429   5.867 -0.5604 -2.3416 -1.8447
  378MOL0     H51010   8.912   4.122   6.214  0.6439  0.0376 -0.2734
  378MOL0     H51011   8.663   4.107   6.228  1.8325 -1.5242  1.2643
  378MOL0     H51012   8.192   4.255   6.221  1.0892 -0.0907  0.0297
  378MOL0     H51013   7.977   4.167   6.229  0.1804  1.4832 -0.1514
  378MOL0     H51014   5.862   4.464   6.142 -1.5727  1.5562 -1.3853
  378MOL0     H51015   5.753   4.507   5.925 -1.1387 -2.6629  1.4164
  378MOL0     H51016   5.792   4.624   5.550 -1.0245 -0.6405  2.3101
  378MOL0     H51017   5.637   4.700   5.355 -1.4181 -0.4049 -2.4889
  378MOL0     H51018   5.490   4.408   5.072 -3.3643  0.0429 -2.5841
  378MOL0     H51019   5.413   4.557   5.034  0.4223  0.6328  0.3549
  378MOL0     H51020   5.304   4.580   5.253  1.9110  1.4992 -2.4900
  378MOL0     H51021   5.372   4.422   5.307  2.2002 -0.6279 -1.0791
  378MOL0     H51022   5.197   4.416   5.053  1.4581  1.9580 -0.4980
  378MOL0     H51023   5.113   4.427   5.206 -0.2384 -0.4003  0.3473
  378MOL0     H51024   5.149   4.201   5.109  0.2046  0.7606 -0.5007
  378MOL0     H51025   5.320   4.212   5.135 -0.4098  0.1484 -0.2778
  378MOL0     H51026   5.223   4.133   5.532 -0.5164 -1.9223 -0.2689
  378MOL0     H51027   5.614   4.313   5.198 -3.0072 -0.4447  0.1990
  378MOL0     H51028   5.701   4.129   5.456 -0.3827 -0.1713 -0.7430
  378MOL0     H51029   5.718   4.135   5.275  3.6623 -0.4307 -2.0218
  378MOL0     H51030   5.859   4.150   5.393 -0.2933 -2.8045 -1.4316
  379MOL0     O51031   7.658   4.318   5.998  0.1862  0.3292  0.4548
  379MOL0     C51032   7.738   4.273   5.923 -0.2077 -0.2055  0.0589
  379MOL0     O51033   7.871   4.313   5.929  0.0591  0.9258 -0.2760
  379MOL0     C51034   7.910   4.435   5.936  0.7738  0.1565 -0.4829
  379MOL0     C51035   8.038   4.459   5.997 -0.2384  0.3209 -1.4058
  379MOL0     C51036   8.066   4.583   6.059  0.8975 -0.6826 -0.8987
  379MOL0     C51037   7.979   4.691   6.028 -0.1365  0.9301 -0.1352
  379MOL0     O51038   8.012   4.811   6.084  0.4911 -0.7264  0.2018
  379MOL0     C51039   7.912   4.898   6.130  0.0952 -0.1233  0.0879
  379MOL0     C51040   7.984   5.009   6.203  0.2630 -0.1973  0.3641
  379MOL0     C51041   8.069   4.953   6.325  0.2648  0.0060  0.1920
  379MOL0     C51042   8.169   5.064   6.366  0.4349  0.1134  0.3070
  379MOL0     C51043   8.251   5.013   6.485 -0.0325  0.0044 -0.1522
  379MOL0     C51044   8.371   5.112   6.503  0.6186  0.9700 -0.0869
  379MOL0     C51045   8.459   5.092   6.626 -0.0352  0.3719 -0.3384
  379MOL0     C51046   8.554   5.218   6.623 -0.2356  0.2970  0.4640
  379MOL0     N51047   8.673   5.206   6.705 -0.1484 -0.2699  0.0292
  379MOL0     C51048   8.682   5.115   6.804 -0.2523  0.1701  0.5663
  379MOL0     C51049   8.813   5.129   6.841  0.3267  0.1260  0.1447
  379MOL0     C51050   8.879   5.049   6.948 -0.4191  0.6772  0.0174
  379MOL0     C51051   9.010   4.976   6.916  0.6969  0.1373 -0.0955
  379MOL0     C51052   8.995   4.856   6.823  0.4440  1.1622  0.6513
  379MOL0     C51053   9.127   4.799   6.778 -0.8423  0.4998 -0.4043
  379MOL0     O51054   9.183   4.717   6.888  0.0895  0.8294 -0.3457
  379MOL0     C51055   9.286   4.759   6.960  0.3415 -1.1414  0.4749
  379MOL0     C51056   9.364   4.880   6.941 -0.7695 -0.2705 -0.6140
  379MOL0     C51057   9.478   4.911   7.025 -0.5513  0.2784 -0.0039
  379MOL0     C51058   9.526   4.816   7.116  0.4570  0.0831  0.5311
  379MOL0     C51059   9.657   4.846   7.190 -0.6750 -0.8161 -0.0095
  379MOL0     O51060   9.682   4.795   7.314  0.4720  0.3673  0.4815
  379MOL0     C51061   9.789   4.832   7.395  1.3594 -0.5012 -0.0598
  379MOL0     C51062   9.848   4.731   7.469 -0.5541 -0.7481 -0.4165
  379MOL0     C51063   9.960   4.765   7.549  0.1220 -0.0084 -0.9852
  379MOL0     C51064  10.007   4.902   7.556  0.3106  0.5293 -0.4516
  379MOL0     O51065  10.119   4.942   7.626  0.8223 -0.2479  0.1654
  379MOL0     C51066  10.210   4.853   7.691  0.2560 -0.4737  0.4082
  379MOL0     C51067  10.321   4.940   7.759 -0.0453 -0.4846  0.1772
  379MOL0     C51068  10.276   5.023   7.873 -1.0713 -0.1855  0.1777
  379MOL0     C51069  10.381   5.146   7.912  0.0590  0.1454  0.5701
  379MOL0     C51070  10.303   5.274   7.889 -0.1311 -0.3386 -2.2255
  379MOL0     C51071  10.406   5.386   7.911  0.6122  0.2548  0.1817
  379MOL0     C51072  10.325   5.516   7.895 -0.4598 -0.9204 -0.1303
  379MOL0     C51073  10.401   5.644   7.932 -0.5047 -0.2101 -0.2224
  379MOL0    Cl51074  10.565   5.654   7.851  0.4372  0.3722  0.0631
  379MOL0     C51075   9.945   5.000   7.480  0.2938 -0.2132 -1.8034
  379MOL0     C51076   9.832   4.967   7.406  1.2751  0.0214  0.6752
  379MOL0     O51077   9.736   4.915   7.129 -0.0843 -0.4513 -0.5713
  379MOL0     C51078   9.454   4.700   7.128  0.2617 -0.4030  0.1335
  379MOL0     C51079   9.335   4.674   7.051  0.0332 -0.5123  1.0621
  379MOL0     N51080   8.884   5.218   6.755 -0.4298  0.6559  0.5049
  379MOL0     N51081   8.798   5.261   6.676 -0.4164  0.3665 -0.4794
  379MOL0     C51082   7.857   4.672   5.960  0.4475 -0.1831 -0.0558
  379MOL0     C51083   7.821   4.546   5.920 -0.5193 -0.3345 -0.6791
  379MOL0     C51084   7.702   4.163   5.827  1.1540  0.7939  0.0825
  379MOL0     C51085   7.797   4.066   5.815  0.1051  0.2303  0.2440
  379MOL0     C51086   7.785   3.948   5.755  0.5726 -0.6825  0.0974
  379MOL0     C51087   7.654   3.918   5.706  1.2516  0.8559  0.3367
  379MOL0     O51088   7.624   3.792   5.642  0.3671  0.7706 -0.0310
  379MOL0     C51089   7.717   3.680   5.644  0.2870 -0.2996 -0.4980
  379MOL0     C51090   7.713   3.598   5.776 -0.3085  0.7408  0.0813
  379MOL0     C51091   7.576   3.537   5.812  0.0878 -0.6911  0.0939
  379MOL0     C51092   7.577   3.429   5.928  0.1337  0.2459  0.1644
  379MOL0     C51093   7.434   3.409   5.967  0.3148 -0.2717  0.2338
  379MOL0     C51094   7.317   3.393   6.002 -0.2066 -0.3438  1.1153
  379MOL0     C51095   7.553   4.017   5.717  0.3110 -0.0821 -0.0963
  379MOL0     C51096   7.573   4.143   5.772  0.6293  0.0698 -0.7335
  379MOL0     C51097   7.459   4.241   5.769  0.1176 -0.1453  0.1940
  379MOL0     H51098   8.106   4.378   6.021 -2.3906 -0.7857  1.5338
  379MOL0     H51099   8.154   4.596   6.121 -0.4610  0.4085  0.8588
  379MOL0     H51100   7.854   4.937   6.045  1.1852 -0.8918 -1.0489
  379MOL0     H51101   7.850   4.851   6.206  0.3751  0.9379  1.0049
  379MOL0     H51102   7.906   5.080   6.230  1.1579  0.4262  1.4186
  379MOL0     H51103   8.048   5.063   6.132 -0.9341 -1.8396 -2.1025
  379MOL0     H51104   8.131   4.867   6.298 -0.1177 -0.2641  0.1639
  379MOL0     H51105   8.004   4.926   6.409 -1.5970  0.3534 -1.0662
  379MOL0     H51106   8.230   5.086   6.277 -0.6642 -1.3149 -0.8581
  379MOL0     H51107   8.110   5.151   6.393 -2.7155 -1.7886  0.0460
  379MOL0     H51108   8.183   5.002   6.570 -0.2127  1.9293  0.0023
  379MOL0     H51109   8.301   4.920   6.456 -0.7110 -1.0673  1.9268
  379MOL0     H51110   8.439   5.083   6.422  2.8273 -0.1476  2.0428
  379MOL0     H51111   8.349   5.219   6.494  1.6323  1.2363  0.4212
  379MOL0     H51112   8.513   4.997   6.627  0.2524  0.5000 -1.5932
  379MOL0     H51113   8.393   5.110   6.712  1.5515  4.8687  0.2210
  379MOL0     H51114   8.586   5.226   6.519 -0.5363 -1.8371  0.1727
  379MOL0     H51115   8.494   5.306   6.648 -0.5587  0.4202 -0.6577
  379MOL0     H51116   8.611   5.052   6.857  0.2778 -0.9274  0.0101
  379MOL0     H51117   8.903   5.110   7.035  3.2312  3.1057 -2.4006
  379MOL0     H51118   8.809   4.975   6.988  0.8230 -1.2851 -1.2014
  379MOL0     H51119   9.078   5.041   6.862  0.6343  0.1605 -0.1465
  379MOL0     H51120   9.055   4.947   7.012 -0.9781  0.7334  0.9211
  379MOL0     H51121   8.944   4.884   6.730  1.9869 -0.6582 -0.8322
  379MOL0     H51122   8.936   4.777   6.871  0.8252  1.9414  2.4942
  379MOL0     H51123   9.188   4.883   6.742  1.0944 -0.6166  0.1379
  379MOL0     H51124   9.107   4.738   6.690 -0.9907  0.2452 -0.1940
  379MOL0     H51125   9.342   4.953   6.863  1.4398 -0.6895 -1.7075
  379MOL0     H51126   9.528   5.007   7.022  1.9779 -0.9633 -1.0285
  379MOL0     H51127   9.814   4.628   7.462 -0.3554 -0.7173 -2.4658
  379MOL0     H51128  10.012   4.692   7.609  0.9196  2.5641  1.7348
  379MOL0     H51129  10.169   4.787   7.767  0.3259 -0.1552  0.7254
  379MOL0     H51130  10.256   4.789   7.614 -2.8075 -1.2081 -0.9652
  379MOL0     H51131  10.394   4.867   7.794 -1.2474 -2.2149 -0.7778
  379MOL0     H51132  10.381   5.006   7.695 -0.5173 -0.3698 -0.1509
  379MOL0     H51133  10.181   5.070   7.847 -1.8109 -0.8361  1.6270
  379MOL0     H51134  10.249   4.957   7.956  2.2686 -2.2247 -0.1613
  379MOL0     H51135  10.474   5.137   7.855  0.4434  1.5657  0.9389
  379MOL0     H51136  10.407   5.136   8.018  0.0898 -1.4075  0.4429
  379MOL0     H51137  10.218   5.289   7.955  0.4811  2.4180 -1.9306
  379MOL0     H51138  10.265   5.279   7.786 -0.8617 -3.0656 -2.1584
  379MOL0     H51139  10.450   5.378   8.011  0.5136  1.7545  0.3709
  379MOL0     H51140  10.489   5.387   7.839 -1.2184 -0.2642 -2.0423
  379MOL0     H51141  10.237   5.506   7.959 -0.8361  0.5498 -0.3752
  379MOL0     H51142  10.283   5.533   7.795  0.0408 -1.6579 -0.4754
  379MOL0     H51143  10.339   5.733   7.918 -0.6474 -0.6487 -3.1403
  379MOL0     H51144  10.417   5.648   8.040  0.6181 -2.4386 -0.2581
  379MOL0     H51145   9.969   5.105   7.494 -2.7956  0.2861  1.1000
  379MOL0     H51146   9.782   5.036   7.338  0.8216  1.9218  2.8125
  379MOL0     H51147   9.491   4.627   7.198 -0.0947 -0.6579  0.0590
  379MOL0     H51148   9.291   4.576   7.066 -0.4476 -0.4797 -0.0493
  379MOL0     H51149   7.782   4.749   5.942 -0.0780 -0.9720 -1.3356
  379MOL0     H51150   7.725   4.532   5.870  0.2735  0.4725 -2.5571
  379MOL0     H51151   7.894   4.069   5.864 -0.3429 -4.7196  2.0236
  379MOL0     H51152   7.864   3.873   5.753  0.7956 -0.5153  1.4677
  379MOL0     H51153   7.823   3.705   5.627  0.0031  2.5833  1.2406
  379MOL0     H51154   7.705   3.612   5.560 -1.4721  0.4777 -0.9047
  379MOL0     H51155   7.745   3.670   5.853  0.7396  2.4098 -1.8233
  379MOL0     H51156   7.791   3.522   5.775 -1.1795 -0.1721 -1.1403
  379MOL0     H51157   7.535   3.478   5.730 -1.4483 -1.3044  1.2375
  379MOL0     H51158   7.508   3.622   5.830 -0.6315 -0.4768 -3.1419
  379MOL0     H51159   7.620   3.332   5.900 -1.6934 -0.6971  0.5071
  379MOL0     H51160   7.620   3.467   6.021 -0.7210  0.7062  0.3739
  379MOL0     H51161   7.213   3.377   6.023 -1.2943  3.3679 -0.4696
  379MOL0     H51162   7.458   3.979   5.682  1.2812 -3.3041  0.4011
  379MOL0     H51163   7.366   4.201   5.811 -0.5809  0.3747 -0.8002
  379MOL0     H51164   7.463   4.329   5.833 -2.1582  0.1173  0.0839
  379MOL0     H51165   7.441   4.267   5.664  1.5688 -2.0966 -0.5912
  380MOL0     O51166   5.275   5.520   8.660  0.6682  0.2374 -0.1896
  380MOL0     C51167   5.209   5.420   8.694 -0.7164  0.4981  0.2900
  380MOL0     O51168   5.251   5.287   8.684  0.1478  0.2510  0.3892
  380MOL0     C51169   5.378   5.260   8.639 -0.0500  0.9623  0.4354
  380MOL0     C51170   5.496   5.338   8.674  0.1454 -0.6223 -0.2065
  380MOL0     C51171   5.622   5.301   8.625  0.1629  0.0894 -0.0533
  380MOL0     C51172   5.632   5.200   8.521  0.7535  0.3875  0.4175
  380MOL0     O51173   5.752   5.157   8.469  0.1395  0.5105  0.5577
  380MOL0     C51174   5.865   5.144   8.553  1.1354 -0.1197 -0.9936
  380MOL0     C51175   5.991   5.093   8.486  1.2052 -0.5147 -0.3785
  380MOL0     C51176   6.100   5.085   8.578  0.0298 -0.0683 -0.7160
  380MOL0     C51177   6.225   5.035   8.513 -0.0055 -0.5087  0.3074
  380MOL0     C51178   6.348   5.037   8.607  0.4586 -0.2749  0.4079
  380MOL0     C51179   6.478   4.993   8.530  0.7328  0.3020  0.1443
  380MOL0     C51180   6.595   4.994   8.628 -0.1528  0.0786 -0.3027
  380MOL0     C51181   6.716   4.896   8.597  0.1846  0.3118 -0.7622
  380MOL0     N51182   6.696   4.751   8.613  0.6258 -0.5334  0.3457
  380MOL0     C51183   6.633   4.666   8.527  0.0953 -0.1260  0.0396
  380MOL0     C51184   6.660   4.539   8.574 -0.1146 -0.1333 -0.5659
  380MOL0     C51185   6.610   4.411   8.527 -0.1326  0.1371  0.7332
  380MOL0     C51186   6.557   4.434   8.389  0.0687 -0.2722 -0.0115
  380MOL0     C51187   6.533   4.311   8.299 -0.4139  0.3994  0.0070
  380MOL0     C51188   6.665   4.233   8.280 -0.1741 -0.5414  0.1038
  380MOL0     O51189   6.658   4.114   8.198 -0.3526  0.3281 -0.1224
  380MOL0     C51190   6.776   4.057   8.149  0.2918  0.7753 -0.6271
  380MOL0     C51191   6.900   4.083   8.213  0.7106 -0.1352  0.6821
  380MOL0     C51192   7.018   4.041   8.159  0.2216 -0.2435 -0.0165
  380MOL0     C51193   7.017   3.960   8.045 -0.4703 -0.1344 -0.4001
  380MOL0     C51194   7.145   3.908   7.996 -0.8453 -0.1123 -0.4435
  380MOL0     O51195   7.250   3.993   7.981  0.5968 -0.5655 -0.0348
  380MOL0     C51196   7.373   3.961   7.940 -0.7241 -0.3244 -0.1074
  380MOL0     C51197   7.401   3.882   7.824  0.2024 -0.1822  0.2353
  380MOL0     C51198   7.536   3.870   7.783 -0.1220  0.1728  0.2998
  380MOL0     C51199   7.640   3.929   7.849 -0.5383 -0.1279  0.8805
  380MOL0     O51200   7.768   3.909   7.800  0.3257 -0.0668  0.4393
  380MOL0     C51201   7.865   4.011   7.821 -0.4200 -0.1488 -0.5877
  380MOL0     C51202   7.987   3.978   7.729  0.6622  0.3798 -0.1700
  380MOL0     C51203   8.071   3.843   7.772  0.3322 -0.4592 -0.1599
  380MOL0     C51204   8.198   3.858   7.697 -0.2891  0.4914  0.0384
  380MOL0     C51205   8.281   3.723   7.697  0.8464 -0.0054 -0.0024
  380MOL0     C51206   8.334   3.677   7.832  0.0123  0.0461 -0.0902
  380MOL0     C51207   8.440   3.774   7.876  0.5820  0.3465  0.7229
  380MOL0     C51208   8.471   3.789   8.025 -0.2160  0.1514  0.2178
  380MOL0    Cl51209   8.514   3.637   8.097  0.0901  0.3024 -0.0547
  380MOL0     C51210   7.616   4.002   7.969  0.0241  0.4755  0.8031
  380MOL0     C51211   7.481   4.021   8.009 -0.3681 -0.2700  0.3519
  380MOL0     O51212   7.152   3.787   7.976 -0.5761 -0.7483  0.1885
  380MOL0     C51213   6.897   3.918   7.984  0.4336 -0.8488 -1.3457
  380MOL0     C51214   6.774   3.968   8.038  0.1520  0.1349 -0.4017
  380MOL0     N51215   6.741   4.555   8.683 -0.8756  0.4013 -0.0626
  380MOL0     N51216   6.756   4.677   8.712 -0.2230 -0.8478  0.3476
  380MOL0     C51217   5.520   5.132   8.491  0.1743  1.0282  0.8255
  380MOL0     C51218   5.399   5.153   8.552  0.0069 -0.0948  0.8241
  380MOL0     C51219   5.081   5.443   8.751 -0.4803 -0.0340  0.2928
  380MOL0     C51220   4.978   5.380   8.681  0.9771  0.3358  0.4931
  380MOL0     C51221   4.848   5.407   8.711  0.3421  0.4584 -0.3043
  380MOL0     C51222   4.817   5.504   8.806  0.3231  1.2357 -0.3820
  380MOL0     O51223   4.679   5.532   8.842  0.7047  0.0061 -0.1688
  380MOL0     C51224   4.576   5.442   8.815  0.5166  0.0775  0.1152
  380MOL0     C51225   4.454   5.488   8.894 -0.1726 -0.0755  0.3797
  380MOL0     C51226   4.341   5.396   8.857 -0.3696 -0.2798 -0.7746
  380MOL0     C51227   4.232   5.418   8.958  0.0329  0.4049  0.0230
  380MOL0     C51228   4.130   5.313   8.933 -0.0123  0.2216 -0.0282
  380MOL0     C51229   4.062   5.212   8.928 -0.0071  0.0638 -0.4633
  380MOL0     C51230   4.914   5.559   8.882 -0.3360  0.6175  0.2272
  380MOL0     C51231   5.053   5.533   8.855  0.3853  0.1136  0.3173
  380MOL0     C51232   5.148   5.581   8.952  0.8363  0.0437  1.2123
  380MOL0     H51233   5.498   5.409   8.755  3.1909 -1.3806  0.4915
  380MOL0     H51234   5.712   5.349   8.663 -1.5623  3.0734  0.6263
  380MOL0     H51235   5.877   5.241   8.601 -0.1881 -0.4479  0.0777
  380MOL0     H51236   5.839   5.077   8.636 -2.3532  2.7915  0.5658
  380MOL0     H51237   6.016   5.161   8.404  1.4598 -1.1824 -0.8598
  380MOL0     H51238   5.976   4.995   8.440  2.4416  0.1973 -2.4359
  380MOL0     H51239   6.061   5.016   8.652 -0.3816 -0.4280 -1.2642
  380MOL0     H51240   6.116   5.183   8.624  0.9505 -1.4357  2.0915
  380MOL0     H51241   6.214   4.936   8.469  0.1311 -0.6104  0.4986
  380MOL0     H51242   6.246   5.109   8.435 -0.2893 -1.6495 -0.8830
  380MOL0     H51243   6.357   5.141   8.641 -1.0266  0.7738 -2.0849
  380MOL0     H51244   6.324   4.972   8.692 -1.3260 -1.0839 -0.6459
  380MOL0     H51245   6.461   4.891   8.496 -1.8898  1.2858 -1.8576
  380MOL0     H51246   6.480   5.054   8.439 -0.6095 -0.6579 -0.5553
  380MOL0     H51247   6.553   4.963   8.725 -0.1672  0.7806 -0.0796
  380MOL0     H51248   6.640   5.093   8.641  0.6104 -0.5522  2.7978
  380MOL0     H51249   6.745   4.910   8.493 -0.5810 -1.3994 -1.2417
  380MOL0     H51250   6.799   4.924   8.662  0.0222 -2.0100  0.5513
  380MOL0     H51251   6.568   4.704   8.450  0.7781  0.3415 -0.3083
  380MOL0     H51252   6.697   4.349   8.507  0.3720  0.9439  0.3431
  380MOL0     H51253   6.542   4.367   8.601  3.4621 -3.0098  2.4622
  380MOL0     H51254   6.463   4.489   8.391 -0.4680 -1.1833  0.9800
  380MOL0     H51255   6.631   4.498   8.339  1.6223 -0.6805  1.6526
  380MOL0     H51256   6.505   4.348   8.200 -2.5132  0.7590  0.6752
  380MOL0     H51257   6.460   4.240   8.340 -0.5937 -0.6408 -1.9977
  380MOL0     H51258   6.707   4.199   8.375  0.3384 -0.6955 -0.1795
  380MOL0     H51259   6.734   4.308   8.241 -0.8883 -0.0857 -0.3133
  380MOL0     H51260   6.905   4.147   8.300 -1.0112 -0.9554  1.4457
  380MOL0     H51261   7.106   4.082   8.209  0.8996 -1.5034 -0.1246
  380MOL0     H51262   7.319   3.838   7.767 -1.2839  1.5787  0.8726
  380MOL0     H51263   7.555   3.797   7.705  0.2499 -0.2655  0.7888
  380MOL0     H51264   7.818   4.104   7.788 -2.5222 -1.8682 -2.7849
  380MOL0     H51265   7.908   4.021   7.921  1.7191  2.0546 -1.6541
  380MOL0     H51266   7.954   3.971   7.625  0.3377  1.6834 -0.1690
  380MOL0     H51267   8.052   4.066   7.736  1.5769 -0.4148  3.8540
  380MOL0     H51268   8.088   3.838   7.880 -2.0717 -1.3424  0.2499
  380MOL0     H51269   8.021   3.747   7.757  0.1720 -0.6162  1.1939
  380MOL0     H51270   8.256   3.938   7.743  0.0632 -1.7627  3.9501
  380MOL0     H51271   8.170   3.895   7.598 -1.1368  3.0880  1.1667
  380MOL0     H51272   8.358   3.729   7.619  0.4535 -1.9669 -0.5867
  380MOL0     H51273   8.215   3.651   7.649 -0.1583  1.8573 -1.5798
  380MOL0     H51274   8.253   3.684   7.905 -1.5444  0.1287 -1.7598
  380MOL0     H51275   8.371   3.574   7.831 -0.1301 -0.0038 -0.2688
  380MOL0     H51276   8.399   3.873   7.856 -3.3550 -0.8582  1.9868
  380MOL0     H51277   8.532   3.750   7.822  0.5370  2.6467 -0.4908
  380MOL0     H51278   8.552   3.862   8.037  0.5527 -0.8253  1.1845
  380MOL0     H51279   8.384   3.828   8.078  0.1556  3.9567 -1.6431
  380MOL0     H51280   7.684   4.053   8.036  0.0092  1.4763  0.0823
  380MOL0     H51281   7.460   4.093   8.087  0.9974 -0.6364  1.0779
  380MOL0     H51282   6.897   3.850   7.899  2.2254 -2.6495  0.0258
  380MOL0     H51283   6.676   3.934   8.005  1.3650 -2.8351 -1.2702
  380MOL0     H51284   5.529   5.040   8.433 -1.4876  1.7961 -0.7703
  380MOL0     H51285   5.328   5.073   8.533  1.2542 -1.7978  2.8304
  380MOL0     H51286   5.000   5.315   8.597  1.3493 -1.5809  2.0010
  380MOL0     H51287   4.778   5.345   8.655  1.1460 -1.9213  1.1773
  380MOL0     H51288   4.607   5.344   8.852 -0.6718 -0.8442 -1.1868
  380MOL0     H51289   4.564   5.444   8.706 -1.5475  0.8316  0.2999
  380MOL0     H51290   4.427   5.592   8.874 -0.0670 -0.2553 -0.7839
  380MOL0     H51291   4.485   5.487   8.999  0.5947 -1.0472  0.1532
  380MOL0     H51292   4.370   5.290   8.850  1.4673  0.2505 -1.9633
  380MOL0     H51293   4.297   5.420   8.760 -0.9629 -2.3170 -1.0651
  380MOL0     H51294   4.265   5.408   9.062  0.2236 -1.2343 -0.1694
  380MOL0     H51295   4.186   5.517   8.947  0.7399  0.5983 -1.3757
  380MOL0     H51296   4.003   5.122   8.926 -2.9832  1.8899  0.1250
  380MOL0     H51297   4.878   5.617   8.967  1.4168 -1.9309  2.9015
  380MOL0     H51298   5.222   5.504   8.975  2.0425  0.9472  0.4969
  380MOL0     H51299   5.206   5.663   8.909 -1.3048  0.7435 -0.5183
  380MOL0     H51300   5.098   5.619   9.042  1.1860  2.3764  0.4890
  381MOL0     O51301   5.321  10.426   1.712 -0.3127  0.1987  0.4705
  381MOL0     C51302   5.304  10.462   1.599 -0.4236  0.8758  0.1827
  381MOL0     O51303   5.386  10.417   1.499 -0.1739 -0.4662 -0.5232
  381MOL0     C51304   5.488  10.321   1.514  1.2333  0.0551  0.1824
  381MOL0     C51305   5.491  10.207   1.594 -0.3626 -0.3306 -1.2617
  381MOL0     C51306   5.592  10.110   1.587  0.7012 -0.2693 -0.3674
  381MOL0     C51307   5.704  10.140   1.500 -0.0351 -0.0093  0.2066
  381MOL0     O51308   5.820  10.061   1.485  0.3357 -0.4813  0.0238
  381MOL0     C51309   5.852   9.973   1.583 -0.5526 -0.1157 -0.9724
  381MOL0     C51310   5.945  10.018   1.689 -0.7826  0.0132  0.3941
  381MOL0     C51311   6.101  10.017   1.639  0.1645  0.1184 -0.1172
  381MOL0     C51312   6.186  10.022   1.768  0.0751  0.5806  1.1094
  381MOL0     C51313   6.339  10.041   1.738 -0.0251 -0.2567  0.3793
  381MOL0     C51314   6.368  10.179   1.686  0.4238 -0.9127 -0.6656
  381MOL0     C51315   6.518  10.225   1.704 -0.7706 -0.3383 -0.0933
  381MOL0     C51316   6.622  10.124   1.638  0.1408  0.6239 -0.6529
  381MOL0     N51317   6.756  10.175   1.676 -0.7553  1.5726 -0.0445
  381MOL0     C51318   6.829  10.124   1.781  0.0374 -0.6253  0.4557
  381MOL0     C51319   6.936  10.207   1.778  0.6468  0.3014  0.1322
  381MOL0     C51320   7.055  10.197   1.870 -0.4617 -0.9216  0.7112
  381MOL0     C51321   7.041  10.295   1.989  0.3313  0.0948 -0.2213
  381MOL0     C51322   7.172  10.289   2.064 -0.4521 -0.3363 -0.1321
  381MOL0     C51323   7.286  10.339   1.986 -0.1849 -0.5368  0.4542
  381MOL0     O51324   7.398  10.372   2.063  0.7567  0.6305  0.1634
  381MOL0     C51325   7.525  10.338   2.022  0.1419  0.9748 -0.8269
  381MOL0     C51326   7.636  10.386   2.102  0.8156 -0.2245 -0.5902
  381MOL0     C51327   7.763  10.356   2.078 -0.5240  0.2847 -0.3741
  381MOL0     C51328   7.789  10.274   1.962 -0.3288 -0.5373 -0.5765
  381MOL0     C51329   7.933  10.250   1.933 -0.1257  0.4426  0.1003
  381MOL0     O51330   8.021  10.343   1.992  0.0426  0.4443  0.2317
  381MOL0     C51331   8.148  10.330   1.956  0.4240 -0.3707  0.2701
  381MOL0     C51332   8.185  10.323   1.819  0.0440  0.9202 -0.1827
  381MOL0     C51333   8.317  10.313   1.792 -0.1266 -1.0357 -0.0623
  381MOL0     C51334   8.417  10.323   1.886  0.5539  0.1006 -1.2421
  381MOL0     O51335   8.553  10.317   1.864 -1.2159  0.3109  0.2170
  381MOL0     C51336   8.593  10.244   1.749  0.0063 -0.5434 -0.3691
  381MOL0     C51337   8.732  10.187   1.779  0.3838 -0.2272  0.9850
  381MOL0     C51338   8.848  10.293   1.769  0.5026  0.7257 -0.3617
  381MOL0     C51339   8.981  10.215   1.775 -0.9702 -0.0527 -0.1382
  381MOL0     C51340   9.101  10.307   1.751 -0.3919  0.3960 -0.4416
  381MOL0     C51341   9.227  10.232   1.790 -0.0011  0.6339  0.3950
  381MOL0     C51342   9.349  10.316   1.766 -0.3054 -0.5977 -0.3660
  381MOL0     C51343   9.433  10.267   1.652 -0.0089  0.3808  0.5063
  381MOL0    Cl51344   9.556  10.390   1.611  0.2564 -0.1792 -0.0578
  381MOL0     C51345   8.381  10.335   2.021  0.1499  0.7399  0.5277
  381MOL0     C51346   8.243  10.350   2.058  0.2847  0.1718  0.4292
  381MOL0     O51347   7.962  10.153   1.861  1.0153 -0.4156 -0.1495
  381MOL0     C51348   7.687  10.223   1.884  0.0419  0.1739 -0.0405
  381MOL0     C51349   7.559  10.249   1.915 -0.3989  0.3699 -0.5100
  381MOL0     N51350   6.935  10.288   1.667 -0.0401 -0.1756  0.7742
  381MOL0     N51351   6.822  10.272   1.608  0.1386 -0.6679  0.1733
  381MOL0     C51352   5.702  10.259   1.421  0.1778 -0.3234  0.3606
  381MOL0     C51353   5.598  10.343   1.430 -0.6134  0.1253 -0.1260
  381MOL0     C51354   5.197  10.559   1.563 -0.3452  0.9097 -0.2002
  381MOL0     C51355   5.096  10.512   1.472 -0.6552 -0.0468 -0.5279
  381MOL0     C51356   5.001  10.605   1.437 -0.5801  0.0059  0.6221
  381MOL0     C51357   4.978  10.729   1.492 -0.4623  0.4894 -0.2192
  381MOL0     O51358   4.868  10.797   1.446 -0.0072  0.3128  0.4405
  381MOL0     C51359   4.851  10.939   1.476  0.7460  0.1482 -0.4922
  381MOL0     C51360   4.737  11.010   1.411  0.6711  0.0196 -1.0803
  381MOL0     C51361   4.717  11.156   1.474 -0.3638  0.4811 -0.1571
  381MOL0     C51362   4.618  11.258   1.400 -0.4168 -0.1686 -0.0490
  381MOL0     C51363   4.497  11.189   1.349  0.0465  0.0219 -1.3097
  381MOL0     C51364   4.400  11.129   1.307 -0.5976  0.3189  0.2354
  381MOL0     C51365   5.080  10.770   1.586 -0.9633  0.4694 -0.6564
  381MOL0     C51366   5.182  10.684   1.620  0.1547  0.0270  0.0397
  381MOL0     C51367   5.277  10.745   1.718  0.6944  0.6178  0.5307
  381MOL0     H51368   5.411  10.203   1.668  1.3373  1.0498  0.7768
  381MOL0     H51369   5.592  10.028   1.657  1.7389 -0.0414 -0.0845
  381MOL0     H51370   5.763   9.936   1.635  0.9074 -0.4015  1.4627
  381MOL0     H51371   5.903   9.886   1.540 -1.3887 -0.9317 -0.3566
  381MOL0     H51372   5.934   9.961   1.782 -1.2872  0.3689  0.5575
  381MOL0     H51373   5.929  10.122   1.717  0.0868  0.3023 -0.1484
  381MOL0     H51374   6.127  10.102   1.575 -0.4738 -0.1840 -0.7896
  381MOL0     H51375   6.125   9.924   1.586  1.3882 -0.1777  0.8904
  381MOL0     H51376   6.151  10.105   1.829 -1.4649  0.1566  0.8434
  381MOL0     H51377   6.163   9.933   1.829 -0.7406 -0.4659 -0.6297
  381MOL0     H51378   6.392  10.035   1.833  2.2616  1.6259 -0.6838
  381MOL0     H51379   6.373   9.962   1.670 -3.4479 -0.8891 -0.7987
  381MOL0     H51380   6.348  10.175   1.579 -1.9291 -0.8641 -0.2973
  381MOL0     H51381   6.304  10.253   1.735  2.6634 -0.1025  1.2030
  381MOL0     H51382   6.544  10.243   1.809  1.1746  0.8032 -0.7262
  381MOL0     H51383   6.516  10.322   1.654 -1.4933 -0.1789  0.2366
  381MOL0     H51384   6.595  10.022   1.667  1.8395  0.6407  1.2965
  381MOL0     H51385   6.619  10.127   1.529  0.5523 -1.5771 -0.7814
  381MOL0     H51386   6.806  10.046   1.852  1.0922 -1.1914  0.1898
  381MOL0     H51387   7.063  10.096   1.911  2.4201 -0.3154  1.9500
  381MOL0     H51388   7.146  10.217   1.812 -0.7779  2.8414  1.2274
  381MOL0     H51389   7.026  10.398   1.957  0.6810 -0.0298 -0.8000
  381MOL0     H51390   6.963  10.264   2.059  1.0090 -0.1452  0.4453
  381MOL0     H51391   7.198  10.189   2.101 -0.5884 -0.1766  0.4066
  381MOL0     H51392   7.163  10.340   2.160 -1.5448  1.3199 -1.0727
  381MOL0     H51393   7.265  10.427   1.924  1.4388 -0.2391  0.2835
  381MOL0     H51394   7.312  10.254   1.924  1.3118  0.1398  0.0882
  381MOL0     H51395   7.602  10.430   2.195 -1.9053 -3.1616 -0.0260
  381MOL0     H51396   7.839  10.379   2.152 -1.5113  1.9708  0.1460
  381MOL0     H51397   8.114  10.303   1.739 -0.2970 -1.4093  0.6367
  381MOL0     H51398   8.343  10.297   1.688  2.5953 -0.7556  0.5010
  381MOL0     H51399   8.526  10.160   1.726  0.5692 -0.5212 -2.1947
  381MOL0     H51400   8.592  10.303   1.657 -0.2359 -0.8245 -0.5477
  381MOL0     H51401   8.736  10.156   1.884 -1.2595  0.0072  1.1459
  381MOL0     H51402   8.757  10.104   1.712  1.3827  0.6411  0.2475
  381MOL0     H51403   8.846  10.349   1.675  3.2338  0.2738 -0.7624
  381MOL0     H51404   8.836  10.368   1.848 -0.4472  2.1771 -1.8046
  381MOL0     H51405   8.989  10.146   1.690  0.2062 -0.3860  0.2285
  381MOL0     H51406   9.000  10.179   1.876  2.9495 -0.3869 -0.8060
  381MOL0     H51407   9.090  10.398   1.810 -0.6724 -0.5730  1.0443
  381MOL0     H51408   9.090  10.340   1.647 -2.2530 -1.2763 -0.8448
  381MOL0     H51409   9.215  10.203   1.895  2.8796 -2.8458 -0.0282
  381MOL0     H51410   9.232  10.139   1.732  1.2089 -0.2326  1.8237
  381MOL0     H51411   9.402  10.317   1.862  1.8707  1.0624 -1.5146
  381MOL0     H51412   9.326  10.421   1.750 -0.9531 -0.9447 -1.7905
  381MOL0     H51413   9.473  10.170   1.680 -2.0150 -0.8151 -0.5106
  381MOL0     H51414   9.374  10.253   1.561  1.4490  1.3287 -0.6472
  381MOL0     H51415   8.465  10.349   2.088 -0.4450  2.6904  0.9467
  381MOL0     H51416   8.202  10.369   2.157 -1.0140 -3.2423  0.6813
  381MOL0     H51417   7.703  10.164   1.795  1.6687  2.8721 -1.6645
  381MOL0     H51418   7.487  10.186   1.864 -2.1214  1.2972  0.6858
  381MOL0     H51419   5.784  10.291   1.357 -1.0875  1.4997 -0.4161
  381MOL0     H51420   5.592  10.435   1.373  0.8848  0.2714 -0.0904
  381MOL0     H51421   5.117  10.418   1.421 -0.1034 -0.1259 -0.1516
  381MOL0     H51422   4.935  10.595   1.351 -0.1634  1.3747  0.1151
  381MOL0     H51423   4.944  10.993   1.453 -1.3046  3.3696 -2.0276
  381MOL0     H51424   4.832  10.953   1.583  2.6283 -0.8379  0.0174
  381MOL0     H51425   4.642  10.958   1.423  0.2887  0.6576 -1.2992
  381MOL0     H51426   4.764  11.009   1.305 -1.3074 -0.3983 -1.6212
  381MOL0     H51427   4.818  11.198   1.483  0.5319 -1.7584  1.2846
  381MOL0     H51428   4.689  11.142   1.579 -0.1528  1.8537  0.1006
  381MOL0     H51429   4.583  11.344   1.458  0.1041 -0.8550  1.3305
  381MOL0     H51430   4.669  11.290   1.309  1.9620 -0.0193  1.2469
  381MOL0     H51431   4.310  11.089   1.266 -1.1236  3.9451 -2.6686
  381MOL0     H51432   5.066  10.864   1.638 -0.9688 -0.4492  1.0679
  381MOL0     H51433   5.280  10.679   1.805 -2.4528 -0.6867 -0.1817
  381MOL0     H51434   5.370  10.770   1.667  0.5312 -0.1536 -0.1527
  381MOL0     H51435   5.238  10.836   1.766 -0.7759 -1.0249  2.6559
  382MOL0     O51436   9.925   2.702   0.337  0.0142  0.3629  0.1642
  382MOL0     C51437   9.941   2.767   0.232  0.0923  0.0241  0.0123
  382MOL0     O51438  10.051   2.756   0.144  0.0038 -0.2383  0.2431
  382MOL0     C51439  10.169   2.706   0.193  0.4721 -0.5630 -0.1751
  382MOL0     C51440  10.271   2.792   0.228 -0.3263 -0.1877  0.5845
  382MOL0     C51441  10.394   2.744   0.279 -0.0594  0.6297  0.0603
  382MOL0     C51442  10.414   2.602   0.299 -0.5628 -0.0854 -0.7268
  382MOL0     O51443  10.518   2.540   0.361  0.7635  0.6699 -0.0466
  382MOL0     C51444  10.643   2.595   0.313  0.7489 -0.1380 -0.0446
  382MOL0     C51445  10.756   2.528   0.393 -0.4986 -0.6007 -0.2415
  382MOL0     C51446  10.886   2.597   0.363  0.7167 -0.0381  0.5322
  382MOL0     C51447  10.996   2.491   0.332 -0.4168  0.3366 -0.6893
  382MOL0     C51448  11.133   2.557   0.304  0.1452 -0.8234 -0.2209
  382MOL0     C51449  11.243   2.445   0.295 -0.2991 -0.3729 -0.0889
  382MOL0     C51450  11.245   2.377   0.157  1.0030 -0.4474 -0.3068
  382MOL0     C51451  11.367   2.288   0.131 -0.4985 -0.2836 -0.0813
  382MOL0     N51452  11.499   2.368   0.124  0.2470  0.4374  0.1771
  382MOL0     C51453  11.568   2.387   0.004  0.1222  0.8324 -0.6512
  382MOL0     C51454  11.670   2.468   0.030 -1.2380  0.4248  0.3096
  382MOL0     C51455  11.770   2.532  -0.065  0.4829 -0.3048  0.6335
  382MOL0     C51456  11.780   2.689  -0.043  0.3554  0.3291  0.7701
  382MOL0     C51457  11.865   2.768  -0.141 -0.3515  0.8793  0.1453
  382MOL0     C51458  12.014   2.737  -0.143  0.0168  0.2126 -0.5878
  382MOL0     O51459  12.059   2.621  -0.208 -0.2682  0.1424  0.6456
  382MOL0     C51460  12.186   2.579  -0.174 -0.1574  0.3574 -0.0136
  382MOL0     C51461  12.294   2.610  -0.254 -0.0557 -0.2330  0.3026
  382MOL0     C51462  12.425   2.575  -0.214  0.0639  0.0215  0.4491
  382MOL0     C51463  12.450   2.513  -0.089  0.3097  0.3261  1.2269
  382MOL0     C51464  12.582   2.478  -0.051 -0.5246  0.4226  0.2568
  382MOL0     O51465  12.581   2.376   0.040 -0.2965  0.2027  0.0126
  382MOL0     C51466  12.695   2.314   0.087  0.0047 -0.2495  0.2146
  382MOL0     C51467  12.826   2.365   0.106 -1.0390 -0.9461 -0.7484
  382MOL0     C51468  12.927   2.280   0.155 -0.1698 -0.6130 -0.1473
  382MOL0     C51469  12.903   2.149   0.193 -0.0839 -0.7617 -0.6359
  382MOL0     O51470  13.010   2.086   0.242 -0.6217 -0.0912  0.3467
  382MOL0     C51471  12.991   1.950   0.279 -0.0660 -0.1685 -0.2337
  382MOL0     C51472  13.107   1.887   0.353 -0.5373 -0.8527 -0.9399
  382MOL0     C51473  13.227   1.872   0.261 -0.4056 -0.3907  0.1366
  382MOL0     C51474  13.335   1.807   0.336 -0.8051  0.1817  0.3432
  382MOL0     C51475  13.466   1.822   0.265  0.1245  0.3957  0.1736
  382MOL0     C51476  13.575   1.739   0.336  0.3061 -0.7113  0.6114
  382MOL0     C51477  13.711   1.749   0.266 -0.4265 -0.0901  0.3024
  382MOL0     C51478  13.809   1.658   0.330 -0.1471 -0.3303 -0.2431
  382MOL0    Cl51479  13.940   1.660   0.224 -0.4251 -0.1352 -0.0978
  382MOL0     C51480  12.777   2.098   0.165 -0.0956 -0.3254 -0.7530
  382MOL0     C51481  12.671   2.183   0.119  0.4710  0.7725 -0.7118
  382MOL0     O51482  12.683   2.530  -0.095 -0.3303 -0.5136  0.1904
  382MOL0     C51483  12.336   2.484  -0.009  0.0871  0.3494 -0.0563
  382MOL0     C51484  12.208   2.520  -0.047 -1.2148 -0.5286  0.6127
  382MOL0     N51485  11.668   2.488   0.171 -0.2408  0.6652 -0.2062
  382MOL0     N51486  11.557   2.434   0.224  0.0996 -0.3120 -0.4500
  382MOL0     C51487  10.304   2.520   0.261  0.2226 -0.1917  0.1040
  382MOL0     C51488  10.186   2.570   0.205  0.5202  0.4396  0.1735
  382MOL0     C51489   9.834   2.848   0.172  0.3780  0.2233  0.0828
  382MOL0     C51490   9.863   2.928   0.062 -0.5777  0.5381 -0.6266
  382MOL0     C51491   9.769   3.006   0.001  0.3996  0.3347 -0.5692
  382MOL0     C51492   9.631   3.014   0.048  0.3647  0.2207 -0.6905
  382MOL0     O51493   9.545   3.085  -0.024  0.6008  0.3598  0.6039
  382MOL0     C51494   9.428   3.139   0.042 -0.2671 -0.1849 -0.1482
  382MOL0     C51495   9.372   3.271  -0.015 -0.4296  0.4684  0.0910
  382MOL0     C51496   9.468   3.386  -0.054  0.2940  0.1323  0.2584
  382MOL0     C51497   9.566   3.423   0.058  0.1179  0.4654  0.9798
  382MOL0     C51498   9.642   3.546   0.027 -0.6597  0.7055  0.6335
  382MOL0     C51499   9.717   3.650   0.031  0.0710  0.4949  0.2007
  382MOL0     C51500   9.603   2.937   0.166  0.2025  0.4976 -0.1083
  382MOL0     C51501   9.699   2.864   0.223 -0.2982  0.1514 -0.1775
  382MOL0     C51502   9.656   2.792   0.346 -0.2842 -0.7728 -0.5431
  382MOL0     H51503  10.269   2.901   0.218  0.7898  0.0359  2.3193
  382MOL0     H51504  10.465   2.817   0.318 -1.0576  1.1803  0.8667
  382MOL0     H51505  10.652   2.579   0.206  0.3257  0.9719 -0.2664
  382MOL0     H51506  10.652   2.704   0.327  0.3741 -0.0105 -0.7612
  382MOL0     H51507  10.754   2.424   0.359  0.1822 -0.7756  0.2397
  382MOL0     H51508  10.726   2.539   0.498 -1.9920 -2.0624 -0.4823
  382MOL0     H51509  10.916   2.658   0.449 -0.1727  0.3220  0.5993
  382MOL0     H51510  10.881   2.659   0.273 -0.9932 -0.6847  0.1581
  382MOL0     H51511  11.009   2.423   0.417 -1.7439  1.3688  0.3859
  382MOL0     H51512  10.967   2.432   0.245 -1.9202  0.7493 -0.4895
  382MOL0     H51513  11.127   2.616   0.211 -0.3677 -1.5476 -0.6532
  382MOL0     H51514  11.150   2.629   0.385 -0.1448 -0.1415 -0.7498
  382MOL0     H51515  11.339   2.497   0.304 -1.2730  1.2596  1.5879
  382MOL0     H51516  11.242   2.371   0.377 -0.2510 -2.5489 -1.9482
  382MOL0     H51517  11.250   2.463   0.090  1.0351 -1.2566 -1.3713
  382MOL0     H51518  11.150   2.324   0.144  1.9934 -2.2434 -0.5997
  382MOL0     H51519  11.377   2.220   0.216  0.2028 -0.3431 -0.2107
  382MOL0     H51520  11.357   2.234   0.036  1.5017  1.6600 -1.4764
  382MOL0     H51521  11.547   2.346  -0.094  1.7483  1.2910 -1.2397
  382MOL0     H51522  11.867   2.483  -0.052  0.5984 -0.1095  0.5121
  382MOL0     H51523  11.736   2.513  -0.167  1.0086 -2.1349  0.7716
  382MOL0     H51524  11.682   2.736  -0.047  0.2014  0.1395  1.9683
  382MOL0     H51525  11.811   2.724   0.056  0.7862 -1.2087  1.2007
  382MOL0     H51526  11.849   2.875  -0.121  2.2974  1.4047 -0.1909
  382MOL0     H51527  11.827   2.745  -0.241  0.2986 -0.2135  0.1354
  382MOL0     H51528  12.037   2.725  -0.036 -2.8390  1.1525  0.2097
  382MOL0     H51529  12.063   2.830  -0.174  1.5536  0.6700  2.7735
  382MOL0     H51530  12.276   2.657  -0.350 -0.6036 -0.8172  0.1154
  382MOL0     H51531  12.506   2.596  -0.283 -2.5893  0.0038 -2.9908
  382MOL0     H51532  12.836   2.469   0.077 -1.8557 -0.6521 -0.0282
  382MOL0     H51533  13.029   2.316   0.165 -0.0148  0.4629 -3.9273
  382MOL0     H51534  12.900   1.953   0.340 -1.1602 -3.9590 -1.4306
  382MOL0     H51535  12.975   1.889   0.190  0.3642 -1.2027  0.3770
  382MOL0     H51536  13.133   1.949   0.440 -0.6421 -0.9624 -0.8309
  382MOL0     H51537  13.082   1.791   0.399 -0.4386  0.7443  2.8683
  382MOL0     H51538  13.199   1.819   0.169  0.8464 -0.2042 -0.3741
  382MOL0     H51539  13.261   1.970   0.226  0.8422 -1.0085 -0.4227
  382MOL0     H51540  13.312   1.701   0.346 -0.9335  0.2147  0.4061
  382MOL0     H51541  13.351   1.848   0.437  1.1482  2.9394 -0.9532
  382MOL0     H51542  13.493   1.928   0.256  0.2524  0.2208 -2.3676
  382MOL0     H51543  13.460   1.796   0.159  0.2083  0.9534  0.0258
  382MOL0     H51544  13.578   1.773   0.440  0.4671  0.6723  0.1701
  382MOL0     H51545  13.547   1.633   0.342  0.0164 -0.6139  1.0491
  382MOL0     H51546  13.753   1.849   0.267 -0.2322 -0.1581  1.6825
  382MOL0     H51547  13.692   1.714   0.164  0.5593 -3.0360  1.0256
  382MOL0     H51548  13.847   1.698   0.425 -0.0769  1.8419 -1.1214
  382MOL0     H51549  13.773   1.556   0.345 -0.3291 -0.4954 -1.6373
  382MOL0     H51550  12.767   1.991   0.176  0.3091 -0.6772 -3.3112
  382MOL0     H51551  12.569   2.145   0.121  1.2456 -1.4321  1.1374
  382MOL0     H51552  12.355   2.437   0.088  1.1267  0.0914 -0.3713
  382MOL0     H51553  12.121   2.506   0.016 -0.5506 -0.8796  1.4722
  382MOL0     H51554  10.311   2.413   0.276  1.3169 -0.7189 -3.1977
  382MOL0     H51555  10.109   2.506   0.165  2.8449 -0.2760 -3.6640
  382MOL0     H51556   9.959   2.939   0.013 -1.4018  1.4185 -2.0879
  382MOL0     H51557   9.792   3.066  -0.087 -3.1418  2.8146 -0.0027
  382MOL0     H51558   9.451   3.163   0.146 -0.6973 -1.3098  0.2252
  382MOL0     H51559   9.357   3.055   0.045  1.3377 -1.5740  2.0373
  382MOL0     H51560   9.304   3.304   0.065  1.5306  0.3981  1.8811
  382MOL0     H51561   9.314   3.240  -0.102  1.2369 -1.2210 -0.4645
  382MOL0     H51562   9.403   3.472  -0.071 -0.3534 -0.7414 -2.1342
  382MOL0     H51563   9.516   3.362  -0.150  0.9890 -0.6367  0.7900
  382MOL0     H51564   9.498   3.432   0.143 -1.5815 -1.3127 -0.0880
  382MOL0     H51565   9.638   3.343   0.079  0.2904  0.7160  1.3435
  382MOL0     H51566   9.775   3.739   0.016  1.6524 -0.6376 -0.5737
  382MOL0     H51567   9.501   2.940   0.203  0.1386  0.0933 -0.2393
  382MOL0     H51568   9.549   2.794   0.369  0.3048  0.2168  2.5918
  382MOL0     H51569   9.680   2.687   0.324 -1.6923 -0.6739 -2.8841
  382MOL0     H51570   9.718   2.837   0.424  0.0307  1.3060 -1.9067
  383MOL0     O51571   6.656  11.177   1.876 -0.0618  0.3162 -0.2184
  383MOL0     C51572   6.620  11.265   1.804  0.1747  0.1261  0.5084
  383MOL0     O51573   6.703  11.351   1.734 -0.8606  0.1939  0.4407
  383MOL0     C51574   6.837  11.319   1.723 -0.1643  0.0002  0.0183
  383MOL0     C51575   6.923  11.377   1.817  0.8042 -0.3781  0.1253
  383MOL0     C51576   7.055  11.339   1.808 -0.1812  0.3748  0.0190
  383MOL0     C51577   7.112  11.269   1.695  0.0389  1.1763  0.0033
  383MOL0     O51578   7.248  11.250   1.688  0.0131 -0.3285  0.3938
  383MOL0     C51579   7.331  11.371   1.695 -0.0496 -0.2257 -0.0922
  383MOL0     C51580   7.472  11.336   1.646  0.2927 -0.1369 -0.8333
  383MOL0     C51581   7.576  11.430   1.700  0.0001 -0.3430 -0.3629
  383MOL0     C51582   7.713  11.389   1.647 -0.2093  0.4680  0.6535
  383MOL0     C51583   7.825  11.471   1.710  0.3588 -0.1912  0.5010
  383MOL0     C51584   7.807  11.617   1.668  0.1311 -1.2399  0.3983
  383MOL0     C51585   7.945  11.678   1.703 -0.7642 -0.0020 -0.7686
  383MOL0     C51586   8.039  11.680   1.585 -0.7939 -0.2853 -1.5072
  383MOL0     N51587   8.181  11.709   1.629 -0.1725 -0.6255  0.1081
  383MOL0     C51588   8.291  11.627   1.610 -0.4380 -0.1090  0.3134
  383MOL0     C51589   8.388  11.697   1.664 -0.6076  0.3804  0.1504
  383MOL0     C51590   8.530  11.644   1.691 -0.2748 -0.0816  0.2607
  383MOL0     C51591   8.550  11.605   1.829  0.5383 -0.3258 -0.1077
  383MOL0     C51592   8.682  11.522   1.860 -0.8975  0.0302 -0.0686
  383MOL0     C51593   8.791  11.618   1.883 -0.5623 -0.4079 -0.9493
  383MOL0     O51594   8.896  11.552   1.953  0.1168 -0.9047 -0.0825
  383MOL0     C51595   9.022  11.609   1.951 -0.6163  0.6361  0.1403
  383MOL0     C51596   9.056  11.740   1.906  0.4231  0.7177  1.0354
  383MOL0     C51597   9.183  11.781   1.918 -0.0869 -0.2047  0.6257
  383MOL0     C51598   9.289  11.704   1.950  0.0949  0.5064 -0.5951
  383MOL0     C51599   9.426  11.751   1.958  1.0597  0.6066  0.9394
  383MOL0     O51600   9.516  11.648   1.978  0.5151 -0.3084 -0.9217
  383MOL0     C51601   9.645  11.651   1.945 -0.1838  0.4698  0.1068
  383MOL0     C51602   9.731  11.760   1.968  1.0749 -0.0364 -0.1675
  383MOL0     C51603   9.861  11.758   1.922 -0.0166 -0.8464  0.2254
  383MOL0     C51604   9.918  11.646   1.857  0.5742 -0.7728  1.4508
  383MOL0     O51605  10.047  11.632   1.811  0.3369  0.2999  0.0944
  383MOL0     C51606  10.094  11.752   1.747 -1.2012  0.0765 -0.5788
  383MOL0     C51607  10.013  11.802   1.630 -0.4491 -0.7544  0.8880
  383MOL0     C51608  10.075  11.918   1.560 -0.1028  1.2865 -0.4996
  383MOL0     C51609  10.070  12.046   1.649 -0.7622  0.4453 -0.2032
  383MOL0     C51610  10.118  12.170   1.576  0.3676  0.2937 -0.0490
  383MOL0     C51611  10.272  12.174   1.575 -0.4691  0.5626 -0.8696
  383MOL0     C51612  10.313  12.304   1.499  0.1226  0.1950 -0.1120
  383MOL0     C51613  10.343  12.430   1.580  0.5965 -0.4555  0.6015
  383MOL0    Cl51614  10.436  12.550   1.474  0.4260  0.1712 -0.6886
  383MOL0     C51615   9.844  11.532   1.857 -0.1750  1.2008 -0.0777
  383MOL0     C51616   9.709  11.535   1.898  0.0546 -0.1807  0.7110
  383MOL0     O51617   9.447  11.871   1.939 -0.6541  0.0329  0.3292
  383MOL0     C51618   9.252  11.579   2.003  0.0104  0.1842  0.3140
  383MOL0     C51619   9.123  11.530   2.010  0.1819  0.7624 -0.5039
  383MOL0     N51620   8.343  11.820   1.718 -0.3921  0.1307  0.0706
  383MOL0     N51621   8.219  11.824   1.698  0.4489 -0.7052 -0.4608
  383MOL0     C51622   7.024  11.229   1.592  0.3037 -0.1555  0.3746
  383MOL0     C51623   6.885  11.250   1.612  0.5072  0.6485  0.0120
  383MOL0     C51624   6.472  11.281   1.773 -0.0422  0.5956 -0.5618
  383MOL0     C51625   6.383  11.248   1.881 -0.5080 -0.4739 -0.3873
  383MOL0     C51626   6.245  11.263   1.873 -0.0232 -0.4232  0.7093
  383MOL0     C51627   6.183  11.325   1.764  0.6695  0.0308  0.4401
  383MOL0     O51628   6.049  11.351   1.766  0.0768  0.0625  0.2699
  383MOL0     C51629   5.977  11.384   1.646 -0.5709 -0.5763  0.3933
  383MOL0     C51630   5.830  11.418   1.677 -0.3660 -0.1046  0.0289
  383MOL0     C51631   5.734  11.377   1.567  0.0195  0.1192  0.9772
  383MOL0     C51632   5.597  11.440   1.577 -0.1745 -0.0825 -0.8299
  383MOL0     C51633   5.507  11.392   1.476 -0.0189 -0.0412  0.5146
  383MOL0     C51634   5.432  11.369   1.381 -0.9246 -0.3846 -0.3764
  383MOL0     C51635   6.272  11.355   1.652  0.0067  0.4501 -0.4504
  383MOL0     C51636   6.414  11.338   1.658 -0.6872  0.0279 -0.4158
  383MOL0     C51637   6.497  11.378   1.539  0.1993  0.2026  0.1987
  383MOL0     H51638   6.882  11.435   1.899 -2.7832  2.6101 -3.3897
  383MOL0     H51639   7.119  11.365   1.892  2.6450 -2.3726 -1.0717
  383MOL0     H51640   7.293  11.455   1.637  0.8203 -0.5863 -1.2155
  383MOL0     H51641   7.330  11.403   1.800 -1.7570 -1.1629  0.2124
  383MOL0     H51642   7.471  11.346   1.537  3.0716  2.4436 -0.7713
  383MOL0     H51643   7.497  11.232   1.668 -1.8900 -0.4573  0.4503
  383MOL0     H51644   7.580  11.409   1.808 -0.4871  1.5317  0.0572
  383MOL0     H51645   7.547  11.533   1.677  2.3478  0.8597  1.6267
  383MOL0     H51646   7.721  11.281   1.662  1.2379  0.2477 -1.2605
  383MOL0     H51647   7.720  11.404   1.539 -0.0317 -3.0011  0.0682
  383MOL0     H51648   7.815  11.469   1.819  0.8270  1.8167  0.6269
  383MOL0     H51649   7.922  11.435   1.676 -0.4520 -0.8780 -1.1947
  383MOL0     H51650   7.797  11.633   1.561  0.5120 -0.2336  0.4955
  383MOL0     H51651   7.727  11.671   1.719  1.4152  0.9417  0.2524
  383MOL0     H51652   7.985  11.625   1.790  0.4726  0.5339 -0.9906
  383MOL0     H51653   7.932  11.779   1.744 -1.9256 -1.3018  2.4043
  383MOL0     H51654   8.035  11.583   1.535 -3.6877 -0.7237 -0.5828
  383MOL0     H51655   8.009  11.753   1.509 -2.8427  0.9892  0.4106
  383MOL0     H51656   8.304  11.529   1.566 -0.0128 -0.1309  0.4826
  383MOL0     H51657   8.544  11.553   1.632 -0.8724 -2.3542  3.4047
  383MOL0     H51658   8.601  11.719   1.655  0.8703 -0.4444  1.6564
  383MOL0     H51659   8.537  11.691   1.896  1.7453  0.4849 -0.8924
  383MOL0     H51660   8.469  11.533   1.844 -2.0179  2.3664 -0.0670
  383MOL0     H51661   8.709  11.445   1.787  0.7429  1.0715 -0.5971
  383MOL0     H51662   8.673  11.468   1.955  1.6485 -0.3169  0.0427
  383MOL0     H51663   8.761  11.703   1.944 -1.1182 -1.2069 -0.0910
  383MOL0     H51664   8.819  11.653   1.783  0.3377  2.2740  0.1545
  383MOL0     H51665   8.981  11.804   1.862  0.2751 -1.3773 -2.0601
  383MOL0     H51666   9.184  11.883   1.878 -2.0225 -0.5500 -0.4483
  383MOL0     H51667   9.703  11.844   2.031  0.2168 -0.5119  0.1000
  383MOL0     H51668   9.917  11.850   1.916 -1.0441 -0.2229 -0.1029
  383MOL0     H51669  10.108  11.831   1.822  0.1821  0.2133 -0.9604
  383MOL0     H51670  10.191  11.731   1.702 -1.1355 -0.0664 -0.3709
  383MOL0     H51671   9.981  11.731   1.554 -1.7438  1.8088 -1.1076
  383MOL0     H51672   9.924  11.846   1.676  0.7418  0.2323  2.3621
  383MOL0     H51673  10.178  11.889   1.538  0.8096  2.9480  1.3065
  383MOL0     H51674  10.021  11.940   1.467 -1.2112  1.9121  0.2769
  383MOL0     H51675  10.123  12.037   1.744 -2.2290 -2.6573  0.4242
  383MOL0     H51676   9.967  12.059   1.684 -1.1242 -2.4438  0.0391
  383MOL0     H51677  10.066  12.253   1.624  1.0105  1.4330 -1.2592
  383MOL0     H51678  10.092  12.161   1.470  3.0755 -1.8634 -0.6519
  383MOL0     H51679  10.314  12.194   1.675 -1.5219  1.2770 -0.5568
  383MOL0     H51680  10.312  12.085   1.525 -0.6252 -0.1703  0.2724
  383MOL0     H51681  10.244  12.318   1.415  0.7667  1.2995 -0.4710
  383MOL0     H51682  10.411  12.288   1.452  1.0412  2.7563  0.7670
  383MOL0     H51683  10.249  12.476   1.612  1.0380  0.7936  0.1454
  383MOL0     H51684  10.403  12.399   1.667  0.3779  0.1288  0.9643
  383MOL0     H51685   9.886  11.440   1.816  0.4544  1.7572 -0.6883
  383MOL0     H51686   9.654  11.442   1.884  0.3920 -0.3499  0.4944
  383MOL0     H51687   9.333  11.520   2.044  1.2327  0.5719 -1.4342
  383MOL0     H51688   9.088  11.434   2.049  0.3781  1.0448  0.3792
  383MOL0     H51689   7.055  11.188   1.496 -3.0695 -2.2511  0.0072
  383MOL0     H51690   6.821  11.210   1.535  2.7757 -0.5844 -1.3333
  383MOL0     H51691   6.420  11.207   1.975  0.3351 -1.2370 -1.0400
  383MOL0     H51692   6.181  11.238   1.958  1.0655 -1.4988  1.2408
  383MOL0     H51693   5.976  11.303   1.572 -1.3073  0.1595 -0.4246
  383MOL0     H51694   6.019  11.471   1.595 -1.9821  0.3526  0.7750
  383MOL0     H51695   5.803  11.523   1.695 -4.5286 -1.3332  2.0500
  383MOL0     H51696   5.807  11.375   1.775  0.1238  2.2320  1.2605
  383MOL0     H51697   5.733  11.268   1.579 -1.7628  0.0846  0.6706
  383MOL0     H51698   5.772  11.398   1.467 -0.4932 -2.5688  0.1362
  383MOL0     H51699   5.552  11.413   1.674 -3.6798  2.6173 -1.5127
  383MOL0     H51700   5.609  11.549   1.580  5.0174 -0.4089  1.0962
  383MOL0     H51701   5.370  11.350   1.296  0.3334  1.1524 -1.7064
  383MOL0     H51702   6.231  11.399   1.562  3.1759 -2.0242 -3.4385
  383MOL0     H51703   6.584  11.312   1.525 -1.7113 -2.3621 -0.4022
  383MOL0     H51704   6.443  11.382   1.444 -0.7744  1.2661  0.7719
  383MOL0     H51705   6.535  11.480   1.548 -1.1350  0.7724 -0.3523
  384MOL0     O51706   6.639   7.771   6.926  0.5445 -0.1403 -0.1416
  384MOL0     C51707   6.535   7.739   6.872 -0.0399 -0.0369  0.7372
  384MOL0     O51708   6.439   7.827   6.826  0.5755 -0.5767  0.0733
  384MOL0     C51709   6.459   7.964   6.832  0.0030  1.0741  1.0729
  384MOL0     C51710   6.579   8.039   6.840  0.0402  0.2354  0.1995
  384MOL0     C51711   6.582   8.175   6.837  0.2512  0.1970  0.4639
  384MOL0     C51712   6.464   8.253   6.826 -0.0490  0.5096 -0.5546
  384MOL0     O51713   6.446   8.391   6.825 -0.0777  0.1388  0.2915
  384MOL0     C51714   6.571   8.452   6.794  0.0196 -0.7665  0.4527
  384MOL0     C51715   6.549   8.602   6.772 -0.1747  0.3851 -0.0619
  384MOL0     C51716   6.660   8.693   6.739 -1.1133  0.1917  0.1222
  384MOL0     C51717   6.770   8.641   6.637  0.7505  0.4229 -0.4405
  384MOL0     C51718   6.837   8.768   6.569  0.4884  0.0354 -0.3086
  384MOL0     C51719   6.798   8.785   6.420  0.4414 -0.3926  0.3561
  384MOL0     C51720   6.648   8.790   6.406  0.2896 -0.0613  0.0577
  384MOL0     C51721   6.590   8.791   6.257 -0.2003  0.6421  0.3243
  384MOL0     N51722   6.620   8.652   6.194  0.4835 -0.4399  0.3770
  384MOL0     C51723   6.733   8.617   6.121 -0.2487  0.9120  0.0973
  384MOL0     C51724   6.715   8.485   6.091  0.5244 -0.2548  0.9231
  384MOL0     C51725   6.833   8.409   6.033 -0.8125  0.5442  0.9340
  384MOL0     C51726   6.938   8.375   6.127 -0.7515 -0.0934  0.4452
  384MOL0     C51727   7.022   8.256   6.078 -1.1823  0.3539  0.2289
  384MOL0     C51728   7.148   8.236   6.162  0.1663  0.1879 -0.1862
  384MOL0     O51729   7.274   8.253   6.096  1.0815  0.5131  0.2119
  384MOL0     C51730   7.392   8.250   6.171 -0.3774 -0.2034 -0.7075
  384MOL0     C51731   7.399   8.197   6.298  0.2474  0.9436 -0.6548
  384MOL0     C51732   7.521   8.175   6.358 -0.4334  0.8503 -0.0617
  384MOL0     C51733   7.644   8.214   6.289  0.6190 -0.0755  0.6341
  384MOL0     C51734   7.773   8.195   6.354 -0.8021 -0.4861 -0.7519
  384MOL0     O51735   7.779   8.185   6.494  0.1927  0.5708 -0.0167
  384MOL0     C51736   7.893   8.142   6.555  0.0237  0.6048  0.2023
  384MOL0     C51737   8.002   8.224   6.569  0.3304  0.4670  0.1935
  384MOL0     C51738   8.111   8.195   6.643 -0.2969 -0.7560  0.1847
  384MOL0     C51739   8.114   8.080   6.714 -0.7360  0.1928 -0.6519
  384MOL0     O51740   8.214   8.052   6.803  0.3375 -0.1928 -0.1834
  384MOL0     C51741   8.334   8.133   6.809 -0.0601 -0.2180  0.2143
  384MOL0     C51742   8.447   8.062   6.887 -0.0783  0.6764 -0.2598
  384MOL0     C51743   8.429   8.071   7.041 -0.4118 -0.2973 -0.1090
  384MOL0     C51744   8.377   8.203   7.097 -0.7226  0.4715  0.2321
  384MOL0     C51745   8.388   8.218   7.249 -0.2483 -0.1683 -0.3936
  384MOL0     C51746   8.528   8.230   7.295 -0.1289 -0.2947  0.4790
  384MOL0     C51747   8.532   8.258   7.441  0.3232 -0.1531 -0.1938
  384MOL0     C51748   8.667   8.314   7.490  0.3720  0.4923  0.4228
  384MOL0    Cl51749   8.790   8.182   7.482 -0.1646  0.2072 -0.1182
  384MOL0     C51750   8.009   7.991   6.712 -0.2717 -0.7759 -0.9503
  384MOL0     C51751   7.896   8.021   6.629  0.2609 -0.2353  0.0881
  384MOL0     O51752   7.872   8.183   6.285 -0.3062  1.3708  0.0916
  384MOL0     C51753   7.632   8.290   6.170  0.3072 -0.2605  0.1167
  384MOL0     C51754   7.503   8.301   6.111 -0.4969  0.1320 -0.0771
  384MOL0     N51755   6.583   8.446   6.122  0.1699 -0.2842 -0.3002
  384MOL0     N51756   6.535   8.542   6.191 -0.3978  0.7164 -0.3319
  384MOL0     C51757   6.347   8.181   6.814 -0.2338  0.3244  0.5848
  384MOL0     C51758   6.347   8.042   6.815  0.7369 -0.2552 -0.7123
  384MOL0     C51759   6.508   7.591   6.849  0.6329 -0.1522  0.8013
  384MOL0     C51760   6.424   7.556   6.751  0.6851  0.8294  0.1588
  384MOL0     C51761   6.394   7.424   6.718 -0.3031  0.3687 -0.7220
  384MOL0     C51762   6.463   7.317   6.772  0.6037  0.5744 -0.6082
  384MOL0     O51763   6.441   7.179   6.741 -0.3343  0.5335  0.2686
  384MOL0     C51764   6.379   7.151   6.608  0.2348 -0.2091  0.2032
  384MOL0     C51765   6.488   7.177   6.498 -0.4829 -0.3692 -0.5665
  384MOL0     C51766   6.443   7.151   6.354  0.6942  0.7011 -0.4064
  384MOL0     C51767   6.417   6.997   6.341 -0.3604  0.7351  0.5269
  384MOL0     C51768   6.277   6.964   6.359 -0.5063 -0.4695  0.4599
  384MOL0     C51769   6.163   6.936   6.366  0.2190 -0.4990 -0.4614
  384MOL0     C51770   6.554   7.348   6.871 -1.3429 -0.1996 -0.0759
  384MOL0     C51771   6.578   7.480   6.913  0.4900 -0.6252 -1.0683
  384MOL0     C51772   6.665   7.510   7.030 -0.0634  0.0360  0.2803
  384MOL0     H51773   6.671   7.981   6.849 -1.9630 -3.0920  0.9160
  384MOL0     H51774   6.678   8.227   6.839  1.9347 -2.6991  1.8355
  384MOL0     H51775   6.636   8.439   6.881  2.4580 -2.2178 -1.4390
  384MOL0     H51776   6.610   8.412   6.700 -1.6631  0.1360 -0.6870
  384MOL0     H51777   6.506   8.637   6.867  2.2850  0.9002  0.9357
  384MOL0     H51778   6.478   8.604   6.689  0.9209 -1.7263 -1.1346
  384MOL0     H51779   6.703   8.732   6.832 -0.6043  0.9972 -0.4396
  384MOL0     H51780   6.611   8.787   6.711  0.1619  1.0073  0.5451
  384MOL0     H51781   6.850   8.586   6.687  0.2633  0.3547  0.2714
  384MOL0     H51782   6.736   8.565   6.567 -1.3593  0.0049  0.9543
  384MOL0     H51783   6.812   8.858   6.624 -3.4859 -0.6446 -0.7142
  384MOL0     H51784   6.946   8.762   6.574  0.6399  2.3888  0.3244
  384MOL0     H51785   6.835   8.879   6.378 -0.3120 -1.9366 -4.4211
  384MOL0     H51786   6.832   8.697   6.366 -0.8243 -0.2742 -0.6759
  384MOL0     H51787   6.604   8.864   6.473 -0.0023  0.4224 -0.6540
  384MOL0     H51788   6.602   8.706   6.458  3.4916 -1.6615  0.5806
  384MOL0     H51789   6.482   8.795   6.245 -0.2762  1.6121  1.2082
  384MOL0     H51790   6.634   8.875   6.202  2.4371 -0.0281  1.2381
  384MOL0     H51791   6.810   8.690   6.098  0.1271  0.5517  0.2010
  384MOL0     H51792   6.790   8.318   5.990 -2.1705  0.5435  2.2335
  384MOL0     H51793   6.872   8.466   5.948 -0.4120 -1.8849 -0.5925
  384MOL0     H51794   6.997   8.467   6.131 -0.0569 -0.5537  0.9315
  384MOL0     H51795   6.879   8.363   6.218 -1.9553 -1.0312 -0.4305
  384MOL0     H51796   7.048   8.268   5.972  0.1448  0.4383  0.5488
  384MOL0     H51797   6.958   8.170   6.098 -0.2121 -0.1714  1.1826
  384MOL0     H51798   7.141   8.138   6.210 -2.4779  0.1168 -0.5616
  384MOL0     H51799   7.148   8.308   6.245  0.7196 -1.1475  1.0260
  384MOL0     H51800   7.307   8.170   6.349  2.4930 -1.9098  2.3395
  384MOL0     H51801   7.516   8.128   6.456 -0.0862 -1.1185 -0.9648
  384MOL0     H51802   8.007   8.315   6.511  0.7917 -0.3178 -1.0504
  384MOL0     H51803   8.180   8.279   6.646 -1.4960  0.2226  2.4648
  384MOL0     H51804   8.376   8.145   6.709  0.1324 -0.8661  0.2125
  384MOL0     H51805   8.325   8.229   6.860  1.3812  0.7471 -1.2600
  384MOL0     H51806   8.469   7.967   6.838 -1.7068  1.1069 -1.9610
  384MOL0     H51807   8.535   8.127   6.880  0.4771 -0.1083 -0.6336
  384MOL0     H51808   8.373   7.991   7.090 -0.6992  1.1204  1.9960
  384MOL0     H51809   8.529   8.067   7.086 -1.2807 -1.0450  1.8437
  384MOL0     H51810   8.273   8.218   7.071  0.0805 -0.7467 -4.5858
  384MOL0     H51811   8.430   8.284   7.046  0.9099 -0.2064  0.7500
  384MOL0     H51812   8.357   8.125   7.298  2.3230  0.5427  3.0071
  384MOL0     H51813   8.331   8.306   7.280  0.1437 -0.4039  1.0677
  384MOL0     H51814   8.585   8.139   7.271 -1.4698 -1.6744  2.2236
  384MOL0     H51815   8.584   8.310   7.247  1.3526 -1.7109 -0.2605
  384MOL0     H51816   8.511   8.160   7.486  1.7399 -2.0244 -3.2774
  384MOL0     H51817   8.465   8.340   7.467  1.4236  1.5876 -2.4295
  384MOL0     H51818   8.697   8.398   7.426  4.6988 -0.5696  0.7560
  384MOL0     H51819   8.646   8.349   7.591 -1.7124  0.2820  0.1149
  384MOL0     H51820   8.020   7.900   6.769  3.0351 -0.1796 -0.4486
  384MOL0     H51821   7.817   7.948   6.633  3.5519 -4.2666  5.6225
  384MOL0     H51822   7.725   8.335   6.136 -0.5009  1.3342 -0.1211
  384MOL0     H51823   7.489   8.339   6.010 -0.9850  0.1477 -0.0048
  384MOL0     H51824   6.248   8.226   6.812 -1.7697 -2.5278  3.2459
  384MOL0     H51825   6.245   8.005   6.814  0.6921 -0.1260 -1.4020
  384MOL0     H51826   6.368   7.626   6.690  0.8546  0.8329  0.0068
  384MOL0     H51827   6.316   7.396   6.648 -3.0588 -0.4040  2.3889
  384MOL0     H51828   6.284   7.200   6.586  0.9067  1.2613  0.4640
  384MOL0     H51829   6.347   7.046   6.611 -0.7196 -0.0925 -2.7392
  384MOL0     H51830   6.582   7.124   6.515 -0.4189 -0.4406 -1.1078
  384MOL0     H51831   6.513   7.283   6.511 -0.2935 -0.4054 -0.6366
  384MOL0     H51832   6.525   7.163   6.283  0.8177 -2.3242 -0.8989
  384MOL0     H51833   6.349   7.200   6.325  0.3441  0.4367  0.2771
  384MOL0     H51834   6.441   6.961   6.240  1.7698 -0.4718  1.3817
  384MOL0     H51835   6.479   6.930   6.403 -0.6805 -3.0901 -2.8198
  384MOL0     H51836   6.065   6.891   6.363  0.2516 -0.6223 -3.6852
  384MOL0     H51837   6.610   7.275   6.930  0.0475  0.9072  0.0187
  384MOL0     H51838   6.614   7.576   7.101  1.3203  0.5641  0.8228
  384MOL0     H51839   6.686   7.415   7.079  0.2830  0.0720  0.2087
  384MOL0     H51840   6.758   7.556   6.994  0.1204 -0.7920 -0.3484
  385MOL0     O51841   1.388   3.525  10.060 -0.4779  0.2756 -0.0298
  385MOL0     C51842   1.474   3.453  10.099 -1.0023  0.0374  0.3577
  385MOL0     O51843   1.489   3.325  10.064 -0.2496 -0.4317 -0.3290
  385MOL0     C51844   1.395   3.252  10.003 -1.0934  0.8040  0.9429
  385MOL0     C51845   1.290   3.191  10.075 -0.3475  0.0604 -0.1178
  385MOL0     C51846   1.195   3.114  10.008 -0.4209  0.1836 -0.6385
  385MOL0     C51847   1.210   3.087   9.873  0.0473 -0.0162 -0.6494
  385MOL0     O51848   1.127   3.004   9.800 -0.3824  0.0251 -0.5736
  385MOL0     C51849   1.083   2.881   9.857  0.7159 -0.1200 -0.3868
  385MOL0     C51850   1.106   2.753   9.772  0.2305 -0.4536  0.2664
  385MOL0     C51851   1.261   2.731   9.753  0.2214  0.2036  0.5308
  385MOL0     C51852   1.312   2.595   9.704  0.4836  0.3245 -0.1194
  385MOL0     C51853   1.283   2.550   9.563  0.4708 -0.4942  0.2818
  385MOL0     C51854   1.383   2.451   9.510 -0.3656 -0.5463  0.4832
  385MOL0     C51855   1.492   2.533   9.441 -0.1704  0.6685  0.2236
  385MOL0     C51856   1.590   2.435   9.384 -0.0496 -0.4111  0.9385
  385MOL0     N51857   1.684   2.510   9.294 -0.6428 -0.2424 -0.0631
  385MOL0     C51858   1.670   2.541   9.160  1.6170  0.5225 -0.1729
  385MOL0     C51859   1.777   2.615   9.132 -0.5799 -0.6435 -0.1899
  385MOL0     C51860   1.810   2.675   8.996  0.1701  0.0907 -0.4479
  385MOL0     C51861   1.958   2.670   8.966  0.2816  0.7961  0.3843
  385MOL0     C51862   2.010   2.523   8.982 -0.4543 -0.1930  0.2183
  385MOL0     C51863   2.155   2.501   8.947 -0.0256 -0.6472 -0.1929
  385MOL0     O51864   2.234   2.613   9.002  0.8385  0.0249 -0.3623
  385MOL0     C51865   2.371   2.611   8.974  0.7644 -0.2061 -0.7531
  385MOL0     C51866   2.450   2.719   9.012  0.0582  0.2919 -0.1388
  385MOL0     C51867   2.590   2.718   8.996  0.1198 -0.4366 -0.1752
  385MOL0     C51868   2.654   2.611   8.931 -0.0896 -0.4347 -0.6139
  385MOL0     C51869   2.802   2.595   8.935  0.5314 -0.0703 -0.7077
  385MOL0     O51870   2.881   2.686   9.013 -0.0227  0.5521  0.3536
  385MOL0     C51871   3.018   2.668   9.013 -0.0368 -1.1037  0.2498
  385MOL0     C51872   3.090   2.560   9.070  0.0870 -0.2513  0.0127
  385MOL0     C51873   3.235   2.566   9.061  0.4319 -0.5397 -0.3291
  385MOL0     C51874   3.307   2.670   8.998  0.1170 -0.3403  0.4557
  385MOL0     O51875   3.446   2.657   8.995 -0.4466 -0.3448  0.5470
  385MOL0     C51876   3.522   2.763   8.935  0.0240  0.3119  0.3447
  385MOL0     C51877   3.669   2.718   8.949 -0.1127 -0.4455  0.3970
  385MOL0     C51878   3.767   2.829   8.895  0.4122 -0.7298  0.0486
  385MOL0     C51879   3.906   2.784   8.865  0.0951 -0.1174  0.6362
  385MOL0     C51880   4.007   2.891   8.893 -0.7995  0.4599 -0.1785
  385MOL0     C51881   4.151   2.857   8.851 -0.0834  0.7561  0.7240
  385MOL0     C51882   4.249   2.968   8.900 -0.3929 -0.1770 -0.3110
  385MOL0     C51883   4.229   3.106   8.835 -0.9275  0.5401  0.5427
  385MOL0    Cl51884   4.112   3.209   8.909  0.1959  0.4374  0.3459
  385MOL0     C51885   3.231   2.777   8.945  0.0766 -0.6618  0.8893
  385MOL0     C51886   3.091   2.776   8.956 -0.3973 -0.4898 -0.3523
  385MOL0     O51887   2.839   2.491   8.879  0.5919  0.0464 -0.0054
  385MOL0     C51888   2.568   2.505   8.897 -0.1567  0.2821  0.5862
  385MOL0     C51889   2.431   2.508   8.909 -0.7180 -0.2535  0.4787
  385MOL0     N51890   1.851   2.643   9.249  0.1751  0.3717  0.2612
  385MOL0     N51891   1.792   2.572   9.338  1.1409 -0.0341 -0.4295
  385MOL0     C51892   1.324   3.136   9.806  0.4237  0.3205  0.0776
  385MOL0     C51893   1.414   3.222   9.872 -0.5053 -0.0555 -0.4179
  385MOL0     C51894   1.575   3.503  10.195 -0.5642 -0.2626  0.0510
  385MOL0     C51895   1.639   3.405  10.279 -0.0017 -0.2311  0.4426
  385MOL0     C51896   1.735   3.437  10.378  0.0862 -0.4038  0.3496
  385MOL0     C51897   1.770   3.576  10.405  0.3767  0.1319  0.4182
  385MOL0     O51898   1.874   3.586  10.499 -0.3693  0.4054  0.0379
  385MOL0     C51899   1.922   3.717  10.530  0.3101  0.0490 -0.7753
  385MOL0     C51900   2.021   3.711  10.651  0.3895 -0.1477  0.3756
  385MOL0     C51901   2.134   3.621  10.610  0.2787  0.2042  0.3872
  385MOL0     C51902   2.136   3.491  10.678 -0.6127  0.7665 -0.0319
  385MOL0     C51903   2.274   3.442  10.681  1.1607  0.1109  0.4225
  385MOL0     C51904   2.394   3.406  10.666 -0.5864  0.7488  0.2196
  385MOL0     C51905   1.706   3.677  10.321 -0.8494 -0.3251  0.5207
  385MOL0     C51906   1.614   3.635  10.216  0.2525 -0.6223 -0.0397
  385MOL0     C51907   1.571   3.744  10.130 -0.7629  0.1891 -0.6541
  385MOL0     H51908   1.270   3.213  10.179  2.0247  0.8102  0.2406
  385MOL0     H51909   1.110   3.078  10.066  1.9249 -1.3840  2.0880
  385MOL0     H51910   1.132   2.855   9.952  3.0069 -1.3743 -1.8267
  385MOL0     H51911   0.977   2.880   9.883  1.1892 -4.3084  2.3228
  385MOL0     H51912   1.058   2.761   9.674 -0.7926 -0.3888  0.7569
  385MOL0     H51913   1.071   2.659   9.817  0.3463 -0.4347  0.3957
  385MOL0     H51914   1.323   2.748   9.842 -1.0614  2.9738  1.0235
  385MOL0     H51915   1.286   2.811   9.682 -4.0005 -2.1300 -4.1922
  385MOL0     H51916   1.420   2.580   9.716  0.5551 -0.2941 -1.3916
  385MOL0     H51917   1.277   2.530   9.785  1.6753 -1.3318 -0.8706
  385MOL0     H51918   1.183   2.504   9.563  1.3119 -2.4119  1.2091
  385MOL0     H51919   1.273   2.642   9.504  1.0993 -0.1921  0.6400
  385MOL0     H51920   1.418   2.380   9.585  0.9289 -0.4092  0.0420
  385MOL0     H51921   1.337   2.390   9.431 -1.5115 -0.6661  1.2171
  385MOL0     H51922   1.536   2.594   9.521 -0.3274  1.2337 -0.1119
  385MOL0     H51923   1.458   2.601   9.362 -0.9615  2.6286  2.1520
  385MOL0     H51924   1.635   2.389   9.472  0.0110  0.2231  1.2418
  385MOL0     H51925   1.529   2.359   9.335 -1.7509  1.2117  0.4038
  385MOL0     H51926   1.598   2.519   9.081  0.2317  4.5617 -0.2369
  385MOL0     H51927   1.740   2.632   8.923 -1.7417  0.6604  0.9677
  385MOL0     H51928   1.783   2.780   9.009 -0.2085 -0.1395  0.7335
  385MOL0     H51929   1.983   2.707   8.866  0.9495 -2.0040 -0.5795
  385MOL0     H51930   2.001   2.737   9.041  0.4475 -0.0623  1.0587
  385MOL0     H51931   1.951   2.448   8.928 -1.7005  1.3831 -0.6966
  385MOL0     H51932   2.007   2.503   9.090  1.4726  3.1095  1.0288
  385MOL0     H51933   2.155   2.507   8.838 -0.5014 -1.0404 -0.2214
  385MOL0     H51934   2.203   2.404   8.959 -2.1088 -2.3152 -3.6099
  385MOL0     H51935   2.414   2.811   9.057  2.4981  0.9733  0.5538
  385MOL0     H51936   2.654   2.799   9.030  1.4030 -1.4306 -0.1089
  385MOL0     H51937   3.046   2.467   9.105  2.1849 -0.3038  2.7987
  385MOL0     H51938   3.286   2.479   9.100 -1.1271 -1.2167  0.3155
  385MOL0     H51939   3.505   2.773   8.827 -1.8327  1.8976  0.7371
  385MOL0     H51940   3.509   2.857   8.990  2.1324  0.8140  0.0807
  385MOL0     H51941   3.686   2.698   9.055 -0.6755 -2.0069  0.2267
  385MOL0     H51942   3.684   2.625   8.893  1.5834 -0.7096  1.2359
  385MOL0     H51943   3.723   2.879   8.808  1.0639 -1.6708 -0.8480
  385MOL0     H51944   3.769   2.911   8.967 -3.6457  0.9882 -1.4920
  385MOL0     H51945   3.901   2.747   8.762 -0.3226 -2.3316  1.3955
  385MOL0     H51946   3.927   2.687   8.911 -0.5711 -0.4674  0.2059
  385MOL0     H51947   4.009   2.924   8.997  1.8535  0.4174 -0.1399
  385MOL0     H51948   3.979   2.985   8.844 -2.0860  0.4281  0.4739
  385MOL0     H51949   4.189   2.765   8.897  0.7374  0.7917  0.1357
  385MOL0     H51950   4.164   2.854   8.743 -0.9189  1.5717  0.5931
  385MOL0     H51951   4.349   2.926   8.886 -0.7392 -1.5839  1.1995
  385MOL0     H51952   4.242   2.986   9.007 -0.0176  0.5370 -0.4002
  385MOL0     H51953   4.325   3.158   8.838 -3.0501  4.9019  0.9715
  385MOL0     H51954   4.194   3.098   8.732 -1.6285  4.0856  0.3653
  385MOL0     H51955   3.267   2.869   8.900 -3.5254  0.3374 -0.2707
  385MOL0     H51956   3.036   2.863   8.919  0.6172 -0.2153 -1.2782
  385MOL0     H51957   2.610   2.418   8.849 -3.8525 -1.5267  0.2380
  385MOL0     H51958   2.374   2.428   8.861 -0.9288 -0.1795  0.6033
  385MOL0     H51959   1.325   3.101   9.704  0.1882  1.5904 -0.3717
  385MOL0     H51960   1.498   3.258   9.815 -2.5427 -0.2701 -3.8791
  385MOL0     H51961   1.633   3.298  10.257  3.7907 -0.1563 -1.8993
  385MOL0     H51962   1.796   3.355  10.414 -1.1406 -1.1439  0.8060
  385MOL0     H51963   1.839   3.784  10.551 -0.4303 -0.8896 -0.6266
  385MOL0     H51964   1.963   3.757  10.437  0.0882 -3.8315 -2.7488
  385MOL0     H51965   1.971   3.678  10.742 -1.2003  0.2943 -0.3009
  385MOL0     H51966   2.053   3.815  10.663  0.6904 -0.0717 -0.8682
  385MOL0     H51967   2.225   3.676  10.637 -0.0935  1.7229 -1.2573
  385MOL0     H51968   2.126   3.614  10.501  0.9564  2.1193  0.1755
  385MOL0     H51969   2.103   3.502  10.781 -1.8267 -1.2530 -0.1728
  385MOL0     H51970   2.072   3.421  10.625 -0.9952  1.2742 -0.2517
  385MOL0     H51971   2.499   3.389  10.653  0.1399  1.3006  4.0285
  385MOL0     H51972   1.729   3.783  10.328 -2.0352  0.1401 -1.7507
  385MOL0     H51973   1.529   3.708  10.036 -1.5480 -0.2155 -0.1649
  385MOL0     H51974   1.484   3.784  10.183 -0.4781 -1.5399  1.2767
  385MOL0     H51975   1.645   3.822  10.116  0.4909 -1.1865 -2.0887
  386MOL0     O51976   0.462  10.933   7.928  0.7111  0.3659  0.2676
  386MOL0     C51977   0.387  10.922   7.827  0.1402  0.7745 -0.8778
  386MOL0     O51978   0.416  10.858   7.713  0.4409  0.4830  0.2272
  386MOL0     C51979   0.546  10.809   7.711  1.1560 -0.2482 -0.2615
  386MOL0     C51980   0.586  10.672   7.739 -0.5191 -0.5677  1.1535
  386MOL0     C51981   0.723  10.645   7.722  0.1775  0.6687  0.7199
  386MOL0     C51982   0.820  10.743   7.711 -0.8626  0.7660  0.9074
  386MOL0     O51983   0.946  10.695   7.699 -0.9575 -0.2592  0.2811
  386MOL0     C51984   1.054  10.784   7.724  0.2521 -0.0292  0.0978
  386MOL0     C51985   1.186  10.708   7.743  0.2720  0.3970 -0.6998
  386MOL0     C51986   1.213  10.600   7.630 -0.7062 -0.1641  0.6317
  386MOL0     C51987   1.325  10.504   7.666 -0.0834  0.3556 -0.3583
  386MOL0     C51988   1.460  10.562   7.627 -0.7680  0.8882  0.0094
  386MOL0     C51989   1.574  10.468   7.672 -0.6646 -0.0655  0.2149
  386MOL0     C51990   1.709  10.518   7.635  0.4264 -0.5295 -0.4866
  386MOL0     C51991   1.760  10.427   7.522  0.4986  0.4198 -0.2200
  386MOL0     N51992   1.896  10.461   7.496 -0.0678  0.1365 -0.6095
  386MOL0     C51993   1.953  10.480   7.376 -0.0451  0.1335  0.5023
  386MOL0     C51994   2.084  10.492   7.409 -0.3484 -0.4039 -0.3346
  386MOL0     C51995   2.209  10.497   7.309 -0.6822 -0.6182  0.0811
  386MOL0     C51996   2.208  10.610   7.202  0.6734 -0.7338  0.0511
  386MOL0     C51997   2.312  10.584   7.094 -0.0702 -1.1835  0.0084
  386MOL0     C51998   2.449  10.534   7.150  0.1439 -0.0418  0.1410
  386MOL0     O51999   2.538  10.544   7.044  0.3088  0.3995  0.1152
  386MOL0     C52000   2.662  10.493   7.055 -0.8649  0.5462 -0.7730
  386MOL0     C52001   2.744  10.503   6.942  0.0048  0.0978  0.8288
  386MOL0     C52002   2.880  10.471   6.934 -0.0079  0.1499 -0.0222
  386MOL0     C52003   2.949  10.422   7.047  0.9313  0.1534 -0.1880
  386MOL0     C52004   3.095  10.379   7.036 -0.8678 -1.1595 -0.2349
  386MOL0     O52005   3.140  10.354   6.914 -0.5139 -0.0225  0.6330
  386MOL0     C52006   3.274  10.359   6.883  0.0093 -0.6370 -0.1812
  386MOL0     C52007   3.316  10.299   6.762 -0.3432  0.5047  0.2019
  386MOL0     C52008   3.459  10.300   6.729 -0.2200  0.0492  0.8582
  386MOL0     C52009   3.549  10.371   6.817  0.3660  0.0661  0.3640
  386MOL0     O52010   3.684  10.372   6.786 -0.0105  0.2644  0.5252
  386MOL0     C52011   3.780  10.467   6.840  0.1577  0.0365 -0.4226
  386MOL0     C52012   3.909  10.439   6.766 -0.5609 -0.1337  0.4724
  386MOL0     C52013   4.016  10.536   6.808 -1.1525 -0.3376  0.0771
  386MOL0     C52014   4.142  10.485   6.742 -0.0496  0.0207 -0.6895
  386MOL0     C52015   4.252  10.577   6.778  0.1759 -0.4579  0.2933
  386MOL0     C52016   4.392  10.511   6.758 -0.8196  0.8129  0.1385
  386MOL0     C52017   4.502  10.617   6.757  0.4801  0.0922  0.1590
  386MOL0     C52018   4.636  10.561   6.738  0.0199  0.2963 -0.1020
  386MOL0    Cl52019   4.668  10.499   6.570  0.4340 -0.1061 -0.0524
  386MOL0     C52020   3.503  10.444   6.926 -0.4424  0.0802  0.0730
  386MOL0     C52021   3.369  10.438   6.959 -0.5573  0.1945 -0.1312
  386MOL0     O52022   3.153  10.383   7.146 -0.7144  0.6301 -0.2564
  386MOL0     C52023   2.860  10.407   7.166 -0.1282 -0.3966  0.8659
  386MOL0     C52024   2.721  10.440   7.168  0.3037 -0.7868  0.5715
  386MOL0     N52025   2.108  10.461   7.541 -1.0907 -0.7136 -0.2703
  386MOL0     N52026   1.989  10.460   7.594 -0.5122  0.3251  0.6455
  386MOL0     C52027   0.779  10.873   7.715  1.4756 -0.9604  0.3199
  386MOL0     C52028   0.647  10.899   7.705 -0.1705 -0.8136  0.3189
  386MOL0     C52029   0.253  10.992   7.838 -0.4806  1.0052 -0.2057
  386MOL0     C52030   0.142  10.915   7.810 -0.0637  0.1933  0.0153
  386MOL0     C52031   0.020  10.973   7.811  0.2298  0.5447  0.3209
  386MOL0     C52032   0.011  11.116   7.839  0.3250  0.8143 -0.1194
  386MOL0     O52033  -0.122  11.158   7.838 -0.8095  0.0340  0.1693
  386MOL0     C52034  -0.162  11.290   7.890 -0.5804  0.4385  0.0238
  386MOL0     C52035  -0.227  11.269   8.030 -0.1718  0.5643  0.4379
  386MOL0     C52036  -0.319  11.149   8.019  0.6257 -0.2621  0.0619
  386MOL0     C52037  -0.435  11.144   8.129  0.1522 -0.2215  0.0100
  386MOL0     C52038  -0.509  11.021   8.105 -0.9942  0.3885  0.7486
  386MOL0     C52039  -0.585  10.933   8.075  0.2266  0.6223  0.0728
  386MOL0     C52040   0.127  11.192   7.862  0.0697 -0.0542 -0.9801
  386MOL0     C52041   0.246  11.129   7.849 -0.3099  0.7490 -0.7198
  386MOL0     C52042   0.366  11.215   7.856  0.1353 -0.4822  0.5882
  386MOL0     H52043   0.518  10.588   7.740  1.1134 -1.9960 -0.1595
  386MOL0     H52044   0.752  10.540   7.719  0.8521  0.8276  1.4705
  386MOL0     H52045   1.061  10.857   7.642 -1.2770  3.7291  2.9765
  386MOL0     H52046   1.034  10.846   7.812 -1.1625  0.1840 -0.3427
  386MOL0     H52047   1.182  10.647   7.833 -0.5713  2.6061  0.8589
  386MOL0     H52048   1.263  10.785   7.759 -0.2965  1.3221 -2.2483
  386MOL0     H52049   1.217  10.648   7.532  1.1970 -1.7380 -0.1374
  386MOL0     H52050   1.131  10.528   7.623  0.0725 -1.1973  1.6626
  386MOL0     H52051   1.326  10.484   7.774  0.0259  0.2159 -0.3854
  386MOL0     H52052   1.315  10.412   7.608 -2.6813  1.4134 -1.7513
  386MOL0     H52053   1.467  10.580   7.520 -1.6164  3.2637  0.3034
  386MOL0     H52054   1.462  10.661   7.672 -1.9120  1.2819 -0.7704
  386MOL0     H52055   1.573  10.480   7.780  0.7810  0.8590  0.1543
  386MOL0     H52056   1.553  10.366   7.638  0.0214  0.4361 -1.9026
  386MOL0     H52057   1.778  10.512   7.719 -1.6208  0.1672  1.3417
  386MOL0     H52058   1.701  10.624   7.608  0.5851 -0.2997  0.3712
  386MOL0     H52059   1.743  10.322   7.545  0.6175  0.0246 -1.8388
  386MOL0     H52060   1.703  10.438   7.429  1.3915 -1.3533 -1.0177
  386MOL0     H52061   1.899  10.482   7.282  0.7531  0.0342  0.0359
  386MOL0     H52062   2.299  10.495   7.371 -1.0817 -1.3860  0.6724
  386MOL0     H52063   2.223  10.399   7.262 -0.1479  0.1576 -1.4245
  386MOL0     H52064   2.111  10.602   7.153 -0.6489 -1.7953  2.6753
  386MOL0     H52065   2.215  10.704   7.256 -1.7389 -0.8064  0.5855
  386MOL0     H52066   2.326  10.682   7.048 -1.0608 -0.7633  0.5709
  386MOL0     H52067   2.270  10.511   7.023 -0.9319 -0.5883 -0.1028
  386MOL0     H52068   2.434  10.429   7.174  1.8697 -0.6466 -1.1831
  386MOL0     H52069   2.485  10.594   7.235  0.4488 -0.5202  0.3590
  386MOL0     H52070   2.692  10.529   6.851 -0.6615 -0.3882  1.0678
  386MOL0     H52071   2.919  10.499   6.836  1.7374  1.9284  1.1120
  386MOL0     H52072   3.249  10.240   6.701  0.0169 -0.3122  0.5747
  386MOL0     H52073   3.502  10.252   6.641  1.6637  0.5144  1.4698
  386MOL0     H52074   3.754  10.573   6.830  0.2293  0.1524  0.4774
  386MOL0     H52075   3.805  10.458   6.946  2.2201  0.8728 -0.7959
  386MOL0     H52076   3.922  10.330   6.775  2.3955  0.1955  1.3951
  386MOL0     H52077   3.899  10.468   6.661 -1.9558  0.3532  0.7206
  386MOL0     H52078   4.007  10.640   6.776  4.1207 -0.0617 -1.5494
  386MOL0     H52079   4.016  10.543   6.917 -2.0415 -3.0859  0.3403
  386MOL0     H52080   4.138  10.484   6.633  1.1841 -1.2445 -0.7484
  386MOL0     H52081   4.177  10.385   6.770 -1.5079 -0.3726 -0.1720
  386MOL0     H52082   4.251  10.598   6.885  2.9582  0.2988  0.2630
  386MOL0     H52083   4.240  10.672   6.724  1.8477 -1.0872 -1.3074
  386MOL0     H52084   4.411  10.432   6.832 -0.0249 -2.9831 -3.7510
  386MOL0     H52085   4.407  10.461   6.662 -1.1686 -0.6254  0.8109
  386MOL0     H52086   4.501  10.677   6.849  3.0680 -4.9068  3.9449
  386MOL0     H52087   4.475  10.686   6.676 -3.2450  1.4685  2.2938
  386MOL0     H52088   4.714  10.635   6.754  1.0458 -0.5594 -0.9507
  386MOL0     H52089   4.664  10.481   6.806 -0.9411  0.3145  0.3269
  386MOL0     H52090   3.571  10.507   6.983  1.1494 -1.0763 -0.4721
  386MOL0     H52091   3.329  10.498   7.041  1.0287 -0.5220  1.2280
  386MOL0     H52092   2.911  10.357   7.248  0.4275 -0.9335  0.2057
  386MOL0     H52093   2.662  10.428   7.258 -0.7238 -4.5964 -0.4126
  386MOL0     H52094   0.845  10.959   7.709  2.2072 -1.3184  2.2530
  386MOL0     H52095   0.616  11.003   7.696  0.5341 -0.6648 -0.4668
  386MOL0     H52096   0.164  10.814   7.778  0.3329  0.6403 -1.1763
  386MOL0     H52097  -0.064  10.905   7.804  2.1248 -1.8015 -2.1503
  386MOL0     H52098  -0.239  11.325   7.820 -1.5244 -1.4850  0.0299
  386MOL0     H52099  -0.083  11.364   7.878 -1.2953  0.8666 -2.7403
  386MOL0     H52100  -0.278  11.359   8.065 -0.7567 -0.7975  3.4240
  386MOL0     H52101  -0.139  11.252   8.094  1.2480  1.3502 -1.2338
  386MOL0     H52102  -0.268  11.058   8.053  0.3847 -0.2304  0.5235
  386MOL0     H52103  -0.370  11.147   7.923  0.5271 -1.2812  0.1328
  386MOL0     H52104  -0.384  11.135   8.226  2.3440 -0.7149 -1.1285
  386MOL0     H52105  -0.503  11.230   8.130 -1.8308 -1.6657  2.6045
  386MOL0     H52106  -0.649  10.853   8.046 -1.4779  2.4197 -1.3925
  386MOL0     H52107   0.119  11.299   7.878  0.1367 -0.3091  0.9837
  386MOL0     H52108   0.413  11.206   7.955  1.5659  1.6291  0.1703
  386MOL0     H52109   0.435  11.179   7.780 -0.5252 -0.7786  0.1189
  386MOL0     H52110   0.341  11.321   7.843  0.0833 -0.0978  3.2409
  387MOL0     O52111  10.476   1.122   0.575 -0.5346  0.0023 -0.1897
  387MOL0     C52112  10.404   1.033   0.617  0.5360 -0.1709 -0.1248
  387MOL0     O52113  10.440   0.907   0.649  0.4729 -0.4319  0.4370
  387MOL0     C52114  10.571   0.871   0.621 -0.7505 -0.9175 -0.1393
  387MOL0     C52115  10.651   0.906   0.507 -0.2353  0.2004  0.2022
  387MOL0     C52116  10.783   0.871   0.504  0.3952 -0.1425  0.6639
  387MOL0     C52117  10.844   0.784   0.592  0.9174 -0.5924 -0.5666
  387MOL0     O52118  10.968   0.727   0.582 -0.0366  0.0203  0.4303
  387MOL0     C52119  11.069   0.779   0.489  0.0860 -0.7430  0.2633
  387MOL0     C52120  11.131   0.909   0.542  0.6253 -0.0579 -0.7539
  387MOL0     C52121  11.217   0.877   0.666 -0.3391 -0.2033  0.0499
  387MOL0     C52122  11.292   1.000   0.724 -0.5394  0.8107  0.6979
  387MOL0     C52123  11.393   0.944   0.827  0.1222  0.0108  0.1119
  387MOL0     C52124  11.484   1.054   0.889 -0.1497 -0.4064 -0.1514
  387MOL0     C52125  11.606   1.002   0.972  0.9025  0.7520  0.7801
  387MOL0     C52126  11.697   1.117   1.008 -0.5390 -0.4548  0.4661
  387MOL0     N52127  11.776   1.159   0.890 -0.6920  0.2344 -0.9059
  387MOL0     C52128  11.883   1.090   0.846 -0.6638 -0.6595 -0.3031
  387MOL0     C52129  11.946   1.174   0.762 -0.3038 -0.4282  0.4118
  387MOL0     C52130  12.086   1.177   0.711 -0.3364  0.5619  0.4378
  387MOL0     C52131  12.168   1.287   0.775  0.2291  0.2544 -0.4899
  387MOL0     C52132  12.319   1.258   0.755  0.6809 -0.2901  0.3970
  387MOL0     C52133  12.409   1.344   0.836 -0.6039 -0.6244 -0.0858
  387MOL0     O52134  12.534   1.298   0.794  0.2718  0.2721  0.3316
  387MOL0     C52135  12.643   1.293   0.881  0.8691 -0.5411 -0.1604
  387MOL0     C52136  12.763   1.267   0.813 -0.3700 -0.4695 -0.0988
  387MOL0     C52137  12.882   1.252   0.888 -0.8244 -0.2075 -0.3767
  387MOL0     C52138  12.891   1.269   1.030 -0.0464  0.4356  0.1105
  387MOL0     C52139  13.018   1.255   1.107  0.5539 -0.1954  0.6729
  387MOL0     O52140  13.131   1.247   1.028  0.2608  0.1252 -0.0718
  387MOL0     C52141  13.254   1.278   1.074  0.9363  1.0139 -0.0684
  387MOL0     C52142  13.323   1.385   1.016 -0.4697  0.0146 -0.2816
  387MOL0     C52143  13.446   1.422   1.076  0.2931  0.2471 -0.6697
  387MOL0     C52144  13.501   1.353   1.187 -0.5280  0.0879 -0.3122
  387MOL0     O52145  13.622   1.375   1.234 -1.0333  0.7018  0.2611
  387MOL0     C52146  13.704   1.475   1.178  0.5296  0.9259  1.1100
  387MOL0     C52147  13.827   1.475   1.263 -0.4447 -0.0891  0.3607
  387MOL0     C52148  13.904   1.340   1.248 -0.2388 -0.1269 -0.2361
  387MOL0     C52149  14.023   1.336   1.344  0.4854 -0.1885  0.1193
  387MOL0     C52150  14.090   1.193   1.331 -1.9962  0.6659 -0.0374
  387MOL0     C52151  14.204   1.191   1.442 -0.2293  0.9681 -0.2632
  387MOL0     C52152  14.281   1.054   1.447 -0.4764 -0.1050  0.4608
  387MOL0     C52153  14.367   1.036   1.572  0.3415 -0.6458  0.1089
  387MOL0    Cl52154  14.499   1.153   1.574 -0.1074 -0.4158 -0.2617
  387MOL0     C52155  13.431   1.242   1.243 -0.8483  0.3283  0.4231
  387MOL0     C52156  13.300   1.214   1.187  0.4001  0.3558 -0.5482
  387MOL0     O52157  13.025   1.257   1.228  0.1112  0.4343  0.1860
  387MOL0     C52158  12.768   1.299   1.095  0.0725 -0.7716  0.4910
  387MOL0     C52159  12.653   1.320   1.018  0.1776  0.4073  0.1675
  387MOL0     N52160  11.861   1.281   0.747 -0.5848 -0.5509 -0.3604
  387MOL0     N52161  11.757   1.276   0.825 -0.2636  0.1971  0.4739
  387MOL0     C52162  10.769   0.747   0.704  0.5367 -0.4248 -0.0589
  387MOL0     C52163  10.630   0.782   0.714  0.5281 -0.3410 -0.7621
  387MOL0     C52164  10.258   1.073   0.653 -0.3140  0.3303  0.6349
  387MOL0     C52165  10.183   0.978   0.726 -0.6165  0.7145  0.4954
  387MOL0     C52166  10.053   0.997   0.766 -0.7050  0.3048  0.3240
  387MOL0     C52167   9.997   1.122   0.731 -0.3125  0.2005 -0.5876
  387MOL0     O52168   9.873   1.166   0.767  0.2689  0.1993 -0.7625
  387MOL0     C52169   9.787   1.064   0.819  0.7326  0.6793 -0.9690
  387MOL0     C52170   9.654   1.131   0.825 -0.0601 -0.1062  0.8987
  387MOL0     C52171   9.631   1.211   0.951 -0.0669 -0.8703  0.3028
  387MOL0     C52172   9.494   1.277   0.957 -0.5583 -0.2468  0.1450
  387MOL0     C52173   9.435   1.327   0.832 -0.1502 -0.6812  0.1933
  387MOL0     C52174   9.393   1.358   0.727  0.0184 -0.3222  0.4482
  387MOL0     C52175  10.069   1.210   0.644 -0.0285  0.6877  0.4985
  387MOL0     C52176  10.199   1.194   0.610  0.2554 -0.2435  0.5285
  387MOL0     C52177  10.276   1.310   0.542  0.8985 -0.2940  0.4325
  387MOL0     H52178  10.606   0.964   0.427 -4.1962 -1.0100  1.3203
  387MOL0     H52179  10.833   0.900   0.412  1.2028 -0.9978  0.8136
  387MOL0     H52180  11.142   0.700   0.469 -2.4460 -3.2758  0.4630
  387MOL0     H52181  11.028   0.804   0.391  3.0378 -2.3734 -1.5231
  387MOL0     H52182  11.057   0.987   0.563  1.2698  0.3561  0.0716
  387MOL0     H52183  11.205   0.945   0.470 -0.2688  4.3230  0.2088
  387MOL0     H52184  11.300   0.815   0.629  0.0772 -0.1308  0.8457
  387MOL0     H52185  11.160   0.823   0.742 -1.8531  0.9617 -0.2188
  387MOL0     H52186  11.344   1.055   0.645 -2.1209 -1.0145 -1.7362
  387MOL0     H52187  11.221   1.070   0.769 -1.7227  0.2795 -0.3150
  387MOL0     H52188  11.350   0.880   0.905  3.3361 -3.6237 -0.7501
  387MOL0     H52189  11.472   0.891   0.773  0.0701  1.1958 -1.1880
  387MOL0     H52190  11.521   1.122   0.812  2.3643  2.2447  3.0894
  387MOL0     H52191  11.424   1.120   0.952  0.2957 -1.7952  1.8187
  387MOL0     H52192  11.666   0.930   0.914 -1.1072  1.5794 -2.5876
  387MOL0     H52193  11.573   0.954   1.065 -3.8698 -0.6246 -1.2965
  387MOL0     H52194  11.642   1.201   1.050 -0.7363 -0.5165  0.3334
  387MOL0     H52195  11.771   1.087   1.083 -0.8071  0.6310  1.1778
  387MOL0     H52196  11.926   0.994   0.875 -1.1065 -0.4176  1.2624
  387MOL0     H52197  12.133   1.079   0.713  0.8302  1.0238 -1.5047
  387MOL0     H52198  12.077   1.201   0.605 -1.9614 -0.6067  0.2889
  387MOL0     H52199  12.126   1.379   0.732 -1.7610  0.0770  0.9512
  387MOL0     H52200  12.155   1.295   0.883 -0.2382  0.8815 -0.5877
  387MOL0     H52201  12.338   1.278   0.649  0.7736  1.3725  0.6994
  387MOL0     H52202  12.339   1.152   0.768  1.0286 -0.7238 -2.7871
  387MOL0     H52203  12.393   1.329   0.943  3.9781  1.6696  1.1989
  387MOL0     H52204  12.401   1.450   0.809 -2.5555 -0.6897  0.0836
  387MOL0     H52205  12.764   1.235   0.709  0.9164 -4.6404  0.9855
  387MOL0     H52206  12.972   1.215   0.840  1.0825  0.4297  2.4656
  387MOL0     H52207  13.281   1.449   0.939 -1.0476  0.8688  0.7177
  387MOL0     H52208  13.507   1.505   1.041  2.1846 -0.7086  0.2567
  387MOL0     H52209  13.740   1.450   1.077  2.2552 -1.6340  2.2415
  387MOL0     H52210  13.659   1.574   1.181 -1.4529  0.0379  2.2122
  387MOL0     H52211  13.897   1.558   1.245  0.9851 -0.7065  2.6853
  387MOL0     H52212  13.798   1.491   1.367 -0.3208  0.8768  0.2591
  387MOL0     H52213  13.850   1.246   1.263 -0.5324  0.2769  1.4578
  387MOL0     H52214  13.937   1.329   1.144 -0.2808 -2.4516 -0.0508
  387MOL0     H52215  13.985   1.346   1.446 -0.2466  0.8544 -0.2440
  387MOL0     H52216  14.094   1.417   1.323 -0.2402  0.5306  0.3977
  387MOL0     H52217  14.133   1.188   1.231 -3.9477 -0.6670 -0.8596
  387MOL0     H52218  14.031   1.101   1.333  1.2026 -1.5578 -0.3698
  387MOL0     H52219  14.271   1.276   1.426 -1.9432  2.0340 -2.3105
  387MOL0     H52220  14.166   1.199   1.544 -0.2255 -0.1749 -0.1566
  387MOL0     H52221  14.343   1.038   1.358 -0.4664  4.9340 -0.7623
  387MOL0     H52222  14.205   0.975   1.446  1.7767 -2.4524 -1.5400
  387MOL0     H52223  14.302   1.053   1.659 -0.5976  1.7379 -0.9835
  387MOL0     H52224  14.400   0.931   1.575  0.0270 -0.8447 -2.0957
  387MOL0     H52225  13.469   1.189   1.329 -1.6598 -0.9584  0.0316
  387MOL0     H52226  13.236   1.136   1.226  0.2420  1.4176  1.4734
  387MOL0     H52227  12.765   1.315   1.202  0.4999 -1.7024  0.6576
  387MOL0     H52228  12.561   1.336   1.073 -0.8090  3.4202 -2.1096
  387MOL0     H52229  10.812   0.670   0.767  0.0547  0.4880  1.4358
  387MOL0     H52230  10.572   0.742   0.796  1.6084 -0.3115  0.0418
  387MOL0     H52231  10.221   0.884   0.763  0.7650  1.5653  1.3029
  387MOL0     H52232   9.999   0.925   0.827  1.4956 -0.9019  0.9413
  387MOL0     H52233   9.819   1.053   0.923 -1.6454  1.1605 -0.1436
  387MOL0     H52234   9.777   0.962   0.780 -0.7287 -1.5865  4.4105
  387MOL0     H52235   9.573   1.058   0.825  1.7574 -2.2771 -0.6925
  387MOL0     H52236   9.640   1.181   0.729 -0.3772 -1.3876  0.2604
  387MOL0     H52237   9.694   1.300   0.946  0.4925 -1.3178 -1.2280
  387MOL0     H52238   9.667   1.159   1.040  2.1645  0.5932  0.3270
  387MOL0     H52239   9.428   1.196   0.988  0.8619 -1.7488 -0.5458
  387MOL0     H52240   9.497   1.357   1.030  2.7072  0.1878 -0.2931
  387MOL0     H52241   9.353   1.377   0.629 -2.7647 -1.6362  1.2450
  387MOL0     H52242  10.011   1.300   0.629  2.1043  2.1306  0.5349
  387MOL0     H52243  10.327   1.276   0.451  2.6102  2.9586  0.0554
  387MOL0     H52244  10.215   1.400   0.540  0.0398 -0.8712 -1.5809
  387MOL0     H52245  10.362   1.333   0.606  0.7531  0.0747  0.4957
  388MOL0     O52246   8.445   1.928   9.402  0.1210  0.0115  0.0787
  388MOL0     C52247   8.374   1.857   9.470  0.0545 -0.1417  0.0008
  388MOL0     O52248   8.387   1.834   9.603  0.4029  0.3754 -0.6326
  388MOL0     C52249   8.512   1.833   9.665  0.8807  0.8435 -0.1392
  388MOL0     C52250   8.623   1.781   9.600 -0.8242 -0.3340 -0.6274
  388MOL0     C52251   8.746   1.751   9.674  0.7183 -0.4443  0.2317
  388MOL0     C52252   8.749   1.796   9.811 -0.3193  0.3648  0.7139
  388MOL0     O52253   8.861   1.778   9.879  0.0896 -0.4799 -0.1449
  388MOL0     C52254   8.866   1.766  10.022  0.5804  0.6314 -1.2292
  388MOL0     C52255   9.016   1.781  10.068 -0.3768  0.1983 -0.4893
  388MOL0     C52256   9.035   1.789  10.221  0.1493 -0.2560 -0.3779
  388MOL0     C52257   9.012   1.651  10.280  0.1760 -0.5177  0.1942
  388MOL0     C52258   9.044   1.666  10.434 -0.2111 -0.3074 -0.0606
  388MOL0     C52259   9.065   1.527  10.513  0.3288 -0.5867  0.5296
  388MOL0     C52260   9.042   1.535  10.664 -0.4155 -0.1754  0.3908
  388MOL0     C52261   9.049   1.406  10.743 -0.7278 -0.3403  0.8304
  388MOL0     N52262   9.080   1.439  10.880 -0.1352  0.0915 -0.1044
  388MOL0     C52263   9.209   1.452  10.927  0.2378  0.6489 -0.1655
  388MOL0     C52264   9.189   1.468  11.056 -0.0533  0.2508 -0.3343
  388MOL0     C52265   9.297   1.482  11.157  0.0052  0.1240 -0.7800
  388MOL0     C52266   9.401   1.576  11.120  0.4870  0.8992  0.0011
  388MOL0     C52267   9.522   1.580  11.213  0.3980 -1.0621 -0.0305
  388MOL0     C52268   9.571   1.733  11.240  0.3431  0.1599  0.0824
  388MOL0     O52269   9.651   1.774  11.122  0.0396 -0.2213 -0.6702
  388MOL0     C52270   9.772   1.715  11.091 -0.5988  0.0574  0.0672
  388MOL0     C52271   9.857   1.647  11.178 -0.2001 -0.3375  0.5259
  388MOL0     C52272   9.979   1.600  11.131  0.3395  0.0578 -0.7502
  388MOL0     C52273  10.034   1.629  11.009  0.2440  0.0708 -0.2442
  388MOL0     C52274  10.168   1.583  10.964  0.4035  0.1139  0.0938
  388MOL0     O52275  10.238   1.511  11.055 -0.2358 -0.0785  0.0840
  388MOL0     C52276  10.362   1.471  11.017  0.1545 -0.6318  1.5306
  388MOL0     C52277  10.467   1.558  11.031 -0.4450  0.0337  0.8857
  388MOL0     C52278  10.600   1.513  11.010  0.1451  1.0407  0.2272
  388MOL0     C52279  10.621   1.379  10.973  0.1863  0.2415  0.3260
  388MOL0     O52280  10.740   1.321  10.934 -0.2425  0.1768 -0.2874
  388MOL0     C52281  10.841   1.409  10.887 -1.2413 -0.1725 -0.5309
  388MOL0     C52282  10.962   1.311  10.852 -0.1691 -0.7133 -0.2232
  388MOL0     C52283  11.021   1.239  10.975 -0.4279 -0.3771 -0.3550
  388MOL0     C52284  11.164   1.189  10.954  0.2450  0.0907  0.0340
  388MOL0     C52285  11.224   1.110  11.067  0.0657 -0.5449 -0.5004
  388MOL0     C52286  11.352   1.044  11.028  0.4408  0.1368 -0.6275
  388MOL0     C52287  11.421   0.977  11.150  0.5780  0.2646 -0.1372
  388MOL0     C52288  11.509   0.855  11.111 -0.3537  0.1101  0.7632
  388MOL0    Cl52289  11.650   0.909  11.018 -0.1250 -0.0440 -0.0480
  388MOL0     C52290  10.514   1.290  10.964  0.4736  0.4939 -0.2166
  388MOL0     C52291  10.385   1.335  10.988  0.0886 -0.4003  0.0509
  388MOL0     O52292  10.208   1.638  10.858 -0.5044  0.1753 -0.3993
  388MOL0     C52293   9.948   1.703  10.923  0.3198  0.0501 -0.2177
  388MOL0     C52294   9.822   1.737  10.958 -0.5077  0.0515  0.0099
  388MOL0     N52295   9.052   1.468  11.088  0.4894  0.5996 -0.1502
  388MOL0     N52296   8.988   1.451  10.979 -0.2650  0.0694 -0.1607
  388MOL0     C52297   8.639   1.862   9.871  0.3948 -0.3080 -0.0705
  388MOL0     C52298   8.517   1.876   9.796 -0.5907 -0.0063  0.5653
  388MOL0     C52299   8.243   1.815   9.403  0.3222 -0.7875 -0.3425
  388MOL0     C52300   8.133   1.775   9.485 -0.9107  0.0810 -0.3546
  388MOL0     C52301   8.011   1.729   9.428 -0.1243 -0.2336  0.1286
  388MOL0     C52302   7.994   1.717   9.289 -0.6337 -0.0561  0.4966
  388MOL0     O52303   7.889   1.658   9.235  0.7309  0.1711 -0.1303
  388MOL0     C52304   7.801   1.586   9.319  0.2056 -0.0360 -0.3236
  388MOL0     C52305   7.722   1.500   9.226  0.4180 -0.0895 -0.0163
  388MOL0     C52306   7.659   1.574   9.103 -1.5637 -0.1028  0.8880
  388MOL0     C52307   7.533   1.501   9.058 -0.3841  0.7554 -0.5513
  388MOL0     C52308   7.475   1.537   8.934  0.6276 -0.0098 -0.3979
  388MOL0     C52309   7.412   1.564   8.833 -0.3477 -0.6705 -0.8757
  388MOL0     C52310   8.106   1.750   9.210  0.1534 -0.0730 -0.0486
  388MOL0     C52311   8.224   1.805   9.263 -0.6826  0.1698 -0.1350
  388MOL0     C52312   8.335   1.817   9.166 -0.6043 -1.0544 -0.1390
  388MOL0     H52313   8.624   1.758   9.494 -0.5519 -0.2598 -0.6407
  388MOL0     H52314   8.834   1.717   9.620  0.7385  0.0676 -0.0627
  388MOL0     H52315   8.816   1.852  10.066  0.4426 -0.1039  0.0831
  388MOL0     H52316   8.828   1.668  10.052  4.7123 -0.2713  1.8658
  388MOL0     H52317   9.053   1.876  10.029 -1.0801  0.6959  0.0374
  388MOL0     H52318   9.077   1.702  10.022 -1.3846 -0.6807 -0.3541
  388MOL0     H52319   8.965   1.861  10.266 -0.1431 -0.9967  0.3714
  388MOL0     H52320   9.132   1.834  10.242 -0.3043 -0.1681  1.7150
  388MOL0     H52321   8.914   1.602  10.270 -0.7567  1.5793 -1.8474
  388MOL0     H52322   9.081   1.581  10.231 -0.5631 -1.8712  1.0222
  388MOL0     H52323   9.140   1.718  10.442 -1.1069  1.5451 -0.9003
  388MOL0     H52324   8.967   1.727  10.482 -1.4452 -1.1625 -0.8908
  388MOL0     H52325   8.982   1.470  10.470 -1.7097  1.5248  1.4254
  388MOL0     H52326   9.160   1.479  10.490  0.3990 -0.2998  0.2090
  388MOL0     H52327   8.947   1.586  10.678 -0.9072 -0.9308 -0.1163
  388MOL0     H52328   9.123   1.604  10.690  1.6923 -0.8007 -3.6330
  388MOL0     H52329   8.944   1.374  10.748  0.0178 -4.0569 -2.8228
  388MOL0     H52330   9.113   1.336  10.689 -0.9803  2.0612 -2.9540
  388MOL0     H52331   9.304   1.449  10.875 -0.0740 -0.6028 -0.6966
  388MOL0     H52332   9.258   1.526  11.249 -0.0068  1.2963 -1.3224
  388MOL0     H52333   9.343   1.387  11.185  0.5047 -0.3571 -3.0139
  388MOL0     H52334   9.443   1.541  11.025 -0.3970  2.3673 -0.9641
  388MOL0     H52335   9.352   1.674  11.113 -1.9472 -0.3345 -1.3684
  388MOL0     H52336   9.599   1.519  11.164  1.1257 -0.7197  0.6539
  388MOL0     H52337   9.506   1.542  11.315 -0.2679 -0.5251  0.0687
  388MOL0     H52338   9.634   1.739  11.329  2.1077 -0.5580 -1.0426
  388MOL0     H52339   9.486   1.799  11.257  0.4659  1.3578 -3.2449
  388MOL0     H52340   9.836   1.620  11.281 -1.9335 -0.7378  0.1048
  388MOL0     H52341  10.037   1.545  11.204 -0.6678 -1.0696 -0.7760
  388MOL0     H52342  10.439   1.663  11.030 -0.6431 -0.0163  1.1102
  388MOL0     H52343  10.676   1.589  11.027  0.4430  0.2715  2.7793
  388MOL0     H52344  10.805   1.464  10.799 -2.2367  0.2890  0.1447
  388MOL0     H52345  10.882   1.479  10.960  4.1499 -3.1346 -0.1907
  388MOL0     H52346  10.915   1.249  10.775 -0.0001 -0.6021 -0.4183
  388MOL0     H52347  11.038   1.369  10.798 -1.8447 -1.1530 -3.2606
  388MOL0     H52348  11.038   1.309  11.057  2.8699 -0.2388 -1.0285
  388MOL0     H52349  10.951   1.157  10.994 -1.9485  0.7243 -1.0175
  388MOL0     H52350  11.227   1.276  10.931  2.3201 -1.3756 -0.1636
  388MOL0     H52351  11.163   1.130  10.862 -3.4235 -1.5982  0.9912
  388MOL0     H52352  11.149   1.035  11.094  0.6991 -1.3178 -0.8242
  388MOL0     H52353  11.236   1.173  11.156 -0.3517  0.0627 -0.8728
  388MOL0     H52354  11.322   0.967  10.957 -0.3712 -1.0668  0.9637
  388MOL0     H52355  11.418   1.122  10.987  0.9836  0.4794  0.8327
  388MOL0     H52356  11.337   0.941  11.210  0.8219 -0.3761 -0.1706
  388MOL0     H52357  11.476   1.044  11.216  0.9036  0.3277 -0.4661
  388MOL0     H52358  11.542   0.804  11.202 -0.5922 -1.3757  0.0579
  388MOL0     H52359  11.452   0.776  11.061  1.1834 -0.0118 -0.9193
  388MOL0     H52360  10.539   1.187  10.941  1.1910  0.3927  0.9155
  388MOL0     H52361  10.300   1.271  11.007  0.0113  0.4502  3.0157
  388MOL0     H52362   9.988   1.732  10.827  2.6213  0.1106  0.7073
  388MOL0     H52363   9.761   1.773  10.876  1.0545  0.1982 -1.1253
  388MOL0     H52364   8.628   1.919   9.963  0.2860  2.8429 -1.8720
  388MOL0     H52365   8.431   1.922   9.842  1.3589  2.6494  1.8086
  388MOL0     H52366   8.139   1.783   9.594 -1.3806  0.3839 -0.3449
  388MOL0     H52367   7.931   1.697   9.494 -2.0102 -1.4055 -2.5290
  388MOL0     H52368   7.737   1.657   9.372  1.1622  0.5423  0.0944
  388MOL0     H52369   7.852   1.510   9.379  0.2278 -1.8381 -2.4822
  388MOL0     H52370   7.640   1.446   9.272  0.4798 -0.8154 -0.7386
  388MOL0     H52371   7.797   1.432   9.185  2.4911  2.9441 -1.7389
  388MOL0     H52372   7.727   1.585   9.017  0.9304  1.4075  2.9110
  388MOL0     H52373   7.638   1.679   9.126  0.3078  0.5124  0.0202
  388MOL0     H52374   7.562   1.396   9.052  2.3909  1.2381  2.0871
  388MOL0     H52375   7.443   1.513   9.119  1.1110  0.8367  1.7593
  388MOL0     H52376   7.341   1.586   8.756  0.0482  0.7842 -0.8644
  388MOL0     H52377   8.088   1.760   9.103  0.1565 -1.9916 -0.2671
  388MOL0     H52378   8.366   1.922   9.160 -1.0022 -0.8500  1.1843
  388MOL0     H52379   8.423   1.754   9.180 -0.1377 -1.1075 -2.7969
  388MOL0     H52380   8.298   1.804   9.063 -0.8056  1.5330 -0.4718
  389MOL0     O52381   4.298   0.988   8.505  0.8962  0.1107  0.1294
  389MOL0     C52382   4.292   0.892   8.424  0.9137  0.0042 -0.2855
  389MOL0     O52383   4.386   0.854   8.344 -0.1198  0.1242  0.2734
  389MOL0     C52384   4.514   0.916   8.343 -0.4897 -0.8278  0.3609
  389MOL0     C52385   4.623   0.837   8.313 -0.4548 -0.1308 -0.1224
  389MOL0     C52386   4.753   0.892   8.323  0.3213  0.0731  0.1274
  389MOL0     C52387   4.773   1.030   8.344 -0.0818  0.8570  0.2897
  389MOL0     O52388   4.898   1.088   8.339 -0.5918  0.2450 -0.6825
  389MOL0     C52389   5.020   1.014   8.375  0.1596 -0.1276  0.3121
  389MOL0     C52390   5.131   1.116   8.389  0.6181 -0.1414  0.4602
  389MOL0     C52391   5.173   1.176   8.252 -0.1889 -0.3095  0.2747
  389MOL0     C52392   5.296   1.278   8.262 -0.0831 -0.1508 -0.4931
  389MOL0     C52393   5.421   1.204   8.228 -0.2376  0.2236 -0.0294
  389MOL0     C52394   5.535   1.300   8.240 -1.1741 -0.2242  0.2556
  389MOL0     C52395   5.663   1.228   8.203  0.1147  0.0707  0.0416
  389MOL0     C52396   5.781   1.317   8.161 -0.6750  0.1436  0.2502
  389MOL0     N52397   5.870   1.229   8.091  0.7257  0.3982  0.7253
  389MOL0     C52398   5.989   1.191   8.124 -0.2825  0.2077 -0.0708
  389MOL0     C52399   6.049   1.131   8.018  0.0473 -0.3841 -0.1149
  389MOL0     C52400   6.195   1.078   8.016  0.6203  0.0851 -0.7858
  389MOL0     C52401   6.292   1.194   8.009  0.1003  0.1499 -0.9197
  389MOL0     C52402   6.438   1.145   8.024  0.2032 -0.5721 -0.8851
  389MOL0     C52403   6.533   1.260   8.057  0.2260  1.0943  0.2117
  389MOL0     O52404   6.664   1.201   8.074 -0.3414 -0.2663 -0.1992
  389MOL0     C52405   6.773   1.277   8.111  1.5778 -0.0193 -0.0483
  389MOL0     C52406   6.891   1.213   8.159 -0.5365 -0.0912 -0.3103
  389MOL0     C52407   7.000   1.282   8.215  0.1762 -0.2471  0.0426
  389MOL0     C52408   6.998   1.421   8.205 -1.1692  0.5760 -0.4051
  389MOL0     C52409   7.109   1.499   8.264 -0.2574 -0.2616  0.8712
  389MOL0     O52410   7.211   1.423   8.310 -0.1702 -0.1297 -0.7921
  389MOL0     C52411   7.329   1.474   8.366  0.3539 -0.2807 -0.2054
  389MOL0     C52412   7.401   1.386   8.445  0.1540  0.5257  0.0011
  389MOL0     C52413   7.519   1.418   8.497 -0.4230 -0.2442 -0.9963
  389MOL0     C52414   7.587   1.543   8.463 -0.0631 -0.3797 -0.9405
  389MOL0     O52415   7.710   1.580   8.501 -0.1953  0.1045  0.0469
  389MOL0     C52416   7.794   1.495   8.590 -0.7740  0.4756 -0.6654
  389MOL0     C52417   7.939   1.544   8.581 -0.2620  0.6605  0.0400
  389MOL0     C52418   8.027   1.452   8.663 -0.0343  0.2214  0.2621
  389MOL0     C52419   8.017   1.473   8.813  0.2645 -0.1591  0.8795
  389MOL0     C52420   8.128   1.395   8.880  0.1766  0.5052  0.2265
  389MOL0     C52421   8.151   1.451   9.022  0.2522  0.5587 -0.1114
  389MOL0     C52422   8.226   1.346   9.103  0.1108 -0.4644 -0.1998
  389MOL0     C52423   8.138   1.234   9.152 -0.4492  0.1780 -0.6787
  389MOL0    Cl52424   8.217   1.122   9.251  0.1790 -0.2727 -0.1975
  389MOL0     C52425   7.522   1.623   8.367  0.1139  0.0130 -0.2962
  389MOL0     C52426   7.390   1.597   8.326 -0.3312  0.5476 -0.1353
  389MOL0     O52427   7.103   1.622   8.244 -0.6564  0.6677  0.3028
  389MOL0     C52428   6.884   1.481   8.139 -0.0324  0.1378 -0.3006
  389MOL0     C52429   6.762   1.415   8.105 -0.2797  0.6249  0.4843
  389MOL0     N52430   5.961   1.146   7.915  0.0281 -0.3161 -0.0422
  389MOL0     N52431   5.850   1.190   7.964  0.8935  0.3808  0.2936
  389MOL0     C52432   4.660   1.107   8.358  0.4565  0.5918 -0.4154
  389MOL0     C52433   4.536   1.051   8.365 -1.1114 -0.4832 -1.1356
  389MOL0     C52434   4.160   0.808   8.433  0.0199  0.0749  0.8159
  389MOL0     C52435   4.047   0.864   8.488 -0.1725  0.5231 -0.1299
  389MOL0     C52436   3.924   0.794   8.497 -0.7813  0.4295  0.1769
  389MOL0     C52437   3.908   0.675   8.426 -0.2096 -0.8683  0.7755
  389MOL0     O52438   3.781   0.620   8.425 -0.1625  0.0940  0.1259
  389MOL0     C52439   3.739   0.530   8.323  0.4601  0.8069 -0.1482
  389MOL0     C52440   3.696   0.611   8.194  0.4413  0.0307  0.2253
  389MOL0     C52441   3.599   0.732   8.209  0.7419 -0.4554 -0.3472
  389MOL0     C52442   3.483   0.712   8.315  0.3296  0.9680  0.3562
  389MOL0     C52443   3.366   0.790   8.271  0.3604 -0.7109  0.0438
  389MOL0     C52444   3.269   0.849   8.230 -0.0163 -0.5154 -1.1900
  389MOL0     C52445   4.026   0.613   8.381  0.3258 -0.4415  0.5448
  389MOL0     C52446   4.151   0.676   8.373  0.8847  0.2739 -0.2129
  389MOL0     C52447   4.264   0.598   8.315 -0.7418  0.0545  0.6120
  389MOL0     H52448   4.614   0.730   8.298 -2.3500 -0.1574  0.9670
  389MOL0     H52449   4.832   0.819   8.335  0.4111  0.3903  1.7402
  389MOL0     H52450   5.009   0.967   8.473  1.3673  1.8679  1.4656
  389MOL0     H52451   5.036   0.950   8.288 -0.9999  0.8578 -0.6593
  389MOL0     H52452   5.218   1.073   8.438  1.4455 -3.6147 -3.5009
  389MOL0     H52453   5.093   1.207   8.438 -1.9587 -0.1948 -1.2225
  389MOL0     H52454   5.091   1.236   8.213  0.6860  3.5410  3.6678
  389MOL0     H52455   5.190   1.091   8.184  0.8493 -0.6849  0.9716
  389MOL0     H52456   5.280   1.350   8.182  0.0770  0.6747  0.2078
  389MOL0     H52457   5.303   1.325   8.360  0.8219 -1.8679  0.3040
  389MOL0     H52458   5.443   1.120   8.293 -0.0683  0.4498  0.2073
  389MOL0     H52459   5.416   1.174   8.123  2.2753  3.2370 -1.1718
  389MOL0     H52460   5.518   1.394   8.186 -0.0368  0.1667  0.5357
  389MOL0     H52461   5.556   1.330   8.343  1.4827 -0.8037 -0.0270
  389MOL0     H52462   5.643   1.157   8.121  0.1854 -2.2013  1.8842
  389MOL0     H52463   5.692   1.162   8.285 -0.1606 -1.0458 -0.7300
  389MOL0     H52464   5.748   1.387   8.083 -0.1010  0.9366  0.7014
  389MOL0     H52465   5.819   1.371   8.248  0.5444 -4.1920  2.7040
  389MOL0     H52466   6.042   1.218   8.215  2.7880 -0.0029 -1.6534
  389MOL0     H52467   6.208   1.032   8.114 -2.4303  2.9540  1.1834
  389MOL0     H52468   6.203   1.011   7.931 -1.7675  0.9114 -1.7574
  389MOL0     H52469   6.279   1.253   7.918 -2.9198 -0.1396 -0.7703
  389MOL0     H52470   6.266   1.264   8.090  0.3916  1.5663 -2.0014
  389MOL0     H52471   6.473   1.098   7.932  2.6844  0.1123 -0.3721
  389MOL0     H52472   6.443   1.065   8.098 -0.8953 -0.3836 -0.5909
  389MOL0     H52473   6.507   1.312   8.150 -0.7784  0.2303  0.4328
  389MOL0     H52474   6.526   1.333   7.976 -0.4970  0.4144 -0.3550
  389MOL0     H52475   6.900   1.105   8.154  1.0567  0.0631 -4.1199
  389MOL0     H52476   7.077   1.221   8.261  0.6973 -0.3708 -0.9571
  389MOL0     H52477   7.365   1.286   8.468  3.0882  0.0868  3.4912
  389MOL0     H52478   7.558   1.342   8.565  0.6073 -0.7306 -2.0918
  389MOL0     H52479   7.750   1.497   8.690 -2.8074  1.4752 -1.5103
  389MOL0     H52480   7.789   1.390   8.562 -0.2506  0.2771 -0.0440
  389MOL0     H52481   7.969   1.551   8.476 -1.1654 -0.7947 -0.3540
  389MOL0     H52482   7.944   1.648   8.615  1.0232  0.6949 -0.2318
  389MOL0     H52483   8.012   1.348   8.631 -2.2703  0.5137  0.1847
  389MOL0     H52484   8.134   1.457   8.643 -0.0207 -0.5283  0.1105
  389MOL0     H52485   7.922   1.451   8.863  0.1467 -0.4797  0.5164
  389MOL0     H52486   8.035   1.580   8.828  0.4588  0.0967 -0.9487
  389MOL0     H52487   8.221   1.418   8.827 -1.1064  1.6276 -1.6666
  389MOL0     H52488   8.114   1.286   8.876  1.1525  0.4018 -0.7021
  389MOL0     H52489   8.211   1.543   9.012  2.3122 -0.3849  2.4421
  389MOL0     H52490   8.060   1.477   9.077  1.3885  0.8471  1.7325
  389MOL0     H52491   8.275   1.400   9.184  1.5170 -0.1572 -1.2078
  389MOL0     H52492   8.308   1.296   9.051 -0.9182 -3.3211  0.7363
  389MOL0     H52493   8.068   1.273   9.226  0.2436  1.6596 -0.7790
  389MOL0     H52494   8.083   1.183   9.072 -3.0948  1.2580  0.3609
  389MOL0     H52495   7.578   1.705   8.323  0.1038  0.0074 -0.3201
  389MOL0     H52496   7.338   1.672   8.267  1.9294  2.6072  0.3021
  389MOL0     H52497   6.898   1.586   8.112  1.9501  0.1434  0.6129
  389MOL0     H52498   6.684   1.474   8.059  0.5932  0.2116 -1.7080
  389MOL0     H52499   4.669   1.215   8.365 -1.0719  0.7193 -0.1246
  389MOL0     H52500   4.453   1.119   8.382 -0.0219  0.3022  1.3936
  389MOL0     H52501   4.057   0.965   8.528 -0.0151 -0.2054  1.7623
  389MOL0     H52502   3.846   0.833   8.562 -0.0983  0.1623  1.1752
  389MOL0     H52503   3.655   0.475   8.366 -0.8661  1.0876 -2.2783
  389MOL0     H52504   3.805   0.451   8.286 -1.9697  0.4096 -4.2221
  389MOL0     H52505   3.630   0.554   8.127 -0.8603  2.0142 -0.2827
  389MOL0     H52506   3.788   0.642   8.144  0.3751  0.0997  0.1459
  389MOL0     H52507   3.553   0.755   8.112  1.9429 -0.0387 -0.8294
  389MOL0     H52508   3.655   0.820   8.242 -1.4347  0.6156  0.7473
  389MOL0     H52509   3.463   0.605   8.307  0.4319  1.0832 -2.6368
  389MOL0     H52510   3.513   0.741   8.416  1.0308  0.3281  0.3346
  389MOL0     H52511   3.184   0.897   8.186  0.2233  0.8457 -0.2187
  389MOL0     H52512   4.019   0.509   8.349  0.1110 -0.8801  1.9607
  389MOL0     H52513   4.355   0.624   8.371 -0.4141  1.3364 -0.4704
  389MOL0     H52514   4.254   0.490   8.325 -0.2745 -0.2149 -1.4011
  389MOL0     H52515   4.283   0.629   8.212 -0.4561 -0.4084  0.5246
  390MOL0     O52516   6.310   2.580   4.749 -0.0297 -0.1780 -0.8031
  390MOL0     C52517   6.417   2.642   4.757 -0.1390 -0.9351  0.1290
  390MOL0     O52518   6.434   2.749   4.845 -0.5409 -0.0049  0.9270
  390MOL0     C52519   6.327   2.792   4.920 -0.2555 -0.7788  1.1103
  390MOL0     C52520   6.207   2.818   4.863 -0.0656 -0.1987 -0.2832
  390MOL0     C52521   6.090   2.848   4.936 -0.0006  0.2780 -0.3950
  390MOL0     C52522   6.098   2.853   5.077  0.6434 -0.2851 -0.6169
  390MOL0     O52523   5.989   2.881   5.158 -0.0556  0.2246 -0.3661
  390MOL0     C52524   5.867   2.932   5.104  0.1272  0.2494  0.1409
  390MOL0     C52525   5.787   2.958   5.234  0.6272 -0.4298  0.2386
  390MOL0     C52526   5.715   2.838   5.285  0.1812  0.6002  0.5696
  390MOL0     C52527   5.647   2.860   5.427 -0.7233  0.7159  0.4888
  390MOL0     C52528   5.561   2.745   5.470 -0.3171 -0.1303  0.5845
  390MOL0     C52529   5.498   2.769   5.610  0.4569 -0.2040 -0.4257
  390MOL0     C52530   5.437   2.638   5.656  0.3396  0.1556 -0.7171
  390MOL0     C52531   5.368   2.640   5.801  0.8250 -0.3098  0.3350
  390MOL0     N52532   5.436   2.717   5.905 -0.6019  0.2523 -0.1543
  390MOL0     C52533   5.540   2.664   5.979  0.1813  0.2939 -0.0085
  390MOL0     C52534   5.611   2.766   6.018  0.2085 -0.7579 -0.2901
  390MOL0     C52535   5.730   2.739   6.113 -0.5508  0.5179 -0.0350
  390MOL0     C52536   5.866   2.779   6.070 -0.0810 -0.8344  0.4777
  390MOL0     C52537   5.864   2.929   6.038 -0.8531 -0.1703 -0.1298
  390MOL0     C52538   6.007   2.970   5.992  0.8659 -0.5659  0.7063
  390MOL0     O52539   6.112   2.956   6.088  0.3535 -0.1237 -0.1187
  390MOL0     C52540   6.236   2.961   6.043 -0.4165 -0.3408 -0.4616
  390MOL0     C52541   6.284   3.008   5.920 -0.0789 -0.2830 -0.2377
  390MOL0     C52542   6.417   2.997   5.886 -0.1738  0.4225  0.7701
  390MOL0     C52543   6.519   2.971   5.984 -0.1283 -0.1908  0.4492
  390MOL0     C52544   6.666   2.966   5.955 -0.2167  0.6405 -0.0569
  390MOL0     O52545   6.747   2.940   6.062  0.3421 -0.0026  0.7005
  390MOL0     C52546   6.881   2.929   6.030  0.0542  0.5334 -0.5538
  390MOL0     C52547   6.973   3.024   6.092  0.4901  0.1438 -0.5045
  390MOL0     C52548   7.108   3.011   6.063 -0.1078 -1.0559 -0.0728
  390MOL0     C52549   7.158   2.913   5.981 -0.7004  0.0383  0.8987
  390MOL0     O52550   7.294   2.893   5.950  0.0798  0.5181 -0.4246
  390MOL0     C52551   7.386   2.988   6.003  0.7443 -0.0340 -0.4214
  390MOL0     C52552   7.518   2.942   5.944  0.3599 -0.3350  0.5668
  390MOL0     C52553   7.630   3.024   6.005 -0.3873  0.0362 -0.2279
  390MOL0     C52554   7.746   3.058   5.905  0.2274  0.0951  0.3850
  390MOL0     C52555   7.865   3.123   5.971  0.0733 -0.0266 -0.4727
  390MOL0     C52556   7.969   3.178   5.870 -0.4638  0.4652  0.0422
  390MOL0     C52557   8.079   3.244   5.959  0.7081 -0.3352  0.0306
  390MOL0     C52558   8.186   3.303   5.873  0.7451  0.1996  0.1859
  390MOL0    Cl52559   8.115   3.440   5.794  0.3897  0.4203 -0.1710
  390MOL0     C52560   7.065   2.815   5.934 -0.8414 -0.2847 -0.1512
  390MOL0     C52561   6.929   2.820   5.958  0.1143 -0.2004  0.2242
  390MOL0     O52562   6.700   2.985   5.838 -0.1289  0.1279 -0.6275
  390MOL0     C52563   6.471   2.943   6.117 -0.2281 -0.3593  0.5560
  390MOL0     C52564   6.333   2.947   6.142  0.5643  0.1517  0.7169
  390MOL0     N52565   5.542   2.880   5.986 -0.4702 -1.4401 -0.5539
  390MOL0     N52566   5.432   2.853   5.923  0.1248 -0.1316 -0.6437
  390MOL0     C52567   6.223   2.839   5.132  0.0628  0.2525 -0.2819
  390MOL0     C52568   6.331   2.800   5.056 -0.5031  0.5627 -0.0304
  390MOL0     C52569   6.531   2.597   4.670 -0.6159 -0.4231  0.7462
  390MOL0     C52570   6.499   2.488   4.586  0.4865  0.0466  0.4489
  390MOL0     C52571   6.589   2.440   4.489 -0.1193 -0.8451  0.2374
  390MOL0     C52572   6.714   2.502   4.481 -0.7103  0.4132  0.3942
  390MOL0     O52573   6.794   2.445   4.384 -0.0778 -0.2805 -0.9687
  390MOL0     C52574   6.933   2.448   4.399  0.4016 -0.8049 -0.1673
  390MOL0     C52575   6.991   2.348   4.305  0.6255  0.5546  0.1878
  390MOL0     C52576   6.952   2.331   4.152 -0.2307  0.1864 -0.5576
  390MOL0     C52577   7.003   2.199   4.084  0.3034 -0.1900  0.1904
  390MOL0     C52578   6.904   2.150   3.985  0.4645  0.2445  0.1139
  390MOL0     C52579   6.823   2.102   3.909  0.1238 -0.1964 -0.8949
  390MOL0     C52580   6.749   2.613   4.548  0.0418 -0.7633  0.4442
  390MOL0     C52581   6.656   2.664   4.642  0.5301  0.2087 -0.8248
  390MOL0     C52582   6.701   2.792   4.713 -0.4446 -0.5480  0.3804
  390MOL0     H52583   6.184   2.810   4.758  0.5478  3.3108 -0.7967
  390MOL0     H52584   5.997   2.869   4.884  0.7357  0.2532 -1.7676
  390MOL0     H52585   5.887   3.032   5.065 -1.9228  0.4801 -0.4608
  390MOL0     H52586   5.825   2.863   5.031 -1.0557  1.6185 -0.5315
  390MOL0     H52587   5.712   3.033   5.210  0.4761 -0.3841  0.8271
  390MOL0     H52588   5.857   2.999   5.307  1.5240  2.6503 -2.1380
  390MOL0     H52589   5.785   2.754   5.295  1.0291  1.1840 -0.2909
  390MOL0     H52590   5.636   2.816   5.212  0.5611 -1.6974  0.7660
  390MOL0     H52591   5.732   2.875   5.494  1.8628 -0.0260 -2.3879
  390MOL0     H52592   5.587   2.951   5.420 -0.4267  0.8182 -1.3721
  390MOL0     H52593   5.484   2.735   5.393  1.1214 -0.2358 -0.9024
  390MOL0     H52594   5.633   2.663   5.461  2.4116  2.3092 -1.8598
  390MOL0     H52595   5.569   2.811   5.681 -0.9558 -1.7956  2.1080
  390MOL0     H52596   5.417   2.843   5.604 -0.0149 -0.6375  0.3351
  390MOL0     H52597   5.519   2.565   5.660  0.9796  0.8992  0.8852
  390MOL0     H52598   5.353   2.607   5.594  0.7167 -1.4023 -0.5188
  390MOL0     H52599   5.276   2.690   5.768  0.7408 -0.6659  0.0257
  390MOL0     H52600   5.347   2.537   5.830 -0.7523  0.3206  1.6058
  390MOL0     H52601   5.560   2.558   5.986  0.5927  0.4624  1.7052
  390MOL0     H52602   5.707   2.793   6.206 -0.8096  1.3803 -0.5838
  390MOL0     H52603   5.738   2.631   6.120  2.8597  0.5499 -1.6367
  390MOL0     H52604   5.932   2.756   6.154 -2.5377  0.2182  2.8835
  390MOL0     H52605   5.892   2.715   5.986 -2.6891 -2.3617  0.7124
  390MOL0     H52606   5.853   2.999   6.121  0.7494  0.0734 -0.0967
  390MOL0     H52607   5.797   2.946   5.953  0.6240 -0.7025 -1.4671
  390MOL0     H52608   6.004   3.074   5.958  2.2898  0.5193  3.5848
  390MOL0     H52609   6.026   2.910   5.902 -1.1914 -0.8566  0.4304
  390MOL0     H52610   6.210   3.025   5.842  0.5806  0.0393 -0.8052
  390MOL0     H52611   6.452   3.037   5.791  2.3401  0.1149  1.5074
  390MOL0     H52612   6.929   3.111   6.139  1.0204 -0.0208  0.3307
  390MOL0     H52613   7.162   3.094   6.108 -0.4757 -1.8101  1.8164
  390MOL0     H52614   7.359   3.087   5.965  1.5758  0.1913 -0.4322
  390MOL0     H52615   7.389   2.980   6.112  1.3058 -0.4698 -0.4701
  390MOL0     H52616   7.541   2.836   5.959  1.5005 -0.4074 -1.3068
  390MOL0     H52617   7.517   2.966   5.837 -0.6171 -0.1019  0.6177
  390MOL0     H52618   7.595   3.123   6.033  0.5421  0.9791 -2.2384
  390MOL0     H52619   7.663   2.974   6.096 -0.4802  0.9797  0.3313
  390MOL0     H52620   7.706   3.123   5.827 -0.9168  0.0369  0.9018
  390MOL0     H52621   7.777   2.967   5.853 -0.1046 -1.2555  2.4213
  390MOL0     H52622   7.911   3.041   6.026 -0.9769  1.5712  3.1061
  390MOL0     H52623   7.839   3.210   6.033 -1.8036  0.0486 -1.2992
  390MOL0     H52624   8.012   3.095   5.814  0.1045  0.5481  0.3434
  390MOL0     H52625   7.923   3.256   5.808  1.9046 -0.4974 -3.2292
  390MOL0     H52626   8.125   3.170   6.025  2.9575  0.8472 -0.1316
  390MOL0     H52627   8.028   3.325   6.012 -3.7435 -0.8918 -2.7777
  390MOL0     H52628   8.276   3.330   5.928  1.2346  0.2548 -0.6153
  390MOL0     H52629   8.226   3.236   5.796  1.9233  3.0471 -1.8598
  390MOL0     H52630   7.118   2.739   5.878  0.3836  0.7926 -0.5385
  390MOL0     H52631   6.856   2.754   5.912 -0.5598  2.3095 -2.6478
  390MOL0     H52632   6.548   2.912   6.187 -0.9404 -0.0147  1.5239
  390MOL0     H52633   6.290   2.933   6.241  4.1570  2.3889  2.7875
  390MOL0     H52634   6.228   2.843   5.240 -0.4902 -3.0047 -0.0400
  390MOL0     H52635   6.422   2.776   5.111  0.4999 -2.3921 -2.6774
  390MOL0     H52636   6.407   2.434   4.601 -0.0953  1.3451  1.8699
  390MOL0     H52637   6.568   2.356   4.423  1.2951 -0.2355 -1.0228
  390MOL0     H52638   6.963   2.413   4.498  1.9931  2.1590  0.5357
  390MOL0     H52639   6.971   2.548   4.376 -1.8702  0.5308  1.4787
  390MOL0     H52640   6.964   2.248   4.338 -2.0098  0.8053 -0.9393
  390MOL0     H52641   7.096   2.377   4.306  0.4813  1.4396  3.8984
  390MOL0     H52642   6.983   2.425   4.105 -1.5249  0.9809  0.1127
  390MOL0     H52643   6.842   2.333   4.150 -0.3040  4.2896 -0.3121
  390MOL0     H52644   7.097   2.222   4.032  0.0927  1.7781  0.5970
  390MOL0     H52645   7.009   2.121   4.160  2.4781  1.1075  1.4780
  390MOL0     H52646   6.772   2.053   3.829 -0.8107 -1.5206  0.4572
  390MOL0     H52647   6.843   2.663   4.527  0.2015 -0.5752  1.5298
  390MOL0     H52648   6.731   2.767   4.815  0.2005 -0.4033  0.2315
  390MOL0     H52649   6.786   2.844   4.667 -0.5906 -0.4854  0.1769
  390MOL0     H52650   6.611   2.855   4.707 -0.8945 -1.2511 -0.4565
  391MOL0     O52651   6.423   6.811   1.956  1.4742 -0.7280 -0.0133
  391MOL0     C52652   6.404   6.930   2.003  0.0454 -0.6622  0.6438
  391MOL0     O52653   6.487   6.983   2.101 -0.0846 -0.5556  0.5006
  391MOL0     C52654   6.579   6.913   2.173  0.7623  0.2945 -0.0075
  391MOL0     C52655   6.695   6.854   2.119 -0.2666 -0.0715 -0.1183
  391MOL0     C52656   6.794   6.788   2.192 -0.4995  0.0844 -0.2094
  391MOL0     C52657   6.786   6.789   2.332 -0.0810  0.6455 -0.6552
  391MOL0     O52658   6.891   6.727   2.392 -0.6999 -0.0378  0.2675
  391MOL0     C52659   6.886   6.699   2.527  0.2826 -0.4509  0.1216
  391MOL0     C52660   6.989   6.587   2.554 -0.0242 -0.0559 -0.1607
  391MOL0     C52661   6.963   6.539   2.694 -0.6132  0.8979  0.4257
  391MOL0     C52662   7.063   6.429   2.727  0.1991  0.2490 -0.5670
  391MOL0     C52663   7.056   6.376   2.872  1.0301  0.1824 -0.7529
  391MOL0     C52664   7.115   6.240   2.882 -0.1725  0.2858 -0.4251
  391MOL0     C52665   7.161   6.222   3.028 -0.0020  0.0123  0.1184
  391MOL0     C52666   7.223   6.079   3.056  0.3542 -0.5208 -0.4484
  391MOL0     N52667   7.365   6.089   3.105  0.5611  0.3073 -0.0996
  391MOL0     C52668   7.411   6.136   3.227  0.3356 -0.0601 -0.0864
  391MOL0     C52669   7.550   6.134   3.218 -0.1252 -0.0077 -0.7291
  391MOL0     C52670   7.644   6.173   3.330 -0.3257 -0.0731 -0.3137
  391MOL0     C52671   7.615   6.104   3.464 -0.5340  0.1280  1.6818
  391MOL0     C52672   7.746   6.101   3.541 -0.0293 -0.0075 -0.0024
  391MOL0     C52673   7.736   6.006   3.660 -0.0094 -0.5646  0.7186
  391MOL0     O52674   7.850   6.015   3.746  0.1504  0.3346 -0.2342
  391MOL0     C52675   7.869   6.136   3.818 -0.8435 -0.6284 -0.3405
  391MOL0     C52676   7.997   6.178   3.837 -0.7954 -0.1278 -0.1890
  391MOL0     C52677   8.023   6.312   3.879  0.2053 -0.4926  0.6161
  391MOL0     C52678   7.918   6.401   3.912 -0.9136 -0.2562 -0.2234
  391MOL0     C52679   7.947   6.531   3.967 -0.1102  0.2627  0.1739
  391MOL0     O52680   8.078   6.545   4.004  0.3226 -0.3356  0.1961
  391MOL0     C52681   8.131   6.635   4.089  0.4683 -0.3524  0.9309
  391MOL0     C52682   8.050   6.690   4.197 -0.1564 -0.8818  0.8439
  391MOL0     C52683   8.108   6.792   4.276 -0.1434  0.6301  0.0374
  391MOL0     C52684   8.238   6.839   4.256  0.4035  0.7209 -0.1555
  391MOL0     O52685   8.275   6.957   4.308 -0.0242  0.0216 -0.4993
  391MOL0     C52686   8.273   6.965   4.455  0.5518  0.1911 -0.2181
  391MOL0     C52687   8.345   7.088   4.510 -0.1474 -0.3127  0.8251
  391MOL0     C52688   8.495   7.084   4.488 -0.1306  0.4362 -0.2906
  391MOL0     C52689   8.570   7.206   4.528  0.0615  0.5725  0.5935
  391MOL0     C52690   8.720   7.196   4.481  0.1648 -0.7470  0.5574
  391MOL0     C52691   8.810   7.324   4.502 -0.2418  0.7898  0.8559
  391MOL0     C52692   8.825   7.367   4.653 -0.0779  0.4543 -1.1643
  391MOL0     C52693   8.922   7.479   4.672  0.8247 -0.3965  0.1225
  391MOL0    Cl52694   9.075   7.453   4.580 -0.3599 -0.1647 -0.1080
  391MOL0     C52695   8.316   6.785   4.157  0.2556  0.4893 -0.0889
  391MOL0     C52696   8.261   6.684   4.068 -0.5009 -0.0036  0.0964
  391MOL0     O52697   7.854   6.610   3.984  0.0302  0.4338 -0.4184
  391MOL0     C52698   7.784   6.355   3.896 -0.3999 -0.4166 -0.4596
  391MOL0     C52699   7.764   6.224   3.853 -0.0450  1.2041  0.1645
  391MOL0     N52700   7.577   6.072   3.097 -0.1182 -0.4214 -0.0293
  391MOL0     N52701   7.472   6.045   3.034  0.0774 -0.2939  0.8568
  391MOL0     C52702   6.671   6.842   2.404  0.6104  0.4182  0.6802
  391MOL0     C52703   6.577   6.904   2.313  0.0618  0.5241  0.3551
  391MOL0     C52704   6.298   7.017   1.954  0.2824 -0.0450 -0.7338
  391MOL0     C52705   6.246   7.118   2.042 -0.3947  0.1842 -0.5684
  391MOL0     C52706   6.136   7.194   2.009  0.0512 -0.7196  0.7007
  391MOL0     C52707   6.082   7.177   1.879  0.1414  0.0330 -1.1487
  391MOL0     O52708   5.963   7.248   1.865 -0.6997 -0.8822  1.3919
  391MOL0     C52709   5.878   7.230   1.751 -0.1043  0.3088  0.3275
  391MOL0     C52710   5.923   7.307   1.622  1.0560  0.8390 -0.1367
  391MOL0     C52711   5.931   7.456   1.659  0.5396 -0.2268 -0.5852
  391MOL0     C52712   5.912   7.541   1.528  0.4605 -0.4938 -1.6490
  391MOL0     C52713   6.022   7.527   1.439 -0.1436  0.0565  0.6566
  391MOL0     C52714   6.119   7.508   1.365  0.0787  0.7902  0.4080
  391MOL0     C52715   6.146   7.092   1.788 -0.2395 -0.0637 -0.7091
  391MOL0     C52716   6.252   7.010   1.823  0.1654  0.1661 -0.5859
  391MOL0     C52717   6.288   6.901   1.723  0.8095 -1.3341 -1.2345
  391MOL0     H52718   6.703   6.873   2.013  0.1801  0.0803 -0.0598
  391MOL0     H52719   6.887   6.743   2.160 -0.8020 -1.5919  1.1377
  391MOL0     H52720   6.925   6.778   2.592  1.8826 -0.5388 -0.6826
  391MOL0     H52721   6.792   6.669   2.574 -0.3931  0.9102 -0.2936
  391MOL0     H52722   7.086   6.636   2.561  0.5881 -1.0366 -1.4031
  391MOL0     H52723   6.984   6.511   2.476 -0.2416  0.7016 -0.8963
  391MOL0     H52724   6.862   6.496   2.689 -1.9959  3.9307 -3.5050
  391MOL0     H52725   6.974   6.615   2.772  1.7670  2.6412 -1.4507
  391MOL0     H52726   7.036   6.342   2.667  1.7746 -0.0706 -0.8529
  391MOL0     H52727   7.163   6.465   2.703 -0.0788 -0.6558 -3.3354
  391MOL0     H52728   7.101   6.446   2.942  0.6944 -0.4510  0.1082
  391MOL0     H52729   6.948   6.378   2.890  1.1430  0.3886 -0.0758
  391MOL0     H52730   7.046   6.157   2.862  0.5653  0.2774 -3.2789
  391MOL0     H52731   7.200   6.226   2.815 -1.0275 -1.3039 -1.2577
  391MOL0     H52732   7.071   6.244   3.086 -1.4405  0.2098 -2.0460
  391MOL0     H52733   7.229   6.301   3.059  0.2786  0.5570 -1.7589
  391MOL0     H52734   7.171   6.028   3.137  2.4111  2.2449  2.8809
  391MOL0     H52735   7.219   6.013   2.969  3.4118  0.5347 -1.5242
  391MOL0     H52736   7.360   6.175   3.314  0.6804  0.4019 -0.0907
  391MOL0     H52737   7.746   6.152   3.296 -0.0707 -3.0460  1.9417
  391MOL0     H52738   7.626   6.280   3.343  0.4742 -0.2310  3.0066
  391MOL0     H52739   7.550   6.172   3.521 -1.7757  0.0520  0.3860
  391MOL0     H52740   7.573   6.004   3.450  2.3736 -0.9981  0.1276
  391MOL0     H52741   7.779   6.203   3.561 -0.3394  0.0201  0.3919
  391MOL0     H52742   7.837   6.070   3.489  0.2848  0.4031  0.2860
  391MOL0     H52743   7.727   5.905   3.619 -2.2243 -0.1604  0.0685
  391MOL0     H52744   7.649   6.016   3.725 -2.0106 -1.4700 -1.6978
  391MOL0     H52745   8.075   6.106   3.815 -1.7027 -0.6725 -1.7855
  391MOL0     H52746   8.129   6.336   3.881  0.0440  0.4790 -0.9038
  391MOL0     H52747   7.949   6.654   4.213 -0.2678 -0.5076  0.9949
  391MOL0     H52748   8.034   6.838   4.341 -2.0426 -1.3833 -0.5983
  391MOL0     H52749   8.172   6.962   4.498  0.4554 -0.4536 -0.4661
  391MOL0     H52750   8.315   6.872   4.493 -0.3281 -0.0914  0.1028
  391MOL0     H52751   8.292   7.166   4.454  0.2966 -2.6732 -3.2860
  391MOL0     H52752   8.324   7.095   4.617 -1.4664  0.6611  0.5321
  391MOL0     H52753   8.535   7.008   4.556  1.6348  2.1677  0.7347
  391MOL0     H52754   8.524   7.065   4.384  3.2589 -3.5154  1.0964
  391MOL0     H52755   8.556   7.215   4.636  2.0127 -0.3792  0.9811
  391MOL0     H52756   8.519   7.286   4.474 -2.7770 -2.0210 -0.9184
  391MOL0     H52757   8.724   7.174   4.374  1.0783 -2.1766  0.8535
  391MOL0     H52758   8.783   7.120   4.528  2.5596  0.4338 -0.5216
  391MOL0     H52759   8.903   7.298   4.451 -1.2732 -1.5739  0.0555
  391MOL0     H52760   8.768   7.407   4.444  2.5998  1.8274  0.1102
  391MOL0     H52761   8.864   7.279   4.705 -0.7978  1.6867  1.6604
  391MOL0     H52762   8.732   7.390   4.705  0.0338  1.1291 -1.2476
  391MOL0     H52763   8.868   7.570   4.644  0.5722 -1.1584 -2.1272
  391MOL0     H52764   8.952   7.492   4.776 -2.3658 -0.6607  1.1960
  391MOL0     H52765   8.405   6.839   4.128 -0.8035  2.7795  0.7141
  391MOL0     H52766   8.307   6.632   3.985 -3.0339 -2.3094 -0.0109
  391MOL0     H52767   7.700   6.418   3.921 -1.9704 -1.2707 -3.1566
  391MOL0     H52768   7.661   6.192   3.837  0.7669 -1.5526 -0.0533
  391MOL0     H52769   6.659   6.833   2.511  1.5495  0.3393  0.7885
  391MOL0     H52770   6.492   6.952   2.361 -0.4478  3.2090 -2.8498
  391MOL0     H52771   6.281   7.139   2.143 -2.2134  1.5205 -0.1522
  391MOL0     H52772   6.088   7.246   2.092 -2.1403 -1.2910 -0.1208
  391MOL0     H52773   5.779   7.265   1.783 -1.1607 -2.1794 -0.0155
  391MOL0     H52774   5.860   7.124   1.732 -0.4895 -0.6279  4.7789
  391MOL0     H52775   5.840   7.292   1.553 -1.7753 -0.2106  3.1631
  391MOL0     H52776   6.015   7.268   1.578  1.2483 -1.0248  1.7420
  391MOL0     H52777   6.029   7.477   1.703  1.0889 -1.5748 -1.0994
  391MOL0     H52778   5.843   7.485   1.718 -1.1078 -1.9124 -2.0731
  391MOL0     H52779   5.817   7.519   1.479 -1.8585  1.1037  1.7834
  391MOL0     H52780   5.889   7.645   1.552 -1.1014 -1.6559  2.7208
  391MOL0     H52781   6.203   7.484   1.302  0.1083 -0.0368  0.7417
  391MOL0     H52782   6.105   7.086   1.688 -0.6573  0.3354 -0.5693
  391MOL0     H52783   6.394   6.911   1.695  1.1406  2.2389  0.8086
  391MOL0     H52784   6.266   6.801   1.762  0.0695 -0.2714  1.2220
  391MOL0     H52785   6.226   6.905   1.633  0.3210 -1.0257 -0.8826
  392MOL0     O52786   1.263   9.693   9.715  0.3762  0.3326  0.9243
  392MOL0     C52787   1.228   9.584   9.763 -0.4722 -0.3164 -1.0131
  392MOL0     O52788   1.316   9.483   9.784 -0.8170  0.0687 -0.1991
  392MOL0     C52789   1.453   9.502   9.779  0.0332  0.7014  0.5250
  392MOL0     C52790   1.523   9.591   9.868 -0.3179 -0.0371 -0.5115
  392MOL0     C52791   1.667   9.585   9.881 -0.1491 -0.3277  0.0549
  392MOL0     C52792   1.743   9.497   9.806 -0.7213 -0.1339  0.1068
  392MOL0     O52793   1.884   9.489   9.803  0.4394 -0.4682 -0.3874
  392MOL0     C52794   1.961   9.567   9.898 -0.2112  0.3092  0.0467
  392MOL0     C52795   2.102   9.543   9.842 -0.0543 -0.3885 -1.2795
  392MOL0     C52796   2.141   9.608   9.713 -0.8457  0.0800  0.2984
  392MOL0     C52797   2.273   9.555   9.667  0.4954 -0.5849 -0.4329
  392MOL0     C52798   2.313   9.630   9.536 -0.1862 -0.2876  0.8477
  392MOL0     C52799   2.413   9.565   9.450  0.0576 -0.3153 -0.2686
  392MOL0     C52800   2.552   9.577   9.513  0.4873  0.9793  1.0770
  392MOL0     C52801   2.650   9.549   9.392  0.7745 -0.5289 -0.3213
  392MOL0     N52802   2.780   9.494   9.436 -0.5530 -0.0227 -0.2244
  392MOL0     C52803   2.877   9.455   9.344 -0.0145  0.8150  0.3022
  392MOL0     C52804   2.981   9.404   9.410 -0.0760  0.4199  0.9074
  392MOL0     C52805   3.103   9.344   9.337 -0.4930  0.1485 -0.7701
  392MOL0     C52806   3.069   9.214   9.276 -0.0245  0.4212  0.4391
  392MOL0     C52807   3.175   9.182   9.177 -0.3032 -0.3199  0.2880
  392MOL0     C52808   3.155   9.036   9.130 -0.6327 -0.1406  0.6086
  392MOL0     O52809   3.199   8.943   9.226  0.0154  0.0955 -0.6370
  392MOL0     C52810   3.337   8.908   9.233  0.4596 -0.3700 -0.8179
  392MOL0     C52811   3.372   8.821   9.339  0.4119  0.0590 -0.4115
  392MOL0     C52812   3.500   8.781   9.365 -0.0331  0.2165 -0.0156
  392MOL0     C52813   3.606   8.823   9.280  0.1903  0.6408 -0.3917
  392MOL0     C52814   3.739   8.775   9.315  0.4331  0.2791 -0.3152
  392MOL0     O52815   3.757   8.752   9.449 -0.0113  0.6220  0.4487
  392MOL0     C52816   3.877   8.739   9.517  0.4147  0.5860 -0.8208
  392MOL0     C52817   3.873   8.759   9.660 -0.1562  0.3077  0.7350
  392MOL0     C52818   3.988   8.768   9.740 -0.8180  0.0731  0.1235
  392MOL0     C52819   4.110   8.721   9.688  0.3645  0.7490  0.3373
  392MOL0     O52820   4.226   8.695   9.755  0.3995  0.3489  0.4710
  392MOL0     C52821   4.206   8.593   9.854 -0.2932 -0.0791 -0.7553
  392MOL0     C52822   4.350   8.530   9.886  0.0932  0.9870 -0.5751
  392MOL0     C52823   4.454   8.639   9.910 -0.2125  0.6881  0.1900
  392MOL0     C52824   4.557   8.592  10.017 -0.2450 -0.4336  0.1014
  392MOL0     C52825   4.643   8.477   9.955  0.5215  0.5032 -0.7080
  392MOL0     C52826   4.704   8.492   9.810 -0.2247  0.4233 -1.0399
  392MOL0     C52827   4.762   8.366   9.749 -0.1958  0.4204 -0.5707
  392MOL0     C52828   4.896   8.336   9.818  0.0533 -0.1395 -1.4079
  392MOL0    Cl52829   4.872   8.237   9.965  0.0733 -0.1295 -0.3877
  392MOL0     C52830   4.116   8.702   9.554 -0.2536  1.7370 -0.4039
  392MOL0     C52831   4.010   8.707   9.472  0.5545  0.3368  0.2671
  392MOL0     O52832   3.826   8.789   9.233  0.3680 -0.7109 -0.4453
  392MOL0     C52833   3.572   8.916   9.173 -0.1721  0.6138 -0.9799
  392MOL0     C52834   3.439   8.965   9.154 -0.7185 -0.4047  0.2167
  392MOL0     N52835   2.953   9.424   9.544 -0.3382  0.1564  0.2000
  392MOL0     N52836   2.843   9.484   9.559 -0.0100  0.0583  0.2438
  392MOL0     C52837   1.667   9.414   9.722  0.1665  0.0823 -0.1803
  392MOL0     C52838   1.530   9.416   9.704  0.2894 -0.0369  0.1462
  392MOL0     C52839   1.093   9.565   9.786 -0.3819  0.3342 -0.0365
  392MOL0     C52840   1.029   9.443   9.740  0.5623 -0.3778  0.0084
  392MOL0     C52841   0.895   9.417   9.757 -0.7145  0.6363  0.3960
  392MOL0     C52842   0.806   9.505   9.826 -0.1857 -0.3419  1.1145
  392MOL0     O52843   0.672   9.461   9.832  0.0318 -0.2554  0.0296
  392MOL0     C52844   0.574   9.562   9.857 -0.9273 -0.3070 -0.0046
  392MOL0     C52845   0.445   9.527   9.785 -0.1086  0.7088  0.4079
  392MOL0     C52846   0.336   9.625   9.844 -0.6980 -0.5184 -0.2135
  392MOL0     C52847   0.205   9.606   9.768  0.2507 -0.5450 -0.2273
  392MOL0     C52848   0.121   9.489   9.795  0.9102  0.7753  0.0142
  392MOL0     C52849   0.053   9.392   9.809 -1.1853 -0.0217 -0.4047
  392MOL0     C52850   0.860   9.628   9.862  0.7378 -0.0915  0.4470
  392MOL0     C52851   1.001   9.655   9.846 -0.2466 -0.0099 -1.0635
  392MOL0     C52852   1.052   9.784   9.900 -0.3434 -0.4837 -0.1310
  392MOL0     H52853   1.470   9.662   9.932  0.7056  0.0583  0.2648
  392MOL0     H52854   1.706   9.655   9.953 -0.3465  0.0935 -0.2396
  392MOL0     H52855   1.940   9.674   9.889 -1.1525  0.0194 -1.6323
  392MOL0     H52856   1.952   9.525   9.999 -1.3358 -0.0802 -0.2025
  392MOL0     H52857   2.113   9.434   9.847 -0.6033 -0.4150  2.9020
  392MOL0     H52858   2.169   9.589   9.915  0.2923 -1.0745 -1.1577
  392MOL0     H52859   2.133   9.717   9.723 -2.3837  0.1521 -1.3352
  392MOL0     H52860   2.074   9.571   9.636 -1.7095 -0.2326  1.1782
  392MOL0     H52861   2.349   9.575   9.743 -0.3582 -1.2930  0.6520
  392MOL0     H52862   2.262   9.446   9.660 -1.6608 -0.4964  0.6338
  392MOL0     H52863   2.222   9.639   9.476  0.8469  1.2026 -0.5742
  392MOL0     H52864   2.347   9.730   9.565  1.6987 -0.7598  0.3987
  392MOL0     H52865   2.377   9.463   9.441 -0.0172 -0.2009 -1.5198
  392MOL0     H52866   2.416   9.601   9.346  0.5836  2.5984  0.6609
  392MOL0     H52867   2.563   9.493   9.583  1.4312 -1.0075 -1.3267
  392MOL0     H52868   2.575   9.672   9.562  0.7270  2.6787 -2.0592
  392MOL0     H52869   2.599   9.472   9.333 -1.6600 -1.2994  2.5390
  392MOL0     H52870   2.671   9.642   9.339  0.1926 -1.2957 -1.9566
  392MOL0     H52871   2.869   9.452   9.236  2.1294 -0.0089  0.1233
  392MOL0     H52872   3.128   9.411   9.254 -1.9198 -1.5126 -2.6470
  392MOL0     H52873   3.186   9.319   9.404 -0.0011  0.8086 -1.1230
  392MOL0     H52874   3.059   9.134   9.350  1.4538  0.4465  0.7070
  392MOL0     H52875   2.978   9.228   9.217 -0.9685 -1.0277  1.4750
  392MOL0     H52876   3.277   9.197   9.213  0.1401 -1.3846 -0.4822
  392MOL0     H52877   3.164   9.248   9.090  1.5839 -1.3109 -0.7607
  392MOL0     H52878   3.205   9.013   9.036  2.3524  0.2777  1.9807
  392MOL0     H52879   3.051   9.017   9.101  0.1958 -4.3625 -0.2946
  392MOL0     H52880   3.280   8.794   9.391  1.1365 -0.3065  0.7141
  392MOL0     H52881   3.514   8.704   9.439 -1.0635 -1.5038 -1.5331
  392MOL0     H52882   3.777   8.782   9.706  0.7786  2.6262  1.6796
  392MOL0     H52883   3.982   8.803   9.843 -1.0271  0.1389  0.0908
  392MOL0     H52884   4.171   8.642   9.945  0.0179 -2.5639  0.8023
  392MOL0     H52885   4.139   8.516   9.814 -1.1032 -0.0995  0.5570
  392MOL0     H52886   4.344   8.467   9.975  1.5332  1.9870  0.2637
  392MOL0     H52887   4.383   8.465   9.805 -1.4059  1.7861 -1.8956
  392MOL0     H52888   4.497   8.665   9.813 -0.1887  0.1774  0.0558
  392MOL0     H52889   4.404   8.730   9.943  1.1009  1.7297 -0.6384
  392MOL0     H52890   4.504   8.559  10.107  0.2010 -1.3215  0.0415
  392MOL0     H52891   4.625   8.673  10.045 -0.4824 -0.0920 -0.2960
  392MOL0     H52892   4.590   8.381   9.957  1.1452  0.1408  1.4846
  392MOL0     H52893   4.723   8.463  10.028  0.8133 -0.9755 -1.2699
  392MOL0     H52894   4.625   8.521   9.741 -2.1068 -1.5014  0.1957
  392MOL0     H52895   4.783   8.567   9.822  0.6054 -0.8333  3.1110
  392MOL0     H52896   4.786   8.392   9.646  0.1964  1.1311 -0.3084
  392MOL0     H52897   4.687   8.286   9.746 -2.1998  2.0670  1.4448
  392MOL0     H52898   4.955   8.270   9.753  3.9083 -0.1880  1.7695
  392MOL0     H52899   4.953   8.428   9.834  0.6603 -0.6260 -0.6678
  392MOL0     H52900   4.211   8.681   9.506  0.5373 -0.0298  1.8064
  392MOL0     H52901   4.024   8.684   9.367 -1.3303  1.9918 -0.4197
  392MOL0     H52902   3.649   8.938   9.100  0.5936  1.5770  0.0894
  392MOL0     H52903   3.416   9.041   9.080  1.5537  0.4148  0.2691
  392MOL0     H52904   1.721   9.342   9.661 -0.6797 -0.6257 -0.1251
  392MOL0     H52905   1.481   9.337   9.648 -0.9920 -2.1797  3.9009
  392MOL0     H52906   1.095   9.374   9.689 -0.1788  0.6509 -2.5242
  392MOL0     H52907   0.862   9.318   9.729 -2.6264  1.7011 -1.3983
  392MOL0     H52908   0.609   9.663   9.834  0.3513 -0.2992  1.7779
  392MOL0     H52909   0.551   9.568   9.964 -2.1069  2.1685 -0.3088
  392MOL0     H52910   0.424   9.420   9.785 -2.5984  1.1206 -0.4886
  392MOL0     H52911   0.459   9.546   9.679  1.5300 -3.4162 -0.2761
  392MOL0     H52912   0.371   9.728   9.834  0.4976 -0.4051  3.5963
  392MOL0     H52913   0.321   9.617   9.951 -0.7914  2.8425  0.1387
  392MOL0     H52914   0.154   9.699   9.795  2.1486 -0.0996  2.2606
  392MOL0     H52915   0.216   9.620   9.660  4.4283 -0.9869 -0.0287
  392MOL0     H52916  -0.006   9.303   9.820 -0.9544 -0.1853 -0.4816
  392MOL0     H52917   0.795   9.694   9.920 -1.6561 -1.7464 -0.2043
  392MOL0     H52918   1.133   9.762   9.969  2.3146  0.1123 -2.8378
  392MOL0     H52919   1.096   9.839   9.816  0.4631  0.3670  0.8323
  392MOL0     H52920   0.979   9.855   9.940  1.6907  3.0946 -2.2315
  393MOL0     O52921   8.231   8.489   3.593  0.2248 -0.0141 -0.3392
  393MOL0     C52922   8.184   8.568   3.509  0.4741  1.7383  0.3215
  393MOL0     O52923   8.246   8.680   3.462 -0.1925  0.1452  0.0696
  393MOL0     C52924   8.354   8.719   3.532 -0.0059 -0.5155  0.2302
  393MOL0     C52925   8.478   8.659   3.501 -0.2766  0.1349  0.2067
  393MOL0     C52926   8.595   8.692   3.563 -0.1815 -0.5774 -0.1108
  393MOL0     C52927   8.591   8.789   3.660  0.0772  0.3044 -1.5250
  393MOL0     O52928   8.715   8.814   3.716  0.0231  0.4446  0.0106
  393MOL0     C52929   8.754   8.948   3.724 -0.1100 -0.2615 -0.6299
  393MOL0     C52930   8.896   8.957   3.774  0.1015  0.7844  0.0591
  393MOL0     C52931   9.005   8.895   3.679  0.0642  0.7049 -0.8692
  393MOL0     C52932   9.069   8.994   3.580  0.2412 -0.5456 -0.5936
  393MOL0     C52933   9.155   8.921   3.489 -0.6687 -0.0390 -0.0401
  393MOL0     C52934   9.091   8.828   3.385 -0.3271  0.3117 -0.3495
  393MOL0     C52935   9.200   8.766   3.302  0.3066  0.5250  0.2682
  393MOL0     C52936   9.153   8.678   3.182  0.3145 -0.1833 -1.0105
  393MOL0     N52937   9.268   8.608   3.111  0.2109 -0.1173  0.1260
  393MOL0     C52938   9.323   8.492   3.160  0.1701  0.0280  0.2491
  393MOL0     C52939   9.418   8.457   3.070  0.5694 -0.5944  0.3158
  393MOL0     C52940   9.522   8.350   3.069 -0.2517 -1.0086  0.2175
  393MOL0     C52941   9.590   8.346   3.205 -0.3591 -0.4829 -0.2335
  393MOL0     C52942   9.698   8.240   3.194  0.1150  0.5705  0.4044
  393MOL0     C52943   9.813   8.257   3.299 -0.4995 -0.3582 -0.0356
  393MOL0     O52944   9.906   8.152   3.293  0.6589  0.7681 -0.1674
  393MOL0     C52945  10.025   8.160   3.221  0.4101 -0.3386 -0.6091
  393MOL0     C52946  10.137   8.079   3.266  0.4306 -1.3976  0.2106
  393MOL0     C52947  10.264   8.088   3.201  0.1148 -0.2808  0.6570
  393MOL0     C52948  10.284   8.183   3.097  0.1729  0.4668 -0.9656
  393MOL0     C52949  10.428   8.206   3.051 -0.5995 -0.3484  0.0436
  393MOL0     O52950  10.533   8.162   3.127  0.0306  0.5423  0.5845
  393MOL0     C52951  10.665   8.178   3.091  0.1215 -0.6210  0.1498
  393MOL0     C52952  10.757   8.081   3.121 -0.0178 -0.3399 -1.0101
  393MOL0     C52953  10.887   8.109   3.104 -0.3383 -0.1727 -0.0697
  393MOL0     C52954  10.932   8.239   3.073  0.4948  0.8342 -0.4080
  393MOL0     O52955  11.070   8.263   3.078  0.2435 -0.2808 -0.2842
  393MOL0     C52956  11.139   8.236   2.949  0.3052  0.8023 -0.0699
  393MOL0     C52957  11.292   8.249   2.981  0.2533 -0.4849 -0.1088
  393MOL0     C52958  11.321   8.395   3.008  0.8210  0.4713 -0.0261
  393MOL0     C52959  11.464   8.416   3.060  0.4369 -0.3795 -0.8517
  393MOL0     C52960  11.493   8.565   3.089 -0.5910 -0.2845 -0.4078
  393MOL0     C52961  11.638   8.580   3.137  0.2608 -0.0894 -0.0302
  393MOL0     C52962  11.664   8.714   3.211  0.2566  0.0223 -0.2420
  393MOL0     C52963  11.814   8.747   3.214  0.4482 -0.2928  0.8315
  393MOL0    Cl52964  11.860   8.823   3.058 -0.2112  0.2946  0.1408
  393MOL0     C52965  10.850   8.338   3.048  0.2482  0.1134  0.3309
  393MOL0     C52966  10.710   8.308   3.056  0.1547  0.0211 -0.1524
  393MOL0     O52967  10.439   8.264   2.940  0.2990  0.4323 -0.5827
  393MOL0     C52968  10.176   8.254   3.055  0.4208 -0.1768  0.6953
  393MOL0     C52969  10.049   8.247   3.116 -0.3968  0.2646 -0.1243
  393MOL0     N52970   9.401   8.536   2.959 -0.7802 -1.4285 -0.9861
  393MOL0     N52971   9.315   8.629   2.992 -0.4980  0.0864  0.4512
  393MOL0     C52972   8.473   8.866   3.691 -0.6850  0.5158  0.3676
  393MOL0     C52973   8.354   8.830   3.620  0.6029  0.3367 -0.3660
  393MOL0     C52974   8.072   8.516   3.426 -0.2871  0.5722  0.0924
  393MOL0     C52975   8.088   8.508   3.288 -0.6103 -0.3246  0.4300
  393MOL0     C52976   7.987   8.457   3.197  0.4814 -0.6470 -0.2037
  393MOL0     C52977   7.863   8.416   3.259 -0.2461 -0.4388  0.4686
  393MOL0     O52978   7.766   8.366   3.178  0.5071 -0.1547 -1.1237
  393MOL0     C52979   7.627   8.383   3.218 -0.3185 -0.1091  0.8245
  393MOL0     C52980   7.551   8.386   3.081 -0.8475  0.8347 -0.3555
  393MOL0     C52981   7.573   8.255   3.001  0.1433 -0.5376 -0.1928
  393MOL0     C52982   7.454   8.236   2.906  0.2926 -0.8091  0.4667
  393MOL0     C52983   7.333   8.202   2.982 -0.2315  0.0462  0.8588
  393MOL0     C52984   7.228   8.189   3.050 -0.6295  0.4484  0.2730
  393MOL0     C52985   7.841   8.431   3.400 -0.5395 -1.0411  0.3749
  393MOL0     C52986   7.951   8.472   3.477 -0.4308 -1.0984  0.0812
  393MOL0     C52987   7.925   8.473   3.624 -0.5278  0.5293 -0.1613
  393MOL0     H52988   8.485   8.577   3.431 -2.3417  0.6162 -0.6344
  393MOL0     H52989   8.690   8.644   3.543  0.5373  1.6319 -2.5134
  393MOL0     H52990   8.746   8.985   3.621  1.6293  1.0131 -0.3448
  393MOL0     H52991   8.684   9.000   3.791 -0.4312 -0.5562 -0.7306
  393MOL0     H52992   8.895   8.907   3.871  1.2589  0.9507  0.1750
  393MOL0     H52993   8.920   9.062   3.796 -0.2876  0.5969  1.4583
  393MOL0     H52994   8.957   8.808   3.635  1.0313  1.1196 -2.8546
  393MOL0     H52995   9.089   8.858   3.740 -0.9718 -0.7273 -0.2516
  393MOL0     H52996   8.987   9.051   3.536 -0.9208 -0.5671  1.4222
  393MOL0     H52997   9.130   9.056   3.646 -1.1602 -0.7677  0.9885
  393MOL0     H52998   9.231   8.987   3.445 -0.3523  1.1155  2.0706
  393MOL0     H52999   9.212   8.850   3.549 -2.9094 -1.1593  0.8614
  393MOL0     H53000   9.022   8.751   3.418 -0.5166  0.3528 -0.6437
  393MOL0     H53001   9.033   8.890   3.315 -1.3199 -0.5540 -0.3174
  393MOL0     H53002   9.251   8.696   3.369 -0.0549 -2.0808 -1.9937
  393MOL0     H53003   9.262   8.842   3.254 -1.2089  2.1330  0.7618
  393MOL0     H53004   9.088   8.601   3.224  2.6779 -1.6333  0.2490
  393MOL0     H53005   9.095   8.748   3.121 -0.7935 -1.0160 -0.9379
  393MOL0     H53006   9.306   8.452   3.260 -1.3431  0.4754  0.2006
  393MOL0     H53007   9.474   8.253   3.056 -1.8588 -0.2553  0.2592
  393MOL0     H53008   9.586   8.378   2.985  0.7851 -0.2059  1.2358
  393MOL0     H53009   9.637   8.440   3.236  1.6493 -1.3353 -0.5288
  393MOL0     H53010   9.526   8.313   3.287  0.8828 -0.4789  0.7585
  393MOL0     H53011   9.755   8.242   3.101 -2.3350 -1.9513 -1.3097
  393MOL0     H53012   9.641   8.147   3.202 -1.0201  1.1319 -0.6981
  393MOL0     H53013   9.766   8.269   3.397  2.5261  0.9565  1.3698
  393MOL0     H53014   9.865   8.351   3.275 -1.7519 -0.2004 -2.4593
  393MOL0     H53015  10.124   8.013   3.351  1.4955 -2.6867 -0.5839
  393MOL0     H53016  10.353   8.036   3.235  0.8016 -0.8350 -1.7539
  393MOL0     H53017  10.727   7.990   3.172 -2.9704  1.0131 -0.0627
  393MOL0     H53018  10.962   8.035   3.130 -0.9073 -0.5217  0.5935
  393MOL0     H53019  11.119   8.137   2.906  1.1960  2.3252 -4.5140
  393MOL0     H53020  11.105   8.301   2.868 -1.3792  0.1109  0.0313
  393MOL0     H53021  11.318   8.185   3.066  0.4547 -0.0788  0.1419
  393MOL0     H53022  11.363   8.222   2.901  1.6073 -0.8495  1.1673
  393MOL0     H53023  11.312   8.446   2.912  0.0197  0.0505 -0.1857
  393MOL0     H53024  11.238   8.431   3.070 -0.6843 -2.5369 -0.1107
  393MOL0     H53025  11.529   8.378   2.980 -0.1066  0.1043 -1.5350
  393MOL0     H53026  11.474   8.354   3.150 -2.6806 -0.7964 -0.6825
  393MOL0     H53027  11.431   8.622   3.159  1.8323  0.7476  0.9980
  393MOL0     H53028  11.487   8.606   2.988 -0.3051 -2.9756 -1.6131
  393MOL0     H53029  11.656   8.508   3.217 -1.4540  1.0747  1.4990
  393MOL0     H53030  11.700   8.577   3.047 -0.3499  1.4405 -0.5324
  393MOL0     H53031  11.629   8.699   3.314 -1.9217 -2.2344 -1.2154
  393MOL0     H53032  11.598   8.792   3.174 -1.3966 -0.4441  1.5447
  393MOL0     H53033  11.840   8.812   3.298  1.6685 -0.4455  0.5925
  393MOL0     H53034  11.876   8.657   3.217  1.6792  0.5623  1.5359
  393MOL0     H53035  10.891   8.430   3.007 -1.6325  0.0304 -1.9540
  393MOL0     H53036  10.643   8.392   3.043  0.9748  0.6684 -0.3155
  393MOL0     H53037  10.178   8.318   2.968  1.8549 -2.1287 -0.7912
  393MOL0     H53038   9.967   8.309   3.079  0.4958  0.5143 -1.7435
  393MOL0     H53039   8.479   8.950   3.760 -1.1160 -1.6517  3.2103
  393MOL0     H53040   8.262   8.887   3.630  0.5640  0.6799 -2.1965
  393MOL0     H53041   8.189   8.531   3.256  0.2483 -3.5041  0.5330
  393MOL0     H53042   8.001   8.458   3.090 -0.4358  0.3357 -0.3379
  393MOL0     H53043   7.607   8.474   3.275  0.5751 -0.1048  1.1442
  393MOL0     H53044   7.595   8.299   3.280 -0.6479 -0.8398 -0.2952
  393MOL0     H53045   7.581   8.474   3.023 -1.5143  1.8494  0.8044
  393MOL0     H53046   7.447   8.416   3.089 -0.4672  2.0214  0.3608
  393MOL0     H53047   7.572   8.170   3.070  0.8325  0.0342  0.5233
  393MOL0     H53048   7.666   8.254   2.943  0.9273 -0.8479  1.0491
  393MOL0     H53049   7.439   8.327   2.847  1.6832 -0.7447  0.1847
  393MOL0     H53050   7.491   8.164   2.834 -1.9327  1.7986 -3.6672
  393MOL0     H53051   7.144   8.171   3.114 -0.8244  0.4876  0.0304
  393MOL0     H53052   7.747   8.418   3.452  0.5426  0.5542  2.9608
  393MOL0     H53053   7.828   8.428   3.646  0.7935 -0.6464  4.5068
  393MOL0     H53054   8.004   8.422   3.681 -2.1396 -2.0011 -0.0168
  393MOL0     H53055   7.925   8.580   3.646 -0.6500  0.9745 -2.1873
  394MOL0     O53056   5.044   2.559   7.522 -0.1646 -0.5053  0.1924
  394MOL0     C53057   4.995   2.541   7.410 -0.5881 -0.2025  0.2214
  394MOL0     O53058   5.058   2.504   7.301 -0.3142  1.3161 -0.1614
  394MOL0     C53059   5.177   2.430   7.300  0.3022 -0.5176 -0.1961
  394MOL0     C53060   5.243   2.436   7.179 -0.5067  0.1102  0.5140
  394MOL0     C53061   5.356   2.356   7.154  0.0042 -0.6075 -0.1917
  394MOL0     C53062   5.401   2.274   7.253  0.2268  0.0212 -1.0445
  394MOL0     O53063   5.515   2.198   7.226 -0.2184 -0.9331  0.3856
  394MOL0     C53064   5.635   2.225   7.307  0.6134 -0.2951  0.5720
  394MOL0     C53065   5.749   2.218   7.213 -0.2688 -0.6986  0.2217
  394MOL0     C53066   5.756   2.343   7.126 -0.2927  0.3198 -0.0300
  394MOL0     C53067   5.831   2.325   7.003  0.6198 -0.2405 -0.5170
  394MOL0     C53068   5.983   2.324   7.022  0.7604  0.4358  0.1811
  394MOL0     C53069   6.058   2.317   6.883 -0.0562  0.7033  1.0673
  394MOL0     C53070   6.202   2.351   6.906  0.2088 -0.1671  0.5847
  394MOL0     C53071   6.290   2.322   6.786  0.3054  0.5589 -0.2502
  394MOL0     N53072   6.423   2.378   6.813  0.3925  0.1971  0.2932
  394MOL0     C53073   6.538   2.321   6.869 -0.1308  0.6521  0.3706
  394MOL0     C53074   6.622   2.430   6.880  0.6012  0.0997  0.4699
  394MOL0     C53075   6.756   2.427   6.940  0.0902 -0.6547  0.2644
  394MOL0     C53076   6.871   2.469   6.841  0.1907  0.3913  0.8464
  394MOL0     C53077   7.007   2.436   6.902 -0.6845  0.7532 -0.3257
  394MOL0     C53078   7.123   2.445   6.812  0.4496 -0.9672  0.1312
  394MOL0     O53079   7.247   2.410   6.879 -0.7973 -0.1011  0.5485
  394MOL0     C53080   7.361   2.392   6.802  0.3546 -0.1025  0.4858
  394MOL0     C53081   7.357   2.418   6.662 -0.2922 -0.0306  0.3288
  394MOL0     C53082   7.476   2.419   6.589  0.7215  0.3289 -0.3620
  394MOL0     C53083   7.599   2.383   6.647  0.8453 -0.3297 -0.1544
  394MOL0     C53084   7.720   2.393   6.570  0.5316  0.4543 -0.1816
  394MOL0     O53085   7.833   2.349   6.633 -0.2581  0.8920 -0.4175
  394MOL0     C53086   7.935   2.294   6.562 -0.4839 -0.3843 -1.2173
  394MOL0     C53087   7.924   2.233   6.433  0.6768 -0.8299 -0.8351
  394MOL0     C53088   8.034   2.176   6.358 -0.4907 -0.6757  0.0813
  394MOL0     C53089   8.165   2.192   6.414  0.1869 -0.1052  0.5872
  394MOL0     O53090   8.287   2.175   6.357  0.4708  0.2419 -0.1521
  394MOL0     C53091   8.291   2.135   6.219  0.9609 -0.5657  0.3756
  394MOL0     C53092   8.441   2.109   6.184 -0.0471  0.7036  0.8593
  394MOL0     C53093   8.466   2.082   6.037  0.2483 -0.3937  0.2249
  394MOL0     C53094   8.600   2.031   6.005 -0.8976  0.4533  0.7096
  394MOL0     C53095   8.666   2.074   5.863  0.4916  0.5128  0.4847
  394MOL0     C53096   8.794   1.999   5.827 -0.3758 -0.1192  0.2721
  394MOL0     C53097   8.841   2.023   5.688  0.2065  0.2114 -0.5426
  394MOL0     C53098   8.825   1.927   5.579  0.6427  0.9020 -0.3494
  394MOL0    Cl53099   8.649   1.914   5.559 -0.5043 -0.2333  0.2023
  394MOL0     C53100   8.173   2.258   6.542 -0.1849  0.2116 -0.7832
  394MOL0     C53101   8.064   2.307   6.604 -0.5190 -0.0215 -0.7546
  394MOL0     O53102   7.711   2.443   6.461 -0.3423  0.5538 -0.3377
  394MOL0     C53103   7.596   2.363   6.786 -0.7173  0.4259  1.1042
  394MOL0     C53104   7.477   2.366   6.862 -0.4731  0.8849 -0.8296
  394MOL0     N53105   6.562   2.545   6.832  0.4131 -0.0152 -0.5602
  394MOL0     N53106   6.450   2.505   6.791 -0.1942 -0.7143  0.0432
  394MOL0     C53107   5.343   2.270   7.387 -0.3557 -0.3220  0.8352
  394MOL0     C53108   5.224   2.345   7.400 -0.2311 -0.6112  0.0384
  394MOL0     C53109   4.853   2.556   7.394  0.1328 -0.3340 -0.1503
  394MOL0     C53110   4.795   2.507   7.282  0.3831  0.0299  0.4869
  394MOL0     C53111   4.658   2.523   7.253  0.0194 -0.3534  0.5344
  394MOL0     C53112   4.574   2.594   7.345  0.1310  0.8143 -1.0500
  394MOL0     O53113   4.438   2.610   7.342  0.0328 -0.4633  0.3543
  394MOL0     C53114   4.361   2.543   7.240 -0.1867 -0.2598  0.1325
  394MOL0     C53115   4.205   2.569   7.264 -0.7616  0.6338  0.1670
  394MOL0     C53116   4.171   2.664   7.382  0.0804  0.0328 -0.3199
  394MOL0     C53117   4.023   2.675   7.395  0.6616  0.2859 -0.0250
  394MOL0     C53118   3.954   2.558   7.450  0.1194 -0.7587 -1.0801
  394MOL0     C53119   3.887   2.468   7.495 -0.0774  0.0863 -0.2876
  394MOL0     C53120   4.633   2.631   7.463 -0.6812  0.1972  0.8164
  394MOL0     C53121   4.773   2.621   7.494 -0.0933 -0.8239 -0.0225
  394MOL0     C53122   4.815   2.691   7.619 -0.6063 -0.0200  0.3175
  394MOL0     H53123   5.209   2.496   7.095  0.3578  0.8861  0.6932
  394MOL0     H53124   5.416   2.353   7.063 -0.6921 -3.2637 -0.6581
  394MOL0     H53125   5.642   2.322   7.358  0.1639  0.3005 -0.4674
  394MOL0     H53126   5.653   2.143   7.376 -1.7378 -2.4593 -1.1865
  394MOL0     H53127   5.736   2.133   7.145 -1.2955  0.5040 -1.1555
  394MOL0     H53128   5.842   2.217   7.270 -0.6977  0.2202  0.9741
  394MOL0     H53129   5.799   2.427   7.181 -1.8530 -0.3646  2.4099
  394MOL0     H53130   5.655   2.379   7.105  0.3169  3.3222  1.5097
  394MOL0     H53131   5.795   2.242   6.940  1.3443 -2.3545  1.7052
  394MOL0     H53132   5.810   2.416   6.947 -2.0874 -0.2760  0.2856
  394MOL0     H53133   6.007   2.419   7.070  1.3117  1.5785 -2.2319
  394MOL0     H53134   6.025   2.244   7.083  1.7439 -0.5979 -1.7532
  394MOL0     H53135   6.048   2.216   6.841  0.0510  0.4977  1.5197
  394MOL0     H53136   6.020   2.393   6.814  1.3736 -0.2901 -0.8856
  394MOL0     H53137   6.244   2.298   6.992  0.1797  1.0481  1.3797
  394MOL0     H53138   6.198   2.457   6.935 -1.3234  0.1200 -0.5203
  394MOL0     H53139   6.303   2.215   6.772  1.9966  0.7951 -0.7793
  394MOL0     H53140   6.239   2.365   6.700  0.4614  0.5019 -0.3710
  394MOL0     H53141   6.562   2.223   6.908 -0.6249  0.3826  0.0069
  394MOL0     H53142   6.748   2.487   7.031  0.1345 -0.0588 -0.1207
  394MOL0     H53143   6.791   2.326   6.963  1.3455 -0.3883 -0.3898
  394MOL0     H53144   6.854   2.448   6.735  0.7127 -0.1100  0.8545
  394MOL0     H53145   6.861   2.577   6.841 -0.3466  0.6069 -4.5353
  394MOL0     H53146   7.005   2.330   6.929 -2.3555  1.0573  0.9006
  394MOL0     H53147   7.017   2.483   7.000 -1.7872 -0.5626  0.4638
  394MOL0     H53148   7.123   2.549   6.778 -1.4223 -0.6573  0.9279
  394MOL0     H53149   7.099   2.385   6.724  0.3117 -1.4911  0.5170
  394MOL0     H53150   7.272   2.454   6.605 -0.7122  0.2750  1.1306
  394MOL0     H53151   7.458   2.438   6.483 -0.9854 -1.1017 -0.3557
  394MOL0     H53152   7.823   2.216   6.396 -1.1590 -1.1701  3.7225
  394MOL0     H53153   8.018   2.120   6.267 -2.8300  0.5773 -0.3475
  394MOL0     H53154   8.235   2.042   6.207  0.8161 -0.4029 -0.2588
  394MOL0     H53155   8.252   2.211   6.151  0.5435  1.9467  3.2729
  394MOL0     H53156   8.503   2.195   6.212 -0.8259  2.5909 -2.5280
  394MOL0     H53157   8.482   2.022   6.235 -1.8322  0.4822  2.0089
  394MOL0     H53158   8.396   2.002   6.012 -0.0332 -1.6515  4.3898
  394MOL0     H53159   8.431   2.168   5.979  3.1511 -0.5443 -1.9914
  394MOL0     H53160   8.593   1.924   6.025 -1.2016  0.3484  0.0492
  394MOL0     H53161   8.677   2.068   6.074 -2.4905  1.5747  1.9715
  394MOL0     H53162   8.675   2.183   5.857  0.6694  0.4952  0.4399
  394MOL0     H53163   8.600   2.056   5.778  1.0055 -0.1031  0.2171
  394MOL0     H53164   8.873   2.041   5.890  0.2046 -0.9739  0.1306
  394MOL0     H53165   8.791   1.893   5.854 -2.3370 -0.3808 -0.8523
  394MOL0     H53166   8.947   2.052   5.694  1.2019 -3.1829  0.6116
  394MOL0     H53167   8.787   2.109   5.648 -0.0881 -1.0539 -3.1314
  394MOL0     H53168   8.864   1.959   5.482  1.4945  0.2117 -0.2519
  394MOL0     H53169   8.874   1.831   5.600  1.2435  1.1845 -0.4223
  394MOL0     H53170   8.275   2.275   6.575  0.4336 -2.3689 -1.1619
  394MOL0     H53171   8.077   2.363   6.696  0.3124 -0.5471 -0.5397
  394MOL0     H53172   7.690   2.336   6.831 -0.6603 -1.9011 -0.2318
  394MOL0     H53173   7.475   2.352   6.970 -3.6866 -1.4730 -1.0146
  394MOL0     H53174   5.377   2.193   7.455  0.8887 -2.6580 -2.1857
  394MOL0     H53175   5.173   2.341   7.496  0.2130  3.9537  0.6758
  394MOL0     H53176   4.839   2.434   7.214  0.2987  0.2877  0.1505
  394MOL0     H53177   4.615   2.486   7.161  0.7018  1.0351 -0.3765
  394MOL0     H53178   4.387   2.439   7.263  2.2577  0.7464  2.4710
  394MOL0     H53179   4.399   2.565   7.140  0.3781  0.3368  0.4698
  394MOL0     H53180   4.170   2.472   7.300  0.8324 -0.7348 -1.7815
  394MOL0     H53181   4.156   2.596   7.170 -3.1731  1.8862  1.6683
  394MOL0     H53182   4.219   2.761   7.365  3.6202 -1.5515 -0.4623
  394MOL0     H53183   4.206   2.612   7.472 -0.2809  0.0830 -0.1514
  394MOL0     H53184   4.012   2.758   7.466 -2.0087  2.3835 -2.6721
  394MOL0     H53185   3.979   2.712   7.302 -4.2785 -1.4732  1.3273
  394MOL0     H53186   3.833   2.398   7.555 -1.2627  2.0672  1.0843
  394MOL0     H53187   4.573   2.667   7.546  0.3897  1.2204  1.1888
  394MOL0     H53188   4.893   2.765   7.599 -1.6375  1.2445  0.8116
  394MOL0     H53189   4.726   2.737   7.663 -0.9696 -2.6353  2.6048
  394MOL0     H53190   4.853   2.618   7.691 -1.8295 -0.3832  0.6198
  395MOL0     O53191   8.321   0.076   2.297 -0.5503  0.2123  0.1487
  395MOL0     C53192   8.330   0.184   2.262 -0.7965 -0.2140  0.7928
  395MOL0     O53193   8.437   0.264   2.276 -0.1516 -0.1512  0.0658
  395MOL0     C53194   8.569   0.226   2.276 -0.2421  0.0762 -0.0695
  395MOL0     C53195   8.648   0.287   2.375 -0.1714  0.1942 -0.7711
  395MOL0     C53196   8.789   0.264   2.391  0.2033 -0.3570  0.5043
  395MOL0     C53197   8.840   0.155   2.320  0.3290  0.3931  0.3566
  395MOL0     O53198   8.971   0.123   2.315 -0.0361  0.5607 -0.5124
  395MOL0     C53199   9.070   0.201   2.373 -0.0545 -0.3428  0.7554
  395MOL0     C53200   9.200   0.132   2.349 -0.0784 -0.0741  0.3580
  395MOL0     C53201   9.314   0.236   2.365 -0.6493  1.3580 -0.5707
  395MOL0     C53202   9.451   0.159   2.366  0.2818 -0.0146 -0.8558
  395MOL0     C53203   9.560   0.257   2.329  0.0738 -1.1891  0.5465
  395MOL0     C53204   9.699   0.202   2.342 -0.4655  0.4065 -0.3960
  395MOL0     C53205   9.802   0.300   2.281  0.2892 -0.5549  0.0410
  395MOL0     C53206   9.946   0.259   2.323  0.5936 -0.0582 -0.1388
  395MOL0     N53207  10.041   0.276   2.208  0.1588  0.1745 -0.2157
  395MOL0     C53208  10.082   0.177   2.130 -0.3287 -0.4430  0.8858
  395MOL0     C53209  10.172   0.233   2.049 -0.0927  0.1149  1.2039
  395MOL0     C53210  10.261   0.168   1.945  0.3341  0.5770  0.2005
  395MOL0     C53211  10.394   0.127   2.004 -0.1599 -0.0655  1.1214
  395MOL0     C53212  10.478   0.084   1.886 -0.4199 -0.7560 -0.4034
  395MOL0     C53213  10.629   0.059   1.922 -1.1806  0.1913  0.2863
  395MOL0     O53214  10.694   0.183   1.962  0.1948  0.1501 -0.1312
  395MOL0     C53215  10.826   0.181   1.976 -0.0930 -0.4769 -0.6316
  395MOL0     C53216  10.891   0.288   1.928 -0.8267  0.1459  0.2681
  395MOL0     C53217  11.030   0.286   1.926 -0.0087 -0.5691 -0.0715
  395MOL0     C53218  11.106   0.180   1.990 -0.2114  1.0042 -0.4262
  395MOL0     C53219  11.250   0.182   2.007 -0.8220 -0.1300 -0.2891
  395MOL0     O53220  11.313   0.299   1.973  0.2858  0.3491 -0.0123
  395MOL0     C53221  11.441   0.289   1.933 -0.9393 -0.2496  0.7009
  395MOL0     C53222  11.548   0.293   2.021  0.0538  0.5834  0.1989
  395MOL0     C53223  11.683   0.302   1.981  0.6533 -0.6474 -0.2448
  395MOL0     C53224  11.712   0.300   1.845 -0.1981 -0.2406 -0.5710
  395MOL0     O53225  11.838   0.308   1.802 -0.8777  0.3700  0.1643
  395MOL0     C53226  11.883   0.241   1.681  1.1252  0.3692 -0.7971
  395MOL0     C53227  12.037   0.247   1.684 -0.2742 -0.0584 -1.5954
  395MOL0     C53228  12.122   0.151   1.590  0.5219  0.7006  0.2068
  395MOL0     C53229  12.135   0.222   1.462  0.2504  0.6150  0.0497
  395MOL0     C53230  12.194   0.134   1.352 -0.3557  0.5768  0.6303
  395MOL0     C53231  12.086   0.047   1.296 -0.2595  0.2697 -0.4735
  395MOL0     C53232  12.134  -0.016   1.170  0.2785  0.9086 -0.5020
  395MOL0     C53233  12.056  -0.139   1.127 -0.3645  0.1387  0.2767
  395MOL0    Cl53234  11.886  -0.098   1.107  0.5266 -0.1406  0.2942
  395MOL0     C53235  11.607   0.316   1.752 -0.4500  0.7608  0.1133
  395MOL0     C53236  11.473   0.310   1.795  0.3695  0.9915 -0.4712
  395MOL0     O53237  11.316   0.083   2.044  0.0532  0.0765  0.0431
  395MOL0     C53238  11.036   0.071   2.035  0.2182 -0.0854 -0.0028
  395MOL0     C53239  10.892   0.068   2.031 -0.5388 -0.0262 -0.8152
  395MOL0     N53240  10.190   0.368   2.091 -0.0860 -0.4838 -0.1533
  395MOL0     N53241  10.109   0.390   2.184 -0.6726 -0.0377  0.0640
  395MOL0     C53242   8.761   0.081   2.226  0.3590 -0.0059  0.4570
  395MOL0     C53243   8.628   0.112   2.203 -0.7677 -0.4130  0.3642
  395MOL0     C53244   8.202   0.256   2.215  0.3664 -0.6201  0.4891
  395MOL0     C53245   8.086   0.193   2.262  0.4791  0.3273  1.1665
  395MOL0     C53246   7.957   0.248   2.224 -0.0039 -0.6088 -0.3769
  395MOL0     C53247   7.951   0.349   2.127 -0.2041 -0.1906 -0.3095
  395MOL0     O53248   7.844   0.409   2.072  0.1520  0.2080  0.1711
  395MOL0     C53249   7.710   0.343   2.098 -0.0200 -0.4695 -0.3403
  395MOL0     C53250   7.607   0.430   2.041 -0.0291 -0.8289  0.9515
  395MOL0     C53251   7.473   0.354   2.064 -0.0745 -0.3324  0.2019
  395MOL0     C53252   7.355   0.441   2.008  0.9348 -0.1873  0.4264
  395MOL0     C53253   7.337   0.558   2.087 -0.1080  0.5526 -0.4912
  395MOL0     C53254   7.336   0.663   2.136 -0.0591 -0.3229 -0.0431
  395MOL0     C53255   8.070   0.401   2.082 -0.2570 -0.0649  0.4324
  395MOL0     C53256   8.192   0.365   2.126 -0.4858  0.4475  0.3716
  395MOL0     C53257   8.306   0.465   2.107 -0.2657  0.2688 -0.0754
  395MOL0     H53258   8.601   0.358   2.441  0.4063 -0.1949  0.0731
  395MOL0     H53259   8.848   0.318   2.464  0.2422 -0.8442  0.8405
  395MOL0     H53260   9.067   0.304   2.336  2.5211 -1.0976 -1.9428
  395MOL0     H53261   9.058   0.199   2.482 -0.2943  0.8394  0.7618
  395MOL0     H53262   9.193   0.095   2.247  0.4549  1.4685 -0.2674
  395MOL0     H53263   9.216   0.061   2.431 -0.1607  0.1052  0.5325
  395MOL0     H53264   9.300   0.284   2.462 -1.4722 -1.1517  0.6299
  395MOL0     H53265   9.313   0.313   2.287 -0.4447  1.3837 -0.5498
  395MOL0     H53266   9.464   0.109   2.462 -2.3545  1.0372  0.1336
  395MOL0     H53267   9.441   0.079   2.292 -0.2605  0.3235 -1.1506
  395MOL0     H53268   9.549   0.284   2.223 -0.4155 -0.5229  0.7630
  395MOL0     H53269   9.562   0.350   2.386  0.7934 -0.0224 -1.2868
  395MOL0     H53270   9.717   0.186   2.449 -1.6816  1.6453  0.0296
  395MOL0     H53271   9.712   0.106   2.292  2.5463  1.3403 -1.6206
  395MOL0     H53272   9.772   0.401   2.307 -0.5856 -0.5115 -1.0470
  395MOL0     H53273   9.792   0.291   2.172  0.1034  0.3400 -0.0175
  395MOL0     H53274   9.984   0.302   2.416 -0.9261 -1.8009  1.3751
  395MOL0     H53275   9.948   0.151   2.341  3.8820  0.2645  2.2287
  395MOL0     H53276  10.044   0.075   2.134  0.1030 -0.6360  0.2166
  395MOL0     H53277  10.207   0.084   1.900 -0.0844  0.0844  1.5690
  395MOL0     H53278  10.274   0.236   1.860  1.3541 -0.1723 -0.2746
  395MOL0     H53279  10.452   0.206   2.054  2.1604 -0.6192 -0.5712
  395MOL0     H53280  10.383   0.038   2.066  0.0795 -1.2613 -0.4948
  395MOL0     H53281  10.473   0.163   1.811 -0.4553  0.8063  1.1619
  395MOL0     H53282  10.432  -0.009   1.852 -3.2794  0.2143  0.5536
  395MOL0     H53283  10.685   0.015   1.839  0.5928 -0.8619  1.9802
  395MOL0     H53284  10.636  -0.005   2.010  1.7644  1.4787  1.1311
  395MOL0     H53285  10.840   0.378   1.895  1.3498  0.8696 -1.3995
  395MOL0     H53286  11.079   0.373   1.885  0.0054  0.0374  1.2034
  395MOL0     H53287  11.523   0.293   2.127 -0.6505  1.7243  0.0453
  395MOL0     H53288  11.756   0.322   2.058 -1.4168 -0.9116  1.9213
  395MOL0     H53289  11.846   0.138   1.687 -4.2753  2.0142  0.0352
  395MOL0     H53290  11.848   0.298   1.595 -0.5690  1.7167  0.7041
  395MOL0     H53291  12.060   0.353   1.666 -0.0277 -0.0035 -0.9687
  395MOL0     H53292  12.064   0.227   1.788 -0.9405  3.2426 -0.6655
  395MOL0     H53293  12.218   0.130   1.638  1.3790  0.4455 -1.5481
  395MOL0     H53294  12.063   0.059   1.582  2.2649 -0.4161 -0.1768
  395MOL0     H53295  12.202   0.309   1.470  2.0441 -0.7132  0.0540
  395MOL0     H53296  12.037   0.258   1.429  0.6975  0.3000 -1.7199
  395MOL0     H53297  12.281   0.082   1.394 -0.6633  0.7224  1.4525
  395MOL0     H53298  12.235   0.188   1.266 -0.5963 -0.9717 -0.5010
  395MOL0     H53299  12.072  -0.027   1.376 -1.3437 -1.4910 -2.1785
  395MOL0     H53300  11.995   0.105   1.281  0.2468  1.1740 -0.1496
  395MOL0     H53301  12.232  -0.059   1.192  0.1180 -0.0485 -1.5334
  395MOL0     H53302  12.136   0.067   1.100 -0.2644  3.0048  1.8343
  395MOL0     H53303  12.090  -0.190   1.037 -0.5076 -1.4080  1.0661
  395MOL0     H53304  12.056  -0.209   1.212  0.9217  0.2302  0.3748
  395MOL0     H53305  11.631   0.334   1.648  1.2815  0.2054  0.3786
  395MOL0     H53306  11.393   0.301   1.722 -2.1180  0.4857  2.1165
  395MOL0     H53307  11.086  -0.016   2.077 -0.3729 -1.2144 -1.5200
  395MOL0     H53308  10.845  -0.023   2.068  1.8502 -1.4001 -0.9587
  395MOL0     H53309   8.810  -0.001   2.176  0.0674 -0.1822  0.4606
  395MOL0     H53310   8.569   0.053   2.134 -1.3092 -0.1763  0.6209
  395MOL0     H53311   8.094   0.097   2.312  1.1767 -0.8604 -1.1012
  395MOL0     H53312   7.863   0.206   2.258  1.9608 -1.8763  4.1564
  395MOL0     H53313   7.699   0.324   2.206  1.6371 -2.6944 -0.4914
  395MOL0     H53314   7.707   0.246   2.047  0.2573 -0.0998 -1.0670
  395MOL0     H53315   7.630   0.442   1.935  2.0743 -0.9596  1.3512
  395MOL0     H53316   7.616   0.531   2.084  3.1060 -0.9112  0.6625
  395MOL0     H53317   7.465   0.347   2.173 -1.7768  1.2315  0.2408
  395MOL0     H53318   7.488   0.255   2.020  1.4618 -0.3557  0.7257
  395MOL0     H53319   7.369   0.475   1.905  0.3556  2.3768  1.1357
  395MOL0     H53320   7.265   0.379   2.004  0.4440  0.5895 -0.7536
  395MOL0     H53321   7.338   0.751   2.198  2.1581 -1.7089  2.0228
  395MOL0     H53322   8.056   0.485   2.015  1.5909  1.3858  1.7417
  395MOL0     H53323   8.310   0.551   2.174  2.6322  1.5434 -1.7302
  395MOL0     H53324   8.403   0.416   2.114  0.9221  2.6162  1.1227
  395MOL0     H53325   8.295   0.503   2.005 -2.2817 -0.4202 -0.1730
  396MOL0     O53326   5.878   6.387   5.243 -0.8045 -0.0823 -0.1250
  396MOL0     C53327   5.961   6.341   5.325  0.4204 -0.2381  0.6125
  396MOL0     O53328   5.919   6.278   5.439 -0.6459  0.7985 -0.0607
  396MOL0     C53329   5.787   6.280   5.473 -0.9616  0.5395 -0.2199
  396MOL0     C53330   5.692   6.226   5.399  0.3131  0.4939  0.4264
  396MOL0     C53331   5.556   6.214   5.445 -0.2530  0.8695  0.3231
  396MOL0     C53332   5.517   6.256   5.577 -0.0372  1.2124 -0.4682
  396MOL0     O53333   5.395   6.236   5.630  0.0239  0.9808  0.2132
  396MOL0     C53334   5.359   6.231   5.770  0.7862  0.2220  0.4347
  396MOL0     C53335   5.217   6.169   5.782  0.3173  0.8857 -0.9865
  396MOL0     C53336   5.157   6.173   5.925  0.2121  0.6098 -0.3043
  396MOL0     C53337   5.140   6.315   5.989 -0.1515  0.5890  0.0211
  396MOL0     C53338   5.056   6.326   6.119  0.5945 -0.9714 -0.3361
  396MOL0     C53339   5.105   6.233   6.232 -1.0406  1.4221  0.6064
  396MOL0     C53340   5.253   6.257   6.262 -0.3139 -0.0849 -0.6064
  396MOL0     C53341   5.301   6.236   6.419  0.1605  0.2403  0.1699
  396MOL0     N53342   5.441   6.282   6.429  0.3117  0.4229 -0.1916
  396MOL0     C53343   5.509   6.282   6.549  0.0345 -0.6102 -0.5338
  396MOL0     C53344   5.622   6.356   6.519 -0.0990  0.1980 -0.3083
  396MOL0     C53345   5.706   6.397   6.630  0.0171  0.1483 -0.9696
  396MOL0     C53346   5.805   6.514   6.591  0.1093  0.2232  0.6052
  396MOL0     C53347   5.884   6.576   6.714  0.5894  0.4964  0.4162
  396MOL0     C53348   6.024   6.622   6.683  0.0412 -0.0896  0.2126
  396MOL0     O53349   6.086   6.668   6.797 -0.1024  0.2364 -0.0189
  396MOL0     C53350   6.219   6.707   6.783 -0.0322 -0.6238 -0.0518
  396MOL0     C53351   6.296   6.685   6.670  0.0856  0.3059  0.0019
  396MOL0     C53352   6.426   6.724   6.663 -0.5371 -0.2952 -0.3265
  396MOL0     C53353   6.482   6.793   6.770 -0.4110  0.6092 -0.4295
  396MOL0     C53354   6.615   6.857   6.761  0.2551 -0.3203 -0.1106
  396MOL0     O53355   6.659   6.925   6.866  0.0105 -0.3434 -0.2276
  396MOL0     C53356   6.767   7.016   6.876 -0.1618  0.3444 -0.1152
  396MOL0     C53357   6.796   7.066   7.004 -0.1990 -0.0126  0.1145
  396MOL0     C53358   6.878   7.176   7.009 -0.2664 -0.1139 -0.0506
  396MOL0     C53359   6.951   7.227   6.893  0.2476  0.7225  0.5367
  396MOL0     O53360   7.030   7.331   6.921 -0.1369 -0.5392 -0.1002
  396MOL0     C53361   7.045   7.443   6.831 -0.2487 -1.0375 -0.3650
  396MOL0     C53362   7.162   7.519   6.889 -0.0732 -0.3476  0.4202
  396MOL0     C53363   7.132   7.578   7.025 -0.3407 -0.1000  0.1404
  396MOL0     C53364   7.237   7.677   7.073 -0.2021 -0.2298 -0.2063
  396MOL0     C53365   7.207   7.746   7.210 -0.0063  0.2421 -0.8619
  396MOL0     C53366   7.317   7.839   7.262 -0.6959  0.6166  0.0313
  396MOL0     C53367   7.340   7.964   7.165 -0.0235  0.6065 -0.5232
  396MOL0     C53368   7.388   8.089   7.240  0.0891  0.0393  0.3907
  396MOL0    Cl53369   7.536   8.045   7.336  0.2757  0.1334 -0.0175
  396MOL0     C53370   6.923   7.174   6.769 -0.0939  0.4083  0.9053
  396MOL0     C53371   6.823   7.078   6.761 -0.8081  0.7968 -1.2295
  396MOL0     O53372   6.675   6.837   6.660  0.7842  0.1319  0.0842
  396MOL0     C53373   6.413   6.797   6.892  0.3833 -0.7150  0.2492
  396MOL0     C53374   6.290   6.748   6.902 -0.7262 -0.1380  0.1950
  396MOL0     N53375   5.617   6.383   6.383 -0.3909 -0.2917  0.2170
  396MOL0     N53376   5.510   6.344   6.331  0.4450 -0.0870  0.1853
  396MOL0     C53377   5.625   6.297   5.656 -0.6799  0.4806  0.0334
  396MOL0     C53378   5.753   6.311   5.606 -0.3453 -0.4904 -0.1473
  396MOL0     C53379   6.104   6.350   5.290  0.3264 -0.2323 -0.6346
  396MOL0     C53380   6.149   6.347   5.158 -0.8334 -0.1142  0.2516
  396MOL0     C53381   6.283   6.364   5.123  0.0172 -0.0502 -0.2611
  396MOL0     C53382   6.376   6.375   5.225  0.7272 -0.5337  0.2401
  396MOL0     O53383   6.513   6.389   5.202  0.0920 -0.5614 -0.4872
  396MOL0     C53384   6.614   6.379   5.299 -0.0020 -0.9828  0.1072
  396MOL0     C53385   6.633   6.236   5.360 -0.3643 -0.6420  0.2412
  396MOL0     C53386   6.775   6.212   5.425  0.2888  0.7870 -0.5904
  396MOL0     C53387   6.782   6.068   5.464  0.4524 -0.5506 -0.7630
  396MOL0     C53388   6.912   6.025   5.495  0.1289 -0.3953 -0.9046
  396MOL0     C53389   7.028   5.998   5.526 -0.8096 -0.2241  0.0453
  396MOL0     C53390   6.333   6.369   5.358  0.1487 -0.5228  0.8308
  396MOL0     C53391   6.198   6.360   5.392  0.2249 -0.2904  0.0930
  396MOL0     C53392   6.167   6.385   5.535  0.4112 -0.7579 -0.0865
  396MOL0     H53393   5.723   6.184   5.304  1.8237 -2.2091  1.9773
  396MOL0     H53394   5.483   6.176   5.375  1.6514 -1.7845 -0.3947
  396MOL0     H53395   5.434   6.183   5.833  0.2606  1.0695  1.7488
  396MOL0     H53396   5.354   6.334   5.807 -0.4777 -0.4240  2.2187
  396MOL0     H53397   5.222   6.065   5.749 -0.3015 -0.0683  1.6218
  396MOL0     H53398   5.152   6.224   5.714 -2.6029 -0.5765  0.4077
  396MOL0     H53399   5.213   6.106   5.991  0.7644  1.4608  0.0936
  396MOL0     H53400   5.054   6.136   5.914 -0.6120  2.6698  0.1049
  396MOL0     H53401   5.237   6.353   6.022 -1.5202  1.0637  3.9594
  396MOL0     H53402   5.107   6.389   5.915 -1.6904  2.8718  2.8042
  396MOL0     H53403   5.039   6.428   6.156  0.7817 -2.1725  3.4739
  396MOL0     H53404   4.955   6.297   6.087  1.3841 -1.3140 -2.7017
  396MOL0     H53405   5.041   6.255   6.318 -0.6968 -0.9420  1.5681
  396MOL0     H53406   5.073   6.129   6.218 -0.0964  0.7193  3.1684
  396MOL0     H53407   5.267   6.362   6.236 -0.6698 -0.5776 -3.0164
  396MOL0     H53408   5.315   6.200   6.193  0.0129  0.0318 -0.4085
  396MOL0     H53409   5.244   6.310   6.476 -1.4464 -0.1938 -0.7982
  396MOL0     H53410   5.292   6.132   6.452  2.3517  0.1825  0.6759
  396MOL0     H53411   5.473   6.246   6.644  0.0927 -0.7702 -0.5717
  396MOL0     H53412   5.637   6.424   6.711  0.2756  1.1871 -1.0747
  396MOL0     H53413   5.765   6.311   6.662  0.6731  0.4461 -1.3599
  396MOL0     H53414   5.869   6.465   6.518 -3.1529 -3.2870 -0.1983
  396MOL0     H53415   5.750   6.600   6.551  1.3489  0.6093 -0.3012
  396MOL0     H53416   5.897   6.494   6.786  0.3672  0.6195  0.5977
  396MOL0     H53417   5.821   6.654   6.757 -1.5163 -0.7747 -0.2411
  396MOL0     H53418   6.009   6.695   6.603 -3.1552 -1.4879 -0.6414
  396MOL0     H53419   6.087   6.538   6.653  1.9930  0.7677  1.7233
  396MOL0     H53420   6.245   6.663   6.576 -1.9617  1.6949  0.7128
  396MOL0     H53421   6.476   6.721   6.566 -1.4489 -1.4884 -0.7768
  396MOL0     H53422   6.739   7.024   7.086 -2.6551  1.0954 -0.9377
  396MOL0     H53423   6.897   7.230   7.101 -2.3410  2.0596 -0.7826
  396MOL0     H53424   7.072   7.416   6.729  0.2242  0.1735 -0.5734
  396MOL0     H53425   6.960   7.512   6.837  0.6264 -0.0385  1.0760
  396MOL0     H53426   7.251   7.455   6.897  3.5453  3.8158 -2.0835
  396MOL0     H53427   7.181   7.604   6.823  1.2485 -0.6199  0.4245
  396MOL0     H53428   7.041   7.637   7.015  0.1894  0.9307  1.1810
  396MOL0     H53429   7.116   7.494   7.094 -0.4596  0.6267  1.0142
  396MOL0     H53430   7.242   7.761   7.003 -1.0214 -0.9146 -1.1106
  396MOL0     H53431   7.336   7.631   7.077  1.1128  2.0142 -3.1765
  396MOL0     H53432   7.196   7.673   7.291 -0.9732  0.7287 -0.5352
  396MOL0     H53433   7.110   7.796   7.201 -0.9016 -0.9635  1.3762
  396MOL0     H53434   7.287   7.868   7.363 -0.0583 -0.9883  0.7000
  396MOL0     H53435   7.412   7.785   7.266 -0.4948  0.9243 -0.5166
  396MOL0     H53436   7.246   7.987   7.115 -0.2876 -1.4482 -1.0585
  396MOL0     H53437   7.411   7.949   7.084  1.4402  2.3846  0.3490
  396MOL0     H53438   7.412   8.168   7.169  1.1596 -0.6529 -0.0487
  396MOL0     H53439   7.310   8.123   7.309  0.6166 -1.1536  1.6262
  396MOL0     H53440   6.973   7.197   6.675 -1.0147 -0.5915  0.1483
  396MOL0     H53441   6.808   7.039   6.661 -0.3974 -0.7643 -0.7069
  396MOL0     H53442   6.459   6.841   6.979 -0.0658  0.9875 -0.3289
  396MOL0     H53443   6.235   6.760   6.995 -2.6369 -0.0029 -0.8831
  396MOL0     H53444   5.600   6.337   5.754 -0.3891 -2.3721  1.3574
  396MOL0     H53445   5.833   6.352   5.667 -0.0139 -2.9921  1.2481
  396MOL0     H53446   6.073   6.346   5.080 -0.7805 -0.0558  0.1986
  396MOL0     H53447   6.322   6.374   5.022 -1.0377  2.0305 -0.5024
  396MOL0     H53448   6.610   6.460   5.373  0.2135 -3.0625  2.5428
  396MOL0     H53449   6.704   6.410   5.245 -0.9549  3.4225  0.6368
  396MOL0     H53450   6.617   6.159   5.284  2.4528  2.1608 -3.5727
  396MOL0     H53451   6.564   6.221   5.444 -1.4976  2.5574  0.0297
  396MOL0     H53452   6.773   6.280   5.510  3.2269 -2.9768  2.9112
  396MOL0     H53453   6.863   6.242   5.367 -0.0192 -0.0504 -1.5207
  396MOL0     H53454   6.720   6.054   5.553  0.1161  0.1223 -0.8809
  396MOL0     H53455   6.747   6.010   5.378  2.2960 -0.4377 -1.6374
  396MOL0     H53456   7.127   5.973   5.558 -1.1782  1.5165  2.8381
  396MOL0     H53457   6.400   6.352   5.442  0.2931 -3.6204  0.2149
  396MOL0     H53458   6.106   6.476   5.541  1.4949  0.1912 -2.3684
  396MOL0     H53459   6.107   6.302   5.574 -0.4174 -1.0692 -1.8903
  396MOL0     H53460   6.256   6.401   5.597 -1.3044 -0.8731  2.5741
  397MOL0     O53461   9.913  10.813   3.690  0.3588  0.3421 -0.4922
  397MOL0     C53462   9.854  10.835   3.798  1.1152  0.8462  0.3423
  397MOL0     O53463   9.876  10.762   3.913 -0.9367  0.5907  0.4903
  397MOL0     C53464   9.990  10.680   3.903  1.0118  0.6138 -0.4041
  397MOL0     C53465   9.977  10.544   3.920 -0.0494 -0.6806  0.2693
  397MOL0     C53466  10.090  10.464   3.913  0.0783  0.4973  0.2737
  397MOL0     C53467  10.216  10.514   3.928  0.5636  0.6227  0.0545
  397MOL0     O53468  10.320  10.425   3.943  0.0078  0.3692  0.3064
  397MOL0     C53469  10.456  10.481   3.932  0.7036  0.3315 -0.6316
  397MOL0     C53470  10.557  10.363   3.923  0.2086 -0.1739  0.2658
  397MOL0     C53471  10.698  10.427   3.928 -1.0556 -0.3102 -0.1321
  397MOL0     C53472  10.804  10.313   3.892  0.6750 -0.1251  0.6107
  397MOL0     C53473  10.937  10.366   3.857  0.4944  0.2202  0.0833
  397MOL0     C53474  11.035  10.251   3.834  0.3581 -0.1408 -0.1329
  397MOL0     C53475  11.164  10.297   3.770  0.6121 -0.0726 -0.0751
  397MOL0     C53476  11.266  10.186   3.754 -0.6021 -0.0283  0.0344
  397MOL0     N53477  11.400  10.240   3.719 -0.5544  0.5822  0.2713
  397MOL0     C53478  11.433  10.351   3.644 -0.1851  0.4312 -0.0892
  397MOL0     C53479  11.567  10.346   3.649 -0.1329  0.0140  0.3202
  397MOL0     C53480  11.650  10.426   3.557  0.4403  0.6746 -1.0829
  397MOL0     C53481  11.670  10.382   3.410 -0.3478 -0.0840 -0.6150
  397MOL0     C53482  11.717  10.234   3.398 -0.2259 -0.6183  0.3466
  397MOL0     C53483  11.853  10.215   3.455 -0.3324 -0.1879  0.0757
  397MOL0     O53484  11.948  10.304   3.384 -0.6932  1.1549 -1.0526
  397MOL0     C53485  12.053  10.233   3.324 -1.5544 -0.1247  0.4784
  397MOL0     C53486  12.188  10.287   3.337 -0.0962 -0.9131  0.1951
  397MOL0     C53487  12.298  10.224   3.282 -1.0361 -0.7093 -0.5040
  397MOL0     C53488  12.290  10.107   3.216  1.1386 -1.2457  0.4903
  397MOL0     C53489  12.409  10.026   3.174  0.2023 -0.1015  0.1048
  397MOL0     O53490  12.530  10.071   3.222  0.4820 -0.1050  0.5929
  397MOL0     C53491  12.652  10.009   3.203  0.0925 -0.4369  0.0760
  397MOL0     C53492  12.752  10.074   3.276 -0.4441 -0.2561 -0.1298
  397MOL0     C53493  12.881  10.022   3.282 -0.2566  0.5808 -0.2383
  397MOL0     C53494  12.912   9.903   3.209 -0.3485  0.0759 -0.1971
  397MOL0     O53495  13.037   9.849   3.199 -0.3316  0.4901 -0.1436
  397MOL0     C53496  13.147   9.941   3.204  0.3966  1.0604 -0.4471
  397MOL0     C53497  13.271   9.864   3.153 -0.1263 -0.7031 -0.4611
  397MOL0     C53498  13.394   9.950   3.164 -0.5040 -0.8060  0.0155
  397MOL0     C53499  13.522   9.875   3.117  0.0908 -0.1209 -0.7727
  397MOL0     C53500  13.641   9.952   3.172  0.6202 -0.1602 -0.4844
  397MOL0     C53501  13.765   9.871   3.146  0.7068 -0.1502 -0.0617
  397MOL0     C53502  13.899   9.913   3.206 -0.3335 -0.7601  0.0736
  397MOL0     C53503  13.948  10.050   3.154  0.9323 -0.1366 -1.1464
  397MOL0    Cl53504  13.872  10.187   3.250 -0.0783  0.5934  0.0022
  397MOL0     C53505  12.812   9.843   3.129  0.6324 -0.5660  0.0366
  397MOL0     C53506  12.683   9.897   3.118 -0.1376 -0.3873 -0.4613
  397MOL0     O53507  12.398   9.929   3.096 -0.0023 -0.2467  0.3895
  397MOL0     C53508  12.161  10.059   3.210 -0.2075 -0.0101 -0.0112
  397MOL0     C53509  12.045  10.118   3.255 -0.6114 -0.3464  0.2632
  397MOL0     N53510  11.615  10.238   3.714  0.2007  0.2260  0.4007
  397MOL0     N53511  11.513  10.170   3.749  0.0165  0.5507 -0.6487
  397MOL0     C53512  10.233  10.653   3.926  0.0044 -0.3963  0.3495
  397MOL0     C53513  10.120  10.732   3.903  0.7301  0.3732  0.7166
  397MOL0     C53514   9.749  10.944   3.796  0.4481  0.5226 -0.8465
  397MOL0     C53515   9.707  10.986   3.917  0.0144  0.2513  0.4863
  397MOL0     C53516   9.613  11.087   3.939  0.4133  0.3684  1.0075
  397MOL0     C53517   9.561  11.165   3.839 -0.0226  0.1244 -0.3983
  397MOL0     O53518   9.459  11.264   3.859 -0.8021 -0.4654  0.2528
  397MOL0     C53519   9.461  11.375   3.771  0.2128 -0.7057 -0.0800
  397MOL0     C53520   9.402  11.488   3.854 -0.3284 -0.5941  0.1896
  397MOL0     C53521   9.388  11.625   3.783  0.5462  0.3591 -0.2458
  397MOL0     C53522   9.280  11.712   3.853 -0.2785  0.0013 -0.4380
  397MOL0     C53523   9.287  11.854   3.803  0.6378  0.6573 -0.4024
  397MOL0     C53524   9.281  11.961   3.753  0.2548 -0.4924  0.4879
  397MOL0     C53525   9.595  11.116   3.706 -0.4974  0.3519  0.4168
  397MOL0     C53526   9.692  11.007   3.683 -0.4989 -0.0693 -0.1411
  397MOL0     C53527   9.717  10.963   3.534  0.7056 -0.2085 -0.1367
  397MOL0     H53528   9.875  10.506   3.916  0.2347 -1.4759  0.2442
  397MOL0     H53529  10.065  10.358   3.916 -1.4974  0.8583  0.6896
  397MOL0     H53530  10.474  10.546   3.845  1.6974  1.8673  0.6627
  397MOL0     H53531  10.483  10.541   4.019  1.7847 -1.6396  0.4604
  397MOL0     H53532  10.521  10.333   3.824 -1.2843 -1.3020  1.1095
  397MOL0     H53533  10.542  10.291   4.004 -1.5447  0.3466  0.4344
  397MOL0     H53534  10.718  10.460   4.031 -1.5085 -2.5214  0.7191
  397MOL0     H53535  10.704  10.504   3.851  0.1129 -0.2012  0.0521
  397MOL0     H53536  10.813  10.243   3.976  3.2360 -2.0872 -1.1347
  397MOL0     H53537  10.778  10.262   3.799  1.5691  1.3403 -0.4650
  397MOL0     H53538  10.928  10.418   3.761 -1.8570 -1.3513 -0.6487
  397MOL0     H53539  10.979  10.434   3.932 -0.8397  0.9746  0.1846
  397MOL0     H53540  11.061  10.206   3.930  2.6601  0.6113 -0.3329
  397MOL0     H53541  10.992  10.184   3.759 -2.0554  2.1245 -0.9014
  397MOL0     H53542  11.205  10.378   3.831 -2.3636  3.0005 -1.7575
  397MOL0     H53543  11.146  10.335   3.669 -0.7582  0.0623  0.2006
  397MOL0     H53544  11.269  10.129   3.847  1.3072 -0.3124 -0.1696
  397MOL0     H53545  11.227  10.119   3.677 -2.5445  0.5037  0.4844
  397MOL0     H53546  11.366  10.416   3.588  0.5874 -0.8603 -2.6656
  397MOL0     H53547  11.598  10.522   3.553  1.2951  1.1316 -1.2708
  397MOL0     H53548  11.749  10.440   3.601 -0.5116  2.0984  0.7779
  397MOL0     H53549  11.581  10.396   3.347  0.0500  0.2832 -1.0957
  397MOL0     H53550  11.742  10.445   3.358  0.2897 -1.5999 -1.6473
  397MOL0     H53551  11.730  10.208   3.293  1.3231 -2.3062  0.9033
  397MOL0     H53552  11.648  10.157   3.436 -0.6429 -0.4105  0.0211
  397MOL0     H53553  11.892  10.113   3.463  3.9720  1.1850 -0.3740
  397MOL0     H53554  11.849  10.254   3.558  0.1665 -1.3954  0.5700
  397MOL0     H53555  12.200  10.372   3.403 -0.6970 -1.0371  0.4698
  397MOL0     H53556  12.394  10.266   3.311 -0.8163 -2.4541  1.5211
  397MOL0     H53557  12.721  10.162   3.330 -2.1005 -0.9142  0.0574
  397MOL0     H53558  12.965  10.056   3.342 -0.0386 -3.4545  2.1275
  397MOL0     H53559  13.122  10.022   3.135 -2.9909  0.3284 -0.2732
  397MOL0     H53560  13.150   9.965   3.311 -0.9816 -0.8794  0.0788
  397MOL0     H53561  13.275   9.784   3.228 -0.0245  2.5411  3.3803
  397MOL0     H53562  13.261   9.834   3.049 -2.5648  1.5275 -0.9569
  397MOL0     H53563  13.393  10.042   3.106  0.6716 -1.0562 -0.4214
  397MOL0     H53564  13.402   9.978   3.270 -1.3078 -2.3449  0.5326
  397MOL0     H53565  13.516   9.867   3.009 -2.3634  3.2238 -1.0129
  397MOL0     H53566  13.533   9.775   3.160  0.7923 -0.6344 -2.1146
  397MOL0     H53567  13.631   9.962   3.281 -1.5345 -0.8071 -0.5640
  397MOL0     H53568  13.637  10.045   3.116 -0.2775 -0.0542 -0.2655
  397MOL0     H53569  13.748   9.771   3.185  0.1190 -0.2117 -0.4563
  397MOL0     H53570  13.784   9.864   3.038  2.2490  1.4950  0.0478
  397MOL0     H53571  13.976   9.842   3.176  2.8287  1.1624  2.9891
  397MOL0     H53572  13.897   9.911   3.315  0.7097 -2.3004  0.0877
  397MOL0     H53573  14.057  10.055   3.153  1.0080 -1.5076 -1.2655
  397MOL0     H53574  13.909  10.056   3.052 -1.9321 -1.6987 -0.2544
  397MOL0     H53575  12.839   9.750   3.081 -1.9949 -0.9867 -0.7513
  397MOL0     H53576  12.616   9.853   3.045 -2.2393  0.6279  0.7628
  397MOL0     H53577  12.153   9.959   3.170 -1.1013  0.7352 -1.7836
  397MOL0     H53578  11.951  10.064   3.253 -0.9825 -0.3634  5.2358
  397MOL0     H53579  10.326  10.710   3.927 -0.3046  0.1014  1.9780
  397MOL0     H53580  10.145  10.834   3.878  0.8525  0.0686 -0.5119
  397MOL0     H53581   9.749  10.940   4.006 -0.3492 -4.5067 -1.4667
  397MOL0     H53582   9.571  11.117   4.034 -1.6951  3.3770 -0.7207
  397MOL0     H53583   9.402  11.368   3.680  2.0750 -2.2427 -1.2503
  397MOL0     H53584   9.567  11.398   3.753  0.1098  1.9533  2.0750
  397MOL0     H53585   9.452  11.508   3.949 -1.9229 -1.2161  1.1997
  397MOL0     H53586   9.302  11.457   3.884 -0.0338 -2.4913 -0.6057
  397MOL0     H53587   9.354  11.602   3.682 -0.1480  0.2171  0.0198
  397MOL0     H53588   9.484  11.677   3.768  0.6697 -0.4247 -2.7079
  397MOL0     H53589   9.180  11.681   3.822 -1.0491 -0.1941  2.0221
  397MOL0     H53590   9.273  11.719   3.962 -2.4849  2.6364 -0.6308
  397MOL0     H53591   9.266  12.056   3.706 -2.0550 -0.3424  1.4244
  397MOL0     H53592   9.543  11.161   3.623  0.4108 -0.7546 -0.8007
  397MOL0     H53593   9.819  10.986   3.500  0.2212  1.5993 -0.4447
  397MOL0     H53594   9.693  10.857   3.519 -2.6327  0.3508  0.4069
  397MOL0     H53595   9.659  11.028   3.468  0.7484  0.0261  0.0599
  398MOL0     O53596   4.889   7.543   6.081  0.3799 -0.0986 -0.3583
  398MOL0     C53597   4.802   7.495   6.007  0.6149  0.4748 -0.2585
  398MOL0     O53598   4.810   7.384   5.928 -0.1044  0.0017  0.6259
  398MOL0     C53599   4.930   7.314   5.937  0.0225  0.3916  0.3283
  398MOL0     C53600   4.934   7.183   5.982  0.6242  0.3743 -0.3359
  398MOL0     C53601   5.056   7.110   5.976 -0.2086 -0.2720 -0.5247
  398MOL0     C53602   5.176   7.172   5.943  0.3575 -1.1383 -0.8350
  398MOL0     O53603   5.296   7.121   5.966 -0.3301  0.4491 -0.3190
  398MOL0     C53604   5.308   6.997   6.037 -0.0942  0.4871  0.9938
  398MOL0     C53605   5.458   6.979   6.070  0.1419 -0.2931 -0.1826
  398MOL0     C53606   5.498   7.102   6.165  0.2038  0.2009  0.3173
  398MOL0     C53607   5.647   7.084   6.188  0.2826 -0.7546  0.0381
  398MOL0     C53608   5.707   7.188   6.271  0.5987  0.1918  0.0060
  398MOL0     C53609   5.860   7.174   6.281  0.5627  0.6523  0.6685
  398MOL0     C53610   5.904   7.280   6.380 -0.1912  0.3459 -0.2980
  398MOL0     C53611   6.036   7.261   6.444 -0.5540  0.6265 -1.0104
  398MOL0     N53612   6.058   7.381   6.526  1.1968  0.6476  0.1745
  398MOL0     C53613   6.010   7.399   6.654 -0.8678 -0.2898 -1.2617
  398MOL0     C53614   6.055   7.528   6.682  0.1344  1.2465  0.3409
  398MOL0     C53615   6.018   7.600   6.806 -0.9968  0.3692  0.8217
  398MOL0     C53616   6.124   7.605   6.908 -1.4255 -1.2282 -0.8132
  398MOL0     C53617   6.070   7.598   7.055  0.5229 -0.0746 -0.8652
  398MOL0     C53618   6.197   7.624   7.144  0.3567  0.6930  0.0317
  398MOL0     O53619   6.246   7.752   7.108  0.5430  0.0737 -0.0257
  398MOL0     C53620   6.335   7.815   7.189 -0.1635  0.4882 -0.6555
  398MOL0     C53621   6.356   7.948   7.154 -0.5081  0.2392  0.6244
  398MOL0     C53622   6.472   8.014   7.203 -0.1917  0.5269  0.2447
  398MOL0     C53623   6.560   7.950   7.297  0.5871 -0.1292  0.0443
  398MOL0     C53624   6.668   8.027   7.350 -0.3304 -0.5357  0.6434
  398MOL0     O53625   6.703   8.143   7.294  0.8099 -0.3404  0.0716
  398MOL0     C53626   6.804   8.221   7.345 -0.2608 -0.7501  0.0463
  398MOL0     C53627   6.914   8.258   7.270 -0.1717 -0.1247 -0.2084
  398MOL0     C53628   7.007   8.347   7.324  0.0120 -0.0597  0.0385
  398MOL0     C53629   6.989   8.407   7.447 -0.1037  0.4341 -0.4555
  398MOL0     O53630   7.072   8.503   7.507  0.7727  0.6854 -0.7765
  398MOL0     C53631   7.164   8.578   7.423 -1.1231  0.0146 -0.5109
  398MOL0     C53632   7.218   8.705   7.500 -0.5757 -0.8766  0.6600
  398MOL0     C53633   7.306   8.786   7.395 -0.0324  0.4211  0.0438
  398MOL0     C53634   7.390   8.893   7.459 -0.0650 -0.0693 -0.0958
  398MOL0     C53635   7.459   8.989   7.359  0.5831 -0.1728 -0.2426
  398MOL0     C53636   7.543   9.096   7.428  0.3566 -0.0171  0.0684
  398MOL0     C53637   7.479   9.172   7.546 -0.2136  0.1142  0.6180
  398MOL0     C53638   7.545   9.306   7.565  0.0243 -0.4803 -0.1219
  398MOL0    Cl53639   7.704   9.298   7.628 -0.2405  0.4130  0.2538
  398MOL0     C53640   6.875   8.387   7.507  0.9547  0.5674  0.3960
  398MOL0     C53641   6.783   8.299   7.464  0.2055  0.5644 -0.3302
  398MOL0     O53642   6.723   7.975   7.444  0.2760 -0.1091  0.1139
  398MOL0     C53643   6.534   7.817   7.334 -1.0163 -0.1873  0.1340
  398MOL0     C53644   6.421   7.756   7.285 -0.3616 -0.1043  0.1309
  398MOL0     N53645   6.114   7.584   6.571  0.3356 -0.4172  0.7084
  398MOL0     N53646   6.115   7.494   6.481  0.2812  0.1963  0.6705
  398MOL0     C53647   5.169   7.302   5.890  1.2197 -0.0902  0.2737
  398MOL0     C53648   5.044   7.371   5.882 -0.0453  0.1085  0.3514
  398MOL0     C53649   4.667   7.560   6.013  0.1994 -0.7505  0.0064
  398MOL0     C53650   4.633   7.652   6.121 -0.0382 -0.2407  0.3002
  398MOL0     C53651   4.508   7.716   6.126  0.5616  0.3425  0.4183
  398MOL0     C53652   4.410   7.682   6.030 -0.4736 -0.1338  0.3857
  398MOL0     O53653   4.284   7.728   6.050  0.1644 -0.6074  0.8984
  398MOL0     C53654   4.175   7.655   5.989 -0.0041  0.8274 -0.0674
  398MOL0     C53655   4.046   7.695   6.057 -0.3816  0.4132 -0.1805
  398MOL0     C53656   4.006   7.846   6.018  0.4189  0.4463  0.2708
  398MOL0     C53657   3.886   7.844   5.917 -0.2129  0.8282  0.0548
  398MOL0     C53658   3.912   7.780   5.784  0.5073 -0.6560  0.1451
  398MOL0     C53659   3.930   7.749   5.666 -0.5411 -0.5160  0.5567
  398MOL0     C53660   4.442   7.596   5.920 -0.1181  0.4112 -0.2276
  398MOL0     C53661   4.565   7.534   5.905  0.1512 -0.4384  0.3334
  398MOL0     C53662   4.583   7.447   5.795  0.7813  0.6615  0.9376
  398MOL0     H53663   4.850   7.128   6.021  0.7592  0.7337  0.4733
  398MOL0     H53664   5.041   7.012   6.019 -1.3035 -0.0475 -0.3642
  398MOL0     H53665   5.238   6.984   6.120 -1.6377 -0.5691 -0.3981
  398MOL0     H53666   5.276   6.916   5.970  0.9633  1.2650 -0.4870
  398MOL0     H53667   5.519   6.980   5.979 -0.3511  0.3777 -0.5112
  398MOL0     H53668   5.475   6.883   6.119 -0.2325 -1.0288 -1.4483
  398MOL0     H53669   5.443   7.104   6.259 -0.5547  0.9408 -0.1267
  398MOL0     H53670   5.484   7.202   6.122 -0.1552  1.4227  3.0412
  398MOL0     H53671   5.656   6.988   6.239  0.5089 -1.2961 -0.9861
  398MOL0     H53672   5.693   7.081   6.089 -1.0298 -1.8129 -0.5716
  398MOL0     H53673   5.676   7.285   6.231  2.3032  0.9510  0.4467
  398MOL0     H53674   5.666   7.182   6.373  1.7560 -1.1266  0.4153
  398MOL0     H53675   5.883   7.071   6.307  0.8971  0.7099  0.6008
  398MOL0     H53676   5.897   7.197   6.181 -1.4976 -2.5803 -0.9875
  398MOL0     H53677   5.840   7.274   6.469  0.3539 -0.0537  0.0752
  398MOL0     H53678   5.892   7.376   6.329 -1.7179  0.4997  0.2790
  398MOL0     H53679   6.039   7.169   6.503 -0.5852  1.3989  0.2288
  398MOL0     H53680   6.109   7.246   6.363 -0.6698  2.9959 -1.6070
  398MOL0     H53681   5.950   7.344   6.726 -0.7236 -0.0085 -0.9248
  398MOL0     H53682   5.998   7.701   6.768  0.0836 -0.1054 -1.1504
  398MOL0     H53683   5.928   7.554   6.848 -0.7304 -1.3820 -0.4188
  398MOL0     H53684   6.183   7.515   6.889 -0.0049 -0.1930 -1.4835
  398MOL0     H53685   6.173   7.699   6.879 -0.4651 -1.5466 -0.2477
  398MOL0     H53686   6.026   7.502   7.081  0.8109 -0.1070 -0.4838
  398MOL0     H53687   6.000   7.681   7.072  1.3508  1.1205 -2.9646
  398MOL0     H53688   6.275   7.549   7.129  0.5089  0.4406  1.9082
  398MOL0     H53689   6.171   7.618   7.250 -0.9528 -0.8360 -0.3388
  398MOL0     H53690   6.286   7.986   7.081  1.3579 -0.9054 -1.9013
  398MOL0     H53691   6.482   8.120   7.179 -3.1965  0.8761  0.1209
  398MOL0     H53692   6.930   8.215   7.172  5.3056 -0.2482  0.4019
  398MOL0     H53693   7.095   8.392   7.278 -1.8849  1.6968 -2.1158
  398MOL0     H53694   7.254   8.520   7.403 -0.0427  2.2706 -2.7006
  398MOL0     H53695   7.121   8.603   7.326 -0.1256 -0.5642 -1.1122
  398MOL0     H53696   7.136   8.757   7.549 -1.1815 -1.3244  0.1455
  398MOL0     H53697   7.283   8.676   7.583  3.0503  1.8470 -0.9687
  398MOL0     H53698   7.370   8.720   7.335 -0.4553 -0.1024  0.1603
  398MOL0     H53699   7.238   8.840   7.329  0.3037  1.4075  0.4909
  398MOL0     H53700   7.469   8.844   7.518 -0.3361 -0.7535 -0.2990
  398MOL0     H53701   7.330   8.953   7.528 -0.9088 -2.5151  1.4218
  398MOL0     H53702   7.374   9.035   7.309  0.6642 -1.2323 -1.4202
  398MOL0     H53703   7.518   8.943   7.279  1.3527  2.7710 -1.4683
  398MOL0     H53704   7.631   9.039   7.460  0.4572  0.2580  0.2848
  398MOL0     H53705   7.588   9.166   7.357  0.5377  0.8193  0.9802
  398MOL0     H53706   7.483   9.103   7.631  2.3899  0.8704  1.1880
  398MOL0     H53707   7.374   9.201   7.532  0.0727  1.9338  1.8812
  398MOL0     H53708   7.538   9.358   7.468 -1.4447  3.0901  1.6971
  398MOL0     H53709   7.490   9.376   7.628  0.2603  0.2760 -0.7412
  398MOL0     H53710   6.856   8.462   7.584 -1.8733 -0.5106  0.8940
  398MOL0     H53711   6.694   8.277   7.522  1.0366  0.2133  0.8528
  398MOL0     H53712   6.595   7.765   7.406 -1.7351 -1.0818  0.1220
  398MOL0     H53713   6.411   7.654   7.320 -0.8912 -0.3864 -0.8104
  398MOL0     H53714   5.251   7.365   5.859  0.0488  1.4099  0.0839
  398MOL0     H53715   5.044   7.459   5.819  2.8021 -2.2194 -3.3087
  398MOL0     H53716   4.703   7.678   6.199  3.0083  1.2575 -2.6562
  398MOL0     H53717   4.484   7.783   6.208 -2.4138  0.5398 -0.5118
  398MOL0     H53718   4.188   7.549   6.013  1.2816  1.2778  1.4269
  398MOL0     H53719   4.172   7.661   5.880 -0.3180  0.6545 -0.0707
  398MOL0     H53720   4.060   7.690   6.165  1.0937 -0.1485 -0.3664
  398MOL0     H53721   3.973   7.618   6.029 -1.5582  1.6006 -0.4407
  398MOL0     H53722   4.097   7.891   5.978  0.1931 -0.7621 -1.7131
  398MOL0     H53723   3.965   7.893   6.108 -0.3036  1.1839 -0.4240
  398MOL0     H53724   3.796   7.806   5.965  0.5163 -0.2983  0.5730
  398MOL0     H53725   3.863   7.949   5.898  2.0261  1.2232 -0.7951
  398MOL0     H53726   3.938   7.726   5.562 -1.4921 -0.6372  0.5055
  398MOL0     H53727   4.373   7.572   5.840  0.0871 -2.4124  0.3424
  398MOL0     H53728   4.509   7.467   5.717  1.4572  0.5298  0.2486
  398MOL0     H53729   4.677   7.461   5.740 -0.8176 -0.0313 -2.1923
  398MOL0     H53730   4.584   7.343   5.830 -0.1774  0.0773 -0.6785
  399MOL0     O53731   6.091   9.481   5.471 -0.7723  0.5515  0.5754
  399MOL0     C53732   6.108   9.361   5.438  0.4587  0.2024  0.4331
  399MOL0     O53733   6.223   9.291   5.461  0.4246 -0.2816  0.5496
  399MOL0     C53734   6.352   9.345   5.471  0.3898  0.5735 -0.0177
  399MOL0     C53735   6.374   9.481   5.443 -0.7230 -0.3482 -0.8604
  399MOL0     C53736   6.497   9.539   5.480  0.1258 -0.9584  0.1418
  399MOL0     C53737   6.611   9.469   5.517  0.0894  0.1387  0.4976
  399MOL0     O53738   6.723   9.536   5.556 -0.4533  0.1574  0.0516
  399MOL0     C53739   6.850   9.474   5.554 -0.8748 -0.0947 -0.7263
  399MOL0     C53740   6.955   9.580   5.611  0.2199 -0.1204  0.0368
  399MOL0     C53741   7.094   9.525   5.584  0.5653 -0.3840 -1.5539
  399MOL0     C53742   7.202   9.628   5.558 -0.0691  0.9015  0.6859
  399MOL0     C53743   7.341   9.584   5.575 -0.9085 -0.2509 -0.2085
  399MOL0     C53744   7.438   9.677   5.494  0.4619 -0.1219 -0.4924
  399MOL0     C53745   7.575   9.618   5.499  0.9725  0.5729 -0.5001
  399MOL0     C53746   7.686   9.718   5.455  0.1491  0.2869  0.2631
  399MOL0     N53747   7.817   9.664   5.472  0.0458 -0.5829 -0.4799
  399MOL0     C53748   7.879   9.566   5.405  0.6845 -0.7492  0.1490
  399MOL0     C53749   8.010   9.572   5.440  0.0456  0.1871 -0.1192
  399MOL0     C53750   8.110   9.466   5.408 -0.0102  0.0153 -0.5596
  399MOL0     C53751   8.203   9.430   5.538  0.5362 -0.9311  0.6935
  399MOL0     C53752   8.325   9.340   5.501 -0.5025  0.4434 -0.8498
  399MOL0     C53753   8.426   9.333   5.620 -0.3321  0.3721  0.5281
  399MOL0     O53754   8.375   9.328   5.759  0.1067 -0.0268  0.0151
  399MOL0     C53755   8.462   9.299   5.859 -0.4849  0.6338  0.1557
  399MOL0     C53756   8.597   9.329   5.856  0.0327 -0.7279  0.8069
  399MOL0     C53757   8.682   9.289   5.953 -0.4684  0.3492 -0.0456
  399MOL0     C53758   8.649   9.209   6.064  0.4910 -0.5843  0.0128
  399MOL0     C53759   8.746   9.165   6.165  0.0346  0.0188 -0.0259
  399MOL0     O53760   8.873   9.217   6.167  0.1144  0.1402 -0.3030
  399MOL0     C53761   8.953   9.192   6.269 -0.8613 -0.0656  1.0258
  399MOL0     C53762   9.042   9.302   6.293 -0.5498 -0.3856  0.1371
  399MOL0     C53763   9.121   9.297   6.406  0.6025  0.1157 -0.1531
  399MOL0     C53764   9.118   9.196   6.504  0.3853  1.0285  0.2706
  399MOL0     O53765   9.196   9.210   6.613  0.3333  0.4914 -0.0085
  399MOL0     C53766   9.177   9.115   6.715 -0.2352 -0.0548 -0.1544
  399MOL0     C53767   9.262   9.161   6.842 -0.3983  0.5295 -0.0993
  399MOL0     C53768   9.414   9.154   6.829  0.3660 -0.4304  1.1240
  399MOL0     C53769   9.500   9.175   6.954  0.5731 -0.6888  0.5234
  399MOL0     C53770   9.645   9.143   6.924  0.1992  0.2156 -0.5735
  399MOL0     C53771   9.719   9.078   7.044 -0.3129  0.1082 -0.5324
  399MOL0     C53772   9.867   9.087   7.008 -0.0614 -0.1543 -0.6032
  399MOL0     C53773   9.950   9.042   7.132  1.0913 -0.0032 -0.5090
  399MOL0    Cl53774  10.106   9.141   7.140  0.3960 -0.4197 -0.0974
  399MOL0     C53775   9.031   9.093   6.473 -0.1071 -0.4352  0.0140
  399MOL0     C53776   8.956   9.083   6.360 -0.1440 -0.1129 -0.2986
  399MOL0     O53777   8.695   9.091   6.247  0.0706 -0.3811 -0.7026
  399MOL0     C53778   8.513   9.182   6.064  0.3053 -0.0971 -0.0867
  399MOL0     C53779   8.415   9.217   5.972  0.2364 -0.3382  0.6248
  399MOL0     N53780   8.029   9.680   5.531 -0.2818  0.2841  0.8293
  399MOL0     N53781   7.907   9.729   5.539 -0.0446 -0.5191 -0.6067
  399MOL0     C53782   6.599   9.326   5.517 -0.2737 -0.2852 -0.0777
  399MOL0     C53783   6.470   9.265   5.495  1.0736 -0.5129 -0.1445
  399MOL0     C53784   5.974   9.285   5.432  0.5479  0.3884 -0.0775
  399MOL0     C53785   5.983   9.147   5.461 -0.2922 -0.5512  0.0594
  399MOL0     C53786   5.872   9.066   5.453 -0.4057  0.1594 -0.4014
  399MOL0     C53787   5.740   9.119   5.431  0.5274  0.1023 -0.2731
  399MOL0     O53788   5.626   9.048   5.453  0.9021 -0.1320  1.0098
  399MOL0     C53789   5.633   8.910   5.485 -0.3455  0.0499  0.4162
  399MOL0     C53790   5.485   8.885   5.501 -0.3917 -1.3397 -0.1246
  399MOL0     C53791   5.453   8.733   5.490 -0.8923 -0.1024  0.8753
  399MOL0     C53792   5.498   8.654   5.613  0.4581  0.2379 -0.4267
  399MOL0     C53793   5.616   8.569   5.579  0.6991 -0.1079 -0.0122
  399MOL0     C53794   5.711   8.498   5.548 -0.1364 -0.2614 -0.5832
  399MOL0     C53795   5.728   9.261   5.413 -0.2305  0.9806  0.9598
  399MOL0     C53796   5.844   9.342   5.402 -0.4536  0.4750 -0.4445
  399MOL0     C53797   5.818   9.485   5.363  0.3860 -0.7287 -1.2301
  399MOL0     H53798   6.311   9.557   5.399  1.8660  0.9881 -2.5053
  399MOL0     H53799   6.505   9.648   5.480 -5.0810 -0.3310  0.2228
  399MOL0     H53800   6.851   9.385   5.619 -0.8892 -1.2745 -2.2805
  399MOL0     H53801   6.880   9.443   5.453 -2.7805 -0.7996 -1.1054
  399MOL0     H53802   6.937   9.596   5.718  0.1707  0.0525  0.0033
  399MOL0     H53803   6.947   9.679   5.564 -4.6026  0.3349  1.2515
  399MOL0     H53804   7.076   9.457   5.500 -0.6319  1.0178 -2.4773
  399MOL0     H53805   7.142   9.463   5.660 -2.4283 -0.7399  0.2077
  399MOL0     H53806   7.185   9.664   5.456 -1.1829  2.5300  1.3933
  399MOL0     H53807   7.171   9.709   5.624  1.3592  1.7418  0.3754
  399MOL0     H53808   7.369   9.593   5.681 -0.1563  0.7613 -0.4709
  399MOL0     H53809   7.355   9.482   5.537 -0.3922 -0.3660  0.2784
  399MOL0     H53810   7.398   9.675   5.392  0.0595 -0.7184 -0.3263
  399MOL0     H53811   7.428   9.774   5.543  0.2390 -0.7009  0.6335
  399MOL0     H53812   7.583   9.528   5.438  0.6146 -1.0325  1.7130
  399MOL0     H53813   7.591   9.579   5.599 -1.3173 -0.7865 -0.5889
  399MOL0     H53814   7.682   9.736   5.347  0.0487 -0.2149  0.1815
  399MOL0     H53815   7.685   9.816   5.504 -0.5567  1.3921 -1.8243
  399MOL0     H53816   7.836   9.496   5.334 -0.9553 -1.7913  2.0547
  399MOL0     H53817   8.066   9.376   5.365  0.2238 -0.2457 -0.2608
  399MOL0     H53818   8.167   9.514   5.327 -0.3286  0.6085 -0.4359
  399MOL0     H53819   8.243   9.523   5.579 -1.6032  0.1574  0.4504
  399MOL0     H53820   8.137   9.381   5.610  0.3871 -1.7762 -0.0055
  399MOL0     H53821   8.364   9.359   5.401 -0.2910  1.5552 -0.5713
  399MOL0     H53822   8.283   9.239   5.497  0.0693  0.0889  0.8133
  399MOL0     H53823   8.478   9.427   5.600 -0.9700 -0.1372 -5.0717
  399MOL0     H53824   8.491   9.248   5.600  0.6760  1.1662  0.3642
  399MOL0     H53825   8.637   9.388   5.773 -2.0306 -0.5392 -0.1058
  399MOL0     H53826   8.789   9.308   5.942  0.0897 -1.8590  1.0887
  399MOL0     H53827   9.061   9.389   6.231  2.1704 -2.1380 -1.6794
  399MOL0     H53828   9.190   9.377   6.428 -1.1072  1.4972  0.4558
  399MOL0     H53829   9.075   9.095   6.749  0.8569 -2.2033  2.1485
  399MOL0     H53830   9.220   9.022   6.676 -0.8960 -0.7774  0.8071
  399MOL0     H53831   9.229   9.262   6.865 -0.5574  0.7526 -1.2539
  399MOL0     H53832   9.234   9.088   6.919 -0.4212 -2.8448 -3.0189
  399MOL0     H53833   9.434   9.054   6.790  0.7051 -0.3555  1.1054
  399MOL0     H53834   9.431   9.227   6.750 -1.5581  0.4176  1.4457
  399MOL0     H53835   9.462   9.106   7.030 -0.7982 -1.0357 -0.4504
  399MOL0     H53836   9.493   9.272   7.003  0.7557  0.0545 -0.8572
  399MOL0     H53837   9.698   9.234   6.893 -0.3745 -0.4298 -3.8288
  399MOL0     H53838   9.647   9.074   6.840 -2.9975 -0.1849 -0.4668
  399MOL0     H53839   9.706   9.126   7.142  1.2407  2.3699 -1.3724
  399MOL0     H53840   9.688   8.973   7.047  3.7766 -1.3928 -2.9661
  399MOL0     H53841   9.893   9.191   6.986  0.6178  0.1257  1.3497
  399MOL0     H53842   9.876   9.010   6.930 -1.6666 -1.6409  0.5879
  399MOL0     H53843   9.892   9.064   7.222  0.4429  1.3213 -1.2178
  399MOL0     H53844   9.969   8.934   7.132 -1.4935 -0.5580 -2.0904
  399MOL0     H53845   9.018   9.010   6.541 -3.1375 -0.0003  0.0674
  399MOL0     H53846   8.890   8.998   6.344 -1.0007  0.1919  1.4070
  399MOL0     H53847   8.472   9.128   6.149 -5.6891  2.0314 -1.1773
  399MOL0     H53848   8.308   9.202   5.969 -0.0556  1.6006 -0.8038
  399MOL0     H53849   6.684   9.270   5.553 -1.1259 -0.5546  1.5626
  399MOL0     H53850   6.459   9.158   5.506 -0.2697 -0.3614  0.2341
  399MOL0     H53851   6.073   9.096   5.493  1.7149  1.7202 -1.5782
  399MOL0     H53852   5.872   8.959   5.469 -1.8040  0.0440 -1.0425
  399MOL0     H53853   5.693   8.885   5.573 -1.0693  0.8358  1.1610
  399MOL0     H53854   5.667   8.859   5.395 -1.2982  0.8908 -0.4459
  399MOL0     H53855   5.429   8.940   5.425 -0.7037 -0.0461  0.9970
  399MOL0     H53856   5.447   8.918   5.599 -2.0062 -0.0956 -1.1258
  399MOL0     H53857   5.481   8.688   5.395 -2.9510  0.5862 -0.1096
  399MOL0     H53858   5.344   8.731   5.487 -0.8664  0.1423 -1.1587
  399MOL0     H53859   5.524   8.717   5.699  2.1587 -0.5278 -0.3318
  399MOL0     H53860   5.407   8.606   5.648 -0.6716 -0.1286 -3.5521
  399MOL0     H53861   5.782   8.422   5.522  0.7999  0.2853  0.2755
  399MOL0     H53862   5.629   9.299   5.389 -0.3389 -0.7283 -1.7116
  399MOL0     H53863   5.902   9.531   5.309  2.4248 -0.3200  2.0228
  399MOL0     H53864   5.724   9.502   5.310  0.5209 -0.6626 -1.4534
  399MOL0     H53865   5.816   9.546   5.453  0.7328  2.0390 -2.9610
  400MOL0     O53866   8.220   3.779   6.872 -0.0456  0.0105 -0.1002
  400MOL0     C53867   8.166   3.756   6.980 -0.1286  0.0085 -0.0468
  400MOL0     O53868   8.229   3.738   7.098  0.5295 -0.2457 -0.2965
  400MOL0     C53869   8.360   3.737   7.127  0.1033  0.2992 -0.0030
  400MOL0     C53870   8.472   3.724   7.048 -0.1702  0.9368 -0.2903
  400MOL0     C53871   8.600   3.717   7.112 -0.4955  0.7821 -0.1048
  400MOL0     C53872   8.619   3.742   7.251  0.1230  0.1340  0.0847
  400MOL0     O53873   8.743   3.726   7.295 -0.1677  0.4002 -0.2043
  400MOL0     C53874   8.782   3.743   7.433  0.6546  0.4367  0.4660
  400MOL0     C53875   8.835   3.618   7.495  0.0845  1.0027  0.2884
  400MOL0     C53876   8.893   3.655   7.633 -0.0994 -0.2925 -0.2557
  400MOL0     C53877   8.906   3.524   7.717  0.3394 -0.0361 -0.0873
  400MOL0     C53878   8.961   3.550   7.858 -0.8631  0.0940 -1.0502
  400MOL0     C53879   9.100   3.622   7.862  0.5130  0.2533  0.2470
  400MOL0     C53880   9.199   3.537   7.789  0.5081 -0.5241 -0.2379
  400MOL0     C53881   9.344   3.599   7.783  0.1264  0.0218  0.7204
  400MOL0     N53882   9.421   3.576   7.907 -0.6067 -0.0293  0.0409
  400MOL0     C53883   9.464   3.457   7.951 -0.2737 -0.1868 -1.0314
  400MOL0     C53884   9.547   3.492   8.061 -0.1092  0.5287  0.4611
  400MOL0     C53885   9.623   3.378   8.128  0.0125 -0.9509 -0.2335
  400MOL0     C53886   9.737   3.421   8.223 -1.0418  1.0380  0.6743
  400MOL0     C53887   9.759   3.313   8.322 -0.0340  0.7025  0.3037
  400MOL0     C53888   9.868   3.361   8.413  0.5954 -0.2911 -0.6173
  400MOL0     O53889   9.905   3.257   8.507 -0.1683  0.1579 -0.4813
  400MOL0     C53890  10.039   3.232   8.490  0.4330 -0.6371  0.5317
  400MOL0     C53891  10.078   3.128   8.408  0.6636  0.2868  0.3060
  400MOL0     C53892  10.212   3.114   8.387  0.4299  0.1397  0.1533
  400MOL0     C53893  10.302   3.190   8.448  0.0105 -0.2522  0.3892
  400MOL0     C53894  10.450   3.179   8.432  1.4344 -0.3448  0.3840
  400MOL0     O53895  10.475   3.108   8.320  0.5665 -0.2480 -0.2676
  400MOL0     C53896  10.606   3.088   8.287  0.8738 -0.3156 -0.3292
  400MOL0     C53897  10.686   3.199   8.245  0.2042 -0.0659 -0.2247
  400MOL0     C53898  10.820   3.171   8.209  0.7016 -0.8223 -0.2662
  400MOL0     C53899  10.882   3.048   8.237  0.2263  0.1800  0.7906
  400MOL0     O53900  11.013   3.022   8.224 -0.0907 -0.7072  0.0082
  400MOL0     C53901  11.103   3.134   8.193  0.4826  0.4794 -0.5730
  400MOL0     C53902  11.246   3.086   8.190  1.2036 -0.0169 -0.2412
  400MOL0     C53903  11.291   3.047   8.332  0.9038 -0.4385 -0.1777
  400MOL0     C53904  11.449   3.052   8.327  0.2441 -0.0559  0.1206
  400MOL0     C53905  11.493   2.956   8.440 -0.8831  0.2567 -0.1078
  400MOL0     C53906  11.512   2.810   8.402  0.2404  0.9302 -0.0865
  400MOL0     C53907  11.569   2.790   8.261  0.6634  0.5182 -0.9550
  400MOL0     C53908  11.614   2.651   8.221  0.1620  0.3276  0.2666
  400MOL0    Cl53909  11.760   2.607   8.309 -0.1684  0.2006 -0.2692
  400MOL0     C53910  10.806   2.946   8.291 -0.0204 -0.0965 -0.3693
  400MOL0     C53911  10.668   2.962   8.304 -0.7099 -0.6097  0.3411
  400MOL0     O53912  10.524   3.237   8.507 -0.8281  0.4096 -0.0983
  400MOL0     C53913  10.259   3.284   8.540  0.9565 -0.0407  0.7207
  400MOL0     C53914  10.125   3.314   8.546 -0.3573 -0.7398 -0.2250
  400MOL0     N53915   9.551   3.625   8.082 -0.8514  0.3035 -0.3740
  400MOL0     N53916   9.478   3.675   7.986 -0.8446  0.4720  0.1563
  400MOL0     C53917   8.504   3.766   7.321  0.6430  0.9510  0.1535
  400MOL0     C53918   8.377   3.744   7.265  0.4908 -0.3068 -0.5931
  400MOL0     C53919   8.020   3.739   6.988 -0.1011 -0.5049 -0.4941
  400MOL0     C53920   7.970   3.649   7.083 -0.2322  0.5868 -0.5621
  400MOL0     C53921   7.829   3.620   7.077  0.4615  0.1367 -0.1431
  400MOL0     C53922   7.741   3.680   6.991 -0.7363  0.1991  0.5964
  400MOL0     O53923   7.605   3.654   6.984 -0.2992 -0.0188 -0.7382
  400MOL0     C53924   7.535   3.567   7.077 -0.8483  0.2580 -0.2977
  400MOL0     C53925   7.386   3.596   7.088  0.0205 -0.5382  0.2073
  400MOL0     C53926   7.303   3.566   6.964  0.6506  0.0129  0.3762
  400MOL0     C53927   7.160   3.629   6.979  0.0718  0.0959 -0.9055
  400MOL0     C53928   7.062   3.548   6.907  0.5399  0.3766  0.2798
  400MOL0     C53929   6.967   3.505   6.840  0.0268  0.3373 -1.1296
  400MOL0     C53930   7.793   3.779   6.913  0.0679  0.0085 -0.0848
  400MOL0     C53931   7.928   3.808   6.900 -0.3914 -0.8856  0.2858
  400MOL0     C53932   7.971   3.920   6.812 -0.9610  0.2210 -0.1647
  400MOL0     H53933   8.465   3.685   6.947  1.4217 -0.7971  0.2169
  400MOL0     H53934   8.687   3.706   7.048  0.6819  2.1576  1.1782
  400MOL0     H53935   8.863   3.816   7.421  1.0077  0.1883  1.3021
  400MOL0     H53936   8.702   3.794   7.487  0.1550  1.9900 -1.6006
  400MOL0     H53937   8.919   3.572   7.442 -0.5777  0.5019 -0.3517
  400MOL0     H53938   8.754   3.544   7.492  1.6850 -0.8103 -1.2389
  400MOL0     H53939   8.822   3.717   7.688  2.4453  2.1604  0.5350
  400MOL0     H53940   8.986   3.712   7.625 -0.4049  0.2487  0.0319
  400MOL0     H53941   8.804   3.485   7.724  1.0268 -1.5668  2.5780
  400MOL0     H53942   8.959   3.439   7.674  1.2875  0.6353 -0.2868
  400MOL0     H53943   8.888   3.607   7.916  0.7943 -1.1121  2.5180
  400MOL0     H53944   8.971   3.460   7.919  3.6013  0.7160 -0.4674
  400MOL0     H53945   9.100   3.717   7.808  0.0914 -0.6944 -1.5316
  400MOL0     H53946   9.136   3.634   7.964  0.0298 -0.3089  0.4932
  400MOL0     H53947   9.165   3.519   7.686 -0.7567 -0.4235  0.1550
  400MOL0     H53948   9.201   3.441   7.840 -1.8221  0.4783  1.9328
  400MOL0     H53949   9.386   3.554   7.693 -0.0437  2.3178 -0.6016
  400MOL0     H53950   9.349   3.706   7.760 -0.7846  0.4041  2.1615
  400MOL0     H53951   9.443   3.358   7.913 -1.6044 -0.3354 -0.0165
  400MOL0     H53952   9.551   3.305   8.166 -0.7680 -1.2469 -2.1343
  400MOL0     H53953   9.670   3.342   8.036 -0.0452  1.2905 -1.2096
  400MOL0     H53954   9.830   3.433   8.167 -2.0757 -2.5439 -2.1587
  400MOL0     H53955   9.709   3.517   8.268 -0.4589  1.0486  1.0295
  400MOL0     H53956   9.785   3.226   8.263 -0.1249  1.4265 -0.8290
  400MOL0     H53957   9.668   3.284   8.376 -0.8154  0.4670 -1.1124
  400MOL0     H53958   9.823   3.442   8.470 -0.8840 -0.3445 -1.6304
  400MOL0     H53959   9.950   3.407   8.358 -0.5891  2.2158 -0.3944
  400MOL0     H53960  10.019   3.053   8.356  0.1653 -0.4853  1.9351
  400MOL0     H53961  10.249   3.037   8.319  2.7192 -0.3243  1.8192
  400MOL0     H53962  10.636   3.294   8.229 -2.4179 -1.2080  0.6986
  400MOL0     H53963  10.873   3.262   8.183 -1.7783  0.2270 -2.1356
  400MOL0     H53964  11.068   3.182   8.101 -0.2495 -2.9046 -2.2180
  400MOL0     H53965  11.093   3.209   8.271  1.3966 -1.4955  1.5421
  400MOL0     H53966  11.243   2.995   8.129  0.4138  0.0659 -0.3445
  400MOL0     H53967  11.306   3.168   8.148  0.2409  0.8454  0.0108
  400MOL0     H53968  11.243   3.117   8.401 -1.8054 -0.0568 -2.2828
  400MOL0     H53969  11.245   2.949   8.346 -0.7694  0.1897 -1.0405
  400MOL0     H53970  11.482   3.149   8.363 -0.9262 -1.2809  5.2339
  400MOL0     H53971  11.483   3.019   8.228  2.7791  1.4777  0.3991
  400MOL0     H53972  11.432   2.955   8.531  1.2412  4.5352  1.6337
  400MOL0     H53973  11.586   2.989   8.487 -1.0372  0.3862  0.1082
  400MOL0     H53974  11.577   2.755   8.470  1.0836 -0.3500 -1.8527
  400MOL0     H53975  11.419   2.753   8.412  1.0774 -1.0195 -2.5702
  400MOL0     H53976  11.654   2.858   8.253 -0.7856  2.5441 -0.0224
  400MOL0     H53977  11.493   2.816   8.186  1.0574  2.8222 -0.6443
  400MOL0     H53978  11.535   2.579   8.243 -2.0396  2.6722  0.4721
  400MOL0     H53979  11.636   2.653   8.113  0.6700  1.0134  0.3777
  400MOL0     H53980  10.854   2.851   8.313 -0.0853  0.1096  0.7295
  400MOL0     H53981  10.611   2.875   8.336 -0.0468 -0.8455  0.9005
  400MOL0     H53982  10.320   3.345   8.606  0.7399 -0.2045  1.0775
  400MOL0     H53983  10.093   3.397   8.608  1.5372 -0.2986  0.2385
  400MOL0     H53984   8.503   3.783   7.428 -3.2292  1.7800  0.1293
  400MOL0     H53985   8.291   3.770   7.326 -0.3412  0.7197 -2.1338
  400MOL0     H53986   8.034   3.592   7.149 -2.3035  0.1951  1.2007
  400MOL0     H53987   7.804   3.541   7.147 -0.0908  0.7051  0.3153
  400MOL0     H53988   7.579   3.566   7.177 -0.4962 -2.3375 -0.3969
  400MOL0     H53989   7.550   3.461   7.053 -0.5954  0.1274  0.4035
  400MOL0     H53990   7.386   3.705   7.098  1.3322 -0.3152 -1.6138
  400MOL0     H53991   7.360   3.538   7.177 -1.9966 -0.9351 -0.5966
  400MOL0     H53992   7.294   3.458   6.949 -0.4558  0.1060  0.3018
  400MOL0     H53993   7.336   3.604   6.867 -0.1285  2.9789  1.1702
  400MOL0     H53994   7.127   3.628   7.084 -0.9707 -1.7375 -1.2021
  400MOL0     H53995   7.153   3.731   6.941 -2.4641  1.1893  2.0173
  400MOL0     H53996   6.889   3.478   6.772 -1.9677 -1.4053  1.6389
  400MOL0     H53997   7.734   3.842   6.847  0.0611  0.9787  0.8189
  400MOL0     H53998   8.013   4.003   6.871  0.3701  0.4226 -1.3352
  400MOL0     H53999   8.045   3.875   6.745  0.8023  1.5207  0.8095
  400MOL0     H54000   7.882   3.953   6.758 -1.3528 -0.7566 -0.1332
  401MOL0     O54001   2.428   9.388   6.254 -0.4821 -0.3532  0.0503
  401MOL0     C54002   2.415   9.294   6.170 -0.5374  0.3793  0.0341
  401MOL0     O54003   2.509   9.195   6.147 -0.9563  0.1692 -0.6246
  401MOL0     C54004   2.625   9.188   6.225 -0.1764 -0.2396  0.1075
  401MOL0     C54005   2.712   9.296   6.243  0.3484  0.0109  0.3395
  401MOL0     C54006   2.835   9.281   6.305  0.0525  0.2319  0.1857
  401MOL0     C54007   2.875   9.159   6.359 -0.8893 -0.6433 -0.3063
  401MOL0     O54008   2.985   9.147   6.444 -0.1342  0.1334  0.1397
  401MOL0     C54009   3.042   9.026   6.475 -0.3849  0.2642  0.3012
  401MOL0     C54010   3.174   9.053   6.530  0.0460  0.0460 -0.1824
  401MOL0     C54011   3.156   9.101   6.673  0.8921 -0.7569  0.1167
  401MOL0     C54012   3.080   9.016   6.768  0.0651  0.8553  1.1660
  401MOL0     C54013   3.116   9.058   6.909 -0.2285  0.4534  0.2619
  401MOL0     C54014   3.014   9.040   7.017 -0.0059 -0.0164  1.0411
  401MOL0     C54015   2.986   8.890   7.052 -0.0509 -0.1030 -0.3108
  401MOL0     C54016   3.068   8.837   7.177  0.2204 -0.1071 -1.2691
  401MOL0     N54017   3.008   8.885   7.300  0.3854  0.1384 -0.9968
  401MOL0     C54018   2.891   8.833   7.351  1.2770 -0.0980 -0.8674
  401MOL0     C54019   2.870   8.904   7.468  0.3430 -0.5838 -0.3612
  401MOL0     C54020   2.776   8.857   7.579  0.0908  0.5645 -0.0626
  401MOL0     C54021   2.633   8.897   7.553  0.5896  0.1561 -0.4766
  401MOL0     C54022   2.577   8.855   7.418  0.3717 -0.1314 -0.5550
  401MOL0     C54023   2.421   8.862   7.406 -0.1013  0.0848 -0.4053
  401MOL0     O54024   2.382   8.991   7.443  0.2970  0.5632  0.5816
  401MOL0     C54025   2.249   9.027   7.444  0.1953 -0.3743  0.6476
  401MOL0     C54026   2.148   8.968   7.360  0.3955 -0.4949 -0.5249
  401MOL0     C54027   2.008   9.005   7.379  0.0702 -0.5115 -0.2818
  401MOL0     C54028   1.979   9.103   7.473 -0.7988  0.4941 -0.3572
  401MOL0     C54029   1.843   9.167   7.473 -0.4440  0.0657  1.2169
  401MOL0     O54030   1.836   9.283   7.553  0.9500  0.1364 -0.1190
  401MOL0     C54031   1.709   9.335   7.576 -0.6132  0.1323 -0.9267
  401MOL0     C54032   1.656   9.434   7.495  0.1469 -0.2536 -0.6595
  401MOL0     C54033   1.525   9.485   7.511 -0.5255  0.0079 -0.2340
  401MOL0     C54034   1.454   9.443   7.621 -0.2511 -0.2350 -0.6603
  401MOL0     O54035   1.334   9.513   7.636 -0.6577 -0.0327 -0.3007
  401MOL0     C54036   1.240   9.458   7.729 -1.0707  0.2925 -0.1665
  401MOL0     C54037   1.097   9.514   7.717 -0.2012 -0.1857  1.0189
  401MOL0     C54038   1.020   9.517   7.848  0.4854 -0.2222 -0.6376
  401MOL0     C54039   0.875   9.561   7.805 -0.0357 -0.5055 -0.2869
  401MOL0     C54040   0.773   9.556   7.926 -0.3713 -0.3113  0.3017
  401MOL0     C54041   0.654   9.643   7.907 -0.4348  0.1898 -0.4615
  401MOL0     C54042   0.558   9.620   8.033  0.2587 -0.0810  0.1900
  401MOL0     C54043   0.444   9.724   8.040  0.5278  0.4854  0.1313
  401MOL0    Cl54044   0.302   9.623   8.045 -0.2322  0.1824  0.7922
  401MOL0     C54045   1.501   9.339   7.705  0.1248 -0.2103  0.1162
  401MOL0     C54046   1.628   9.283   7.678 -0.1180 -1.0439 -1.3435
  401MOL0     O54047   1.754   9.105   7.411 -0.4658 -0.0152 -1.3683
  401MOL0     C54048   2.079   9.166   7.542 -0.0331  0.3429 -0.4441
  401MOL0     C54049   2.209   9.129   7.527 -0.0565 -0.7588 -0.4917
  401MOL0     N54050   2.969   8.999   7.477 -0.0711 -0.0356 -1.1330
  401MOL0     N54051   3.041   8.996   7.366  0.0903 -0.1748  0.0602
  401MOL0     C54052   2.787   9.054   6.345  0.4421  0.5011  0.3643
  401MOL0     C54053   2.662   9.067   6.286  0.1984 -0.0016 -0.4603
  401MOL0     C54054   2.296   9.286   6.076  0.3629 -0.3622 -0.1177
  401MOL0     C54055   2.308   9.206   5.953 -0.3532 -0.1196 -0.1528
  401MOL0     C54056   2.214   9.219   5.855 -0.6396 -0.0177 -0.0594
  401MOL0     C54057   2.097   9.298   5.865  0.2024 -0.7498  0.0983
  401MOL0     O54058   2.014   9.298   5.759  0.2199  0.1447  0.0793
  401MOL0     C54059   1.876   9.294   5.783 -0.3450  0.3426 -0.1552
  401MOL0     C54060   1.817   9.278   5.636 -0.2394 -0.6630 -1.2815
  401MOL0     C54061   1.677   9.248   5.670 -0.8682 -0.0889 -0.5248
  401MOL0     C54062   1.577   9.285   5.559 -0.2717 -0.0516  0.2837
  401MOL0     C54063   1.435   9.244   5.596 -0.0009 -0.5253 -0.5613
  401MOL0     C54064   1.319   9.220   5.617  0.0130  0.8089  1.0569
  401MOL0     C54065   2.080   9.371   5.982  0.1256 -0.0776 -0.6545
  401MOL0     C54066   2.171   9.360   6.096 -0.5226 -0.0473  0.0771
  401MOL0     C54067   2.129   9.438   6.226 -0.4155  0.8817  1.0961
  401MOL0     H54068   2.682   9.391   6.199  3.1610  0.6842 -0.3144
  401MOL0     H54069   2.908   9.361   6.306  0.1845  0.2886 -3.1361
  401MOL0     H54070   2.965   8.979   6.536 -2.1081  0.4113 -1.6396
  401MOL0     H54071   3.061   8.953   6.396 -2.4115 -2.0517  1.8065
  401MOL0     H54072   3.234   9.115   6.463  0.9861 -1.4874 -0.8335
  401MOL0     H54073   3.230   8.964   6.560 -0.0494  0.1510  0.3259
  401MOL0     H54074   3.118   9.203   6.673  0.7338 -0.8149  0.2690
  401MOL0     H54075   3.252   9.101   6.726 -1.1713  0.2094  4.3097
  401MOL0     H54076   2.975   9.043   6.756  0.5432  1.7720 -1.6547
  401MOL0     H54077   3.104   8.910   6.756 -0.7354  0.4710  2.7863
  401MOL0     H54078   3.211   9.012   6.936 -1.5047 -2.4287  0.1652
  401MOL0     H54079   3.127   9.167   6.900  1.0544  0.3704  0.7436
  401MOL0     H54080   3.044   9.099   7.104 -0.6228  0.2339  1.0882
  401MOL0     H54081   2.921   9.090   6.988  0.1712 -0.7096 -0.8695
  401MOL0     H54082   3.006   8.825   6.967 -1.1016  1.2475 -1.6541
  401MOL0     H54083   2.880   8.878   7.076  0.2905  0.5631  1.6881
  401MOL0     H54084   3.065   8.728   7.184 -0.9697  0.0343  1.1033
  401MOL0     H54085   3.171   8.872   7.166  0.3366 -0.0897 -0.1881
  401MOL0     H54086   2.833   8.752   7.308  1.5981  0.2734 -2.0726
  401MOL0     H54087   2.782   8.750   7.600  3.2042  0.6471 -0.0180
  401MOL0     H54088   2.816   8.905   7.669 -0.2171  0.6602  0.0242
  401MOL0     H54089   2.578   8.851   7.635  1.3599  1.5523  0.8975
  401MOL0     H54090   2.622   9.005   7.566  1.7250  0.2693 -0.3404
  401MOL0     H54091   2.600   8.749   7.403 -1.5301 -0.5632 -0.7434
  401MOL0     H54092   2.631   8.908   7.340  0.9759 -0.5540 -0.4279
  401MOL0     H54093   2.368   8.791   7.470  1.2975 -0.2223  0.4435
  401MOL0     H54094   2.397   8.841   7.301  3.1996  1.3775 -1.5220
  401MOL0     H54095   2.162   8.889   7.287 -2.7601 -0.1430 -1.6930
  401MOL0     H54096   1.931   8.962   7.316 -0.0811 -0.2934 -0.2450
  401MOL0     H54097   1.701   9.488   7.412 -2.2999  1.0007 -1.2817
  401MOL0     H54098   1.494   9.576   7.462  0.2442  1.1024  1.2373
  401MOL0     H54099   1.233   9.352   7.703 -0.4285 -0.2992  1.8534
  401MOL0     H54100   1.282   9.469   7.830 -1.3880 -0.8340  0.1092
  401MOL0     H54101   1.113   9.616   7.681  1.8986 -1.8537 -3.4649
  401MOL0     H54102   1.047   9.459   7.637 -0.6889  0.4276  0.8941
  401MOL0     H54103   1.024   9.416   7.890 -1.6457 -0.3608 -0.6408
  401MOL0     H54104   1.064   9.581   7.925  1.3123 -2.2754  0.6743
  401MOL0     H54105   0.833   9.500   7.725 -1.8280  1.4045 -0.9117
  401MOL0     H54106   0.879   9.661   7.759  0.1613 -1.1162 -1.6246
  401MOL0     H54107   0.824   9.594   8.015 -1.3848 -3.2870  2.3033
  401MOL0     H54108   0.742   9.452   7.937 -1.2149 -0.2196 -0.9622
  401MOL0     H54109   0.678   9.747   7.884  0.3175 -0.0806 -0.9004
  401MOL0     H54110   0.601   9.601   7.821  2.0309 -2.9576 -0.6142
  401MOL0     H54111   0.615   9.625   8.126  1.6451  0.6088 -0.6800
  401MOL0     H54112   0.520   9.517   8.036 -2.6161  0.8173 -1.1488
  401MOL0     H54113   0.456   9.779   8.134 -2.4679 -2.1305  2.2700
  401MOL0     H54114   0.456   9.792   7.955 -2.2174  1.1993  0.2383
  401MOL0     H54115   1.446   9.309   7.793  0.0787  2.0478  0.9217
  401MOL0     H54116   1.661   9.202   7.742  1.3137 -0.6897 -1.6183
  401MOL0     H54117   2.063   9.250   7.608  0.4307 -0.8239  1.2103
  401MOL0     H54118   2.289   9.178   7.583 -0.5818 -1.1444  0.6219
  401MOL0     H54119   2.802   8.954   6.384  0.8022  0.8238  1.0592
  401MOL0     H54120   2.605   8.976   6.272 -0.6624  0.0838  2.0691
  401MOL0     H54121   2.393   9.140   5.945 -0.9786 -1.0982  0.9193
  401MOL0     H54122   2.236   9.177   5.758  0.2511 -0.4847  0.3319
  401MOL0     H54123   1.838   9.385   5.829 -1.1351 -0.7686  1.4839
  401MOL0     H54124   1.856   9.214   5.854 -1.0258  0.4833 -0.1863
  401MOL0     H54125   1.869   9.200   5.582  3.4004  0.7656 -0.1417
  401MOL0     H54126   1.819   9.368   5.574  1.9233  0.7463  0.6635
  401MOL0     H54127   1.637   9.314   5.749 -1.0818  0.9010 -1.4373
  401MOL0     H54128   1.669   9.144   5.704  1.2217 -0.1966 -0.2529
  401MOL0     H54129   1.585   9.390   5.529  2.2249 -0.0445  0.7490
  401MOL0     H54130   1.609   9.220   5.476 -0.5604 -0.4784  0.5032
  401MOL0     H54131   1.215   9.210   5.641 -0.9466 -0.6575 -2.9573
  401MOL0     H54132   2.002   9.445   5.990 -1.0716 -1.2459 -1.2187
  401MOL0     H54133   2.183   9.533   6.224 -0.1895  0.7400 -0.0629
  401MOL0     H54134   2.025   9.469   6.232 -0.7394  0.0584  0.1125
  401MOL0     H54135   2.163   9.379   6.312  1.1006  0.4751  0.2602
  402MOL0     O54136   9.320   9.613   9.930 -0.0274  0.0669  0.4407
  402MOL0     C54137   9.249   9.554  10.008  0.4530 -0.6227  0.6556
  402MOL0     O54138   9.284   9.449  10.086  0.2817 -0.2802  0.0367
  402MOL0     C54139   9.401   9.391  10.077 -0.6561 -0.0210 -0.2082
  402MOL0     C54140   9.410   9.251  10.083 -0.1703  0.0889 -0.1230
  402MOL0     C54141   9.534   9.192  10.098  0.0680  0.2850  0.8085
  402MOL0     C54142   9.649   9.267  10.098 -0.1233 -0.1718  0.2348
  402MOL0     O54143   9.773   9.206  10.115  0.5623  0.0099  0.2409
  402MOL0     C54144   9.883   9.267  10.046 -0.3243 -0.5566  0.5609
  402MOL0     C54145   9.970   9.155   9.993  0.2558 -0.2570 -0.3458
  402MOL0     C54146  10.095   9.219   9.940  0.5751  0.4541 -0.2635
  402MOL0     C54147  10.161   9.129   9.839 -0.2119 -0.2271  0.0397
  402MOL0     C54148  10.305   9.168   9.787 -0.3714  0.2544  1.1732
  402MOL0     C54149  10.320   9.105   9.652 -0.2965  0.0825  0.0555
  402MOL0     C54150  10.461   9.141   9.598  1.0077 -0.4676 -0.3066
  402MOL0     C54151  10.490   9.104   9.458 -0.1148  0.0133 -0.2257
  402MOL0     N54152  10.499   8.958   9.428 -0.1289  0.1262  0.4719
  402MOL0     C54153  10.611   8.878   9.420  0.2780 -0.1896  0.1707
  402MOL0     C54154  10.553   8.759   9.382  0.0640 -0.1599  0.0287
  402MOL0     C54155  10.635   8.642   9.351  0.6794 -0.3351  0.0933
  402MOL0     C54156  10.608   8.565   9.223  1.2849  0.1816  0.0449
  402MOL0     C54157  10.703   8.443   9.206  0.6778 -0.3193 -0.7221
  402MOL0     C54158  10.844   8.481   9.182 -0.2237  0.1478 -0.6406
  402MOL0     O54159  10.908   8.364   9.133 -0.4811  0.3133  0.1567
  402MOL0     C54160  11.035   8.378   9.091 -0.0535 -0.1417 -0.2294
  402MOL0     C54161  11.093   8.264   9.031 -0.6254  0.1845 -0.4588
  402MOL0     C54162  11.233   8.257   9.009  0.0970 -0.5797 -0.0158
  402MOL0     C54163  11.314   8.371   9.017 -0.3021  0.3836 -0.0950
  402MOL0     C54164  11.460   8.387   8.970 -0.5960 -0.0883 -0.2492
  402MOL0     O54165  11.508   8.308   8.880 -0.8051  0.7203 -0.0793
  402MOL0     C54166  11.640   8.337   8.837  0.7886  0.2593 -0.4824
  402MOL0     C54167  11.659   8.462   8.786 -0.8419  0.4912  0.3150
  402MOL0     C54168  11.789   8.502   8.757 -0.0412 -0.7556  0.9326
  402MOL0     C54169  11.897   8.418   8.770  0.0632 -0.0634 -0.5966
  402MOL0     O54170  12.016   8.453   8.714  0.4557  0.0017 -0.7859
  402MOL0     C54171  12.063   8.355   8.606  0.3559 -0.0307 -0.4619
  402MOL0     C54172  12.201   8.411   8.556  0.3964  0.4226 -0.2518
  402MOL0     C54173  12.298   8.439   8.663  0.1176  0.0163 -0.4153
  402MOL0     C54174  12.343   8.321   8.752 -0.1739 -0.2923 -0.5301
  402MOL0     C54175  12.488   8.340   8.799 -0.8450 -0.1863 -0.5237
  402MOL0     C54176  12.509   8.466   8.884 -0.5207  0.6537  0.1005
  402MOL0     C54177  12.655   8.480   8.944 -0.6812 -0.1641 -0.1285
  402MOL0     C54178  12.734   8.588   8.875 -0.3834  0.0247 -0.3664
  402MOL0    Cl54179  12.660   8.757   8.909  0.2405  0.6377  0.0704
  402MOL0     C54180  11.875   8.287   8.817 -0.2714 -0.6743  0.0844
  402MOL0     C54181  11.744   8.250   8.855 -0.3502 -0.0036 -0.7328
  402MOL0     O54182  11.530   8.477   9.015 -0.1722 -0.0312  0.6812
  402MOL0     C54183  11.253   8.486   9.084  0.5383 -0.2261  0.4075
  402MOL0     C54184  11.122   8.484   9.122 -0.3123  0.7134 -0.0007
  402MOL0     N54185  10.419   8.777   9.354 -0.4007  1.0712 -0.6809
  402MOL0     N54186  10.391   8.896   9.388  0.0414  0.2271  0.5391
  402MOL0     C54187   9.639   9.409  10.092  0.1474 -0.8482  0.6787
  402MOL0     C54188   9.516   9.465  10.086 -0.7541 -0.6056  0.4500
  402MOL0     C54189   9.109   9.611  10.026 -0.1224 -0.2311  0.0833
  402MOL0     C54190   9.080   9.733   9.966 -0.0610  0.0552  0.5469
  402MOL0     C54191   8.956   9.791   9.972  0.6538 -0.7151 -0.1033
  402MOL0     C54192   8.854   9.719  10.036 -0.2298 -0.0413 -0.7683
  402MOL0     O54193   8.723   9.765  10.041  0.9849  0.4961 -0.3908
  402MOL0     C54194   8.668   9.855   9.943 -0.1208  0.5732 -0.2705
  402MOL0     C54195   8.527   9.893   9.984 -0.3150  1.1539 -0.1228
  402MOL0     C54196   8.474  10.020   9.930  1.1663 -0.1085  0.2885
  402MOL0     C54197   8.461  10.006   9.783 -0.1656 -0.7611  0.0131
  402MOL0     C54198   8.397  10.125   9.733 -0.7864 -0.3464 -0.5377
  402MOL0     C54199   8.343  10.229   9.701 -0.9549 -0.2642 -0.3252
  402MOL0     C54200   8.883   9.606  10.113 -0.5906 -0.4605 -0.0606
  402MOL0     C54201   9.009   9.555  10.109  0.6469 -0.3262 -0.4650
  402MOL0     C54202   9.021   9.428  10.183  0.1921 -0.0341 -0.5019
  402MOL0     H54203   9.315   9.199  10.088 -0.8085  1.3222  1.9299
  402MOL0     H54204   9.554   9.086  10.101  1.7676  0.4111 -2.2748
  402MOL0     H54205   9.845   9.316   9.956 -1.7532  0.4671  1.6663
  402MOL0     H54206   9.945   9.340  10.099 -0.0941  0.3606 -0.9205
  402MOL0     H54207   9.909   9.110   9.914 -1.6003 -0.7923  1.2975
  402MOL0     H54208   9.997   9.087  10.074  0.3610  2.2895  1.9088
  402MOL0     H54209  10.165   9.247  10.019  0.1050 -2.1387  1.1832
  402MOL0     H54210  10.076   9.313   9.886  1.1779 -0.5675 -2.3591
  402MOL0     H54211  10.176   9.027   9.875  1.1901 -0.2244 -0.4602
  402MOL0     H54212  10.095   9.124   9.751  1.2714  0.2666 -1.1397
  402MOL0     H54213  10.319   9.276   9.780  0.6676  0.0440 -1.5443
  402MOL0     H54214  10.388   9.131   9.849 -0.4055  0.5003  1.3646
  402MOL0     H54215  10.315   8.996   9.660  0.1569 -0.0417 -1.2012
  402MOL0     H54216  10.248   9.142   9.579  1.4605 -0.1557 -1.8799
  402MOL0     H54217  10.541   9.099   9.661 -0.3501 -0.2517  1.6600
  402MOL0     H54218  10.475   9.249   9.609 -1.4845 -0.1064 -0.1866
  402MOL0     H54219  10.400   9.137   9.405 -0.4905  0.7574  0.8453
  402MOL0     H54220  10.573   9.163   9.418 -1.4092  1.2849 -1.1660
  402MOL0     H54221  10.712   8.906   9.448 -0.8990  3.1908  1.4768
  402MOL0     H54222  10.735   8.684   9.345 -0.7016  3.4917  1.2012
  402MOL0     H54223  10.627   8.565   9.429 -0.2551  0.3999  0.7452
  402MOL0     H54224  10.504   8.533   9.220  2.0069 -2.4035  0.2922
  402MOL0     H54225  10.634   8.634   9.142 -0.7193  0.7849 -0.1384
  402MOL0     H54226  10.674   8.395   9.112  2.4962 -1.7104 -0.6382
  402MOL0     H54227  10.684   8.369   9.284 -2.5246 -1.5850 -2.5213
  402MOL0     H54228  10.886   8.515   9.277 -1.3120  1.0064 -0.4414
  402MOL0     H54229  10.872   8.565   9.118  1.8886 -1.5780 -2.0819
  402MOL0     H54230  11.022   8.185   9.010 -2.3017  0.6881  2.5793
  402MOL0     H54231  11.275   8.169   8.961  1.8065 -0.9812  2.0913
  402MOL0     H54232  11.570   8.516   8.754 -0.2380  2.0508  1.1778
  402MOL0     H54233  11.790   8.601   8.712  1.1028 -1.0394  0.2860
  402MOL0     H54234  12.074   8.255   8.648  0.9611  0.3843  0.3962
  402MOL0     H54235  11.987   8.344   8.528 -0.0733  2.9819 -0.6048
  402MOL0     H54236  12.241   8.340   8.482  2.9092  0.5455  0.8933
  402MOL0     H54237  12.195   8.498   8.490 -0.2384  0.0880 -0.6570
  402MOL0     H54238  12.380   8.480   8.603  1.3086  1.7409  2.2217
  402MOL0     H54239  12.268   8.520   8.730 -2.1269  0.4974 -1.8961
  402MOL0     H54240  12.328   8.226   8.698  1.4639 -2.7387  2.9299
  402MOL0     H54241  12.278   8.309   8.839  3.3581 -0.4062  2.3215
  402MOL0     H54242  12.555   8.357   8.714 -1.1968  1.0902 -0.5646
  402MOL0     H54243  12.520   8.257   8.863  0.0268  2.0151  2.1293
  402MOL0     H54244  12.487   8.549   8.816  0.6643 -1.1792 -2.6978
  402MOL0     H54245  12.443   8.481   8.970  1.5607  0.8555  1.7289
  402MOL0     H54246  12.719   8.391   8.930 -1.4105 -0.4580 -1.9607
  402MOL0     H54247  12.647   8.495   9.052  3.5990  3.8518 -0.0894
  402MOL0     H54248  12.830   8.594   8.926 -0.4803 -0.6469 -0.0953
  402MOL0     H54249  12.752   8.558   8.772  1.6274  0.4861 -0.1794
  402MOL0     H54250  11.948   8.209   8.831  1.9315  1.3245  0.3494
  402MOL0     H54251  11.734   8.158   8.910  0.4823  1.5207  2.1629
  402MOL0     H54252  11.314   8.576   9.096  1.5365 -0.5205 -1.9975
  402MOL0     H54253  11.090   8.575   9.172  1.8498  0.5384  1.8591
  402MOL0     H54254   9.725   9.473  10.100 -1.6524  2.1714 -1.8362
  402MOL0     H54255   9.516   9.573  10.075  1.9239 -0.0643  4.0289
  402MOL0     H54256   9.160   9.787   9.916  0.7134 -0.5867  1.0581
  402MOL0     H54257   8.941   9.888   9.925 -2.1109 -2.1516 -2.5175
  402MOL0     H54258   8.671   9.813   9.842  1.8976 -4.2968  1.5063
  402MOL0     H54259   8.730   9.946   9.939  0.8757 -0.1340 -3.5141
  402MOL0     H54260   8.523   9.887  10.093 -3.0871 -2.0463 -0.2329
  402MOL0     H54261   8.462   9.809   9.959 -1.2710  1.9082 -0.2337
  402MOL0     H54262   8.526  10.115   9.948  1.0177 -0.2415  1.5471
  402MOL0     H54263   8.373  10.032   9.971 -1.8547 -0.4568 -5.9287
  402MOL0     H54264   8.559   9.988   9.738  0.3669  0.6066  0.5735
  402MOL0     H54265   8.405   9.918   9.752 -1.2487 -0.1548  0.2107
  402MOL0     H54266   8.298  10.323   9.678 -0.5429  0.3857  1.3320
  402MOL0     H54267   8.812   9.564  10.183  2.2420 -2.3411  1.9151
  402MOL0     H54268   9.105   9.439  10.252  0.7373 -2.1176 -0.7566
  402MOL0     H54269   8.932   9.398  10.240  2.2739  1.5009  4.0496
  402MOL0     H54270   9.051   9.347  10.116  0.2118 -1.0735  0.7125
  403MOL0     O54271  10.232   1.057   8.274 -1.2608 -0.4908  0.0017
  403MOL0     C54272  10.180   1.136   8.351  0.3688  0.1936  0.6243
  403MOL0     O54273  10.245   1.220   8.437  0.1601 -0.4341  0.4238
  403MOL0     C54274  10.376   1.199   8.463  0.2313  0.5687 -0.4111
  403MOL0     C54275  10.411   1.079   8.523  0.1800 -0.4857  0.0362
  403MOL0     C54276  10.536   1.051   8.574 -0.3076 -0.3766 -0.1107
  403MOL0     C54277  10.633   1.144   8.562 -0.6040  0.5245 -0.3885
  403MOL0     O54278  10.748   1.117   8.622 -0.5266 -0.5090 -0.7579
  403MOL0     C54279  10.858   1.109   8.522  0.2287  0.2950 -0.1874
  403MOL0     C54280  10.943   0.988   8.554  0.3956  0.1290  0.4090
  403MOL0     C54281  11.025   0.942   8.438 -0.3256  0.3228  0.2737
  403MOL0     C54282  11.159   1.018   8.426 -0.6214 -0.2310 -1.0214
  403MOL0     C54283  11.257   0.989   8.542  0.0664  0.3231  0.0455
  403MOL0     C54284  11.402   1.001   8.502  0.2928 -0.2262 -0.5770
  403MOL0     C54285  11.484   0.911   8.600 -0.4847  0.4698 -0.7692
  403MOL0     C54286  11.637   0.932   8.577  0.5478  1.3053 -0.0107
  403MOL0     N54287  11.733   0.857   8.661 -1.1280  0.5744 -0.1056
  403MOL0     C54288  11.716   0.729   8.702  1.0031 -0.0962 -1.1965
  403MOL0     C54289  11.843   0.686   8.737  0.6393 -0.1308 -0.1090
  403MOL0     C54290  11.872   0.554   8.793 -0.5320 -0.7440  0.7895
  403MOL0     C54291  11.941   0.475   8.687  0.2606  0.1051 -0.0618
  403MOL0     C54292  11.998   0.339   8.735  0.2311  0.7104 -0.2863
  403MOL0     C54293  12.042   0.242   8.620 -0.2089  0.2124  0.4508
  403MOL0     O54294  12.029   0.107   8.663 -0.1215 -0.2261  0.1010
  403MOL0     C54295  12.128   0.053   8.736 -0.0929  0.0976 -0.1897
  403MOL0     C54296  12.104  -0.077   8.788 -0.3061  0.1680  0.1518
  403MOL0     C54297  12.214  -0.152   8.850  0.0166 -0.1569 -0.7215
  403MOL0     C54298  12.340  -0.096   8.869  0.4703 -0.0032 -0.0571
  403MOL0     C54299  12.445  -0.178   8.930  0.7026  0.8762 -0.6958
  403MOL0     O54300  12.423  -0.312   8.940  0.0202  0.3922  0.6378
  403MOL0     C54301  12.527  -0.398   8.920 -1.1660 -0.2846  0.5391
  403MOL0     C54302  12.632  -0.377   8.829  0.3972 -0.3577 -0.3506
  403MOL0     C54303  12.721  -0.482   8.801 -0.2614 -0.4988 -0.9947
  403MOL0     C54304  12.717  -0.606   8.864  0.6171 -1.2090  0.6813
  403MOL0     O54305  12.807  -0.704   8.852 -0.1434 -0.0057 -0.5165
  403MOL0     C54306  12.904  -0.702   8.755 -0.6324 -0.4474  0.4819
  403MOL0     C54307  13.015  -0.799   8.788  0.8866  0.6188  0.3017
  403MOL0     C54308  13.140  -0.769   8.702 -0.5505  0.5208 -0.2797
  403MOL0     C54309  13.124  -0.793   8.545 -0.0096  0.4542 -0.7360
  403MOL0     C54310  13.251  -0.769   8.461  0.9125  0.0516 -0.2876
  403MOL0     C54311  13.380  -0.850   8.504  0.2231 -0.1077 -0.4194
  403MOL0     C54312  13.495  -0.819   8.402  0.9485 -0.2020  0.2809
  403MOL0     C54313  13.604  -0.911   8.440  0.3216  0.2011 -0.0575
  403MOL0    Cl54314  13.734  -0.883   8.318  0.0953 -0.1522 -0.2988
  403MOL0     C54315  12.609  -0.623   8.952 -0.7901 -0.1709 -0.2765
  403MOL0     C54316  12.515  -0.526   8.966  0.0365  0.2420 -1.1211
  403MOL0     O54317  12.546  -0.123   8.972  0.9472  0.1475 -0.0235
  403MOL0     C54318  12.357   0.035   8.820 -0.2928  1.1170  0.3916
  403MOL0     C54319  12.254   0.102   8.762 -0.0986 -0.3813  0.9678
  403MOL0     N54320  11.931   0.797   8.733 -0.9306 -0.2459 -0.5809
  403MOL0     N54321  11.863   0.897   8.687  0.2026  0.1286 -0.3074
  403MOL0     C54322  10.609   1.265   8.497  0.7368 -0.3937  1.1020
  403MOL0     C54323  10.480   1.290   8.442 -0.3681 -0.9700 -0.2954
  403MOL0     C54324  10.034   1.156   8.346 -0.4884 -0.3823 -0.0574
  403MOL0     C54325   9.977   1.260   8.413  0.9736  0.6642 -0.9803
  403MOL0     C54326   9.839   1.279   8.422  0.4702 -0.3129  0.8989
  403MOL0     C54327   9.756   1.189   8.356 -0.2123 -0.1061 -0.0272
  403MOL0     O54328   9.621   1.216   8.354 -0.4140  0.2296 -0.4477
  403MOL0     C54329   9.527   1.102   8.356 -0.1879  0.1463 -0.4573
  403MOL0     C54330   9.453   1.101   8.228  0.4874  0.6408  0.4040
  403MOL0     C54331   9.347   0.991   8.218  0.1071  0.2931 -1.0632
  403MOL0     C54332   9.223   0.995   8.299 -1.0927  0.3853  0.5323
  403MOL0     C54333   9.140   1.106   8.254 -0.5066  0.4642 -0.2650
  403MOL0     C54334   9.058   1.182   8.217  0.0656  0.3284  0.8784
  403MOL0     C54335   9.818   1.080   8.281 -0.0008 -0.0547  0.7605
  403MOL0     C54336   9.950   1.055   8.287  0.0345 -0.4365  0.8135
  403MOL0     C54337   9.992   0.918   8.227 -0.7153 -0.4810 -0.3810
  403MOL0     H54338  10.332   1.006   8.539 -0.8351  0.1675 -1.7140
  403MOL0     H54339  10.565   0.954   8.613 -1.6216  0.2346  2.6038
  403MOL0     H54340  10.822   1.115   8.419 -0.1318  0.7445 -0.0413
  403MOL0     H54341  10.923   1.197   8.524  0.0930  0.5910 -3.3427
  403MOL0     H54342  10.888   0.898   8.582  2.5407 -2.6667 -3.4161
  403MOL0     H54343  11.000   1.017   8.643 -1.6770  2.7504  1.0117
  403MOL0     H54344  10.968   0.952   8.345  0.6841 -0.7816 -0.5010
  403MOL0     H54345  11.056   0.838   8.446  1.4889  0.9465  2.1762
  403MOL0     H54346  11.208   0.992   8.332  1.4182  0.4518 -0.2029
  403MOL0     H54347  11.137   1.125   8.430  1.6267  0.2951 -1.1408
  403MOL0     H54348  11.225   1.025   8.640 -2.5652 -2.6067  0.4132
  403MOL0     H54349  11.236   0.882   8.544 -2.1142  0.6314 -1.9205
  403MOL0     H54350  11.420   0.968   8.399 -4.5963 -2.6728 -0.9012
  403MOL0     H54351  11.441   1.104   8.504 -0.4303  0.0460  0.8409
  403MOL0     H54352  11.464   0.809   8.567  1.9292  0.2457 -1.7509
  403MOL0     H54353  11.474   0.927   8.707  3.4949 -0.7049 -0.0596
  403MOL0     H54354  11.640   0.887   8.478 -2.0028  1.7988 -0.3818
  403MOL0     H54355  11.667   1.036   8.559  2.4152  0.7316 -0.4802
  403MOL0     H54356  11.618   0.684   8.715  0.7513  0.0174 -2.4844
  403MOL0     H54357  11.941   0.570   8.876 -1.7403  1.0592  1.5128
  403MOL0     H54358  11.781   0.511   8.835 -2.6963  1.4152 -1.3159
  403MOL0     H54359  11.864   0.460   8.610 -0.9135  2.3399  0.6086
  403MOL0     H54360  12.023   0.531   8.642 -0.6340  1.6519  0.1768
  403MOL0     H54361  11.924   0.279   8.789  1.3626 -0.3452  0.1351
  403MOL0     H54362  12.075   0.364   8.808 -1.0793  0.9183  1.0732
  403MOL0     H54363  12.143   0.268   8.587 -0.9015 -2.4098 -4.7334
  403MOL0     H54364  11.974   0.255   8.535 -0.9317  0.7090  1.0904
  403MOL0     H54365  12.007  -0.124   8.773  0.3224 -1.4808  0.9386
  403MOL0     H54366  12.190  -0.252   8.886 -2.0044  1.2174  2.0305
  403MOL0     H54367  12.652  -0.281   8.781 -0.7147  1.1148  1.9582
  403MOL0     H54368  12.800  -0.456   8.731  0.3141  0.3456 -0.0437
  403MOL0     H54369  12.867  -0.699   8.652  1.9855  0.8015 -0.5103
  403MOL0     H54370  12.948  -0.602   8.763 -0.2631 -0.5693 -0.0231
  403MOL0     H54371  13.030  -0.782   8.895 -5.1537  0.1464  1.6004
  403MOL0     H54372  12.973  -0.896   8.761 -1.7740  2.3553 -2.3676
  403MOL0     H54373  13.172  -0.665   8.710  0.7452  0.0191  1.7637
  403MOL0     H54374  13.227  -0.821   8.742  1.0270  2.5327 -0.9431
  403MOL0     H54375  13.049  -0.726   8.503  1.8585  1.2750 -2.9700
  403MOL0     H54376  13.093  -0.898   8.537  1.2934 -0.8081  5.4352
  403MOL0     H54377  13.272  -0.662   8.464  0.4177  0.1271  0.6220
  403MOL0     H54378  13.230  -0.801   8.358 -0.8958 -3.5726  1.0207
  403MOL0     H54379  13.413  -0.835   8.608 -2.8755 -2.3596  1.0860
  403MOL0     H54380  13.358  -0.956   8.484  1.3807 -0.5397  0.4367
  403MOL0     H54381  13.542  -0.721   8.416  2.2540 -0.6809 -0.5902
  403MOL0     H54382  13.465  -0.830   8.298  2.6870  2.2264 -0.5795
  403MOL0     H54383  13.640  -0.879   8.538  0.0435  1.8406 -0.4551
  403MOL0     H54384  13.573  -1.015   8.448 -0.4838  0.6034  3.9792
  403MOL0     H54385  12.586  -0.715   9.003  0.6504 -0.4466 -0.0792
  403MOL0     H54386  12.436  -0.549   9.037  0.6855  2.3609  0.3843
  403MOL0     H54387  12.457   0.076   8.831  0.6318 -0.5063 -1.3181
  403MOL0     H54388  12.276   0.206   8.740 -1.0497 -0.0038  1.7132
  403MOL0     H54389  10.685   1.341   8.480  0.3839 -0.7950 -3.6091
  403MOL0     H54390  10.474   1.389   8.398  3.2928 -0.7357 -0.5313
  403MOL0     H54391  10.034   1.333   8.471  1.3814 -1.4622  1.5032
  403MOL0     H54392   9.792   1.363   8.471 -3.8509 -1.3630 -0.9688
  403MOL0     H54393   9.453   1.108   8.437 -1.2003 -1.1411 -1.2305
  403MOL0     H54394   9.576   1.005   8.371 -0.3775  0.0648 -0.3548
  403MOL0     H54395   9.530   1.090   8.151  0.9377  2.5755  0.5280
  403MOL0     H54396   9.399   1.190   8.193  0.0147 -0.0753 -0.7392
  403MOL0     H54397   9.388   0.893   8.242 -1.0354 -0.3100 -1.4834
  403MOL0     H54398   9.322   0.996   8.111 -2.3168  0.4275 -0.5450
  403MOL0     H54399   9.173   0.901   8.275  1.3554 -0.8481 -0.0949
  403MOL0     H54400   9.234   1.003   8.408 -2.0706 -0.5132  0.7149
  403MOL0     H54401   8.978   1.248   8.187 -0.8335 -1.3598 -0.6433
  403MOL0     H54402   9.755   1.003   8.236 -1.2409  0.5276  1.4511
  403MOL0     H54403   9.925   0.865   8.159 -0.7386 -0.5939 -0.2700
  403MOL0     H54404  10.079   0.938   8.163  0.6372  0.8401  1.7426
  403MOL0     H54405  10.022   0.856   8.311  2.9698 -0.1329 -1.2686
  404MOL0     O54406   0.740   7.459  10.858  0.0565 -0.6997  0.6457
  404MOL0     C54407   0.675   7.533  10.934 -0.6017 -0.1605 -0.8132
  404MOL0     O54408   0.724   7.610  11.043  0.3687 -0.3279 -0.0073
  404MOL0     C54409   0.852   7.583  11.074 -0.1305 -0.8362  0.4318
  404MOL0     C54410   0.963   7.625  10.996  0.1994 -0.2310 -0.2278
  404MOL0     C54411   1.100   7.595  11.031 -0.1074  0.4210  0.4631
  404MOL0     C54412   1.122   7.505  11.141 -0.0870  0.5347  0.6786
  404MOL0     O54413   1.251   7.456  11.180 -0.2442 -0.9763 -0.4612
  404MOL0     C54414   1.362   7.490  11.093  0.7191  0.6834 -0.3241
  404MOL0     C54415   1.482   7.407  11.135  0.2535  0.1041 -0.0797
  404MOL0     C54416   1.588   7.430  11.026  0.3733  0.9203  0.5459
  404MOL0     C54417   1.726   7.407  11.077 -0.9177  1.0367 -0.0404
  404MOL0     C54418   1.832   7.485  10.989  0.4212  0.4756 -0.2333
  404MOL0     C54419   1.975   7.490  11.052  0.0831 -0.0097 -0.2325
  404MOL0     C54420   2.078   7.568  10.973 -0.1924  0.4504  0.8357
  404MOL0     C54421   2.122   7.501  10.844  0.2454 -0.2443  0.5218
  404MOL0     N54422   2.215   7.587  10.780 -0.5652  0.3920  0.0276
  404MOL0     C54423   2.321   7.527  10.719 -0.1159  0.4185  0.2093
  404MOL0     C54424   2.388   7.631  10.668 -0.4659  0.7708  0.0406
  404MOL0     C54425   2.510   7.617  10.592  0.6917  0.2965 -0.0236
  404MOL0     C54426   2.616   7.710  10.650  0.4362 -0.4991 -0.6924
  404MOL0     C54427   2.740   7.701  10.559 -0.7055 -0.6847  0.1805
  404MOL0     C54428   2.856   7.795  10.595  0.8605 -0.9861  0.3194
  404MOL0     O54429   2.938   7.722  10.684 -0.1322 -0.0688 -0.2405
  404MOL0     C54430   3.067   7.761  10.720 -0.2016  0.6708 -0.2879
  404MOL0     C54431   3.129   7.878  10.679 -0.1851  0.1765  0.0262
  404MOL0     C54432   3.265   7.890  10.703 -0.4145  0.0692 -0.7200
  404MOL0     C54433   3.348   7.802  10.784  0.0243  0.0589  0.4033
  404MOL0     C54434   3.490   7.828  10.807  0.2439 -0.6981  0.7879
  404MOL0     O54435   3.541   7.781  10.913 -0.0722 -0.0633 -0.0282
  404MOL0     C54436   3.666   7.811  10.960 -0.2104 -0.4754  0.0615
  404MOL0     C54437   3.775   7.810  10.873  0.4359  0.3567  0.4201
  404MOL0     C54438   3.904   7.815  10.926  0.1245 -0.1940  0.9261
  404MOL0     C54439   3.921   7.828  11.063 -0.5788  0.0058 -0.8520
  404MOL0     O54440   4.048   7.852  11.105 -0.9033  0.4501 -0.2438
  404MOL0     C54441   4.110   7.744  11.175 -0.8250  0.1356 -0.0518
  404MOL0     C54442   4.245   7.789  11.247  0.5757  0.9357 -0.6322
  404MOL0     C54443   4.354   7.850  11.150  0.1689 -0.9094  0.0868
  404MOL0     C54444   4.430   7.743  11.077 -0.0578  0.3814  0.1311
  404MOL0     C54445   4.552   7.791  10.998  0.2534  0.2797  0.2857
  404MOL0     C54446   4.625   7.669  10.934 -0.2887 -0.3704  0.4258
  404MOL0     C54447   4.762   7.712  10.882  0.7108 -0.1268  0.1882
  404MOL0     C54448   4.758   7.820  10.767 -0.1890  0.4748  0.1975
  404MOL0    Cl54449   4.919   7.852  10.709 -0.1791 -0.5179  0.2615
  404MOL0     C54450   3.808   7.842  11.145  0.4560  0.5317  0.4193
  404MOL0     C54451   3.683   7.830  11.090 -0.3783 -0.1754  1.1246
  404MOL0     O54452   3.550   7.889  10.718 -0.5508  0.3770 -0.4087
  404MOL0     C54453   3.271   7.695  10.842 -0.2240  0.6064  0.4301
  404MOL0     C54454   3.134   7.672  10.809  0.9904  0.1456  0.7173
  404MOL0     N54455   2.307   7.744  10.683 -0.2508 -0.4871 -0.1356
  404MOL0     N54456   2.205   7.720  10.755 -0.4528 -0.3240  0.2086
  404MOL0     C54457   1.018   7.453  11.214 -0.0227  0.0398  0.2345
  404MOL0     C54458   0.884   7.500  11.185  0.4645 -0.0675  0.5302
  404MOL0     C54459   0.517   7.535  10.912  0.3954 -0.3352  0.6353
  404MOL0     C54460   0.433   7.594  11.008 -0.2538  0.0300 -1.2655
  404MOL0     C54461   0.301   7.624  10.989 -0.2688  0.1125  0.1768
  404MOL0     C54462   0.240   7.571  10.877  0.7681 -0.9485 -0.1951
  404MOL0     O54463   0.106   7.582  10.843  0.3471  0.0643  0.1067
  404MOL0     C54464   0.012   7.617  10.942  0.3946 -0.1530 -0.0624
  404MOL0     C54465  -0.120   7.662  10.885  0.3597  0.4869  0.2136
  404MOL0     C54466  -0.223   7.648  11.006 -0.6212 -0.4932 -0.1149
  404MOL0     C54467  -0.368   7.664  10.960 -0.5928 -0.1718 -0.0458
  404MOL0     C54468  -0.384   7.793  10.894  0.8249 -0.4894  0.5482
  404MOL0     C54469  -0.399   7.897  10.831  0.1675 -0.3903  0.2468
  404MOL0     C54470   0.307   7.503  10.780 -0.4147 -0.2392  0.5984
  404MOL0     C54471   0.447   7.484  10.795 -0.8726  0.5965 -0.6442
  404MOL0     C54472   0.518   7.420  10.677  1.0207 -0.5406 -0.0977
  404MOL0     H54473   0.958   7.696  10.913  0.8396 -0.7764 -0.7536
  404MOL0     H54474   1.173   7.633  10.960  0.0857  0.7535  0.8403
  404MOL0     H54475   1.356   7.462  10.988  0.6045  2.3004 -0.7744
  404MOL0     H54476   1.385   7.597  11.097  2.6084  0.3060 -0.2034
  404MOL0     H54477   1.462   7.300  11.132 -2.0751  0.4718  0.2134
  404MOL0     H54478   1.518   7.429  11.236  2.1287 -3.9636  0.3118
  404MOL0     H54479   1.578   7.535  10.995  0.9714  1.3843  1.8871
  404MOL0     H54480   1.569   7.363  10.941 -0.5922  1.2599  0.4759
  404MOL0     H54481   1.740   7.443  11.179 -2.1080  2.0704 -0.2238
  404MOL0     H54482   1.756   7.302  11.087 -1.3186  0.9325  0.0885
  404MOL0     H54483   1.836   7.439  10.890 -0.4044  0.0451 -0.0827
  404MOL0     H54484   1.792   7.587  10.976 -0.6262 -0.0257 -1.1123
  404MOL0     H54485   1.981   7.544  11.147  0.2304  2.9016 -1.7739
  404MOL0     H54486   2.013   7.390  11.075  1.2467  0.8643  1.9339
  404MOL0     H54487   2.155   7.585  11.048 -0.1006  1.0552  0.6118
  404MOL0     H54488   2.038   7.665  10.944 -4.3314 -0.3679  3.0352
  404MOL0     H54489   2.168   7.403  10.861  0.9734  0.2454  1.5201
  404MOL0     H54490   2.033   7.495  10.780  0.8032  0.2085 -0.3053
  404MOL0     H54491   2.354   7.424  10.708 -0.5528  0.4541 -1.9738
  404MOL0     H54492   2.543   7.515  10.612  2.3940  0.5136 -1.4448
  404MOL0     H54493   2.494   7.632  10.485  2.0755 -1.9679 -0.6228
  404MOL0     H54494   2.569   7.808  10.645  0.4545 -0.4641 -0.2522
  404MOL0     H54495   2.637   7.689  10.756 -0.4719  0.8755 -0.2188
  404MOL0     H54496   2.718   7.721  10.454  1.6757 -2.8868 -0.8541
  404MOL0     H54497   2.785   7.601  10.559 -0.4435 -0.5754  1.0085
  404MOL0     H54498   2.820   7.884  10.648 -0.0512  0.8428 -3.0939
  404MOL0     H54499   2.912   7.818  10.505  2.1905 -1.5656  0.9733
  404MOL0     H54500   3.081   7.946  10.609 -2.1163 -1.6323 -0.5141
  404MOL0     H54501   3.317   7.978  10.666 -0.1224 -0.8760 -2.6463
  404MOL0     H54502   3.754   7.795  10.768 -3.4112  1.2824  0.8921
  404MOL0     H54503   3.989   7.811  10.859 -0.0879 -3.9935  0.7100
  404MOL0     H54504   4.046   7.695  11.249  1.2682 -2.6670  0.0601
  404MOL0     H54505   4.141   7.665  11.108 -1.1771  1.9570 -2.5016
  404MOL0     H54506   4.213   7.863  11.321 -0.1186 -2.8197  3.2142
  404MOL0     H54507   4.279   7.695  11.291 -0.1815  1.0921  0.3376
  404MOL0     H54508   4.311   7.918  11.076 -1.1146 -0.0005  1.6035
  404MOL0     H54509   4.421   7.908  11.213 -0.2175 -1.6217  1.1755
  404MOL0     H54510   4.367   7.687  11.007  1.4966 -0.4602 -0.6518
  404MOL0     H54511   4.465   7.675  11.156  0.0510 -0.2286 -0.4260
  404MOL0     H54512   4.621   7.853  11.055 -0.6098 -0.6835  2.5215
  404MOL0     H54513   4.519   7.860  10.921 -2.0970 -2.1904 -1.1079
  404MOL0     H54514   4.637   7.582  10.999  1.4045 -0.8083 -0.4162
  404MOL0     H54515   4.569   7.641  10.843  1.5958  2.6490 -1.8385
  404MOL0     H54516   4.811   7.621  10.847 -0.1659 -0.4327 -0.2873
  404MOL0     H54517   4.803   7.745  10.978 -0.7392  0.6141  0.5924
  404MOL0     H54518   4.683   7.793  10.692  0.1001  0.8902 -0.2484
  404MOL0     H54519   4.733   7.918  10.808  3.1250  2.4207 -1.9415
  404MOL0     H54520   3.819   7.846  11.253 -0.7515 -0.1278  0.5883
  404MOL0     H54521   3.598   7.856  11.153 -0.6310  2.7654 -0.2357
  404MOL0     H54522   3.321   7.629  10.912 -2.4185 -0.3185  1.1949
  404MOL0     H54523   3.073   7.592  10.849  1.6646  0.1773  1.8454
  404MOL0     H54524   1.026   7.396  11.306 -0.8293  0.3125  0.4873
  404MOL0     H54525   0.799   7.464  11.241 -1.7857 -1.4653 -3.3737
  404MOL0     H54526   0.474   7.628  11.102 -0.7572  2.1427 -1.7534
  404MOL0     H54527   0.258   7.689  11.065  0.3242  2.7517 -1.6229
  404MOL0     H54528   0.039   7.693  11.016 -0.5829  1.0236 -0.8904
  404MOL0     H54529  -0.005   7.534  11.012 -2.4127  0.3923 -0.0104
  404MOL0     H54530  -0.148   7.597  10.802  0.4965  0.5137  0.1475
  404MOL0     H54531  -0.117   7.763  10.843 -0.1401  1.0941  1.5694
  404MOL0     H54532  -0.199   7.729  11.076 -1.3232  0.0297 -0.4586
  404MOL0     H54533  -0.222   7.552  11.058  1.1638 -0.3351  0.2026
  404MOL0     H54534  -0.381   7.583  10.888 -3.2401 -0.9021  1.1315
  404MOL0     H54535  -0.447   7.650  11.034 -1.9652 -1.6111 -1.6854
  404MOL0     H54536  -0.418   7.994  10.790 -1.1752 -1.0047 -0.6516
  404MOL0     H54537   0.248   7.471  10.695 -0.6088  0.9757  0.2674
  404MOL0     H54538   0.568   7.324  10.693  1.5016 -0.4629 -1.0813
  404MOL0     H54539   0.454   7.406  10.590  1.8134 -1.5240 -0.5438
  404MOL0     H54540   0.599   7.484  10.641  0.6652 -1.6429 -3.1034
  405MOL0     O54541   6.635   3.717   3.458  0.3671  0.8541  0.7069
  405MOL0     C54542   6.602   3.824   3.416 -0.0869  0.1950  0.4097
  405MOL0     O54543   6.694   3.927   3.381 -0.7051 -0.2364  0.1651
  405MOL0     C54544   6.831   3.919   3.423  0.7316 -0.4890 -0.0582
  405MOL0     C54545   6.899   3.794   3.440 -0.7963 -0.4738 -0.3680
  405MOL0     C54546   7.033   3.786   3.478 -0.8159  0.5138  0.3769
  405MOL0     C54547   7.105   3.912   3.488 -0.0631  0.7616 -0.4602
  405MOL0     O54548   7.243   3.900   3.519 -0.2632  0.2308 -0.3106
  405MOL0     C54549   7.325   4.021   3.529  0.2647  0.2002  0.9999
  405MOL0     C54550   7.466   3.989   3.563 -0.0458  1.2047 -0.0582
  405MOL0     C54551   7.567   4.096   3.609  0.1312  0.6044  0.5365
  405MOL0     C54552   7.697   4.027   3.652 -0.6306 -0.1230 -0.2653
  405MOL0     C54553   7.816   4.125   3.664  0.4836 -0.1422  0.6303
  405MOL0     C54554   7.911   4.153   3.541 -0.3771  0.6852 -0.7344
  405MOL0     C54555   7.943   4.026   3.452  0.5617  0.1265  0.3990
  405MOL0     C54556   8.016   3.920   3.537  0.2290  0.0919  0.3047
  405MOL0     N54557   8.154   3.962   3.564 -0.3482  0.3263 -0.2976
  405MOL0     C54558   8.250   3.948   3.472  0.4738  0.4986 -0.0662
  405MOL0     C54559   8.369   3.955   3.537 -0.5536 -0.4090  0.1765
  405MOL0     C54560   8.501   3.948   3.473  0.7650 -0.0486 -0.5476
  405MOL0     C54561   8.589   4.058   3.533 -0.3487  0.4618 -0.6906
  405MOL0     C54562   8.721   4.060   3.450  1.0733  0.6353  0.1133
  405MOL0     C54563   8.815   4.167   3.502  0.7411 -0.6402  0.2112
  405MOL0     O54564   8.877   4.107   3.614  0.1538  0.0929 -0.2757
  405MOL0     C54565   8.990   4.157   3.675 -0.0236  0.1565  0.4627
  405MOL0     C54566   9.037   4.082   3.782 -0.0910  0.2930  0.4220
  405MOL0     C54567   9.164   4.110   3.839 -0.1165  0.3642 -1.2343
  405MOL0     C54568   9.236   4.223   3.795 -0.3847  0.5667 -0.3082
  405MOL0     C54569   9.367   4.250   3.860 -0.5746  0.7994 -0.2307
  405MOL0     O54570   9.403   4.180   3.968  0.0582 -0.3454  0.4017
  405MOL0     C54571   9.524   4.195   4.022  0.6134  0.7943 -0.5068
  405MOL0     C54572   9.534   4.244   4.150  0.2572  1.5233 -0.3544
  405MOL0     C54573   9.654   4.239   4.216 -0.0027 -0.6352 -0.3478
  405MOL0     C54574   9.772   4.214   4.146 -0.3387 -0.2775 -0.6833
  405MOL0     O54575   9.899   4.229   4.197 -0.4899  0.1902  0.5164
  405MOL0     C54576   9.913   4.170   4.332  0.0656 -0.0131  0.2231
  405MOL0     C54577  10.058   4.180   4.377  0.6966  0.3230  0.7288
  405MOL0     C54578  10.087   4.330   4.429  0.2762  0.6388  0.4957
  405MOL0     C54579  10.238   4.326   4.465  0.3051  0.4220  0.0027
  405MOL0     C54580  10.298   4.462   4.494  0.5290  0.5699 -0.0506
  405MOL0     C54581  10.444   4.455   4.536  0.0530 -0.8915  0.3673
  405MOL0     C54582  10.517   4.598   4.540  0.0547  0.3936 -0.5971
  405MOL0     C54583  10.645   4.593   4.615  0.2629 -0.9521  0.4313
  405MOL0    Cl54584  10.770   4.507   4.536 -0.1678 -0.0009  0.4725
  405MOL0     C54585   9.770   4.169   4.013 -0.2158 -0.2349  0.1055
  405MOL0     C54586   9.640   4.152   3.962 -0.2061  0.0297 -0.6496
  405MOL0     O54587   9.432   4.341   3.808 -0.2487  0.1426  0.6827
  405MOL0     C54588   9.181   4.297   3.689 -0.3472 -0.4807  0.1057
  405MOL0     C54589   9.062   4.265   3.636 -0.2582 -0.1475 -0.0586
  405MOL0     N54590   8.343   3.987   3.671 -1.0754  0.6250 -0.1527
  405MOL0     N54591   8.213   3.988   3.677 -1.0870 -0.1110 -0.3820
  405MOL0     C54592   7.041   4.038   3.468  0.3987  0.6832 -0.2449
  405MOL0     C54593   6.904   4.035   3.440 -0.0669  0.9303 -0.0150
  405MOL0     C54594   6.454   3.872   3.421  0.0200 -0.2066 -0.0222
  405MOL0     C54595   6.367   3.768   3.454  0.2856 -0.1389 -0.0344
  405MOL0     C54596   6.230   3.794   3.482 -1.2657  0.8357  0.6557
  405MOL0     C54597   6.182   3.921   3.461  0.4607 -0.7347  1.1751
  405MOL0     O54598   6.052   3.971   3.476  0.3214  0.4617 -0.2155
  405MOL0     C54599   5.956   3.896   3.552  1.2961 -0.1624 -0.0058
  405MOL0     C54600   5.883   3.994   3.646  0.3296 -0.0165 -0.3617
  405MOL0     C54601   5.825   4.121   3.582 -0.0831 -0.0657  0.0011
  405MOL0     C54602   5.758   4.223   3.678  0.4829  0.6488 -0.0644
  405MOL0     C54603   5.647   4.161   3.753  0.3708 -0.0667 -0.1284
  405MOL0     C54604   5.548   4.105   3.803  0.1290  0.4498 -0.4187
  405MOL0     C54605   6.272   4.023   3.408  0.4808  0.2000  1.0056
  405MOL0     C54606   6.403   4.000   3.386 -0.5200 -0.5036  0.2695
  405MOL0     C54607   6.493   4.115   3.333 -0.0849 -0.1671  0.2030
  405MOL0     H54608   6.875   3.689   3.426 -2.0712 -0.6462  2.5798
  405MOL0     H54609   7.083   3.692   3.500  0.2696 -0.2047 -4.1363
  405MOL0     H54610   7.322   4.064   3.429  0.4081 -0.5817  0.6517
  405MOL0     H54611   7.284   4.087   3.606 -2.0185 -1.0901  0.9800
  405MOL0     H54612   7.501   3.934   3.475 -0.7002  0.0628  0.3713
  405MOL0     H54613   7.464   3.913   3.641  1.6806  0.6583 -0.5032
  405MOL0     H54614   7.516   4.148   3.691 -1.8805  2.9970 -2.0297
  405MOL0     H54615   7.592   4.168   3.531  1.1323  1.6732  1.8036
  405MOL0     H54616   7.682   3.988   3.753 -1.1746 -0.0019 -0.2979
  405MOL0     H54617   7.719   3.943   3.586  0.5981  0.7197 -0.9619
  405MOL0     H54618   7.784   4.223   3.700 -1.5880 -0.0625 -1.2404
  405MOL0     H54619   7.880   4.096   3.748  1.7546 -0.0330 -0.2654
  405MOL0     H54620   7.862   4.230   3.481  0.3952  2.7653  1.1703
  405MOL0     H54621   8.007   4.192   3.576 -1.1031  1.7630  0.1386
  405MOL0     H54622   8.008   4.069   3.376 -0.5576 -1.0857 -1.3300
  405MOL0     H54623   7.855   3.988   3.400  0.6652  2.0228 -1.2534
  405MOL0     H54624   7.960   3.906   3.630 -4.3817  2.5991 -1.7599
  405MOL0     H54625   8.019   3.829   3.476 -0.1562  0.7191 -0.6772
  405MOL0     H54626   8.239   3.915   3.369  1.8455 -1.2093  0.2805
  405MOL0     H54627   8.543   3.848   3.488 -0.8574 -0.8657 -1.1115
  405MOL0     H54628   8.484   3.961   3.365 -3.3359 -3.0657 -0.5233
  405MOL0     H54629   8.538   4.154   3.532  0.3767  0.8869  0.7817
  405MOL0     H54630   8.612   4.024   3.634 -2.3691 -0.0467 -0.3517
  405MOL0     H54631   8.698   4.080   3.345 -2.5990 -1.6864  0.2899
  405MOL0     H54632   8.763   3.960   3.458  1.4338  0.7693 -0.0877
  405MOL0     H54633   8.759   4.254   3.537  1.8627  0.5925 -0.9120
  405MOL0     H54634   8.876   4.194   3.416  0.7833 -0.7052  0.2202
  405MOL0     H54635   8.982   3.991   3.802 -0.3767 -0.1512 -2.0658
  405MOL0     H54636   9.212   4.053   3.917 -0.5735  2.9319  1.0887
  405MOL0     H54637   9.442   4.273   4.200 -0.1144 -1.2618  0.7224
  405MOL0     H54638   9.657   4.273   4.319  0.3302 -3.4282  0.6375
  405MOL0     H54639   9.842   4.222   4.396 -0.2011  0.3576 -0.3617
  405MOL0     H54640   9.887   4.064   4.323  1.8623 -0.4619 -0.2280
  405MOL0     H54641  10.069   4.110   4.461 -3.2631  1.4113  2.3774
  405MOL0     H54642  10.125   4.158   4.293 -0.7525  0.0517 -0.4083
  405MOL0     H54643  10.069   4.396   4.344 -2.0839 -0.0152  0.4150
  405MOL0     H54644  10.018   4.363   4.508 -1.9640 -1.1890 -0.5969
  405MOL0     H54645  10.285   4.272   4.382  0.5283 -1.6146  1.3815
  405MOL0     H54646  10.255   4.260   4.550 -0.9641 -0.6010 -0.5124
  405MOL0     H54647  10.236   4.519   4.564 -0.6117  0.2542 -0.7952
  405MOL0     H54648  10.299   4.518   4.400  1.4514 -1.8884 -1.5989
  405MOL0     H54649  10.453   4.411   4.636  2.9316  1.8897  1.5077
  405MOL0     H54650  10.499   4.392   4.466 -0.8418 -0.6146 -0.6105
  405MOL0     H54651  10.444   4.666   4.586  1.2286  1.7653 -0.6912
  405MOL0     H54652  10.530   4.630   4.437  0.0541  0.3841 -0.5999
  405MOL0     H54653  10.672   4.696   4.641 -0.5080 -0.3868 -0.9364
  405MOL0     H54654  10.640   4.550   4.716 -0.3755 -1.7996  0.0523
  405MOL0     H54655   9.860   4.143   3.958 -0.9890  0.4583 -1.6014
  405MOL0     H54656   9.634   4.102   3.865  1.2638 -2.1385  0.2756
  405MOL0     H54657   9.235   4.387   3.661  2.1701 -2.2208 -1.0204
  405MOL0     H54658   9.030   4.315   3.545  1.7218 -0.5289 -1.0206
  405MOL0     H54659   7.081   4.139   3.476  1.3983  0.1762  2.4237
  405MOL0     H54660   6.858   4.131   3.419  1.8194  1.3085 -3.1516
  405MOL0     H54661   6.406   3.668   3.443 -1.8798 -1.1144  0.7055
  405MOL0     H54662   6.174   3.710   3.522  0.1561  0.7908  2.7107
  405MOL0     H54663   5.993   3.811   3.611  2.3661  0.8371  0.7994
  405MOL0     H54664   5.878   3.866   3.481  2.0344  1.6418 -1.6691
  405MOL0     H54665   5.933   4.017   3.740  0.5901  3.3176 -1.2080
  405MOL0     H54666   5.804   3.934   3.693 -0.2389  2.1761  1.6405
  405MOL0     H54667   5.746   4.082   3.516 -0.9838 -0.0775  1.0595
  405MOL0     H54668   5.900   4.176   3.524 -0.5046  1.0271  0.4621
  405MOL0     H54669   5.822   4.262   3.757 -1.3873 -0.5708  2.1661
  405MOL0     H54670   5.718   4.313   3.629  2.1424  2.5527  1.8706
  405MOL0     H54671   5.456   4.076   3.850  0.5616  0.4422  0.4583
  405MOL0     H54672   6.235   4.124   3.391  2.2983  0.6807 -0.4042
  405MOL0     H54673   6.553   4.144   3.419 -1.5231  0.4762  1.0435
  405MOL0     H54674   6.561   4.078   3.256  3.1330  3.2237  1.1467
  405MOL0     H54675   6.435   4.205   3.307  1.8973  1.2583  0.5317
  406MOL0     O54676   7.866   6.040  10.935 -0.2421 -0.4147 -0.3111
  406MOL0     C54677   7.800   5.985  10.847  0.6698 -0.3941  0.2925
  406MOL0     O54678   7.861   5.902  10.763  0.5267  0.1427  0.6523
  406MOL0     C54679   7.996   5.877  10.771  0.4132  0.0168 -0.1487
  406MOL0     C54680   8.077   5.966  10.705 -0.1554 -0.3081 -0.0539
  406MOL0     C54681   8.214   5.940  10.704 -0.1890 -0.9753 -0.5778
  406MOL0     C54682   8.270   5.826  10.756 -0.2236  0.6720 -1.4743
  406MOL0     O54683   8.403   5.785  10.742  0.0243 -0.4025  0.3256
  406MOL0     C54684   8.496   5.860  10.658  0.4050  0.3883  0.4331
  406MOL0     C54685   8.636   5.793  10.671 -0.6439 -0.1729  0.2193
  406MOL0     C54686   8.754   5.856  10.604 -0.2937 -0.1314 -0.5958
  406MOL0     C54687   8.884   5.781  10.639 -0.5099 -0.6266  0.4067
  406MOL0     C54688   9.016   5.838  10.571 -0.4650  0.9312  1.3350
  406MOL0     C54689   9.134   5.780  10.636 -0.7789  0.5380  0.2946
  406MOL0     C54690   9.264   5.826  10.562 -0.0418  0.0595 -0.2283
  406MOL0     C54691   9.293   5.758  10.429 -0.3079 -0.4349  0.3523
  406MOL0     N54692   9.419   5.799  10.363 -0.3884  1.1756 -0.8281
  406MOL0     C54693   9.449   5.825  10.224 -0.8549  0.2917 -0.1912
  406MOL0     C54694   9.578   5.865  10.222 -0.7178  0.1493  0.3044
  406MOL0     C54695   9.663   5.904  10.100  0.0947  0.2566  0.3466
  406MOL0     C54696   9.815   5.866  10.113  0.0764 -0.8614  0.1129
  406MOL0     C54697   9.886   5.891   9.983 -0.5929  0.1439  0.4275
  406MOL0     C54698  10.035   5.895  10.007  0.5980 -0.0855  0.8964
  406MOL0     O54699  10.071   5.773  10.064 -0.0634 -0.3488 -0.9164
  406MOL0     C54700  10.205   5.754  10.080 -0.0979 -1.2456  1.0510
  406MOL0     C54701  10.232   5.627  10.132 -1.3576 -0.1419 -0.1320
  406MOL0     C54702  10.365   5.592  10.153 -1.0360 -0.0028 -0.5077
  406MOL0     C54703  10.473   5.684  10.135  0.4241  0.2216 -0.1239
  406MOL0     C54704  10.614   5.652  10.187  0.4168 -0.4576 -0.5914
  406MOL0     O54705  10.646   5.528  10.189 -0.4743 -0.5327  0.1456
  406MOL0     C54706  10.770   5.490  10.249  0.4258  0.1723  1.1315
  406MOL0     C54707  10.777   5.365  10.323 -0.5258 -0.0866  0.6048
  406MOL0     C54708  10.894   5.321  10.389  0.6684 -0.9222 -0.6696
  406MOL0     C54709  11.015   5.394  10.370  0.4175  0.8739  0.1936
  406MOL0     O54710  11.131   5.340  10.430 -0.1731 -0.5471  0.1097
  406MOL0     C54711  11.260   5.383  10.370  0.4882 -0.4781  0.0836
  406MOL0     C54712  11.384   5.340  10.445  0.2902 -0.9509  0.1284
  406MOL0     C54713  11.507   5.394  10.375 -0.1413 -0.6978 -0.5676
  406MOL0     C54714  11.631   5.334  10.447  0.2362  1.1547 -0.3274
  406MOL0     C54715  11.744   5.440  10.453  0.0502  0.0923 -0.1700
  406MOL0     C54716  11.861   5.387  10.527  0.3932 -0.2266 -1.1306
  406MOL0     C54717  11.943   5.276  10.456  0.0229  0.4134  0.1841
  406MOL0     C54718  12.010   5.308  10.335 -0.6859 -0.3131 -0.2531
  406MOL0    Cl54719  12.143   5.199  10.289  0.0262  0.1689 -0.1344
  406MOL0     C54720  11.007   5.512  10.287 -0.8005 -0.0881 -0.5428
  406MOL0     C54721  10.894   5.567  10.237  0.1099  0.8782  0.0859
  406MOL0     O54722  10.675   5.745  10.239 -0.0460  0.1315 -0.0046
  406MOL0     C54723  10.445   5.816  10.093  0.3759 -0.0480 -0.6572
  406MOL0     C54724  10.309   5.847  10.056  0.5269 -0.2000  0.5544
  406MOL0     N54725   9.632   5.859  10.348  0.1660 -0.0231  0.0964
  406MOL0     N54726   9.542   5.820  10.424  0.1422  0.2356  0.1208
  406MOL0     C54727   8.184   5.734  10.816 -0.7011 -0.0470  0.2156
  406MOL0     C54728   8.053   5.759  10.829  0.8243 -0.3400 -0.2590
  406MOL0     C54729   7.649   6.000  10.842 -1.5141 -0.0817 -0.1625
  406MOL0     C54730   7.570   5.882  10.879 -0.4128 -0.2600  0.6619
  406MOL0     C54731   7.428   5.891  10.900 -0.8663  0.2359  0.0148
  406MOL0     C54732   7.361   6.009  10.877  1.3544 -0.2962  0.1687
  406MOL0     O54733   7.221   6.020  10.904  0.8603 -0.1228  0.7002
  406MOL0     C54734   7.138   6.114  10.830  0.6657 -0.2647  0.3947
  406MOL0     C54735   7.020   6.034  10.765 -0.2855 -0.0052  0.1750
  406MOL0     C54736   6.917   6.122  10.689 -0.1155 -0.7360  2.0195
  406MOL0     C54737   6.773   6.070  10.698 -1.0501  0.6595 -0.6899
  406MOL0     C54738   6.676   6.162  10.632 -0.1322  0.1485  0.0553
  406MOL0     C54739   6.605   6.225  10.566  0.2405  0.3934  0.2061
  406MOL0     C54740   7.433   6.121  10.841 -0.5993  0.1859  0.5291
  406MOL0     C54741   7.571   6.117  10.834  0.7560 -0.5662 -0.2238
  406MOL0     C54742   7.640   6.251  10.817  0.4099  0.0299 -0.1937
  406MOL0     H54743   8.031   6.053  10.661 -2.0187 -0.7479  0.9027
  406MOL0     H54744   8.268   6.011  10.642 -2.6734  0.4445 -1.2801
  406MOL0     H54745   8.459   5.843  10.557  0.4287  0.7835  0.3561
  406MOL0     H54746   8.507   5.968  10.671  2.2998  0.3104 -0.1667
  406MOL0     H54747   8.637   5.688  10.640 -0.2895  0.4141 -1.8662
  406MOL0     H54748   8.654   5.799  10.779  1.4216  2.7218 -0.1634
  406MOL0     H54749   8.764   5.961  10.633  3.8635 -0.8751  1.4514
  406MOL0     H54750   8.748   5.863  10.495  2.4249 -0.8439 -0.8766
  406MOL0     H54751   8.906   5.791  10.745  1.8227 -1.7799  0.1088
  406MOL0     H54752   8.872   5.676  10.608 -0.0493 -0.1628 -1.4718
  406MOL0     H54753   9.015   5.812  10.465 -1.0767 -0.7236  1.7202
  406MOL0     H54754   9.025   5.947  10.564  2.3154  0.6716 -0.7794
  406MOL0     H54755   9.130   5.804  10.743 -0.9860  1.3353  0.1148
  406MOL0     H54756   9.133   5.671  10.628 -2.1755  0.5368  0.2844
  406MOL0     H54757   9.344   5.812  10.635 -0.5699 -0.1870  0.3090
  406MOL0     H54758   9.251   5.927  10.523 -0.8239  0.1653  0.2950
  406MOL0     H54759   9.297   5.648  10.429  0.9515 -0.4100  0.3699
  406MOL0     H54760   9.214   5.782  10.358 -0.2377  0.6577  0.6209
  406MOL0     H54761   9.381   5.834  10.140 -2.2443  1.5369  1.0146
  406MOL0     H54762   9.617   5.874  10.006 -1.6472  2.5094  0.3907
  406MOL0     H54763   9.654   6.013  10.093 -1.2461  0.2063  1.0292
  406MOL0     H54764   9.863   5.933  10.185 -2.3231  3.3484 -1.8017
  406MOL0     H54765   9.820   5.759  10.132 -2.4608 -1.2328 -0.9796
  406MOL0     H54766   9.855   5.989   9.944  1.0013  0.0965 -1.0546
  406MOL0     H54767   9.852   5.816   9.911  0.8829  0.0286 -0.1742
  406MOL0     H54768  10.051   5.982  10.071  2.3175 -0.2477  0.7203
  406MOL0     H54769  10.082   5.905   9.909  3.0504  0.7846  2.0934
  406MOL0     H54770  10.144   5.573  10.166 -2.9619  1.9430 -0.7304
  406MOL0     H54771  10.385   5.492  10.188  1.9384  0.3660 -0.9286
  406MOL0     H54772  10.685   5.309  10.332 -0.1748 -0.4973  1.8930
  406MOL0     H54773  10.896   5.242  10.463 -1.2873  0.4290  0.9555
  406MOL0     H54774  11.266   5.339  10.270 -0.0928 -0.1459 -0.0990
  406MOL0     H54775  11.270   5.490  10.355  1.7127 -0.7224 -0.9898
  406MOL0     H54776  11.374   5.381  10.546  0.9655  0.4176 -0.3291
  406MOL0     H54777  11.381   5.231  10.452  0.9231 -1.0755 -1.3009
  406MOL0     H54778  11.520   5.356  10.273  2.8416 -1.3217 -0.0383
  406MOL0     H54779  11.518   5.503  10.373 -0.0200 -0.7147 -1.4190
  406MOL0     H54780  11.650   5.240  10.395 -0.8314 -0.0523  1.3643
  406MOL0     H54781  11.607   5.320  10.553 -1.8533  0.0291 -0.8951
  406MOL0     H54782  11.708   5.535  10.493 -1.5905 -0.6531  0.1904
  406MOL0     H54783  11.775   5.457  10.349  2.5246 -1.0446  0.3165
  406MOL0     H54784  11.927   5.469  10.555 -2.3934  1.4159  1.1547
  406MOL0     H54785  11.826   5.343  10.620  3.3773  1.8521  1.1673
  406MOL0     H54786  11.871   5.196  10.433 -1.0798  1.2881  0.5231
  406MOL0     H54787  12.006   5.236  10.536  2.3642  0.2272 -1.6458
  406MOL0     H54788  11.939   5.329  10.254 -0.3785  0.5628 -0.3015
  406MOL0     H54789  12.063   5.403  10.347  1.7812 -1.5114 -0.9694
  406MOL0     H54790  11.103   5.555  10.258 -0.3910 -0.6155  0.0035
  406MOL0     H54791  10.908   5.663  10.189  2.0356  0.3849 -0.4186
  406MOL0     H54792  10.520   5.894  10.096 -1.5307  1.8657  1.9133
  406MOL0     H54793  10.281   5.948  10.028  1.2711 -0.0921  0.1726
  406MOL0     H54794   8.221   5.633  10.824  0.3999  0.1231 -2.0845
  406MOL0     H54795   7.984   5.685  10.868 -2.6235  0.8180 -3.5193
  406MOL0     H54796   7.618   5.791  10.915 -1.8603 -0.2921  2.6462
  406MOL0     H54797   7.369   5.807  10.933 -0.1571  0.2478  1.3886
  406MOL0     H54798   7.191   6.166  10.750 -2.5089  0.8047 -1.1848
  406MOL0     H54799   7.106   6.187  10.906  1.2315 -1.6359  2.0176
  406MOL0     H54800   6.972   5.977  10.845 -2.1153  0.5866 -0.4639
  406MOL0     H54801   7.061   5.963  10.693  2.2951  0.3615  1.1516
  406MOL0     H54802   6.943   6.121  10.583  0.6040 -2.2521  2.1909
  406MOL0     H54803   6.922   6.228  10.718 -1.3795  0.0046 -0.2612
  406MOL0     H54804   6.761   5.976  10.643  0.5866 -1.6102  2.4774
  406MOL0     H54805   6.756   6.046  10.803  2.7640 -1.3191 -0.3453
  406MOL0     H54806   6.539   6.280  10.501  0.2520 -0.7175 -0.7901
  406MOL0     H54807   7.375   6.210  10.821 -0.7272 -0.1567 -0.7218
  406MOL0     H54808   7.741   6.231  10.781  1.7377  1.2901  2.5437
  406MOL0     H54809   7.582   6.304  10.742  0.9350  1.5315  0.4261
  406MOL0     H54810   7.637   6.306  10.912  0.6855  0.8885 -0.6798
  407MOL0     O54811   6.904   2.903   8.200  0.2848 -0.3652  0.0046
  407MOL0     C54812   6.879   2.872   8.088 -0.1185  0.3308  0.0700
  407MOL0     O54813   6.757   2.848   8.042 -0.7306 -0.2409  0.3280
  407MOL0     C54814   6.664   2.824   8.138 -0.3714  0.3335 -0.2105
  407MOL0     C54815   6.624   2.693   8.142 -0.1071  0.6231  0.2650
  407MOL0     C54816   6.547   2.655   8.252 -1.3371  0.0103 -0.5236
  407MOL0     C54817   6.494   2.740   8.345 -0.2594 -0.1713 -1.2842
  407MOL0     O54818   6.434   2.697   8.464  0.1272  0.0976 -0.2821
  407MOL0     C54819   6.380   2.791   8.556 -0.3297 -0.7594 -0.0261
  407MOL0     C54820   6.498   2.826   8.643 -0.1445 -0.4037 -0.3923
  407MOL0     C54821   6.464   2.922   8.754 -0.1656  0.3946 -0.1810
  407MOL0     C54822   6.599   2.950   8.828 -0.9498 -1.1741 -0.0641
  407MOL0     C54823   6.611   3.080   8.909 -1.5744 -0.3123 -0.7340
  407MOL0     C54824   6.740   3.095   8.984 -0.2439 -0.5909 -0.4688
  407MOL0     C54825   6.747   3.230   9.064 -0.3421 -0.7601  0.2780
  407MOL0     C54826   6.637   3.234   9.176  0.9089  0.1362 -0.8321
  407MOL0     N54827   6.636   3.363   9.244 -0.1129 -0.1128  0.3007
  407MOL0     C54828   6.690   3.388   9.368  0.3432 -0.6139 -0.5232
  407MOL0     C54829   6.698   3.524   9.382 -1.0270  0.1669 -0.1952
  407MOL0     C54830   6.756   3.591   9.512  0.2672 -0.5096 -0.3314
  407MOL0     C54831   6.904   3.621   9.510 -0.2193 -0.6757 -0.3808
  407MOL0     C54832   6.956   3.703   9.636  0.0929  0.1211  0.3481
  407MOL0     C54833   7.106   3.702   9.633 -0.6478 -0.5727 -0.0939
  407MOL0     O54834   7.160   3.763   9.751  0.1256 -0.5272 -0.3026
  407MOL0     C54835   7.295   3.778   9.765  0.0771  0.3680 -0.1639
  407MOL0     C54836   7.398   3.712   9.701 -0.2699  0.3423  0.0348
  407MOL0     C54837   7.528   3.724   9.749  0.1424 -0.4978 -1.0256
  407MOL0     C54838   7.557   3.811   9.860  0.3503 -0.0047 -0.0511
  407MOL0     C54839   7.685   3.835   9.906 -0.1843 -0.0271 -0.3597
  407MOL0     O54840   7.698   3.897  10.026 -0.5101 -1.0472 -0.2620
  407MOL0     C54841   7.821   3.936  10.084 -0.7143 -0.4410 -0.1483
  407MOL0     C54842   7.950   3.930  10.029 -0.5727  1.0447 -0.4184
  407MOL0     C54843   8.061   3.982  10.090  0.3169 -0.6310 -0.0046
  407MOL0     C54844   8.052   4.054  10.209  0.0480  0.2870  0.3576
  407MOL0     O54845   8.172   4.118  10.251 -0.1147  0.1544  0.3166
  407MOL0     C54846   8.294   4.049  10.257 -0.8741  0.8290  0.1011
  407MOL0     C54847   8.397   4.121  10.350  0.6024 -0.3323 -0.7419
  407MOL0     C54848   8.528   4.039  10.370  0.0248 -0.5314  0.0808
  407MOL0     C54849   8.594   4.104  10.487  0.3893  0.1238 -0.1508
  407MOL0     C54850   8.708   4.012  10.545  0.7109  0.9204 -0.6681
  407MOL0     C54851   8.815   3.963  10.447  0.3935  0.9074  0.1648
  407MOL0     C54852   8.876   4.074  10.360 -0.3305  0.3718  0.3570
  407MOL0     C54853   8.985   4.021  10.264  0.2092  0.3488  0.2335
  407MOL0    Cl54854   9.062   3.872  10.343  0.0627  0.3637  0.1291
  407MOL0     C54855   7.923   4.063  10.267  0.7570  0.2407 -0.0824
  407MOL0     C54856   7.808   4.016  10.193  0.0717  0.2765 -0.0147
  407MOL0     O54857   7.777   3.799   9.832  1.0006 -0.1294  0.3687
  407MOL0     C54858   7.447   3.898   9.912 -0.2608  0.6260 -0.0009
  407MOL0     C54859   7.319   3.875   9.864  0.4882  0.6150  0.4088
  407MOL0     N54860   6.640   3.581   9.273 -0.9581  0.2853 -0.3431
  407MOL0     N54861   6.609   3.486   9.187  0.1670  0.3755  0.3634
  407MOL0     C54862   6.529   2.875   8.331  0.1583  0.9586  1.0952
  407MOL0     C54863   6.622   2.914   8.233  0.4700 -0.7971 -0.3636
  407MOL0     C54864   6.990   2.859   7.992 -0.3427 -0.1402  0.6437
  407MOL0     C54865   6.961   2.837   7.858  0.2056 -0.5000  0.8851
  407MOL0     C54866   7.060   2.837   7.759 -0.8225  0.5967  0.3942
  407MOL0     C54867   7.194   2.857   7.790  0.1175  0.2123 -0.1888
  407MOL0     O54868   7.278   2.862   7.682  0.0136  0.3691  0.4082
  407MOL0     C54869   7.413   2.901   7.702 -1.0606  0.5636 -0.7826
  407MOL0     C54870   7.494   2.870   7.573 -0.7569  0.0686  0.3608
  407MOL0     C54871   7.641   2.922   7.604 -0.3444  0.9289  0.1611
  407MOL0     C54872   7.731   2.900   7.479  0.0443  0.4590  0.7901
  407MOL0     C54873   7.862   2.967   7.489  0.3592  0.0954 -0.0759
  407MOL0     C54874   7.978   3.006   7.490 -0.4563 -0.1930  0.0962
  407MOL0     C54875   7.230   2.867   7.927  0.4613 -0.0473 -0.4068
  407MOL0     C54876   7.128   2.862   8.027  0.8434 -0.2341  0.0750
  407MOL0     C54877   7.182   2.868   8.167 -0.5446  0.6467 -0.2923
  407MOL0     H54878   6.652   2.631   8.057  0.8730  1.5850 -0.1388
  407MOL0     H54879   6.518   2.554   8.276 -0.8421  0.5970  3.1253
  407MOL0     H54880   6.338   2.878   8.503 -1.2746 -1.2868 -0.1724
  407MOL0     H54881   6.292   2.748   8.606 -1.8816  0.9765 -1.1249
  407MOL0     H54882   6.575   2.876   8.584 -0.5380 -0.2232 -0.7577
  407MOL0     H54883   6.539   2.733   8.684 -0.8309  0.0281  1.3586
  407MOL0     H54884   6.393   2.880   8.827  1.1025  0.5191  1.1653
  407MOL0     H54885   6.418   3.012   8.714  0.3180  1.2916  1.2384
  407MOL0     H54886   6.622   2.864   8.891  3.5389 -1.4429 -1.6804
  407MOL0     H54887   6.682   2.958   8.757 -0.3444  2.0326  0.8314
  407MOL0     H54888   6.601   3.165   8.841  3.0224  4.4237  3.5128
  407MOL0     H54889   6.531   3.087   8.983 -0.3449  4.3416  0.5084
  407MOL0     H54890   6.766   3.010   9.047 -1.2246 -2.4786 -2.4596
  407MOL0     H54891   6.818   3.096   8.907  0.5488  0.9889  0.3189
  407MOL0     H54892   6.741   3.304   8.983 -0.3430 -0.9856  0.0693
  407MOL0     H54893   6.848   3.249   9.099  0.2539 -0.3814 -1.5099
  407MOL0     H54894   6.536   3.218   9.138 -0.8024 -1.5602  3.7905
  407MOL0     H54895   6.666   3.150   9.240  2.4394  1.0876 -0.2184
  407MOL0     H54896   6.719   3.306   9.433  0.8049 -1.3445 -1.6273
  407MOL0     H54897   6.698   3.682   9.532  4.2376  2.3202 -0.3539
  407MOL0     H54898   6.742   3.525   9.598  2.2850 -1.1418 -0.4405
  407MOL0     H54899   6.971   3.535   9.503  2.4988  1.3695 -1.3345
  407MOL0     H54900   6.924   3.673   9.416  1.5321  0.2731  0.4657
  407MOL0     H54901   6.916   3.654   9.726 -1.2386  0.1623 -0.2019
  407MOL0     H54902   6.919   3.806   9.637  1.0006  0.5528  4.0976
  407MOL0     H54903   7.155   3.756   9.551 -0.1857  0.7648  1.0228
  407MOL0     H54904   7.134   3.597   9.634  0.3711 -0.3101  0.8573
  407MOL0     H54905   7.373   3.643   9.621 -0.0648  1.5088 -1.0774
  407MOL0     H54906   7.606   3.665   9.701  0.4419 -0.9738 -0.0010
  407MOL0     H54907   7.964   3.863   9.945 -2.2370 -0.2831  0.3066
  407MOL0     H54908   8.159   3.963  10.047  0.5873 -1.0711  0.7898
  407MOL0     H54909   8.275   3.949  10.298  1.4350  0.9947  1.7943
  407MOL0     H54910   8.346   4.051  10.161  1.9111  1.9173  1.5153
  407MOL0     H54911   8.421   4.216  10.302  0.8465 -0.6307 -1.2104
  407MOL0     H54912   8.334   4.141  10.438  0.8104 -1.7947 -0.2309
  407MOL0     H54913   8.514   3.931  10.377 -0.3662 -0.6995 -2.4809
  407MOL0     H54914   8.597   4.048  10.286  2.6157 -0.7456  2.0470
  407MOL0     H54915   8.524   4.128  10.567 -1.3672  0.9091 -1.8611
  407MOL0     H54916   8.635   4.201  10.457 -0.1203  0.2492 -0.4418
  407MOL0     H54917   8.663   3.918  10.577  2.4708 -0.1389 -1.1861
  407MOL0     H54918   8.746   4.058  10.637 -1.8709 -0.4511  1.2037
  407MOL0     H54919   8.892   3.920  10.512  0.7695 -1.2288 -1.5656
  407MOL0     H54920   8.779   3.888  10.376 -1.3721  2.5683 -0.7678
  407MOL0     H54921   8.921   4.143  10.432 -0.2620 -1.0265  1.7335
  407MOL0     H54922   8.810   4.120  10.286 -0.2998 -2.2548 -1.4688
  407MOL0     H54923   8.946   3.991  10.166  2.2472 -1.4993 -0.0875
  407MOL0     H54924   9.061   4.097  10.244  2.1486 -1.9846 -1.9887
  407MOL0     H54925   7.901   4.124  10.354  0.0603  0.5487 -0.4675
  407MOL0     H54926   7.707   4.041  10.223  0.2318 -1.0476  1.7569
  407MOL0     H54927   7.463   3.967   9.995  1.3508 -0.9468  1.0785
  407MOL0     H54928   7.241   3.927   9.917 -0.1496 -1.3599  1.5043
  407MOL0     H54929   6.493   2.956   8.394  0.8239  1.6823  0.5770
  407MOL0     H54930   6.659   3.015   8.217  0.5438 -0.9154 -0.9513
  407MOL0     H54931   6.860   2.812   7.828  0.1185  2.4650 -1.7504
  407MOL0     H54932   7.034   2.813   7.657 -2.2655  0.6304  0.7298
  407MOL0     H54933   7.460   2.832   7.772 -1.8102  1.3085  0.4910
  407MOL0     H54934   7.417   3.007   7.729  2.7583  0.6412 -1.1123
  407MOL0     H54935   7.465   2.918   7.480  3.6279  2.1387 -0.1735
  407MOL0     H54936   7.487   2.761   7.566 -5.4353  0.1288  0.6974
  407MOL0     H54937   7.692   2.862   7.680 -1.8691  2.0893  2.2157
  407MOL0     H54938   7.653   3.028   7.629 -1.2009  1.2786 -0.8320
  407MOL0     H54939   7.745   2.793   7.460 -1.5603  0.1981  0.8948
  407MOL0     H54940   7.675   2.941   7.394 -1.2079 -3.3369 -0.4027
  407MOL0     H54941   8.077   3.040   7.468  0.2777 -2.9643 -1.3727
  407MOL0     H54942   7.336   2.887   7.940  0.6372 -1.3144  0.3557
  407MOL0     H54943   7.266   2.799   8.184 -0.1244  1.6359  2.2210
  407MOL0     H54944   7.235   2.961   8.188  1.3098 -0.4437  0.1299
  407MOL0     H54945   7.108   2.829   8.238 -1.6770 -3.4500 -3.3313
  408MOL0     O54946   3.044   0.694   0.100  0.4441  0.0548  0.6322
  408MOL0     C54947   3.052   0.580   0.152  0.3562 -0.2598  0.2971
  408MOL0     O54948   3.160   0.510   0.170  0.0955 -0.1190 -0.4264
  408MOL0     C54949   3.287   0.562   0.157 -0.7412  0.0209 -0.0618
  408MOL0     C54950   3.393   0.471   0.169 -0.0695 -0.7510 -0.8080
  408MOL0     C54951   3.534   0.498   0.151  0.5331  0.2986  0.0701
  408MOL0     C54952   3.576   0.626   0.136 -0.0641  0.3878  0.3217
  408MOL0     O54953   3.707   0.654   0.114  0.1292 -0.0488 -0.2696
  408MOL0     C54954   3.785   0.670   0.238 -0.2744 -0.0908  0.6782
  408MOL0     C54955   3.759   0.809   0.300  0.3027 -0.3215  0.4440
  408MOL0     C54956   3.829   0.811   0.428  0.2152 -0.6050  0.0317
  408MOL0     C54957   3.924   0.928   0.457  0.6332  0.4902 -0.6136
  408MOL0     C54958   3.854   1.058   0.488 -0.1726 -0.5541  0.5555
  408MOL0     C54959   3.939   1.179   0.454  0.5290  0.0944  0.2524
  408MOL0     C54960   4.070   1.203   0.529  0.5795 -0.5824  0.2734
  408MOL0     C54961   4.061   1.232   0.678  0.6938  0.6233 -0.4372
  408MOL0     N54962   4.189   1.232   0.746  0.0146 -0.5883 -0.4454
  408MOL0     C54963   4.288   1.334   0.741 -0.0044  0.8749 -0.7503
  408MOL0     C54964   4.401   1.292   0.807 -0.7228  0.4776 -0.3929
  408MOL0     C54965   4.529   1.359   0.839  0.1946  0.6810 -0.1834
  408MOL0     C54966   4.652   1.268   0.806  0.1835  0.4751 -0.3797
  408MOL0     C54967   4.679   1.162   0.917  0.6431 -0.5639  0.8882
  408MOL0     C54968   4.824   1.110   0.913 -0.2542  0.3060  0.0681
  408MOL0     O54969   4.902   1.233   0.926 -0.2342  0.4406 -0.4593
  408MOL0     C54970   5.034   1.238   0.951  0.1372 -1.0824  0.1867
  408MOL0     C54971   5.094   1.364   0.939 -0.1624  0.2645 -0.9671
  408MOL0     C54972   5.226   1.370   0.967 -0.6040 -0.0663 -1.0323
  408MOL0     C54973   5.310   1.261   0.986 -0.5423 -0.1382  0.4700
  408MOL0     C54974   5.462   1.280   0.988  0.0607  0.5909  0.1490
  408MOL0     O54975   5.503   1.404   1.032  0.7542 -0.7734  0.6019
  408MOL0     C54976   5.637   1.439   1.047  0.1927 -0.0391 -0.1698
  408MOL0     C54977   5.665   1.578   1.025  0.4695 -0.3557 -0.9340
  408MOL0     C54978   5.794   1.622   1.030 -0.5704 -0.3873  0.1987
  408MOL0     C54979   5.901   1.540   1.074 -0.7041  0.0429  0.4209
  408MOL0     O54980   6.021   1.596   1.083  0.3029 -0.1346 -0.0093
  408MOL0     C54981   6.131   1.520   1.137 -0.5816  1.0957 -0.3513
  408MOL0     C54982   6.251   1.624   1.140  1.2501  1.2045  0.1280
  408MOL0     C54983   6.220   1.734   1.232  0.5369  0.2253  0.2320
  408MOL0     C54984   6.328   1.845   1.212 -0.1332  0.1803 -0.2711
  408MOL0     C54985   6.286   1.978   1.273  0.4672  0.1739 -0.7202
  408MOL0     C54986   6.394   2.075   1.264  0.4898  0.0225 -0.1269
  408MOL0     C54987   6.350   2.207   1.326  0.1655  0.0805 -0.1707
  408MOL0     C54988   6.458   2.313   1.285  0.1701  0.2589 -0.0638
  408MOL0    Cl54989   6.585   2.294   1.409  0.0815  0.2663 -0.1249
  408MOL0     C54990   5.872   1.395   1.093 -0.2604 -0.3574  0.0768
  408MOL0     C54991   5.742   1.345   1.083 -0.1842 -0.0089 -0.0418
  408MOL0     O54992   5.532   1.179   0.975  0.0176  0.0219 -0.2256
  408MOL0     C54993   5.249   1.134   0.991 -0.4172  0.1471  0.3561
  408MOL0     C54994   5.112   1.118   0.968  1.0806 -0.4526 -0.3321
  408MOL0     N54995   4.362   1.173   0.862  0.2673  0.3545 -0.1446
  408MOL0     N54996   4.247   1.133   0.818  0.9990  0.2509 -0.4695
  408MOL0     C54997   3.478   0.728   0.143  0.2784 -0.3330  0.2740
  408MOL0     C54998   3.339   0.690   0.145  0.2784  0.3577  0.1123
  408MOL0     C54999   2.931   0.522   0.209  0.2724 -1.0865  0.1695
  408MOL0     C55000   2.917   0.389   0.195 -0.0942 -0.0849  0.1286
  408MOL0     C55001   2.796   0.336   0.234 -0.3087  1.0682  0.2946
  408MOL0     C55002   2.695   0.398   0.305  0.3135 -0.4354 -0.2174
  408MOL0     O55003   2.590   0.320   0.343  0.1637 -0.2626 -0.3812
  408MOL0     C55004   2.471   0.383   0.403 -0.7002 -0.1021 -0.3255
  408MOL0     C55005   2.372   0.282   0.450 -0.3188 -0.0351 -1.7160
  408MOL0     C55006   2.432   0.170   0.536 -0.6060  0.9970  0.2169
  408MOL0     C55007   2.322   0.068   0.558  0.2198 -0.6084 -0.3247
  408MOL0     C55008   2.224   0.104   0.660  0.3446 -0.2117  0.8578
  408MOL0     C55009   2.144   0.133   0.743  0.5694 -0.4124  0.3461
  408MOL0     C55010   2.709   0.536   0.317 -0.0948 -0.7726 -0.3990
  408MOL0     C55011   2.828   0.599   0.264  0.5509 -0.2470 -0.5741
  408MOL0     C55012   2.833   0.755   0.273  0.6579 -0.6474  0.1669
  408MOL0     H55013   3.362   0.371   0.196  0.3621 -0.5872  0.3298
  408MOL0     H55014   3.610   0.420   0.146 -1.5374 -1.9232  1.2828
  408MOL0     H55015   3.779   0.586   0.308  3.5173  0.1674  1.5283
  408MOL0     H55016   3.890   0.668   0.209  0.3585  0.1799  2.7732
  408MOL0     H55017   3.653   0.821   0.320  0.2570  1.3070 -0.6679
  408MOL0     H55018   3.797   0.894   0.242  0.9175  0.5073  1.9975
  408MOL0     H55019   3.879   0.717   0.453  0.0438 -0.4218  1.1016
  408MOL0     H55020   3.747   0.818   0.500 -0.2246 -1.2541 -0.3931
  408MOL0     H55021   3.982   0.891   0.542 -0.7985 -0.3626  0.0355
  408MOL0     H55022   3.992   0.931   0.372  0.1464 -1.0341 -1.0996
  408MOL0     H55023   3.759   1.069   0.436 -0.3500  0.3237  1.0487
  408MOL0     H55024   3.826   1.074   0.593 -0.0504  0.8357  0.4028
  408MOL0     H55025   3.981   1.154   0.356 -0.6779  0.0172 -0.2612
  408MOL0     H55026   3.877   1.269   0.447 -0.6313 -0.5907  1.3042
  408MOL0     H55027   4.123   1.286   0.481 -1.0110 -0.2829 -1.0350
  408MOL0     H55028   4.131   1.113   0.513 -0.1816 -0.8592 -1.2632
  408MOL0     H55029   4.005   1.324   0.698  1.7783  0.7508  2.5769
  408MOL0     H55030   4.000   1.156   0.726 -0.5466  0.9802 -1.3973
  408MOL0     H55031   4.281   1.430   0.692 -0.4937  0.6851 -1.0643
  408MOL0     H55032   4.531   1.457   0.790  2.0831  0.4809 -0.5694
  408MOL0     H55033   4.517   1.367   0.948  0.0553 -2.0987  0.0714
  408MOL0     H55034   4.626   1.204   0.720  0.5664  0.0121 -0.1537
  408MOL0     H55035   4.740   1.333   0.803  0.7421 -0.1169  1.6692
  408MOL0     H55036   4.609   1.080   0.898  1.1697 -0.6527 -0.8547
  408MOL0     H55037   4.655   1.206   1.014  0.4050  1.6689 -0.1165
  408MOL0     H55038   4.838   1.059   0.817 -1.7247 -1.6337  0.8169
  408MOL0     H55039   4.831   1.043   1.000 -0.8242  0.9130  0.5930
  408MOL0     H55040   5.040   1.455   0.917  0.0475  0.1669 -1.9203
  408MOL0     H55041   5.263   1.470   0.988  3.4257 -1.6904  0.5313
  408MOL0     H55042   5.582   1.645   1.005  1.8357  1.3777 -1.0479
  408MOL0     H55043   5.817   1.728   1.023 -1.4065 -0.1533  0.7179
  408MOL0     H55044   6.095   1.491   1.237 -0.1927  1.4214 -0.1129
  408MOL0     H55045   6.165   1.429   1.085 -2.2023  1.5450 -2.3024
  408MOL0     H55046   6.346   1.577   1.165  2.1239  2.2366 -1.0785
  408MOL0     H55047   6.259   1.666   1.039  2.0599  1.8907  0.4637
  408MOL0     H55048   6.127   1.782   1.201  0.2280 -0.1153  0.6278
  408MOL0     H55049   6.208   1.701   1.336  0.9023 -0.5442  0.0424
  408MOL0     H55050   6.350   1.856   1.106 -0.5987 -0.6186 -0.4529
  408MOL0     H55051   6.411   1.812   1.276 -2.2957 -2.5541  1.3353
  408MOL0     H55052   6.264   1.957   1.378  0.4779 -1.6360 -1.0416
  408MOL0     H55053   6.198   2.026   1.229  0.8838  0.3140 -1.4071
  408MOL0     H55054   6.478   2.040   1.324  1.5373 -0.5716 -1.8727
  408MOL0     H55055   6.426   2.084   1.160 -2.0066  2.5809 -0.7999
  408MOL0     H55056   6.338   2.199   1.435 -2.1141 -1.0316 -0.4516
  408MOL0     H55057   6.250   2.231   1.291 -0.0768 -0.9299 -0.1730
  408MOL0     H55058   6.493   2.287   1.185  0.8831  0.2536  0.1802
  408MOL0     H55059   6.427   2.417   1.290 -0.0821  0.1954 -0.2884
  408MOL0     H55060   5.959   1.336   1.118 -0.2219 -0.3300  0.0063
  408MOL0     H55061   5.732   1.242   1.115  3.1636  0.1458  1.9220
  408MOL0     H55062   5.315   1.049   1.006  0.3820  0.6197 -0.4051
  408MOL0     H55063   5.082   1.015   0.953  2.0355 -0.9344  0.8666
  408MOL0     H55064   3.504   0.833   0.132  1.9202 -0.7638 -0.1458
  408MOL0     H55065   3.266   0.771   0.146  0.7258  0.7923  2.0347
  408MOL0     H55066   2.996   0.325   0.156  0.9867  0.9730  0.5187
  408MOL0     H55067   2.773   0.231   0.222  1.0714  0.8598 -0.7924
  408MOL0     H55068   2.435   0.447   0.322  2.2770  2.5317  0.2332
  408MOL0     H55069   2.488   0.453   0.486  2.6559 -3.8041  2.5373
  408MOL0     H55070   2.327   0.243   0.358 -0.2655  1.3913 -2.3737
  408MOL0     H55071   2.294   0.336   0.506 -0.7174  1.7932 -3.8790
  408MOL0     H55072   2.469   0.211   0.630  0.1826  0.7900  0.0001
  408MOL0     H55073   2.525   0.133   0.492 -0.3845  2.5304 -0.6628
  408MOL0     H55074   2.267   0.058   0.464  2.0922  2.3347 -1.8680
  408MOL0     H55075   2.364  -0.028   0.589 -3.6495 -2.8628 -1.3668
  408MOL0     H55076   2.063   0.172   0.802 -0.3665  0.0612 -1.1710
  408MOL0     H55077   2.643   0.603   0.370  0.7262  1.6086 -2.2210
  408MOL0     H55078   2.782   0.795   0.361  1.0497  1.7380 -0.6173
  408MOL0     H55079   2.935   0.793   0.282  0.5223 -0.2421  0.0160
  408MOL0     H55080   2.792   0.798   0.181  4.1655  0.1159 -1.1856
  409MOL0     O55081   3.537   2.688   2.207  0.0418  0.4793  0.2181
  409MOL0     C55082   3.497   2.661   2.095 -0.2452 -0.4023  0.6038
  409MOL0     O55083   3.553   2.705   1.982 -0.0755 -0.4989 -0.1683
  409MOL0     C55084   3.668   2.780   2.004  0.5586 -0.3606  0.0523
  409MOL0     C55085   3.651   2.913   2.040 -0.8879 -0.3015  0.1221
  409MOL0     C55086   3.770   2.992   2.058  0.6243  0.0634 -0.1465
  409MOL0     C55087   3.898   2.934   2.037  0.4921  0.3816  1.0663
  409MOL0     O55088   4.025   2.988   2.059  0.9201 -0.5185  0.6243
  409MOL0     C55089   4.024   3.107   2.138 -0.0432  0.0710 -0.3382
  409MOL0     C55090   4.161   3.175   2.133  0.0728  0.7905 -0.2358
  409MOL0     C55091   4.266   3.097   2.214  0.0028  0.4484  0.2938
  409MOL0     C55092   4.403   3.120   2.146  0.0233 -0.6011  1.1389
  409MOL0     C55093   4.461   3.260   2.163  0.1211 -0.0817  0.7803
  409MOL0     C55094   4.605   3.255   2.105 -0.4679  0.6233 -0.0250
  409MOL0     C55095   4.719   3.193   2.194  0.1283  0.4073  0.8038
  409MOL0     C55096   4.860   3.213   2.143  0.6367 -0.3787 -0.4781
  409MOL0     N55097   4.890   3.356   2.161  0.5555 -0.3148 -0.3904
  409MOL0     C55098   4.926   3.425   2.276  0.1119  0.0639  0.4580
  409MOL0     C55099   4.956   3.548   2.243  0.0030  0.1829  0.0384
  409MOL0     C55100   5.004   3.668   2.323 -0.1695  0.1418 -0.0278
  409MOL0     C55101   5.163   3.661   2.324  0.5693  0.0238  0.4959
  409MOL0     C55102   5.229   3.725   2.450 -0.1812  0.3486  0.1706
  409MOL0     C55103   5.381   3.751   2.429 -0.4031  0.2353 -0.0302
  409MOL0     O55104   5.450   3.631   2.451 -0.7458  0.4994 -0.9728
  409MOL0     C55105   5.586   3.640   2.472 -0.8703 -0.8319 -0.1116
  409MOL0     C55106   5.661   3.760   2.474 -0.6239  0.5233 -0.8155
  409MOL0     C55107   5.799   3.754   2.490 -1.1456  0.1591 -0.3861
  409MOL0     C55108   5.865   3.626   2.497  0.1808 -0.8375 -0.6920
  409MOL0     C55109   6.015   3.614   2.510 -0.2462 -0.6880 -0.3487
  409MOL0     O55110   6.073   3.728   2.561  0.2017  0.6636 -0.9830
  409MOL0     C55111   6.207   3.745   2.544 -0.2304  0.0646  0.4799
  409MOL0     C55112   6.286   3.738   2.655  1.2003 -0.1224 -0.3228
  409MOL0     C55113   6.419   3.731   2.646 -0.0626  0.0230 -0.7427
  409MOL0     C55114   6.488   3.741   2.524  1.0090 -0.0647  0.0623
  409MOL0     O55115   6.622   3.724   2.516  1.0485  0.4141 -0.2097
  409MOL0     C55116   6.706   3.708   2.631  0.6325  0.2761 -0.2355
  409MOL0     C55117   6.843   3.681   2.586 -0.3119 -0.1363  0.0621
  409MOL0     C55118   6.945   3.680   2.698 -0.5065  0.2846  0.5428
  409MOL0     C55119   7.073   3.599   2.646 -0.8535  0.2171  0.2243
  409MOL0     C55120   7.178   3.614   2.759 -0.2707 -0.0707 -0.8967
  409MOL0     C55121   7.305   3.554   2.726 -0.0157  0.1528 -0.5110
  409MOL0     C55122   7.304   3.398   2.757  0.0553  0.1706 -0.2179
  409MOL0     C55123   7.443   3.343   2.749 -0.7184  0.1661 -0.0937
  409MOL0    Cl55124   7.511   3.388   2.591  0.0998  0.1700  0.1024
  409MOL0     C55125   6.411   3.750   2.414  0.2473 -0.0327 -0.1814
  409MOL0     C55126   6.273   3.750   2.421  0.0681 -0.5660 -0.2837
  409MOL0     O55127   6.074   3.520   2.468 -0.5980  0.0380  0.1226
  409MOL0     C55128   5.790   3.508   2.483  0.6566  0.6234 -0.2971
  409MOL0     C55129   5.651   3.512   2.472  0.3795  0.6357  0.2095
  409MOL0     N55130   4.929   3.567   2.113 -0.1037 -0.6276  0.7111
  409MOL0     N55131   4.891   3.451   2.068  0.4655  0.1795  1.0809
  409MOL0     C55132   3.915   2.798   2.001 -0.0016 -0.0336 -0.2201
  409MOL0     C55133   3.800   2.721   1.979  1.0485 -0.3455  0.3106
  409MOL0     C55134   3.364   2.593   2.092  0.5747  0.1038 -0.8207
  409MOL0     C55135   3.263   2.653   2.010 -0.7706  0.2975  0.6218
  409MOL0     C55136   3.140   2.604   2.001 -0.0764  0.9067 -0.4675
  409MOL0     C55137   3.094   2.496   2.080 -0.7051 -0.1633  0.1944
  409MOL0     O55138   2.972   2.436   2.073 -0.4907  0.4573 -0.4129
  409MOL0     C55139   2.869   2.506   1.999 -0.0665  0.8412 -0.4286
  409MOL0     C55140   2.746   2.427   1.994 -0.2770  0.0760 -0.6515
  409MOL0     C55141   2.688   2.384   2.129  0.5692  0.0598  0.5785
  409MOL0     C55142   2.543   2.338   2.108 -0.5853 -0.4123  0.2864
  409MOL0     C55143   2.456   2.455   2.078  0.1085  0.5741 -1.2125
  409MOL0     C55144   2.382   2.549   2.050 -0.6850 -0.6914  0.3599
  409MOL0     C55145   3.186   2.446   2.172  0.5614 -0.9327  0.4587
  409MOL0     C55146   3.325   2.485   2.175 -0.1975 -0.3025  0.3137
  409MOL0     C55147   3.427   2.411   2.271  0.0527 -0.2115 -0.3483
  409MOL0     H55148   3.553   2.960   2.037 -0.8493 -0.2617 -1.1489
  409MOL0     H55149   3.758   3.097   2.083  1.0196  0.9255 -3.1429
  409MOL0     H55150   3.951   3.181   2.104  1.5810  1.2053 -1.5942
  409MOL0     H55151   4.008   3.070   2.239  1.3078  0.4684  0.0459
  409MOL0     H55152   4.144   3.272   2.180  2.4317  2.1425 -1.9762
  409MOL0     H55153   4.192   3.207   2.033  2.3128  0.3998  0.2819
  409MOL0     H55154   4.241   2.991   2.225 -2.4011  0.9466  0.1345
  409MOL0     H55155   4.272   3.141   2.314  1.8639  2.1255 -0.4847
  409MOL0     H55156   4.466   3.051   2.203  2.0049 -0.5386 -0.8428
  409MOL0     H55157   4.396   3.084   2.043  0.5317 -0.7952  1.1705
  409MOL0     H55158   4.406   3.333   2.103  0.3662  1.3437  2.1971
  409MOL0     H55159   4.449   3.306   2.262 -0.2460  2.5658 -0.4124
  409MOL0     H55160   4.605   3.220   2.002  3.4176  2.9007 -1.0187
  409MOL0     H55161   4.636   3.361   2.106 -1.2670  0.8620 -0.3936
  409MOL0     H55162   4.696   3.086   2.197  1.9846 -0.1749 -1.8793
  409MOL0     H55163   4.717   3.235   2.295  3.4513  0.9502  0.7624
  409MOL0     H55164   4.932   3.146   2.190  2.1853 -1.2351 -3.7678
  409MOL0     H55165   4.874   3.190   2.037 -1.4611 -0.2847 -0.8255
  409MOL0     H55166   4.940   3.384   2.376  3.3503  2.5575  1.2147
  409MOL0     H55167   4.968   3.757   2.271  1.1974  1.6994  1.5222
  409MOL0     H55168   4.956   3.681   2.421  0.3764  0.4267  0.2115
  409MOL0     H55169   5.196   3.557   2.313  1.5069  0.2993  0.5475
  409MOL0     H55170   5.190   3.706   2.228 -0.4264  3.1702  1.5548
  409MOL0     H55171   5.220   3.657   2.535  1.4786 -1.2965 -0.8768
  409MOL0     H55172   5.187   3.823   2.475 -0.0698  0.2825  0.6116
  409MOL0     H55173   5.413   3.830   2.497  0.1445 -1.7959  2.1879
  409MOL0     H55174   5.397   3.775   2.323  1.5878 -1.8395 -0.2815
  409MOL0     H55175   5.614   3.856   2.462 -2.6228 -0.3043 -0.0243
  409MOL0     H55176   5.861   3.842   2.500 -1.5897  0.4521 -0.2285
  409MOL0     H55177   6.247   3.699   2.749  0.0991 -1.4764 -1.3128
  409MOL0     H55178   6.465   3.691   2.737 -0.6288 -0.5248 -0.6941
  409MOL0     H55179   6.716   3.798   2.692  0.8313 -0.0659  0.2391
  409MOL0     H55180   6.667   3.624   2.689 -0.3318 -1.1812 -2.8242
  409MOL0     H55181   6.829   3.586   2.533 -0.5549  0.3162 -0.7023
  409MOL0     H55182   6.876   3.758   2.515  1.0604  1.0138  1.8779
  409MOL0     H55183   6.977   3.781   2.726 -1.7382  0.1458  2.6805
  409MOL0     H55184   6.904   3.632   2.788  0.6379  0.8128  1.3663
  409MOL0     H55185   7.120   3.643   2.557 -0.4928 -0.6522 -0.0195
  409MOL0     H55186   7.042   3.497   2.622  0.0985 -0.4386  1.6713
  409MOL0     H55187   7.146   3.568   2.853  2.5265 -0.7103 -0.1621
  409MOL0     H55188   7.186   3.722   2.776  0.6980  0.1512 -2.5987
  409MOL0     H55189   7.328   3.567   2.620 -1.7139 -1.3956 -1.1297
  409MOL0     H55190   7.382   3.600   2.788  1.0752 -2.2182  0.0331
  409MOL0     H55191   7.237   3.348   2.686  2.9940 -1.4810 -2.0365
  409MOL0     H55192   7.263   3.377   2.856  1.2881  1.7230  0.6526
  409MOL0     H55193   7.502   3.389   2.828 -0.4436 -1.0832  0.4577
  409MOL0     H55194   7.454   3.236   2.772 -2.1722  0.3531  1.7126
  409MOL0     H55195   6.459   3.747   2.317 -0.2051 -4.1067 -0.4456
  409MOL0     H55196   6.229   3.757   2.322  1.6026  0.3236 -0.9291
  409MOL0     H55197   5.831   3.407   2.493  0.2528  0.5208  0.3859
  409MOL0     H55198   5.593   3.422   2.454  0.9985 -0.0817  1.6703
  409MOL0     H55199   4.012   2.749   1.996 -0.5754 -1.0947 -1.8177
  409MOL0     H55200   3.809   2.615   1.958  2.5037 -0.2550  0.3979
  409MOL0     H55201   3.308   2.722   1.938  0.3874  0.1286  1.1624
  409MOL0     H55202   3.080   2.649   1.922  0.4293  2.7279  0.1409
  409MOL0     H55203   2.904   2.524   1.897  1.5365 -3.4065 -0.8521
  409MOL0     H55204   2.850   2.603   2.044 -3.9167  0.7521 -1.4767
  409MOL0     H55205   2.750   2.348   1.918 -3.1524  1.2962 -2.2274
  409MOL0     H55206   2.674   2.495   1.948 -2.9998 -1.4431  1.0929
  409MOL0     H55207   2.687   2.461   2.206  0.5624  0.9509 -0.2994
  409MOL0     H55208   2.750   2.304   2.172  1.7198  1.3234  1.3435
  409MOL0     H55209   2.535   2.264   2.029 -1.2662 -0.9534  0.8529
  409MOL0     H55210   2.504   2.288   2.197 -3.0143 -0.2362 -0.6170
  409MOL0     H55211   2.320   2.636   2.039 -0.4193 -0.2173  2.2356
  409MOL0     H55212   3.140   2.377   2.242 -2.9472 -0.0336 -0.7459
  409MOL0     H55213   3.525   2.424   2.225 -0.0359 -0.7429 -0.6947
  409MOL0     H55214   3.426   2.445   2.375  1.0174 -3.2770  0.7893
  409MOL0     H55215   3.415   2.302   2.274 -0.4024 -0.1794 -0.9729
  410MOL0     O55216  10.100   6.339   6.644  0.0816 -0.1777  0.2443
  410MOL0     C55217  10.058   6.425   6.721  0.3988  0.5655  0.5507
  410MOL0     O55218  10.132   6.522   6.783 -0.5142  0.5691  0.6610
  410MOL0     C55219  10.271   6.505   6.781 -0.9354  0.7122 -0.7973
  410MOL0     C55220  10.322   6.436   6.893  1.6429  0.6772  0.3720
  410MOL0     C55221  10.454   6.422   6.906 -0.5783 -1.0009 -0.3491
  410MOL0     C55222  10.547   6.463   6.808 -0.8586 -1.2569  0.5363
  410MOL0     O55223  10.679   6.455   6.845 -0.0760 -0.0213  0.6435
  410MOL0     C55224  10.775   6.449   6.738  0.6963 -0.1648  0.2969
  410MOL0     C55225  10.907   6.389   6.794  0.2577 -0.3426  0.3711
  410MOL0     C55226  11.015   6.405   6.681  0.5114 -0.3826 -0.5728
  410MOL0     C55227  11.127   6.305   6.707  1.1264  0.1489  0.2698
  410MOL0     C55228  11.238   6.313   6.606  0.1251 -0.1807 -0.5790
  410MOL0     C55229  11.347   6.220   6.641  0.4024 -0.6136  0.8023
  410MOL0     C55230  11.420   6.193   6.509 -0.2504 -0.5150  0.2319
  410MOL0     C55231  11.546   6.117   6.537 -0.0665 -0.5656  0.4081
  410MOL0     N55232  11.605   6.071   6.413  0.4202 -0.6089  0.4670
  410MOL0     C55233  11.543   6.021   6.294  0.5758 -0.3812 -0.2679
  410MOL0     C55234  11.654   5.963   6.233  0.3389 -0.5649  0.3343
  410MOL0     C55235  11.630   5.877   6.111 -0.3751  0.0255  0.0801
  410MOL0     C55236  11.744   5.783   6.093 -0.2166 -0.1975  0.0405
  410MOL0     C55237  11.855   5.845   6.010  0.2973  0.0674  0.8489
  410MOL0     C55238  11.973   5.756   6.001  0.1936  0.3821  0.4099
  410MOL0     O55239  12.053   5.802   5.887 -0.2001  0.2011 -0.1811
  410MOL0     C55240  12.158   5.726   5.851 -0.2322  0.4212  1.4778
  410MOL0     C55241  12.216   5.753   5.730 -0.4704 -0.6505  0.8946
  410MOL0     C55242  12.339   5.691   5.692  0.9592  0.4499 -0.0118
  410MOL0     C55243  12.394   5.589   5.773  0.2565 -0.5890  0.2622
  410MOL0     C55244  12.520   5.520   5.730  0.5208 -0.4548  0.0032
  410MOL0     O55245  12.549   5.528   5.598 -0.1799  0.0773  0.3244
  410MOL0     C55246  12.617   5.637   5.552 -0.6219  0.3251 -0.4522
  410MOL0     C55247  12.607   5.684   5.420 -0.5948 -0.3422 -0.0791
  410MOL0     C55248  12.679   5.791   5.370 -0.6462  0.2006 -0.7539
  410MOL0     C55249  12.752   5.873   5.456  0.7482 -0.4007 -0.1753
  410MOL0     O55250  12.809   5.997   5.429  0.1901  0.0006 -0.0243
  410MOL0     C55251  12.825   6.033   5.295 -0.0997 -0.7774  0.6861
  410MOL0     C55252  12.968   6.088   5.264 -0.3542 -0.5494 -0.2163
  410MOL0     C55253  13.035   6.179   5.374 -0.3020 -0.0851  1.4335
  410MOL0     C55254  13.176   6.237   5.338 -0.7093 -0.5559  0.2749
  410MOL0     C55255  13.275   6.130   5.318 -0.0725  0.3778 -0.1413
  410MOL0     C55256  13.409   6.197   5.301  0.1521  0.2864 -0.0613
  410MOL0     C55257  13.510   6.086   5.286 -0.4421  0.3454  0.1171
  410MOL0     C55258  13.653   6.135   5.294 -0.1554  0.0529 -0.2698
  410MOL0    Cl55259  13.769   6.008   5.228 -0.2342 -0.1501 -0.8798
  410MOL0     C55260  12.763   5.832   5.592  0.2062 -0.5407  0.9902
  410MOL0     C55261  12.695   5.717   5.639 -0.1549  0.1356  0.3535
  410MOL0     O55262  12.573   5.443   5.802 -0.4376  0.7024  0.2958
  410MOL0     C55263  12.332   5.557   5.894  0.5658  0.0077  0.5216
  410MOL0     C55264  12.214   5.620   5.927  0.5749  0.1296  0.1696
  410MOL0     N55265  11.767   5.991   6.309 -0.5326 -0.2063  0.5435
  410MOL0     N55266  11.734   6.048   6.414 -0.5331 -0.4616 -0.1320
  410MOL0     C55267  10.494   6.520   6.690 -0.3260 -0.0501  0.5129
  410MOL0     C55268  10.359   6.555   6.684  0.2473  1.1348 -0.0479
  410MOL0     C55269   9.913   6.435   6.756 -0.0985  0.2194  0.0679
  410MOL0     C55270   9.875   6.531   6.852 -0.9370  0.6318  0.2374
  410MOL0     C55271   9.745   6.555   6.886 -0.0048  0.2236  0.2283
  410MOL0     C55272   9.646   6.470   6.837 -0.0678  0.0835  0.4255
  410MOL0     O55273   9.530   6.495   6.896  0.2667  0.2009  0.5311
  410MOL0     C55274   9.418   6.502   6.799  0.4779 -0.3730 -0.5164
  410MOL0     C55275   9.300   6.577   6.861 -0.1663 -0.4430  0.1679
  410MOL0     C55276   9.318   6.727   6.868  0.1203  0.3606 -0.2339
  410MOL0     C55277   9.218   6.795   6.971  1.0641 -0.5849 -0.6754
  410MOL0     C55278   9.076   6.798   6.938 -0.0910 -0.1582 -0.6338
  410MOL0     C55279   8.954   6.806   6.920  0.5351 -0.2116 -0.1061
  410MOL0     C55280   9.677   6.386   6.729 -0.3001  0.2884 -0.3667
  410MOL0     C55281   9.810   6.368   6.686  0.5035  0.5544 -0.1862
  410MOL0     C55282   9.829   6.272   6.566  0.2780 -0.3815 -0.4502
  410MOL0     H55283  10.243   6.406   6.961 -0.3178  0.6850 -1.7466
  410MOL0     H55284  10.497   6.381   6.997  5.4153  0.9990 -1.8024
  410MOL0     H55285  10.742   6.403   6.644 -1.0108  2.6871 -0.6265
  410MOL0     H55286  10.793   6.555   6.716 -3.1478  0.9589  1.6451
  410MOL0     H55287  10.891   6.285   6.825 -0.0967  0.4065  3.0200
  410MOL0     H55288  10.936   6.446   6.883  0.4735 -0.8888  0.6555
  410MOL0     H55289  11.052   6.508   6.680 -1.3936  0.4111  1.3414
  410MOL0     H55290  10.971   6.386   6.583 -0.4760  0.0362 -0.2302
  410MOL0     H55291  11.163   6.311   6.811 -1.3466 -1.5844  1.3423
  410MOL0     H55292  11.094   6.201   6.713 -0.3234  0.5518 -0.5338
  410MOL0     H55293  11.202   6.296   6.504  0.6723 -0.2493 -0.7666
  410MOL0     H55294  11.287   6.411   6.608  2.7452 -1.3744  2.4704
  410MOL0     H55295  11.403   6.262   6.725  0.8081  1.0322 -0.2432
  410MOL0     H55296  11.312   6.121   6.673  0.6333 -0.6302  1.0029
  410MOL0     H55297  11.441   6.286   6.455 -0.9348 -0.8529 -0.6206
  410MOL0     H55298  11.347   6.154   6.438 -1.4538  3.2674 -0.8653
  410MOL0     H55299  11.609   6.176   6.603 -0.5836  0.3943  0.0732
  410MOL0     H55300  11.514   6.030   6.595 -0.5102 -0.8639 -0.2605
  410MOL0     H55301  11.437   6.010   6.274  0.6896  0.0176 -1.1120
  410MOL0     H55302  11.536   5.820   6.117 -1.5543  1.9574  0.6316
  410MOL0     H55303  11.624   5.938   6.020  0.7944 -0.3310 -0.2559
  410MOL0     H55304  11.780   5.746   6.190 -0.3634 -0.6891 -0.0945
  410MOL0     H55305  11.704   5.696   6.041 -2.1241  1.2975 -1.0979
  410MOL0     H55306  11.893   5.943   6.039  3.9965 -1.3401  1.2449
  410MOL0     H55307  11.805   5.853   5.913  0.4306 -0.3329  0.7424
  410MOL0     H55308  11.934   5.657   5.978 -0.2515  1.0212 -1.8600
  410MOL0     H55309  12.022   5.748   6.099 -1.1954 -0.4660  1.0640
  410MOL0     H55310  12.187   5.841   5.674  0.7424 -1.8590 -1.7705
  410MOL0     H55311  12.383   5.722   5.598  2.4135 -2.2948 -0.3531
  410MOL0     H55312  12.538   5.620   5.367  1.8247 -2.0851 -1.2725
  410MOL0     H55313  12.670   5.826   5.267  1.9706  0.4249 -0.9930
  410MOL0     H55314  12.814   5.946   5.230 -0.0971 -2.4645  2.8472
  410MOL0     H55315  12.754   6.109   5.261  2.4763  0.1944 -3.1615
  410MOL0     H55316  13.032   6.000   5.257 -0.5771 -0.6455 -1.2392
  410MOL0     H55317  12.970   6.140   5.167  0.5517 -3.5053 -1.8916
  410MOL0     H55318  12.975   6.268   5.398  2.0676  1.4026  2.2232
  410MOL0     H55319  13.055   6.117   5.462 -0.4543  1.3338  2.5056
  410MOL0     H55320  13.208   6.291   5.427 -3.3042 -0.4524  1.2448
  410MOL0     H55321  13.171   6.286   5.241  2.1918 -0.4347  0.1201
  410MOL0     H55322  13.244   6.070   5.232  1.1185 -1.5861  0.7231
  410MOL0     H55323  13.283   6.054   5.398  1.0141  1.3176  0.6698
  410MOL0     H55324  13.405   6.255   5.208  1.7276 -0.1312 -0.4083
  410MOL0     H55325  13.443   6.258   5.385 -0.1515 -1.5061  1.4169
  410MOL0     H55326  13.496   6.029   5.194  0.0177 -0.7632  0.7096
  410MOL0     H55327  13.505   6.014   5.369  1.6801  0.2493  0.1994
  410MOL0     H55328  13.655   6.229   5.237 -0.1133  1.4052  1.8403
  410MOL0     H55329  13.677   6.164   5.397  0.1289 -3.1568  0.6747
  410MOL0     H55330  12.812   5.898   5.663 -0.3648  1.0507 -0.0412
  410MOL0     H55331  12.712   5.701   5.745  1.3921 -0.5871  0.0276
  410MOL0     H55332  12.365   5.481   5.964  2.1887 -0.1085 -0.3342
  410MOL0     H55333  12.181   5.606   6.029 -1.5511  1.8590 -0.2118
  410MOL0     H55334  10.554   6.566   6.612 -0.5860 -0.4842  0.0517
  410MOL0     H55335  10.331   6.619   6.600  2.3211  4.2194  1.4273
  410MOL0     H55336   9.948   6.595   6.901  1.4733  0.3657 -2.6643
  410MOL0     H55337   9.720   6.632   6.959  0.1805 -0.8040  1.4207
  410MOL0     H55338   9.393   6.397   6.778 -0.6224 -0.7311  2.0878
  410MOL0     H55339   9.456   6.553   6.710  0.7571  0.2750 -0.0328
  410MOL0     H55340   9.277   6.543   6.963 -4.1958  0.6051 -0.2243
  410MOL0     H55341   9.206   6.555   6.809 -1.2743  1.8663  1.0660
  410MOL0     H55342   9.302   6.771   6.769 -1.2063  0.4211 -0.0164
  410MOL0     H55343   9.419   6.753   6.901 -0.5281  1.9472  0.5940
  410MOL0     H55344   9.220   6.743   7.067 -3.9822 -1.0301 -0.5538
  410MOL0     H55345   9.250   6.897   6.991 -0.7314  0.0966 -1.1011
  410MOL0     H55346   8.854   6.826   6.888  0.8953 -1.7848 -2.5904
  410MOL0     H55347   9.598   6.338   6.672 -1.6448  3.4149 -1.3422
  410MOL0     H55348   9.863   6.331   6.481 -4.1331  0.4416 -1.9453
  410MOL0     H55349   9.884   6.181   6.589 -0.0659 -0.2752  0.9116
  410MOL0     H55350   9.726   6.246   6.537 -0.4222  2.3453 -0.6971
  411MOL0     O55351   3.849   2.755   5.588  0.3144 -0.7325  0.1788
  411MOL0     C55352   3.808   2.833   5.673  0.6529  0.4962 -0.3954
  411MOL0     O55353   3.883   2.930   5.735  0.5122 -0.0228  0.6957
  411MOL0     C55354   4.005   2.949   5.678  0.4123 -0.1380 -0.4042
  411MOL0     C55355   4.123   2.906   5.750 -0.6844  0.4161  0.2065
  411MOL0     C55356   4.258   2.932   5.694  0.9235 -0.7670  0.2791
  411MOL0     C55357   4.266   3.005   5.574  0.4042  0.7009  0.1429
  411MOL0     O55358   4.378   3.037   5.510  0.1678 -0.0281 -0.2492
  411MOL0     C55359   4.485   2.940   5.485 -0.1781 -0.2495 -0.4161
  411MOL0     C55360   4.614   2.966   5.550 -0.1919  0.0857 -0.1068
  411MOL0     C55361   4.742   2.921   5.472  0.5429  0.3761  0.2655
  411MOL0     C55362   4.868   2.968   5.540 -0.8297  0.5207 -1.0131
  411MOL0     C55363   4.977   2.978   5.435 -0.4084  1.1159 -0.5034
  411MOL0     C55364   5.013   2.844   5.381 -0.3272 -0.5518 -0.2725
  411MOL0     C55365   5.155   2.848   5.311 -0.3225 -0.2169  0.4335
  411MOL0     C55366   5.166   2.945   5.191  0.0290 -0.6477  0.1801
  411MOL0     N55367   5.305   2.942   5.129  0.2786  0.4641  0.4490
  411MOL0     C55368   5.347   2.843   5.042 -0.7347  0.0510  0.4285
  411MOL0     C55369   5.469   2.889   4.993  0.9011 -0.0461 -0.4791
  411MOL0     C55370   5.562   2.822   4.889  0.5184 -0.4177 -0.1743
  411MOL0     C55371   5.635   2.922   4.800 -0.1747  0.0094 -0.2080
  411MOL0     C55372   5.745   2.864   4.708 -0.7575  0.0603  0.1416
  411MOL0     C55373   5.798   2.984   4.621  0.3095 -0.4036  0.4911
  411MOL0     O55374   5.903   3.057   4.695 -0.0151  0.0132  0.4129
  411MOL0     C55375   5.949   3.169   4.632 -0.1575 -0.5821 -0.0608
  411MOL0     C55376   5.866   3.267   4.579  0.7783 -0.2080 -1.1024
  411MOL0     C55377   5.921   3.382   4.517 -0.3969 -0.0874  0.1131
  411MOL0     C55378   6.063   3.404   4.516  0.1176  0.2827 -0.2367
  411MOL0     C55379   6.125   3.529   4.469  0.2487  0.8297 -0.7626
  411MOL0     O55380   6.041   3.628   4.415  0.0846 -0.3266  0.3984
  411MOL0     C55381   6.095   3.750   4.394 -0.5929 -1.2188 -0.1758
  411MOL0     C55382   6.047   3.859   4.462  1.0110 -0.4538 -0.3471
  411MOL0     C55383   6.105   3.983   4.454 -0.3419 -0.2063  0.0544
  411MOL0     C55384   6.214   4.008   4.373 -0.3117  0.1861  0.1622
  411MOL0     O55385   6.278   4.125   4.370  0.3672 -0.0408 -0.0269
  411MOL0     C55386   6.388   4.129   4.467 -0.0002 -0.3080  0.4834
  411MOL0     C55387   6.449   4.269   4.467 -0.9407  0.3897  0.3761
  411MOL0     C55388   6.599   4.240   4.469 -0.1588  0.1262  0.3150
  411MOL0     C55389   6.672   4.362   4.530 -0.5956  0.7522  0.2664
  411MOL0     C55390   6.820   4.345   4.558  1.4992  0.2702 -0.2284
  411MOL0     C55391   6.875   4.467   4.633 -0.2366  0.3894  0.1712
  411MOL0     C55392   7.013   4.443   4.691 -0.0650 -0.0125  0.0019
  411MOL0     C55393   7.054   4.558   4.785  0.3894  0.3654 -0.4063
  411MOL0    Cl55394   7.181   4.495   4.890 -0.0472 -0.0738  0.2845
  411MOL0     C55395   6.259   3.903   4.289 -0.2721  0.0636 -0.2375
  411MOL0     C55396   6.197   3.774   4.291 -0.2526 -0.2474  0.6493
  411MOL0     O55397   6.241   3.543   4.494 -1.0078 -0.0571 -0.0118
  411MOL0     C55398   6.146   3.301   4.562  0.0954  0.3725  0.3617
  411MOL0     C55399   6.089   3.184   4.624 -1.3443  0.4403 -0.7810
  411MOL0     N55400   5.495   3.018   5.059  0.2717  0.6549 -0.3413
  411MOL0     N55401   5.393   3.040   5.131 -0.0769 -0.0220 -0.9928
  411MOL0     C55402   4.148   3.051   5.516  0.0836 -0.2568  0.5019
  411MOL0     C55403   4.013   3.024   5.562  0.3290  0.4508  0.2786
  411MOL0     C55404   3.662   2.825   5.709  0.4327 -0.4638  0.0363
  411MOL0     C55405   3.588   2.936   5.745 -0.2936  0.0322  0.4708
  411MOL0     C55406   3.459   2.928   5.778  0.3172  0.0064  0.1470
  411MOL0     C55407   3.387   2.809   5.784  0.4907 -0.2258  0.7436
  411MOL0     O55408   3.259   2.826   5.835 -0.1042  0.6399 -0.4955
  411MOL0     C55409   3.170   2.730   5.773  0.0626  0.1436  0.6443
  411MOL0     C55410   3.025   2.784   5.780  0.4000 -0.1013 -0.6988
  411MOL0     C55411   3.007   2.930   5.725 -0.7406 -0.4592 -0.3798
  411MOL0     C55412   2.876   2.951   5.667  0.2715  0.1880 -0.1396
  411MOL0     C55413   2.854   3.068   5.591 -0.0454  0.3108  0.1094
  411MOL0     C55414   2.830   3.165   5.523  0.1495  0.4962 -0.3717
  411MOL0     C55415   3.449   2.692   5.748 -0.8059  0.0296  0.0027
  411MOL0     C55416   3.589   2.699   5.706 -0.6299 -0.5225 -1.1213
  411MOL0     C55417   3.657   2.565   5.681  0.2807 -0.2112 -0.2246
  411MOL0     H55418   4.113   2.857   5.846  0.6560 -1.6388 -0.6363
  411MOL0     H55419   4.346   2.908   5.753  0.0367 -2.8902  0.8684
  411MOL0     H55420   4.461   2.835   5.502  3.3104 -0.5867  4.7037
  411MOL0     H55421   4.516   2.956   5.381  0.6202 -1.0132 -0.3112
  411MOL0     H55422   4.617   2.905   5.641 -1.5123  0.3834  0.1644
  411MOL0     H55423   4.617   3.071   5.581  2.4827 -0.4563  1.8374
  411MOL0     H55424   4.731   2.947   5.366  1.4769  0.7704  0.2573
  411MOL0     H55425   4.741   2.812   5.478 -1.9312  0.2289 -1.4241
  411MOL0     H55426   4.853   3.068   5.582  2.9160  0.7928  0.0555
  411MOL0     H55427   4.906   2.913   5.627  0.7856  1.6362 -0.9664
  411MOL0     H55428   4.948   3.051   5.359 -0.2172  1.2335 -0.4628
  411MOL0     H55429   5.060   3.010   5.498 -0.5572  2.7310 -1.0845
  411MOL0     H55430   5.025   2.766   5.457  3.4040  1.6631  1.6848
  411MOL0     H55431   4.936   2.804   5.314 -0.8572 -0.2151  0.1356
  411MOL0     H55432   5.189   2.750   5.276 -0.0073  0.1530 -0.3111
  411MOL0     H55433   5.231   2.875   5.385  1.4007  0.2542 -1.4395
  411MOL0     H55434   5.088   2.918   5.119 -0.6412 -0.7165  0.9271
  411MOL0     H55435   5.152   3.047   5.227 -0.0199 -1.1054  1.4990
  411MOL0     H55436   5.299   2.751   5.010 -0.2931 -0.0066 -0.0813
  411MOL0     H55437   5.641   2.764   4.939 -0.6074 -1.1532  0.7920
  411MOL0     H55438   5.504   2.761   4.820 -1.0549  1.1392 -0.2790
  411MOL0     H55439   5.556   2.969   4.741  0.0458  0.3079 -0.2676
  411MOL0     H55440   5.677   2.999   4.866 -1.0527 -1.1454  1.8078
  411MOL0     H55441   5.711   2.777   4.651  0.6427 -1.6429  1.7794
  411MOL0     H55442   5.830   2.825   4.765 -1.3138 -0.2644  0.7476
  411MOL0     H55443   5.714   3.049   4.598  0.1934 -0.2204  1.3858
  411MOL0     H55444   5.842   2.950   4.527  3.2235  1.7728  0.8942
  411MOL0     H55445   5.758   3.265   4.587  0.6960  1.8276 -1.1985
  411MOL0     H55446   5.856   3.463   4.487  0.8510  0.7829 -0.3263
  411MOL0     H55447   5.972   3.833   4.537  0.8024 -0.5005 -0.5711
  411MOL0     H55448   6.064   4.053   4.526 -1.1314  0.0185 -0.5975
  411MOL0     H55449   6.360   4.107   4.570 -1.5085  0.3913  0.2538
  411MOL0     H55450   6.455   4.050   4.430  0.0695 -0.6386  1.2971
  411MOL0     H55451   6.429   4.332   4.380 -0.5710  2.6599  1.8665
  411MOL0     H55452   6.412   4.316   4.558  1.6651  0.2730  1.5779
  411MOL0     H55453   6.634   4.153   4.526  3.0816 -0.2590 -2.0035
  411MOL0     H55454   6.628   4.226   4.365 -2.6086  2.2186 -0.7670
  411MOL0     H55455   6.622   4.399   4.620 -0.8712  1.1330 -0.0371
  411MOL0     H55456   6.665   4.447   4.462 -0.3675  1.5333  1.1926
  411MOL0     H55457   6.861   4.326   4.458 -2.4913  0.4964 -2.1225
  411MOL0     H55458   6.829   4.251   4.612  0.2153 -0.2713 -0.9060
  411MOL0     H55459   6.875   4.557   4.571 -2.7412 -0.0784 -0.6446
  411MOL0     H55460   6.808   4.482   4.718 -0.7069  2.7651 -0.5343
  411MOL0     H55461   7.082   4.447   4.607 -1.9799  1.5137 -1.5866
  411MOL0     H55462   7.021   4.350   4.748 -1.3377  1.2623  2.4522
  411MOL0     H55463   7.092   4.646   4.733  1.9943  0.0838  0.2515
  411MOL0     H55464   6.967   4.580   4.849 -0.4501  0.0568 -1.4074
  411MOL0     H55465   6.327   3.915   4.205  0.5504  1.3034  0.5782
  411MOL0     H55466   6.240   3.706   4.218 -1.9437 -3.2742  2.3088
  411MOL0     H55467   6.253   3.316   4.567  0.5624 -2.0676 -0.4800
  411MOL0     H55468   6.158   3.113   4.669 -1.9565 -1.4245 -2.6488
  411MOL0     H55469   4.155   3.099   5.419 -1.8226  1.3310  1.0588
  411MOL0     H55470   3.924   3.067   5.516  0.9163 -0.4501 -1.7749
  411MOL0     H55471   3.632   3.034   5.757 -2.9385  1.4502 -0.4726
  411MOL0     H55472   3.418   3.026   5.801  3.5368  1.6256 -0.4092
  411MOL0     H55473   3.178   2.630   5.818 -0.5383 -0.3187 -0.2445
  411MOL0     H55474   3.199   2.715   5.669  0.9809 -1.5277  1.0987
  411MOL0     H55475   2.989   2.789   5.883  0.3080  0.2570 -0.7485
  411MOL0     H55476   2.959   2.717   5.724 -1.2427  0.6466  0.2811
  411MOL0     H55477   3.094   2.953   5.662 -0.1039  1.3632  1.0677
  411MOL0     H55478   3.018   3.006   5.804 -3.0651  1.0922 -1.4350
  411MOL0     H55479   2.858   2.867   5.600 -2.4029  0.1938  0.4846
  411MOL0     H55480   2.806   2.943   5.750 -1.0525 -2.0497 -1.3713
  411MOL0     H55481   2.817   3.255   5.466 -1.5762  1.8404  1.9529
  411MOL0     H55482   3.394   2.599   5.744 -0.5788 -0.0921 -0.3385
  411MOL0     H55483   3.703   2.559   5.581 -0.2641 -0.3680 -0.4662
  411MOL0     H55484   3.739   2.545   5.750 -0.0498  0.2382  0.3065
  411MOL0     H55485   3.583   2.485   5.688 -1.5447  0.9643 -3.7096
  412MOL0     O55486   1.025   6.852   5.602 -0.2112 -0.0900  0.1959
  412MOL0     C55487   0.940   6.939   5.566 -0.6129  0.3007  0.2593
  412MOL0     O55488   0.972   7.068   5.547 -0.1416 -0.8696 -0.5990
  412MOL0     C55489   1.107   7.094   5.557  0.0551 -0.1322  0.1074
  412MOL0     C55490   1.175   7.138   5.439  0.2526 -1.0453  0.0470
  412MOL0     C55491   1.309   7.175   5.439  0.0459  0.6127  0.2557
  412MOL0     C55492   1.376   7.174   5.564 -1.1379  0.0731 -0.3071
  412MOL0     O55493   1.507   7.218   5.583  0.7493  0.4576 -0.2702
  412MOL0     C55494   1.574   7.264   5.464 -0.0517 -0.7942  0.2291
  412MOL0     C55495   1.710   7.302   5.487 -0.4630 -0.4744  0.3086
  412MOL0     C55496   1.788   7.191   5.559  1.2372  0.2789 -0.3462
  412MOL0     C55497   1.940   7.197   5.547 -0.0205  1.0974  0.1325
  412MOL0     C55498   1.994   7.191   5.411  0.3109  0.7000  1.4412
  412MOL0     C55499   2.148   7.168   5.394  0.7452  0.3825  0.1607
  412MOL0     C55500   2.223   7.256   5.498 -0.4000 -0.0030 -0.3372
  412MOL0     C55501   2.370   7.239   5.477 -0.5274 -0.0960 -0.4046
  412MOL0     N55502   2.425   7.317   5.365 -0.1953  0.2573 -0.1116
  412MOL0     C55503   2.513   7.424   5.360  0.2501  0.5192 -0.3293
  412MOL0     C55504   2.544   7.442   5.227  0.2505 -0.0290  0.5607
  412MOL0     C55505   2.614   7.557   5.160  0.1847 -0.5031  0.3788
  412MOL0     C55506   2.719   7.505   5.065 -0.1390  0.5082 -0.3126
  412MOL0     C55507   2.802   7.607   4.995  0.3435 -0.9072 -0.1766
  412MOL0     C55508   2.914   7.544   4.917 -0.1444 -0.6832  0.2375
  412MOL0     O55509   3.007   7.480   5.007 -0.3382 -0.0471  0.0915
  412MOL0     C55510   3.136   7.450   4.959  0.4073  0.1028  1.0236
  412MOL0     C55511   3.217   7.554   4.914  0.5253 -0.1291  0.5631
  412MOL0     C55512   3.347   7.527   4.868  0.0240  0.3738  0.7908
  412MOL0     C55513   3.407   7.406   4.870 -0.0835  0.9370  0.1153
  412MOL0     C55514   3.545   7.386   4.834  0.9859 -0.2183 -0.5967
  412MOL0     O55515   3.595   7.257   4.867 -0.2410 -0.7345  0.4373
  412MOL0     C55516   3.723   7.226   4.835  0.1216 -0.1921  1.0957
  412MOL0     C55517   3.755   7.109   4.753  0.6118 -0.0962 -0.7070
  412MOL0     C55518   3.891   7.085   4.725  0.4452 -0.3089 -0.5501
  412MOL0     C55519   3.997   7.166   4.770  0.6799 -0.4306 -0.1273
  412MOL0     O55520   4.127   7.142   4.739 -0.0924 -0.2113 -0.8026
  412MOL0     C55521   4.199   7.068   4.845  0.0973 -0.3189  0.1675
  412MOL0     C55522   4.342   7.052   4.806  0.0883 -0.0582  0.1089
  412MOL0     C55523   4.410   7.186   4.824  0.3619 -0.6287  0.6586
  412MOL0     C55524   4.556   7.170   4.799  0.2285  0.3559 -0.0892
  412MOL0     C55525   4.628   7.292   4.734  0.6169 -0.6952 -0.8504
  412MOL0     C55526   4.581   7.426   4.803 -0.1155  0.1921 -0.1412
  412MOL0     C55527   4.626   7.435   4.949 -0.2693 -0.6242 -0.1526
  412MOL0     C55528   4.776   7.473   4.963  0.7501 -0.2978 -0.3700
  412MOL0    Cl55529   4.792   7.632   4.891  0.4482  0.1849  0.4373
  412MOL0     C55530   3.966   7.273   4.842  0.3339  0.0927 -0.9675
  412MOL0     C55531   3.828   7.308   4.874 -0.5687  0.9340 -0.1207
  412MOL0     O55532   3.610   7.475   4.776  0.3714  0.2752  0.8104
  412MOL0     C55533   3.327   7.302   4.927  1.3565 -0.5432  0.1735
  412MOL0     C55534   3.191   7.326   4.961 -0.3488  0.4712 -1.2981
  412MOL0     N55535   2.480   7.342   5.155  0.2476  0.8774 -0.5493
  412MOL0     N55536   2.404   7.270   5.241 -0.1362  0.6286  0.7696
  412MOL0     C55537   1.308   7.142   5.680  0.1532 -0.3650  0.7335
  412MOL0     C55538   1.174   7.105   5.683  0.6249  0.1251 -0.3062
  412MOL0     C55539   0.802   6.909   5.554  0.1008  0.8040 -0.4439
  412MOL0     C55540   0.707   7.014   5.541  0.3726 -0.2203  0.4981
  412MOL0     C55541   0.568   6.986   5.535  0.1498 -0.0719 -0.3672
  412MOL0     C55542   0.525   6.859   5.548 -0.6532  0.8115  0.6756
  412MOL0     O55543   0.401   6.819   5.582  0.4209 -0.1861 -0.1751
  412MOL0     C55544   0.314   6.899   5.659 -0.4464 -0.3102 -0.3397
  412MOL0     C55545   0.380   6.921   5.794  0.5647 -0.2239 -0.6846
  412MOL0     C55546   0.292   6.985   5.897  0.7567 -0.3240 -0.1750
  412MOL0     C55547   0.366   7.011   6.029 -0.5899  0.3399  0.1373
  412MOL0     C55548   0.488   7.099   6.011  0.4588 -0.7554  0.2132
  412MOL0     C55549   0.576   7.180   6.003  0.1584  0.1300 -0.4517
  412MOL0     C55550   0.612   6.750   5.544 -0.6407  0.4940 -0.6890
  412MOL0     C55551   0.751   6.772   5.552  0.0026  0.0370 -0.5951
  412MOL0     C55552   0.842   6.649   5.540 -0.1111 -0.2865  0.0559
  412MOL0     H55553   1.120   7.143   5.345 -0.0717  1.3690  0.3021
  412MOL0     H55554   1.351   7.202   5.342  0.5540 -1.3256 -0.0911
  412MOL0     H55555   1.593   7.191   5.385  1.2371 -0.7614  0.4840
  412MOL0     H55556   1.520   7.351   5.427 -0.6470 -1.3337 -0.1881
  412MOL0     H55557   1.725   7.399   5.536 -0.6343 -0.6276  0.6688
  412MOL0     H55558   1.751   7.309   5.386 -0.3984 -2.8642  0.1047
  412MOL0     H55559   1.749   7.093   5.531 -0.6660 -0.0411  2.8774
  412MOL0     H55560   1.764   7.196   5.665  0.7915 -2.5711 -0.2342
  412MOL0     H55561   1.981   7.288   5.592 -1.7727  1.8749  0.2229
  412MOL0     H55562   1.977   7.110   5.601  0.8265  0.0334 -2.0481
  412MOL0     H55563   1.943   7.111   5.357 -2.2565  1.6687  2.2669
  412MOL0     H55564   1.965   7.281   5.355  1.2202 -0.6230 -1.3733
  412MOL0     H55565   2.174   7.062   5.396  4.0809  1.0582 -1.5226
  412MOL0     H55566   2.171   7.196   5.291  2.5772 -1.4202  0.0184
  412MOL0     H55567   2.196   7.229   5.600 -1.8237 -0.6227 -0.8489
  412MOL0     H55568   2.209   7.362   5.474  1.0002 -0.0008 -1.2629
  412MOL0     H55569   2.422   7.253   5.572 -0.1939  0.7644 -0.7036
  412MOL0     H55570   2.387   7.131   5.473  0.4212 -0.0325  1.1714
  412MOL0     H55571   2.547   7.482   5.445  0.4889  0.2604 -0.2461
  412MOL0     H55572   2.540   7.620   5.110 -0.5903 -2.3965 -0.9730
  412MOL0     H55573   2.656   7.615   5.243 -1.3528 -0.1462  0.9355
  412MOL0     H55574   2.781   7.435   5.122 -0.3615 -0.2714 -1.0003
  412MOL0     H55575   2.679   7.444   4.983  0.1668  0.3589 -0.3535
  412MOL0     H55576   2.844   7.679   5.066 -0.8541  3.0256 -3.1059
  412MOL0     H55577   2.731   7.666   4.937  0.9584 -0.2125 -0.2314
  412MOL0     H55578   2.958   7.621   4.852 -0.7540  0.7435  1.4645
  412MOL0     H55579   2.873   7.466   4.853 -3.0710  0.1097  0.9982
  412MOL0     H55580   3.173   7.653   4.903  0.6842 -0.2097 -1.1836
  412MOL0     H55581   3.403   7.606   4.819 -2.8106  1.1964 -1.4215
  412MOL0     H55582   3.675   7.047   4.715 -0.0768  0.8555 -0.8480
  412MOL0     H55583   3.925   6.993   4.678  3.9139  0.2420  0.5547
  412MOL0     H55584   4.209   7.102   4.949  2.9840  0.0430 -0.1585
  412MOL0     H55585   4.155   6.969   4.863 -2.9962  1.1115  1.2803
  412MOL0     H55586   4.398   6.982   4.869  1.1968 -0.1430 -0.9458
  412MOL0     H55587   4.353   7.021   4.702 -2.7393  0.0046 -0.2665
  412MOL0     H55588   4.365   7.258   4.755 -1.6514 -1.7387  0.7676
  412MOL0     H55589   4.398   7.234   4.921  2.1981 -0.1556  0.6978
  412MOL0     H55590   4.570   7.085   4.731  1.8558 -0.1679  0.8365
  412MOL0     H55591   4.600   7.145   4.897 -0.0259  0.7875  0.1369
  412MOL0     H55592   4.624   7.294   4.625 -0.5710  0.5099 -0.8191
  412MOL0     H55593   4.730   7.266   4.763  0.7577  0.7678  0.1113
  412MOL0     H55594   4.616   7.514   4.747 -4.3336  1.3578 -1.3067
  412MOL0     H55595   4.472   7.432   4.795 -0.0287  2.5897 -0.2433
  412MOL0     H55596   4.619   7.339   5.001  0.6658 -0.4489  0.3234
  412MOL0     H55597   4.569   7.508   5.008  0.2630 -0.4935  0.2063
  412MOL0     H55598   4.796   7.475   5.070 -2.8863  0.5945  0.4272
  412MOL0     H55599   4.836   7.402   4.905 -2.2196 -1.7354 -1.9059
  412MOL0     H55600   4.052   7.335   4.868 -0.3626 -0.1154  2.3295
  412MOL0     H55601   3.807   7.397   4.933  2.1094  2.0783 -0.7741
  412MOL0     H55602   3.360   7.200   4.943  0.4235 -1.1843 -1.6451
  412MOL0     H55603   3.130   7.245   5.001  0.9918 -0.3476 -0.8427
  412MOL0     H55604   1.375   7.152   5.766  2.0701 -3.0854 -0.3107
  412MOL0     H55605   1.106   7.093   5.768  0.7277  0.5620 -0.1620
  412MOL0     H55606   0.729   7.119   5.557 -0.4472 -0.1725  1.4418
  412MOL0     H55607   0.493   7.065   5.541 -2.4459 -2.4379  0.9790
  412MOL0     H55608   0.212   6.860   5.672 -1.1409  1.8161  1.3441
  412MOL0     H55609   0.303   6.993   5.604  2.2572  1.0757  1.2843
  412MOL0     H55610   0.470   6.982   5.781  0.0884  0.8357  0.6431
  412MOL0     H55611   0.402   6.820   5.829  1.4817  0.7455  1.7590
  412MOL0     H55612   0.202   6.924   5.909  0.8368 -0.2055  1.1215
  412MOL0     H55613   0.259   7.080   5.854  1.0989 -0.5554 -0.9693
  412MOL0     H55614   0.297   7.061   6.097  1.7100  1.8598  1.4672
  412MOL0     H55615   0.404   6.916   6.066 -0.6498  0.0814 -0.4506
  412MOL0     H55616   0.645   7.262   6.003 -0.8672  1.0375  0.9709
  412MOL0     H55617   0.555   6.658   5.550 -2.4727  1.6333  0.7323
  412MOL0     H55618   0.911   6.676   5.460  0.6003 -3.0688 -0.3618
  412MOL0     H55619   0.903   6.620   5.626  1.4345 -0.4631 -1.0524
  412MOL0     H55620   0.785   6.568   5.494  0.2276  0.5353 -1.9045
  413MOL0     O55621   8.822   0.295   9.657 -0.1800 -0.0800  0.0666
  413MOL0     C55622   8.756   0.235   9.569  0.1303 -0.1196 -0.8483
  413MOL0     O55623   8.763   0.101   9.546 -0.9876 -0.3358  0.1487
  413MOL0     C55624   8.857   0.037   9.629  0.2325 -0.0532 -0.8301
  413MOL0     C55625   8.984   0.006   9.584 -0.3634  0.2584 -0.3176
  413MOL0     C55626   9.080  -0.039   9.672 -0.3982 -0.1689 -0.3095
  413MOL0     C55627   9.053  -0.074   9.802 -0.0908 -0.0933  0.0160
  413MOL0     O55628   9.154  -0.124   9.878  0.2680  0.2593 -0.6437
  413MOL0     C55629   9.147  -0.093  10.028 -0.9078  0.0518 -0.1098
  413MOL0     C55630   9.262  -0.158  10.104 -0.7050 -0.1619 -0.3728
  413MOL0     C55631   9.391  -0.131  10.023  0.8241 -0.1565 -0.3845
  413MOL0     C55632   9.514  -0.151  10.105 -0.2070  0.8205  0.3556
  413MOL0     C55633   9.637  -0.154  10.007  0.3897  0.2285  0.4686
  413MOL0     C55634   9.763  -0.201  10.085  0.0484 -0.1878 -0.7048
  413MOL0     C55635   9.818  -0.093  10.180 -0.2238 -0.3193 -0.0368
  413MOL0     C55636   9.945  -0.118  10.265 -0.0664  0.2102  0.5570
  413MOL0     N55637  10.049  -0.152  10.166 -0.0881  0.3008 -0.2173
  413MOL0     C55638  10.126  -0.060  10.100  0.4712  0.1576  0.2252
  413MOL0     C55639  10.202  -0.131  10.017 -0.4411  0.6641 -0.6109
  413MOL0     C55640  10.311  -0.076   9.934 -0.2818 -0.3122  0.0552
  413MOL0     C55641  10.431  -0.037  10.024 -1.0436  0.0461  0.3178
  413MOL0     C55642  10.524   0.057   9.944 -0.3110 -0.1351  0.2445
  413MOL0     C55643  10.667   0.075  10.011  0.2696  0.0153  1.0471
  413MOL0     O55644  10.747   0.163   9.924 -0.2578 -0.2317  0.5467
  413MOL0     C55645  10.880   0.193   9.956  0.5513 -0.3654  0.4115
  413MOL0     C55646  10.927   0.199  10.085 -0.1734 -0.6232  0.3095
  413MOL0     C55647  11.065   0.209  10.107  0.4916 -0.4585  0.6011
  413MOL0     C55648  11.158   0.223  10.005 -0.4444  0.2161 -0.0049
  413MOL0     C55649  11.299   0.266  10.020 -0.4873  0.5366  0.5274
  413MOL0     O55650  11.345   0.285  10.148  0.5189 -0.0702 -0.6245
  413MOL0     C55651  11.473   0.297  10.189 -0.3976  0.8876 -0.1544
  413MOL0     C55652  11.576   0.233  10.110 -0.1173  0.5023 -1.1748
  413MOL0     C55653  11.705   0.221  10.157 -0.0153 -0.1082  0.1057
  413MOL0     C55654  11.738   0.272  10.287 -0.4786  0.3632  0.3707
  413MOL0     O55655  11.871   0.259  10.330 -0.6279 -0.5457 -0.4728
  413MOL0     C55656  11.893   0.285  10.469 -0.2883  0.0185 -0.3044
  413MOL0     C55657  12.042   0.254  10.489  0.2373  0.1350  0.4586
  413MOL0     C55658  12.134   0.365  10.422  0.0366  0.7543  0.3973
  413MOL0     C55659  12.276   0.364  10.482 -0.5211 -0.4352  0.6360
  413MOL0     C55660  12.371   0.472  10.429 -0.7269  0.3680  0.2984
  413MOL0     C55661  12.519   0.424  10.450  0.1067 -0.5447 -0.7140
  413MOL0     C55662  12.570   0.430  10.602 -0.4839  0.1208  0.1778
  413MOL0     C55663  12.713   0.368  10.603 -0.0830  0.1998  0.2031
  413MOL0    Cl55664  12.723   0.201  10.543  0.2840 -0.4135  0.2888
  413MOL0     C55665  11.633   0.330  10.366  0.2717 -0.2520 -0.4174
  413MOL0     C55666  11.500   0.341  10.317  0.2650 -0.5104 -0.1427
  413MOL0     O55667  11.362   0.290   9.918 -0.2549  0.0499 -0.0886
  413MOL0     C55668  11.106   0.205   9.870 -0.0666 -0.0598 -0.0108
  413MOL0     C55669  10.972   0.198   9.843  0.6623  0.0454 -0.4047
  413MOL0     N55670  10.185  -0.269  10.042  0.8244 -0.0782 -0.0916
  413MOL0     N55671  10.097  -0.276  10.134  0.2206 -0.5321  0.2169
  413MOL0     C55672   8.924  -0.040   9.850 -1.4151  0.0728  0.0542
  413MOL0     C55673   8.827   0.009   9.766 -0.0215  0.5586  0.1213
  413MOL0     C55674   8.667   0.312   9.482 -0.2877 -0.6115  0.3163
  413MOL0     C55675   8.702   0.446   9.456 -0.0186 -0.5953 -0.1492
  413MOL0     C55676   8.617   0.536   9.390  0.8069 -0.0094 -0.6872
  413MOL0     C55677   8.499   0.480   9.341 -0.2134 -0.7352  1.0598
  413MOL0     O55678   8.415   0.565   9.264  0.5049  0.2295  0.3806
  413MOL0     C55679   8.284   0.567   9.322  0.2927 -0.2837 -1.1709
  413MOL0     C55680   8.200   0.695   9.282 -0.4255 -0.0349  0.0255
  413MOL0     C55681   8.074   0.729   9.368  0.1789 -0.5490 -1.1095
  413MOL0     C55682   8.000   0.849   9.307 -0.2834  0.4172  0.3940
  413MOL0     C55683   7.951   0.805   9.176 -0.4253  0.0216 -0.4331
  413MOL0     C55684   7.909   0.779   9.070  0.8044  0.1399 -0.0694
  413MOL0     C55685   8.461   0.350   9.369  0.3613 -0.4962 -0.5421
  413MOL0     C55686   8.538   0.271   9.456  0.0879  0.3600  1.0295
  413MOL0     C55687   8.488   0.133   9.491  0.0596  0.6873 -0.6512
  413MOL0     H55688   8.994   0.003   9.476  1.1120  0.4041 -0.2041
  413MOL0     H55689   9.178  -0.067   9.633 -1.2487 -0.1282 -2.5961
  413MOL0     H55690   9.145   0.013  10.051  0.1470  0.5772 -2.1821
  413MOL0     H55691   9.053  -0.138  10.063  0.4439 -2.0978  1.0120
  413MOL0     H55692   9.240  -0.264  10.120 -0.1669 -0.2908 -0.4605
  413MOL0     H55693   9.274  -0.109  10.202 -3.3643  0.7526 -0.4162
  413MOL0     H55694   9.387  -0.025   9.997  0.7514  0.6605  2.5981
  413MOL0     H55695   9.388  -0.192   9.932  0.1437  0.4034 -0.7441
  413MOL0     H55696   9.517  -0.078  10.186 -0.5159  1.3739 -0.1138
  413MOL0     H55697   9.517  -0.247  10.157  0.3455 -0.2990 -1.6462
  413MOL0     H55698   9.615  -0.224   9.925  0.0355  1.4770 -0.5403
  413MOL0     H55699   9.667  -0.056   9.967  1.0594 -0.2912 -0.3353
  413MOL0     H55700   9.744  -0.295  10.137 -3.1058 -0.5846 -2.3603
  413MOL0     H55701   9.845  -0.223  10.016  0.9016  0.4400  0.0915
  413MOL0     H55702   9.741  -0.055  10.249 -0.5418  1.3799 -1.2633
  413MOL0     H55703   9.851  -0.000  10.133 -0.9935  0.0751  0.1873
  413MOL0     H55704   9.983  -0.028  10.316  0.5788  0.1658  0.1578
  413MOL0     H55705   9.934  -0.198  10.339  0.7500  0.3458  0.8400
  413MOL0     H55706  10.127   0.048  10.114 -2.3363 -0.0030  2.7021
  413MOL0     H55707  10.349  -0.154   9.867 -0.2859  1.0713 -1.6458
  413MOL0     H55708  10.279   0.009   9.873  2.0742  1.9633  1.7798
  413MOL0     H55709  10.406   0.021  10.114 -1.1841  1.4379 -0.5778
  413MOL0     H55710  10.481  -0.131  10.048 -1.6705 -0.5859 -0.8035
  413MOL0     H55711  10.465   0.148   9.936 -1.1806 -0.4672  2.2339
  413MOL0     H55712  10.533   0.019   9.841  0.1100  0.9606 -0.1316
  413MOL0     H55713  10.715  -0.023  10.018  0.5596 -0.2579 -2.7810
  413MOL0     H55714  10.663   0.124  10.109  0.0198 -1.0246  1.5775
  413MOL0     H55715  10.867   0.185  10.174  2.0484 -3.4649  1.5058
  413MOL0     H55716  11.096   0.221  10.211  1.7191 -2.5832  0.5335
  413MOL0     H55717  11.552   0.194  10.011  0.0676 -2.0701 -0.2840
  413MOL0     H55718  11.786   0.171  10.105  4.0427  2.3958  3.4362
  413MOL0     H55719  11.875   0.388  10.501 -0.5497 -0.9352  2.9908
  413MOL0     H55720  11.830   0.220  10.531  0.8751 -2.3769 -1.4956
  413MOL0     H55721  12.066   0.246  10.596 -3.0205 -1.1213  1.2062
  413MOL0     H55722  12.055   0.154  10.448 -1.9348 -0.6135  1.4628
  413MOL0     H55723  12.131   0.351  10.314  0.1873  1.4067  0.3080
  413MOL0     H55724  12.086   0.463  10.432 -0.8102  0.2260  1.8551
  413MOL0     H55725  12.330   0.270  10.472  1.7110  0.4348  3.2857
  413MOL0     H55726  12.269   0.374  10.591 -0.0666  0.5203  0.5853
  413MOL0     H55727  12.357   0.569  10.477  1.7610  0.8690  0.1556
  413MOL0     H55728  12.358   0.483  10.321 -0.5802 -3.5701 -0.2986
  413MOL0     H55729  12.535   0.322  10.414  0.3615 -0.5533 -0.5800
  413MOL0     H55730  12.584   0.486  10.388  1.0722  0.6708  1.4122
  413MOL0     H55731  12.508   0.373  10.671  0.5806 -0.1826  0.9063
  413MOL0     H55732  12.578   0.537  10.624 -2.6403 -0.1714  2.8282
  413MOL0     H55733  12.768   0.430  10.532 -0.9621  1.2392  0.3949
  413MOL0     H55734  12.768   0.378  10.697  3.9716 -2.0840 -1.6797
  413MOL0     H55735  11.643   0.369  10.466 -1.6890  0.2365 -0.3630
  413MOL0     H55736  11.415   0.375  10.375 -0.6767 -2.3784 -0.3535
  413MOL0     H55737  11.173   0.190   9.786 -0.1730 -1.5729  0.1475
  413MOL0     H55738  10.939   0.179   9.742 -0.0173 -0.5327 -0.0831
  413MOL0     H55739   8.898  -0.051   9.954  1.1869  1.3924  0.9286
  413MOL0     H55740   8.730   0.039   9.806 -0.5868 -1.4227  0.3907
  413MOL0     H55741   8.791   0.493   9.496  1.7577 -3.4311 -0.5056
  413MOL0     H55742   8.627   0.640   9.362 -2.4045 -0.0446 -2.4881
  413MOL0     H55743   8.291   0.573   9.431  0.3652  0.7045 -1.2154
  413MOL0     H55744   8.220   0.484   9.292 -0.6495  0.4647 -1.3091
  413MOL0     H55745   8.171   0.683   9.177 -0.6536 -4.5592  0.3920
  413MOL0     H55746   8.265   0.782   9.272 -0.1980 -0.2728 -0.6404
  413MOL0     H55747   8.115   0.753   9.467  2.5715 -2.6046 -1.5027
  413MOL0     H55748   8.002   0.647   9.375 -2.6569  1.7455 -1.6845
  413MOL0     H55749   7.919   0.882   9.373  0.5270  2.4678  0.4127
  413MOL0     H55750   8.070   0.932   9.302  3.2894 -2.3790 -0.5235
  413MOL0     H55751   7.869   0.771   8.971 -1.8846 -0.7187  1.0082
  413MOL0     H55752   8.368   0.314   9.326  1.3927 -1.3997 -2.1128
  413MOL0     H55753   8.379   0.132   9.480  0.0613  2.4130 -1.0677
  413MOL0     H55754   8.521   0.053   9.425 -2.0342 -0.8545  0.0560
  413MOL0     H55755   8.513   0.103   9.593  1.2756  0.3530 -1.0275
  414MOL0     O55756   0.118   1.802   4.048  0.0465 -0.4616 -0.5226
  414MOL0     C55757   0.135   1.719   4.136  0.0799  0.4675 -1.0017
  414MOL0     O55758   0.217   1.734   4.245 -0.0941 -0.5600  0.1866
  414MOL0     C55759   0.304   1.826   4.233 -0.4762 -0.5689  0.7715
  414MOL0     C55760   0.414   1.806   4.151 -0.0376 -0.4510  0.2777
  414MOL0     C55761   0.502   1.904   4.108  0.3277 -0.4898  0.1128
  414MOL0     C55762   0.487   2.028   4.164 -0.0139  1.0003 -0.4948
  414MOL0     O55763   0.567   2.129   4.126  1.0216 -0.2434  0.5536
  414MOL0     C55764   0.707   2.103   4.122 -0.2443 -0.0037  0.1769
  414MOL0     C55765   0.773   2.241   4.160  0.3001 -0.4893  0.1313
  414MOL0     C55766   0.915   2.254   4.128 -0.3402 -0.1145 -0.3777
  414MOL0     C55767   0.979   2.396   4.135 -0.9702 -0.1947  0.8288
  414MOL0     C55768   1.134   2.396   4.107  0.1521 -0.1770 -0.2273
  414MOL0     C55769   1.210   2.367   4.240  0.5507  0.6166  0.1607
  414MOL0     C55770   1.366   2.381   4.230 -0.0053 -0.3000 -0.9345
  414MOL0     C55771   1.437   2.272   4.153 -0.4515 -0.1550 -0.1406
  414MOL0     N55772   1.586   2.281   4.166  0.2371  0.2388  0.3905
  414MOL0     C55773   1.661   2.265   4.279 -0.0946  0.2342 -0.3578
  414MOL0     C55774   1.793   2.259   4.230  0.6335 -0.1258 -0.9284
  414MOL0     C55775   1.917   2.243   4.318 -0.9977 -0.9954 -0.0544
  414MOL0     C55776   2.039   2.174   4.244 -0.2885 -0.1208  0.7891
  414MOL0     C55777   2.177   2.214   4.308  0.1090 -1.0401 -0.7309
  414MOL0     C55778   2.218   2.354   4.256 -0.1382  0.2587  0.6317
  414MOL0     O55779   2.325   2.400   4.333 -0.1902  0.0984  0.1663
  414MOL0     C55780   2.447   2.351   4.319 -0.0418 -0.3128  0.5434
  414MOL0     C55781   2.534   2.378   4.424  0.1746  0.1288 -0.8105
  414MOL0     C55782   2.669   2.333   4.427  0.0848 -0.0012 -0.4035
  414MOL0     C55783   2.722   2.261   4.311 -0.1887 -0.5538 -0.8398
  414MOL0     C55784   2.870   2.233   4.299  0.3827  0.4732  0.3417
  414MOL0     O55785   2.952   2.253   4.405 -0.1890 -0.1331 -0.1677
  414MOL0     C55786   3.086   2.221   4.387 -0.5367  0.0020 -0.1209
  414MOL0     C55787   3.144   2.157   4.496 -0.1858 -0.0159  0.3204
  414MOL0     C55788   3.278   2.128   4.490 -0.5123 -0.1679 -0.5833
  414MOL0     C55789   3.364   2.152   4.381  0.3582  0.0619 -0.4277
  414MOL0     O55790   3.495   2.104   4.382  0.0195 -0.7134  0.7022
  414MOL0     C55791   3.591   2.170   4.299  0.6157 -1.1705 -0.0646
  414MOL0     C55792   3.725   2.110   4.321 -0.3065 -0.3262 -0.1138
  414MOL0     C55793   3.839   2.196   4.274 -1.2552 -0.5570  0.1672
  414MOL0     C55794   3.969   2.116   4.240 -0.1137 -0.1254  0.3097
  414MOL0     C55795   4.072   2.217   4.187 -0.3460 -0.3926  0.5071
  414MOL0     C55796   4.211   2.147   4.154  0.3499  0.7975 -0.0584
  414MOL0     C55797   4.320   2.233   4.114 -0.1404  0.2254 -0.0213
  414MOL0     C55798   4.433   2.156   4.048 -0.1341  0.6366 -0.2472
  414MOL0    Cl55799   4.494   2.015   4.141 -0.3027  0.3104 -0.1067
  414MOL0     C55800   3.299   2.211   4.274  0.1590 -0.4422 -0.1642
  414MOL0     C55801   3.166   2.241   4.267 -0.2422 -0.1952 -0.3311
  414MOL0     O55802   2.910   2.168   4.196  0.2726 -0.4782  0.0780
  414MOL0     C55803   2.628   2.218   4.221  0.3152 -0.5270  0.3000
  414MOL0     C55804   2.495   2.263   4.223 -0.1144  0.0692 -0.6483
  414MOL0     N55805   1.795   2.275   4.093  0.1176 -0.6775 -0.7389
  414MOL0     N55806   1.673   2.298   4.059  0.2282 -0.4171 -0.0492
  414MOL0     C55807   0.388   2.049   4.265 -0.1179 -0.9391  0.5092
  414MOL0     C55808   0.303   1.945   4.305 -0.1055 -0.3152  0.3921
  414MOL0     C55809   0.053   1.597   4.151  0.0181 -0.8110 -0.1014
  414MOL0     C55810  -0.065   1.590   4.076  0.1298  0.1133  0.0123
  414MOL0     C55811  -0.141   1.476   4.067 -0.1736  0.4048  0.0863
  414MOL0     C55812  -0.114   1.368   4.143 -0.7988  0.8580 -0.4426
  414MOL0     O55813  -0.211   1.268   4.133 -0.8723  0.5037  0.0300
  414MOL0     C55814  -0.193   1.157   4.227  0.5491  0.9486  0.5200
  414MOL0     C55815  -0.304   1.055   4.231  0.6139 -0.6589  0.9231
  414MOL0     C55816  -0.448   1.108   4.258  0.0319 -0.0876  0.3046
  414MOL0     C55817  -0.547   1.003   4.290  0.4558 -0.5044 -0.0950
  414MOL0     C55818  -0.688   1.059   4.300 -0.1898 -0.1033  0.7627
  414MOL0     C55819  -0.804   1.085   4.309  0.5695 -0.2404  0.1447
  414MOL0     C55820  -0.000   1.374   4.221 -0.0845  0.2407  0.6822
  414MOL0     C55821   0.093   1.478   4.224  0.0501 -0.2266 -0.3767
  414MOL0     C55822   0.224   1.444   4.278 -0.4031 -0.0518  0.2343
  414MOL0     H55823   0.434   1.708   4.108  2.3774  0.9233 -2.0722
  414MOL0     H55824   0.586   1.879   4.043  1.3700  4.2699 -0.7588
  414MOL0     H55825   0.744   2.036   4.200  1.0643  1.2560  0.6970
  414MOL0     H55826   0.750   2.065   4.028  1.6448  0.9746  0.5885
  414MOL0     H55827   0.757   2.264   4.265 -1.6109 -1.4063  0.0948
  414MOL0     H55828   0.715   2.314   4.103  1.8970 -1.7398 -3.4175
  414MOL0     H55829   0.932   2.204   4.032  1.4216  0.7118 -0.5418
  414MOL0     H55830   0.966   2.205   4.212  0.4541 -0.3399 -0.9737
  414MOL0     H55831   0.936   2.466   4.063  0.9435  0.4006  0.1859
  414MOL0     H55832   0.971   2.449   4.230  2.4845  1.7294  0.2247
  414MOL0     H55833   1.170   2.327   4.031  0.8588 -0.2773  0.1923
  414MOL0     H55834   1.154   2.495   4.065 -1.0394 -0.0346 -0.5039
  414MOL0     H55835   1.190   2.449   4.310  0.3597  1.2639 -0.6368
  414MOL0     H55836   1.172   2.274   4.281 -1.5787  1.5281  0.3608
  414MOL0     H55837   1.392   2.385   4.336  1.8994  1.7365 -1.4019
  414MOL0     H55838   1.400   2.472   4.179  2.0010  0.3314  1.3089
  414MOL0     H55839   1.408   2.181   4.206  0.9706  1.0694  2.9723
  414MOL0     H55840   1.407   2.268   4.048 -1.4035  0.2139  0.1064
  414MOL0     H55841   1.628   2.253   4.381 -0.5469 -0.2713 -0.5563
  414MOL0     H55842   1.944   2.340   4.359  1.0201 -0.8576 -1.5637
  414MOL0     H55843   1.883   2.173   4.394 -1.6556 -1.9842 -1.2131
  414MOL0     H55844   2.024   2.066   4.235 -2.2405  0.2863 -2.5884
  414MOL0     H55845   2.033   2.205   4.139 -3.1743  0.9854  1.1905
  414MOL0     H55846   2.257   2.139   4.300  0.0041 -1.1473 -0.7764
  414MOL0     H55847   2.156   2.224   4.415  0.8809  1.8449 -0.7604
  414MOL0     H55848   2.137   2.427   4.254 -0.4597 -0.0924  0.7671
  414MOL0     H55849   2.247   2.336   4.152 -0.0862 -1.6288  0.9363
  414MOL0     H55850   2.487   2.432   4.506  2.5449 -1.7235  1.9394
  414MOL0     H55851   2.720   2.347   4.521 -1.0281 -1.0657  0.3820
  414MOL0     H55852   3.076   2.136   4.578  0.4932 -0.3584  0.8078
  414MOL0     H55853   3.311   2.096   4.588  1.7553  2.9121 -0.1872
  414MOL0     H55854   3.575   2.157   4.191  1.3135 -0.9878 -0.1935
  414MOL0     H55855   3.588   2.274   4.330  1.5642 -0.8078 -1.1108
  414MOL0     H55856   3.746   2.081   4.424 -1.1819 -0.1936  0.1121
  414MOL0     H55857   3.727   2.013   4.271  2.0189  0.1142 -1.0251
  414MOL0     H55858   3.812   2.254   4.185 -0.0505  1.1887  0.8701
  414MOL0     H55859   3.866   2.269   4.351 -3.4067 -0.1424  0.5828
  414MOL0     H55860   3.939   2.054   4.155  0.7650  1.2783 -1.0856
  414MOL0     H55861   4.004   2.061   4.328  1.4480 -0.6342 -0.5876
  414MOL0     H55862   4.082   2.298   4.259  0.9140  0.1792 -0.2641
  414MOL0     H55863   4.046   2.266   4.092  0.1066  2.5479  1.8037
  414MOL0     H55864   4.232   2.097   4.249  1.4564  0.4947 -0.4552
  414MOL0     H55865   4.188   2.059   4.092 -1.5734 -1.8144  3.9126
  414MOL0     H55866   4.364   2.273   4.205 -1.7784 -3.7332  2.7845
  414MOL0     H55867   4.273   2.311   4.054  0.5938  0.6102 -0.1086
  414MOL0     H55868   4.400   2.126   3.948  0.9618 -1.6027  0.0093
  414MOL0     H55869   4.509   2.232   4.025  1.8725 -1.1314  0.2087
  414MOL0     H55870   3.364   2.230   4.189  0.7282  1.2067  0.6030
  414MOL0     H55871   3.110   2.271   4.179 -2.6574 -0.0232  1.1672
  414MOL0     H55872   2.663   2.156   4.138  1.6271  0.7435 -0.1410
  414MOL0     H55873   2.438   2.221   4.141 -0.3089 -0.2663 -0.3430
  414MOL0     H55874   0.382   2.149   4.307 -0.5566 -1.1962  1.0674
  414MOL0     H55875   0.222   1.947   4.378 -0.6587 -0.9453 -0.1880
  414MOL0     H55876  -0.099   1.680   4.025  1.6237  0.8096  0.1913
  414MOL0     H55877  -0.233   1.474   4.010  0.5493  0.7104 -1.1042
  414MOL0     H55878  -0.184   1.188   4.331  0.4062  2.1379  0.1967
  414MOL0     H55879  -0.094   1.116   4.204 -0.3908 -0.4041 -1.3744
  414MOL0     H55880  -0.290   1.002   4.326 -1.4963 -2.4817  0.3119
  414MOL0     H55881  -0.309   0.984   4.148 -3.0790 -0.1641  0.5479
  414MOL0     H55882  -0.490   1.174   4.181  0.1013  0.5855  0.8382
  414MOL0     H55883  -0.445   1.169   4.348  1.6927  0.7430 -0.2789
  414MOL0     H55884  -0.534   0.930   4.210  2.5193  0.3437 -0.6111
  414MOL0     H55885  -0.535   0.945   4.382  1.3077 -1.7639 -0.9770
  414MOL0     H55886  -0.910   1.100   4.304  0.6939  0.3337 -1.2692
  414MOL0     H55887   0.015   1.288   4.286 -1.3270  1.2044  2.3449
  414MOL0     H55888   0.247   1.343   4.243 -1.1315  0.6424 -2.4900
  414MOL0     H55889   0.302   1.504   4.229 -0.6460  0.1410  0.0818
  414MOL0     H55890   0.231   1.454   4.387  0.9355 -3.5194  0.5846
  415MOL0     O55891   1.981   5.576  10.102 -0.7157 -0.5144  0.3907
  415MOL0     C55892   1.987   5.696  10.066 -0.7242 -0.3377 -0.0592
  415MOL0     O55893   2.101   5.760  10.016 -0.2886 -0.7875  0.1038
  415MOL0     C55894   2.213   5.683   9.999  0.0142  0.8151  0.6891
  415MOL0     C55895   2.328   5.733  10.054  0.8130 -0.9771 -0.3398
  415MOL0     C55896   2.450   5.667  10.053  0.5947  0.3926 -0.1858
  415MOL0     C55897   2.454   5.547   9.974 -0.0102 -0.3917 -0.2087
  415MOL0     O55898   2.581   5.475   9.972  0.6144 -0.2641 -0.3515
  415MOL0     C55899   2.610   5.372   9.881 -0.2570  0.3160  0.9699
  415MOL0     C55900   2.588   5.230   9.921  0.4574  0.8420  0.2886
  415MOL0     C55901   2.714   5.160   9.978 -0.6205  0.6795 -0.4261
  415MOL0     C55902   2.692   5.013  10.019 -0.3950 -0.4847 -0.0271
  415MOL0     C55903   2.827   4.960  10.064 -0.4791 -0.0426 -0.2952
  415MOL0     C55904   2.807   4.822  10.132 -0.2078  0.1299 -0.2416
  415MOL0     C55905   2.931   4.750  10.183  0.4124 -0.2156  0.5451
  415MOL0     C55906   2.907   4.641  10.292 -1.1657 -0.5435  0.2299
  415MOL0     N55907   3.047   4.609  10.338 -0.2708 -0.0127  0.2849
  415MOL0     C55908   3.090   4.642  10.465  0.8801  0.6687  0.0343
  415MOL0     C55909   3.214   4.602  10.466  0.0949  0.1202  0.1452
  415MOL0     C55910   3.304   4.605  10.584 -0.6191  0.8006  0.4633
  415MOL0     C55911   3.451   4.634  10.536  0.0523  0.4834 -0.3475
  415MOL0     C55912   3.538   4.639  10.663 -0.0502  0.0242 -0.1215
  415MOL0     C55913   3.681   4.685  10.628 -0.0991  0.7953 -0.7807
  415MOL0     O55914   3.751   4.691  10.753  0.3334 -0.0199 -0.2694
  415MOL0     C55915   3.875   4.742  10.749 -0.1586  1.1522  0.0966
  415MOL0     C55916   3.937   4.720  10.868  0.0671 -0.7485  0.8989
  415MOL0     C55917   4.065   4.764  10.893 -0.4381  0.0439  0.0753
  415MOL0     C55918   4.140   4.826  10.788  0.1861 -0.3641  0.0101
  415MOL0     C55919   4.277   4.874  10.816  0.7458  0.5833 -0.0700
  415MOL0     O55920   4.359   4.915  10.713  0.0603 -0.0628  0.7139
  415MOL0     C55921   4.481   4.975  10.751 -0.4967 -0.1679 -0.0181
  415MOL0     C55922   4.588   4.893  10.762 -0.4247 -0.3982 -0.1026
  415MOL0     C55923   4.717   4.952  10.797 -0.3484  0.7224  0.4523
  415MOL0     C55924   4.731   5.092  10.811  0.0300  0.2860  0.0990
  415MOL0     O55925   4.843   5.159  10.836  0.2537 -0.6594  0.4247
  415MOL0     C55926   4.930   5.173  10.719 -0.1520 -0.3699 -0.4586
  415MOL0     C55927   5.049   5.262  10.757 -0.1522  0.0379 -0.6580
  415MOL0     C55928   5.132   5.203  10.878  0.4521  0.4463  0.4679
  415MOL0     C55929   5.264   5.278  10.901  0.1398  0.5924  0.4590
  415MOL0     C55930   5.344   5.221  11.012  0.0508  0.3778 -0.5215
  415MOL0     C55931   5.473   5.297  11.031  0.5090 -0.6180 -0.3945
  415MOL0     C55932   5.564   5.248  11.142  0.8011  0.8332 -0.1859
  415MOL0     C55933   5.705   5.305  11.123  0.3590  0.1043  0.0887
  415MOL0    Cl55934   5.794   5.229  11.257 -0.3486  0.1643  0.2560
  415MOL0     C55935   4.613   5.173  10.783 -0.3952 -0.1147 -0.2723
  415MOL0     C55936   4.492   5.113  10.744  0.0832  0.0062 -0.2390
  415MOL0     O55937   4.312   4.878  10.936  0.5421  0.6062 -0.4905
  415MOL0     C55938   4.075   4.841  10.667 -0.1970 -0.0140  0.2356
  415MOL0     C55939   3.939   4.805  10.642 -1.0498  0.1761  0.2229
  415MOL0     N55940   3.253   4.535  10.356 -0.2248 -0.1323  0.5479
  415MOL0     N55941   3.152   4.539  10.278  0.3276  0.1451  0.3103
  415MOL0     C55942   2.339   5.499   9.912  0.4046  0.0465  0.0920
  415MOL0     C55943   2.218   5.569   9.917 -0.0989  0.2676 -0.4180
  415MOL0     C55944   1.871   5.787  10.099  0.2375 -0.2974  0.0408
  415MOL0     C55945   1.892   5.927  10.077 -0.2746  0.3806 -0.2904
  415MOL0     C55946   1.793   6.024  10.112  0.4985 -0.7604  0.7314
  415MOL0     C55947   1.665   5.979  10.145  0.0623  0.2557  0.3218
  415MOL0     O55948   1.549   6.059  10.158 -0.2561  0.5380 -0.0767
  415MOL0     C55949   1.561   6.196  10.125 -0.4552  1.3730  0.8843
  415MOL0     C55950   1.555   6.212   9.968  0.0632  0.8453  0.6877
  415MOL0     C55951   1.525   6.357   9.929  0.7264  0.4851 -0.3853
  415MOL0     C55952   1.517   6.385   9.774  0.0673  0.5050 -0.0877
  415MOL0     C55953   1.487   6.523   9.733 -0.2038 -0.3961 -0.0958
  415MOL0     C55954   1.464   6.638   9.691  0.4714  0.6698  0.4387
  415MOL0     C55955   1.655   5.846  10.184  0.1314  0.0375  0.4225
  415MOL0     C55956   1.754   5.752  10.160  0.0193 -0.4074 -0.5699
  415MOL0     C55957   1.725   5.616  10.223 -0.1032 -0.5156 -0.0031
  415MOL0     H55958   2.312   5.811  10.127 -0.3191  0.1434 -1.7297
  415MOL0     H55959   2.546   5.706  10.084  0.9557  0.2013 -1.0470
  415MOL0     H55960   2.551   5.385   9.790 -0.3269  0.9635  1.1012
  415MOL0     H55961   2.712   5.386   9.846 -2.1801  0.2179 -6.1062
  415MOL0     H55962   2.556   5.174   9.833  0.3278  3.8977 -1.7470
  415MOL0     H55963   2.513   5.224  10.000 -0.3294 -0.7259 -0.5314
  415MOL0     H55964   2.759   5.216  10.061  0.9821  0.8858 -1.3788
  415MOL0     H55965   2.786   5.155   9.896 -0.5926 -1.0631 -0.3303
  415MOL0     H55966   2.615   5.002  10.096 -0.6695  1.7080  0.0623
  415MOL0     H55967   2.668   4.957   9.927  2.1555  0.9613 -1.6890
  415MOL0     H55968   2.884   4.952   9.971 -2.5258 -3.4424 -1.4441
  415MOL0     H55969   2.858   5.038  10.132 -2.5797  1.0724 -0.5163
  415MOL0     H55970   2.742   4.823  10.220  0.9130  1.9424  0.6350
  415MOL0     H55971   2.752   4.762  10.059 -1.5205 -0.5687  1.2800
  415MOL0     H55972   3.001   4.827  10.219  2.9666 -1.5465 -1.3218
  415MOL0     H55973   2.985   4.708  10.098 -1.9724 -1.3312 -0.5085
  415MOL0     H55974   2.855   4.677  10.381  0.3834  1.9332  0.2235
  415MOL0     H55975   2.846   4.557  10.260 -5.3680  2.5027 -0.5570
  415MOL0     H55976   3.030   4.682  10.547 -1.9386 -1.7348 -0.6583
  415MOL0     H55977   3.255   4.671  10.656 -5.2207 -1.6454 -0.0767
  415MOL0     H55978   3.297   4.508  10.634 -2.5765  1.4272  1.5119
  415MOL0     H55979   3.489   4.554  10.472 -2.0434 -1.1954  0.3734
  415MOL0     H55980   3.458   4.719  10.467  3.2379  1.0434  0.5006
  415MOL0     H55981   3.531   4.542  10.714  0.4686 -0.1392 -0.3537
  415MOL0     H55982   3.494   4.718  10.724 -0.8372  1.0947 -1.9876
  415MOL0     H55983   3.671   4.783  10.579  0.3454  0.0885 -2.3372
  415MOL0     H55984   3.729   4.623  10.552  1.1778  1.9694 -0.9743
  415MOL0     H55985   3.882   4.672  10.948 -0.6450  1.2284  1.6711
  415MOL0     H55986   4.110   4.740  10.988 -1.3025 -1.2781  0.1824
  415MOL0     H55987   4.584   4.785  10.746  0.6155 -0.1353 -2.5038
  415MOL0     H55988   4.801   4.884  10.810 -0.9400 -0.0421  0.2994
  415MOL0     H55989   4.976   5.081  10.681  3.8121  1.6823 -1.1334
  415MOL0     H55990   4.870   5.203  10.632  1.4374 -0.9765 -1.8071
  415MOL0     H55991   5.124   5.275  10.677  0.8251  2.7133  0.5646
  415MOL0     H55992   5.008   5.361  10.778  1.9707  0.5129  1.7534
  415MOL0     H55993   5.070   5.198  10.967 -0.8056 -0.9612 -0.4454
  415MOL0     H55994   5.156   5.100  10.847  4.1177  0.8852  1.3987
  415MOL0     H55995   5.246   5.380  10.937 -1.2700  0.3776  0.4205
  415MOL0     H55996   5.310   5.304  10.806 -1.5184 -0.1623 -0.5929
  415MOL0     H55997   5.361   5.115  10.992 -0.8891  0.2641 -0.7958
  415MOL0     H55998   5.277   5.234  11.098 -2.4404 -1.4891 -2.0307
  415MOL0     H55999   5.526   5.282  10.937  0.0045 -1.4773 -0.5521
  415MOL0     H56000   5.449   5.403  11.043 -1.0148 -1.1289  1.4833
  415MOL0     H56001   5.567   5.140  11.125  1.8159  1.0871 -1.8165
  415MOL0     H56002   5.518   5.282  11.236 -1.6289  0.1672 -1.0683
  415MOL0     H56003   5.749   5.275  11.027 -0.6186 -4.0845  0.7584
  415MOL0     H56004   5.702   5.414  11.133 -0.4680  0.1292 -0.3451
  415MOL0     H56005   4.613   5.281  10.793 -2.4596 -0.2028  1.5480
  415MOL0     H56006   4.407   5.174  10.715  0.1751  0.8573  1.2042
  415MOL0     H56007   4.138   4.893  10.595  0.7900 -0.4273  0.7752
  415MOL0     H56008   3.885   4.830  10.552  0.9711 -1.6331 -1.6102
  415MOL0     H56009   2.336   5.403   9.863 -2.0069  0.3656 -0.5066
  415MOL0     H56010   2.130   5.545   9.858 -0.3488 -1.9238  0.7287
  415MOL0     H56011   1.992   5.963  10.052  1.6196 -1.8646  3.1206
  415MOL0     H56012   1.808   6.129  10.090 -2.1835 -0.8723 -2.2980
  415MOL0     H56013   1.655   6.239  10.158  0.7334  0.3555 -0.9740
  415MOL0     H56014   1.479   6.251  10.172 -1.5746 -0.5446  1.3036
  415MOL0     H56015   1.484   6.145   9.920  1.5205  1.7171 -3.0004
  415MOL0     H56016   1.650   6.182   9.923 -0.0819  0.9468  0.3067
  415MOL0     H56017   1.605   6.417   9.974  2.3808 -2.9350  1.5787
  415MOL0     H56018   1.429   6.384   9.974 -0.0984 -0.7525 -1.3154
  415MOL0     H56019   1.614   6.359   9.731  0.3945  1.4424  0.0769
  415MOL0     H56020   1.441   6.321   9.728  1.7151 -0.0439 -2.2366
  415MOL0     H56021   1.444   6.732   9.643 -2.7047 -1.1890 -2.3162
  415MOL0     H56022   1.564   5.806  10.229 -0.0355 -0.7260 -0.5514
  415MOL0     H56023   1.745   5.540  10.147 -3.1132 -1.3055 -0.1463
  415MOL0     H56024   1.787   5.596  10.311  0.0745  1.4389  0.3787
  415MOL0     H56025   1.618   5.597  10.238 -0.0485 -1.1484 -0.4107
  416MOL0     O56026   1.327  11.212  10.117  0.1052 -0.7152  0.3330
  416MOL0     C56027   1.251  11.146  10.047  0.0353 -0.1492 -0.1487
  416MOL0     O56028   1.299  11.062   9.943  0.1111  0.9369 -0.1417
  416MOL0     C56029   1.434  11.078   9.910  0.5920 -0.0960 -0.1914
  416MOL0     C56030   1.536  11.021   9.989  0.1583  0.7201  0.7913
  416MOL0     C56031   1.671  11.055   9.952  0.6556  0.4817  0.5527
  416MOL0     C56032   1.704  11.125   9.844 -0.6866 -0.7554  0.0693
  416MOL0     O56033   1.833  11.159   9.817  0.0805 -0.7009  0.1715
  416MOL0     C56034   1.935  11.174   9.919  0.1891  0.4695 -0.6998
  416MOL0     C56035   2.068  11.224   9.860  0.5894 -0.1635 -0.2028
  416MOL0     C56036   2.178  11.212   9.959  0.1536  0.1956  0.0106
  416MOL0     C56037   2.307  11.234   9.897 -0.3837  0.5825 -0.3973
  416MOL0     C56038   2.419  11.204  10.001  0.3065 -0.3346 -0.2337
  416MOL0     C56039   2.560  11.240   9.936  0.3594  0.9368 -0.1685
  416MOL0     C56040   2.680  11.196  10.012 -0.8521  0.1357  0.2515
  416MOL0     C56041   2.710  11.048  10.016  0.2660  0.1619 -0.1121
  416MOL0     N56042   2.855  11.013  10.015 -0.2423  0.3432  0.7941
  416MOL0     C56043   2.948  11.046  10.115  1.0998  0.7494 -0.1751
  416MOL0     C56044   3.070  11.000  10.079 -0.1033  0.3130  0.1724
  416MOL0     C56045   3.200  10.997  10.156  0.3272  0.5651  0.5421
  416MOL0     C56046   3.304  11.089  10.096  0.0950 -0.7246 -0.2032
  416MOL0     C56047   3.406  11.124  10.210 -0.2105  0.2999  1.1940
  416MOL0     C56048   3.501  11.232  10.169 -0.1744 -0.4885 -0.3642
  416MOL0     O56049   3.571  11.179  10.056 -0.0336 -0.4217  0.7573
  416MOL0     C56050   3.686  11.247  10.022 -0.0889 -0.3624  0.2620
  416MOL0     C56051   3.706  11.384  10.058 -0.4435 -0.1477  1.0490
  416MOL0     C56052   3.832  11.446  10.030 -0.2438  0.5152  0.4549
  416MOL0     C56053   3.951  11.381   9.988 -0.2986  0.1228  0.0309
  416MOL0     C56054   4.084  11.442   9.969 -0.5819 -0.1694  0.2065
  416MOL0     O56055   4.171  11.371   9.896 -0.5947  0.1589 -0.2076
  416MOL0     C56056   4.312  11.387   9.900  0.3416 -1.2346 -0.0117
  416MOL0     C56057   4.379  11.447  10.014  0.5857  0.2682 -0.7831
  416MOL0     C56058   4.516  11.472  10.018  0.4436  0.2142  0.2761
  416MOL0     C56059   4.593  11.434   9.901  0.1373 -0.4528 -0.2828
  416MOL0     O56060   4.726  11.451   9.878 -0.3518 -0.4733 -0.7069
  416MOL0     C56061   4.800  11.476   9.994 -0.0413 -0.6360 -0.1465
  416MOL0     C56062   4.952  11.473   9.957  0.5343  0.3948 -0.2811
  416MOL0     C56063   5.036  11.494  10.085  0.3989  0.1269  0.4343
  416MOL0     C56064   5.185  11.486  10.052  0.3082 -0.0389  0.4336
  416MOL0     C56065   5.273  11.531  10.169 -0.3531 -0.4007 -0.1580
  416MOL0     C56066   5.419  11.526  10.134  0.0600 -0.9085 -0.0800
  416MOL0     C56067   5.520  11.588  10.225 -0.0258  0.5399 -0.1331
  416MOL0     C56068   5.547  11.504  10.351  0.6092 -0.9116 -0.6708
  416MOL0    Cl56069   5.638  11.357  10.307  0.3946 -0.2117 -0.2077
  416MOL0     C56070   4.526  11.368   9.798  0.1991 -0.2177  0.0723
  416MOL0     C56071   4.391  11.341   9.796  0.4817 -0.6189 -0.4702
  416MOL0     O56072   4.114  11.545  10.034 -0.2474  0.2408  0.7041
  416MOL0     C56073   3.927  11.245   9.945 -0.1496 -0.5766 -0.5275
  416MOL0     C56074   3.794  11.183   9.962 -0.5222 -0.0774 -0.3066
  416MOL0     N56075   3.051  10.938   9.959 -0.1120 -0.0595 -0.3899
  416MOL0     N56076   2.930  10.947   9.918 -0.2853  0.0050  0.2025
  416MOL0     C56077   1.604  11.174   9.762 -0.5753  0.0439  0.3682
  416MOL0     C56078   1.470  11.155   9.799  0.2347  0.3483  0.9664
  416MOL0     C56079   1.107  11.134  10.075 -0.3309 -0.0423 -0.4909
  416MOL0     C56080   1.025  11.032  10.016 -0.1488  0.0002 -0.8043
  416MOL0     C56081   0.885  11.015  10.053  0.7995 -0.5087 -0.4475
  416MOL0     C56082   0.823  11.096  10.144 -0.4785  0.1061 -0.5852
  416MOL0     O56083   0.689  11.104  10.186  0.4480 -0.5026  0.0626
  416MOL0     C56084   0.600  11.013  10.116 -0.0986 -0.6156  0.0149
  416MOL0     C56085   0.464  11.009  10.181  0.2198 -0.3033  0.2461
  416MOL0     C56086   0.396  11.143  10.173 -0.0779 -0.2002 -0.4660
  416MOL0     C56087   0.248  11.153  10.217 -0.8664 -0.5834 -0.4626
  416MOL0     C56088   0.151  11.087  10.133 -0.2930 -0.3192 -0.0421
  416MOL0     C56089   0.067  11.034  10.066  0.7804 -0.1252 -0.0903
  416MOL0     C56090   0.899  11.201  10.188 -0.1702  0.7411 -0.0429
  416MOL0     C56091   1.036  11.224  10.156 -0.4191 -0.1247  0.0435
  416MOL0     C56092   1.103  11.344  10.226 -0.9633  0.7660 -0.2936
  416MOL0     H56093   1.514  10.966  10.079 -1.1403 -3.3840 -1.7552
  416MOL0     H56094   1.732  11.024  10.037 -0.7312  2.0941  2.2215
  416MOL0     H56095   1.905  11.252   9.989  0.9374  0.7859 -0.7192
  416MOL0     H56096   1.947  11.082   9.976 -1.8363  1.7506  2.0223
  416MOL0     H56097   2.054  11.323   9.815  0.3087 -0.1506 -0.0858
  416MOL0     H56098   2.083  11.149   9.782  0.6473 -1.7570  1.2789
  416MOL0     H56099   2.187  11.110   9.998  1.3236 -0.3229 -1.4914
  416MOL0     H56100   2.154  11.290  10.030 -2.0524 -0.0342 -0.4306
  416MOL0     H56101   2.308  11.163   9.814 -0.7651  1.8050 -1.4758
  416MOL0     H56102   2.317  11.331   9.849  2.7570 -0.4779 -2.1856
  416MOL0     H56103   2.408  11.266  10.091  1.8048 -0.5887  0.1593
  416MOL0     H56104   2.414  11.102  10.040 -0.3612 -0.1370  0.2162
  416MOL0     H56105   2.566  11.193   9.837  1.4887 -1.2601  0.8823
  416MOL0     H56106   2.568  11.347   9.914 -2.6037  1.1979 -0.2915
  416MOL0     H56107   2.690  11.233  10.115  0.8713 -2.2419  1.0208
  416MOL0     H56108   2.765  11.242   9.960  0.5970 -1.5564  1.0287
  416MOL0     H56109   2.663  10.992  10.098  1.2384  0.9632  1.0353
  416MOL0     H56110   2.670  11.016   9.920  0.5877  3.3930 -1.4645
  416MOL0     H56111   2.921  11.084  10.213  0.6720 -5.9872  2.8579
  416MOL0     H56112   3.170  11.027  10.257 -1.1327 -1.2678  0.7090
  416MOL0     H56113   3.234  10.894  10.167 -1.7313  0.0903  3.9205
  416MOL0     H56114   3.353  11.029  10.018 -1.4614 -2.7552  0.2889
  416MOL0     H56115   3.259  11.182  10.060 -3.1727 -2.7211 -1.7137
  416MOL0     H56116   3.461  11.036  10.243 -0.8574 -0.4358  0.3593
  416MOL0     H56117   3.353  11.171  10.294 -1.1915 -1.7376  1.7697
  416MOL0     H56118   3.562  11.256  10.256 -0.2537  1.4809 -0.8149
  416MOL0     H56119   3.450  11.325  10.142 -0.1624 -0.4142 -0.1307
  416MOL0     H56120   3.633  11.445  10.108 -1.7525 -2.4806  2.1687
  416MOL0     H56121   3.848  11.552  10.044  0.7088  0.9940 -3.2482
  416MOL0     H56122   4.314  11.458  10.100  1.9212 -1.2025  0.4642
  416MOL0     H56123   4.571  11.516  10.100  0.3694 -0.6541  0.8077
  416MOL0     H56124   4.787  11.576  10.037  2.3490 -1.2584  2.3261
  416MOL0     H56125   4.787  11.412  10.082 -3.7063  2.1821  1.7100
  416MOL0     H56126   4.981  11.379   9.909  2.0394  0.5787  0.2051
  416MOL0     H56127   4.964  11.551   9.882 -1.1990 -0.4519 -1.5095
  416MOL0     H56128   5.016  11.595  10.121  1.4281  0.7491 -0.6682
  416MOL0     H56129   5.020  11.416  10.160  0.9079  1.3004  1.8057
  416MOL0     H56130   5.201  11.549   9.963 -0.4669  0.7160  0.8110
  416MOL0     H56131   5.223  11.388  10.021  2.3640  1.1371 -1.0022
  416MOL0     H56132   5.243  11.471  10.256 -2.6019 -0.4699 -0.9125
  416MOL0     H56133   5.256  11.635  10.199 -1.1919 -0.7805  0.7260
  416MOL0     H56134   5.450  11.422  10.129 -0.2524 -1.0264  0.3090
  416MOL0     H56135   5.441  11.575  10.039  1.0695  1.1495  1.1414
  416MOL0     H56136   5.475  11.687  10.236 -1.3831 -0.1740  1.1938
  416MOL0     H56137   5.616  11.606  10.176 -0.0068  2.3469  0.4887
  416MOL0     H56138   5.615  11.568  10.408  0.0384 -1.0909  0.2290
  416MOL0     H56139   5.451  11.489  10.401 -0.1213  0.0457 -1.7373
  416MOL0     H56140   4.581  11.361   9.704 -0.2566  1.6451 -0.3869
  416MOL0     H56141   4.348  11.287   9.711  1.5008 -1.1676 -0.6605
  416MOL0     H56142   4.004  11.189   9.892 -1.0610 -0.0821 -2.4489
  416MOL0     H56143   3.788  11.080   9.928 -0.5424 -0.6045  1.2111
  416MOL0     H56144   1.637  11.234   9.677  0.3361  0.3816  0.9478
  416MOL0     H56145   1.395  11.197   9.732  1.9597  1.0192 -0.6093
  416MOL0     H56146   1.062  10.952   9.953  1.2950 -2.4924  2.8868
  416MOL0     H56147   0.832  10.934  10.003  0.1714 -1.4911  1.6960
  416MOL0     H56148   0.637  10.910  10.125 -0.6573 -0.6375  2.6494
  416MOL0     H56149   0.585  11.029  10.009 -1.9075 -1.8922  0.0328
  416MOL0     H56150   0.494  10.987  10.283  1.1302  0.2928  0.1231
  416MOL0     H56151   0.405  10.925  10.143 -3.9499  3.0570 -1.5910
  416MOL0     H56152   0.401  11.170  10.067 -0.2731  1.4168 -0.0915
  416MOL0     H56153   0.446  11.221  10.231 -0.5110 -2.1899  2.8289
  416MOL0     H56154   0.236  11.116  10.319 -1.1989 -0.7529 -0.5606
  416MOL0     H56155   0.221  11.258  10.222  0.9371 -0.0746 -0.5996
  416MOL0     H56156  -0.016  10.998  10.008  0.9060  0.0790 -0.3994
  416MOL0     H56157   0.851  11.276  10.248  1.1704  0.2910  1.6695
  416MOL0     H56158   1.172  11.391  10.156 -1.2939  0.9327 -0.5139
  416MOL0     H56159   1.045  11.435  10.247  0.6250  1.8072 -0.2656
  416MOL0     H56160   1.159  11.310  10.313 -0.5197  0.5935 -0.6415
  417MOL0     O56161   4.009  10.500   4.074  0.0732  0.0583 -0.3172
  417MOL0     C56162   3.915  10.505   3.990 -0.2555  0.0654  0.8812
  417MOL0     O56163   3.938  10.480   3.858  0.5357 -0.5651  0.1068
  417MOL0     C56164   4.065  10.471   3.812 -0.7975  0.3460  0.0882
  417MOL0     C56165   4.116  10.348   3.772 -0.0049 -1.4435  0.1522
  417MOL0     C56166   4.235  10.346   3.696  0.7755  0.4692 -0.1437
  417MOL0     C56167   4.313  10.458   3.673  0.8334  0.9565  0.4294
  417MOL0     O56168   4.440  10.437   3.609 -0.0650 -0.5153 -0.0420
  417MOL0     C56169   4.533  10.542   3.598  0.1508 -0.0294  0.2825
  417MOL0     C56170   4.669  10.499   3.549  1.0257  0.6965  0.4081
  417MOL0     C56171   4.767  10.620   3.532  0.6205  0.4941 -1.2473
  417MOL0     C56172   4.906  10.557   3.502 -0.2493  0.6256  0.6225
  417MOL0     C56173   5.016  10.654   3.496 -0.3408 -0.7898  0.4758
  417MOL0     C56174   5.156  10.591   3.471  0.0771 -0.3358  0.1933
  417MOL0     C56175   5.283  10.684   3.450  0.0780  0.0519  0.3890
  417MOL0     C56176   5.412  10.625   3.505  0.5021  1.0187 -0.1340
  417MOL0     N56177   5.514  10.726   3.487  0.2272 -0.1966  0.2880
  417MOL0     C56178   5.586  10.786   3.584  0.9236 -0.3615 -0.1411
  417MOL0     C56179   5.684  10.855   3.525  0.1931 -0.1679 -1.1522
  417MOL0     C56180   5.779  10.945   3.606  0.5154 -0.9104  0.3145
  417MOL0     C56181   5.883  11.015   3.510 -0.1213 -0.7968  0.2966
  417MOL0     C56182   5.950  11.128   3.584 -0.1314  0.3165 -0.0899
  417MOL0     C56183   6.064  11.198   3.509  0.2237  0.3965  0.4801
  417MOL0     O56184   6.178  11.126   3.478  0.4598  0.3854  0.3143
  417MOL0     C56185   6.270  11.092   3.575 -0.7129 -0.4699 -0.4100
  417MOL0     C56186   6.260  11.134   3.715  0.3556  0.5618 -0.0327
  417MOL0     C56187   6.360  11.107   3.806 -0.7387  0.0788  1.0918
  417MOL0     C56188   6.476  11.050   3.761 -0.7406 -0.0929  0.1210
  417MOL0     C56189   6.603  11.044   3.844 -0.6515 -0.4844  0.0699
  417MOL0     O56190   6.718  11.011   3.777 -0.7903  0.1789 -0.3144
  417MOL0     C56191   6.834  10.978   3.838 -0.0938  0.1477  0.8912
  417MOL0     C56192   6.952  10.968   3.752 -0.6243  0.5084 -0.4342
  417MOL0     C56193   7.073  10.920   3.799  0.2355  0.0085  0.1741
  417MOL0     C56194   7.095  10.895   3.935  0.8061 -0.3542 -0.4779
  417MOL0     O56195   7.208  10.871   3.994 -0.6963 -0.4115 -0.4205
  417MOL0     C56196   7.301  10.794   3.926  0.0361  0.2428  0.2719
  417MOL0     C56197   7.415  10.757   4.025 -0.0373  0.5059  0.2659
  417MOL0     C56198   7.534  10.698   3.949 -0.6866  0.4953  0.0453
  417MOL0     C56199   7.631  10.642   4.058 -0.7488  0.5532 -0.3909
  417MOL0     C56200   7.768  10.617   3.989  0.3540  0.3436  0.7300
  417MOL0     C56201   7.871  10.590   4.093 -0.6375 -0.3744  0.4212
  417MOL0     C56202   8.008  10.555   4.033  0.0999 -0.5945 -0.9484
  417MOL0     C56203   8.110  10.486   4.128  1.2305 -0.1004  0.0567
  417MOL0    Cl56204   8.131  10.571   4.291  0.0542 -0.4790 -0.3148
  417MOL0     C56205   6.979  10.913   4.020 -0.1046  0.0921 -0.0398
  417MOL0     C56206   6.855  10.951   3.975 -1.4037  0.9097 -0.2506
  417MOL0     O56207   6.597  11.099   3.956  0.0295  0.3702  0.4990
  417MOL0     C56208   6.492  11.005   3.628  0.2799  0.6088  0.6478
  417MOL0     C56209   6.387  11.026   3.532 -0.4775  0.0638 -0.4454
  417MOL0     N56210   5.680  10.832   3.386  0.1156 -0.2202 -0.7276
  417MOL0     N56211   5.577  10.755   3.366  0.6504  0.6356  0.1936
  417MOL0     C56212   4.268  10.582   3.718 -0.1429  0.1733 -0.9393
  417MOL0     C56213   4.144  10.585   3.796 -0.3664 -0.6771 -0.2584
  417MOL0     C56214   3.775  10.527   4.040  0.7224  0.5936 -0.7919
  417MOL0     C56215   3.668  10.546   3.947  0.2010 -0.6462  0.2178
  417MOL0     C56216   3.535  10.568   3.993 -0.2390 -0.1072  0.3921
  417MOL0     C56217   3.513  10.561   4.128  0.7011 -0.6153  0.0525
  417MOL0     O56218   3.381  10.592   4.159 -0.4023  0.8196  0.4693
  417MOL0     C56219   3.370  10.648   4.289 -0.1074  0.4701 -0.1625
  417MOL0     C56220   3.239  10.719   4.303  0.4504 -0.0783 -0.0581
  417MOL0     C56221   3.131  10.628   4.236 -0.1021 -0.6360  1.0325
  417MOL0     C56222   2.995  10.647   4.315 -0.0718 -0.4319 -0.3226
  417MOL0     C56223   2.962  10.791   4.330 -0.0227 -0.2371  0.5328
  417MOL0     C56224   2.930  10.909   4.345 -0.2050  0.8018  0.3860
  417MOL0     C56225   3.615  10.536   4.220 -0.1028  0.0680  0.1248
  417MOL0     C56226   3.743  10.526   4.180  0.0539 -0.3581 -0.7901
  417MOL0     C56227   3.826  10.483   4.292 -0.7086  0.2026 -0.1675
  417MOL0     H56228   4.064  10.252   3.775 -0.2547 -1.4673 -2.5426
  417MOL0     H56229   4.273  10.251   3.661  0.8312 -0.2711  1.7809
  417MOL0     H56230   4.495  10.626   3.540  0.6295  0.5872  0.8358
  417MOL0     H56231   4.547  10.585   3.698 -0.6034  0.0930  0.3410
  417MOL0     H56232   4.659  10.449   3.452  0.9193 -1.3822  1.4273
  417MOL0     H56233   4.720  10.428   3.615 -0.6558 -0.0400  0.9691
  417MOL0     H56234   4.766  10.682   3.622  1.8015  2.9524 -2.8301
  417MOL0     H56235   4.737  10.692   3.456 -3.6000 -1.5932 -1.8535
  417MOL0     H56236   4.933  10.490   3.585 -0.2446  0.1614  0.2533
  417MOL0     H56237   4.904  10.498   3.410  2.5073 -3.0375  2.6133
  417MOL0     H56238   4.993  10.740   3.432 -1.5513  0.3572  2.3823
  417MOL0     H56239   5.027  10.703   3.593 -0.1935 -0.9112  0.5208
  417MOL0     H56240   5.177  10.535   3.563  0.1560  1.1576  1.1282
  417MOL0     H56241   5.148  10.518   3.391 -4.0044  1.3663 -1.2017
  417MOL0     H56242   5.264  10.773   3.511 -2.1164 -0.9499  1.2954
  417MOL0     H56243   5.296  10.710   3.345 -0.2728 -0.8654  0.1054
  417MOL0     H56244   5.395  10.607   3.611  0.9938 -0.6016 -0.3005
  417MOL0     H56245   5.431  10.534   3.446  0.8494  2.3437 -2.1721
  417MOL0     H56246   5.577  10.787   3.692  1.1855  1.4249 -0.0956
  417MOL0     H56247   5.714  11.015   3.660  0.0143 -0.8733 -0.3323
  417MOL0     H56248   5.831  10.896   3.689 -3.7992 -3.1071  2.0517
  417MOL0     H56249   5.963  10.944   3.488 -0.8707 -1.6416  0.2581
  417MOL0     H56250   5.844  11.060   3.418 -1.8498 -0.3300  1.2170
  417MOL0     H56251   5.988  11.093   3.680  0.5955  1.6466  0.1325
  417MOL0     H56252   5.878  11.204   3.614  0.4917 -0.6905  4.7460
  417MOL0     H56253   6.102  11.285   3.563  0.8913  0.6319 -0.3532
  417MOL0     H56254   6.019  11.238   3.418  0.4861  1.6173  0.8673
  417MOL0     H56255   6.172  11.171   3.766 -0.4027 -0.1554 -0.8015
  417MOL0     H56256   6.351  11.118   3.913 -0.1979  2.2276  0.9624
  417MOL0     H56257   6.936  10.984   3.646  1.0967 -0.9897 -0.9719
  417MOL0     H56258   7.157  10.921   3.730 -0.4680 -1.6175 -0.7447
  417MOL0     H56259   7.252  10.710   3.877 -0.7555  0.4307  0.7333
  417MOL0     H56260   7.353  10.846   3.844  0.4891 -1.1903 -0.3717
  417MOL0     H56261   7.456  10.847   4.073  0.9362  1.1048 -1.5804
  417MOL0     H56262   7.377  10.688   4.100  1.1672  0.2305  0.6461
  417MOL0     H56263   7.499  10.621   3.879 -0.5590 -0.7600  1.2981
  417MOL0     H56264   7.589  10.773   3.892 -0.8231 -0.5786 -1.5741
  417MOL0     H56265   7.584  10.556   4.106 -1.2198  2.2909  2.5070
  417MOL0     H56266   7.646  10.711   4.141  2.1165 -1.9790  1.3912
  417MOL0     H56267   7.801  10.704   3.931 -0.5542 -1.2670 -2.4669
  417MOL0     H56268   7.759  10.531   3.922 -0.9832  0.6294  0.5034
  417MOL0     H56269   7.871  10.670   4.167 -0.1885  0.7477 -0.7475
  417MOL0     H56270   7.834  10.502   4.146  1.8549 -0.5414  2.0040
  417MOL0     H56271   8.048  10.652   4.003 -1.9737 -0.0977 -2.3295
  417MOL0     H56272   7.992  10.502   3.939  1.0770  0.1505 -1.5458
  417MOL0     H56273   8.079  10.383   4.147  0.1715  0.1332 -0.3239
  417MOL0     H56274   8.208  10.480   4.078  0.6465  0.2603 -1.1707
  417MOL0     H56275   6.990  10.895   4.126  0.1133  0.9488  0.0894
  417MOL0     H56276   6.780  10.956   4.053 -1.4035  4.1914 -0.3243
  417MOL0     H56277   6.580  10.952   3.592 -0.6350 -0.7662  0.3639
  417MOL0     H56278   6.402  11.001   3.428  4.4711 -1.0967  0.2586
  417MOL0     H56279   4.322  10.673   3.696  0.1009  0.2613 -0.0066
  417MOL0     H56280   4.104  10.677   3.836 -1.1564 -2.0713  2.3388
  417MOL0     H56281   3.685  10.541   3.840 -0.2961  1.9348 -0.0466
  417MOL0     H56282   3.464  10.588   3.913 -0.4679 -1.2529  0.2808
  417MOL0     H56283   3.443  10.726   4.313 -3.6368  3.4727  1.8936
  417MOL0     H56284   3.381  10.573   4.369  1.8755 -0.6978 -1.4531
  417MOL0     H56285   3.236  10.809   4.241  2.2190 -0.2271 -0.4075
  417MOL0     H56286   3.235  10.743   4.410  1.5192 -0.8462  0.1668
  417MOL0     H56287   3.168  10.525   4.239 -1.3155 -1.1039  0.5160
  417MOL0     H56288   3.119  10.649   4.130 -1.8780 -0.5936  1.2113
  417MOL0     H56289   2.905  10.607   4.269 -0.3854 -0.5891  0.4147
  417MOL0     H56290   2.993  10.606   4.416 -1.6055  1.8427  0.6444
  417MOL0     H56291   2.905  11.012   4.361  0.8799  1.0056  0.8480
  417MOL0     H56292   3.592  10.534   4.326 -0.3094  2.4688  0.1776
  417MOL0     H56293   3.765  10.475   4.383 -1.2917  3.1015 -0.2272
  417MOL0     H56294   3.873  10.390   4.260  2.9891  1.4326  1.1344
  417MOL0     H56295   3.909  10.549   4.318  0.2303 -0.9901 -0.0602
  418MOL0     O56296   9.331   5.930   8.373  0.1094  0.1683  0.3957
  418MOL0     C56297   9.310   5.981   8.482 -0.5569  0.2395  0.5409
  418MOL0     O56298   9.406   6.011   8.579  0.7105 -0.1551  0.0718
  418MOL0     C56299   9.538   5.982   8.554  0.1110  0.3375  0.3581
  418MOL0     C56300   9.604   5.901   8.648  0.8992 -0.2690  0.1760
  418MOL0     C56301   9.743   5.888   8.650  0.0719 -0.0680  0.3882
  418MOL0     C56302   9.823   5.942   8.547  0.4562  0.7612 -0.2201
  418MOL0     O56303   9.960   5.943   8.545 -0.3057 -0.0501  0.0804
  418MOL0     C56304  10.030   5.873   8.655  0.6825 -0.4614  0.0189
  418MOL0     C56305  10.177   5.852   8.629 -0.2588  0.1552  0.4109
  418MOL0     C56306  10.258   5.981   8.579 -0.0728  0.6857 -0.1077
  418MOL0     C56307  10.410   5.946   8.553  0.3263 -1.1793 -0.1123
  418MOL0     C56308  10.427   5.859   8.430 -0.2530  0.2218 -0.9838
  418MOL0     C56309  10.578   5.851   8.417 -0.6053  0.0203 -0.0513
  418MOL0     C56310  10.603   5.809   8.272 -0.2225  0.0564  0.5307
  418MOL0     C56311  10.753   5.801   8.233  0.2375  0.6007 -0.6831
  418MOL0     N56312  10.833   5.747   8.344  0.0099 -1.0366  0.0819
  418MOL0     C56313  10.916   5.815   8.424 -0.4426  0.1732 -0.1397
  418MOL0     C56314  10.972   5.720   8.502  0.9884  0.3573  0.3242
  418MOL0     C56315  11.075   5.744   8.609  0.1534  0.7529 -0.2899
  418MOL0     C56316  11.210   5.796   8.552  0.5740  0.5527 -0.4923
  418MOL0     C56317  11.312   5.824   8.666 -1.0420 -0.1048  0.0288
  418MOL0     C56318  11.457   5.839   8.608  0.2686 -0.5334  0.0253
  418MOL0     O56319  11.497   5.715   8.542 -0.1085 -0.2434  0.3944
  418MOL0     C56320  11.631   5.712   8.497  0.1864  0.1633  0.5853
  418MOL0     C56321  11.707   5.827   8.448  0.0968  0.6020  0.0322
  418MOL0     C56322  11.834   5.811   8.390 -0.3984 -0.6133  0.2575
  418MOL0     C56323  11.897   5.686   8.383 -0.0759  0.3679  1.2816
  418MOL0     C56324  12.039   5.683   8.340 -0.1983  0.5946 -0.2844
  418MOL0     O56325  12.105   5.799   8.345 -0.2512 -0.9269 -0.7708
  418MOL0     C56326  12.220   5.817   8.286  0.1388  0.3865  0.0174
  418MOL0     C56327  12.328   5.727   8.298 -1.0669 -0.1778  0.0691
  418MOL0     C56328  12.453   5.751   8.234 -0.5002 -0.7619  0.2508
  418MOL0     C56329  12.477   5.860   8.152  0.3351 -0.0376 -0.4335
  418MOL0     O56330  12.600   5.903   8.116 -0.7072  0.1242 -0.2462
  418MOL0     C56331  12.719   5.814   8.153 -0.2191  0.0135  0.2053
  418MOL0     C56332  12.850   5.875   8.094  0.6054 -0.9079 -0.1720
  418MOL0     C56333  12.962   5.772   8.107 -0.1944 -0.2796  0.0730
  418MOL0     C56334  13.084   5.874   8.075  0.2210 -0.1916  0.1168
  418MOL0     C56335  13.215   5.797   8.064 -1.0870  1.1075 -0.2022
  418MOL0     C56336  13.338   5.894   8.052 -0.2244 -1.0653 -0.3213
  418MOL0     C56337  13.461   5.801   8.068  0.3268 -0.1400 -0.1539
  418MOL0     C56338  13.582   5.845   7.973 -0.7461  0.3120 -0.1746
  418MOL0    Cl56339  13.523   5.813   7.815  0.1355  0.1256  0.5618
  418MOL0     C56340  12.364   5.943   8.133  1.0444  1.0150  0.4986
  418MOL0     C56341  12.237   5.928   8.204 -0.5298  0.1393  0.5310
  418MOL0     O56342  12.086   5.570   8.315 -0.3279  0.1988  0.0489
  418MOL0     C56343  11.829   5.576   8.433 -0.0526  0.2174 -0.1778
  418MOL0     C56344  11.705   5.588   8.484  0.8026  0.0219 -0.6915
  418MOL0     N56345  10.922   5.597   8.474  0.1993 -0.0660 -0.0869
  418MOL0     N56346  10.834   5.617   8.391 -0.2824  0.0119  0.1336
  418MOL0     C56347   9.757   6.021   8.459 -0.0437 -0.5867  0.9983
  418MOL0     C56348   9.614   6.043   8.460 -0.3591 -0.2013  0.6144
  418MOL0     C56349   9.169   6.038   8.505  0.6567  1.2799  0.1635
  418MOL0     C56350   9.084   6.049   8.396  0.4437 -0.3481  0.1706
  418MOL0     C56351   8.951   6.101   8.410 -0.2334  0.2495 -0.0492
  418MOL0     C56352   8.901   6.126   8.539 -0.7479 -0.0790  0.0736
  418MOL0     O56353   8.772   6.177   8.552  0.0411  0.5685  0.5306
  418MOL0     C56354   8.726   6.215   8.682  0.4605 -0.1167  0.1931
  418MOL0     C56355   8.579   6.266   8.654  0.2165 -0.1606  0.0487
  418MOL0     C56356   8.556   6.389   8.560 -0.4940 -0.6276 -0.0033
  418MOL0     C56357   8.406   6.430   8.565 -0.0489 -0.8907  0.1227
  418MOL0     C56358   8.377   6.520   8.454 -0.6207 -0.1159  0.9173
  418MOL0     C56359   8.335   6.595   8.358 -0.4830  0.7563 -0.1082
  418MOL0     C56360   8.983   6.107   8.646  0.8580  0.1439 -0.2259
  418MOL0     C56361   9.115   6.054   8.632  0.4043  0.1977 -0.6831
  418MOL0     C56362   9.181   6.012   8.762  0.4350  0.4804  0.0062
  418MOL0     H56363   9.551   5.868   8.737  0.2601 -0.0894 -0.1288
  418MOL0     H56364   9.794   5.843   8.735  2.6666  0.2389 -0.9173
  418MOL0     H56365  10.024   5.926   8.751  5.1785 -1.7191  1.2453
  418MOL0     H56366   9.993   5.771   8.668  1.4541 -0.6516  0.8288
  418MOL0     H56367  10.178   5.779   8.546  0.9422  0.5980  0.0136
  418MOL0     H56368  10.231   5.804   8.711  1.0606 -1.1131 -1.1291
  418MOL0     H56369  10.246   6.074   8.635 -3.3325  2.1831 -2.9249
  418MOL0     H56370  10.210   6.009   8.484 -0.7914 -1.7881 -0.5334
  418MOL0     H56371  10.464   6.042   8.551 -2.5124  0.5494 -2.3268
  418MOL0     H56372  10.454   5.892   8.637  1.4532  0.0101  0.0938
  418MOL0     H56373  10.381   5.760   8.441 -1.5012  0.7986 -0.7808
  418MOL0     H56374  10.382   5.904   8.341 -0.9317 -0.0650 -0.7993
  418MOL0     H56375  10.627   5.949   8.422  1.4825 -0.9436 -0.3429
  418MOL0     H56376  10.606   5.780   8.495 -2.4184 -1.9146 -1.0704
  418MOL0     H56377  10.563   5.883   8.203 -2.4985 -2.0762 -0.6154
  418MOL0     H56378  10.552   5.717   8.242  3.0648 -0.8881 -2.9763
  418MOL0     H56379  10.768   5.741   8.143 -1.0031 -1.8616  0.6723
  418MOL0     H56380  10.788   5.904   8.222 -1.1399  1.2048  0.2649
  418MOL0     H56381  10.941   5.918   8.447  3.1338 -0.6667  0.1879
  418MOL0     H56382  11.029   5.816   8.678  1.5307 -0.3745  1.8932
  418MOL0     H56383  11.078   5.650   8.664  0.4687  0.3073 -1.0454
  418MOL0     H56384  11.251   5.722   8.483  0.0543 -2.1344  1.8937
  418MOL0     H56385  11.197   5.891   8.499  2.9440  2.4158  1.9246
  418MOL0     H56386  11.326   5.753   8.747  1.4091  1.4613  1.1308
  418MOL0     H56387  11.276   5.915   8.715 -0.1277  0.1857  0.1907
  418MOL0     H56388  11.532   5.858   8.686  0.7103 -1.9361 -0.0254
  418MOL0     H56389  11.470   5.923   8.539  0.7929 -0.0763  0.6663
  418MOL0     H56390  11.652   5.920   8.457  0.4211  1.2975 -3.4452
  418MOL0     H56391  11.878   5.907   8.361 -1.1478 -0.0490  0.9401
  418MOL0     H56392  12.316   5.641   8.363  2.0706 -1.3870 -0.7574
  418MOL0     H56393  12.534   5.679   8.242  0.4225  0.0105 -1.5246
  418MOL0     H56394  12.733   5.815   8.262  2.2607  1.5027 -0.0521
  418MOL0     H56395  12.716   5.713   8.111  2.9373 -1.1692  2.3900
  418MOL0     H56396  12.833   5.901   7.988  4.8992  1.8430 -0.4214
  418MOL0     H56397  12.866   5.974   8.138 -1.8440  0.1697 -1.4729
  418MOL0     H56398  12.981   5.734   8.207 -2.2455 -1.5136  0.0595
  418MOL0     H56399  12.950   5.689   8.036 -2.5402 -0.3397  0.4602
  418MOL0     H56400  13.093   5.951   8.152  0.3797 -1.9037  1.8898
  418MOL0     H56401  13.069   5.919   7.976 -0.2788  0.8984  0.6697
  418MOL0     H56402  13.204   5.742   7.969 -2.9761  4.2636 -1.9910
  418MOL0     H56403  13.223   5.730   8.150 -1.1587 -1.3463 -1.9850
  418MOL0     H56404  13.342   5.952   7.959  1.9531  1.6895  1.3135
  418MOL0     H56405  13.331   5.968   8.132 -0.0205  0.4946 -1.6818
  418MOL0     H56406  13.437   5.697   8.046 -0.1488 -0.3969  1.3913
  418MOL0     H56407  13.485   5.804   8.175  1.8574  0.6874 -0.5014
  418MOL0     H56408  13.617   5.949   7.973 -1.4785  0.5644 -0.2286
  418MOL0     H56409  13.667   5.779   7.993 -0.3428  1.2503  1.3909
  418MOL0     H56410  12.364   6.026   8.062 -0.5178  1.1920  0.6701
  418MOL0     H56411  12.163   6.000   8.172 -1.9176 -2.2326 -2.0733
  418MOL0     H56412  11.875   5.478   8.438  0.4472  0.4887  0.8384
  418MOL0     H56413  11.665   5.499   8.531  1.9078  0.7629  1.8022
  418MOL0     H56414   9.816   6.073   8.385 -1.8197  3.4892  2.1681
  418MOL0     H56415   9.554   6.109   8.398 -1.9759  0.2768  2.5725
  418MOL0     H56416   9.118   6.027   8.295 -1.2368  2.9595 -1.3046
  418MOL0     H56417   8.896   6.105   8.316 -0.6024 -1.6298  0.0566
  418MOL0     H56418   8.792   6.291   8.726  0.2748  0.1577  0.0003
  418MOL0     H56419   8.723   6.137   8.759 -3.4720  0.7446  1.1111
  418MOL0     H56420   8.527   6.297   8.746 -0.3751  1.1977 -0.7141
  418MOL0     H56421   8.532   6.182   8.604  1.2403  0.2905 -1.7728
  418MOL0     H56422   8.565   6.363   8.454  2.5811 -1.5253  0.4038
  418MOL0     H56423   8.632   6.465   8.576  0.3189 -1.6787  1.3260
  418MOL0     H56424   8.338   6.344   8.564  2.9989 -3.4891 -1.3327
  418MOL0     H56425   8.392   6.483   8.660  1.0705  1.8121 -1.1371
  418MOL0     H56426   8.295   6.646   8.273 -2.0208 -0.6702 -0.3086
  418MOL0     H56427   8.950   6.128   8.748 -1.2971 -2.3199 -0.3273
  418MOL0     H56428   9.112   6.020   8.846  2.4478  2.9662  1.5721
  418MOL0     H56429   9.232   5.915   8.765 -1.3274 -0.4425  1.2387
  418MOL0     H56430   9.261   6.083   8.786  1.5239 -1.1578  1.4273
  419MOL0     O56431   8.912   4.301  10.688 -0.7051 -0.2484  0.9838
  419MOL0     C56432   8.870   4.275  10.801  0.1343 -0.8722 -0.4659
  419MOL0     O56433   8.944   4.235  10.906  0.1364 -0.0023 -0.0542
  419MOL0     C56434   9.075   4.240  10.880  0.3022 -0.8507  0.3906
  419MOL0     C56435   9.164   4.330  10.943  0.0018  0.2250  0.2279
  419MOL0     C56436   9.297   4.335  10.904  0.1675 -0.1377  0.1783
  419MOL0     C56437   9.337   4.251  10.793 -0.4316 -0.5139 -0.4803
  419MOL0     O56438   9.468   4.272  10.740  0.2698  0.7770  0.0133
  419MOL0     C56439   9.557   4.189  10.810 -0.0244  0.1981  0.6367
  419MOL0     C56440   9.696   4.187  10.735 -0.0349 -0.2301  0.1272
  419MOL0     C56441   9.803   4.132  10.830 -0.2296  0.4859 -0.1086
  419MOL0     C56442   9.942   4.160  10.786  1.0369  0.3798  0.3897
  419MOL0     C56443  10.033   4.065  10.864  0.7098  0.0290 -0.1365
  419MOL0     C56444  10.182   4.077  10.821  0.3011  0.9942  1.0748
  419MOL0     C56445  10.234   4.217  10.827 -0.3076 -0.5461 -1.0427
  419MOL0     C56446  10.356   4.232  10.745  0.1459 -0.1098 -0.2293
  419MOL0     N56447  10.473   4.188  10.814  0.1874  0.6564 -0.8165
  419MOL0     C56448  10.550   4.261  10.902  0.8139  0.1892  0.2106
  419MOL0     C56449  10.624   4.168  10.969 -0.5431 -0.4574 -0.0998
  419MOL0     C56450  10.723   4.203  11.070 -0.6737  0.1763 -0.7444
  419MOL0     C56451  10.866   4.198  11.022 -0.0506  0.4171  0.0018
  419MOL0     C56452  10.964   4.214  11.144 -0.7012  0.6696 -0.3914
  419MOL0     C56453  11.106   4.228  11.107  0.4165  0.7973  0.4596
  419MOL0     O56454  11.174   4.246  11.233 -0.2848 -0.1645 -0.3707
  419MOL0     C56455  11.285   4.312  11.231 -0.3001 -0.4996 -0.4609
  419MOL0     C56456  11.372   4.327  11.125  0.1790 -0.9967 -0.0864
  419MOL0     C56457  11.505   4.381  11.140  0.3809  0.2931  0.0989
  419MOL0     C56458  11.555   4.416  11.268 -0.2171 -0.2528 -0.7837
  419MOL0     C56459  11.698   4.453  11.283  0.6981  0.7666  0.4795
  419MOL0     O56460  11.777   4.448  11.173  0.0726  0.0851 -0.7913
  419MOL0     C56461  11.890   4.521  11.172  0.5227 -0.3404  0.5066
  419MOL0     C56462  12.001   4.451  11.217  0.1034  0.5248 -0.8660
  419MOL0     C56463  12.124   4.521  11.229 -0.4740 -0.1344 -0.3242
  419MOL0     C56464  12.137   4.657  11.183  0.9670 -0.2778  0.0967
  419MOL0     O56465  12.243   4.730  11.164  0.0995  0.1448 -0.3768
  419MOL0     C56466  12.355   4.709  11.258  0.1144 -0.0444 -0.2752
  419MOL0     C56467  12.491   4.680  11.199 -0.2234  0.2156 -0.2426
  419MOL0     C56468  12.511   4.540  11.140  0.0408 -0.4552 -0.5601
  419MOL0     C56469  12.449   4.523  11.008 -0.0098 -0.1745  0.2674
  419MOL0     C56470  12.491   4.388  10.942 -0.0413  0.3784  0.1648
  419MOL0     C56471  12.505   4.390  10.790  0.4346 -0.4722 -0.1699
  419MOL0     C56472  12.365   4.360  10.729  0.5527  0.3818 -0.3251
  419MOL0     C56473  12.334   4.469  10.624  0.1657  0.3488  1.0470
  419MOL0    Cl56474  12.451   4.453  10.487 -0.2177  0.1317  0.5592
  419MOL0     C56475  12.016   4.725  11.146  0.2560 -0.1386  0.5286
  419MOL0     C56476  11.900   4.656  11.143  0.6187 -0.2531  0.9403
  419MOL0     O56477  11.733   4.497  11.390  0.5597  0.4866 -0.4758
  419MOL0     C56478  11.466   4.406  11.381 -0.4137 -0.6533  0.7650
  419MOL0     C56479  11.331   4.348  11.359  0.3292  0.2289 -0.4562
  419MOL0     N56480  10.596   4.037  10.913 -0.2376 -0.3327 -0.2250
  419MOL0     N56481  10.509   4.056  10.820 -0.4698 -0.7204  0.4202
  419MOL0     C56482   9.253   4.157  10.740 -0.3034 -0.1309  0.2793
  419MOL0     C56483   9.128   4.143  10.787  0.2225  0.0072 -0.2391
  419MOL0     C56484   8.724   4.265  10.812 -0.3506 -0.1810  0.1931
  419MOL0     C56485   8.671   4.180  10.919  0.8353 -0.5494  0.6873
  419MOL0     C56486   8.536   4.193  10.965 -0.1184 -0.3568  0.3556
  419MOL0     C56487   8.447   4.262  10.886  0.1143 -0.8796 -0.6556
  419MOL0     O56488   8.318   4.283  10.920  0.4679 -0.2018 -0.2237
  419MOL0     C56489   8.246   4.199  11.013 -0.8237  0.3140 -0.0958
  419MOL0     C56490   8.170   4.287  11.114 -0.1629  0.0267  0.4499
  419MOL0     C56491   8.256   4.370  11.206  0.6958  0.8061 -0.8338
  419MOL0     C56492   8.170   4.488  11.254  0.0787 -0.1875  0.4048
  419MOL0     C56493   8.234   4.548  11.374  0.1566  0.1567 -0.0749
  419MOL0     C56494   8.281   4.605  11.472  0.4111 -0.1721  0.5273
  419MOL0     C56495   8.485   4.329  10.769 -0.6281 -0.0630 -0.4493
  419MOL0     C56496   8.625   4.338  10.735 -0.3155 -0.9731 -0.7243
  419MOL0     C56497   8.658   4.436  10.626  1.0456 -0.0850  0.2206
  419MOL0     H56498   9.132   4.407  11.011 -2.3687 -1.1044  0.7370
  419MOL0     H56499   9.359   4.410  10.951 -0.6538  0.0685  0.9491
  419MOL0     H56500   9.565   4.248  10.902  0.5312 -0.3803  0.9615
  419MOL0     H56501   9.527   4.089  10.843  0.9554  0.6090  2.9486
  419MOL0     H56502   9.720   4.288  10.700  0.9082 -0.6563 -0.4696
  419MOL0     H56503   9.688   4.120  10.649  1.7270 -0.6826  0.2735
  419MOL0     H56504   9.776   4.026  10.839 -3.9903  1.1374 -1.6638
  419MOL0     H56505   9.799   4.173  10.931  1.1985  2.8925 -0.9386
  419MOL0     H56506   9.956   4.145  10.679  0.8025 -1.2922  0.5756
  419MOL0     H56507   9.957   4.268  10.796  1.4905  0.7162 -2.9645
  419MOL0     H56508  10.018   4.095  10.968 -2.2012  0.8242 -0.7026
  419MOL0     H56509  10.001   3.962  10.848  1.3203 -0.2332  0.2828
  419MOL0     H56510  10.246   4.012  10.881 -0.6014  1.1313  2.2257
  419MOL0     H56511  10.183   4.033  10.720  0.4166  1.1965  0.9884
  419MOL0     H56512  10.249   4.245  10.932 -1.4261 -1.4131 -0.6301
  419MOL0     H56513  10.154   4.277  10.782 -0.6326 -0.6860 -0.6561
  419MOL0     H56514  10.350   4.173  10.653  1.0347  2.2816 -1.9104
  419MOL0     H56515  10.368   4.337  10.718  2.4607  0.6076  2.9706
  419MOL0     H56516  10.533   4.368  10.911 -4.0217 -0.2330 -1.1010
  419MOL0     H56517  10.697   4.304  11.105 -1.4044 -0.0569 -0.5982
  419MOL0     H56518  10.708   4.125  11.146  3.8104 -0.8187 -0.5963
  419MOL0     H56519  10.882   4.099  10.978 -1.2381  0.1226  0.2186
  419MOL0     H56520  10.877   4.276  10.946 -0.0845 -0.2571 -0.7142
  419MOL0     H56521  10.953   4.127  11.208  2.4104 -0.8461 -1.6897
  419MOL0     H56522  10.928   4.294  11.209 -0.3184 -1.4115  2.5908
  419MOL0     H56523  11.116   4.311  11.037 -2.4781  0.5857 -0.3418
  419MOL0     H56524  11.151   4.142  11.058  0.5136 -1.0435  3.5068
  419MOL0     H56525  11.344   4.284  11.030  0.5913  1.8550 -1.6119
  419MOL0     H56526  11.568   4.391  11.052  1.6520  1.2400  1.1018
  419MOL0     H56527  11.998   4.345  11.240 -0.3327  0.6178 -0.4889
  419MOL0     H56528  12.208   4.461  11.263 -1.1855 -0.0874  1.6514
  419MOL0     H56529  12.364   4.800  11.318 -1.5445  0.0728 -0.1743
  419MOL0     H56530  12.335   4.624  11.324 -1.7131 -1.7700 -2.8357
  419MOL0     H56531  12.517   4.754  11.122  0.6318  0.1317 -0.0434
  419MOL0     H56532  12.558   4.700  11.283  0.8811  1.6371 -1.4054
  419MOL0     H56533  12.618   4.517  11.145  0.2385  0.6649  1.5573
  419MOL0     H56534  12.469   4.466  11.209  2.3906 -2.6696 -1.3615
  419MOL0     H56535  12.479   4.608  10.946  0.6648 -1.5634 -1.3811
  419MOL0     H56536  12.341   4.530  11.022  0.0481  0.1103  0.5883
  419MOL0     H56537  12.420   4.311  10.974 -0.8645  1.0816  0.0866
  419MOL0     H56538  12.591   4.363  10.978  0.6185  3.5158  0.8174
  419MOL0     H56539  12.546   4.485  10.753 -1.2377 -0.3114 -1.7463
  419MOL0     H56540  12.570   4.308  10.758 -2.6683 -3.0086 -0.4827
  419MOL0     H56541  12.283   4.370  10.801  1.6020  2.3684  0.6947
  419MOL0     H56542  12.351   4.264  10.678 -2.7994  1.1818 -1.1622
  419MOL0     H56543  12.239   4.460  10.571  1.5552 -0.3006 -1.4549
  419MOL0     H56544  12.358   4.567  10.668  0.6959  0.1678  1.1629
  419MOL0     H56545  12.018   4.833  11.137 -0.2643 -0.0475  1.3957
  419MOL0     H56546  11.804   4.700  11.116  0.4459 -1.2699 -0.1760
  419MOL0     H56547  11.506   4.429  11.479  0.0644  2.3184 -0.0140
  419MOL0     H56548  11.261   4.327  11.439 -0.9035 -0.0279 -1.5639
  419MOL0     H56549   9.297   4.095  10.662 -0.4085 -0.0571  0.1617
  419MOL0     H56550   9.058   4.075  10.740  1.8223 -1.4577 -0.5841
  419MOL0     H56551   8.732   4.128  10.992  0.4052 -3.8696 -1.1122
  419MOL0     H56552   8.506   4.154  11.062 -1.7414 -0.4326 -0.1517
  419MOL0     H56553   8.312   4.131  11.068 -0.0115  0.5431 -0.7816
  419MOL0     H56554   8.172   4.135  10.963 -0.2419 -1.0741  0.7436
  419MOL0     H56555   8.100   4.227  11.174 -1.5875  1.3339  0.1615
  419MOL0     H56556   8.106   4.350  11.051 -0.3298  1.3102  1.8534
  419MOL0     H56557   8.347   4.412  11.164  1.8143 -0.2821  0.3969
  419MOL0     H56558   8.290   4.303  11.286 -0.2274 -1.6243 -2.3643
  419MOL0     H56559   8.170   4.565  11.177 -3.2499  0.1738  0.6361
  419MOL0     H56560   8.070   4.454  11.281 -0.0678  0.8657  1.2964
  419MOL0     H56561   8.325   4.649  11.558 -0.2662 -1.4194  1.5504
  419MOL0     H56562   8.414   4.394  10.719  0.0652  0.1637 -1.1726
  419MOL0     H56563   8.710   4.386  10.544 -1.3292  0.0173 -1.4672
  419MOL0     H56564   8.575   4.481  10.570 -0.3142 -1.0756  1.3823
  419MOL0     H56565   8.722   4.518  10.659  0.5999  0.6936 -0.7659
  420MOL0     O56566   9.321   6.365   4.211 -0.3669 -0.1460  0.1752
  420MOL0     C56567   9.273   6.348   4.318  0.0618 -0.6063  0.5239
  420MOL0     O56568   9.311   6.406   4.440 -0.5444  0.6068 -0.0234
  420MOL0     C56569   9.421   6.481   4.441 -0.0690  0.4475 -0.4223
  420MOL0     C56570   9.543   6.438   4.494  0.0780 -0.3260  0.7332
  420MOL0     C56571   9.656   6.519   4.492  0.2596 -0.2995 -0.6210
  420MOL0     C56572   9.636   6.647   4.439 -0.5246  0.0584 -0.4927
  420MOL0     O56573   9.736   6.742   4.457  0.3076  0.1457  0.5180
  420MOL0     C56574   9.845   6.705   4.373 -0.6462 -0.4950 -0.4411
  420MOL0     C56575   9.951   6.817   4.396 -0.0311 -0.0677 -0.0502
  420MOL0     C56576  10.091   6.807   4.328 -0.3296  0.2815  0.2793
  420MOL0     C56577  10.142   6.952   4.309 -0.0481 -0.3453 -0.3143
  420MOL0     C56578  10.302   6.954   4.282 -0.3128 -0.6493  0.0161
  420MOL0     C56579  10.354   7.079   4.205 -0.4196 -0.1710 -0.2761
  420MOL0     C56580  10.508   7.085   4.225 -0.2677  0.9064 -0.2302
  420MOL0     C56581  10.582   7.199   4.158  0.3393 -0.2404  0.5176
  420MOL0     N56582  10.727   7.189   4.169  0.1558 -0.2465 -0.6350
  420MOL0     C56583  10.807   7.194   4.279  0.1315  0.6140  0.2394
  420MOL0     C56584  10.933   7.176   4.234 -0.6669  0.3623  0.5262
  420MOL0     C56585  11.059   7.166   4.311 -0.5771 -0.1271  0.0068
  420MOL0     C56586  11.072   7.287   4.399  0.4166 -0.4283 -0.4920
  420MOL0     C56587  11.219   7.311   4.451  0.3922  0.0495 -0.6900
  420MOL0     C56588  11.328   7.358   4.354 -0.4685  0.7315  0.0290
  420MOL0     O56589  11.445   7.377   4.436 -0.4737 -0.7459  0.6664
  420MOL0     C56590  11.571   7.347   4.384 -0.0274 -0.4377  0.2351
  420MOL0     C56591  11.610   7.392   4.258 -0.7861  0.3582  0.5976
  420MOL0     C56592  11.734   7.341   4.201  0.3877 -0.6013  0.0435
  420MOL0     C56593  11.823   7.271   4.281 -0.6032 -0.0047  1.3459
  420MOL0     C56594  11.957   7.241   4.231  0.1709 -0.6432 -0.9619
  420MOL0     O56595  12.015   7.144   4.301 -0.9367  0.3772 -0.4150
  420MOL0     C56596  12.151   7.126   4.273  0.0782  0.2016 -1.2436
  420MOL0     C56597  12.202   7.036   4.181  0.2046 -1.1210 -0.8174
  420MOL0     C56598  12.342   7.017   4.154  0.4156 -0.1330 -1.3352
  420MOL0     C56599  12.432   7.098   4.227  0.1945  0.3493 -0.6220
  420MOL0     O56600  12.566   7.086   4.215 -0.3192 -1.0092 -0.5405
  420MOL0     C56601  12.611   7.028   4.093 -0.2265 -0.7106  0.6301
  420MOL0     C56602  12.764   7.048   4.093 -0.0987  0.1117 -0.3111
  420MOL0     C56603  12.805   7.018   3.942 -0.0273  0.0359  0.3955
  420MOL0     C56604  12.958   7.021   3.917  0.0368 -0.4597 -0.2503
  420MOL0     C56605  12.978   6.947   3.783  0.1395 -0.1198 -0.4249
  420MOL0     C56606  13.120   6.925   3.747 -0.3742 -0.5418  0.4482
  420MOL0     C56607  13.173   7.061   3.699 -0.0943 -0.3781  0.6614
  420MOL0     C56608  13.320   7.050   3.665  0.1391 -1.1070 -0.5478
  420MOL0    Cl56609  13.427   6.990   3.808  0.1164 -0.3156 -0.3078
  420MOL0     C56610  12.383   7.186   4.324 -0.3842  0.1548 -0.1965
  420MOL0     C56611  12.248   7.189   4.356  0.5383 -0.2067  1.0500
  420MOL0     O56612  12.010   7.309   4.148 -0.1960 -0.3243 -1.4567
  420MOL0     C56613  11.791   7.239   4.411  0.5180 -0.1918  0.3054
  420MOL0     C56614  11.662   7.268   4.459 -0.5480 -1.1710 -0.0583
  420MOL0     N56615  10.922   7.159   4.095 -0.3674  0.5680  0.1888
  420MOL0     N56616  10.796   7.148   4.059 -0.2988 -0.3219 -1.1881
  420MOL0     C56617   9.521   6.692   4.387  0.6985 -0.1894  0.0189
  420MOL0     C56618   9.410   6.606   4.386  0.7241  0.2678  0.5902
  420MOL0     C56619   9.160   6.253   4.327  0.2655  0.2093 -1.0501
  420MOL0     C56620   9.118   6.185   4.210  0.0070 -0.2171  0.1534
  420MOL0     C56621   9.025   6.084   4.215  0.9643 -0.0541  0.3161
  420MOL0     C56622   8.960   6.039   4.331 -0.7170  0.0199  0.2675
  420MOL0     O56623   8.872   5.932   4.332  0.0819 -0.4018  0.1819
  420MOL0     C56624   8.826   5.885   4.469  0.5465  0.3677  1.0399
  420MOL0     C56625   8.712   5.777   4.454 -0.5349 -0.5814  0.0994
  420MOL0     C56626   8.591   5.851   4.379 -0.0647  0.1226 -0.2943
  420MOL0     C56627   8.464   5.781   4.421 -0.1583  0.4413 -0.1868
  420MOL0     C56628   8.449   5.654   4.351 -0.2514  0.2396 -0.4553
  420MOL0     C56629   8.446   5.547   4.287  0.0456 -0.1640 -0.1279
  420MOL0     C56630   9.005   6.095   4.449 -1.5457  0.7129 -0.0395
  420MOL0     C56631   9.106   6.195   4.450  0.9188 -1.5347  0.6800
  420MOL0     C56632   9.155   6.238   4.587  0.5955  0.1694 -1.2474
  420MOL0     H56633   9.533   6.338   4.535 -3.5712  1.3674  4.6850
  420MOL0     H56634   9.753   6.481   4.525 -0.3375 -1.0310  0.3503
  420MOL0     H56635   9.874   6.604   4.403 -0.3021  0.4342  2.7063
  420MOL0     H56636   9.808   6.693   4.271 -2.1955 -3.8096  0.4039
  420MOL0     H56637   9.974   6.833   4.502 -0.6036 -3.2738  0.6740
  420MOL0     H56638   9.902   6.905   4.354 -2.2987 -0.3429  1.7957
  420MOL0     H56639  10.075   6.761   4.230  1.2097  0.9649 -0.3192
  420MOL0     H56640  10.151   6.746   4.396 -0.1187 -1.3893 -1.3157
  420MOL0     H56641  10.097   7.003   4.224  1.3555  3.4381  0.9725
  420MOL0     H56642  10.118   7.009   4.399  3.3230  0.8125  0.0019
  420MOL0     H56643  10.349   6.948   4.381 -2.0965 -4.8489  0.8519
  420MOL0     H56644  10.330   6.867   4.221 -1.4859  0.4801 -2.2024
  420MOL0     H56645  10.339   7.088   4.097 -0.3691  0.6359 -0.2260
  420MOL0     H56646  10.319   7.164   4.265 -3.0945 -3.9209  4.1982
  420MOL0     H56647  10.544   6.987   4.192 -0.1681  1.3154 -1.3827
  420MOL0     H56648  10.536   7.096   4.330  1.5732  4.6450 -0.9387
  420MOL0     H56649  10.535   7.193   4.059 -0.6909  0.3966  0.9546
  420MOL0     H56650  10.557   7.299   4.195  2.7037  0.5375  0.1913
  420MOL0     H56651  10.778   7.203   4.383  3.0264 -0.6934  1.2623
  420MOL0     H56652  11.066   7.072   4.366 -2.9059  1.6489  3.7983
  420MOL0     H56653  11.146   7.166   4.245  1.8057  3.1158  2.7720
  420MOL0     H56654  11.033   7.379   4.354 -1.1035 -0.4318  0.7195
  420MOL0     H56655  11.023   7.266   4.495 -1.1508  0.8876 -0.9679
  420MOL0     H56656  11.245   7.213   4.492 -0.3894 -0.0148 -0.3389
  420MOL0     H56657  11.220   7.385   4.531  2.2626 -1.3698  0.6803
  420MOL0     H56658  11.293   7.454   4.315 -1.8993  1.2963  2.4565
  420MOL0     H56659  11.350   7.290   4.271 -2.8865 -0.5197  0.3287
  420MOL0     H56660  11.546   7.442   4.187 -0.7950  0.7181  0.8524
  420MOL0     H56661  11.762   7.365   4.099  3.2989 -1.2415  0.6028
  420MOL0     H56662  12.144   6.966   4.121 -1.5784 -1.3366  1.0489
  420MOL0     H56663  12.364   6.937   4.084 -2.9189 -1.8295 -0.6310
  420MOL0     H56664  12.602   6.921   4.070  0.1696 -0.5009 -0.5430
  420MOL0     H56665  12.563   7.079   4.009 -1.5158 -1.6093  0.7927
  420MOL0     H56666  12.789   7.152   4.115 -5.1646  2.2073 -2.6409
  420MOL0     H56667  12.813   6.980   4.162 -2.7525 -1.8645 -0.1897
  420MOL0     H56668  12.770   6.919   3.911 -2.4562  1.3927 -1.5720
  420MOL0     H56669  12.756   7.094   3.881 -1.2336 -0.4615  0.7105
  420MOL0     H56670  13.016   6.966   3.992 -2.2595  1.6023  3.3514
  420MOL0     H56671  12.989   7.126   3.923 -0.4229 -0.4038  1.6779
  420MOL0     H56672  12.911   6.987   3.707  1.1073 -0.0681 -1.2794
  420MOL0     H56673  12.942   6.845   3.799  1.7071 -0.7171 -0.5183
  420MOL0     H56674  13.173   6.899   3.838 -0.6996  0.6194  0.9971
  420MOL0     H56675  13.130   6.848   3.670  1.4366  0.2855 -0.2019
  420MOL0     H56676  13.151   7.136   3.775  0.5391 -0.7296  1.2061
  420MOL0     H56677  13.112   7.097   3.615  0.1126  0.9299  1.0562
  420MOL0     H56678  13.335   6.988   3.576  1.3613  2.2070 -2.8328
  420MOL0     H56679  13.350   7.149   3.632  0.3226 -1.0770 -0.2950
  420MOL0     H56680  12.457   7.234   4.388 -1.7431  2.0010  0.0696
  420MOL0     H56681  12.204   7.251   4.434 -2.4724 -1.8185  0.7720
  420MOL0     H56682  11.852   7.192   4.487  1.8991 -0.0478 -0.6770
  420MOL0     H56683  11.636   7.234   4.558  1.0178 -1.9164  0.1154
  420MOL0     H56684   9.532   6.794   4.353  2.9877 -0.5669 -0.5449
  420MOL0     H56685   9.314   6.640   4.347  0.0566  0.3521  2.2319
  420MOL0     H56686   9.154   6.206   4.110  1.5187 -2.7658  0.0713
  420MOL0     H56687   9.000   6.035   4.122 -4.6626 -0.4492  1.6663
  420MOL0     H56688   8.785   5.965   4.531  0.7767  1.7636 -0.5245
  420MOL0     H56689   8.902   5.830   4.525 -0.0086 -1.1154  0.4053
  420MOL0     H56690   8.692   5.741   4.556  2.5115 -0.2195  0.9400
  420MOL0     H56691   8.745   5.695   4.389 -1.2140  1.1204 -2.5252
  420MOL0     H56692   8.619   5.831   4.275  0.6395 -2.3122  0.3083
  420MOL0     H56693   8.585   5.957   4.407  0.0525  0.6010 -1.9616
  420MOL0     H56694   8.453   5.765   4.528  0.1658  0.8985 -0.0811
  420MOL0     H56695   8.382   5.851   4.403  1.0121  1.8840 -0.0785
  420MOL0     H56696   8.433   5.453   4.237 -4.7650  0.3690 -0.3529
  420MOL0     H56697   8.993   6.055   4.549  0.8284 -0.7098 -0.2491
  420MOL0     H56698   9.096   6.196   4.670  2.2814  0.5700  0.2068
  420MOL0     H56699   9.258   6.205   4.604 -0.2032 -1.8020  0.1923
  420MOL0     H56700   9.131   6.344   4.598 -1.2902 -0.1863 -1.4966
  421MOL0     O56701   7.859   1.999   5.012  0.0151 -0.4120  0.7603
  421MOL0     C56702   7.782   2.027   4.913 -0.1127  0.5554  0.0616
  421MOL0     O56703   7.820   2.125   4.827  0.5238 -0.1322  0.3632
  421MOL0     C56704   7.945   2.182   4.843 -0.3130 -0.0286 -0.2631
  421MOL0     C56705   8.022   2.188   4.726 -0.5041  0.3659 -0.6857
  421MOL0     C56706   8.143   2.250   4.726 -0.4799 -0.5995  0.5116
  421MOL0     C56707   8.200   2.302   4.843  0.5669 -0.8980 -0.4162
  421MOL0     O56708   8.328   2.343   4.827 -0.6000 -0.4499 -0.2024
  421MOL0     C56709   8.393   2.403   4.938 -0.2412  0.1905 -0.3843
  421MOL0     C56710   8.544   2.401   4.934 -0.6829 -0.2558  0.2132
  421MOL0     C56711   8.599   2.516   5.017  0.2822 -0.5305 -0.1335
  421MOL0     C56712   8.754   2.498   5.016  0.8812 -0.4927  0.2683
  421MOL0     C56713   8.823   2.563   5.137  0.4121  0.4124  0.5344
  421MOL0     C56714   8.849   2.718   5.120 -0.3821  0.6392  0.9614
  421MOL0     C56715   8.938   2.774   5.224  0.3801  0.3988 -0.2209
  421MOL0     C56716   9.082   2.727   5.229 -0.4118  0.4402 -0.3902
  421MOL0     N56717   9.155   2.770   5.106 -0.0869  0.5276  0.0899
  421MOL0     C56718   9.210   2.678   5.020  0.6566 -0.2686  0.4148
  421MOL0     C56719   9.295   2.746   4.941 -0.4116 -0.2222 -0.1001
  421MOL0     C56720   9.378   2.671   4.844  1.1151 -0.6854  0.4558
  421MOL0     C56721   9.502   2.617   4.915  1.3127 -0.2295  0.2053
  421MOL0     C56722   9.571   2.508   4.827 -0.6297  0.3353  0.4241
  421MOL0     C56723   9.653   2.404   4.906 -0.0065  0.3582 -0.6303
  421MOL0     O56724   9.705   2.315   4.813 -0.3671 -0.0844 -0.0712
  421MOL0     C56725   9.625   2.219   4.759 -0.6009 -0.2145 -0.5916
  421MOL0     C56726   9.686   2.130   4.675 -0.2514  0.2965  0.6821
  421MOL0     C56727   9.633   2.010   4.643 -0.5609 -0.6290  0.1674
  421MOL0     C56728   9.503   1.972   4.684 -0.4172 -0.2849 -0.6227
  421MOL0     C56729   9.448   1.840   4.653  0.3822  0.7058  0.5860
  421MOL0     O56730   9.526   1.748   4.598 -0.7593  0.4733 -0.0125
  421MOL0     C56731   9.469   1.624   4.572 -0.6298  0.4235  0.2008
  421MOL0     C56732   9.505   1.501   4.633 -0.1034 -0.2909 -0.2060
  421MOL0     C56733   9.466   1.376   4.582 -0.9078  0.6419  0.2562
  421MOL0     C56734   9.380   1.361   4.475 -0.4300  0.1421 -0.3289
  421MOL0     O56735   9.347   1.233   4.436 -0.5576  0.9058 -0.3412
  421MOL0     C56736   9.221   1.218   4.366  0.9113 -0.4885  0.2426
  421MOL0     C56737   9.108   1.257   4.468  0.4331 -0.0354 -0.0373
  421MOL0     C56738   8.982   1.181   4.440  0.6465  1.4028  0.5805
  421MOL0     C56739   8.868   1.184   4.537  0.4143 -0.0587  0.0543
  421MOL0     C56740   8.781   1.061   4.526  0.3665  0.4596 -0.9755
  421MOL0     C56741   8.670   1.060   4.633  0.6844  0.6869  1.5535
  421MOL0     C56742   8.578   0.941   4.608  0.3244  0.1781  0.1575
  421MOL0     C56743   8.495   0.891   4.732 -0.6885 -0.5916 -0.1553
  421MOL0    Cl56744   8.357   0.791   4.673  0.3092  0.0105  0.5449
  421MOL0     C56745   9.345   1.480   4.405  0.7993  0.1651 -0.4903
  421MOL0     C56746   9.395   1.605   4.449 -0.1979  0.0442 -0.0108
  421MOL0     O56747   9.323   1.827   4.667  0.4104  0.5889  0.1212
  421MOL0     C56748   9.429   2.073   4.758  0.5930 -0.1455 -0.1021
  421MOL0     C56749   9.487   2.197   4.797  0.2642 -0.0437 -1.0604
  421MOL0     N56750   9.299   2.878   4.986 -0.1247  0.0314 -0.1591
  421MOL0     N56751   9.212   2.894   5.087 -0.5609  0.4056  0.7392
  421MOL0     C56752   8.115   2.313   4.955  0.5033 -0.0538 -0.5018
  421MOL0     C56753   7.993   2.244   4.960 -0.6683 -0.5443 -0.9177
  421MOL0     C56754   7.656   1.950   4.884  0.3553  0.3004 -0.6678
  421MOL0     C56755   7.567   1.983   4.779 -0.3949 -0.4472 -0.3512
  421MOL0     C56756   7.442   1.921   4.765  0.5781 -0.2472 -0.1014
  421MOL0     C56757   7.402   1.817   4.843  0.3832  0.4759 -0.0189
  421MOL0     O56758   7.276   1.753   4.822 -0.1479 -0.4814  0.2741
  421MOL0     C56759   7.240   1.638   4.893 -1.0686 -0.0547  0.4460
  421MOL0     C56760   7.108   1.573   4.859 -0.9162  0.5890  0.4504
  421MOL0     C56761   7.089   1.509   4.720  0.6116  0.1375  0.2248
  421MOL0     C56762   6.956   1.426   4.718  0.3972 -0.2522  0.2123
  421MOL0     C56763   6.985   1.298   4.789  0.5148  0.0244 -0.3840
  421MOL0     C56764   7.033   1.201   4.855  0.8136  1.5056 -0.2589
  421MOL0     C56765   7.488   1.774   4.945  0.0897  1.0211  0.9949
  421MOL0     C56766   7.611   1.839   4.961  0.2843 -0.1760  0.8909
  421MOL0     C56767   7.688   1.789   5.071  0.0156 -0.3161 -0.3659
  421MOL0     H56768   7.992   2.132   4.638  3.5277 -3.2612 -0.1058
  421MOL0     H56769   8.206   2.259   4.638  1.8909  2.4371  2.3190
  421MOL0     H56770   8.352   2.504   4.948  0.8420  0.6455 -0.4556
  421MOL0     H56771   8.361   2.353   5.030 -1.6629  0.9039 -0.4593
  421MOL0     H56772   8.577   2.406   4.829 -0.2934  0.9202  0.3830
  421MOL0     H56773   8.567   2.305   4.982  1.5588  0.4065  0.5686
  421MOL0     H56774   8.561   2.513   5.119  0.8779 -0.1809  0.1035
  421MOL0     H56775   8.594   2.616   4.973  0.1422 -0.3164  0.3624
  421MOL0     H56776   8.782   2.394   5.033  0.9431 -0.9156 -2.1867
  421MOL0     H56777   8.807   2.538   4.929  2.7553  0.9932  1.9848
  421MOL0     H56778   8.766   2.545   5.229  1.4736 -2.6838  0.6989
  421MOL0     H56779   8.917   2.511   5.156 -0.3874 -1.0872  0.4896
  421MOL0     H56780   8.891   2.739   5.021  0.0018 -3.2966  0.1477
  421MOL0     H56781   8.750   2.764   5.130 -0.6088 -0.1080  2.3569
  421MOL0     H56782   8.889   2.766   5.321  2.3149  0.3167  0.8151
  421MOL0     H56783   8.943   2.881   5.203  1.3844  0.7199  1.4430
  421MOL0     H56784   9.134   2.776   5.312  0.9097  2.6759 -2.4041
  421MOL0     H56785   9.089   2.620   5.251  0.5180  0.8238  1.4164
  421MOL0     H56786   9.173   2.576   5.016 -3.1381  0.9685 -1.4143
  421MOL0     H56787   9.311   2.601   4.794 -1.4687  2.3415 -0.6537
  421MOL0     H56788   9.418   2.729   4.760  0.7318 -0.5104  0.3919
  421MOL0     H56789   9.562   2.706   4.938 -2.1338  2.5988 -0.7879
  421MOL0     H56790   9.471   2.567   5.007  2.4980 -1.0233  0.1890
  421MOL0     H56791   9.639   2.558   4.756 -0.5433  0.5149  0.6328
  421MOL0     H56792   9.487   2.472   4.767  0.6692  2.9044 -3.3950
  421MOL0     H56793   9.599   2.347   4.981  1.1560  1.4836  1.1334
  421MOL0     H56794   9.729   2.458   4.964  0.1648 -1.3973  0.8545
  421MOL0     H56795   9.791   2.148   4.655 -0.2513  0.6886  1.0148
  421MOL0     H56796   9.682   1.937   4.578  0.0482  1.1727 -1.5052
  421MOL0     H56797   9.571   1.511   4.718 -1.1492  2.3935  0.4096
  421MOL0     H56798   9.510   1.290   4.633 -3.7997 -0.7105  0.6750
  421MOL0     H56799   9.214   1.263   4.267 -1.5642 -1.1770  0.0371
  421MOL0     H56800   9.216   1.113   4.335  1.3175  0.3932 -3.1803
  421MOL0     H56801   9.144   1.241   4.570  1.7588 -0.1729 -0.5132
  421MOL0     H56802   9.087   1.363   4.449  4.3212  1.2406  1.7630
  421MOL0     H56803   8.943   1.202   4.340  0.3591 -1.2222  0.0642
  421MOL0     H56804   9.013   1.077   4.427 -1.3937  1.0702 -2.8549
  421MOL0     H56805   8.811   1.277   4.523  1.8577  0.4173 -4.0985
  421MOL0     H56806   8.917   1.178   4.634  1.1881 -0.9968 -0.3771
  421MOL0     H56807   8.839   0.970   4.539 -1.4551 -0.3912  2.0181
  421MOL0     H56808   8.746   1.066   4.422 -1.3549 -1.0086 -0.5193
  421MOL0     H56809   8.719   1.061   4.731 -0.0075 -0.4322  1.9327
  421MOL0     H56810   8.610   1.152   4.630 -0.6389 -0.1699  0.3628
  421MOL0     H56811   8.637   0.858   4.566  1.8596  1.3598 -0.1032
  421MOL0     H56812   8.512   0.971   4.526  0.1326  1.6264  0.8113
  421MOL0     H56813   8.547   0.824   4.801 -2.6333 -0.3665  1.6162
  421MOL0     H56814   8.457   0.980   4.784  1.1318  1.6232 -2.3713
  421MOL0     H56815   9.297   1.475   4.308  1.1599  1.1119 -0.7352
  421MOL0     H56816   9.377   1.694   4.389 -1.6020 -0.8671 -0.9733
  421MOL0     H56817   9.325   2.054   4.779 -0.1023  2.6252 -0.7514
  421MOL0     H56818   9.428   2.264   4.860  0.5054 -1.7785  1.1500
  421MOL0     H56819   8.144   2.353   5.052 -0.2916 -3.0912  1.1095
  421MOL0     H56820   7.942   2.232   5.055  0.6585  0.6018 -0.0283
  421MOL0     H56821   7.592   2.067   4.715  1.0053 -1.6274 -1.4323
  421MOL0     H56822   7.372   1.955   4.689  1.6608  3.0944  0.2239
  421MOL0     H56823   7.236   1.672   4.998  1.8826  1.8952  0.0377
  421MOL0     H56824   7.314   1.559   4.878 -0.0593  0.8732  0.4414
  421MOL0     H56825   7.031   1.650   4.873 -1.4955  0.3915 -1.3663
  421MOL0     H56826   7.093   1.492   4.931 -0.5459 -0.5819 -0.7615
  421MOL0     H56827   7.173   1.446   4.690  0.8183  1.1566 -1.4955
  421MOL0     H56828   7.076   1.594   4.652 -2.1010  0.2764  0.7917
  421MOL0     H56829   6.885   1.496   4.762  0.4241  0.4952 -0.9132
  421MOL0     H56830   6.917   1.390   4.623 -2.3530  1.5827  0.5365
  421MOL0     H56831   7.075   1.111   4.894 -1.7286  0.3378  0.0301
  421MOL0     H56832   7.462   1.689   5.007 -0.1473  1.6525  1.7784
  421MOL0     H56833   7.633   1.703   5.110  0.4212 -0.4915 -0.1786
  421MOL0     H56834   7.787   1.746   5.053  0.2866 -0.5523  1.5143
  421MOL0     H56835   7.690   1.863   5.151  0.3473 -2.7817  2.0569
  422MOL0     O56836   5.859   8.438   6.729  0.1729 -0.8170  0.2669
  422MOL0     C56837   5.930   8.508   6.657 -0.5973 -0.8449 -1.0530
  422MOL0     O56838   6.010   8.611   6.697  0.0222 -0.2474  0.0356
  422MOL0     C56839   6.035   8.633   6.828 -0.3661 -0.0654 -0.0497
  422MOL0     C56840   5.942   8.679   6.917 -0.1136  0.2688  0.2818
  422MOL0     C56841   5.969   8.690   7.056  0.5456  0.2255  0.0295
  422MOL0     C56842   6.103   8.671   7.099 -0.3984 -0.3715  0.7204
  422MOL0     O56843   6.156   8.687   7.222  0.1433 -0.0105 -0.6977
  422MOL0     C56844   6.102   8.791   7.306  0.6314 -0.2098 -0.3530
  422MOL0     C56845   6.202   8.854   7.405  0.2948 -0.2013 -0.3473
  422MOL0     C56846   6.334   8.867   7.339 -0.1442 -0.5924 -0.0561
  422MOL0     C56847   6.441   8.924   7.418 -0.1511  0.0212 -0.3097
  422MOL0     C56848   6.557   9.004   7.354  0.2949 -0.3970  0.3606
  422MOL0     C56849   6.649   9.062   7.460  0.1987 -0.1353 -0.0501
  422MOL0     C56850   6.763   9.149   7.412 -0.0579  0.1010  0.0549
  422MOL0     C56851   6.868   9.075   7.326 -0.4337 -0.0141  0.7904
  422MOL0     N56852   6.981   9.159   7.280 -1.1041  0.3890  0.3338
  422MOL0     C56853   6.980   9.286   7.225 -0.1020  0.5260  0.5234
  422MOL0     C56854   7.110   9.328   7.229 -0.5694  0.4664 -0.6247
  422MOL0     C56855   7.158   9.454   7.167  0.6766 -0.6884  0.0255
  422MOL0     C56856   7.300   9.501   7.187  0.2108 -0.1299  1.0782
  422MOL0     C56857   7.398   9.410   7.109 -0.4739 -0.2988  0.0629
  422MOL0     C56858   7.537   9.476   7.090 -0.1823 -0.0131 -0.1624
  422MOL0     O56859   7.637   9.423   7.180  0.6432  0.4288 -0.4777
  422MOL0     C56860   7.760   9.483   7.199 -0.0571 -0.0769 -0.4940
  422MOL0     C56861   7.840   9.442   7.309 -0.1792 -0.7055  0.1103
  422MOL0     C56862   7.970   9.494   7.322 -0.4180  0.2414 -0.0922
  422MOL0     C56863   8.019   9.590   7.240 -0.7687  0.4143  0.4022
  422MOL0     C56864   8.162   9.636   7.253 -0.2404  0.1300 -0.0043
  422MOL0     O56865   8.218   9.638   7.380  0.2164 -0.7413  0.3987
  422MOL0     C56866   8.351   9.621   7.401  0.2719  0.6554  0.4651
  422MOL0     C56867   8.387   9.554   7.523 -0.0347  0.3748  0.3252
  422MOL0     C56868   8.524   9.542   7.555  0.6510 -0.8873 -0.1671
  422MOL0     C56869   8.626   9.562   7.468 -0.2872  0.5732 -0.0165
  422MOL0     O56870   8.754   9.524   7.502  0.3381  0.4814 -0.3253
  422MOL0     C56871   8.856   9.566   7.420  0.4553  0.5557 -0.4037
  422MOL0     C56872   8.995   9.531   7.482  0.4699 -0.2254 -0.0514
  422MOL0     C56873   9.001   9.629   7.605 -0.3627 -0.0217  0.5097
  422MOL0     C56874   9.125   9.593   7.692  0.1022  0.1491 -0.1392
  422MOL0     C56875   9.113   9.676   7.828  0.5672  0.2645 -0.3951
  422MOL0     C56876   9.173   9.602   7.939  0.0216 -0.0212 -0.7272
  422MOL0     C56877   9.320   9.590   7.928 -0.3848  0.3360 -0.9060
  422MOL0     C56878   9.380   9.534   8.060 -0.5234  0.0741  0.3028
  422MOL0    Cl56879   9.549   9.511   8.045  0.1295 -0.1561 -0.2044
  422MOL0     C56880   8.591   9.624   7.342  0.1755 -0.0089 -1.2645
  422MOL0     C56881   8.461   9.653   7.315 -0.5307  1.1898  0.0162
  422MOL0     O56882   8.210   9.682   7.152 -0.4924  0.2938 -0.5511
  422MOL0     C56883   7.944   9.629   7.131 -0.1676  0.3350 -0.2760
  422MOL0     C56884   7.814   9.570   7.108  0.1973  0.6611  0.0745
  422MOL0     N56885   7.184   9.235   7.300  0.0896  0.1710 -0.3976
  422MOL0     N56886   7.108   9.131   7.327 -0.4645 -0.5123  0.5673
  422MOL0     C56887   6.194   8.626   7.001  0.4216  0.0208 -0.6810
  422MOL0     C56888   6.170   8.609   6.864 -0.4042 -0.6120  0.3294
  422MOL0     C56889   5.939   8.496   6.511 -0.5755  1.2109 -0.2942
  422MOL0     C56890   6.045   8.560   6.447 -0.2432  1.2147 -0.8838
  422MOL0     C56891   6.058   8.570   6.306  1.3113  0.1511  0.2208
  422MOL0     C56892   5.961   8.503   6.224  0.4374 -0.2159  0.2402
  422MOL0     O56893   5.977   8.511   6.086 -0.1312 -0.4031 -0.2364
  422MOL0     C56894   6.058   8.401   6.025 -0.2395 -0.2582  0.5558
  422MOL0     C56895   6.192   8.451   5.972  0.5328  0.2207 -0.5181
  422MOL0     C56896   6.187   8.506   5.826  0.0169 -0.8912 -0.4656
  422MOL0     C56897   6.242   8.426   5.705 -0.1104 -0.6207  0.0904
  422MOL0     C56898   6.142   8.328   5.658 -0.1921 -0.0374 -0.4269
  422MOL0     C56899   6.039   8.271   5.632  0.5819 -0.0632 -0.1520
  422MOL0     C56900   5.863   8.430   6.293  0.2488  0.2042 -0.0326
  422MOL0     C56901   5.846   8.426   6.432 -0.5192 -0.3562  0.1828
  422MOL0     C56902   5.740   8.333   6.489 -0.0768  0.2227 -0.5791
  422MOL0     H56903   5.845   8.707   6.877  0.4583  0.2912 -1.1437
  422MOL0     H56904   5.887   8.721   7.120  0.1383 -0.4256 -0.1678
  422MOL0     H56905   6.067   8.876   7.247 -0.9756  0.2372  1.1805
  422MOL0     H56906   6.026   8.738   7.365 -0.1697  0.1431 -1.0415
  422MOL0     H56907   6.211   8.786   7.490 -3.2215 -0.5386 -0.0968
  422MOL0     H56908   6.158   8.950   7.434 -0.7725 -0.7558 -0.0815
  422MOL0     H56909   6.320   8.936   7.255  2.8761  2.3073  1.5868
  422MOL0     H56910   6.373   8.775   7.294  1.8527  0.7620 -1.2620
  422MOL0     H56911   6.390   8.977   7.498  0.4579  0.1879 -0.0235
  422MOL0     H56912   6.482   8.831   7.459  1.9280  0.5422 -1.0612
  422MOL0     H56913   6.605   8.929   7.292 -0.1414 -2.2025  2.0793
  422MOL0     H56914   6.530   9.086   7.287  2.5813 -1.8121 -2.5182
  422MOL0     H56915   6.594   9.124   7.531  0.6308  0.4776 -0.2435
  422MOL0     H56916   6.693   8.970   7.502  0.7499  0.1583  0.0365
  422MOL0     H56917   6.822   9.192   7.494  1.6816  0.2117 -1.1855
  422MOL0     H56918   6.719   9.236   7.362 -2.5699 -0.6099  0.8780
  422MOL0     H56919   6.913   8.982   7.363  1.2096  1.4932  2.7901
  422MOL0     H56920   6.814   9.051   7.234 -1.0350  0.2207  1.0734
  422MOL0     H56921   6.891   9.332   7.183 -0.8410  0.1625  1.6482
  422MOL0     H56922   7.140   9.444   7.059  0.1563 -3.0565  0.2870
  422MOL0     H56923   7.088   9.533   7.196 -3.7624 -3.7149 -1.3693
  422MOL0     H56924   7.316   9.599   7.140 -0.5446  0.9470  2.9780
  422MOL0     H56925   7.310   9.513   7.295 -1.3833 -0.0915  1.2516
  422MOL0     H56926   7.354   9.402   7.009  0.4645 -1.6539 -0.2711
  422MOL0     H56927   7.403   9.307   7.145 -1.0348 -0.1942  0.4579
  422MOL0     H56928   7.529   9.585   7.089 -1.1645  0.0414 -4.2363
  422MOL0     H56929   7.575   9.439   6.994 -0.1898 -1.1248  0.2487
  422MOL0     H56930   7.794   9.368   7.373 -0.5605 -0.8894 -0.3719
  422MOL0     H56931   8.032   9.458   7.402  0.4242  1.5485 -0.1314
  422MOL0     H56932   8.314   9.522   7.596  1.1086 -0.2456  1.2186
  422MOL0     H56933   8.526   9.520   7.662  0.1651 -1.7071 -0.3174
  422MOL0     H56934   8.847   9.519   7.322  2.3875  1.0383 -0.8469
  422MOL0     H56935   8.853   9.675   7.407  0.5421  0.3441 -2.4887
  422MOL0     H56936   8.994   9.427   7.517  2.1329  0.3400  1.8697
  422MOL0     H56937   9.076   9.539   7.410 -1.4826 -1.9682 -2.6200
  422MOL0     H56938   9.024   9.727   7.562 -1.5026 -0.5975 -1.5127
  422MOL0     H56939   8.910   9.629   7.666 -0.5352 -2.0271  0.3058
  422MOL0     H56940   9.212   9.629   7.637  1.1496  0.4205  1.6398
  422MOL0     H56941   9.124   9.485   7.704 -0.5973 -0.0316 -1.6055
  422MOL0     H56942   9.008   9.695   7.851  0.8607  0.2833  1.0508
  422MOL0     H56943   9.157   9.775   7.816  0.7264  0.2186 -0.2031
  422MOL0     H56944   9.144   9.656   8.029  0.1849  1.4942 -1.5503
  422MOL0     H56945   9.139   9.498   7.949  1.1376 -0.4638 -1.3572
  422MOL0     H56946   9.356   9.692   7.916 -1.6437  1.0860  1.1225
  422MOL0     H56947   9.352   9.529   7.843  1.9390  0.4199 -0.1724
  422MOL0     H56948   9.369   9.598   8.148  0.8193 -1.6142  1.7674
  422MOL0     H56949   9.329   9.442   8.088 -2.0425 -0.1833 -2.8200
  422MOL0     H56950   8.664   9.671   7.277  0.7112 -0.2443 -0.8386
  422MOL0     H56951   8.441   9.698   7.219 -1.2157 -0.8415 -0.8347
  422MOL0     H56952   7.980   9.708   7.067 -1.0336  1.2677  0.3618
  422MOL0     H56953   7.756   9.602   7.022 -1.7215 -1.1751  0.5769
  422MOL0     H56954   6.294   8.604   7.039 -0.7880 -0.2283  2.6246
  422MOL0     H56955   6.241   8.570   6.792 -1.0157 -0.1956 -0.5013
  422MOL0     H56956   6.132   8.611   6.488  0.6562 -2.8395  2.9878
  422MOL0     H56957   6.141   8.614   6.251  1.3066  2.1778  1.7188
  422MOL0     H56958   6.009   8.342   5.947  2.5435 -1.3370 -0.5228
  422MOL0     H56959   6.083   8.328   6.102  0.7725 -0.2271  0.2668
  422MOL0     H56960   6.259   8.364   5.973 -0.5790 -0.6514  0.2405
  422MOL0     H56961   6.232   8.524   6.043  0.2058  0.4118 -0.5284
  422MOL0     H56962   6.255   8.591   5.841 -2.8173  0.9967  3.2737
  422MOL0     H56963   6.089   8.544   5.795  1.0104  1.2172 -1.2232
  422MOL0     H56964   6.264   8.489   5.618 -3.0269 -0.4632 -0.6491
  422MOL0     H56965   6.334   8.373   5.732  0.6099  2.2070  4.1930
  422MOL0     H56966   5.960   8.217   5.583  2.3237 -1.8733 -1.1456
  422MOL0     H56967   5.798   8.367   6.233  0.8600  0.2198 -0.7341
  422MOL0     H56968   5.699   8.360   6.586  2.2783  2.6347 -0.1572
  422MOL0     H56969   5.657   8.313   6.420  0.7938  0.6068 -1.7658
  422MOL0     H56970   5.781   8.233   6.508 -0.3629 -0.0407 -1.3054
  423MOL0     O56971   7.081   4.723   0.591 -0.4206 -0.4019 -0.1806
  423MOL0     C56972   7.085   4.839   0.550 -0.0528  0.2072  0.5397
  423MOL0     O56973   7.104   4.944   0.634  0.1310 -0.9563  0.7088
  423MOL0     C56974   7.148   4.910   0.761  0.0716 -0.1416  0.7856
  423MOL0     C56975   7.276   4.943   0.800  0.1975 -0.1283  0.5300
  423MOL0     C56976   7.318   4.910   0.932  0.3503  0.1034  0.3144
  423MOL0     C56977   7.223   4.860   1.026  0.3200 -0.6257 -0.5275
  423MOL0     O56978   7.251   4.831   1.155 -0.3072  0.4890 -0.1962
  423MOL0     C56979   7.354   4.901   1.231  0.0327  0.7680 -0.2710
  423MOL0     C56980   7.323   5.045   1.258 -0.2100  0.1709  0.2176
  423MOL0     C56981   7.434   5.104   1.334 -0.1922  0.5165  0.2956
  423MOL0     C56982   7.412   5.253   1.355  1.1199  0.7270  0.2161
  423MOL0     C56983   7.487   5.320   1.464 -0.2616 -0.1191 -0.3791
  423MOL0     C56984   7.641   5.342   1.433  0.8385  0.5393 -0.1367
  423MOL0     C56985   7.699   5.460   1.519  0.2384  0.1684  0.6587
  423MOL0     C56986   7.847   5.469   1.504 -0.3686  0.6007 -0.0441
  423MOL0     N56987   7.930   5.358   1.551  0.3673 -0.3915 -0.2931
  423MOL0     C56988   7.944   5.336   1.680 -0.4540 -0.6666  0.4084
  423MOL0     C56989   8.015   5.219   1.681 -0.7080 -0.0849  0.0746
  423MOL0     C56990   8.076   5.163   1.800 -0.2612 -0.0149 -0.8122
  423MOL0     C56991   8.226   5.213   1.822  0.3906  0.2503  0.1561
  423MOL0     C56992   8.295   5.128   1.920 -0.7436  0.1088  0.6822
  423MOL0     C56993   8.446   5.149   1.906  0.5938  0.1980 -0.1207
  423MOL0     O56994   8.500   5.125   2.036 -0.4297  0.3372  1.0344
  423MOL0     C56995   8.638   5.133   2.059  0.4668  0.1839  0.8366
  423MOL0     C56996   8.730   5.189   1.977  0.1439 -0.7701  0.8988
  423MOL0     C56997   8.862   5.191   2.012  0.1329 -0.5538  0.3269
  423MOL0     C56998   8.909   5.139   2.137  0.7819  0.2392 -0.6417
  423MOL0     C56999   9.051   5.139   2.181  0.0464 -0.4739  0.6711
  423MOL0     O57000   9.143   5.156   2.081 -0.0572  0.3424  0.8804
  423MOL0     C57001   9.274   5.135   2.128  0.1899 -0.0115 -0.6400
  423MOL0     C57002   9.343   5.016   2.108 -0.4195 -0.4021  0.0310
  423MOL0     C57003   9.467   5.007   2.166 -0.2746  0.0182  0.0100
  423MOL0     C57004   9.531   5.105   2.243  0.2943 -0.1519 -0.3623
  423MOL0     O57005   9.647   5.084   2.318  0.3046  0.0630  0.1146
  423MOL0     C57006   9.745   4.998   2.270 -0.8552 -0.3574  0.8821
  423MOL0     C57007   9.888   5.069   2.264  0.2272  0.7102 -0.5846
  423MOL0     C57008   9.916   5.138   2.401  0.0280 -0.6956  0.4892
  423MOL0     C57009  10.056   5.216   2.386  0.6859  0.3083  0.1243
  423MOL0     C57010  10.075   5.314   2.505  0.1110 -0.0806  0.6305
  423MOL0     C57011  10.182   5.422   2.472 -0.0666 -0.6180  0.1493
  423MOL0     C57012  10.322   5.367   2.447 -0.2625 -0.1284  0.3410
  423MOL0     C57013  10.380   5.303   2.580  1.1559 -1.0266  0.2779
  423MOL0    Cl57014  10.557   5.266   2.559 -0.1732 -0.0984  0.0722
  423MOL0     C57015   9.466   5.223   2.264  1.4848  0.1751 -0.3051
  423MOL0     C57016   9.334   5.234   2.207 -1.0984 -0.1837  0.0460
  423MOL0     O57017   9.076   5.125   2.298  0.0529  0.1658 -0.5359
  423MOL0     C57018   8.809   5.110   2.238  1.1096 -0.0759  0.3480
  423MOL0     C57019   8.674   5.105   2.193  0.5283 -0.0419 -0.0417
  423MOL0     N57020   8.037   5.167   1.552 -0.5650 -0.8098 -0.1092
  423MOL0     N57021   7.987   5.262   1.474  0.2566 -0.2788 -0.3329
  423MOL0     C57022   7.093   4.839   0.982  0.2428 -0.2486  0.0703
  423MOL0     C57023   7.054   4.863   0.848  0.5664 -0.0380 -0.2086
  423MOL0     C57024   7.061   4.869   0.407  0.2289  0.1102  0.2498
  423MOL0     C57025   7.106   4.996   0.361  0.0143 -0.3401 -0.2377
  423MOL0     C57026   7.081   5.034   0.230  0.9804 -0.0775 -0.1893
  423MOL0     C57027   7.016   4.956   0.143  0.0551 -0.5325  0.0523
  423MOL0     O57028   7.013   5.010   0.012  0.1165  0.0728 -0.3026
  423MOL0     C57029   6.925   4.945  -0.090  0.2917 -0.2268  0.1600
  423MOL0     C57030   6.892   5.057  -0.189 -0.4195  0.3004 -0.4339
  423MOL0     C57031   7.015   5.078  -0.284 -0.4802  0.2428 -0.0298
  423MOL0     C57032   6.994   5.198  -0.382 -0.1126 -1.2814  0.1510
  423MOL0     C57033   6.878   5.193  -0.471 -0.3209  0.7873  1.0907
  423MOL0     C57034   6.787   5.170  -0.546  0.3496  0.1728 -0.1457
  423MOL0     C57035   6.960   4.839   0.188  1.0016  0.1384 -0.6364
  423MOL0     C57036   6.990   4.787   0.315  0.5068  0.4758  0.1418
  423MOL0     C57037   6.938   4.649   0.345 -0.9842 -1.0104 -1.0593
  423MOL0     H57038   7.338   4.993   0.726  0.2492  3.7129  2.9248
  423MOL0     H57039   7.418   4.938   0.964  0.5067  0.6292 -0.6134
  423MOL0     H57040   7.377   4.852   1.326 -1.2377 -1.6395 -1.1220
  423MOL0     H57041   7.441   4.879   1.167 -1.2301 -4.5954 -0.5978
  423MOL0     H57042   7.227   5.054   1.309 -0.2193 -1.7642  0.6519
  423MOL0     H57043   7.315   5.107   1.169  0.4155 -1.5862 -1.1304
  423MOL0     H57044   7.520   5.090   1.268 -1.3335 -0.5390 -1.0320
  423MOL0     H57045   7.445   5.049   1.427  1.5915 -2.5788 -1.5888
  423MOL0     H57046   7.410   5.308   1.261 -0.6955 -0.5938 -0.5500
  423MOL0     H57047   7.307   5.265   1.383  0.7608 -1.8328  0.2135
  423MOL0     H57048   7.436   5.417   1.470  1.5127  0.9318 -1.4794
  423MOL0     H57049   7.485   5.258   1.554  1.9496 -1.4617 -1.1730
  423MOL0     H57050   7.698   5.250   1.445 -2.6271 -1.5187  2.3193
  423MOL0     H57051   7.644   5.367   1.327 -4.5490 -1.7147 -1.1748
  423MOL0     H57052   7.671   5.453   1.624 -0.9247  1.6833  0.4780
  423MOL0     H57053   7.644   5.546   1.479  0.5043  0.0057 -0.0860
  423MOL0     H57054   7.868   5.482   1.397 -1.5122 -1.6266 -0.5852
  423MOL0     H57055   7.869   5.556   1.566 -4.2825  0.0591  2.4492
  423MOL0     H57056   7.918   5.406   1.758  2.6991 -0.3514  1.3176
  423MOL0     H57057   8.027   5.202   1.890  1.5330  0.7922 -0.1324
  423MOL0     H57058   8.063   5.054   1.800  3.2180 -0.5368 -0.9131
  423MOL0     H57059   8.286   5.211   1.730  1.0366 -0.0985  0.5767
  423MOL0     H57060   8.224   5.316   1.859  1.2404  0.3855 -0.1402
  423MOL0     H57061   8.281   5.020   1.920 -0.5034  0.0727 -0.1760
  423MOL0     H57062   8.274   5.159   2.023  1.0320  0.8427  0.8617
  423MOL0     H57063   8.456   5.258   1.900 -1.3047  0.4527  0.7025
  423MOL0     H57064   8.498   5.105   1.820 -0.7114 -1.0059 -0.3310
  423MOL0     H57065   8.694   5.226   1.882  2.1947  0.1805  0.4516
  423MOL0     H57066   8.930   5.231   1.937  0.4942  0.2853  1.0832
  423MOL0     H57067   9.294   4.937   2.053  0.5742 -0.7709 -0.3389
  423MOL0     H57068   9.513   4.910   2.152 -0.5151  0.1078 -1.4708
  423MOL0     H57069   9.757   4.912   2.337 -0.2728  0.4803  1.8655
  423MOL0     H57070   9.723   4.954   2.172  0.0090  0.7492  0.1807
  423MOL0     H57071   9.969   4.997   2.252 -0.2817 -0.6569  2.8120
  423MOL0     H57072   9.897   5.141   2.183 -0.5602  3.6729  1.7519
  423MOL0     H57073   9.844   5.219   2.414 -0.3647 -1.0377  0.4413
  423MOL0     H57074   9.920   5.072   2.488  2.1365 -1.5544 -0.1791
  423MOL0     H57075  10.070   5.265   2.289  1.4623  1.6322  0.8739
  423MOL0     H57076  10.132   5.137   2.394  0.1368 -0.2221  0.1884
  423MOL0     H57077  10.115   5.256   2.589  2.7858  0.5821 -0.0927
  423MOL0     H57078   9.981   5.356   2.544  1.2362  1.1070  2.2066
  423MOL0     H57079  10.162   5.474   2.377 -0.4830  3.0265  2.0454
  423MOL0     H57080  10.193   5.495   2.553 -0.9600  1.2597 -1.3362
  423MOL0     H57081  10.382   5.451   2.412 -0.7441  1.2658  2.6359
  423MOL0     H57082  10.323   5.301   2.360 -2.4037  0.4641 -0.1989
  423MOL0     H57083  10.364   5.379   2.656  3.5185  1.2656 -1.3532
  423MOL0     H57084  10.334   5.205   2.598 -0.1701 -1.4910 -4.3810
  423MOL0     H57085   9.502   5.297   2.334  0.4867  1.7004 -1.3376
  423MOL0     H57086   9.272   5.319   2.235  0.4218  0.5757  1.1943
  423MOL0     H57087   8.847   5.081   2.335  0.1517  1.3859  1.1975
  423MOL0     H57088   8.598   5.074   2.264 -1.5052 -0.9968 -2.4763
  423MOL0     H57089   7.041   4.784   1.060  0.4418 -0.8763 -0.2357
  423MOL0     H57090   6.950   4.849   0.822  0.5028  0.9744 -0.5511
  423MOL0     H57091   7.154   5.065   0.430  0.2381 -0.7548  0.0244
  423MOL0     H57092   7.119   5.130   0.196 -1.1152  0.7088 -0.4858
  423MOL0     H57093   6.831   4.903  -0.054  1.3413 -3.3314 -0.3724
  423MOL0     H57094   6.973   4.868  -0.151  2.3316  1.1879 -0.1216
  423MOL0     H57095   6.872   5.148  -0.132 -0.8839 -1.2377  2.0563
  423MOL0     H57096   6.811   5.034  -0.258 -0.4086 -1.0386 -0.0410
  423MOL0     H57097   7.023   4.994  -0.353  2.3291  0.6133 -0.2804
  423MOL0     H57098   7.110   5.091  -0.232  2.4029 -2.4935 -4.0355
  423MOL0     H57099   6.988   5.293  -0.327  1.3641 -0.1248 -1.5646
  423MOL0     H57100   7.080   5.208  -0.449 -0.4372 -4.1034 -0.7872
  423MOL0     H57101   6.706   5.139  -0.609 -1.4743  1.6698  1.3607
  423MOL0     H57102   6.905   4.776   0.119  1.1215  0.8912 -1.4398
  423MOL0     H57103   6.882   4.610   0.259 -3.6464 -0.9533  0.5340
  423MOL0     H57104   7.017   4.578   0.372 -1.3325 -1.3183 -0.8314
  423MOL0     H57105   6.866   4.647   0.428  1.3126  1.3981  1.1604
  424MOL0     O57106   2.944  10.431   4.618 -0.4312  0.2791 -0.3420
  424MOL0     C57107   2.900  10.434   4.729  0.2015  0.4459  0.6668
  424MOL0     O57108   2.952  10.371   4.838  0.0141 -0.2158 -0.1758
  424MOL0     C57109   3.079  10.314   4.829  0.0693 -0.4740 -1.2182
  424MOL0     C57110   3.196  10.388   4.841  0.6680 -0.9263  0.5212
  424MOL0     C57111   3.326  10.327   4.836  0.5464 -0.5194 -0.5056
  424MOL0     C57112   3.334  10.189   4.811  0.4205  0.1098 -0.2392
  424MOL0     O57113   3.458  10.129   4.801  0.1573 -0.1030 -0.6528
  424MOL0     C57114   3.466   9.989   4.771 -0.9936 -0.2843  0.2096
  424MOL0     C57115   3.611   9.932   4.773 -0.1289 -0.4564  0.2164
  424MOL0     C57116   3.721  10.014   4.694  0.2363  0.3656 -0.3154
  424MOL0     C57117   3.860   9.958   4.736  0.4338  0.0474 -0.0542
  424MOL0     C57118   3.982  10.055   4.709 -0.5153 -0.1917 -0.2430
  424MOL0     C57119   3.997  10.102   4.569 -0.1740 -0.6770 -0.0845
  424MOL0     C57120   4.127  10.186   4.555  0.0371 -0.3541  0.3558
  424MOL0     C57121   4.129  10.261   4.428 -0.6104  0.8600  0.2769
  424MOL0     N57122   4.236  10.360   4.410 -0.2106  0.2793 -0.3119
  424MOL0     C57123   4.242  10.454   4.313  0.3921 -0.4957 -0.4053
  424MOL0     C57124   4.347  10.536   4.342 -0.3621  0.3568  1.0015
  424MOL0     C57125   4.402  10.646   4.254  0.4145 -0.2066 -0.0011
  424MOL0     C57126   4.530  10.593   4.193 -0.3404  0.0720 -0.6143
  424MOL0     C57127   4.575  10.652   4.058 -0.7683 -0.0787 -0.1491
  424MOL0     C57128   4.691  10.589   3.986 -0.2816  1.1611  0.8711
  424MOL0     O57129   4.731  10.672   3.882 -0.6721  0.2328 -0.2816
  424MOL0     C57130   4.862  10.707   3.889 -0.0253  0.3150  0.2849
  424MOL0     C57131   4.909  10.828   3.932  0.1074  0.1653 -0.5963
  424MOL0     C57132   5.046  10.849   3.946 -0.4503  0.2122 -0.0161
  424MOL0     C57133   5.134  10.749   3.906 -0.9648 -0.6958  0.0864
  424MOL0     C57134   5.278  10.773   3.918 -0.4242  0.5271  0.6844
  424MOL0     O57135   5.328  10.884   3.996 -0.8355  0.2155  0.2374
  424MOL0     C57136   5.465  10.887   4.006 -0.1356 -0.5757  0.3045
  424MOL0     C57137   5.540  10.780   4.045 -0.1036  0.0809 -1.4435
  424MOL0     C57138   5.679  10.806   4.057  0.8324  0.8480  0.6538
  424MOL0     C57139   5.737  10.930   4.023  0.3146 -0.0447 -0.1340
  424MOL0     O57140   5.874  10.933   4.031  0.2044  0.0830  0.3946
  424MOL0     C57141   5.931  11.068   4.017  0.4984 -0.3368  0.3255
  424MOL0     C57142   6.073  11.074   4.062 -0.2302 -0.4804  0.1975
  424MOL0     C57143   6.100  10.996   4.199  0.1457  0.0993  0.0103
  424MOL0     C57144   6.241  11.015   4.257 -0.1587  0.4580  0.0121
  424MOL0     C57145   6.335  10.907   4.212  0.0184  1.0793 -0.5598
  424MOL0     C57146   6.451  10.896   4.311 -0.0327 -0.0038 -0.1132
  424MOL0     C57147   6.559  10.826   4.238  0.2795 -0.0074  0.2926
  424MOL0     C57148   6.665  10.797   4.345  0.3812  0.1332 -0.2029
  424MOL0    Cl57149   6.788  10.678   4.272  0.3456  0.1050  0.3207
  424MOL0     C57150   5.656  11.040   3.980 -0.3022 -0.8505 -1.3005
  424MOL0     C57151   5.519  11.016   3.979 -0.0173  0.1724  0.2292
  424MOL0     O57152   5.347  10.699   3.840  0.3725 -0.0252  0.0252
  424MOL0     C57153   5.088  10.626   3.870 -0.4006 -0.1365 -0.0799
  424MOL0     C57154   4.954  10.603   3.864  0.4261  0.9608  0.3947
  424MOL0     N57155   4.404  10.494   4.457 -0.1014 -0.5676  0.3083
  424MOL0     N57156   4.340  10.387   4.501  0.8636  0.5652  0.2092
  424MOL0     C57157   3.210  10.121   4.812  0.5486 -0.3039  0.2427
  424MOL0     C57158   3.083  10.178   4.811  0.2981  0.6698  0.4724
  424MOL0     C57159   2.775  10.511   4.760  0.7688  0.5781 -0.6507
  424MOL0     C57160   2.753  10.554   4.894  0.3782 -0.8868 -0.0432
  424MOL0     C57161   2.643  10.633   4.931 -0.3914  0.1651  0.5666
  424MOL0     C57162   2.551  10.684   4.839 -0.2351 -0.1275 -0.2059
  424MOL0     O57163   2.449  10.777   4.856  0.0987  0.2830 -1.0038
  424MOL0     C57164   2.413  10.804   4.992 -0.0240 -0.6320 -0.4654
  424MOL0     C57165   2.285  10.887   4.998 -0.5072  0.2562 -0.3679
  424MOL0     C57166   2.154  10.823   4.931  0.5730 -0.6692 -0.4907
  424MOL0     C57167   2.037  10.915   4.940  0.9531 -0.7077 -0.1082
  424MOL0     C57168   1.915  10.852   4.890 -0.7661 -0.4009 -0.4852
  424MOL0     C57169   1.820  10.783   4.849 -0.2167 -0.5461  0.3704
  424MOL0     C57170   2.573  10.653   4.706 -0.0401  0.7227 -0.5231
  424MOL0     C57171   2.680  10.562   4.666  0.1598  0.1107 -0.0554
  424MOL0     C57172   2.699  10.562   4.514  0.3986 -0.3798  0.0582
  424MOL0     H57173   3.196  10.490   4.877  0.7685 -0.7930  0.1453
  424MOL0     H57174   3.415  10.390   4.836 -0.1934  0.5458 -0.4572
  424MOL0     H57175   3.416   9.921   4.840 -1.6990 -0.0834 -0.0939
  424MOL0     H57176   3.428   9.968   4.670  1.0815 -4.0155  0.0581
  424MOL0     H57177   3.609   9.828   4.740 -1.0346 -0.6262  0.7448
  424MOL0     H57178   3.643   9.928   4.877  3.3934 -0.6157 -0.7711
  424MOL0     H57179   3.707  10.112   4.742 -2.9815 -0.3438  0.4661
  424MOL0     H57180   3.700  10.002   4.588 -1.2689 -0.6175  0.0515
  424MOL0     H57181   3.861   9.930   4.842  0.6266  0.9571  0.1889
  424MOL0     H57182   3.873   9.865   4.679 -1.0869  0.4487 -1.1255
  424MOL0     H57183   3.978  10.142   4.776  0.0995  0.4471 -1.0198
  424MOL0     H57184   4.070  10.000   4.743  2.5424  3.9204 -0.7757
  424MOL0     H57185   4.005  10.015   4.504  1.4770  1.8391 -3.5696
  424MOL0     H57186   3.906  10.157   4.547 -1.1980 -2.0752  0.5141
  424MOL0     H57187   4.215  10.121   4.549  1.1717  1.1823 -0.4966
  424MOL0     H57188   4.138  10.253   4.641  1.2685  3.5905 -2.5382
  424MOL0     H57189   4.111  10.192   4.345  1.3661  3.9556 -3.0051
  424MOL0     H57190   4.045  10.329   4.444  0.0390  1.4490  1.2500
  424MOL0     H57191   4.181  10.468   4.225  2.2210 -2.1858 -2.0508
  424MOL0     H57192   4.329  10.670   4.176 -0.5628 -2.0320  0.2877
  424MOL0     H57193   4.418  10.736   4.314  1.1048 -0.1378 -0.2761
  424MOL0     H57194   4.609  10.609   4.268 -2.3370  0.0815  1.6275
  424MOL0     H57195   4.510  10.486   4.189  0.3334 -0.2351  2.0079
  424MOL0     H57196   4.613  10.752   4.082  1.0035 -1.2357  2.2645
  424MOL0     H57197   4.496  10.660   3.983 -0.0092  0.4205 -0.9146
  424MOL0     H57198   4.663  10.492   3.944  4.6573 -0.4224  0.5521
  424MOL0     H57199   4.763  10.574   4.066 -0.5239 -0.6814  0.7810
  424MOL0     H57200   4.837  10.908   3.948  1.3877  1.1930  0.2174
  424MOL0     H57201   5.081  10.941   3.991 -2.9336  2.6712 -2.7033
  424MOL0     H57202   5.491  10.685   4.063 -0.9165  0.1867 -2.9654
  424MOL0     H57203   5.737  10.716   4.075  0.3858  0.6647  1.1884
  424MOL0     H57204   5.919  11.091   3.911 -0.5215 -3.4375 -0.3388
  424MOL0     H57205   5.872  11.131   4.084  2.4679  0.7838  1.0644
  424MOL0     H57206   6.140  11.025   3.990  1.2840 -0.7181  1.6975
  424MOL0     H57207   6.098  11.180   4.075  1.2146 -0.2629 -3.2172
  424MOL0     H57208   6.019  11.021   4.268 -0.3174 -1.7253  0.1563
  424MOL0     H57209   6.080  10.890   4.185 -3.4921  0.7226 -0.5271
  424MOL0     H57210   6.232  11.001   4.365  2.6956  0.9779  0.3873
  424MOL0     H57211   6.290  11.110   4.235  3.2851 -0.0849  4.1571
  424MOL0     H57212   6.370  10.924   4.110  1.0310 -0.9288 -0.6015
  424MOL0     H57213   6.286  10.809   4.204 -0.2776  1.2946 -1.5256
  424MOL0     H57214   6.483  10.996   4.342 -2.4983  0.8476 -0.0480
  424MOL0     H57215   6.411  10.842   4.397  0.0751  1.4476  0.8913
  424MOL0     H57216   6.592  10.886   4.152  1.2982 -2.2231 -0.9339
  424MOL0     H57217   6.524  10.731   4.197  1.3278  1.1736 -3.8190
  424MOL0     H57218   6.707  10.896   4.368  0.5473 -0.3218  1.5495
  424MOL0     H57219   6.632  10.753   4.440  3.6669 -0.9978  0.5475
  424MOL0     H57220   5.699  11.137   3.956  2.2660 -2.2088 -2.5721
  424MOL0     H57221   5.441  11.083   3.942 -1.4261 -2.4381 -1.9399
  424MOL0     H57222   5.145  10.534   3.864  0.1922  0.1940  0.4682
  424MOL0     H57223   4.909  10.506   3.845  1.3465  0.7710 -0.9280
  424MOL0     H57224   3.209  10.013   4.820  0.9169 -0.2707  0.8820
  424MOL0     H57225   2.994  10.120   4.790  0.2476  0.5087  1.1253
  424MOL0     H57226   2.817  10.527   4.978  0.5773  0.2088  0.1659
  424MOL0     H57227   2.636  10.652   5.038 -1.8848  1.2104  0.3137
  424MOL0     H57228   2.486  10.851   5.059 -2.3138  1.5300  0.6537
  424MOL0     H57229   2.388  10.707   5.036  2.9132 -1.5118 -0.5127
  424MOL0     H57230   2.314  10.970   4.932  0.4612  0.1115 -0.1503
  424MOL0     H57231   2.271  10.926   5.099  2.4611 -0.9813  0.6462
  424MOL0     H57232   2.130  10.730   4.983 -1.2588 -0.0926 -0.2179
  424MOL0     H57233   2.172  10.810   4.824  2.4345 -1.2569 -0.1390
  424MOL0     H57234   2.026  10.951   5.043  0.6990  0.1279 -0.4227
  424MOL0     H57235   2.041  11.008   4.883  0.6442 -0.0619  0.8953
  424MOL0     H57236   1.745  10.727   4.796 -0.9947  0.2922  0.5433
  424MOL0     H57237   2.509  10.702   4.633 -0.7563  0.7136  0.0942
  424MOL0     H57238   2.745  10.468   4.482 -1.0193 -1.0066 -0.2237
  424MOL0     H57239   2.607  10.573   4.457  0.8870 -1.4614 -0.9855
  424MOL0     H57240   2.765  10.642   4.480 -2.0174  1.9550  0.5161
  425MOL0     O57241   0.235   7.761   1.650  0.2431  0.4584  0.1850
  425MOL0     C57242   0.174   7.857   1.706  0.1348  0.2320 -1.2089
  425MOL0     O57243   0.189   7.993   1.680 -1.2438 -0.1186 -0.2949
  425MOL0     C57244   0.269   8.018   1.568  0.2196  0.1830  0.1769
  425MOL0     C57245   0.212   8.049   1.446 -0.7469 -0.0029  1.5283
  425MOL0     C57246   0.294   8.099   1.346  0.0442 -0.2886 -0.3664
  425MOL0     C57247   0.432   8.124   1.368 -0.0721  0.2786 -0.0670
  425MOL0     O57248   0.509   8.183   1.267  1.4518  0.2080 -0.1855
  425MOL0     C57249   0.652   8.184   1.265  0.5425 -0.0403  0.3896
  425MOL0     C57250   0.689   8.196   1.117 -0.7657  0.6149 -0.0862
  425MOL0     C57251   0.839   8.199   1.091  0.4524  0.0720 -0.5045
  425MOL0     C57252   0.887   8.213   0.947  0.1650 -0.3615  0.1410
  425MOL0     C57253   1.040   8.198   0.943 -0.1108  0.0970 -0.1134
  425MOL0     C57254   1.098   8.239   0.814  0.0996 -0.6721  0.0239
  425MOL0     C57255   1.244   8.232   0.821 -0.0040  0.8699 -0.0860
  425MOL0     C57256   1.313   8.372   0.803 -0.5995 -0.4777 -0.0056
  425MOL0     N57257   1.462   8.358   0.793 -0.4445  0.3916  0.5005
  425MOL0     C57258   1.528   8.293   0.689  0.1139  0.3609 -0.2934
  425MOL0     C57259   1.658   8.299   0.718 -1.0156  0.0260 -0.1153
  425MOL0     C57260   1.775   8.242   0.633  0.9031 -1.4133 -0.7119
  425MOL0     C57261   1.871   8.359   0.580  0.2735  0.4061 -0.1674
  425MOL0     C57262   2.005   8.366   0.652 -0.8501  0.2222 -0.6300
  425MOL0     C57263   2.101   8.478   0.589 -0.1548 -0.5500 -0.5365
  425MOL0     O57264   2.122   8.447   0.450  0.4564 -0.3532 -0.2085
  425MOL0     C57265   2.249   8.444   0.398 -0.3297 -0.2789 -0.0197
  425MOL0     C57266   2.277   8.353   0.296 -0.4189  0.5953 -0.1257
  425MOL0     C57267   2.407   8.338   0.240  0.4917 -0.1223 -0.7023
  425MOL0     C57268   2.515   8.427   0.280  0.3214 -0.9051 -0.2635
  425MOL0     C57269   2.651   8.438   0.222 -0.7812  0.4709 -0.5791
  425MOL0     O57270   2.744   8.508   0.293  0.3233  0.1908  0.6597
  425MOL0     C57271   2.876   8.501   0.263  0.8550 -0.1325  1.6419
  425MOL0     C57272   2.957   8.604   0.313 -0.7351 -0.0830 -0.3207
  425MOL0     C57273   3.096   8.594   0.296  0.3556 -0.7210 -0.2772
  425MOL0     C57274   3.153   8.495   0.207  0.0879  0.2123 -0.5008
  425MOL0     O57275   3.280   8.499   0.164 -0.0998  0.0863  0.2239
  425MOL0     C57276   3.366   8.396   0.210  0.2862 -0.5032 -0.0681
  425MOL0     C57277   3.510   8.452   0.200  0.9386  0.2587 -0.6600
  425MOL0     C57278   3.618   8.343   0.204 -0.0024  1.0956  0.1546
  425MOL0     C57279   3.755   8.400   0.200  0.2524 -0.2741  0.0371
  425MOL0     C57280   3.867   8.290   0.204  0.7283 -1.3066  0.1603
  425MOL0     C57281   4.004   8.350   0.162 -0.1156  0.0041  0.2286
  425MOL0     C57282   4.123   8.249   0.151 -0.2116  0.5672 -0.9417
  425MOL0     C57283   4.250   8.339   0.163  0.3632 -0.0483 -1.1313
  425MOL0    Cl57284   4.408   8.250   0.166 -0.3746  0.2817  0.1491
  425MOL0     C57285   3.071   8.400   0.150  0.6715  0.6129 -0.3356
  425MOL0     C57286   2.929   8.399   0.184 -0.1280 -0.4397 -0.2138
  425MOL0     O57287   2.667   8.390   0.106  0.4498 -0.2054 -0.1176
  425MOL0     C57288   2.482   8.528   0.377  0.5975  0.4636  0.8363
  425MOL0     C57289   2.352   8.525   0.434 -0.8899  0.5524  0.8785
  425MOL0     N57290   1.669   8.370   0.839 -0.0028  1.0418  0.4933
  425MOL0     N57291   1.553   8.415   0.876 -0.1874  0.6600 -0.1331
  425MOL0     C57292   0.489   8.086   1.492  0.8542 -0.0150  0.2536
  425MOL0     C57293   0.405   8.030   1.590  0.3187 -0.6514  0.2260
  425MOL0     C57294   0.074   7.816   1.808 -0.8614  0.9036  0.0131
  425MOL0     C57295   0.112   7.734   1.917  0.1995  0.0799 -0.3988
  425MOL0     C57296   0.019   7.717   2.017  0.2996 -0.0731 -0.3368
  425MOL0     C57297  -0.112   7.771   2.010  0.8018  0.3015  0.6223
  425MOL0     O57298  -0.209   7.763   2.109  0.5896 -0.3155  0.2458
  425MOL0     C57299  -0.229   7.637   2.163 -0.6515 -0.3451  0.2119
  425MOL0     C57300  -0.352   7.570   2.107  0.1075  0.4844  0.3182
  425MOL0     C57301  -0.382   7.444   2.190  0.5376 -0.0107  0.1029
  425MOL0     C57302  -0.525   7.377   2.149  0.5717  0.0738 -0.2904
  425MOL0     C57303  -0.564   7.254   2.226  0.1855  0.1461  0.4017
  425MOL0     C57304  -0.598   7.164   2.302 -1.1977 -0.5735  0.0703
  425MOL0     C57305  -0.142   7.840   1.892  0.1833  0.0889  0.2186
  425MOL0     C57306  -0.056   7.867   1.785  0.6330  0.8070 -0.1135
  425MOL0     C57307  -0.108   7.931   1.660  0.2875 -0.3043 -0.2039
  425MOL0     H57308   0.106   8.040   1.423 -0.4140  1.6491 -1.0273
  425MOL0     H57309   0.252   8.133   1.251  3.3017 -0.8718 -2.1701
  425MOL0     H57310   0.688   8.271   1.322 -0.3468 -0.3877  1.5190
  425MOL0     H57311   0.690   8.097   1.319 -3.4589 -2.2920 -0.0494
  425MOL0     H57312   0.645   8.288   1.078 -0.4120  1.4642  1.4646
  425MOL0     H57313   0.653   8.102   1.072 -0.7398 -0.9265  2.8792
  425MOL0     H57314   0.881   8.106   1.130  0.2413 -0.0930 -0.6745
  425MOL0     H57315   0.876   8.276   1.159  0.0713 -1.5333  1.6504
  425MOL0     H57316   0.848   8.139   0.877  0.4580  0.8418 -1.3221
  425MOL0     H57317   0.854   8.313   0.917 -3.4633 -0.2115  3.7008
  425MOL0     H57318   1.070   8.260   1.028 -0.3738 -0.4802  0.4077
  425MOL0     H57319   1.059   8.092   0.959 -3.4288 -0.4527  1.1517
  425MOL0     H57320   1.061   8.174   0.734  0.1927  1.1999 -1.6350
  425MOL0     H57321   1.065   8.340   0.788  2.7422 -0.1806 -1.9197
  425MOL0     H57322   1.274   8.163   0.742 -1.7089  1.0422 -0.9492
  425MOL0     H57323   1.273   8.183   0.914 -0.7432  0.3328 -0.1269
  425MOL0     H57324   1.280   8.429   0.716 -0.2630  2.0234  1.4130
  425MOL0     H57325   1.287   8.438   0.886 -1.1723  1.4268 -1.6277
  425MOL0     H57326   1.477   8.247   0.605 -1.1759  3.6351 -1.4415
  425MOL0     H57327   1.829   8.162   0.684  0.2812 -2.0185 -0.9801
  425MOL0     H57328   1.731   8.190   0.547 -1.3230 -0.6534 -0.1013
  425MOL0     H57329   1.881   8.356   0.472 -1.0767  0.9849 -0.3373
  425MOL0     H57330   1.809   8.445   0.608  0.2569  0.3667 -0.0831
  425MOL0     H57331   2.060   8.272   0.640  0.5480  1.0980 -1.5098
  425MOL0     H57332   1.991   8.379   0.760 -1.7816 -0.4399 -0.6619
  425MOL0     H57333   2.195   8.485   0.644 -0.8101 -0.3361  0.5857
  425MOL0     H57334   2.050   8.571   0.613 -0.7965 -1.3177  1.2423
  425MOL0     H57335   2.200   8.289   0.254  2.0387 -1.2611 -2.1901
  425MOL0     H57336   2.422   8.263   0.164  0.4993 -1.7516  0.8349
  425MOL0     H57337   2.917   8.690   0.365 -1.4826 -0.3092 -0.5142
  425MOL0     H57338   3.163   8.670   0.336 -2.3968  1.1279  1.1579
  425MOL0     H57339   3.341   8.371   0.313  0.5095  3.4901  1.1221
  425MOL0     H57340   3.357   8.308   0.145  1.3308  0.6137 -1.8077
  425MOL0     H57341   3.532   8.509   0.110  2.9265  1.2809  0.4146
  425MOL0     H57342   3.531   8.514   0.287 -0.4131 -1.4403  0.9836
  425MOL0     H57343   3.607   8.284   0.295  0.1398  1.2319  0.2613
  425MOL0     H57344   3.606   8.273   0.120 -0.6510  0.2472  0.9367
  425MOL0     H57345   3.765   8.467   0.286 -0.2720 -2.1358  1.6144
  425MOL0     H57346   3.760   8.459   0.108 -3.0248  0.8173  0.3900
  425MOL0     H57347   3.852   8.209   0.132  1.5558 -0.9689 -0.4119
  425MOL0     H57348   3.867   8.243   0.302  2.8619 -1.3186  0.2041
  425MOL0     H57349   3.999   8.401   0.065  2.0606 -0.5413 -0.2346
  425MOL0     H57350   4.018   8.425   0.240 -1.3000 -0.0555  0.5016
  425MOL0     H57351   4.108   8.196   0.057 -0.6798  0.4522 -0.8041
  425MOL0     H57352   4.118   8.176   0.234  2.3048 -0.1368 -1.3231
  425MOL0     H57353   4.254   8.408   0.078  3.2068 -1.7523 -2.5396
  425MOL0     H57354   4.246   8.403   0.252  0.6368  0.3057 -1.3706
  425MOL0     H57355   3.110   8.318   0.091  0.7390  2.1636 -2.5759
  425MOL0     H57356   2.872   8.308   0.167  0.0047 -0.3735 -1.0226
  425MOL0     H57357   2.552   8.604   0.408  0.7887  1.2136 -1.2765
  425MOL0     H57358   2.335   8.590   0.519 -2.2222 -1.9235  2.6278
  425MOL0     H57359   0.593   8.088   1.520  0.7307 -0.6185  0.7565
  425MOL0     H57360   0.443   8.000   1.687 -1.0402 -1.8149  0.4333
  425MOL0     H57361   0.209   7.685   1.919  0.1966 -0.0104 -1.4515
  425MOL0     H57362   0.040   7.654   2.103 -0.4123  0.5601  0.3224
  425MOL0     H57363  -0.241   7.650   2.271 -3.1863  2.8534 -0.3058
  425MOL0     H57364  -0.141   7.571   2.155  0.3171  1.0860 -2.1169
  425MOL0     H57365  -0.330   7.550   2.001  1.7069  2.2059  0.2857
  425MOL0     H57366  -0.441   7.633   2.099 -1.5092 -1.8531 -2.1474
  425MOL0     H57367  -0.383   7.468   2.296 -0.1233 -2.4400  0.7193
  425MOL0     H57368  -0.307   7.365   2.186 -0.4897 -0.9765 -1.9002
  425MOL0     H57369  -0.611   7.444   2.164  1.4481  1.8151 -2.3910
  425MOL0     H57370  -0.528   7.343   2.046  1.1232 -1.0489  0.0514
  425MOL0     H57371  -0.627   7.095   2.379  0.4955 -1.4161  0.0062
  425MOL0     H57372  -0.237   7.894   1.892  1.9341  3.4367  0.4254
  425MOL0     H57373  -0.210   7.901   1.632  0.6877 -2.4746  0.4824
  425MOL0     H57374  -0.105   8.040   1.670 -2.0636  0.3422 -4.0682
  425MOL0     H57375  -0.054   7.912   1.567 -0.9111  2.7315 -1.6567
  426MOL0     O57376   7.106  10.041   6.985 -1.1436 -0.2416  0.0279
  426MOL0     C57377   7.073   9.925   6.981 -0.8023  0.5255  0.8530
  426MOL0     O57378   7.152   9.827   6.927 -0.0439  0.5955 -0.7500
  426MOL0     C57379   7.279   9.850   6.882  0.4520 -0.0559  0.4678
  426MOL0     C57380   7.300   9.886   6.753  0.2578  0.5030 -0.1001
  426MOL0     C57381   7.436   9.912   6.712 -0.5816 -0.2244 -0.5128
  426MOL0     C57382   7.554   9.901   6.790 -0.5354  0.6763 -0.3351
  426MOL0     O57383   7.674   9.918   6.725 -0.1220  0.3420  0.9357
  426MOL0     C57384   7.796   9.900   6.795 -0.3304  0.5422  0.2876
  426MOL0     C57385   7.900   9.974   6.698  0.0899 -0.2516  0.3718
  426MOL0     C57386   8.028  10.009   6.768  0.4831 -0.5321  0.2108
  426MOL0     C57387   8.107  10.109   6.675  1.2247 -0.7511 -0.5568
  426MOL0     C57388   8.243  10.119   6.737 -0.1089 -0.1386 -0.3422
  426MOL0     C57389   8.347  10.219   6.671 -0.5744  0.0710  1.3013
  426MOL0     C57390   8.475  10.221   6.751 -0.5192 -0.0345 -0.5217
  426MOL0     C57391   8.605  10.204   6.681 -0.8723  0.1514 -0.2230
  426MOL0     N57392   8.718  10.223   6.771  0.3276 -0.3886  0.0565
  426MOL0     C57393   8.788  10.342   6.777 -0.9549 -0.4785  0.1194
  426MOL0     C57394   8.874  10.319   6.881  0.1594  0.7268 -0.3977
  426MOL0     C57395   8.955  10.428   6.945 -1.0776 -0.6229  0.8158
  426MOL0     C57396   9.103  10.413   6.913 -0.3791 -0.3668 -0.1886
  426MOL0     C57397   9.179  10.343   7.026 -0.5901 -0.1489 -0.5175
  426MOL0     C57398   9.330  10.364   7.009  0.0641 -0.5732  0.2167
  426MOL0     O57399   9.372  10.493   7.054 -0.3780 -0.8414 -0.0714
  426MOL0     C57400   9.508  10.514   7.054  0.5925  0.4809  0.4175
  426MOL0     C57401   9.551  10.630   7.110  0.1990 -0.4100  0.0888
  426MOL0     C57402   9.687  10.664   7.116 -0.2077  0.5313  0.3415
  426MOL0     C57403   9.788  10.570   7.063 -0.4881  0.2366  0.4191
  426MOL0     C57404   9.937  10.591   7.086  0.1185  0.1009 -0.3152
  426MOL0     O57405  10.019  10.497   7.040 -0.7590 -0.3399  0.8661
  426MOL0     C57406  10.150  10.525   7.044 -0.3348 -0.7317  0.7123
  426MOL0     C57407  10.224  10.612   6.956  0.7249 -0.7053  0.1199
  426MOL0     C57408  10.363  10.621   6.958  0.4178  0.2524 -0.0814
  426MOL0     C57409  10.440  10.543   7.044  0.8003  0.5944  0.0534
  426MOL0     O57410  10.580  10.547   7.033 -0.0476  0.3266  0.0557
  426MOL0     C57411  10.650  10.492   7.145 -0.2462  0.2859 -0.6524
  426MOL0     C57412  10.796  10.537   7.128 -0.2288  0.9726 -0.5978
  426MOL0     C57413  10.887  10.493   7.246  0.3163 -0.0920 -0.2469
  426MOL0     C57414  11.016  10.572   7.229 -0.2069  0.3626  0.0863
  426MOL0     C57415  11.120  10.489   7.146 -0.4097  0.0798  0.8585
  426MOL0     C57416  11.266  10.533   7.152 -0.1017 -0.3686  0.0469
  426MOL0     C57417  11.362  10.422   7.089  0.4736 -0.4109  0.0035
  426MOL0     C57418  11.498  10.475   7.089 -0.5845 -0.1635 -0.4122
  426MOL0    Cl57419  11.610  10.345   7.043 -0.1460  0.0980 -0.1709
  426MOL0     C57420  10.366  10.463   7.132  0.2302  0.4727  0.0288
  426MOL0     C57421  10.227  10.452   7.131  1.2894 -0.1217  0.6498
  426MOL0     O57422   9.968  10.692   7.152 -0.8334  0.0927 -0.2003
  426MOL0     C57423   9.737  10.451   7.006 -0.3564 -0.3719  0.4199
  426MOL0     C57424   9.600  10.420   6.997  0.2981  0.0482  0.6745
  426MOL0     N57425   8.866  10.191   6.922  0.7195 -0.6070  0.2535
  426MOL0     N57426   8.768  10.131   6.859  0.3777 -0.1066 -0.0695
  426MOL0     C57427   7.531   9.868   6.927  0.6145  0.1191  0.1154
  426MOL0     C57428   7.392   9.835   6.965 -0.2289 -0.0573 -0.3141
  426MOL0     C57429   6.932   9.890   7.021 -0.6183  0.1920  0.1317
  426MOL0     C57430   6.893   9.754   7.017  0.0184  0.3485 -0.4367
  426MOL0     C57431   6.763   9.720   7.057  0.1123  0.5090 -1.3551
  426MOL0     C57432   6.671   9.805   7.108  0.4922  0.2192 -0.0712
  426MOL0     O57433   6.543   9.755   7.121 -0.1275 -0.3743  0.3383
  426MOL0     C57434   6.428   9.839   7.161  0.0491  0.2672  0.2689
  426MOL0     C57435   6.320   9.747   7.207  0.8378 -0.6450 -0.1107
  426MOL0     C57436   6.184   9.818   7.258  0.1484 -0.3387  0.1850
  426MOL0     C57437   6.069   9.723   7.258  0.7337  0.0671  0.6825
  426MOL0     C57438   5.946   9.781   7.309 -0.6279 -0.2430 -0.6656
  426MOL0     C57439   5.849   9.838   7.351  0.0798  0.2599 -0.4391
  426MOL0     C57440   6.701   9.939   7.105 -0.8138  0.5520  0.1076
  426MOL0     C57441   6.832   9.981   7.062  0.7304 -0.3126 -0.3318
  426MOL0     C57442   6.857  10.126   7.086 -0.3094 -0.7320  0.2555
  426MOL0     H57443   7.220   9.902   6.682  2.5926  1.9216 -2.5847
  426MOL0     H57444   7.431   9.947   6.610 -1.1779  1.6563  0.1197
  426MOL0     H57445   7.793   9.959   6.887 -1.6436 -0.8779  1.2076
  426MOL0     H57446   7.828   9.798   6.818 -0.9773  0.4295  0.7071
  426MOL0     H57447   7.845  10.063   6.666 -1.5157 -0.9127  1.1254
  426MOL0     H57448   7.913   9.902   6.617 -4.6129 -1.7276  0.6290
  426MOL0     H57449   8.087   9.921   6.793  1.3695 -0.1810 -0.5952
  426MOL0     H57450   8.015  10.067   6.860 -0.2670  3.5236 -2.1906
  426MOL0     H57451   8.110  10.070   6.573 -2.0981 -0.9260 -0.6850
  426MOL0     H57452   8.059  10.207   6.669  0.1976 -1.2838 -1.3095
  426MOL0     H57453   8.223  10.147   6.841 -3.7759 -1.9689 -0.3602
  426MOL0     H57454   8.285  10.018   6.740 -1.1872 -0.6014  0.0401
  426MOL0     H57455   8.373  10.188   6.569 -1.1739  0.4728  1.0101
  426MOL0     H57456   8.299  10.316   6.650 -1.0643  0.2892  3.2488
  426MOL0     H57457   8.461  10.160   6.841  0.6788 -0.4175 -0.5662
  426MOL0     H57458   8.483  10.321   6.793 -0.1820 -0.6237  0.8605
  426MOL0     H57459   8.612  10.101   6.643  1.1304  0.7615 -1.6409
  426MOL0     H57460   8.616  10.275   6.599  1.8712  2.0004  1.6018
  426MOL0     H57461   8.769  10.437   6.729 -2.2517 -1.0214 -0.5012
  426MOL0     H57462   8.915  10.520   6.903  0.6377 -0.0891  0.2353
  426MOL0     H57463   8.937  10.428   7.052  0.9540 -1.5650  1.2235
  426MOL0     H57464   9.123  10.347   6.828  0.1291  0.4893 -0.7520
  426MOL0     H57465   9.150  10.510   6.896  0.2116 -0.5552  0.3222
  426MOL0     H57466   9.146  10.240   7.011 -2.5827  0.7119 -2.6408
  426MOL0     H57467   9.137  10.378   7.120 -2.1252  2.0737 -1.9561
  426MOL0     H57468   9.350  10.359   6.901 -0.7147  2.2344 -0.1398
  426MOL0     H57469   9.387  10.286   7.061  1.9893 -1.8057 -3.3717
  426MOL0     H57470   9.476  10.701   7.141  0.8037  0.6960 -0.8976
  426MOL0     H57471   9.728  10.759   7.152 -0.1562  0.5001  0.3666
  426MOL0     H57472  10.179  10.685   6.890  1.1688  0.3957  0.9931
  426MOL0     H57473  10.414  10.687   6.888  0.9755  0.9605  0.9637
  426MOL0     H57474  10.607  10.524   7.240  0.7656 -0.5876  0.1306
  426MOL0     H57475  10.633  10.385   7.130 -3.2618  0.2613  1.9721
  426MOL0     H57476  10.835  10.485   7.041  0.8340 -1.0392  1.0090
  426MOL0     H57477  10.794  10.645   7.110 -3.3675  0.7866 -1.9732
  426MOL0     H57478  10.839  10.521   7.340  0.0823  0.8832 -0.6419
  426MOL0     H57479  10.901  10.386   7.228  1.4119 -0.1796  1.0194
  426MOL0     H57480  11.059  10.579   7.329  0.5214  1.4465 -0.2757
  426MOL0     H57481  11.009  10.674   7.190  0.0604 -0.8218 -3.4877
  426MOL0     H57482  11.090  10.486   7.041 -2.4762  1.1452  1.3616
  426MOL0     H57483  11.114  10.387   7.185 -1.2382 -0.4761 -0.6460
  426MOL0     H57484  11.286  10.616   7.083  1.6060  0.0951  1.0601
  426MOL0     H57485  11.288  10.561   7.255 -2.1513 -0.5119  0.5753
  426MOL0     H57486  11.342  10.415   6.981  2.3956  1.7144 -0.5537
  426MOL0     H57487  11.343  10.331   7.148 -1.6079  0.6678  1.1150
  426MOL0     H57488  11.511  10.553   7.014  0.8727  0.4063  0.3923
  426MOL0     H57489  11.528  10.505   7.190 -4.4207  1.0107  0.5063
  426MOL0     H57490  10.426  10.404   7.200  3.1624  2.3582 -0.7374
  426MOL0     H57491  10.181  10.379   7.196 -0.5991  0.1582 -0.2913
  426MOL0     H57492   9.808  10.383   6.960 -0.3488 -0.3288  0.3662
  426MOL0     H57493   9.573  10.324   6.954 -0.3925  0.2167  0.7363
  426MOL0     H57494   7.621   9.843   6.983 -0.4835  1.4619  2.6291
  426MOL0     H57495   7.367   9.799   7.065 -4.4176  1.0465 -0.7842
  426MOL0     H57496   6.968   9.679   6.997  0.5179  0.9684 -0.9450
  426MOL0     H57497   6.728   9.617   7.065  0.9905  0.3179  0.4524
  426MOL0     H57498   6.398   9.907   7.081  1.1068  1.0963  0.5456
  426MOL0     H57499   6.461   9.914   7.233  0.8640  1.1781 -1.0169
  426MOL0     H57500   6.357   9.676   7.281 -1.3245 -0.0290  1.6484
  426MOL0     H57501   6.294   9.685   7.121  0.0579  1.3915 -1.4189
  426MOL0     H57502   6.163   9.902   7.192  1.2367 -0.6788 -0.6271
  426MOL0     H57503   6.214   9.863   7.353  1.2904  0.2343 -0.4236
  426MOL0     H57504   6.045   9.702   7.153 -1.0253  1.3464  0.7795
  426MOL0     H57505   6.085   9.637   7.322 -0.3087  0.8443  2.0372
  426MOL0     H57506   5.754   9.885   7.364  0.9147  1.5022  1.7307
  426MOL0     H57507   6.632  10.015   7.137 -0.4423  1.3238 -0.8716
  426MOL0     H57508   6.932  10.133   7.166  1.0239 -1.6137 -0.8708
  426MOL0     H57509   6.899  10.190   7.008  0.6752 -1.5974  0.0516
  426MOL0     H57510   6.768  10.183   7.114 -1.5313 -1.6558 -1.5005
  427MOL0     O57511  10.821  10.379   1.351  0.4661  0.0185  0.4578
  427MOL0     C57512  10.741  10.422   1.435 -0.1723  0.2210  0.7566
  427MOL0     O57513  10.774  10.498   1.543  0.5089 -0.1717 -0.1503
  427MOL0     C57514  10.905  10.522   1.582  0.1967  0.7627 -0.9825
  427MOL0     C57515  11.016  10.553   1.497  0.1757  1.1540  0.4332
  427MOL0     C57516  11.141  10.572   1.550 -0.4243 -0.1083  0.1973
  427MOL0     C57517  11.153  10.562   1.690 -0.1245  0.1399 -0.6754
  427MOL0     O57518  11.281  10.553   1.745 -0.7350  0.4330  0.1932
  427MOL0     C57519  11.394  10.542   1.657  0.7992  0.7259  0.0581
  427MOL0     C57520  11.512  10.488   1.729 -0.9116 -0.0222  0.2332
  427MOL0     C57521  11.641  10.507   1.655 -0.0608 -0.1078  1.0210
  427MOL0     C57522  11.759  10.460   1.741  0.7699  0.0771 -0.2532
  427MOL0     C57523  11.895  10.462   1.666  0.4391 -0.6539 -0.2181
  427MOL0     C57524  11.999  10.559   1.718  1.1069 -0.6628 -0.0274
  427MOL0     C57525  12.106  10.581   1.611 -0.6825  0.2786 -0.0105
  427MOL0     C57526  12.171  10.442   1.569  0.1606  0.9492  0.3478
  427MOL0     N57527  12.289  10.469   1.496 -0.4416 -0.3862 -0.2103
  427MOL0     C57528  12.283  10.501   1.365  0.8503 -0.0011 -0.1036
  427MOL0     C57529  12.413  10.502   1.322  0.2021  0.4478  0.0907
  427MOL0     C57530  12.464  10.526   1.183  0.8094  0.4449 -0.0146
  427MOL0     C57531  12.583  10.435   1.150 -0.2995  0.1148  0.5066
  427MOL0     C57532  12.641  10.471   1.009 -0.2336  0.1757 -0.0716
  427MOL0     C57533  12.757  10.374   0.975 -0.5018 -0.3080 -0.6150
  427MOL0     O57534  12.869  10.392   1.061 -0.3811 -0.3061  0.3796
  427MOL0     C57535  12.991  10.335   1.027 -0.2965 -0.6143 -0.1829
  427MOL0     C57536  13.032  10.271   0.915 -0.7086 -0.4877 -0.4192
  427MOL0     C57537  13.158  10.206   0.905 -0.2901  0.3163  0.6052
  427MOL0     C57538  13.251  10.208   1.005  0.0318 -0.1473 -0.8494
  427MOL0     C57539  13.379  10.149   1.005 -1.4368 -0.2255  0.5414
  427MOL0     O57540  13.446  10.150   1.117 -0.2579  0.1621  0.2503
  427MOL0     C57541  13.566  10.083   1.121  0.3056  0.0781  0.8880
  427MOL0     C57542  13.579   9.959   1.190  0.5639  0.2190 -0.2633
  427MOL0     C57543  13.696   9.886   1.172  0.0280  0.3633 -0.6005
  427MOL0     C57544  13.805   9.949   1.117 -0.1258  0.0212 -0.1009
  427MOL0     O57545  13.932   9.904   1.118  0.5149  0.2621 -0.4345
  427MOL0     C57546  13.961   9.777   1.177  1.0575 -0.4439  0.4918
  427MOL0     C57547  14.114   9.762   1.164 -0.0105 -0.3898  0.7778
  427MOL0     C57548  14.165   9.626   1.221 -0.2462  0.5145 -0.8972
  427MOL0     C57549  14.159   9.597   1.380  0.0580  0.3562  0.1464
  427MOL0     C57550  14.169   9.446   1.396 -0.2468  1.3226  0.5285
  427MOL0     C57551  14.304   9.376   1.346  0.1097 -0.0147 -0.6326
  427MOL0     C57552  14.295   9.226   1.367  0.3774 -0.3456 -0.5714
  427MOL0     C57553  14.424   9.157   1.350 -1.5245 -0.6361  0.4657
  427MOL0    Cl57554  14.471   9.001   1.427 -0.3753  0.1916 -0.7568
  427MOL0     C57555  13.790  10.071   1.051  0.2878 -0.5693  0.2282
  427MOL0     C57556  13.669  10.126   1.040 -0.3726 -0.7769 -0.2980
  427MOL0     O57557  13.414  10.091   0.905 -0.0181 -0.0680  0.3007
  427MOL0     C57558  13.206  10.269   1.128 -0.5550 -0.2538  0.9198
  427MOL0     C57559  13.086  10.332   1.128  0.5626  1.3190 -0.2490
  427MOL0     N57560  12.495  10.462   1.423  0.1829  0.6861  0.0569
  427MOL0     N57561  12.421  10.437   1.523 -0.0625  0.1276 -0.4742
  427MOL0     C57562  11.047  10.542   1.777 -0.6647 -0.0902  0.0837
  427MOL0     C57563  10.924  10.528   1.714 -0.2500  0.5103 -0.3767
  427MOL0     C57564  10.600  10.396   1.410  0.4727 -0.1416  0.2681
  427MOL0     C57565  10.561  10.336   1.291  0.4367 -0.1260 -0.8591
  427MOL0     C57566  10.426  10.306   1.262 -0.6464 -0.3959 -0.4503
  427MOL0     C57567  10.329  10.333   1.361 -0.1894 -0.1198 -0.3598
  427MOL0     O57568  10.201  10.313   1.348  0.0585 -0.2397 -0.7568
  427MOL0     C57569  10.142  10.256   1.232 -0.0082  0.0142  0.8357
  427MOL0     C57570   9.986  10.271   1.247 -0.0048 -0.9601  0.4125
  427MOL0     C57571   9.951  10.185   1.363 -0.3895  0.1285  0.1837
  427MOL0     C57572   9.804  10.175   1.388 -0.5508 -0.0870  0.0138
  427MOL0     C57573   9.734  10.125   1.274 -0.0574 -0.2696  0.2584
  427MOL0     C57574   9.675  10.095   1.176  0.8727 -0.2167  0.2219
  427MOL0     C57575  10.363  10.397   1.486  0.5200  0.7118 -0.6660
  427MOL0     C57576  10.498  10.417   1.512 -0.3037  0.0883 -0.4685
  427MOL0     C57577  10.521  10.498   1.643  0.5490 -0.3976 -0.4223
  427MOL0     H57578  10.996  10.542   1.391 -0.7047  0.9669  0.6110
  427MOL0     H57579  11.227  10.595   1.488  0.8012  2.1058  2.5679
  427MOL0     H57580  11.378  10.469   1.578  1.2645  1.3477 -0.6174
  427MOL0     H57581  11.412  10.641   1.614  2.1732  0.3175 -0.3698
  427MOL0     H57582  11.496  10.380   1.735  0.9441 -0.3959 -0.8701
  427MOL0     H57583  11.522  10.535   1.827 -0.2061  0.7610 -0.2020
  427MOL0     H57584  11.658  10.607   1.615  1.6403 -0.5716  0.4669
  427MOL0     H57585  11.651  10.445   1.566  1.3501  2.2007 -0.5357
  427MOL0     H57586  11.757  10.512   1.837  0.9671 -2.6606  1.3424
  427MOL0     H57587  11.734  10.358   1.773  0.4116 -0.2452 -1.5087
  427MOL0     H57588  11.930  10.358   1.672 -2.2766 -1.5806  1.1096
  427MOL0     H57589  11.885  10.490   1.561  0.7648  0.7537  0.1063
  427MOL0     H57590  11.951  10.657   1.718  2.1778 -0.1285 -0.1055
  427MOL0     H57591  12.032  10.530   1.818 -1.6382 -0.2705  1.0714
  427MOL0     H57592  12.182  10.650   1.648  1.0143 -1.4331 -0.1708
  427MOL0     H57593  12.065  10.622   1.518 -1.5463 -3.0204 -1.2221
  427MOL0     H57594  12.197  10.374   1.650  2.2703  1.9570  0.5863
  427MOL0     H57595  12.097  10.383   1.515  2.7846 -1.3063 -1.0261
  427MOL0     H57596  12.197  10.530   1.306  1.6313  3.4662  0.2783
  427MOL0     H57597  12.387  10.491   1.113  0.9908 -1.0343  0.4801
  427MOL0     H57598  12.474  10.633   1.165  0.2339  0.2130 -2.0321
  427MOL0     H57599  12.666  10.437   1.220  0.8480  1.6821 -0.8306
  427MOL0     H57600  12.555  10.329   1.152  1.0634 -0.2716 -0.0334
  427MOL0     H57601  12.681  10.573   1.019  1.0913 -0.5140  2.8471
  427MOL0     H57602  12.552  10.471   0.945  0.3815  1.6522 -0.9727
  427MOL0     H57603  12.777  10.406   0.872  0.7727 -0.3404 -0.3938
  427MOL0     H57604  12.721  10.271   0.986 -1.3064  0.2272  2.7544
  427MOL0     H57605  12.956  10.260   0.837 -0.3294  1.9353 -1.2196
  427MOL0     H57606  13.187  10.150   0.817  0.6006 -0.1323  1.1659
  427MOL0     H57607  13.493   9.923   1.246  1.7388  0.1053  1.5659
  427MOL0     H57608  13.704   9.785   1.210  2.2861  0.7064  0.0320
  427MOL0     H57609  13.926   9.773   1.280 -0.1719 -2.2473  0.0331
  427MOL0     H57610  13.895   9.710   1.121 -0.9751  0.2574  1.9401
  427MOL0     H57611  14.124   9.759   1.055 -2.8850 -0.5717  0.4399
  427MOL0     H57612  14.167   9.848   1.206  0.1702 -0.2312  0.2345
  427MOL0     H57613  14.126   9.537   1.172  1.5702  1.1830 -3.7758
  427MOL0     H57614  14.267   9.640   1.184  1.0518 -0.9175  1.8110
  427MOL0     H57615  14.066   9.620   1.431  0.3303 -0.5536  1.1036
  427MOL0     H57616  14.240   9.651   1.430 -1.8415  0.7113  3.0585
  427MOL0     H57617  14.082   9.398   1.351  0.4774  3.0525 -3.0773
  427MOL0     H57618  14.169   9.430   1.505  1.1161  3.0205  0.8337
  427MOL0     H57619  14.323   9.409   1.244  0.2616 -0.5697 -0.7859
  427MOL0     H57620  14.381   9.424   1.408 -0.7662  1.7388 -0.8305
  427MOL0     H57621  14.226   9.184   1.294  1.4249  0.2791 -1.9672
  427MOL0     H57622  14.264   9.207   1.470  0.1705  0.4733 -0.4707
  427MOL0     H57623  14.426   9.136   1.242 -3.2543  2.6244 -0.3288
  427MOL0     H57624  14.498   9.237   1.364 -4.4521  1.9348  2.5168
  427MOL0     H57625  13.879  10.121   1.015 -0.5922  2.3475  1.7764
  427MOL0     H57626  13.661  10.199   0.960  2.4894  0.7754  0.6727
  427MOL0     H57627  13.271  10.285   1.214  0.9214  1.0498 -0.3720
  427MOL0     H57628  13.063  10.381   1.222  0.0060  0.8534 -0.1360
  427MOL0     H57629  11.069  10.534   1.883  2.9047 -1.4681 -0.6237
  427MOL0     H57630  10.837  10.514   1.778  0.5430  1.7987  1.0650
  427MOL0     H57631  10.633  10.311   1.214  0.6866  3.5446 -2.0029
  427MOL0     H57632  10.390  10.290   1.161 -0.0742  3.3311 -1.3741
  427MOL0     H57633  10.165  10.152   1.210  0.9836  0.6652 -1.6151
  427MOL0     H57634  10.176  10.314   1.145  1.0373  1.8327  2.3634
  427MOL0     H57635   9.937  10.234   1.157  0.8303  0.1974 -0.5529
  427MOL0     H57636   9.964  10.378   1.258 -0.7116 -0.9894 -0.6119
  427MOL0     H57637  10.007  10.227   1.447  1.5779  1.9159 -1.9294
  427MOL0     H57638   9.990  10.083   1.352 -1.8728 -0.4866  0.2985
  427MOL0     H57639   9.783  10.109   1.473 -2.6166  0.5939  0.0898
  427MOL0     H57640   9.771  10.275   1.416 -0.9090 -0.7486  2.1457
  427MOL0     H57641   9.619  10.069   1.088  0.4957 -0.1842  0.4541
  427MOL0     H57642  10.283  10.408   1.559  2.4115 -2.9503  2.3140
  427MOL0     H57643  10.434  10.487   1.709 -0.9723  0.3519 -2.2175
  427MOL0     H57644  10.605  10.468   1.706  1.2343  0.2318 -1.0314
  427MOL0     H57645  10.537  10.603   1.617  1.0527 -0.7413 -1.5619
  428MOL0     O57646   4.356   2.935   3.058 -0.4673 -0.3938  0.2184
  428MOL0     C57647   4.369   2.815   3.055 -0.1338  0.5641 -0.6371
  428MOL0     O57648   4.492   2.749   3.067  0.1738 -0.2786 -0.0495
  428MOL0     C57649   4.612   2.821   3.095  0.1090  0.7037 -0.3497
  428MOL0     C57650   4.722   2.780   3.013  0.7143  0.8453  0.8731
  428MOL0     C57651   4.835   2.855   3.012  0.2368 -0.5903 -0.1646
  428MOL0     C57652   4.843   2.975   3.087 -0.4819  0.1109  0.2743
  428MOL0     O57653   4.959   3.052   3.107 -0.9597 -0.3505  0.0215
  428MOL0     C57654   5.066   3.021   3.012  0.3929 -0.0891 -0.1536
  428MOL0     C57655   5.176   3.126   3.042  0.3675  0.9216  0.4372
  428MOL0     C57656   5.314   3.100   2.991 -0.3464  0.2551 -0.4912
  428MOL0     C57657   5.417   3.211   3.017  0.1459  0.4312  0.3526
  428MOL0     C57658   5.556   3.163   2.966  0.3594  0.2788 -0.0896
  428MOL0     C57659   5.658   3.271   2.955  0.0003  0.7832 -0.3870
  428MOL0     C57660   5.683   3.353   3.086  0.2747 -0.6085  0.0330
  428MOL0     C57661   5.727   3.268   3.202 -0.6953 -0.6402  0.7103
  428MOL0     N57662   5.870   3.233   3.186 -0.2648  0.4504  0.3077
  428MOL0     C57663   5.918   3.121   3.114 -1.2061 -1.0433 -0.7224
  428MOL0     C57664   6.047   3.106   3.160  0.5148 -0.5584  0.0530
  428MOL0     C57665   6.148   3.001   3.135  0.0709  0.6763 -0.0338
  428MOL0     C57666   6.214   2.950   3.267  0.2029 -0.0936  0.0146
  428MOL0     C57667   6.341   2.890   3.222 -0.0922  0.0550  0.4131
  428MOL0     C57668   6.463   2.983   3.232 -0.2730  0.5138  0.5456
  428MOL0     O57669   6.577   2.933   3.164  0.5109  0.3954 -0.2335
  428MOL0     C57670   6.698   2.947   3.233  0.4079  0.6335  0.5488
  428MOL0     C57671   6.803   2.862   3.204  0.0156 -0.0422 -0.5648
  428MOL0     C57672   6.933   2.867   3.267  0.3998  0.9113  0.2029
  428MOL0     C57673   6.971   2.973   3.351  0.1255  0.8594 -0.5267
  428MOL0     C57674   7.098   2.979   3.428 -0.4710  0.3784 -0.0933
  428MOL0     O57675   7.117   3.077   3.522 -0.1082  0.2978  0.4585
  428MOL0     C57676   7.215   3.044   3.612  0.0285 -0.4113  0.2224
  428MOL0     C57677   7.175   3.007   3.737 -0.1083 -0.0221  0.5657
  428MOL0     C57678   7.272   2.967   3.830 -0.1696 -0.1446 -0.2513
  428MOL0     C57679   7.408   2.981   3.803  0.3849 -0.0201 -0.7927
  428MOL0     O57680   7.498   2.942   3.905 -0.9483  0.0640 -0.7897
  428MOL0     C57681   7.639   2.935   3.873 -0.6103 -0.4397 -0.2766
  428MOL0     C57682   7.689   2.813   3.794 -0.8824 -0.1818  0.0625
  428MOL0     C57683   7.677   2.682   3.878  0.1756 -0.4781 -0.3153
  428MOL0     C57684   7.719   2.547   3.818  0.4175 -0.4169 -0.7854
  428MOL0     C57685   7.747   2.442   3.938  0.4316  0.1769  0.1870
  428MOL0     C57686   7.788   2.304   3.898 -0.8609 -0.0317  0.6216
  428MOL0     C57687   7.773   2.194   4.000  0.5266 -0.0418 -0.8933
  428MOL0     C57688   7.890   2.199   4.106  0.3762  0.1219  1.2506
  428MOL0    Cl57689   8.039   2.129   4.049 -0.2728  0.1600 -0.4467
  428MOL0     C57690   7.443   3.039   3.680  0.4963 -0.7297 -0.3404
  428MOL0     C57691   7.348   3.070   3.581 -0.3441  0.1157 -0.1528
  428MOL0     O57692   7.173   2.883   3.408  0.3312 -0.5112  0.1981
  428MOL0     C57693   6.865   3.059   3.379  0.0734  0.1675  0.0766
  428MOL0     C57694   6.737   3.051   3.325  0.3435  0.6854 -0.1150
  428MOL0     N57695   6.078   3.214   3.234  0.4703  1.0087 -0.5715
  428MOL0     N57696   5.974   3.279   3.262  0.3172 -0.3362  0.5072
  428MOL0     C57697   4.737   3.020   3.160 -0.0814  0.8701  0.2985
  428MOL0     C57698   4.624   2.940   3.164 -0.0849 -0.4737  0.3547
  428MOL0     C57699   4.243   2.740   3.034  0.3800 -0.1145 -0.1719
  428MOL0     C57700   4.135   2.785   3.106  1.3583 -0.4333 -0.3783
  428MOL0     C57701   4.009   2.726   3.100 -0.0438  0.0258  0.3109
  428MOL0     C57702   3.995   2.604   3.024  0.0126  0.0603  0.6912
  428MOL0     O57703   3.880   2.526   3.024 -0.3056  0.1666 -0.1823
  428MOL0     C57704   3.765   2.579   3.088  1.0511 -0.2931  0.1782
  428MOL0     C57705   3.644   2.507   3.040  0.1465  0.5177  0.1543
  428MOL0     C57706   3.518   2.558   3.116 -0.3049  0.0059 -0.2264
  428MOL0     C57707   3.390   2.497   3.053 -0.2559 -0.5475  0.4272
  428MOL0     C57708   3.266   2.523   3.131 -0.0288 -0.1488  0.4175
  428MOL0     C57709   3.160   2.551   3.177  0.2689  0.5597 -0.1260
  428MOL0     C57710   4.108   2.552   2.954 -0.1907  0.3491  0.2829
  428MOL0     C57711   4.235   2.622   2.954 -0.2545  0.5035 -0.2500
  428MOL0     C57712   4.341   2.573   2.861 -0.0258 -0.6609 -0.6485
  428MOL0     H57713   4.718   2.676   2.984 -0.8260  0.5866  1.8763
  428MOL0     H57714   4.915   2.800   2.963  0.2840 -1.4279  0.8190
  428MOL0     H57715   5.088   2.915   3.027 -4.2572 -1.5754 -2.0579
  428MOL0     H57716   5.042   3.042   2.907 -0.3547 -0.9556 -0.1696
  428MOL0     H57717   5.186   3.144   3.149 -1.2335  1.1986  0.5581
  428MOL0     H57718   5.149   3.216   2.985  1.3234 -1.2435 -3.8864
  428MOL0     H57719   5.288   3.075   2.888 -1.6871 -0.6230  0.0385
  428MOL0     H57720   5.357   3.010   3.036 -2.9439 -0.4593  0.7246
  428MOL0     H57721   5.398   3.307   2.968 -2.4933  0.3125  0.9999
  428MOL0     H57722   5.418   3.242   3.122  2.8385 -1.6641  1.0544
  428MOL0     H57723   5.582   3.089   3.043 -1.0115  0.4685  0.6021
  428MOL0     H57724   5.547   3.121   2.866  2.3751 -0.2844 -0.0801
  428MOL0     H57725   5.754   3.233   2.920 -0.6998 -3.3237  1.5675
  428MOL0     H57726   5.624   3.334   2.872 -0.8259  0.9038  0.0366
  428MOL0     H57727   5.590   3.407   3.106 -1.3099 -2.7650 -1.0965
  428MOL0     H57728   5.762   3.428   3.071  1.5158 -2.0885 -1.2943
  428MOL0     H57729   5.721   3.327   3.294  2.6168  1.9210 -0.5255
  428MOL0     H57730   5.658   3.183   3.207 -1.4635 -0.3963 -2.8525
  428MOL0     H57731   5.861   3.051   3.053  1.1569 -1.0457 -3.0981
  428MOL0     H57732   6.092   2.924   3.081 -0.4520  0.4563  0.7999
  428MOL0     H57733   6.228   3.051   3.079  1.6910  0.6752  2.1585
  428MOL0     H57734   6.243   3.031   3.335 -0.2869  0.3322 -0.2755
  428MOL0     H57735   6.149   2.879   3.319 -0.3456  0.5705  0.2569
  428MOL0     H57736   6.335   2.861   3.116  2.7373  0.2065  0.1174
  428MOL0     H57737   6.370   2.805   3.284 -0.7156 -1.3103 -1.0771
  428MOL0     H57738   6.492   3.004   3.336  2.7663 -0.4415 -0.0079
  428MOL0     H57739   6.432   3.078   3.188  1.6385  0.1096 -1.8354
  428MOL0     H57740   6.796   2.780   3.134  0.9033 -0.1182 -0.5764
  428MOL0     H57741   6.991   2.778   3.242  0.1050  1.1890 -1.6188
  428MOL0     H57742   7.071   2.995   3.764 -0.3056  2.0812  0.8931
  428MOL0     H57743   7.241   2.924   3.924 -0.0736  0.9795  0.3064
  428MOL0     H57744   7.670   3.030   3.828  0.7769 -0.6487  0.1861
  428MOL0     H57745   7.694   2.930   3.967 -2.3752 -0.9957  0.7774
  428MOL0     H57746   7.635   2.799   3.700 -0.5011  0.9433 -0.3349
  428MOL0     H57747   7.794   2.830   3.770 -0.9312 -0.2636 -0.2048
  428MOL0     H57748   7.744   2.699   3.964  2.6005 -1.9058 -1.7881
  428MOL0     H57749   7.572   2.688   3.908 -0.1568  3.8082 -1.6921
  428MOL0     H57750   7.808   2.560   3.754  0.6520  1.3472 -0.1465
  428MOL0     H57751   7.638   2.518   3.751 -0.6491 -2.0391  1.1058
  428MOL0     H57752   7.649   2.430   3.986 -0.3677  0.1665 -1.3717
  428MOL0     H57753   7.814   2.494   4.007  0.1054  0.1601  0.5185
  428MOL0     H57754   7.712   2.270   3.826 -0.8820 -3.5125  2.0964
  428MOL0     H57755   7.892   2.296   3.865 -0.6544 -1.7687  1.6047
  428MOL0     H57756   7.778   2.092   3.960 -0.6743 -1.9111  3.1750
  428MOL0     H57757   7.676   2.192   4.052  0.1844 -0.8699 -1.5426
  428MOL0     H57758   7.911   2.303   4.134 -0.8942  0.4881  0.8868
  428MOL0     H57759   7.857   2.148   4.197  2.9182 -1.2733  1.4970
  428MOL0     H57760   7.544   3.067   3.652  0.8025 -1.3061  0.1831
  428MOL0     H57761   7.371   3.119   3.488 -0.2896  2.2076  0.9088
  428MOL0     H57762   6.878   3.139   3.450 -3.0079  0.1408  0.8107
  428MOL0     H57763   6.656   3.118   3.351  0.0396  0.0172  0.6890
  428MOL0     H57764   4.748   3.114   3.212  1.6636  1.6966 -1.4449
  428MOL0     H57765   4.542   2.996   3.209 -1.8006 -0.9613 -1.9558
  428MOL0     H57766   4.150   2.864   3.178  1.6718 -0.0717 -0.8404
  428MOL0     H57767   3.931   2.744   3.172  0.3186  0.1285  0.6782
  428MOL0     H57768   3.752   2.684   3.061 -1.4518 -1.1398 -2.3622
  428MOL0     H57769   3.763   2.571   3.197  1.9303 -1.2147  0.1358
  428MOL0     H57770   3.656   2.401   3.061  3.0181  1.0777  1.8594
  428MOL0     H57771   3.622   2.525   2.934 -2.7974  0.3966  0.6565
  428MOL0     H57772   3.512   2.667   3.114  1.2067  0.1426  0.9797
  428MOL0     H57773   3.520   2.533   3.222 -0.1416  1.6179  0.1761
  428MOL0     H57774   3.382   2.562   2.965  0.1471  2.7404  2.6355
  428MOL0     H57775   3.403   2.389   3.038 -2.6298 -1.2596  2.7647
  428MOL0     H57776   3.070   2.575   3.230 -0.3005  0.9553 -1.2314
  428MOL0     H57777   4.092   2.453   2.913 -0.7086  1.2833 -1.8900
  428MOL0     H57778   4.432   2.541   2.912  0.5586  0.4065 -0.9929
  428MOL0     H57779   4.310   2.490   2.798 -0.3060  0.2236 -1.7071
  428MOL0     H57780   4.369   2.650   2.788 -0.8488 -0.2206 -0.5187
  429MOL0     O57781   9.623   7.152   6.991 -0.2906 -0.3332 -0.3392
  429MOL0     C57782   9.602   7.054   7.061 -0.4987 -0.8083 -0.1194
  429MOL0     O57783   9.630   6.924   7.024 -0.1300 -0.2597 -0.3318
  429MOL0     C57784   9.727   6.907   6.934  0.2048  1.1501 -0.0142
  429MOL0     C57785   9.702   6.900   6.794 -0.6164  0.1554 -0.2110
  429MOL0     C57786   9.805   6.885   6.696 -0.3901 -1.3263 -0.6686
  429MOL0     C57787   9.939   6.875   6.747  0.0425 -0.5906  0.0841
  429MOL0     O57788  10.048   6.880   6.660 -0.1643  0.0639  0.2203
  429MOL0     C57789  10.176   6.912   6.712 -0.9442 -0.1694  0.0223
  429MOL0     C57790  10.276   6.943   6.601 -0.0622  0.4745  0.7012
  429MOL0     C57791  10.397   7.006   6.662  0.0714  0.6466 -0.1154
  429MOL0     C57792  10.450   6.930   6.787 -0.8888 -0.8245  0.1681
  429MOL0     C57793  10.599   6.958   6.790 -0.4453 -0.6172  0.5992
  429MOL0     C57794  10.621   7.106   6.833  1.2048  0.1869  0.3233
  429MOL0     C57795  10.768   7.144   6.853 -0.5137 -0.2369  0.6922
  429MOL0     C57796  10.851   7.135   6.724 -1.0208 -0.6578  0.1189
  429MOL0     N57797  10.994   7.122   6.766  0.1558  0.2776 -0.2129
  429MOL0     C57798  11.065   7.194   6.867  0.2948  0.4109 -0.3337
  429MOL0     C57799  11.189   7.142   6.882 -0.2093  0.4384 -0.9609
  429MOL0     C57800  11.298   7.185   6.975 -0.4466 -0.2148  0.1113
  429MOL0     C57801  11.395   7.073   7.010  0.3751 -0.1777 -0.1784
  429MOL0     C57802  11.541   7.113   6.972 -1.0806  0.4813  0.2976
  429MOL0     C57803  11.622   6.984   6.975 -0.4870  0.9848 -0.2484
  429MOL0     O57804  11.759   7.017   6.975 -0.3096  0.1488  0.8309
  429MOL0     C57805  11.867   6.931   6.943  0.1006 -0.2799 -0.3884
  429MOL0     C57806  11.994   6.969   6.975  0.3465 -0.9662  0.1755
  429MOL0     C57807  12.107   6.898   6.956  0.0837 -0.2474  0.4619
  429MOL0     C57808  12.096   6.767   6.904 -0.1993  0.2239 -0.5980
  429MOL0     C57809  12.214   6.682   6.888  0.3933 -0.5529 -0.4292
  429MOL0     O57810  12.189   6.549   6.867  0.2342 -0.1545  0.6443
  429MOL0     C57811  12.284   6.455   6.857 -0.4939  0.2617 -0.2385
  429MOL0     C57812  12.263   6.338   6.920  0.0675 -0.7519  0.3090
  429MOL0     C57813  12.356   6.232   6.912 -0.2514  0.0935 -0.1625
  429MOL0     C57814  12.476   6.243   6.839 -0.1885 -0.3065  0.1771
  429MOL0     O57815  12.582   6.162   6.834  0.4919 -0.2543 -0.3345
  429MOL0     C57816  12.554   6.038   6.886 -0.3032  0.2660 -0.5583
  429MOL0     C57817  12.685   5.947   6.866 -0.0180 -0.1228  0.3229
  429MOL0     C57818  12.749   5.970   6.726 -0.1026 -0.3253 -0.4308
  429MOL0     C57819  12.842   5.849   6.686 -0.1757  0.0389 -0.1070
  429MOL0     C57820  12.865   5.853   6.534  0.6280 -0.0969 -0.9631
  429MOL0     C57821  12.935   5.986   6.495  0.5468  1.1351  0.4767
  429MOL0     C57822  12.954   5.978   6.341  0.3796  1.2808 -0.0328
  429MOL0     C57823  13.013   6.103   6.287 -0.9640 -0.4372 -0.0166
  429MOL0    Cl57824  13.183   6.115   6.338 -0.3561  0.3005  0.0263
  429MOL0     C57825  12.493   6.365   6.766 -0.1736 -0.7498 -0.7151
  429MOL0     C57826  12.389   6.460   6.772 -0.0150  0.0547  0.2631
  429MOL0     O57827  12.326   6.729   6.895  0.0593 -0.4675 -0.5207
  429MOL0     C57828  11.966   6.724   6.864  0.2593 -0.2540  0.0379
  429MOL0     C57829  11.853   6.803   6.884 -0.4652  0.2378 -0.5484
  429MOL0     N57830  11.188   7.036   6.786  0.2924 -0.0810  0.5007
  429MOL0     N57831  11.077   7.027   6.712 -0.5017  0.0611 -0.2101
  429MOL0     C57832   9.955   6.868   6.883 -0.5267  0.9373  0.2370
  429MOL0     C57833   9.852   6.883   6.979 -0.2462  0.2278 -0.7543
  429MOL0     C57834   9.542   7.070   7.195 -0.1935 -0.4732  0.3276
  429MOL0     C57835   9.546   6.959   7.282  0.3103 -0.2546  0.3569
  429MOL0     C57836   9.479   6.962   7.407 -0.4664 -0.2944  0.4004
  429MOL0     C57837   9.411   7.074   7.447  0.5090 -0.1809  0.1046
  429MOL0     O57838   9.340   7.056   7.573  0.0077  0.5055 -0.2659
  429MOL0     C57839   9.268   7.169   7.634  0.0990  0.6898  1.3039
  429MOL0     C57840   9.236   7.134   7.779  0.0642 -0.2316  0.2044
  429MOL0     C57841   9.178   7.262   7.844 -0.1006  0.5654  0.1676
  429MOL0     C57842   9.033   7.302   7.788 -0.1170  0.3186 -0.4705
  429MOL0     C57843   8.927   7.193   7.778 -1.2540 -0.2800  1.1427
  429MOL0     C57844   8.842   7.110   7.780 -0.4008 -0.6408  0.4738
  429MOL0     C57845   9.412   7.186   7.365 -1.0077 -0.0599 -0.1427
  429MOL0     C57846   9.482   7.189   7.241  0.2237 -0.9149  0.6821
  429MOL0     C57847   9.466   7.320   7.165  0.3023 -0.2214 -0.2600
  429MOL0     H57848   9.600   6.900   6.758 -0.6222 -2.3649 -0.3675
  429MOL0     H57849   9.791   6.886   6.589  2.6293  1.2916 -1.1839
  429MOL0     H57850  10.161   6.993   6.784 -0.7444 -0.8484  0.8417
  429MOL0     H57851  10.212   6.826   6.768  1.2906  0.2209 -0.7171
  429MOL0     H57852  10.234   7.008   6.524 -3.1657 -0.7269  1.2466
  429MOL0     H57853  10.307   6.853   6.547  2.4110  0.7517  1.5296
  429MOL0     H57854  10.381   7.110   6.691  1.1428  0.6136  0.6549
  429MOL0     H57855  10.473   7.003   6.583 -0.5736 -1.2662 -0.6987
  429MOL0     H57856  10.396   6.964   6.875 -1.7666 -0.8867 -0.3346
  429MOL0     H57857  10.448   6.823   6.766  0.3354 -0.3187 -3.3591
  429MOL0     H57858  10.634   6.890   6.868 -1.1369  0.6395  2.0649
  429MOL0     H57859  10.646   6.939   6.693  2.1599  1.0915  1.4070
  429MOL0     H57860  10.571   7.178   6.767  1.1515  0.7244  0.9360
  429MOL0     H57861  10.570   7.106   6.929  0.7472 -2.0718  0.1287
  429MOL0     H57862  10.803   7.060   6.915  1.2711 -2.4083 -2.9374
  429MOL0     H57863  10.786   7.244   6.893 -0.1281  0.2840 -0.7212
  429MOL0     H57864  10.822   7.045   6.668 -0.9662 -2.7366  3.2234
  429MOL0     H57865  10.829   7.221   6.660 -2.0724 -1.5170 -0.7181
  429MOL0     H57866  11.030   7.279   6.925 -0.1711  0.0593 -0.0880
  429MOL0     H57867  11.337   7.261   6.907  1.6136 -1.5592 -0.2987
  429MOL0     H57868  11.266   7.233   7.067 -0.0854  2.7777 -1.2102
  429MOL0     H57869  11.393   7.050   7.116  1.3065 -0.9516 -0.3113
  429MOL0     H57870  11.358   6.980   6.965  1.1062 -0.4398 -0.2516
  429MOL0     H57871  11.574   7.183   7.049 -1.0754  1.3956 -0.5213
  429MOL0     H57872  11.552   7.159   6.873  2.4401  2.8663  1.6015
  429MOL0     H57873  11.588   6.918   6.894 -3.3699  0.8312  0.9929
  429MOL0     H57874  11.601   6.930   7.068 -2.1553 -0.4495 -1.3819
  429MOL0     H57875  12.000   7.067   7.019  2.1887 -0.2941 -1.4240
  429MOL0     H57876  12.203   6.949   6.966 -0.7603  1.2055  1.3713
  429MOL0     H57877  12.178   6.326   6.987 -0.5360 -1.3628 -0.5457
  429MOL0     H57878  12.321   6.136   6.948 -2.3463  0.1626 -1.8178
  429MOL0     H57879  12.541   6.049   6.994 -0.8119 -1.7937 -0.3754
  429MOL0     H57880  12.476   5.989   6.827  0.5543 -0.5916 -0.9984
  429MOL0     H57881  12.755   5.972   6.946  1.1652  0.2778 -0.7971
  429MOL0     H57882  12.654   5.843   6.857  0.6835 -0.4097  1.1466
  429MOL0     H57883  12.675   5.992   6.648  0.0303  0.0049 -0.4666
  429MOL0     H57884  12.807   6.062   6.713 -0.0237 -0.6789 -3.0344
  429MOL0     H57885  12.807   5.751   6.720  1.4971 -1.1033 -1.5153
  429MOL0     H57886  12.941   5.869   6.727  0.2895  0.0057 -1.1788
  429MOL0     H57887  12.766   5.839   6.489  0.2079  0.2504 -0.1706
  429MOL0     H57888  12.930   5.768   6.511 -1.0674 -2.0434  0.8990
  429MOL0     H57889  12.863   6.067   6.512 -0.7708  0.1027  0.0100
  429MOL0     H57890  13.024   6.007   6.555  0.3356  2.7633  0.2658
  429MOL0     H57891  12.855   5.974   6.296  0.1384 -1.4804  0.5543
  429MOL0     H57892  12.997   5.881   6.314 -2.0887  0.1538 -0.1503
  429MOL0     H57893  13.008   6.094   6.178  1.3203  0.1529 -0.2146
  429MOL0     H57894  12.962   6.191   6.328  2.3745  0.1775  3.3978
  429MOL0     H57895  12.583   6.386   6.709  0.3603  2.4957  1.0519
  429MOL0     H57896  12.408   6.557   6.727  0.7633 -0.1609  0.1219
  429MOL0     H57897  11.963   6.621   6.830  1.1451 -0.3373  0.1931
  429MOL0     H57898  11.754   6.767   6.860  0.0271 -0.2115 -1.9805
  429MOL0     H57899  10.060   6.857   6.911 -0.7347 -2.9083  0.0364
  429MOL0     H57900   9.880   6.902   7.082 -0.0430  1.1475 -0.9669
  429MOL0     H57901   9.588   6.862   7.258 -1.0986 -0.3682 -1.9161
  429MOL0     H57902   9.487   6.881   7.478  4.2132  0.7539  1.3764
  429MOL0     H57903   9.179   7.197   7.578  0.2924  2.9923  2.0244
  429MOL0     H57904   9.324   7.263   7.622 -1.4295  1.3416 -1.4451
  429MOL0     H57905   9.332   7.104   7.823  1.6765  0.4324 -2.5580
  429MOL0     H57906   9.178   7.042   7.789 -1.6841  1.0699  2.9897
  429MOL0     H57907   9.241   7.351   7.839 -1.3049  1.4675  0.5353
  429MOL0     H57908   9.168   7.248   7.952  0.5583  0.4005  0.2098
  429MOL0     H57909   8.990   7.384   7.846 -1.0405 -0.3332 -0.2058
  429MOL0     H57910   9.051   7.345   7.689 -2.0591  0.9855 -0.5808
  429MOL0     H57911   8.768   7.034   7.775 -0.2279 -0.8828  1.4898
  429MOL0     H57912   9.356   7.276   7.391  0.8752  1.4028 -0.9697
  429MOL0     H57913   9.373   7.371   7.194  0.6238  1.7045 -2.3437
  429MOL0     H57914   9.546   7.387   7.200 -0.1157 -0.1057  0.5032
  429MOL0     H57915   9.464   7.312   7.056 -1.5931 -0.4770 -0.2370
  430MOL0     O57916   6.689   1.768   4.811 -0.6773  0.5741  0.2053
  430MOL0     C57917   6.599   1.797   4.886  0.1426  0.2157  0.4179
  430MOL0     O57918   6.620   1.869   4.997  0.2853  0.4083  0.7074
  430MOL0     C57919   6.746   1.895   5.041  0.8875 -0.4803  0.5177
  430MOL0     C57920   6.848   1.802   5.056 -0.1166 -0.4066 -0.6152
  430MOL0     C57921   6.977   1.841   5.091 -0.1479  0.4063  0.2607
  430MOL0     C57922   7.012   1.970   5.105  0.1903 -0.6581 -0.7340
  430MOL0     O57923   7.145   1.992   5.114 -0.9374 -0.3078  0.3938
  430MOL0     C57924   7.195   2.113   5.064  0.7054  0.3234 -0.0720
  430MOL0     C57925   7.354   2.116   5.066 -0.8239  0.2789 -0.1766
  430MOL0     C57926   7.416   2.170   5.197  0.3307 -0.1310  0.0828
  430MOL0     C57927   7.561   2.207   5.184 -0.8780 -0.1776  0.1513
  430MOL0     C57928   7.617   2.262   5.316  0.5575  0.1038  0.3403
  430MOL0     C57929   7.771   2.290   5.296 -0.0412 -0.4007 -0.3423
  430MOL0     C57930   7.828   2.348   5.426 -0.7729 -0.5375  0.0517
  430MOL0     C57931   7.962   2.409   5.396  0.2065  0.7574  0.1807
  430MOL0     N57932   7.959   2.530   5.312  0.4001  0.8107 -0.5756
  430MOL0     C57933   7.889   2.644   5.341  0.3166  0.0602 -0.0142
  430MOL0     C57934   7.942   2.743   5.257  0.0192 -0.0869  0.3160
  430MOL0     C57935   7.907   2.891   5.250 -0.2463 -0.3146  0.2655
  430MOL0     C57936   7.762   2.917   5.295  0.2760  0.1617 -0.4002
  430MOL0     C57937   7.659   2.852   5.210  0.0557  0.1287 -0.0416
  430MOL0     C57938   7.511   2.878   5.250 -0.3145 -0.1821 -0.1501
  430MOL0     O57939   7.479   2.812   5.371 -0.0676  0.2737  0.1548
  430MOL0     C57940   7.345   2.787   5.378 -1.0587 -0.6427 -1.0544
  430MOL0     C57941   7.316   2.659   5.390  0.6335 -0.0170  0.0446
  430MOL0     C57942   7.186   2.613   5.385 -0.6990  0.2073 -0.2664
  430MOL0     C57943   7.080   2.707   5.396 -0.2630  0.0293  0.9204
  430MOL0     C57944   6.941   2.669   5.399 -0.1392  0.6058 -0.0893
  430MOL0     O57945   6.849   2.760   5.429 -1.0253  0.5463 -0.1594
  430MOL0     C57946   6.717   2.736   5.433  0.0471  0.5160 -0.3870
  430MOL0     C57947   6.655   2.624   5.380  0.3021 -0.3412  1.0157
  430MOL0     C57948   6.519   2.609   5.409  0.3537  1.1107  0.1489
  430MOL0     C57949   6.437   2.703   5.478  0.4180  0.5109  0.1472
  430MOL0     O57950   6.297   2.677   5.482  0.4401  0.4477 -0.4750
  430MOL0     C57951   6.220   2.783   5.540 -0.1235  0.6061 -0.5673
  430MOL0     C57952   6.069   2.746   5.530  1.2042  0.5084  0.4220
  430MOL0     C57953   6.032   2.616   5.592 -0.7365  0.1494 -0.9327
  430MOL0     C57954   5.881   2.592   5.590  0.0277 -0.1567  0.0080
  430MOL0     C57955   5.831   2.464   5.636 -0.0195 -0.3165 -0.2555
  430MOL0     C57956   5.848   2.460   5.786  0.7082 -0.4141 -0.2463
  430MOL0     C57957   5.815   2.322   5.848 -0.2203  0.5256 -0.3539
  430MOL0     C57958   5.683   2.253   5.799 -0.4360 -0.8997 -0.2921
  430MOL0    Cl57959   5.546   2.335   5.862 -0.0832 -0.0320 -0.1139
  430MOL0     C57960   6.507   2.822   5.523 -0.5246  0.0560 -0.4397
  430MOL0     C57961   6.646   2.832   5.502  0.5864 -0.8628 -0.8374
  430MOL0     O57962   6.920   2.544   5.395 -0.3979 -0.2944  0.6604
  430MOL0     C57963   7.113   2.846   5.398 -0.2782 -0.3612  0.1184
  430MOL0     C57964   7.245   2.883   5.395  0.2203 -0.1078 -0.3201
  430MOL0     N57965   8.041   2.680   5.174 -0.9728  0.0617  0.0213
  430MOL0     N57966   8.048   2.555   5.211  0.2576  0.0648 -0.4550
  430MOL0     C57967   6.907   2.075   5.097  0.3337 -0.2944 -0.5312
  430MOL0     C57968   6.775   2.033   5.070 -0.0680  0.2624 -0.3800
  430MOL0     C57969   6.470   1.728   4.867 -0.4109  0.1545 -0.7447
  430MOL0     C57970   6.367   1.770   4.945  0.1185  0.1859 -0.6349
  430MOL0     C57971   6.241   1.720   4.934  0.2775 -0.0150  0.4485
  430MOL0     C57972   6.209   1.629   4.831 -0.2775  0.1992 -1.0159
  430MOL0     O57973   6.080   1.595   4.793  0.3161  0.6450 -0.1887
  430MOL0     C57974   5.968   1.624   4.880 -0.3325  0.3645 -0.1801
  430MOL0     C57975   5.842   1.577   4.813  0.5710  0.3652 -0.1358
  430MOL0     C57976   5.849   1.428   4.810 -0.4267  0.4229 -0.0781
  430MOL0     C57977   5.759   1.374   4.700 -0.3319 -0.5081 -0.4665
  430MOL0     C57978   5.772   1.234   4.680 -0.8200  0.3077  0.0478
  430MOL0     C57979   5.797   1.109   4.671  0.3012  0.2232  0.0563
  430MOL0     C57980   6.316   1.576   4.762 -0.2920  0.7746  0.2522
  430MOL0     C57981   6.453   1.617   4.781 -0.1461 -0.2755 -1.1959
  430MOL0     C57982   6.561   1.552   4.695 -0.4231  0.2934 -0.1945
  430MOL0     H57983   6.831   1.695   5.053 -0.9741 -0.3484  1.1657
  430MOL0     H57984   7.057   1.769   5.106 -0.9478 -0.4550  0.4687
  430MOL0     H57985   7.161   2.111   4.960  2.2673 -0.3470 -0.5995
  430MOL0     H57986   7.156   2.200   5.116  2.0293  0.6088  0.4751
  430MOL0     H57987   7.387   2.180   4.983  0.3617  0.0536  0.1097
  430MOL0     H57988   7.390   2.013   5.055 -2.8346 -0.8633  2.6670
  430MOL0     H57989   7.409   2.101   5.281  1.4546 -0.9151 -0.4409
  430MOL0     H57990   7.363   2.259   5.232  0.2336 -1.6964  4.5440
  430MOL0     H57991   7.618   2.119   5.152 -0.7462  0.4053 -1.3145
  430MOL0     H57992   7.578   2.274   5.099  0.0037 -1.3880 -0.6499
  430MOL0     H57993   7.557   2.350   5.343  0.1181 -0.5865  1.6671
  430MOL0     H57994   7.613   2.184   5.393  2.4796 -0.7838 -0.3896
  430MOL0     H57995   7.826   2.203   5.259 -0.0128 -0.9391  0.9210
  430MOL0     H57996   7.775   2.363   5.214 -2.3004 -0.5864 -0.6789
  430MOL0     H57997   7.832   2.271   5.503 -1.6348 -0.7288 -0.0825
  430MOL0     H57998   7.754   2.419   5.463 -0.0892 -0.5571  1.5377
  430MOL0     H57999   8.008   2.439   5.491  1.3978 -2.9488  0.9844
  430MOL0     H58000   8.016   2.323   5.354 -1.7717 -0.8142  0.6685
  430MOL0     H58001   7.804   2.660   5.406 -0.4396 -0.9171 -0.7311
  430MOL0     H58002   7.985   2.948   5.302 -0.0957  0.6558 -0.9735
  430MOL0     H58003   7.926   2.921   5.147  0.2701  0.0755  0.4700
  430MOL0     H58004   7.730   2.876   5.391 -1.5836  0.7475 -0.7283
  430MOL0     H58005   7.755   3.026   5.292  0.2446  0.2241  1.0971
  430MOL0     H58006   7.681   2.745   5.211  0.9398  0.2591  2.4647
  430MOL0     H58007   7.659   2.893   5.109  3.7632 -1.6541 -0.9074
  430MOL0     H58008   7.449   2.844   5.166  2.3234  0.8943 -2.7272
  430MOL0     H58009   7.501   2.986   5.260 -1.1350 -0.4844  3.7279
  430MOL0     H58010   7.399   2.588   5.394 -1.3642 -2.6289 -1.5498
  430MOL0     H58011   7.167   2.509   5.364 -2.3359  0.7433 -1.6257
  430MOL0     H58012   6.700   2.541   5.327  0.4370  0.0613  0.4892
  430MOL0     H58013   6.466   2.527   5.362 -2.2164  3.0937 -0.6863
  430MOL0     H58014   6.229   2.808   5.646 -0.3739  0.2362 -0.4564
  430MOL0     H58015   6.231   2.883   5.497 -0.0513  0.7435 -0.2268
  430MOL0     H58016   6.013   2.823   5.583 -1.6784 -1.4064  0.3875
  430MOL0     H58017   6.033   2.752   5.426  3.1003  2.3959 -0.2049
  430MOL0     H58018   6.089   2.535   5.545 -1.1724 -0.2100 -0.8494
  430MOL0     H58019   6.062   2.622   5.697 -1.9590  4.4050 -0.6515
  430MOL0     H58020   5.852   2.600   5.484  0.9077 -1.1103 -0.3278
  430MOL0     H58021   5.832   2.669   5.649 -0.9254 -1.6441  1.2332
  430MOL0     H58022   5.890   2.381   5.598  1.2081  0.3499  0.1392
  430MOL0     H58023   5.723   2.456   5.620 -0.8775  2.6977  2.6994
  430MOL0     H58024   5.954   2.473   5.811  0.6924  1.3465 -0.9657
  430MOL0     H58025   5.808   2.547   5.839  2.7501  0.0375  0.6362
  430MOL0     H58026   5.830   2.322   5.956  1.0442 -2.1210 -0.4395
  430MOL0     H58027   5.899   2.257   5.817  0.9373  1.3433  0.9511
  430MOL0     H58028   5.672   2.258   5.690  0.2603 -1.6162 -0.4050
  430MOL0     H58029   5.672   2.144   5.812 -0.2895 -1.1081 -1.7693
  430MOL0     H58030   6.456   2.906   5.570  0.7180  0.5412  0.0792
  430MOL0     H58031   6.689   2.926   5.534 -0.9980 -0.0454 -1.0239
  430MOL0     H58032   7.044   2.925   5.425 -0.8105 -0.3993 -1.0407
  430MOL0     H58033   7.283   2.985   5.395 -0.7728  0.3032 -2.6349
  430MOL0     H58034   6.931   2.179   5.118 -2.2640 -0.1137  2.1825
  430MOL0     H58035   6.700   2.112   5.060 -0.4927 -0.2858 -1.7581
  430MOL0     H58036   6.391   1.858   5.005  0.6617  0.5714 -1.4026
  430MOL0     H58037   6.156   1.773   4.977 -0.2673  1.0407 -1.7690
  430MOL0     H58038   5.959   1.731   4.901 -0.1656  0.5227 -0.8746
  430MOL0     H58039   5.968   1.573   4.977  0.1113  1.6173  0.5072
  430MOL0     H58040   5.842   1.634   4.720  2.0573 -0.6484 -0.7990
  430MOL0     H58041   5.757   1.613   4.872 -2.2124 -1.6368 -2.5787
  430MOL0     H58042   5.826   1.390   4.910  2.8680  0.8718  0.9734
  430MOL0     H58043   5.950   1.390   4.797  0.3632  2.8604 -1.7345
  430MOL0     H58044   5.655   1.403   4.718 -0.0530  1.1253 -1.3176
  430MOL0     H58045   5.792   1.414   4.604 -0.1099 -4.3835 -2.1941
  430MOL0     H58046   5.817   1.006   4.648 -3.1235 -0.5082 -0.2582
  430MOL0     H58047   6.292   1.491   4.699 -1.7501  0.7319  0.8345
  430MOL0     H58048   6.649   1.529   4.756 -0.2385  2.5578  0.5118
  430MOL0     H58049   6.527   1.455   4.660 -1.0433 -0.0936  1.3822
  430MOL0     H58050   6.600   1.615   4.615 -3.2888  0.1902 -1.8170
  431MOL0     O58051   7.689  10.702   9.816 -0.5362  0.7281  0.9038
  431MOL0     C58052   7.594  10.675   9.735 -0.2032  0.1937 -0.1508
  431MOL0     O58053   7.592  10.584   9.639 -1.2819 -0.3512  0.1139
  431MOL0     C58054   7.667  10.475   9.645  0.9935 -0.0557 -0.0668
  431MOL0     C58055   7.605  10.349   9.632 -0.1141 -0.8587 -0.7696
  431MOL0     C58056   7.676  10.233   9.653  0.4644  0.1725  0.0922
  431MOL0     C58057   7.810  10.237   9.680 -0.4198 -0.8710  0.5741
  431MOL0     O58058   7.881  10.123   9.685  0.1722 -0.3051 -0.6102
  431MOL0     C58059   7.961  10.090   9.800  0.7497  0.3666  0.0600
  431MOL0     C58060   7.977   9.936   9.803 -0.1257  0.5127  0.1172
  431MOL0     C58061   8.051   9.884   9.924 -0.9997  0.0226  0.1484
  431MOL0     C58062   7.966   9.825  10.032  0.1349  0.3220  0.0720
  431MOL0     C58063   7.934   9.671  10.014 -0.1540 -0.5612 -0.8146
  431MOL0     C58064   7.824   9.621  10.109  0.1359  0.5460  0.4690
  431MOL0     C58065   7.879   9.575  10.238 -0.6109 -0.1622  0.2431
  431MOL0     C58066   7.762   9.541  10.337 -0.8508  0.8621  0.7491
  431MOL0     N58067   7.676   9.433  10.294 -0.0884  0.8936  0.0178
  431MOL0     C58068   7.721   9.312  10.256  0.3275 -0.5833 -0.4043
  431MOL0     C58069   7.608   9.246  10.206  0.2519 -0.5374  0.7500
  431MOL0     C58070   7.585   9.111  10.140  0.1665 -0.1383 -0.1437
  431MOL0     C58071   7.713   9.022  10.126 -0.3575  0.3053  0.4831
  431MOL0     C58072   7.725   8.926  10.242  1.2076 -1.1727  0.3332
  431MOL0     C58073   7.838   8.821  10.236 -0.3486 -0.7180 -0.0356
  431MOL0     O58074   7.964   8.888  10.228 -0.5105  0.0181 -0.3028
  431MOL0     C58075   8.074   8.807  10.196  0.5386 -0.9329 -0.3052
  431MOL0     C58076   8.100   8.684  10.251 -0.4198  0.7475  0.3120
  431MOL0     C58077   8.207   8.605  10.213  0.7731  0.3038 -0.2574
  431MOL0     C58078   8.301   8.662  10.130  0.6259  0.0263  0.5692
  431MOL0     C58079   8.414   8.588  10.075 -1.3046 -0.5649  0.0747
  431MOL0     O58080   8.412   8.454  10.083 -0.3901 -0.4914  0.3457
  431MOL0     C58081   8.519   8.372  10.072  0.2411 -0.0034  0.0123
  431MOL0     C58082   8.503   8.244  10.029  0.8379 -0.1236 -0.4266
  431MOL0     C58083   8.605   8.153  10.036 -0.5880 -1.2917 -0.5446
  431MOL0     C58084   8.737   8.196  10.062 -0.6684 -0.1774 -0.5466
  431MOL0     O58085   8.846   8.113  10.069 -0.2187  0.9715 -0.2083
  431MOL0     C58086   8.818   7.980  10.131 -0.0664  0.2988  0.4549
  431MOL0     C58087   8.956   7.927  10.188  0.2425  0.1229 -0.0340
  431MOL0     C58088   9.055   7.886  10.071  0.8225  0.0453 -0.6729
  431MOL0     C58089   9.174   7.814  10.136 -1.1367 -0.7072  0.1354
  431MOL0     C58090   9.295   7.786  10.045 -0.2099  0.4426  0.0340
  431MOL0     C58091   9.415   7.746  10.133  0.4299  0.1604  0.3577
  431MOL0     C58092   9.544   7.743  10.044 -0.7931 -0.2311 -1.8109
  431MOL0     C58093   9.615   7.872  10.020 -0.3090 -0.4461 -0.4578
  431MOL0    Cl58094   9.667   7.970  10.158 -0.0055 -0.1000  0.3365
  431MOL0     C58095   8.756   8.330  10.099 -0.3881 -1.0322 -0.7221
  431MOL0     C58096   8.646   8.413  10.112  0.3828  0.6304 -0.2091
  431MOL0     O58097   8.515   8.653  10.041 -0.4064 -0.1908  0.6621
  431MOL0     C58098   8.281   8.796  10.090 -0.2932 -0.1493 -0.1741
  431MOL0     C58099   8.165   8.864  10.118  0.8246  0.4852  1.2815
  431MOL0     N58100   7.503   9.340  10.206 -0.4206 -0.3511 -0.0113
  431MOL0     N58101   7.545   9.448  10.255  0.1677 -0.1868 -0.4110
  431MOL0     C58102   7.873  10.360   9.681 -0.3407  0.0516 -0.4304
  431MOL0     C58103   7.803  10.477   9.667 -0.2376  0.6488  1.1313
  431MOL0     C58104   7.487  10.774   9.712  0.1451 -0.9818 -0.7545
  431MOL0     C58105   7.513  10.911   9.755 -0.1721  0.2982  0.0279
  431MOL0     C58106   7.419  11.015   9.742 -0.2489  0.3284 -0.6705
  431MOL0     C58107   7.297  10.992   9.679 -0.0939 -0.0842 -0.3627
  431MOL0     O58108   7.203  11.081   9.643 -0.4374  0.2453 -0.0209
  431MOL0     C58109   7.232  11.223   9.649 -0.4170 -0.0050  0.2279
  431MOL0     C58110   7.289  11.283   9.522 -0.0663  0.2189 -0.2928
  431MOL0     C58111   7.336  11.426   9.548  0.4852 -0.1317 -0.1894
  431MOL0     C58112   7.227  11.524   9.572  0.8120 -0.2276 -0.3417
  431MOL0     C58113   7.150  11.540   9.452  0.4504 -0.7173  0.4916
  431MOL0     C58114   7.080  11.546   9.358  0.4975  0.3805  0.3553
  431MOL0     C58115   7.269  10.864   9.639  0.2309  0.0325  0.4123
  431MOL0     C58116   7.353  10.752   9.654 -0.0097 -1.1321 -0.4988
  431MOL0     C58117   7.308  10.619   9.608  0.4926  0.7839 -0.6786
  431MOL0     H58118   7.500  10.353   9.602 -0.4200 -0.5948  0.2900
  431MOL0     H58119   7.628  10.137   9.634  1.0598 -0.0774 -0.1682
  431MOL0     H58120   8.060  10.133   9.782  0.7106 -0.2575 -1.8601
  431MOL0     H58121   7.912  10.121   9.893 -3.7112  0.3065 -2.0351
  431MOL0     H58122   8.022   9.900   9.710 -2.9322  0.0502 -1.1701
  431MOL0     H58123   7.875   9.899   9.817  0.5466 -2.1404 -1.2783
  431MOL0     H58124   8.100   9.967   9.978 -1.3943  1.4916 -1.6479
  431MOL0     H58125   8.136   9.818   9.905 -1.8268 -1.4429  1.2989
  431MOL0     H58126   8.024   9.831  10.124  3.0859 -1.0848 -1.5298
  431MOL0     H58127   7.874   9.883  10.044  0.0316 -0.1118  1.6056
  431MOL0     H58128   7.900   9.660   9.910 -1.9345 -0.1729 -0.3057
  431MOL0     H58129   8.019   9.602  10.017  1.1269  0.9063 -1.6587
  431MOL0     H58130   7.755   9.705  10.121 -1.3773 -0.3725 -1.2923
  431MOL0     H58131   7.765   9.548  10.054 -0.2890 -0.3489  2.0685
  431MOL0     H58132   7.938   9.656  10.283 -1.8079  0.7606  0.2094
  431MOL0     H58133   7.952   9.495  10.230 -1.1781 -0.7504  0.8866
  431MOL0     H58134   7.800   9.505  10.433  0.4540 -1.8662 -0.6658
  431MOL0     H58135   7.695   9.625  10.356 -0.5307  0.8338  2.0820
  431MOL0     H58136   7.822   9.273  10.252  0.2658 -0.8634  0.5837
  431MOL0     H58137   7.507   9.056  10.195 -2.0160  2.6954 -0.1849
  431MOL0     H58138   7.543   9.132  10.042 -4.7553 -0.3097  1.6266
  431MOL0     H58139   7.711   8.952  10.042  2.2894  0.5742  0.1028
  431MOL0     H58140   7.803   9.083  10.116 -0.4393  0.1993 -1.3662
  431MOL0     H58141   7.634   8.869  10.266  1.3169 -1.3494  0.3315
  431MOL0     H58142   7.746   8.995  10.324  1.1644 -1.3911  0.5313
  431MOL0     H58143   7.809   8.750  10.158 -0.7654  1.5179 -2.0301
  431MOL0     H58144   7.838   8.766  10.331  1.8079  0.3703  0.6624
  431MOL0     H58145   8.033   8.644  10.327 -0.3981  1.2082  0.5713
  431MOL0     H58146   8.204   8.504  10.253 -0.5288  0.2491 -0.4714
  431MOL0     H58147   8.408   8.206   9.994  0.3159  0.4930  0.2724
  431MOL0     H58148   8.574   8.049  10.022 -2.0139 -0.9082 -0.4509
  431MOL0     H58149   8.747   7.993  10.213 -3.8981 -0.6408 -2.4578
  431MOL0     H58150   8.761   7.920  10.060 -2.6152  0.4726  2.2169
  431MOL0     H58151   8.995   8.015  10.240 -2.8938  0.6079  1.7452
  431MOL0     H58152   8.936   7.840  10.252 -0.6048  0.6223  0.3912
  431MOL0     H58153   9.003   7.821   9.999 -1.8093 -1.2796  2.1948
  431MOL0     H58154   9.079   7.972  10.008 -2.4641  2.0495  0.5882
  431MOL0     H58155   9.134   7.723  10.182  1.0826 -0.7311  2.1817
  431MOL0     H58156   9.209   7.881  10.214 -1.4569 -0.3242 -0.0461
  431MOL0     H58157   9.315   7.884  10.000 -1.0401  0.6648  0.1305
  431MOL0     H58158   9.268   7.708   9.974  1.9360  1.1049 -1.6494
  431MOL0     H58159   9.418   7.826  10.207  1.1391  0.7337 -0.2708
  431MOL0     H58160   9.395   7.648  10.177 -1.2716  0.7141  0.9291
  431MOL0     H58161   9.528   7.699   9.946 -1.6578 -1.7184 -1.0291
  431MOL0     H58162   9.619   7.681  10.095 -0.2781  0.6297 -1.4901
  431MOL0     H58163   9.697   7.849   9.952 -2.1653  0.1140 -3.0192
  431MOL0     H58164   9.540   7.938   9.974 -1.4863 -1.3785  0.0869
  431MOL0     H58165   8.852   8.368  10.135 -2.4449  2.1389  1.9864
  431MOL0     H58166   8.666   8.511  10.153  2.1479 -0.3040  1.3207
  431MOL0     H58167   8.343   8.862  10.029 -1.0747  0.5933 -0.1917
  431MOL0     H58168   8.135   8.965  10.093 -2.3572  0.6146  4.6788
  431MOL0     H58169   7.981  10.372   9.684 -0.2674 -0.3540 -1.1525
  431MOL0     H58170   7.870  10.562   9.657  1.2807 -0.7804 -1.8118
  431MOL0     H58171   7.609  10.930   9.801 -0.2695 -0.9771  0.7916
  431MOL0     H58172   7.447  11.115   9.776 -2.3065  0.4552  0.8429
  431MOL0     H58173   7.298  11.257   9.730  0.4626  4.9604 -2.1491
  431MOL0     H58174   7.132  11.264   9.663 -3.0338 -4.0656 -3.9009
  431MOL0     H58175   7.213  11.271   9.444 -0.5318 -1.6063  0.3739
  431MOL0     H58176   7.377  11.225   9.493  0.9045  1.8222 -0.6749
  431MOL0     H58177   7.384  11.468   9.459  1.4076 -2.0361 -0.6248
  431MOL0     H58178   7.412  11.430   9.626 -2.0986  1.6321  2.4350
  431MOL0     H58179   7.167  11.493   9.658  1.0823 -1.3752 -0.5558
  431MOL0     H58180   7.269  11.624   9.590  2.1262 -0.4065 -2.1553
  431MOL0     H58181   7.015  11.550   9.272  1.4055 -0.1517 -0.3820
  431MOL0     H58182   7.168  10.839   9.607 -0.0298 -0.3189  1.4799
  431MOL0     H58183   7.347  10.602   9.507  1.3274 -3.4369  0.1718
  431MOL0     H58184   7.341  10.535   9.669 -2.2588 -0.7217 -1.1158
  431MOL0     H58185   7.201  10.607   9.591  0.6415 -0.8902 -0.5940
  432MOL0     O58186   6.843   1.018   5.680  0.1355  0.0701  0.3372
  432MOL0     C58187   6.866   1.137   5.665 -0.4890  0.0998  0.4437
  432MOL0     O58188   6.785   1.240   5.692  0.1873  0.3195  0.5054
  432MOL0     C58189   6.648   1.214   5.714 -0.4892  0.3968 -0.2414
  432MOL0     C58190   6.600   1.256   5.833  0.7256 -0.4105 -0.6216
  432MOL0     C58191   6.469   1.226   5.876 -0.3567  0.0702  0.4964
  432MOL0     C58192   6.386   1.151   5.784  0.0595  0.7826  0.0132
  432MOL0     O58193   6.256   1.135   5.829  0.7495  0.3885 -0.1238
  432MOL0     C58194   6.144   1.134   5.738 -0.1074  0.3627  0.0934
  432MOL0     C58195   6.010   1.120   5.808 -0.0560 -0.0306 -0.8459
  432MOL0     C58196   5.906   1.160   5.708 -0.5416 -0.2161 -0.1243
  432MOL0     C58197   5.765   1.155   5.775 -0.7332 -1.5136  0.6490
  432MOL0     C58198   5.655   1.176   5.669 -0.3066  0.5026 -0.0468
  432MOL0     C58199   5.524   1.164   5.749  0.1423  0.6070 -0.5091
  432MOL0     C58200   5.412   1.212   5.667  0.2411  0.3534  0.0729
  432MOL0     C58201   5.349   1.101   5.591  0.8138  1.0456  0.3438
  432MOL0     N58202   5.274   1.144   5.479 -0.0317 -0.1801 -0.3775
  432MOL0     C58203   5.185   1.054   5.421  1.1555  0.0923 -0.2742
  432MOL0     C58204   5.135   1.114   5.316  0.1971 -0.9025  0.1244
  432MOL0     C58205   5.044   1.038   5.234 -0.3662  1.2650  0.5389
  432MOL0     C58206   5.099   0.901   5.173  0.1448  0.2828  0.9346
  432MOL0     C58207   5.165   0.913   5.030 -0.0807  0.1162 -1.1915
  432MOL0     C58208   5.314   0.958   5.029  0.1901  0.4095  0.0625
  432MOL0     O58209   5.395   0.890   5.127 -0.0755 -0.2211  0.3117
  432MOL0     C58210   5.524   0.934   5.119 -0.5441  0.3482  0.1522
  432MOL0     C58211   5.561   1.038   5.208 -0.5903 -0.2312  0.3542
  432MOL0     C58212   5.687   1.087   5.201  0.1667  0.2616 -0.7935
  432MOL0     C58213   5.778   1.046   5.110 -0.4134  0.8178  0.5119
  432MOL0     C58214   5.912   1.107   5.094 -0.9175 -0.1701  0.3459
  432MOL0     O58215   5.943   1.184   5.202  0.7886 -0.3960  0.2289
  432MOL0     C58216   6.066   1.240   5.221  0.4852 -0.5832  0.1198
  432MOL0     C58217   6.098   1.346   5.143  0.0512 -0.1811  0.1970
  432MOL0     C58218   6.222   1.403   5.167  0.5868  1.0031 -0.2776
  432MOL0     C58219   6.309   1.334   5.255  0.5493 -0.7546  0.8209
  432MOL0     O58220   6.441   1.377   5.262  0.5438  0.2045 -0.5816
  432MOL0     C58221   6.498   1.465   5.155  0.0394 -1.2027  0.1286
  432MOL0     C58222   6.645   1.431   5.139 -0.0912 -0.4997  0.4341
  432MOL0     C58223   6.741   1.479   5.255  0.3870 -0.2278  0.1759
  432MOL0     C58224   6.892   1.459   5.218  0.3689 -0.2486  0.1874
  432MOL0     C58225   6.994   1.512   5.322  0.5091 -0.0501  0.1277
  432MOL0     C58226   7.129   1.463   5.292 -0.7146  0.7148  0.9236
  432MOL0     C58227   7.228   1.540   5.381  0.5023  0.9534  0.0813
  432MOL0     C58228   7.262   1.678   5.329  0.5858 -0.2689  0.6364
  432MOL0    Cl58229   7.406   1.739   5.398 -0.3621  0.1369 -0.0075
  432MOL0     C58230   6.269   1.232   5.337  0.1089  0.4060 -0.9835
  432MOL0     C58231   6.144   1.176   5.324 -0.7076  0.4866 -0.1327
  432MOL0     O58232   5.982   1.091   4.994  0.1110 -0.0052  0.1191
  432MOL0     C58233   5.745   0.937   5.024 -0.1239  0.1444 -0.4967
  432MOL0     C58234   5.617   0.882   5.025  0.7379  0.1762 -0.0736
  432MOL0     N58235   5.182   1.247   5.313  0.0866  0.1657 -0.1367
  432MOL0     N58236   5.272   1.260   5.406 -0.1841  0.4747 -0.0061
  432MOL0     C58237   6.438   1.103   5.657 -0.1775  0.2889 -0.4585
  432MOL0     C58238   6.571   1.136   5.624  0.7984 -0.6202 -0.5844
  432MOL0     C58239   7.007   1.182   5.644  0.2098  0.5413 -0.5930
  432MOL0     C58240   7.050   1.304   5.705  0.1312  0.3174  0.0023
  432MOL0     C58241   7.181   1.345   5.698 -0.1047  0.6433  0.4107
  432MOL0     C58242   7.283   1.272   5.632  0.5314 -0.1564 -0.1357
  432MOL0     O58243   7.418   1.299   5.628  0.6764 -0.5987  0.3287
  432MOL0     C58244   7.445   1.430   5.685 -1.0883  0.5385  0.5286
  432MOL0     C58245   7.590   1.473   5.663  0.0190 -0.0795 -0.4676
  432MOL0     C58246   7.623   1.476   5.518 -0.6647 -0.0282  0.4331
  432MOL0     C58247   7.779   1.492   5.508  0.4487 -0.7046 -0.9144
  432MOL0     C58248   7.820   1.482   5.370 -0.0147  1.2621 -0.7028
  432MOL0     C58249   7.843   1.512   5.252  0.1533  0.7110  0.2212
  432MOL0     C58250   7.237   1.152   5.571 -0.6734  0.5291  0.5940
  432MOL0     C58251   7.105   1.108   5.570  0.0149  0.3853 -0.0376
  432MOL0     C58252   7.076   0.980   5.506  0.3108  0.9187  0.6923
  432MOL0     H58253   6.645   1.331   5.897 -1.2179  0.4418 -0.1811
  432MOL0     H58254   6.426   1.259   5.970 -0.2575 -0.5250  0.7535
  432MOL0     H58255   6.135   1.234   5.695 -0.8304  1.1100  1.8635
  432MOL0     H58256   6.151   1.062   5.656  2.0794 -0.0618  0.6067
  432MOL0     H58257   6.007   1.168   5.906 -2.8821 -0.8335 -0.4552
  432MOL0     H58258   6.004   1.014   5.836 -1.4561  0.9979  3.4931
  432MOL0     H58259   5.906   1.096   5.619  0.1194  2.1369 -1.9370
  432MOL0     H58260   5.908   1.261   5.664 -0.0856 -0.6411 -1.1265
  432MOL0     H58261   5.752   1.050   5.803  1.8328 -2.0624  0.0074
  432MOL0     H58262   5.758   1.213   5.868 -1.3078  0.1754 -0.4036
  432MOL0     H58263   5.670   1.271   5.618  3.5366 -0.6380 -1.4144
  432MOL0     H58264   5.649   1.092   5.599 -0.6066  1.9233 -1.7923
  432MOL0     H58265   5.511   1.060   5.782  3.3508  0.0175 -0.7810
  432MOL0     H58266   5.540   1.234   5.832  2.9956 -0.2661 -0.1971
  432MOL0     H58267   5.442   1.295   5.602  1.4555  0.2847  0.5114
  432MOL0     H58268   5.336   1.261   5.728  0.0699 -0.1731  0.2866
  432MOL0     H58269   5.424   1.029   5.557  1.5900  2.6041 -1.4623
  432MOL0     H58270   5.283   1.043   5.657  1.1981 -3.1254 -2.5126
  432MOL0     H58271   5.158   0.950   5.437  1.1065  0.0045 -0.9092
  432MOL0     H58272   4.965   1.017   5.308  1.6328  0.2402  2.5084
  432MOL0     H58273   5.003   1.094   5.150 -2.9565 -0.0887  0.8007
  432MOL0     H58274   5.158   0.848   5.247 -1.0350 -1.2912  0.7985
  432MOL0     H58275   5.018   0.830   5.155 -0.0916  0.7313  0.1545
  432MOL0     H58276   5.103   0.976   4.966 -0.8967  1.3154  0.6901
  432MOL0     H58277   5.160   0.811   4.993 -2.9821 -0.4530  0.4662
  432MOL0     H58278   5.324   1.065   5.050 -0.4913  0.0710  2.3351
  432MOL0     H58279   5.342   0.938   4.925 -0.9583 -0.0884 -0.1715
  432MOL0     H58280   5.493   1.056   5.290 -0.2643 -1.1575  0.8414
  432MOL0     H58281   5.718   1.174   5.257 -0.0604 -0.9623  1.3202
  432MOL0     H58282   6.036   1.385   5.063  1.9404 -0.9991 -1.8014
  432MOL0     H58283   6.247   1.494   5.115  1.7384  0.5226 -0.5965
  432MOL0     H58284   6.454   1.441   5.058  2.0107 -3.5044 -0.3027
  432MOL0     H58285   6.481   1.570   5.182  0.7793 -1.7763  3.3175
  432MOL0     H58286   6.662   1.323   5.142 -0.6437 -0.5869  0.5068
  432MOL0     H58287   6.690   1.480   5.052  2.8383  0.1752  2.2107
  432MOL0     H58288   6.732   1.588   5.267  1.4234 -0.0142 -0.8938
  432MOL0     H58289   6.709   1.434   5.350  1.1989  3.0179  2.1865
  432MOL0     H58290   6.914   1.496   5.117 -0.3946 -2.7847 -0.9830
  432MOL0     H58291   6.905   1.352   5.200 -0.0487  0.0238 -2.0114
  432MOL0     H58292   6.960   1.482   5.421 -1.4725  1.2014 -0.1076
  432MOL0     H58293   6.982   1.620   5.309 -2.9092 -0.4135 -0.8016
  432MOL0     H58294   7.140   1.356   5.311  1.1403  0.7675  0.3556
  432MOL0     H58295   7.144   1.459   5.183 -0.3978 -3.7051  0.9714
  432MOL0     H58296   7.314   1.472   5.379 -0.1711 -0.0831  2.2443
  432MOL0     H58297   7.194   1.554   5.484  0.1648  1.2936 -0.0710
  432MOL0     H58298   7.284   1.669   5.223  0.8608 -1.6466  0.7978
  432MOL0     H58299   7.183   1.752   5.345 -2.9315 -3.8062  1.1009
  432MOL0     H58300   6.339   1.191   5.409  1.3543  0.8680 -1.8999
  432MOL0     H58301   6.100   1.097   5.384 -0.0587 -1.3931 -1.9986
  432MOL0     H58302   5.812   0.928   4.939 -0.1099  2.7777 -0.8501
  432MOL0     H58303   5.601   0.801   4.956  1.1211  0.8178 -0.9282
  432MOL0     H58304   6.373   1.045   5.592 -2.1984  2.2840 -0.3222
  432MOL0     H58305   6.610   1.110   5.526  0.5337  0.4083 -0.9751
  432MOL0     H58306   6.979   1.364   5.761 -1.8310 -1.1731 -0.7728
  432MOL0     H58307   7.206   1.445   5.730  0.3181  1.4683 -2.2880
  432MOL0     H58308   7.425   1.427   5.792 -2.7621 -2.7053  0.2274
  432MOL0     H58309   7.391   1.513   5.638  1.1792  1.4216 -0.7326
  432MOL0     H58310   7.652   1.406   5.722  0.5799  1.2617  0.5359
  432MOL0     H58311   7.600   1.571   5.712 -0.9652 -1.3427  2.4893
  432MOL0     H58312   7.586   1.561   5.459  3.2670  0.2084 -2.1009
  432MOL0     H58313   7.593   1.383   5.469  0.1254  0.2161 -0.5582
  432MOL0     H58314   7.811   1.587   5.552  1.5263 -0.9548 -1.1327
  432MOL0     H58315   7.826   1.412   5.564 -1.4809 -0.2656  1.5164
  432MOL0     H58316   7.868   1.534   5.151 -3.4528 -0.1819 -1.0285
  432MOL0     H58317   7.320   1.102   5.522 -0.4364  0.3217  1.1970
  432MOL0     H58318   6.978   0.986   5.457  1.1041  0.7921 -0.9856
  432MOL0     H58319   7.136   0.962   5.417 -0.2951  2.6406 -0.1242
  432MOL0     H58320   7.090   0.895   5.573 -0.4158  0.0743 -0.2075
  433MOL0     O58321   5.119   8.894   7.469  0.0585  0.2736 -0.1261
  433MOL0     C58322   5.082   8.811   7.547 -0.4297  0.4631 -0.2562
  433MOL0     O58323   5.173   8.735   7.625  0.8331  0.4447  0.3246
  433MOL0     C58324   5.301   8.775   7.639 -0.4488  0.6064  0.0482
  433MOL0     C58325   5.353   8.806   7.767 -0.7862  0.7348 -0.0293
  433MOL0     C58326   5.493   8.836   7.784  0.5572 -0.8017  0.4595
  433MOL0     C58327   5.573   8.839   7.669 -0.5591  0.0188 -0.0858
  433MOL0     O58328   5.699   8.884   7.671  0.0408 -0.0921  0.8043
  433MOL0     C58329   5.808   8.794   7.664  0.2435  0.0797  0.0370
  433MOL0     C58330   5.942   8.856   7.641  1.0003  0.0924  0.5945
  433MOL0     C58331   5.986   8.928   7.773  0.1272  0.0009  0.5428
  433MOL0     C58332   6.096   9.028   7.740  0.5467  1.0532 -0.5385
  433MOL0     C58333   6.149   9.097   7.863  0.1119  0.5677 -0.0378
  433MOL0     C58334   6.266   9.190   7.818  0.1443 -0.0622 -0.3923
  433MOL0     C58335   6.307   9.275   7.936 -0.0183  0.4833 -0.6519
  433MOL0     C58336   6.444   9.344   7.911 -0.5798 -0.1047  0.3860
  433MOL0     N58337   6.559   9.258   7.894  0.1505 -0.0809  0.1871
  433MOL0     C58338   6.587   9.131   7.945  0.8599 -0.2984  0.1029
  433MOL0     C58339   6.703   9.102   7.901  0.0333  0.2652  0.0928
  433MOL0     C58340   6.784   8.996   7.944 -0.5843 -0.3149 -0.2748
  433MOL0     C58341   6.918   9.045   8.018  0.1014 -0.1258  0.1063
  433MOL0     C58342   6.899   9.106   8.158 -0.3711 -0.5662 -0.0639
  433MOL0     C58343   7.038   9.113   8.220  0.0848  0.2563 -0.8052
  433MOL0     O58344   7.088   8.988   8.265  0.4126  0.0045 -0.3675
  433MOL0     C58345   7.216   8.981   8.313 -0.4158 -1.2193  0.4033
  433MOL0     C58346   7.294   9.105   8.334 -0.1593  0.0851 -0.4522
  433MOL0     C58347   7.427   9.103   8.371 -0.0011 -0.6001 -0.9501
  433MOL0     C58348   7.490   8.979   8.392  0.1310 -0.1569  0.3266
  433MOL0     C58349   7.621   8.967   8.464  0.5965 -0.7593  0.5827
  433MOL0     O58350   7.681   8.849   8.483 -0.6582 -0.0365  0.7086
  433MOL0     C58351   7.793   8.849   8.564  0.3795  0.7991 -0.6358
  433MOL0     C58352   7.802   8.907   8.697  0.6026  0.4740 -0.0354
  433MOL0     C58353   7.916   8.892   8.780 -0.0784  0.4354  0.1341
  433MOL0     C58354   8.027   8.830   8.720  0.1454 -0.0197 -0.0828
  433MOL0     O58355   8.149   8.823   8.776  0.0606  0.0552 -0.5884
  433MOL0     C58356   8.163   8.844   8.920  0.6281  0.2359 -0.4324
  433MOL0     C58357   8.296   8.804   8.977 -1.2499 -0.5127 -0.3666
  433MOL0     C58358   8.405   8.872   8.883 -0.1830  0.4519  0.2450
  433MOL0     C58359   8.554   8.829   8.908 -0.0514  0.6323 -1.0469
  433MOL0     C58360   8.653   8.948   8.927 -0.2931  0.1284  0.0453
  433MOL0     C58361   8.784   8.912   8.986 -0.1091 -0.3410 -1.2599
  433MOL0     C58362   8.898   9.019   8.946 -0.1933 -0.2155 -0.0851
  433MOL0     C58363   9.038   8.968   8.972  0.1611 -0.1916  0.3918
  433MOL0    Cl58364   9.160   9.098   8.973  0.2412  0.3529 -0.0682
  433MOL0     C58365   8.014   8.769   8.594  0.1840 -0.3483 -0.7388
  433MOL0     C58366   7.897   8.758   8.527 -0.1756  0.2851  0.5910
  433MOL0     O58367   7.675   9.077   8.485  0.1649  0.1096 -0.8001
  433MOL0     C58368   7.423   8.862   8.355 -0.4950 -0.9387  0.1648
  433MOL0     C58369   7.289   8.858   8.319 -0.4778 -0.5990  0.2898
  433MOL0     N58370   6.750   9.197   7.817 -0.4652  0.5523  0.2812
  433MOL0     N58371   6.658   9.285   7.805 -0.2096  0.2082 -1.3377
  433MOL0     C58372   5.514   8.796   7.546  0.4952 -0.6483  0.1442
  433MOL0     C58373   5.377   8.766   7.532 -0.3987  0.0460  0.8895
  433MOL0     C58374   4.946   8.761   7.560  0.0394 -0.5684  0.8668
  433MOL0     C58375   4.898   8.700   7.672 -0.2065  0.0652 -0.7033
  433MOL0     C58376   4.766   8.659   7.694 -0.5481 -0.6918 -1.0429
  433MOL0     C58377   4.669   8.683   7.604  0.4439  0.7234  0.5192
  433MOL0     O58378   4.548   8.644   7.639  0.3571  0.8260  0.0845
  433MOL0     C58379   4.430   8.627   7.557  0.4052 -0.5526 -1.3897
  433MOL0     C58380   4.339   8.748   7.560 -0.6736 -0.9205 -0.4975
  433MOL0     C58381   4.201   8.725   7.510  0.5668 -0.0774  0.2119
  433MOL0     C58382   4.110   8.827   7.574  0.6563  0.2133  0.7168
  433MOL0     C58383   3.981   8.806   7.503 -0.8117  0.5970 -0.1936
  433MOL0     C58384   3.886   8.792   7.429  0.3441  1.5010 -0.2882
  433MOL0     C58385   4.715   8.735   7.477 -0.2536  0.6343  0.1372
  433MOL0     C58386   4.850   8.772   7.459  0.0311 -0.2026 -0.5687
  433MOL0     C58387   4.882   8.834   7.315  0.5096 -0.1170  0.8792
  433MOL0     H58388   5.278   8.812   7.844 -2.8006  1.1298 -1.9328
  433MOL0     H58389   5.536   8.866   7.880 -1.7628 -3.5301  2.5166
  433MOL0     H58390   5.811   8.733   7.754  1.0644  0.6619  0.4178
  433MOL0     H58391   5.791   8.719   7.586 -2.0927 -0.6170  1.1131
  433MOL0     H58392   5.924   8.929   7.561  1.5906  2.0758  2.1763
  433MOL0     H58393   6.019   8.785   7.609  1.9785  1.6791 -0.7352
  433MOL0     H58394   6.028   8.859   7.846  0.3795  0.9166  1.2977
  433MOL0     H58395   5.897   8.981   7.809  0.9572  0.0906  2.5774
  433MOL0     H58396   6.170   8.978   7.677 -1.1356  0.6097 -2.2478
  433MOL0     H58397   6.047   9.092   7.667 -1.5028  1.4821  1.1133
  433MOL0     H58398   6.074   9.160   7.911 -0.0577  1.9328 -1.9640
  433MOL0     H58399   6.197   9.026   7.932 -1.6845 -2.9048 -2.1246
  433MOL0     H58400   6.355   9.130   7.796  1.2293  2.2766 -3.0172
  433MOL0     H58401   6.248   9.249   7.728 -0.1574 -1.6544 -1.4256
  433MOL0     H58402   6.311   9.228   8.034 -1.1646 -0.5818 -1.0812
  433MOL0     H58403   6.238   9.360   7.942 -0.3755  0.1141  0.7746
  433MOL0     H58404   6.440   9.414   7.827  1.4459  0.3291  0.5857
  433MOL0     H58405   6.468   9.420   7.985  0.0292  0.8891 -0.7863
  433MOL0     H58406   6.529   9.069   8.013  1.4503  0.3397  1.2172
  433MOL0     H58407   6.729   8.931   8.012 -0.4325 -0.5604 -0.3889
  433MOL0     H58408   6.818   8.936   7.860  2.5615  0.8779  0.0144
  433MOL0     H58409   6.988   8.963   8.035  2.9316  1.9542 -0.9376
  433MOL0     H58410   6.970   9.110   7.948 -1.3230 -0.1057 -0.9749
  433MOL0     H58411   6.835   9.043   8.220  2.3612 -2.6646  0.8296
  433MOL0     H58412   6.862   9.208   8.149  0.3258 -0.1316  1.6803
  433MOL0     H58413   7.026   9.166   8.314 -1.0189 -2.2737  0.5996
  433MOL0     H58414   7.106   9.156   8.146  2.0799 -1.1291  0.1264
  433MOL0     H58415   7.243   9.199   8.313 -4.5723 -1.8944  0.2990
  433MOL0     H58416   7.462   9.205   8.381 -2.7565  0.4509 -1.2267
  433MOL0     H58417   7.719   8.951   8.751  1.6166  1.3546  0.8422
  433MOL0     H58418   7.915   8.932   8.881  0.6497  0.9578 -0.0526
  433MOL0     H58419   8.129   8.945   8.941 -2.3940 -0.9316  0.9282
  433MOL0     H58420   8.085   8.784   8.967 -1.2859  1.3979 -1.9754
  433MOL0     H58421   8.311   8.834   9.081  2.2888  1.1083 -1.2188
  433MOL0     H58422   8.311   8.696   8.964  0.2439 -1.0774  4.0589
  433MOL0     H58423   8.383   8.833   8.783 -0.7786 -3.3921  1.7140
  433MOL0     H58424   8.401   8.982   8.882 -1.9781  0.4308  1.1129
  433MOL0     H58425   8.584   8.754   8.835 -0.4822 -0.4337 -0.1490
  433MOL0     H58426   8.561   8.769   8.999  1.0583  0.1790 -1.4145
  433MOL0     H58427   8.599   9.024   8.985 -1.3899 -0.5503 -0.0418
  433MOL0     H58428   8.682   9.004   8.838 -0.4238  2.9719  1.6755
  433MOL0     H58429   8.774   8.904   9.094  0.2363 -2.3320 -1.3332
  433MOL0     H58430   8.813   8.818   8.937 -0.9271 -0.7669 -0.9640
  433MOL0     H58431   8.880   9.102   9.014  1.9999 -0.4828  0.9118
  433MOL0     H58432   8.891   9.035   8.838 -2.7782  0.8214  0.1676
  433MOL0     H58433   9.052   8.911   9.065 -0.8086 -0.9279  0.1056
  433MOL0     H58434   9.047   8.900   8.887  0.5672  0.5788 -0.1924
  433MOL0     H58435   8.096   8.717   8.547  1.7849 -0.6457  2.1189
  433MOL0     H58436   7.903   8.696   8.438  0.5046 -1.0406  1.5263
  433MOL0     H58437   7.473   8.766   8.364  3.0004  0.7256  0.0534
  433MOL0     H58438   7.235   8.768   8.294  2.2354 -1.9779 -1.0067
  433MOL0     H58439   5.576   8.801   7.456 -0.5148  1.5750 -0.5019
  433MOL0     H58440   5.334   8.729   7.439 -1.3727  0.0861  1.3202
  433MOL0     H58441   4.966   8.687   7.756  0.6138 -0.0447 -1.3653
  433MOL0     H58442   4.736   8.612   7.787  0.4008 -1.4489 -1.1070
  433MOL0     H58443   4.371   8.540   7.590 -0.7097 -0.4474 -2.9474
  433MOL0     H58444   4.469   8.609   7.456  1.5596 -2.5839 -0.6468
  433MOL0     H58445   4.381   8.816   7.485  1.2680 -1.7445 -0.2227
  433MOL0     H58446   4.333   8.793   7.660  2.0978 -0.7913 -0.3147
  433MOL0     H58447   4.162   8.623   7.507  0.0456  0.1075  0.5227
  433MOL0     H58448   4.210   8.749   7.403  1.6085 -0.1595  0.2737
  433MOL0     H58449   4.103   8.803   7.680 -1.8311  0.3499  0.6433
  433MOL0     H58450   4.144   8.930   7.560 -0.7119  0.8795  2.1122
  433MOL0     H58451   3.785   8.778   7.395 -1.0767  1.0832  3.5721
  433MOL0     H58452   4.642   8.755   7.399 -1.4385  1.2345  1.3478
  433MOL0     H58453   4.899   8.942   7.317 -0.7653  0.2778 -2.6057
  433MOL0     H58454   4.971   8.797   7.264 -0.0393 -0.2686  0.0019
  433MOL0     H58455   4.798   8.821   7.245  2.7380 -1.3278 -1.7237
  434MOL0     O58456   9.003   2.014   9.475  0.1599  0.5304 -0.5313
  434MOL0     C58457   9.031   1.906   9.424 -0.1650  0.0900  0.5077
  434MOL0     O58458   9.106   1.799   9.483 -0.1599  0.6946 -0.0710
  434MOL0     C58459   9.178   1.819   9.598 -1.0193  0.1567 -0.4780
  434MOL0     C58460   9.269   1.922   9.619 -0.0760 -0.3158 -0.2309
  434MOL0     C58461   9.352   1.917   9.727  0.1399  0.8186  0.3189
  434MOL0     C58462   9.345   1.804   9.814 -0.9027 -0.6724 -0.4268
  434MOL0     O58463   9.430   1.802   9.923  0.3360 -0.2849  0.0518
  434MOL0     C58464   9.368   1.799  10.047 -0.2303 -0.2358  0.5111
  434MOL0     C58465   9.475   1.810  10.152  0.7467 -0.0662  0.1486
  434MOL0     C58466   9.411   1.792  10.283 -0.0815 -0.0098  0.1212
  434MOL0     C58467   9.507   1.814  10.394 -1.1010 -0.7168  0.2526
  434MOL0     C58468   9.603   1.697  10.412 -0.2940  0.0675  0.8722
  434MOL0     C58469   9.651   1.705  10.559 -0.0478  0.0661  0.5608
  434MOL0     C58470   9.755   1.593  10.586  0.3564 -0.0023 -0.0983
  434MOL0     C58471   9.893   1.621  10.532  0.2585 -0.0150  0.4013
  434MOL0     N58472   9.996   1.522  10.566 -0.5491  1.5405 -0.3890
  434MOL0     C58473  10.132   1.538  10.562 -0.1387  0.7289  1.1271
  434MOL0     C58474  10.199   1.430  10.589  0.4050  0.7604 -1.0688
  434MOL0     C58475  10.349   1.418  10.587 -0.1382  1.1400  0.5903
  434MOL0     C58476  10.389   1.303  10.497  0.2314  0.0690  0.3306
  434MOL0     C58477  10.539   1.270  10.528  0.3615  0.5065 -0.0709
  434MOL0     C58478  10.636   1.357  10.458  0.5493  0.9394 -0.1014
  434MOL0     O58479  10.629   1.344  10.317 -0.2051 -0.1962  0.1804
  434MOL0     C58480  10.737   1.377  10.246 -0.0922 -0.6987  0.1801
  434MOL0     C58481  10.832   1.472  10.279 -0.6335  0.2966 -0.0879
  434MOL0     C58482  10.945   1.488  10.206  0.2607 -0.0757  0.9817
  434MOL0     C58483  10.959   1.419  10.081  0.6488  0.9046  0.9020
  434MOL0     C58484  11.086   1.447   9.995 -0.3468 -0.5654 -0.5231
  434MOL0     O58485  11.098   1.370   9.882  0.5670  0.5496  0.2994
  434MOL0     C58486  11.207   1.388   9.804  0.5315 -0.4352 -0.0542
  434MOL0     C58487  11.330   1.322   9.815 -0.6025  0.1282  0.8827
  434MOL0     C58488  11.432   1.348   9.717  0.1299 -0.6318 -0.0878
  434MOL0     C58489  11.394   1.417   9.602  0.0085 -0.1081 -0.1337
  434MOL0     O58490  11.475   1.429   9.495 -0.7043 -1.0064  0.4532
  434MOL0     C58491  11.446   1.540   9.407 -0.3466  0.0272 -0.8550
  434MOL0     C58492  11.584   1.573   9.332 -0.1871  0.1909  0.1261
  434MOL0     C58493  11.647   1.451   9.245 -0.2037  0.0616  0.9739
  434MOL0     C58494  11.757   1.506   9.143  0.1969  0.3273  0.0410
  434MOL0     C58495  11.881   1.562   9.212  0.1131  1.1809  0.3673
  434MOL0     C58496  11.984   1.587   9.104 -0.2760 -0.5903 -0.3881
  434MOL0     C58497  12.118   1.651   9.158 -0.3882 -0.3016  0.8671
  434MOL0     C58498  12.217   1.663   9.042  0.1448  0.1183 -0.1912
  434MOL0    Cl58499  12.364   1.764   9.094 -0.3369  0.0888  0.2984
  434MOL0     C58500  11.261   1.483   9.599  0.3214  0.4130 -0.9452
  434MOL0     C58501  11.175   1.481   9.711  0.0740  0.3702 -0.3370
  434MOL0     O58502  11.174   1.527  10.031  0.1838  0.0270  0.1402
  434MOL0     C58503  10.855   1.337  10.036  0.1453  0.8696 -0.4386
  434MOL0     C58504  10.748   1.316  10.121  0.2133 -0.2827  0.1902
  434MOL0     N58505  10.102   1.337  10.614 -0.1339 -0.2764 -0.2900
  434MOL0     N58506   9.984   1.388  10.594 -0.1956 -0.3740  0.0706
  434MOL0     C58507   9.256   1.703   9.797 -0.2326 -0.6527 -0.1125
  434MOL0     C58508   9.169   1.717   9.691  0.0217 -0.1804  0.1224
  434MOL0     C58509   8.985   1.880   9.286  0.3108 -0.4701 -0.4734
  434MOL0     C58510   8.860   1.937   9.255 -0.0137 -0.2971 -0.1983
  434MOL0     C58511   8.800   1.913   9.132 -0.6680 -0.5420 -0.0531
  434MOL0     C58512   8.876   1.850   9.024 -0.1311  0.1208 -0.2858
  434MOL0     O58513   8.839   1.838   8.893 -0.3569 -0.7993  0.7664
  434MOL0     C58514   8.758   1.947   8.835 -0.5871  0.1448 -0.5415
  434MOL0     C58515   8.812   1.971   8.688  0.0321  0.4372  0.4329
  434MOL0     C58516   8.718   2.042   8.586 -1.0120  0.1958 -0.0241
  434MOL0     C58517   8.737   2.005   8.438  0.3705 -0.4391  0.0788
  434MOL0     C58518   8.610   2.017   8.355  0.6693 -0.2000 -0.0700
  434MOL0     C58519   8.505   2.042   8.293 -0.2598  0.2463  0.4338
  434MOL0     C58520   8.991   1.790   9.058 -0.2573 -0.0870 -0.4525
  434MOL0     C58521   9.051   1.807   9.180  0.5210  0.2821 -0.4336
  434MOL0     C58522   9.190   1.764   9.199 -0.1067 -0.0051  0.5430
  434MOL0     H58523   9.268   1.999   9.543 -0.9066  0.6068  0.6805
  434MOL0     H58524   9.436   1.982   9.749  1.1925 -0.4111  0.0791
  434MOL0     H58525   9.309   1.892  10.049 -2.8376 -1.7406 -0.8788
  434MOL0     H58526   9.305   1.711  10.065  0.5991 -0.6158  1.7454
  434MOL0     H58527   9.520   1.909  10.150 -1.2122  1.2414  5.1709
  434MOL0     H58528   9.559   1.743  10.132 -0.9687 -1.7322 -2.1777
  434MOL0     H58529   9.373   1.690  10.295 -0.5316 -0.1343 -1.9819
  434MOL0     H58530   9.326   1.858  10.301 -0.3623  0.0050 -1.1780
  434MOL0     H58531   9.551   1.912  10.371 -0.2580 -1.0137  0.5699
  434MOL0     H58532   9.451   1.841  10.483  0.5142  2.7353  0.3933
  434MOL0     H58533   9.554   1.601  10.394 -1.7007  1.0922 -1.2620
  434MOL0     H58534   9.679   1.711  10.334 -2.2128  0.3929 -1.0272
  434MOL0     H58535   9.694   1.804  10.574 -0.6304  0.6207 -1.1724
  434MOL0     H58536   9.573   1.694  10.636  1.2043  1.7899  2.1613
  434MOL0     H58537   9.709   1.503  10.544 -0.9512 -0.0043  1.2704
  434MOL0     H58538   9.767   1.579  10.694 -1.2865  0.8224  0.2137
  434MOL0     H58539   9.886   1.633  10.423  0.1840  1.0039  0.5081
  434MOL0     H58540   9.935   1.715  10.570  0.6673 -1.4121  3.7284
  434MOL0     H58541  10.173   1.635  10.537 -0.0042 -0.7450 -7.4919
  434MOL0     H58542  10.380   1.514  10.546  1.7264 -2.0374 -7.2686
  434MOL0     H58543  10.398   1.409  10.684  1.2191 -2.5694 -0.2669
  434MOL0     H58544  10.332   1.214  10.524  0.7801 -0.7722 -1.1356
  434MOL0     H58545  10.374   1.318  10.389  0.1144 -0.7939  0.2219
  434MOL0     H58546  10.568   1.169  10.498  0.1678  0.6527 -0.7497
  434MOL0     H58547  10.551   1.257  10.636 -2.9886 -1.3777  0.2066
  434MOL0     H58548  10.738   1.354  10.498  0.9689  3.4644 -0.7582
  434MOL0     H58549  10.619   1.456  10.501  0.8555  1.3207 -0.8307
  434MOL0     H58550  10.826   1.517  10.378 -4.7225 -1.7267  0.8136
  434MOL0     H58551  11.023   1.561  10.229  0.3990  0.6435 -1.4975
  434MOL0     H58552  11.345   1.246   9.890  1.5587 -1.1098 -0.6618
  434MOL0     H58553  11.530   1.304   9.731  0.2173 -0.7953 -1.1629
  434MOL0     H58554  11.361   1.508   9.345  0.8905 -2.9502 -1.1883
  434MOL0     H58555  11.423   1.629   9.466  0.1368 -0.3239 -0.1203
  434MOL0     H58556  11.574   1.655   9.260  0.7203 -1.7911 -2.3716
  434MOL0     H58557  11.662   1.589   9.408  2.6416 -1.7889 -2.1587
  434MOL0     H58558  11.688   1.373   9.310  1.1635  0.9478  1.2055
  434MOL0     H58559  11.575   1.397   9.183  0.3508 -0.6840  0.9676
  434MOL0     H58560  11.712   1.573   9.069 -2.2083  0.5415  1.6087
  434MOL0     H58561  11.780   1.417   9.083  0.1687  0.6148 -0.4000
  434MOL0     H58562  11.920   1.486   9.280  0.2521 -0.8149 -1.8259
  434MOL0     H58563  11.866   1.652   9.272  0.1260  1.1939  0.3516
  434MOL0     H58564  12.018   1.494   9.057  0.5161  0.3134 -1.6793
  434MOL0     H58565  11.932   1.660   9.041 -2.5152  0.0508  2.0535
  434MOL0     H58566  12.155   1.597   9.246  0.9312 -1.7534 -0.5405
  434MOL0     H58567  12.100   1.752   9.198 -2.0138  0.3369 -1.3154
  434MOL0     H58568  12.239   1.562   9.006 -1.4098 -0.0007 -0.9062
  434MOL0     H58569  12.167   1.719   8.962 -2.7012  0.3567  1.6163
  434MOL0     H58570  11.227   1.548   9.519 -0.9548  0.4026 -0.4236
  434MOL0     H58571  11.089   1.548   9.708  1.0712  1.6776 -0.5743
  434MOL0     H58572  10.870   1.268   9.954  1.8525 -0.1060  0.6278
  434MOL0     H58573  10.659   1.270  10.081 -0.0358  0.6455 -0.3436
  434MOL0     H58574   9.258   1.622   9.869 -2.9903 -1.1991 -0.5316
  434MOL0     H58575   9.102   1.639   9.657 -1.5508  1.3622 -0.4606
  434MOL0     H58576   8.797   1.977   9.334 -0.9191  0.3810 -1.2315
  434MOL0     H58577   8.699   1.943   9.105 -1.7911 -1.8260  2.3235
  434MOL0     H58578   8.772   2.042   8.888  0.4788 -0.0203 -0.5102
  434MOL0     H58579   8.652   1.924   8.827 -0.5590  0.3391 -1.6843
  434MOL0     H58580   8.835   1.873   8.644 -0.7020  0.9784 -1.2431
  434MOL0     H58581   8.905   2.026   8.702 -1.3401  2.3734  2.5031
  434MOL0     H58582   8.732   2.149   8.599 -0.3012 -0.0182  1.0412
  434MOL0     H58583   8.615   2.019   8.615 -0.4481  0.4063  2.3138
  434MOL0     H58584   8.810   2.070   8.390 -0.5900 -0.3861 -1.3778
  434MOL0     H58585   8.775   1.904   8.418  2.5771  0.5724 -1.1676
  434MOL0     H58586   8.421   2.073   8.235 -0.8478 -1.3421  0.3935
  434MOL0     H58587   9.038   1.742   8.972  0.0004  0.7038 -0.7591
  434MOL0     H58588   9.235   1.749   9.100 -1.1010  0.8620 -0.0558
  434MOL0     H58589   9.242   1.849   9.244  1.1202 -0.5216  0.1751
  434MOL0     H58590   9.196   1.679   9.268  0.1709  1.6919  2.6762
  435MOL0     O58591   2.374   7.382   7.191 -0.3955 -0.0487 -0.3424
  435MOL0     C58592   2.300   7.440   7.266 -0.0563 -0.2984 -0.9214
  435MOL0     O58593   2.329   7.472   7.398  0.8675 -0.0888 -0.5661
  435MOL0     C58594   2.434   7.409   7.452 -0.1216 -0.0896  0.5004
  435MOL0     C58595   2.552   7.477   7.472  0.1221 -0.0791 -0.1833
  435MOL0     C58596   2.667   7.409   7.514  0.7829 -0.3111 -1.4892
  435MOL0     C58597   2.655   7.281   7.566  0.3709 -0.4033 -0.5349
  435MOL0     O58598   2.750   7.209   7.641 -0.5355 -0.0844  0.0687
  435MOL0     C58599   2.882   7.257   7.668  0.0129 -0.5932 -0.3676
  435MOL0     C58600   2.983   7.148   7.632 -0.2793 -0.0049 -0.4130
  435MOL0     C58601   3.131   7.197   7.646  0.6044  0.0231  0.7749
  435MOL0     C58602   3.231   7.098   7.580 -0.0324 -0.8694  0.5269
  435MOL0     C58603   3.379   7.111   7.619  0.1494  0.4242 -0.1066
  435MOL0     C58604   3.481   7.069   7.520  0.2624  0.8525  0.2645
  435MOL0     C58605   3.630   7.104   7.542  0.6810  1.6515  0.3968
  435MOL0     C58606   3.636   7.247   7.512  0.3570 -0.3774  0.1893
  435MOL0     N58607   3.773   7.290   7.484 -0.0315  0.3065  0.8318
  435MOL0     C58608   3.865   7.336   7.579 -0.6026  0.4832  0.5984
  435MOL0     C58609   3.974   7.367   7.506 -0.0734 -0.5611 -0.2478
  435MOL0     C58610   4.105   7.406   7.564  0.0197 -0.0635  0.1799
  435MOL0     C58611   4.145   7.543   7.514  0.5508  0.5347  0.3245
  435MOL0     C58612   4.285   7.581   7.540 -1.1367  0.7998 -0.1214
  435MOL0     C58613   4.309   7.732   7.513 -0.2988  0.2688 -0.0489
  435MOL0     O58614   4.450   7.753   7.504 -0.1943 -0.6993  0.1842
  435MOL0     C58615   4.526   7.793   7.608  0.5910  0.8885  0.0244
  435MOL0     C58616   4.660   7.795   7.584 -0.2551 -0.2282  0.6586
  435MOL0     C58617   4.747   7.830   7.685 -0.5196 -1.3257  1.0036
  435MOL0     C58618   4.700   7.883   7.817  0.2197  0.3283  0.1687
  435MOL0     C58619   4.790   7.923   7.932  0.2301  0.3752 -0.6083
  435MOL0     O58620   4.919   7.899   7.916  0.1743  0.0831 -0.4116
  435MOL0     C58621   5.008   7.960   8.004 -0.2115  0.1321 -0.3652
  435MOL0     C58622   5.124   8.013   7.949  0.1279  1.0298  0.4657
  435MOL0     C58623   5.234   8.045   8.029  0.0950 -0.0906 -0.5398
  435MOL0     C58624   5.223   8.045   8.167 -0.1998 -0.1553 -0.8041
  435MOL0     O58625   5.341   8.077   8.233 -0.5651  0.1538  0.1033
  435MOL0     C58626   5.340   8.203   8.299  0.2361  0.3361 -0.7009
  435MOL0     C58627   5.477   8.213   8.354 -0.7732  0.0430 -0.4372
  435MOL0     C58628   5.500   8.354   8.417  0.3069 -0.7371 -0.0897
  435MOL0     C58629   5.636   8.379   8.478 -0.4762 -1.1681  0.4664
  435MOL0     C58630   5.639   8.502   8.564  0.0561 -0.7463 -0.6225
  435MOL0     C58631   5.764   8.587   8.551  0.5942  0.0935 -0.0387
  435MOL0     C58632   5.785   8.690   8.669  0.1587  0.3402  0.8589
  435MOL0     C58633   5.914   8.763   8.661  0.1969 -0.8978  0.2868
  435MOL0    Cl58634   5.910   8.858   8.509 -0.1982 -0.3406 -0.3376
  435MOL0     C58635   5.101   8.002   8.226  0.5321 -0.3633  0.0472
  435MOL0     C58636   4.991   7.960   8.145 -0.6635  0.7243 -0.2730
  435MOL0     O58637   4.729   7.971   8.026  0.0896 -0.2639 -1.0054
  435MOL0     C58638   4.559   7.871   7.834 -0.4279  0.2085  0.2171
  435MOL0     C58639   4.469   7.824   7.732  0.5970  0.3436  0.1063
  435MOL0     N58640   3.939   7.358   7.375 -0.6192 -0.3213  0.2882
  435MOL0     N58641   3.817   7.315   7.359 -0.3119 -0.3119  0.1428
  435MOL0     C58642   2.532   7.216   7.562 -1.0444  0.5437  1.0951
  435MOL0     C58643   2.424   7.281   7.503  0.0536  0.4449 -0.9152
  435MOL0     C58644   2.176   7.501   7.209 -0.8490 -0.4448 -1.5727
  435MOL0     C58645   2.143   7.635   7.244 -0.1564 -0.8713  1.1062
  435MOL0     C58646   2.018   7.681   7.215 -0.4115  0.5934 -0.0769
  435MOL0     C58647   1.930   7.607   7.131 -0.4380 -0.3920  0.5870
  435MOL0     O58648   1.811   7.665   7.089 -0.2879  1.0604  0.4910
  435MOL0     C58649   1.793   7.806   7.081  0.7886 -0.2134 -0.3271
  435MOL0     C58650   1.698   7.841   6.968  0.5911  0.0595 -0.2079
  435MOL0     C58651   1.557   7.790   6.992 -0.2068 -0.0181 -1.1704
  435MOL0     C58652   1.483   7.788   6.857 -0.3280 -1.4039 -0.2661
  435MOL0     C58653   1.341   7.780   6.891 -0.5720  0.8506  0.4627
  435MOL0     C58654   1.225   7.762   6.911  0.2328  0.9697  0.3737
  435MOL0     C58655   1.971   7.485   7.083 -0.1987 -0.0055  0.9401
  435MOL0     C58656   2.092   7.426   7.117 -0.7396  0.0959 -1.1839
  435MOL0     C58657   2.123   7.288   7.077  0.2068  0.0113  0.9408
  435MOL0     H58658   2.568   7.574   7.427  0.3614 -0.4309 -0.8784
  435MOL0     H58659   2.759   7.464   7.498  2.2322 -1.7566  1.2559
  435MOL0     H58660   2.916   7.344   7.610  2.1089 -0.8035  0.4464
  435MOL0     H58661   2.901   7.282   7.773  5.4698  0.2302 -1.2237
  435MOL0     H58662   2.974   7.124   7.526  2.9366 -4.3802  0.0201
  435MOL0     H58663   2.964   7.059   7.693 -0.1605 -0.7282 -1.4122
  435MOL0     H58664   3.155   7.210   7.752  0.3645  0.1285  0.8166
  435MOL0     H58665   3.139   7.295   7.598 -2.6933 -0.5272 -1.2010
  435MOL0     H58666   3.204   6.995   7.604  1.6247 -1.0317  1.9000
  435MOL0     H58667   3.224   7.116   7.472  1.4039 -0.8850  0.4173
  435MOL0     H58668   3.398   7.213   7.651 -4.1911  1.1310  0.9262
  435MOL0     H58669   3.391   7.046   7.707 -1.8164  1.3334  0.9121
  435MOL0     H58670   3.472   6.961   7.511 -0.3504  0.7883  1.4810
  435MOL0     H58671   3.445   7.116   7.428  0.7201  1.7868  0.5526
  435MOL0     H58672   3.683   7.039   7.472  0.1696 -1.2638  2.5028
  435MOL0     H58673   3.661   7.068   7.641  1.5092 -0.3271 -0.5372
  435MOL0     H58674   3.573   7.285   7.431  2.1053 -0.3582 -1.2165
  435MOL0     H58675   3.607   7.300   7.603  1.3710 -0.5922  0.6504
  435MOL0     H58676   3.842   7.344   7.685 -1.4499  0.6615  0.4059
  435MOL0     H58677   4.104   7.407   7.674  2.9915 -1.3362  0.3263
  435MOL0     H58678   4.176   7.329   7.532 -1.6887 -2.6330  2.1336
  435MOL0     H58679   4.134   7.538   7.405  0.1217 -0.4831  0.4050
  435MOL0     H58680   4.080   7.619   7.557  1.9881 -0.2725  4.4081
  435MOL0     H58681   4.348   7.531   7.466 -2.2441 -1.5833  0.4621
  435MOL0     H58682   4.329   7.565   7.638 -0.0884 -0.5316 -0.7767
  435MOL0     H58683   4.252   7.786   7.588 -2.0630 -1.5804  0.0388
  435MOL0     H58684   4.267   7.757   7.415  0.8585  0.6581 -0.4648
  435MOL0     H58685   4.706   7.784   7.486  0.6778  3.0992  0.6090
  435MOL0     H58686   4.854   7.836   7.672 -0.7572  2.3962 -0.4150
  435MOL0     H58687   5.147   7.985   7.847  3.0241  1.1398  1.0037
  435MOL0     H58688   5.324   8.066   7.972 -0.9575 -1.4308 -2.8315
  435MOL0     H58689   5.326   8.295   8.242 -0.7608  1.9037  1.9219
  435MOL0     H58690   5.264   8.207   8.378  0.4286 -2.5544 -0.2639
  435MOL0     H58691   5.478   8.136   8.432 -4.9517 -0.0177 -0.2363
  435MOL0     H58692   5.555   8.193   8.280 -1.1269 -2.8197 -0.1302
  435MOL0     H58693   5.484   8.445   8.360 -0.0394 -0.3294  0.6474
  435MOL0     H58694   5.426   8.348   8.498 -0.5737 -1.7992 -0.9410
  435MOL0     H58695   5.697   8.403   8.390 -0.9623  1.1406  0.7054
  435MOL0     H58696   5.670   8.289   8.530 -0.5749 -1.2655  0.3639
  435MOL0     H58697   5.638   8.480   8.671  1.7879  1.8913  0.0339
  435MOL0     H58698   5.545   8.555   8.546 -0.4633 -1.7931 -1.0521
  435MOL0     H58699   5.853   8.525   8.538 -0.3100 -1.5961  1.3991
  435MOL0     H58700   5.755   8.645   8.459  1.7223 -3.3639 -2.5203
  435MOL0     H58701   5.786   8.639   8.765 -1.9692  1.7592  1.7122
  435MOL0     H58702   5.703   8.763   8.671  0.6037  0.8545  0.5859
  435MOL0     H58703   5.914   8.836   8.742  0.6067  1.3044 -1.5799
  435MOL0     H58704   6.005   8.703   8.667  0.8255  0.1568  1.7120
  435MOL0     H58705   5.079   8.013   8.332 -2.3223 -1.4263 -0.3388
  435MOL0     H58706   4.898   7.926   8.190  0.1058 -3.6725 -1.5324
  435MOL0     H58707   4.514   7.902   7.928  2.7811  2.4026  1.1784
  435MOL0     H58708   4.361   7.823   7.745  0.2224 -2.2131 -2.2977
  435MOL0     H58709   2.524   7.120   7.612 -1.9847 -1.3156 -2.3350
  435MOL0     H58710   2.331   7.225   7.495  0.2391 -0.2144  0.9055
  435MOL0     H58711   2.209   7.685   7.314  2.4344 -1.0971 -1.0128
  435MOL0     H58712   1.987   7.772   7.266 -0.5239  0.8201 -0.5394
  435MOL0     H58713   1.879   7.867   7.055  1.3209 -0.7775  0.0799
  435MOL0     H58714   1.748   7.854   7.169  2.4369  2.0430 -0.6337
  435MOL0     H58715   1.736   7.796   6.875  0.1519  1.6050 -1.1814
  435MOL0     H58716   1.690   7.950   6.958 -1.7779 -0.0521  0.0372
  435MOL0     H58717   1.511   7.850   7.071 -2.6539 -2.4368 -0.6229
  435MOL0     H58718   1.560   7.687   7.028  0.4506  0.4185  0.0747
  435MOL0     H58719   1.503   7.879   6.799  1.1416 -1.0653  0.7188
  435MOL0     H58720   1.517   7.701   6.800  0.3762 -0.1426 -1.8452
  435MOL0     H58721   1.121   7.749   6.932 -0.3013  4.0874  0.1572
  435MOL0     H58722   1.898   7.440   7.017 -2.3591  1.9165  1.9001
  435MOL0     H58723   2.217   7.287   7.022 -1.5296 -2.2436 -2.3735
  435MOL0     H58724   2.122   7.227   7.168  0.3163  0.0007  0.9345
  435MOL0     H58725   2.047   7.249   7.007 -0.9031  0.5189  1.8304
  436MOL0     O58726   2.164  10.046   5.792  0.0328 -0.3130  0.1800
  436MOL0     C58727   2.268  10.102   5.822 -0.2055  0.0844  0.5521
  436MOL0     O58728   2.396  10.085   5.765  0.0090  0.1229  0.2511
  436MOL0     C58729   2.397  10.007   5.657 -1.0669 -0.2165  0.3370
  436MOL0     C58730   2.346  10.044   5.532  0.4464 -0.2972 -0.7230
  436MOL0     C58731   2.359   9.949   5.421 -0.3766 -0.6476  0.5537
  436MOL0     C58732   2.434   9.832   5.441  0.3301  0.3584 -0.6336
  436MOL0     O58733   2.429   9.759   5.329  0.0473 -0.1200  0.1443
  436MOL0     C58734   2.551   9.697   5.289  0.0277  0.3818  0.3766
  436MOL0     C58735   2.534   9.644   5.146 -0.6285  0.3636 -0.3731
  436MOL0     C58736   2.575   9.742   5.034  0.9751 -0.2569 -0.4551
  436MOL0     C58737   2.486   9.864   5.029  0.2603 -0.0484  0.1191
  436MOL0     C58738   2.352   9.815   4.969  0.2502  0.6936  0.6894
  436MOL0     C58739   2.220   9.875   5.019 -0.0924 -0.7755 -0.5421
  436MOL0     C58740   2.215  10.025   4.969  0.2532 -0.3192 -0.2962
  436MOL0     C58741   2.079  10.102   5.000 -0.5318 -0.1780  0.1286
  436MOL0     N58742   2.064  10.138   5.138  0.5489 -0.7956  0.3340
  436MOL0     C58743   2.007  10.056   5.230  0.2845  0.2283 -0.0640
  436MOL0     C58744   2.020  10.118   5.349  0.8897  0.5145  0.5630
  436MOL0     C58745   1.961  10.063   5.479  0.5309 -0.0793  0.0954
  436MOL0     C58746   1.851  10.153   5.535  0.3078  0.7519  0.4538
  436MOL0     C58747   1.793  10.078   5.659 -0.1205  0.1429 -0.3129
  436MOL0     C58748   1.655  10.122   5.702 -0.3727 -0.3836 -0.5632
  436MOL0     O58749   1.565  10.095   5.592  0.3984 -0.7135 -0.4732
  436MOL0     C58750   1.435  10.081   5.615  0.0137  0.2688 -0.0596
  436MOL0     C58751   1.355  10.024   5.518  0.2119 -0.0732 -1.1337
  436MOL0     C58752   1.217  10.002   5.532 -1.3874 -0.0895  0.6561
  436MOL0     C58753   1.161  10.039   5.657 -0.4206 -0.0357 -0.9256
  436MOL0     C58754   1.018  10.007   5.678  0.7911  0.0204 -0.1424
  436MOL0     O58755   0.945   9.950   5.572  0.6168  0.1999  0.7083
  436MOL0     C58756   0.820   9.900   5.579  0.2184  0.2970  0.3053
  436MOL0     C58757   0.792   9.766   5.563  0.6265  0.1798  0.6748
  436MOL0     C58758   0.663   9.719   5.576  0.5288 -0.1422  1.1416
  436MOL0     C58759   0.558   9.809   5.603  0.6556  0.2653 -0.1306
  436MOL0     O58760   0.437   9.746   5.610  0.1413  0.2356 -0.7617
  436MOL0     C58761   0.340   9.837   5.661  0.0891  0.3994 -1.2971
  436MOL0     C58762   0.217   9.772   5.712  0.6911 -0.0541 -0.1032
  436MOL0     C58763   0.147   9.695   5.602 -0.1299 -1.0095 -0.0133
  436MOL0     C58764  -0.005   9.677   5.630  0.2870 -0.4408 -0.3438
  436MOL0     C58765  -0.081   9.624   5.512 -0.6502  0.3756 -0.8530
  436MOL0     C58766  -0.016   9.500   5.442 -1.8166  0.8577  0.1306
  436MOL0     C58767  -0.120   9.439   5.344 -0.3449 -0.4656 -0.9884
  436MOL0     C58768  -0.240   9.365   5.400 -0.6199 -0.7792  0.2025
  436MOL0    Cl58769  -0.350   9.299   5.276  0.3059 -0.1021 -0.7331
  436MOL0     C58770   0.587   9.942   5.606  0.1990 -0.2003 -1.2315
  436MOL0     C58771   0.716   9.992   5.597  0.1172  0.7286  0.5511
  436MOL0     O58772   0.971  10.006   5.790  0.4258  0.1901 -0.4157
  436MOL0     C58773   1.231  10.112   5.750 -0.3876  0.0869 -0.7896
  436MOL0     C58774   1.366  10.130   5.727 -0.2348 -0.2046  0.5612
  436MOL0     N58775   2.081  10.238   5.331 -0.3547  0.3124 -0.4637
  436MOL0     N58776   2.113  10.250   5.207  0.3575 -0.1235  0.9306
  436MOL0     C58777   2.493   9.793   5.564 -0.6349  0.0900 -0.5848
  436MOL0     C58778   2.468   9.884   5.672  0.5841 -0.5535  0.4224
  436MOL0     C58779   2.258  10.205   5.924  0.2200  0.7265 -1.1207
  436MOL0     C58780   2.144  10.286   5.928 -0.1924 -0.2946 -0.4810
  436MOL0     C58781   2.135  10.391   6.022 -0.1273 -0.9962 -0.0975
  436MOL0     C58782   2.241  10.415   6.109 -0.3707 -0.2747 -0.2262
  436MOL0     O58783   2.248  10.512   6.198  0.4888  0.0628  0.5501
  436MOL0     C58784   2.135  10.604   6.206  0.7228 -0.2599 -0.1239
  436MOL0     C58785   2.191  10.724   6.272 -1.5467  0.0053  0.0935
  436MOL0     C58786   2.095  10.824   6.332  1.0397  0.0211 -0.2803
  436MOL0     C58787   2.152  10.963   6.358 -0.0842 -0.3772 -0.7721
  436MOL0     C58788   2.054  11.033   6.437  0.3863 -0.2606  0.7978
  436MOL0     C58789   1.970  11.104   6.483  0.5306 -0.1565  0.0169
  436MOL0     C58790   2.351  10.328   6.110 -1.4824  0.1874 -0.0008
  436MOL0     C58791   2.366  10.217   6.020  0.0576 -1.0933 -0.1158
  436MOL0     C58792   2.481  10.118   6.036 -0.5409  0.0600 -0.0440
  436MOL0     H58793   2.289  10.136   5.526 -1.3650 -1.3117 -0.1082
  436MOL0     H58794   2.320   9.974   5.323  0.8168 -0.7021  0.0454
  436MOL0     H58795   2.640   9.759   5.304  0.7501 -0.4707 -0.2617
  436MOL0     H58796   2.566   9.614   5.359 -1.5642  0.3278  0.7017
  436MOL0     H58797   2.437   9.593   5.141 -1.8415  2.3068  1.7580
  436MOL0     H58798   2.610   9.566   5.137 -1.0615 -0.0767 -0.2875
  436MOL0     H58799   2.571   9.691   4.938 -1.4744  1.2580 -1.2504
  436MOL0     H58800   2.674   9.789   5.039 -0.9536  4.4589 -0.8088
  436MOL0     H58801   2.456   9.889   5.131 -0.2606 -0.1715 -0.0010
  436MOL0     H58802   2.538   9.948   4.983  0.4177 -0.4124 -0.3670
  436MOL0     H58803   2.365   9.827   4.861  0.2655 -1.0347  0.4732
  436MOL0     H58804   2.341   9.707   4.975  1.8095  0.4767  0.2010
  436MOL0     H58805   2.132   9.824   4.980 -0.8260 -0.0058  0.0682
  436MOL0     H58806   2.204   9.881   5.127  2.2291 -0.0725 -0.1795
  436MOL0     H58807   2.231  10.037   4.861 -1.8830 -0.8844 -0.7065
  436MOL0     H58808   2.289  10.075   5.033  2.1524 -2.2654 -0.8493
  436MOL0     H58809   2.074  10.199   4.950 -1.1616  0.5195  1.4729
  436MOL0     H58810   2.005  10.031   4.962  0.9930 -2.1857  0.7107
  436MOL0     H58811   1.967   9.957   5.212 -1.3946  0.6788  0.9273
  436MOL0     H58812   1.912   9.967   5.459  0.5408  0.3370 -2.1938
  436MOL0     H58813   2.030  10.062   5.564  0.4657  2.6771  0.2716
  436MOL0     H58814   1.909  10.242   5.562  1.8554  0.4138 -1.5310
  436MOL0     H58815   1.777  10.174   5.457  0.1516 -1.8321 -0.1654
  436MOL0     H58816   1.862  10.098   5.741 -0.8433 -0.2518  0.4066
  436MOL0     H58817   1.786   9.969   5.646  0.2909  0.0710  0.0495
  436MOL0     H58818   1.655  10.230   5.721 -0.2235 -0.4413 -0.2335
  436MOL0     H58819   1.619  10.070   5.791 -3.1980  0.1725 -1.2823
  436MOL0     H58820   1.398  10.001   5.422  0.2161  1.4299 -1.5124
  436MOL0     H58821   1.167   9.948   5.453  0.0316 -1.0126  0.3510
  436MOL0     H58822   0.874   9.698   5.542  0.6924  0.1376  1.0673
  436MOL0     H58823   0.631   9.619   5.548 -0.2431  0.5773 -0.7183
  436MOL0     H58824   0.371   9.898   5.746  0.9918 -2.4759  0.6018
  436MOL0     H58825   0.306   9.902   5.580 -0.6249 -0.1023 -1.4167
  436MOL0     H58826   0.239   9.701   5.792 -2.5179 -0.6235  0.4319
  436MOL0     H58827   0.154   9.850   5.757  0.7074 -1.3034  2.2314
  436MOL0     H58828   0.171   9.737   5.505 -0.6384 -2.3969 -0.7696
  436MOL0     H58829   0.193   9.596   5.593  1.0956 -0.4066 -0.4884
  436MOL0     H58830  -0.044   9.778   5.649  2.1796  0.7480 -2.2906
  436MOL0     H58831  -0.020   9.607   5.713  0.6336 -0.9369 -0.6955
  436MOL0     H58832  -0.089   9.705   5.439 -3.2379  1.4595  0.4700
  436MOL0     H58833  -0.180   9.606   5.555 -0.2080  2.5120  1.2904
  436MOL0     H58834   0.072   9.536   5.388 -1.6287  0.1886 -0.0196
  436MOL0     H58835   0.014   9.434   5.524  0.0360  1.7124  0.1951
  436MOL0     H58836  -0.053   9.370   5.292 -0.6825 -1.5022 -0.0692
  436MOL0     H58837  -0.164   9.518   5.282 -1.6390  0.1580  0.6495
  436MOL0     H58838  -0.196   9.279   5.452 -1.7210 -0.4671  1.7149
  436MOL0     H58839  -0.286   9.433   5.472  3.0108  2.5243 -0.2377
  436MOL0     H58840   0.516  10.020   5.631  0.6564  0.5520 -2.2019
  436MOL0     H58841   0.742  10.096   5.613  2.6451  0.2720 -0.1016
  436MOL0     H58842   1.185  10.149   5.842 -4.5923  2.4135 -3.4914
  436MOL0     H58843   1.427  10.180   5.801  3.2212 -2.1857 -0.7044
  436MOL0     H58844   2.536   9.695   5.576  1.9172  1.1917 -0.0714
  436MOL0     H58845   2.502   9.869   5.774  1.0486  1.5826  0.6327
  436MOL0     H58846   2.066  10.264   5.857  1.6252  0.2227 -2.7483
  436MOL0     H58847   2.040  10.443   6.027  1.8182  2.9454 -0.4693
  436MOL0     H58848   2.055  10.572   6.273 -0.4686 -0.0305 -1.3889
  436MOL0     H58849   2.088  10.633   6.112 -4.0732  0.6254  2.2151
  436MOL0     H58850   2.270  10.767   6.210  1.1521 -0.0281  3.2329
  436MOL0     H58851   2.257  10.694   6.354  1.4220  1.4618 -1.5659
  436MOL0     H58852   2.064  10.781   6.428  2.9222 -1.5814 -0.3553
  436MOL0     H58853   2.007  10.836   6.268 -0.0764  0.6852  1.3089
  436MOL0     H58854   2.238  10.957   6.425 -1.2859  0.6432  0.9444
  436MOL0     H58855   2.177  11.014   6.265 -0.0094  2.8550  0.8508
  436MOL0     H58856   1.885  11.157   6.519 -0.5335 -1.8994  0.1986
  436MOL0     H58857   2.431  10.343   6.181 -3.0389 -0.5642  2.0057
  436MOL0     H58858   2.552  10.157   6.109 -1.0081 -1.3027  1.1717
  436MOL0     H58859   2.445  10.020   6.069 -0.8079  0.7201  1.7419
  436MOL0     H58860   2.531  10.103   5.940  0.3564 -0.2226  0.4663
  437MOL0     O58861  10.683   6.970   7.978 -0.3656  0.4756 -0.2827
  437MOL0     C58862  10.633   7.052   8.053 -0.1414 -0.3763  0.1113
  437MOL0     O58863  10.700   7.126   8.140  0.2664  0.0955  0.4888
  437MOL0     C58864  10.830   7.096   8.175 -0.4476  0.1457  0.4654
  437MOL0     C58865  10.932   7.113   8.085 -0.6805 -0.0134  0.5571
  437MOL0     C58866  11.064   7.095   8.123 -0.6469  1.1366 -1.0330
  437MOL0     C58867  11.104   7.038   8.247 -0.6597  0.1014  0.0296
  437MOL0     O58868  11.221   6.990   8.295 -0.0254 -0.0413 -0.1715
  437MOL0     C58869  11.339   7.054   8.243 -0.0049  0.0052 -0.1181
  437MOL0     C58870  11.456   6.955   8.250 -0.0624  0.4155  0.4658
  437MOL0     C58871  11.588   7.019   8.249 -0.0408  0.2396 -0.5257
  437MOL0     C58872  11.703   6.913   8.241  0.4797 -0.0920 -0.6367
  437MOL0     C58873  11.831   6.992   8.233  0.4456 -0.1391  0.0451
  437MOL0     C58874  11.943   6.898   8.227 -0.3342  0.2717  0.8949
  437MOL0     C58875  12.085   6.955   8.234  0.1772 -0.3920 -0.7555
  437MOL0     C58876  12.105   7.076   8.139 -0.0151 -0.2083  0.2611
  437MOL0     N58877  12.238   7.129   8.164  0.1773  0.5523  0.1516
  437MOL0     C58878  12.264   7.212   8.261 -0.0548 -0.2710  0.0362
  437MOL0     C58879  12.397   7.241   8.239 -0.1130  0.1307  0.4720
  437MOL0     C58880  12.468   7.339   8.326 -0.5758 -0.3096 -0.2564
  437MOL0     C58881  12.589   7.265   8.395  0.1554 -0.2735  0.0257
  437MOL0     C58882  12.696   7.366   8.444 -0.8630  0.0265  0.3041
  437MOL0     C58883  12.838   7.303   8.474  0.1322 -0.3759 -0.7324
  437MOL0     O58884  12.819   7.211   8.581 -0.3458  0.1655  0.5686
  437MOL0     C58885  12.921   7.116   8.595 -0.2933 -0.5091 -0.0107
  437MOL0     C58886  13.038   7.101   8.514  0.3896 -0.1737 -0.2080
  437MOL0     C58887  13.129   6.999   8.544  0.7140 -0.5097 -0.0978
  437MOL0     C58888  13.099   6.899   8.643 -0.1542  0.0765 -0.2544
  437MOL0     C58889  13.199   6.792   8.675 -0.2076  1.0345 -0.1248
  437MOL0     O58890  13.291   6.753   8.584  0.1393  0.6086 -0.7976
  437MOL0     C58891  13.398   6.694   8.647 -0.8696  0.8268 -0.4119
  437MOL0     C58892  13.509   6.777   8.691  0.1637  0.3836 -0.2054
  437MOL0     C58893  13.622   6.722   8.753  0.4147  0.0458 -0.7473
  437MOL0     C58894  13.627   6.583   8.772  0.4264  0.5768  0.0266
  437MOL0     O58895  13.730   6.527   8.837  0.5299 -0.8804  0.2752
  437MOL0     C58896  13.833   6.611   8.893 -0.0719 -0.2976 -0.0856
  437MOL0     C58897  13.940   6.518   8.952  0.3897 -0.2767 -0.3819
  437MOL0     C58898  14.059   6.595   9.007 -0.4025  0.5256  0.2666
  437MOL0     C58899  14.157   6.507   9.095 -0.4130 -0.6425 -0.1896
  437MOL0     C58900  14.288   6.581   9.138  0.4699 -0.5888  0.1352
  437MOL0     C58901  14.398   6.492   9.191 -0.6821  0.7186 -0.4133
  437MOL0     C58902  14.518   6.579   9.225 -0.0611  0.4433  0.3452
  437MOL0     C58903  14.635   6.567   9.132 -0.3739  0.2735  0.2104
  437MOL0    Cl58904  14.597   6.631   8.970 -0.3571  0.1884 -0.0099
  437MOL0     C58905  13.522   6.500   8.730 -0.7377 -0.2290  0.1308
  437MOL0     C58906  13.408   6.554   8.661 -0.3559 -0.6572 -0.1725
  437MOL0     O58907  13.192   6.748   8.788 -0.2615  0.5134 -0.3980
  437MOL0     C58908  12.977   6.913   8.716 -0.7367  0.2188  1.2692
  437MOL0     C58909  12.895   7.022   8.695  0.4122  0.2849  0.3818
  437MOL0     N58910  12.441   7.164   8.137 -0.3478  0.8932  0.4171
  437MOL0     N58911  12.347   7.098   8.089  0.6460 -0.1504 -0.5203
  437MOL0     C58912  10.997   7.024   8.337 -1.1441  0.0741  0.7286
  437MOL0     C58913  10.870   7.049   8.299 -0.2571  1.1895  1.0725
  437MOL0     C58914  10.485   7.069   8.033  0.0497  0.3958 -0.7986
  437MOL0     C58915  10.407   6.963   7.979  0.4394 -0.0104  0.3789
  437MOL0     C58916  10.268   6.965   7.969 -0.4442  0.0669 -0.1979
  437MOL0     C58917  10.206   7.089   8.000 -0.5305 -0.1341  0.6928
  437MOL0     O58918  10.078   7.120   7.971  0.3683 -0.4361 -0.0746
  437MOL0     C58919  10.025   7.072   7.845  0.4349 -0.1841 -0.4045
  437MOL0     C58920   9.880   7.100   7.838  0.4052 -0.4367 -0.0787
  437MOL0     C58921   9.825   7.114   7.693  0.5167  0.2068  0.4430
  437MOL0     C58922   9.672   7.100   7.686 -0.2110  0.2383 -0.2624
  437MOL0     C58923   9.621   7.240   7.708 -0.4672 -0.6808 -0.0670
  437MOL0     C58924   9.584   7.356   7.727 -0.0237 -0.5103  0.6865
  437MOL0     C58925  10.279   7.194   8.058  0.2372  0.3376 -0.4789
  437MOL0     C58926  10.418   7.184   8.080 -0.6650  0.9246  0.2501
  437MOL0     C58927  10.475   7.301   8.145 -0.1156 -0.0437 -0.4111
  437MOL0     H58928  10.902   7.157   7.990 -2.1478 -0.7166  0.6712
  437MOL0     H58929  11.140   7.111   8.047  0.0753 -1.2847 -0.8876
  437MOL0     H58930  11.327   7.091   8.141  0.8451  1.9461  0.4494
  437MOL0     H58931  11.353   7.143   8.304 -1.4581  0.1389  0.0482
  437MOL0     H58932  11.443   6.878   8.174  0.4325 -0.2078  0.9971
  437MOL0     H58933  11.449   6.891   8.339  1.5580 -2.7512 -1.5064
  437MOL0     H58934  11.600   7.084   8.337  4.9002 -1.8218  0.6599
  437MOL0     H58935  11.599   7.092   8.169 -2.5075  2.7538  1.2424
  437MOL0     H58936  11.694   6.846   8.327 -0.4032  0.2302 -0.4697
  437MOL0     H58937  11.701   6.856   8.148 -1.0795  2.0982 -2.0377
  437MOL0     H58938  11.831   7.045   8.138  0.7201  0.3085  0.2903
  437MOL0     H58939  11.846   7.060   8.318  1.4056  0.2889 -0.4438
  437MOL0     H58940  11.945   6.826   8.309  0.7344 -2.3333 -1.2442
  437MOL0     H58941  11.928   6.854   8.128  0.0873  1.5229  0.2469
  437MOL0     H58942  12.166   6.882   8.224 -1.1263 -2.2742  1.4817
  437MOL0     H58943  12.084   6.987   8.338 -4.4757  1.3151 -1.0954
  437MOL0     H58944  12.095   7.046   8.034  2.0370  1.2504 -0.4207
  437MOL0     H58945  12.034   7.156   8.162  2.2873  2.3673 -0.9039
  437MOL0     H58946  12.190   7.251   8.330 -0.2315 -1.1397  0.3579
  437MOL0     H58947  12.494   7.424   8.262 -1.0418  2.0266  2.4524
  437MOL0     H58948  12.396   7.378   8.398 -1.2849 -2.2666  0.1595
  437MOL0     H58949  12.556   7.209   8.483  0.7776 -0.4289  0.1683
  437MOL0     H58950  12.635   7.204   8.317  1.2585 -0.1683  0.5727
  437MOL0     H58951  12.669   7.416   8.538 -1.6739  1.8762 -0.8715
  437MOL0     H58952  12.716   7.449   8.376  1.8183 -0.8658 -0.1017
  437MOL0     H58953  12.908   7.383   8.501  0.8127 -0.9075 -0.8973
  437MOL0     H58954  12.874   7.264   8.378  1.1203  0.1365 -0.5771
  437MOL0     H58955  13.062   7.167   8.432  0.3047 -0.5197 -0.5200
  437MOL0     H58956  13.223   7.008   8.490  0.2385 -2.0079 -1.2437
  437MOL0     H58957  13.505   6.885   8.677  0.0752  0.2713 -1.1480
  437MOL0     H58958  13.705   6.789   8.775 -0.1338  2.2210 -4.4004
  437MOL0     H58959  13.882   6.677   8.821 -1.1243  2.4054  1.5196
  437MOL0     H58960  13.786   6.674   8.969  1.0635  0.2428  0.1811
  437MOL0     H58961  13.896   6.457   9.032 -0.0825  0.2646 -0.2194
  437MOL0     H58962  13.978   6.456   8.871  3.2914 -0.1669  0.8014
  437MOL0     H58963  14.112   6.644   8.925  2.0125  0.1191  1.4807
  437MOL0     H58964  14.021   6.671   9.076  0.0422  0.8268  0.1878
  437MOL0     H58965  14.178   6.417   9.037 -1.0137  0.0495 -1.5151
  437MOL0     H58966  14.102   6.480   9.186  3.1930  0.5580  2.6233
  437MOL0     H58967  14.259   6.647   9.221  1.0555 -0.2270  0.0540
  437MOL0     H58968  14.328   6.648   9.062 -1.0075  1.3487  0.9606
  437MOL0     H58969  14.361   6.440   9.279  1.7412 -3.9570 -1.8335
  437MOL0     H58970  14.422   6.416   9.116 -1.1290 -0.3125  0.4626
  437MOL0     H58971  14.562   6.550   9.321  0.4704  2.7494  0.8365
  437MOL0     H58972  14.491   6.684   9.236 -0.4799  0.1994  1.8628
  437MOL0     H58973  14.709   6.635   9.175  1.0134 -1.0838  0.0625
  437MOL0     H58974  14.674   6.465   9.126  3.0386  1.3740  1.4705
  437MOL0     H58975  13.530   6.393   8.747 -3.5884 -0.3256  1.4050
  437MOL0     H58976  13.324   6.490   8.638 -0.3674 -1.8833  2.7659
  437MOL0     H58977  12.943   6.836   8.784 -0.5274 -0.2299  0.8748
  437MOL0     H58978  12.805   7.033   8.754 -0.8039 -1.7377 -0.9511
  437MOL0     H58979  11.019   6.981   8.434  1.3637 -3.0922 -1.0362
  437MOL0     H58980  10.793   7.026   8.371  0.4811 -0.2020  1.4636
  437MOL0     H58981  10.461   6.880   7.936  1.1037  0.0862  0.9996
  437MOL0     H58982  10.195   6.898   7.926  1.0266 -0.2046 -2.4355
  437MOL0     H58983  10.022   6.963   7.840  0.0631 -0.5252  3.6324
  437MOL0     H58984  10.076   7.119   7.760  2.1165  0.7561  1.0371
  437MOL0     H58985   9.853   7.190   7.895  1.3095 -1.9587  2.9560
  437MOL0     H58986   9.822   7.023   7.889 -1.4428  0.8078 -0.1971
  437MOL0     H58987   9.862   7.025   7.641 -1.1393 -2.0304  2.8515
  437MOL0     H58988   9.865   7.203   7.642 -1.0738  1.2704  0.9502
  437MOL0     H58989   9.653   7.070   7.582  1.8823  2.2985 -1.3429
  437MOL0     H58990   9.636   7.023   7.755 -1.6793  0.2046 -1.0290
  437MOL0     H58991   9.554   7.457   7.750  3.1539  0.1394  2.6189
  437MOL0     H58992  10.211   7.273   8.089 -3.4729 -3.3783  1.9601
  437MOL0     H58993  10.397   7.367   8.181 -2.1138 -3.1921  1.5225
  437MOL0     H58994  10.532   7.258   8.228 -1.1244  0.8314  0.7602
  437MOL0     H58995  10.538   7.357   8.075  1.3609  2.4625  2.6686
  438MOL0     O58996   5.355   2.941   2.326 -0.4768  0.4009  0.3668
  438MOL0     C58997   5.327   3.034   2.257 -0.2459 -0.3826  0.1592
  438MOL0     O58998   5.403   3.150   2.245  0.0617  0.8346  0.0118
  438MOL0     C58999   5.528   3.157   2.310  0.8450 -0.2220 -0.9496
  438MOL0     C59000   5.647   3.176   2.234  0.8026  0.7200  0.7418
  438MOL0     C59001   5.773   3.169   2.296  0.0590 -0.3004 -0.3156
  438MOL0     C59002   5.787   3.134   2.434  0.4610  0.9205  0.2000
  438MOL0     O59003   5.919   3.104   2.482  0.5134 -0.5667 -0.2892
  438MOL0     C59004   6.033   3.110   2.394 -0.0011  0.3714 -0.2394
  438MOL0     C59005   6.158   3.080   2.486 -0.2070  0.4836 -0.2721
  438MOL0     C59006   6.265   3.020   2.397 -0.4997  0.2822  0.1928
  438MOL0     C59007   6.399   3.030   2.463  0.3313  0.7124  0.2206
  438MOL0     C59008   6.500   2.963   2.373  0.1520  0.1097  0.2848
  438MOL0     C59009   6.631   3.021   2.422  0.4009 -0.2828  0.1736
  438MOL0     C59010   6.751   2.949   2.362  0.2348  0.4793  0.4432
  438MOL0     C59011   6.888   3.026   2.383 -0.3646 -0.1747  0.6506
  438MOL0     N59012   7.001   2.938   2.365  1.0146  0.0124 -0.4628
  438MOL0     C59013   7.029   2.887   2.235  1.0451 -0.3561 -1.2256
  438MOL0     C59014   7.127   2.795   2.253 -0.1347 -0.2745 -0.1153
  438MOL0     C59015   7.203   2.725   2.148 -0.2996 -0.4820 -0.4221
  438MOL0     C59016   7.111   2.670   2.036  0.4549  0.4069  0.5598
  438MOL0     C59017   7.187   2.575   1.945  0.3058  0.5306 -0.2968
  438MOL0     C59018   7.315   2.625   1.877 -0.0948 -0.4063 -0.1846
  438MOL0     O59019   7.340   2.535   1.770  0.4363 -0.0451 -0.3642
  438MOL0     C59020   7.475   2.522   1.731  0.5494  0.6315 -0.1738
  438MOL0     C59021   7.571   2.619   1.756  0.6242 -1.0185 -0.2009
  438MOL0     C59022   7.708   2.601   1.720  0.6776 -0.1528 -0.1894
  438MOL0     C59023   7.747   2.478   1.665 -1.2259 -0.2065 -1.1811
  438MOL0     C59024   7.885   2.446   1.642  0.6640 -0.7110  0.1553
  438MOL0     O59025   7.967   2.560   1.635 -0.3313  0.3569  0.3465
  438MOL0     C59026   8.091   2.556   1.584 -0.1118 -0.5271  0.7040
  438MOL0     C59027   8.188   2.596   1.676  0.1102  0.4925 -0.3558
  438MOL0     C59028   8.327   2.580   1.641  0.4084  0.0627 -1.1751
  438MOL0     C59029   8.353   2.525   1.513  0.2399  0.2236  0.2572
  438MOL0     O59030   8.474   2.485   1.476  0.1189  0.0254  0.6585
  438MOL0     C59031   8.585   2.517   1.558 -0.0667  0.1709 -0.3461
  438MOL0     C59032   8.716   2.494   1.485 -0.1544  0.0815 -0.0326
  438MOL0     C59033   8.833   2.535   1.562 -0.7086  0.0457  0.3550
  438MOL0     C59034   8.964   2.534   1.478  0.1370 -0.2064  0.5978
  438MOL0     C59035   9.090   2.585   1.558  0.2784  0.5577  0.4514
  438MOL0     C59036   9.217   2.556   1.476 -0.4384  0.7940 -0.4492
  438MOL0     C59037   9.339   2.598   1.546  0.3657 -0.0057 -0.3837
  438MOL0     C59038   9.462   2.596   1.461 -0.4575 -0.3638  0.3846
  438MOL0    Cl59039   9.491   2.437   1.394  0.0417 -0.0932 -0.3463
  438MOL0     C59040   8.255   2.486   1.429 -0.1517  0.8676 -0.5632
  438MOL0     C59041   8.120   2.497   1.459  0.2721 -0.3636 -0.3325
  438MOL0     O59042   7.922   2.330   1.623 -0.1629 -0.3313  0.4420
  438MOL0     C59043   7.648   2.385   1.622 -0.8823 -0.7162  1.0341
  438MOL0     C59044   7.519   2.402   1.662  0.2558 -0.1393 -0.7099
  438MOL0     N59045   7.150   2.786   2.388  0.1063  0.5546  0.1787
  438MOL0     N59046   7.073   2.868   2.453 -0.3113  0.0365  0.3283
  438MOL0     C59047   5.671   3.107   2.506 -0.0622  0.1973  0.2207
  438MOL0     C59048   5.544   3.126   2.445  0.4081 -0.3908  0.3918
  438MOL0     C59049   5.194   3.014   2.187 -0.4311 -1.3575  0.1014
  438MOL0     C59050   5.103   2.931   2.244 -0.3788  0.9381 -1.1759
  438MOL0     C59051   4.989   2.887   2.183  0.0414  0.0170 -0.7157
  438MOL0     C59052   4.963   2.933   2.049  1.2117  0.6874  0.2656
  438MOL0     O59053   4.846   2.888   2.004  0.0881  0.2179  0.3075
  438MOL0     C59054   4.824   2.895   1.862 -0.4441  0.5656  0.1002
  438MOL0     C59055   4.682   2.858   1.826  0.5990 -0.3378 -0.0151
  438MOL0     C59056   4.663   2.705   1.836 -0.3931  0.5382  0.3819
  438MOL0     C59057   4.521   2.653   1.815  0.5549 -0.5246  0.6492
  438MOL0     C59058   4.441   2.720   1.923  0.5653  0.2316 -0.0829
  438MOL0     C59059   4.378   2.770   2.010 -0.5283 -1.0783 -0.1528
  438MOL0     C59060   5.058   3.015   1.981  1.5773  0.1916 -0.8797
  438MOL0     C59061   5.168   3.064   2.057  0.6356 -0.0486  0.3051
  438MOL0     C59062   5.270   3.144   1.986  0.2335  0.2039 -0.2345
  438MOL0     H59063   5.639   3.180   2.126  3.9875 -3.1367  0.1379
  438MOL0     H59064   5.855   3.174   2.225 -2.2313 -1.7550 -3.2684
  438MOL0     H59065   6.027   3.043   2.308  1.3602 -0.4225  0.2575
  438MOL0     H59066   6.050   3.215   2.368 -0.9314  0.8626  1.0385
  438MOL0     H59067   6.133   3.012   2.568  1.1790 -0.3889 -0.5252
  438MOL0     H59068   6.187   3.173   2.537  2.3351 -1.4065  2.0182
  438MOL0     H59069   6.281   3.075   2.304 -0.7022 -0.4482 -0.2835
  438MOL0     H59070   6.231   2.920   2.368 -0.8660  1.0579 -2.3251
  438MOL0     H59071   6.424   3.136   2.469 -0.9370  1.0730 -0.5227
  438MOL0     H59072   6.395   2.977   2.559  0.6517 -0.8560 -0.5904
  438MOL0     H59073   6.505   2.854   2.375  1.7153  0.1483  0.0176
  438MOL0     H59074   6.474   3.001   2.273  0.4347  0.4880  0.3551
  438MOL0     H59075   6.639   3.123   2.383 -0.7110 -1.7729 -4.7379
  438MOL0     H59076   6.634   3.016   2.531 -2.1799  2.7235  0.5441
  438MOL0     H59077   6.735   2.921   2.258  0.0285 -0.1416  0.6373
  438MOL0     H59078   6.770   2.856   2.416 -0.7018  0.9509  1.6173
  438MOL0     H59079   6.894   3.108   2.310  0.1437 -0.1321  0.7303
  438MOL0     H59080   6.895   3.073   2.482  2.0813 -1.3349  1.1069
  438MOL0     H59081   6.984   2.928   2.144 -1.5596  2.5071  1.0901
  438MOL0     H59082   7.272   2.798   2.104 -1.5479  1.4386  0.6640
  438MOL0     H59083   7.253   2.639   2.195  0.0894 -0.3510 -0.5976
  438MOL0     H59084   7.029   2.620   2.087 -1.3443  2.6243 -0.0044
  438MOL0     H59085   7.069   2.756   1.982  1.9533  0.8451  0.0400
  438MOL0     H59086   7.116   2.540   1.869  0.4462  2.3227 -1.3071
  438MOL0     H59087   7.212   2.488   2.007  0.8774  1.9330  1.5286
  438MOL0     H59088   7.386   2.624   1.960 -1.0381  0.5995  0.6587
  438MOL0     H59089   7.306   2.730   1.847  1.1177  0.0150  0.8187
  438MOL0     H59090   7.536   2.714   1.795  2.6899 -0.1673 -0.3240
  438MOL0     H59091   7.792   2.660   1.755 -1.4564  1.3075  2.9954
  438MOL0     H59092   8.164   2.636   1.774  1.8475  1.0790 -0.1380
  438MOL0     H59093   8.401   2.601   1.718 -1.7908  0.3921  0.9556
  438MOL0     H59094   8.585   2.617   1.603  2.8748 -0.9682  2.5144
  438MOL0     H59095   8.572   2.443   1.637 -0.0882  1.4183  0.8643
  438MOL0     H59096   8.731   2.389   1.460  1.7732  0.1699  0.6331
  438MOL0     H59097   8.709   2.553   1.393  0.1085 -1.1943 -0.8874
  438MOL0     H59098   8.817   2.638   1.594  2.2970  0.0177  2.3084
  438MOL0     H59099   8.852   2.471   1.649 -0.9340 -1.1702 -0.4677
  438MOL0     H59100   8.962   2.590   1.384  0.8598  0.9383  1.2407
  438MOL0     H59101   8.982   2.432   1.445 -1.0497  0.1465 -1.2799
  438MOL0     H59102   9.099   2.518   1.644 -1.2922 -0.2448  0.0299
  438MOL0     H59103   9.084   2.693   1.575  2.7300  1.4375 -3.1489
  438MOL0     H59104   9.223   2.449   1.453  1.3909  0.8533 -0.4178
  438MOL0     H59105   9.221   2.608   1.379  0.4802  1.0248 -0.3026
  438MOL0     H59106   9.350   2.522   1.625 -2.7057  0.5482  0.7440
  438MOL0     H59107   9.325   2.693   1.598 -0.5871 -0.2065 -0.2413
  438MOL0     H59108   9.451   2.668   1.379 -0.4637 -1.3059 -0.4661
  438MOL0     H59109   9.552   2.633   1.510 -1.1006  1.4378  0.2882
  438MOL0     H59110   8.284   2.440   1.335 -0.3997 -0.7151  0.1062
  438MOL0     H59111   8.059   2.458   1.378  1.0728 -0.5254 -0.8674
  438MOL0     H59112   7.671   2.288   1.579  1.3390  1.0312 -2.1196
  438MOL0     H59113   7.453   2.316   1.650  1.8160 -1.4387 -0.2210
  438MOL0     H59114   5.682   3.081   2.611 -1.3414 -1.7324 -0.0750
  438MOL0     H59115   5.454   3.102   2.501  0.7781  0.7227  1.5125
  438MOL0     H59116   5.109   2.885   2.342 -0.6904  1.7438 -0.7690
  438MOL0     H59117   4.917   2.821   2.229  0.3897 -1.4862 -2.2578
  438MOL0     H59118   4.894   2.829   1.810 -2.9010 -0.6945 -1.8082
  438MOL0     H59119   4.836   2.999   1.829 -3.4573  0.9945  0.1220
  438MOL0     H59120   4.658   2.893   1.726  1.4691  0.1969 -0.0519
  438MOL0     H59121   4.619   2.917   1.894  0.0956  1.1306 -1.6690
  438MOL0     H59122   4.703   2.666   1.930 -0.4501 -2.4516 -0.7329
  438MOL0     H59123   4.727   2.653   1.764  0.4271  1.3474  0.4975
  438MOL0     H59124   4.483   2.679   1.716  0.2577  2.5903  1.4890
  438MOL0     H59125   4.527   2.544   1.824 -1.6261 -0.9214 -1.7796
  438MOL0     H59126   4.313   2.816   2.082  1.1631  1.1271  0.0503
  438MOL0     H59127   5.044   3.030   1.874  0.0951  1.5672 -0.5469
  438MOL0     H59128   5.230   3.187   1.893  0.1352 -0.4510 -0.5037
  438MOL0     H59129   5.314   3.227   2.041  0.8479  2.2571 -3.5341
  438MOL0     H59130   5.354   3.078   1.960 -0.1312 -1.1854  1.9175
  439MOL0     O59131   2.526   7.817   5.494  0.6604 -1.2080 -0.7370
  439MOL0     C59132   2.528   7.742   5.594  0.5820  0.4785 -0.5436
  439MOL0     O59133   2.634   7.676   5.633 -0.1140  0.1222 -0.1131
  439MOL0     C59134   2.757   7.718   5.587  0.4084 -0.1504  0.2304
  439MOL0     C59135   2.851   7.644   5.514 -0.3985  0.3273  0.8058
  439MOL0     C59136   2.975   7.705   5.476  0.0652 -0.1528 -0.3364
  439MOL0     C59137   3.016   7.828   5.521 -0.0430  0.0016  0.6325
  439MOL0     O59138   3.136   7.889   5.505 -0.1451 -0.2927 -0.1599
  439MOL0     C59139   3.247   7.805   5.466  0.0373  0.3860 -0.4246
  439MOL0     C59140   3.370   7.884   5.481 -0.5763  0.0132  0.3872
  439MOL0     C59141   3.497   7.817   5.431 -1.0549 -0.3302  0.0688
  439MOL0     C59142   3.631   7.871   5.501  0.4059  0.3864 -0.0782
  439MOL0     C59143   3.665   8.011   5.458  0.4161 -0.0574 -0.1623
  439MOL0     C59144   3.786   8.060   5.537  1.1577  0.3274 -0.5032
  439MOL0     C59145   3.842   8.198   5.503 -0.2082 -0.5215 -0.2169
  439MOL0     C59146   3.741   8.305   5.535 -0.5324  0.1462 -0.3339
  439MOL0     N59147   3.737   8.326   5.680  0.0546  0.1072  0.5401
  439MOL0     C59148   3.843   8.361   5.755 -0.2888  0.3172  0.4333
  439MOL0     C59149   3.818   8.328   5.878  1.1215 -0.1859 -0.1826
  439MOL0     C59150   3.892   8.359   6.010 -0.1606  0.5074 -0.3702
  439MOL0     C59151   3.912   8.220   6.092  0.2218 -0.1333  0.6295
  439MOL0     C59152   3.951   8.262   6.238 -0.0294  0.2994 -0.5670
  439MOL0     C59153   4.095   8.297   6.245  0.0150 -0.1494  0.1963
  439MOL0     O59154   4.177   8.183   6.233 -0.0307 -0.2034  0.7191
  439MOL0     C59155   4.313   8.221   6.210 -0.2483  0.0435  0.1001
  439MOL0     C59156   4.373   8.344   6.240  0.0810 -0.0139 -0.3414
  439MOL0     C59157   4.506   8.370   6.238  0.3694 -1.1224 -1.2705
  439MOL0     C59158   4.592   8.267   6.203  0.8682  0.3815 -0.2051
  439MOL0     C59159   4.739   8.285   6.209  0.7037 -0.2721 -0.2389
  439MOL0     O59160   4.787   8.413   6.203  0.3254 -0.1302 -0.7429
  439MOL0     C59161   4.923   8.432   6.208  0.0994 -0.2126 -0.2293
  439MOL0     C59162   4.980   8.516   6.115  0.3195 -0.0775  0.0865
  439MOL0     C59163   5.120   8.542   6.116  0.0690 -0.4498 -0.0953
  439MOL0     C59164   5.198   8.506   6.224 -0.8474  0.6143  0.4009
  439MOL0     O59165   5.338   8.535   6.230 -0.0579  0.5087 -0.2360
  439MOL0     C59166   5.401   8.598   6.122 -0.6503  0.4791 -0.3538
  439MOL0     C59167   5.550   8.606   6.150 -0.1860  0.3296  0.2803
  439MOL0     C59168   5.620   8.644   6.016  1.0511  0.0683 -0.8448
  439MOL0     C59169   5.739   8.731   6.046  0.2416  0.6535 -0.0148
  439MOL0     C59170   5.834   8.749   5.921 -0.1410  0.5584 -1.3231
  439MOL0     C59171   5.932   8.856   5.953  0.0436  0.0677  0.4352
  439MOL0     C59172   6.022   8.899   5.839 -0.3028 -0.4108 -0.1721
  439MOL0     C59173   6.158   8.961   5.888 -0.3912 -0.4162 -0.2326
  439MOL0    Cl59174   6.253   9.014   5.753 -0.2590  0.0698 -0.1024
  439MOL0     C59175   5.137   8.417   6.317  0.1804 -0.3753 -0.0802
  439MOL0     C59176   5.003   8.379   6.312 -0.1417 -0.0002 -1.0132
  439MOL0     O59177   4.806   8.183   6.210 -0.1617 -0.1647  0.5086
  439MOL0     C59178   4.540   8.140   6.173  0.9786 -0.5074  0.0545
  439MOL0     C59179   4.403   8.117   6.170 -0.3914  0.7587 -0.0671
  439MOL0     N59180   3.686   8.284   5.877  0.2358  0.0386 -0.5491
  439MOL0     N59181   3.637   8.277   5.760 -0.2514  0.3255 -0.7592
  439MOL0     C59182   2.924   7.895   5.593  1.0789  0.3986 -0.7802
  439MOL0     C59183   2.795   7.848   5.622  0.7603  0.7660 -1.1814
  439MOL0     C59184   2.398   7.691   5.643  0.0285 -0.3759  0.1451
  439MOL0     C59185   2.402   7.567   5.718  0.9191  0.0706  0.0320
  439MOL0     C59186   2.284   7.508   5.755  0.2921  1.0678  0.5956
  439MOL0     C59187   2.164   7.578   5.764 -0.6329  0.6072  0.5089
  439MOL0     O59188   2.061   7.508   5.824  0.7064 -0.6382  0.2311
  439MOL0     C59189   1.968   7.591   5.912  0.6748  0.6034  0.4949
  439MOL0     C59190   1.821   7.586   5.855  0.6447 -0.3934  0.5643
  439MOL0     C59191   1.772   7.441   5.822 -0.2984 -0.9495 -0.4412
  439MOL0     C59192   1.775   7.344   5.939  0.3580 -0.1665  0.3798
  439MOL0     C59193   1.642   7.336   6.010 -0.0644 -0.0028 -0.3607
  439MOL0     C59194   1.535   7.338   6.066  0.4691  0.1973 -0.7529
  439MOL0     C59195   2.148   7.696   5.686 -0.6591  0.1584 -0.5441
  439MOL0     C59196   2.269   7.753   5.626 -0.2651 -0.9741 -0.0687
  439MOL0     C59197   2.251   7.871   5.531 -0.2808  0.2476 -0.4324
  439MOL0     H59198   2.831   7.538   5.499  0.2442  0.2782  0.2698
  439MOL0     H59199   3.045   7.645   5.418 -0.0172  1.2090 -1.9463
  439MOL0     H59200   3.235   7.712   5.522 -1.4202  1.8465  1.8754
  439MOL0     H59201   3.247   7.790   5.358  2.1226  1.7726 -0.6705
  439MOL0     H59202   3.389   7.888   5.588  0.2061  0.1535  0.2465
  439MOL0     H59203   3.345   7.984   5.446 -1.8191 -0.3225  0.2807
  439MOL0     H59204   3.499   7.808   5.322 -1.8721  2.8015 -0.3238
  439MOL0     H59205   3.480   7.715   5.465  0.4657 -0.6788 -0.1176
  439MOL0     H59206   3.616   7.866   5.609  1.5079  0.2650  0.0837
  439MOL0     H59207   3.715   7.803   5.479 -0.1678  0.4894 -3.0244
  439MOL0     H59208   3.678   8.025   5.350 -0.1198  4.6566  0.1638
  439MOL0     H59209   3.584   8.083   5.471  0.7436 -0.1611  3.5279
  439MOL0     H59210   3.761   8.052   5.644  2.6813  0.7925 -0.0803
  439MOL0     H59211   3.858   7.978   5.531  2.2669  1.3289 -6.1569
  439MOL0     H59212   3.856   8.199   5.395 -0.0851  0.8810 -0.2039
  439MOL0     H59213   3.940   8.212   5.548 -0.4531  0.5826 -0.0048
  439MOL0     H59214   3.770   8.404   5.499 -2.4211  0.4434 -1.1767
  439MOL0     H59215   3.640   8.290   5.497 -1.4618 -1.9731  2.6297
  439MOL0     H59216   3.936   8.401   5.715 -1.2496  1.4250 -0.7894
  439MOL0     H59217   3.985   8.409   5.983 -0.1258 -0.4855 -2.2338
  439MOL0     H59218   3.827   8.431   6.061 -1.5423 -1.4141  0.7623
  439MOL0     H59219   3.811   8.177   6.085 -0.4123  1.4772 -0.7207
  439MOL0     H59220   3.978   8.147   6.045 -2.2917 -1.8942 -0.3775
  439MOL0     H59221   3.937   8.180   6.309  2.3683  0.6322  0.3777
  439MOL0     H59222   3.895   8.348   6.275  0.2142 -0.1438  0.9133
  439MOL0     H59223   4.101   8.345   6.343 -0.4632 -1.4364  0.8936
  439MOL0     H59224   4.130   8.370   6.171  0.9004  0.0828  0.8257
  439MOL0     H59225   4.308   8.420   6.282 -3.9596 -2.6615 -1.1970
  439MOL0     H59226   4.547   8.460   6.284 -1.1973  0.0537 -2.0752
  439MOL0     H59227   4.925   8.558   6.032  1.3362  2.1411  0.4447
  439MOL0     H59228   5.158   8.610   6.041 -0.9403  0.0766 -0.1509
  439MOL0     H59229   5.378   8.544   6.031 -0.9942  0.2197 -0.1145
  439MOL0     H59230   5.358   8.699   6.122  0.2164  0.8993 -2.6768
  439MOL0     H59231   5.575   8.684   6.223  0.6117 -0.6753  1.1005
  439MOL0     H59232   5.584   8.509   6.187  1.3324  1.8075  3.0741
  439MOL0     H59233   5.657   8.556   5.962  3.1896 -1.1331  2.2475
  439MOL0     H59234   5.551   8.694   5.948  0.6051  0.5625 -0.0513
  439MOL0     H59235   5.800   8.699   6.131 -1.4356 -0.2514  0.8964
  439MOL0     H59236   5.696   8.829   6.070 -1.3839  0.3935 -1.6345
  439MOL0     H59237   5.784   8.793   5.835 -1.7339  0.8781 -0.2834
  439MOL0     H59238   5.886   8.657   5.892  1.2890  0.8706  0.0908
  439MOL0     H59239   5.886   8.950   5.984  1.4737  0.1243  2.6032
  439MOL0     H59240   5.994   8.836   6.041 -0.9057  1.9507  1.5934
  439MOL0     H59241   5.962   8.969   5.781 -1.7723 -0.6169  1.0553
  439MOL0     H59242   6.038   8.804   5.786 -1.1505 -1.2066  0.9502
  439MOL0     H59243   6.131   9.046   5.952  0.7691 -0.6259  0.5550
  439MOL0     H59244   6.222   8.889   5.939  2.9360  2.2004 -0.3736
  439MOL0     H59245   5.196   8.387   6.402 -2.1948  0.1191  1.8558
  439MOL0     H59246   4.973   8.300   6.381  3.5118  0.9271  1.9407
  439MOL0     H59247   4.612   8.065   6.139 -0.6379 -0.6209 -3.6388
  439MOL0     H59248   4.360   8.022   6.141  3.3462 -0.8833 -0.8366
  439MOL0     H59249   2.952   7.984   5.648 -2.0261 -0.5357  2.7183
  439MOL0     H59250   2.736   7.913   5.685  1.8127  1.4085 -0.8364
  439MOL0     H59251   2.491   7.506   5.726  0.3167 -0.8662 -0.2516
  439MOL0     H59252   2.274   7.413   5.808  2.6079  0.5581  0.2490
  439MOL0     H59253   1.994   7.697   5.920  0.2230  0.6256  2.2998
  439MOL0     H59254   1.972   7.563   6.018 -1.1110  1.1336  0.7398
  439MOL0     H59255   1.802   7.653   5.771  2.8605  1.2346  1.2652
  439MOL0     H59256   1.755   7.624   5.934 -1.2042  0.7739 -1.4233
  439MOL0     H59257   1.833   7.404   5.738  0.9000 -0.5625  0.2328
  439MOL0     H59258   1.673   7.455   5.778  0.9050  1.9747 -2.5501
  439MOL0     H59259   1.819   7.247   5.915  0.0410 -0.7497  2.0034
  439MOL0     H59260   1.844   7.375   6.018 -0.0380 -0.0460  0.6834
  439MOL0     H59261   1.449   7.338   6.131  1.4236 -0.9747  0.5793
  439MOL0     H59262   2.049   7.740   5.680 -1.7744 -2.0259  0.9581
  439MOL0     H59263   2.270   7.844   5.426 -2.1272 -3.0552 -0.0715
  439MOL0     H59264   2.150   7.912   5.542 -0.1907  0.2216  0.5918
  439MOL0     H59265   2.318   7.949   5.565 -0.5373 -0.0455  0.7956
  440MOL0     O59266   4.262   6.874   0.017 -0.7706  0.1722 -0.8119
  440MOL0     C59267   4.174   6.892  -0.066 -0.3197  0.9409 -0.1424
  440MOL0     O59268   4.194   6.929  -0.193 -0.2337 -0.7005  0.3610
  440MOL0     C59269   4.319   6.918  -0.261  0.1969  0.2023 -0.0033
  440MOL0     C59270   4.446   6.895  -0.205 -1.0953  0.2220 -0.4525
  440MOL0     C59271   4.558   6.910  -0.276 -0.4517  0.3827 -0.3936
  440MOL0     C59272   4.558   6.925  -0.416  0.2334  0.0818  0.1737
  440MOL0     O59273   4.671   6.943  -0.498  0.0241  0.1690 -0.3032
  440MOL0     C59274   4.794   6.979  -0.437  0.1984 -0.0632 -0.1908
  440MOL0     C59275   4.779   7.130  -0.409 -0.3982 -0.3109  0.4679
  440MOL0     C59276   4.895   7.172  -0.319  0.2706  0.2554 -0.4034
  440MOL0     C59277   4.905   7.330  -0.321 -0.4711  0.0065 -0.0272
  440MOL0     C59278   5.027   7.389  -0.249 -0.3044 -0.3571  1.1384
  440MOL0     C59279   5.037   7.541  -0.276  0.6279 -0.0284 -0.2629
  440MOL0     C59280   5.172   7.609  -0.223  0.5414  0.3612  0.3890
  440MOL0     C59281   5.288   7.602  -0.330 -0.3666  0.7537  0.1607
  440MOL0     N59282   5.390   7.704  -0.310  0.3243  0.0995  0.2603
  440MOL0     C59283   5.478   7.751  -0.411  0.4581  0.3560 -0.6780
  440MOL0     C59284   5.567   7.829  -0.346 -0.7521  0.2349  0.2023
  440MOL0     C59285   5.682   7.898  -0.407 -0.1432 -0.0312  0.6617
  440MOL0     C59286   5.811   7.852  -0.345 -1.1342  0.2984  0.3897
  440MOL0     C59287   5.925   7.915  -0.437  0.0726 -0.0661  0.2207
  440MOL0     C59288   6.062   7.874  -0.387 -0.1366  0.4198  0.2244
  440MOL0     O59289   6.166   7.960  -0.436 -0.2285 -0.1458 -0.1356
  440MOL0     C59290   6.288   7.954  -0.364 -0.0740 -0.3142  0.1094
  440MOL0     C59291   6.316   7.880  -0.248  0.6402 -0.2971  1.3953
  440MOL0     C59292   6.440   7.881  -0.201 -0.6371  0.3827 -0.0403
  440MOL0     C59293   6.543   7.956  -0.255  0.0147 -0.7335  0.4170
  440MOL0     C59294   6.684   7.938  -0.196  0.7628 -0.3506  0.1852
  440MOL0     O59295   6.720   7.809  -0.156  0.4992 -0.2122  0.3557
  440MOL0     C59296   6.837   7.777  -0.096  0.0958  0.2377 -0.5543
  440MOL0     C59297   6.837   7.684   0.015  0.6789  0.4693 -0.5313
  440MOL0     C59298   6.948   7.641   0.086 -1.3207 -0.1285  0.0789
  440MOL0     C59299   7.071   7.685   0.046 -0.0218 -0.7402  0.2019
  440MOL0     O59300   7.185   7.632   0.106 -0.2071  0.1659 -0.8007
  440MOL0     C59301   7.177   7.531   0.207  0.6455 -0.1990  0.1389
  440MOL0     C59302   7.315   7.525   0.281  0.0205 -0.3441  0.4692
  440MOL0     C59303   7.424   7.431   0.210  0.4347  0.0898 -0.1525
  440MOL0     C59304   7.567   7.461   0.259 -0.4239 -0.0775  0.4872
  440MOL0     C59305   7.659   7.332   0.253  0.2988 -0.3461 -1.3123
  440MOL0     C59306   7.800   7.360   0.308  0.3664  0.0145 -0.9302
  440MOL0     C59307   7.891   7.240   0.280  0.7002  0.1883 -0.5527
  440MOL0     C59308   8.020   7.273   0.358  0.5974 -0.0132  0.0896
  440MOL0    Cl59309   8.161   7.157   0.336  0.1328 -0.0734 -0.2761
  440MOL0     C59310   7.078   7.781  -0.056 -0.2768 -0.3027  0.3978
  440MOL0     C59311   6.966   7.823  -0.124 -0.3033  0.4446  0.8610
  440MOL0     O59312   6.760   8.035  -0.192 -0.4614  0.5164  0.6037
  440MOL0     C59313   6.522   8.020  -0.377  0.4688 -1.0945 -0.3136
  440MOL0     C59314   6.399   8.010  -0.437  0.1122 -0.0307  0.0687
  440MOL0     N59315   5.531   7.838  -0.213 -0.2610  0.0826 -0.2037
  440MOL0     N59316   5.426   7.761  -0.192 -0.0670  0.1758 -0.3527
  440MOL0     C59317   4.429   6.927  -0.478 -0.2968  0.1730 -0.2890
  440MOL0     C59318   4.316   6.924  -0.402 -0.3030 -0.2889  0.6505
  440MOL0     C59319   4.030   6.885  -0.027  0.4166 -0.3271 -0.6430
  440MOL0     C59320   3.930   6.950  -0.108  0.1611 -0.3701 -0.8017
  440MOL0     C59321   3.792   6.933  -0.075 -0.1803 -0.7222 -0.3106
  440MOL0     C59322   3.752   6.875   0.041 -0.3487 -0.0415  0.1511
  440MOL0     O59323   3.619   6.876   0.075  0.0907  0.1713  0.3822
  440MOL0     C59324   3.531   6.978   0.030  0.4311  0.4405  0.5510
  440MOL0     C59325   3.386   6.973   0.085  0.5676  0.6408 -0.2242
  440MOL0     C59326   3.287   7.077   0.024  0.2839 -0.5267  0.1588
  440MOL0     C59327   3.145   7.063   0.092  0.1443  0.5198 -0.0982
  440MOL0     C59328   3.056   7.166   0.042  0.7468  0.4480  0.9125
  440MOL0     C59329   2.963   7.226  -0.013 -1.3146  0.2233 -0.0221
  440MOL0     C59330   3.850   6.811   0.123  0.5338  0.6660  0.6714
  440MOL0     C59331   3.988   6.810   0.090  0.2746  0.2536  0.6114
  440MOL0     C59332   4.079   6.738   0.180 -1.1918  0.2691 -0.9420
  440MOL0     H59333   4.466   6.871  -0.101 -1.3419  0.8225 -0.2594
  440MOL0     H59334   4.649   6.910  -0.217 -0.7786  1.9329  0.1651
  440MOL0     H59335   4.801   6.932  -0.338  1.2885  2.7182  1.1321
  440MOL0     H59336   4.876   6.954  -0.505  1.3223 -1.0906  1.4593
  440MOL0     H59337   4.686   7.146  -0.353  0.4538 -0.8335  2.1124
  440MOL0     H59338   4.774   7.180  -0.506 -0.3342  0.0626  0.6542
  440MOL0     H59339   4.987   7.120  -0.344 -0.9689 -1.9822 -0.5682
  440MOL0     H59340   4.871   7.146  -0.216 -0.1438 -2.8055 -1.1747
  440MOL0     H59341   4.908   7.365  -0.425  0.6878 -2.0949 -0.7697
  440MOL0     H59342   4.819   7.380  -0.276 -0.5577 -0.6540  0.5641
  440MOL0     H59343   5.027   7.373  -0.140  1.1605  1.8313  1.5136
  440MOL0     H59344   5.113   7.332  -0.285 -0.4422 -0.3134  0.7459
  440MOL0     H59345   5.031   7.566  -0.383  1.4584  1.6275  0.0559
  440MOL0     H59346   4.947   7.586  -0.233 -0.0732 -2.6170  1.2236
  440MOL0     H59347   5.209   7.545  -0.142  1.5459 -0.1690 -0.4610
  440MOL0     H59348   5.166   7.714  -0.195 -1.6658  0.2950  0.3841
  440MOL0     H59349   5.340   7.506  -0.338 -2.5873 -0.3974 -1.8686
  440MOL0     H59350   5.242   7.620  -0.427 -0.1497  3.5069  0.5034
  440MOL0     H59351   5.480   7.724  -0.516 -2.0791  0.4036 -0.8000
  440MOL0     H59352   5.663   7.874  -0.512 -6.1509 -1.7394  1.7359
  440MOL0     H59353   5.677   8.005  -0.388  0.2035 -0.0634  0.9394
  440MOL0     H59354   5.817   7.897  -0.245 -5.0813  3.1542 -0.4152
  440MOL0     H59355   5.825   7.744  -0.349 -0.4060  0.4304 -1.5266
  440MOL0     H59356   5.916   8.024  -0.433  0.6105  0.0486 -1.2556
  440MOL0     H59357   5.908   7.878  -0.538  2.2257 -2.3499  0.5834
  440MOL0     H59358   6.093   7.774  -0.419  0.5903  1.1672 -1.5476
  440MOL0     H59359   6.053   7.893  -0.280  1.6027  3.8713 -0.1243
  440MOL0     H59360   6.240   7.817  -0.201  1.0655 -0.2292  2.1915
  440MOL0     H59361   6.454   7.808  -0.123  0.3128 -0.9703 -1.4119
  440MOL0     H59362   6.741   7.642   0.044  0.0981 -0.3057 -3.2655
  440MOL0     H59363   6.928   7.568   0.165  0.4358 -0.1749  0.5119
  440MOL0     H59364   7.104   7.562   0.283  1.5048 -1.1372  1.3894
  440MOL0     H59365   7.143   7.434   0.169  1.4981 -2.5300  4.6770
  440MOL0     H59366   7.352   7.628   0.287 -1.1158 -0.0241  4.0123
  440MOL0     H59367   7.307   7.497   0.386  3.3918  0.2672  0.9969
  440MOL0     H59368   7.407   7.329   0.244 -0.8980  1.0901  2.4637
  440MOL0     H59369   7.426   7.450   0.102  3.3615  0.5213 -0.0972
  440MOL0     H59370   7.558   7.505   0.359 -1.6509 -2.0707  1.3285
  440MOL0     H59371   7.610   7.536   0.193 -1.9035 -0.7358 -1.3285
  440MOL0     H59372   7.673   7.298   0.150  0.6104 -3.9778 -0.2114
  440MOL0     H59373   7.618   7.246   0.306  3.1808  0.0496  1.9388
  440MOL0     H59374   7.840   7.448   0.257 -0.1319  0.2100 -0.9927
  440MOL0     H59375   7.796   7.380   0.416  1.4750 -2.0209 -0.4774
  440MOL0     H59376   7.907   7.222   0.173 -1.0940  1.5356 -1.0961
  440MOL0     H59377   7.846   7.146   0.314  1.2568 -0.2555 -1.0146
  440MOL0     H59378   8.052   7.376   0.338 -0.9730  0.8095  1.5380
  440MOL0     H59379   7.998   7.277   0.465 -2.1231  0.7424 -0.4129
  440MOL0     H59380   7.178   7.804  -0.091 -1.1491  2.1778 -0.6963
  440MOL0     H59381   6.975   7.901  -0.199  2.2801  1.3199  1.9805
  440MOL0     H59382   6.596   8.085  -0.423 -0.6188  1.7105  1.6297
  440MOL0     H59383   6.366   8.057  -0.529  0.8030 -2.2650 -1.3835
  440MOL0     H59384   4.433   6.948  -0.584  0.2301  1.8773  0.0311
  440MOL0     H59385   4.221   6.924  -0.454 -0.4158  0.1160  0.8519
  440MOL0     H59386   3.954   7.005  -0.198  1.4929  0.6088  0.1089
  440MOL0     H59387   3.718   6.972  -0.144  1.6790  2.0294 -0.9119
  440MOL0     H59388   3.518   6.980  -0.079 -1.3923 -0.3275  0.7238
  440MOL0     H59389   3.571   7.077   0.054  0.3637  0.7188 -0.4206
  440MOL0     H59390   3.397   6.971   0.194  0.6556 -1.5855 -0.2227
  440MOL0     H59391   3.346   6.876   0.055  2.4257 -1.4361  3.2985
  440MOL0     H59392   3.284   7.066  -0.085  2.8107  1.0461 -0.1364
  440MOL0     H59393   3.322   7.178   0.046  0.2678 -0.2464 -1.0002
  440MOL0     H59394   3.107   6.966   0.060  1.5555 -0.7384  1.8620
  440MOL0     H59395   3.145   7.071   0.201 -0.8363  1.8393 -0.1708
  440MOL0     H59396   2.882   7.278  -0.059 -2.5994 -0.9320  0.8769
  440MOL0     H59397   3.817   6.762   0.214  0.3019  3.2689  2.0611
  440MOL0     H59398   4.141   6.809   0.236 -3.5105  0.6392  1.3721
  440MOL0     H59399   4.024   6.685   0.259  0.2547 -0.4282 -0.3651
  440MOL0     H59400   4.149   6.677   0.122  2.2173  2.5822  0.3777
  441MOL0     O59401   6.060   0.429   7.915  0.8326 -0.2254 -0.3093
  441MOL0     C59402   6.048   0.551   7.936 -0.3575 -0.0699 -0.2867
  441MOL0     O59403   6.152   0.640   7.941 -0.1951 -0.0780 -0.0178
  441MOL0     C59404   6.270   0.594   7.882 -0.2391  0.0289 -0.9715
  441MOL0     C59405   6.277   0.554   7.748  0.1083 -0.0453 -0.0622
  441MOL0     C59406   6.408   0.528   7.686 -0.0537 -0.3272  0.1759
  441MOL0     C59407   6.523   0.534   7.765 -0.3192  0.6391 -0.4245
  441MOL0     O59408   6.650   0.515   7.721  0.1391  0.5420 -1.0170
  441MOL0     C59409   6.762   0.540   7.807 -0.7348  0.3005 -0.4007
  441MOL0     C59410   6.890   0.487   7.737  0.8455 -0.4351  0.4919
  441MOL0     C59411   7.011   0.486   7.828 -0.4113  0.7550 -0.3765
  441MOL0     C59412   7.147   0.461   7.753  0.1259  0.3280  0.9582
  441MOL0     C59413   7.274   0.472   7.836 -0.1777 -0.1253  0.8068
  441MOL0     C59414   7.275   0.394   7.964  0.3743  0.9367 -0.1254
  441MOL0     C59415   7.401   0.410   8.050  0.4462 -0.0910 -0.1466
  441MOL0     C59416   7.409   0.312   8.166 -0.0012  0.5755 -0.0471
  441MOL0     N59417   7.527   0.333   8.240 -0.2452 -0.8068 -0.0454
  441MOL0     C59418   7.649   0.279   8.215  0.4634 -1.1701  1.9666
  441MOL0     C59419   7.736   0.335   8.298  0.0291 -0.4434 -0.6373
  441MOL0     C59420   7.879   0.288   8.326 -0.0662  0.1097 -0.7099
  441MOL0     C59421   7.973   0.330   8.215 -0.0357 -0.2073  0.2079
  441MOL0     C59422   8.107   0.261   8.238  0.8467  0.1804  0.1994
  441MOL0     C59423   8.206   0.326   8.137  0.3396  0.2943 -0.4775
  441MOL0     O59424   8.312   0.235   8.144 -0.1034  0.4895 -0.4384
  441MOL0     C59425   8.436   0.278   8.107 -0.5144  0.1275  0.1766
  441MOL0     C59426   8.466   0.397   8.041  0.2334 -0.8806  0.0923
  441MOL0     C59427   8.589   0.435   7.993 -0.3142  0.1993 -1.5398
  441MOL0     C59428   8.696   0.347   8.011 -0.0250  0.5223  0.1996
  441MOL0     C59429   8.838   0.379   7.961  0.0967 -0.4531  0.1621
  441MOL0     O59430   8.851   0.476   7.866  0.3385 -0.1910  0.4053
  441MOL0     C59431   8.967   0.491   7.792  0.1108 -1.0175 -0.1312
  441MOL0     C59432   8.975   0.616   7.731 -0.3846  1.0310  0.2448
  441MOL0     C59433   9.087   0.657   7.657 -0.0816  0.5873  1.0074
  441MOL0     C59434   9.200   0.572   7.634 -0.3147 -0.8236  0.0565
  441MOL0     O59435   9.310   0.621   7.573 -0.2845 -0.7947  0.3119
  441MOL0     C59436   9.430   0.549   7.599 -0.3729 -0.2124  0.1028
  441MOL0     C59437   9.551   0.627   7.544 -0.5305 -0.2269  0.0157
  441MOL0     C59438   9.685   0.543   7.558 -0.1600 -0.5300 -0.0319
  441MOL0     C59439   9.812   0.609   7.508  0.5448  0.0933  0.6276
  441MOL0     C59440   9.935   0.509   7.498 -0.3165 -0.1844  0.9619
  441MOL0     C59441  10.062   0.571   7.429  0.1366 -0.1201 -0.3013
  441MOL0     C59442  10.186   0.487   7.433 -0.6779  0.7355  0.2589
  441MOL0     C59443  10.310   0.533   7.364  0.6047 -0.0746 -0.2045
  441MOL0    Cl59444  10.369   0.693   7.420  0.3347  0.3220  0.2736
  441MOL0     C59445   9.198   0.446   7.700  1.1676  0.2254  0.3431
  441MOL0     C59446   9.079   0.409   7.772 -0.6761  0.4544  0.8223
  441MOL0     O59447   8.932   0.311   8.003  0.1492 -0.1084 -0.2146
  441MOL0     C59448   8.668   0.226   8.073  0.2092  1.0201 -0.5639
  441MOL0     C59449   8.546   0.196   8.122 -0.1266  0.8016 -0.6880
  441MOL0     N59450   7.669   0.437   8.363  0.2839  0.2349  0.0901
  441MOL0     N59451   7.543   0.429   8.344 -0.1001 -0.1976  0.5994
  441MOL0     C59452   6.507   0.591   7.905 -0.2488 -0.7280  0.1296
  441MOL0     C59453   6.388   0.623   7.956  0.4586  0.9376 -0.1130
  441MOL0     C59454   5.915   0.613   7.972 -0.1442 -0.7016  0.5098
  441MOL0     C59455   5.899   0.752   7.963 -0.5113 -0.1822  0.3648
  441MOL0     C59456   5.780   0.807   7.971  0.6346 -0.5675  0.5520
  441MOL0     C59457   5.662   0.732   8.003  0.5357  0.0737  0.0488
  441MOL0     O59458   5.535   0.784   8.020  1.0878 -0.2011  0.6335
  441MOL0     C59459   5.494   0.912   7.950  0.0243  0.8347  0.4384
  441MOL0     C59460   5.343   0.916   7.943  0.1965  0.9952 -1.1594
  441MOL0     C59461   5.289   0.786   7.881 -0.7683  0.6240  0.2596
  441MOL0     C59462   5.143   0.785   7.831  0.3132 -0.3968  0.1785
  441MOL0     C59463   5.056   0.869   7.920 -0.5682  0.3270  0.0218
  441MOL0     C59464   4.988   0.938   7.996  0.3025 -0.2790 -0.1156
  441MOL0     C59465   5.675   0.594   8.029  0.7093  0.2889 -0.4182
  441MOL0     C59466   5.801   0.533   8.018 -0.7957 -0.3245  0.7406
  441MOL0     C59467   5.808   0.382   8.051  1.1714 -0.4149  0.2956
  441MOL0     H59468   6.183   0.535   7.698  1.1367  1.2900 -2.6942
  441MOL0     H59469   6.413   0.497   7.582 -0.7080  0.9408 -0.2544
  441MOL0     H59470   6.793   0.644   7.820  1.9221 -0.4826  0.1755
  441MOL0     H59471   6.763   0.500   7.909  0.4656 -4.6693 -2.0733
  441MOL0     H59472   6.914   0.558   7.658  2.6487 -0.3428  1.0657
  441MOL0     H59473   6.871   0.392   7.687 -1.5129  0.1610  0.1608
  441MOL0     H59474   7.000   0.395   7.888  1.9069 -0.8392 -2.1779
  441MOL0     H59475   7.013   0.576   7.891  2.4195  0.5925 -0.1170
  441MOL0     H59476   7.130   0.359   7.718 -3.6643  0.4119  2.1284
  441MOL0     H59477   7.153   0.527   7.666 -2.1791 -1.7232 -0.9144
  441MOL0     H59478   7.355   0.447   7.767  0.3468  1.1140  0.9460
  441MOL0     H59479   7.286   0.576   7.869 -1.0655 -0.5747  2.6651
  441MOL0     H59480   7.186   0.419   8.023 -0.1106  1.6293 -1.1263
  441MOL0     H59481   7.271   0.289   7.934  2.1447  0.6415  0.5485
  441MOL0     H59482   7.401   0.511   8.092  0.9169 -0.6926  1.3637
  441MOL0     H59483   7.487   0.401   7.983  0.0857  1.7897 -0.9153
  441MOL0     H59484   7.323   0.330   8.231  0.4286 -2.4709  1.5562
  441MOL0     H59485   7.404   0.206   8.140  0.4822  1.1387 -2.6671
  441MOL0     H59486   7.671   0.212   8.132  2.1421  1.7597 -0.1665
  441MOL0     H59487   7.908   0.336   8.420 -2.7418 -2.0192  1.4044
  441MOL0     H59488   7.896   0.182   8.345 -0.1737  0.3000  0.5665
  441MOL0     H59489   7.927   0.290   8.124 -0.5424  0.6319  0.0880
  441MOL0     H59490   7.971   0.439   8.208 -0.2869 -0.2621 -0.6932
  441MOL0     H59491   8.095   0.154   8.221  1.9730  0.5375 -4.1206
  441MOL0     H59492   8.135   0.273   8.343 -2.8566 -1.2953  1.5177
  441MOL0     H59493   8.243   0.424   8.170  1.1695 -0.1690  0.0038
  441MOL0     H59494   8.166   0.332   8.036  1.5744  1.1336 -0.9306
  441MOL0     H59495   8.383   0.457   8.006 -1.8130 -3.3894  0.2806
  441MOL0     H59496   8.611   0.532   7.951 -0.3340  1.4321  1.1257
  441MOL0     H59497   8.887   0.678   7.743 -2.2307 -1.5152  0.9278
  441MOL0     H59498   9.090   0.759   7.620 -0.3018 -0.5309 -2.4946
  441MOL0     H59499   9.446   0.523   7.704  1.9883 -0.6903 -0.3249
  441MOL0     H59500   9.439   0.454   7.546  0.2162 -1.2962  2.0375
  441MOL0     H59501   9.547   0.656   7.438 -1.4362  0.9248  0.3580
  441MOL0     H59502   9.554   0.718   7.604 -2.6538 -1.7402  2.6295
  441MOL0     H59503   9.694   0.502   7.659  1.1546 -1.8322 -0.6444
  441MOL0     H59504   9.668   0.469   7.479  0.9014 -0.8573  0.0272
  441MOL0     H59505   9.832   0.688   7.581 -0.6757  1.6316 -0.6377
  441MOL0     H59506   9.793   0.654   7.410 -0.5966  0.3147  0.9268
  441MOL0     H59507   9.908   0.417   7.445  1.7648  0.2886 -1.0857
  441MOL0     H59508   9.943   0.475   7.601 -1.0271 -4.1221 -0.1019
  441MOL0     H59509  10.041   0.593   7.325  0.3851  2.1973  0.0882
  441MOL0     H59510  10.076   0.672   7.469 -1.2924  0.3531 -0.9430
  441MOL0     H59511  10.154   0.392   7.390 -0.2314  0.2803  0.9069
  441MOL0     H59512  10.214   0.466   7.537  1.1594  2.3640  0.1584
  441MOL0     H59513  10.379   0.451   7.384  0.1167 -0.5733 -0.5191
  441MOL0     H59514  10.296   0.544   7.256 -0.6382 -1.3468 -0.2063
  441MOL0     H59515   9.275   0.369   7.694 -0.5938 -1.7254  1.3846
  441MOL0     H59516   9.071   0.305   7.801 -1.4242  0.5001  0.7952
  441MOL0     H59517   8.745   0.149   8.074 -2.4295 -1.8009 -1.3410
  441MOL0     H59518   8.528   0.101   8.172 -0.8467 -0.0332 -2.4078
  441MOL0     H59519   6.590   0.618   7.969  0.0304 -1.2677  0.0016
  441MOL0     H59520   6.396   0.661   8.057  2.3182 -0.9989  0.5421
  441MOL0     H59521   5.972   0.832   7.950 -2.0836  1.2322 -0.2358
  441MOL0     H59522   5.774   0.915   7.966 -0.9066 -0.6408  0.3997
  441MOL0     H59523   5.516   0.899   7.844 -1.5295 -1.6184  0.3542
  441MOL0     H59524   5.534   1.003   7.996 -1.6916  0.8688  1.9807
  441MOL0     H59525   5.318   1.010   7.892 -1.6352  2.2128  1.7637
  441MOL0     H59526   5.316   0.927   8.048  3.1457  1.6401 -0.3634
  441MOL0     H59527   5.310   0.703   7.948 -3.1200  0.1837  0.5516
  441MOL0     H59528   5.342   0.750   7.792 -1.8048 -2.8500  0.8930
  441MOL0     H59529   5.134   0.812   7.725 -2.0923 -0.2307  0.3733
  441MOL0     H59530   5.095   0.688   7.843 -4.2458  1.4797 -0.6726
  441MOL0     H59531   4.931   0.998   8.064 -0.8244 -2.0378  0.5463
  441MOL0     H59532   5.586   0.541   8.058  1.2753  0.2909  1.4527
  441MOL0     H59533   5.804   0.316   7.964  2.7033 -1.4022  0.9243
  441MOL0     H59534   5.904   0.363   8.100  2.0943  1.2376 -0.7522
  441MOL0     H59535   5.733   0.351   8.124  3.0175 -3.8440  0.9810
  442MOL0     O59536   6.640   0.532  11.207 -0.2724  0.2866  0.1539
  442MOL0     C59537   6.578   0.565  11.105  0.6353  0.0209  0.6938
  442MOL0     O59538   6.613   0.668  11.025  0.0050  0.1409 -0.3324
  442MOL0     C59539   6.721   0.748  11.036  0.3251 -0.1111 -0.7781
  442MOL0     C59540   6.759   0.796  11.163  0.5827  0.1390  0.4363
  442MOL0     C59541   6.872   0.871  11.175  0.3985  0.0518  0.4697
  442MOL0     C59542   6.950   0.921  11.069 -0.4826  0.3846  0.8452
  442MOL0     O59543   7.048   1.012  11.077 -0.5251  0.0474 -0.4601
  442MOL0     C59544   7.059   1.074  11.206 -0.3183 -0.0883  0.4620
  442MOL0     C59545   7.171   1.185  11.216 -0.7387  0.3877 -0.4034
  442MOL0     C59546   7.181   1.233  11.365  0.4119 -0.1539  1.0058
  442MOL0     C59547   7.205   1.121  11.469  0.1801 -0.3679 -0.5643
  442MOL0     C59548   7.342   1.051  11.465  0.2975  0.4898 -0.3644
  442MOL0     C59549   7.343   0.939  11.577  0.1941 -0.6910  0.1443
  442MOL0     C59550   7.478   0.866  11.575  0.4563 -0.7530  0.6816
  442MOL0     C59551   7.497   0.783  11.446  0.3867  0.0869  0.0832
  442MOL0     N59552   7.426   0.656  11.456  0.2303  0.2772 -0.5856
  442MOL0     C59553   7.303   0.636  11.405 -0.0949  0.4310 -0.1204
  442MOL0     C59554   7.276   0.513  11.440 -0.2613 -0.5165 -0.2555
  442MOL0     C59555   7.148   0.443  11.414 -0.2040 -0.6847  0.4197
  442MOL0     C59556   7.132   0.399  11.273  0.2093  0.0658 -0.2269
  442MOL0     C59557   7.044   0.488  11.177 -0.7688 -0.3498  0.1103
  442MOL0     C59558   7.090   0.465  11.030 -0.1235  0.4024 -0.5013
  442MOL0     O59559   7.228   0.456  11.007  0.0940  0.2558 -0.0442
  442MOL0     C59560   7.315   0.563  11.025  0.3537 -0.5499 -0.3353
  442MOL0     C59561   7.452   0.535  11.030 -0.2692 -0.5232 -0.6560
  442MOL0     C59562   7.542   0.642  11.061 -0.6261  0.1910  0.7577
  442MOL0     C59563   7.491   0.776  11.065 -0.4134  0.4143 -0.4270
  442MOL0     C59564   7.582   0.891  11.077 -0.3244  0.0016 -0.3468
  442MOL0     O59565   7.530   1.016  11.103 -0.0554 -0.1334 -0.1771
  442MOL0     C59566   7.603   1.131  11.098  0.8410 -0.6262  0.7979
  442MOL0     C59567   7.592   1.200  11.218  0.7393 -0.3713 -1.7512
  442MOL0     C59568   7.675   1.306  11.249 -0.2702  0.3666 -0.6732
  442MOL0     C59569   7.757   1.361  11.153  0.0069 -0.3173  0.2280
  442MOL0     O59570   7.829   1.472  11.168  0.1972  0.3383 -0.2971
  442MOL0     C59571   7.777   1.586  11.235 -0.4977  0.0303 -0.3081
  442MOL0     C59572   7.833   1.582  11.380 -0.8811  0.4425  0.6398
  442MOL0     C59573   7.801   1.696  11.471  0.5422  1.0000 -0.3907
  442MOL0     C59574   7.647   1.719  11.490  0.1398  0.5106  0.7924
  442MOL0     C59575   7.581   1.607  11.568 -0.2107 -0.4216 -0.2442
  442MOL0     C59576   7.435   1.631  11.587 -0.4929  0.0183  0.7598
  442MOL0     C59577   7.371   1.543  11.696  0.1454  0.0689  0.8095
  442MOL0     C59578   7.341   1.403  11.649 -0.6308 -0.3167  0.2688
  442MOL0    Cl59579   7.249   1.320  11.771 -0.2690  0.3821 -0.2760
  442MOL0     C59580   7.772   1.286  11.034  0.3318 -0.1052 -0.0823
  442MOL0     C59581   7.699   1.172  11.006 -1.0747  0.7652  0.1231
  442MOL0     O59582   7.705   0.870  11.059  0.0707 -0.0902 -0.9184
  442MOL0     C59583   7.355   0.803  11.052  0.4412  0.6195  0.2667
  442MOL0     C59584   7.265   0.693  11.031  0.5544 -0.3968  0.1094
  442MOL0     N59585   7.373   0.460  11.511 -0.0034  0.0713 -0.1675
  442MOL0     N59586   7.475   0.538  11.507 -0.5585 -1.4235 -0.7505
  442MOL0     C59587   6.909   0.880  10.947  0.8855 -0.3551  0.4200
  442MOL0     C59588   6.799   0.789  10.929  0.4700 -0.4936 -0.0412
  442MOL0     C59589   6.449   0.490  11.072  0.4597 -0.1657  0.1717
  442MOL0     C59590   6.331   0.566  11.041  0.7579  0.2457 -0.6102
  442MOL0     C59591   6.209   0.499  11.018  0.6796  0.0233  0.0718
  442MOL0     C59592   6.203   0.354  11.019 -0.3307 -0.7626 -0.2543
  442MOL0     O59593   6.088   0.287  10.980  0.2671  0.1262 -1.0264
  442MOL0     C59594   5.960   0.359  10.968  0.4309  0.3400 -0.7135
  442MOL0     C59595   5.825   0.287  10.940 -0.6509  0.2828  0.2374
  442MOL0     C59596   5.724   0.403  10.959  0.0739  0.1464 -0.7272
  442MOL0     C59597   5.578   0.341  10.950  0.5289  0.6455  0.2048
  442MOL0     C59598   5.481   0.448  10.974  0.8499 -0.2643  0.7188
  442MOL0     C59599   5.390   0.531  10.994  0.1761 -0.3097  0.0295
  442MOL0     C59600   6.317   0.285  11.063 -0.0722  0.0751 -0.4392
  442MOL0     C59601   6.442   0.349  11.081 -0.2805 -0.0987 -0.4869
  442MOL0     C59602   6.556   0.258  11.114  0.1627  0.6572 -0.3477
  442MOL0     H59603   6.703   0.767  11.252  0.6783 -0.7771  0.2069
  442MOL0     H59604   6.899   0.898  11.277  0.2101  4.5313 -0.4427
  442MOL0     H59605   6.966   1.130  11.218  0.6036  2.0586 -1.5433
  442MOL0     H59606   7.079   0.988  11.270 -3.5387 -1.7300 -0.5195
  442MOL0     H59607   7.147   1.266  11.147 -2.7959 -1.0282 -1.4311
  442MOL0     H59608   7.262   1.137  11.179 -1.4060 -2.8371  1.7668
  442MOL0     H59609   7.093   1.295  11.386  0.6456  1.0360 -1.1452
  442MOL0     H59610   7.274   1.291  11.371  1.7435 -2.1036  0.2267
  442MOL0     H59611   7.198   1.181  11.560  2.8306 -1.5008  0.4694
  442MOL0     H59612   7.128   1.043  11.466 -3.0109  2.4637  0.7483
  442MOL0     H59613   7.356   1.012  11.363 -0.1523 -0.4226 -0.0890
  442MOL0     H59614   7.413   1.132  11.483  0.5442  0.0450  0.6942
  442MOL0     H59615   7.333   0.986  11.676 -0.9102 -1.2303  0.3007
  442MOL0     H59616   7.260   0.869  11.564 -0.6839 -0.3211  2.9926
  442MOL0     H59617   7.486   0.808  11.667 -0.8261  0.2901  1.4873
  442MOL0     H59618   7.551   0.946  11.586  0.8608 -0.8355 -1.0750
  442MOL0     H59619   7.475   0.835  11.352  1.2520  1.1012  0.4222
  442MOL0     H59620   7.602   0.753  11.442 -0.3455 -2.8743  0.6054
  442MOL0     H59621   7.235   0.696  11.345 -0.9495  0.7591  1.1332
  442MOL0     H59622   7.144   0.357  11.482 -3.6393 -2.3612 -1.6129
  442MOL0     H59623   7.063   0.507  11.439 -0.1651  0.5538 -2.3144
  442MOL0     H59624   7.223   0.362  11.225 -1.2965 -6.3093  0.8639
  442MOL0     H59625   7.079   0.304  11.286  1.7306 -1.1202 -2.1437
  442MOL0     H59626   7.056   0.590  11.216 -1.5622  0.3406 -1.3662
  442MOL0     H59627   6.937   0.465  11.182 -0.5571 -1.6736 -1.1330
  442MOL0     H59628   7.047   0.540  10.963  0.8558  1.6787  0.2471
  442MOL0     H59629   7.053   0.365  11.006  0.5918 -0.6402  2.3067
  442MOL0     H59630   7.483   0.431  11.022  1.7266  0.1242 -2.2441
  442MOL0     H59631   7.643   0.605  11.074  0.0346  1.7077  0.2159
  442MOL0     H59632   7.525   1.165  11.297  1.5925  1.2042 -0.2865
  442MOL0     H59633   7.665   1.354  11.346  0.2205  2.3949 -1.5784
  442MOL0     H59634   7.816   1.677  11.188  2.1004 -1.5229 -1.4076
  442MOL0     H59635   7.668   1.594  11.231 -0.4487  2.0010  1.0146
  442MOL0     H59636   7.818   1.480  11.418 -1.7395 -0.9421 -2.9881
  442MOL0     H59637   7.941   1.590  11.363 -0.9483  6.1663  1.1452
  442MOL0     H59638   7.832   1.656  11.568 -1.3264  1.1244  0.3074
  442MOL0     H59639   7.856   1.787  11.446  1.8280  0.1828 -0.6504
  442MOL0     H59640   7.609   1.720  11.388 -0.1787 -0.9331  0.8789
  442MOL0     H59641   7.625   1.811  11.544 -2.8689 -0.1493  0.8569
  442MOL0     H59642   7.621   1.596  11.669 -2.0897  2.3790  0.9528
  442MOL0     H59643   7.604   1.513  11.517  1.2760 -0.4152  0.3739
  442MOL0     H59644   7.426   1.732  11.626  0.3026 -0.1181  1.2950
  442MOL0     H59645   7.378   1.629  11.493  2.3476  1.0542 -1.1380
  442MOL0     H59646   7.276   1.588  11.725 -0.3950  0.5845 -1.5389
  442MOL0     H59647   7.432   1.535  11.786  0.5734 -2.2462  0.3757
  442MOL0     H59648   7.286   1.407  11.554  1.0017 -1.4176 -0.7692
  442MOL0     H59649   7.435   1.351  11.631 -0.7915  0.4180 -3.4703
  442MOL0     H59650   7.831   1.331  10.955  0.6649 -0.5406 -0.0821
  442MOL0     H59651   7.715   1.114  10.916  0.7603 -0.3831  1.1265
  442MOL0     H59652   7.308   0.901  11.057 -1.2081 -0.1232  0.0922
  442MOL0     H59653   7.159   0.715  11.020  1.3583  3.0202 -2.8940
  442MOL0     H59654   6.958   0.922  10.859  1.0790 -0.2002  0.6024
  442MOL0     H59655   6.758   0.775  10.830 -0.4079  2.8879 -0.2806
  442MOL0     H59656   6.355   0.671  11.039  2.9090 -0.1372  1.2349
  442MOL0     H59657   6.120   0.556  10.993  1.5817  0.6100 -2.0008
  442MOL0     H59658   5.964   0.443  10.898 -0.2710  0.5982 -0.4558
  442MOL0     H59659   5.941   0.410  11.062 -0.0670  0.3275 -0.8012
  442MOL0     H59660   5.820   0.203  11.010  1.4024 -1.2812 -1.3554
  442MOL0     H59661   5.825   0.241  10.841  1.4612  1.7501 -0.5228
  442MOL0     H59662   5.751   0.478  10.885  1.2869 -1.1901 -1.7066
  442MOL0     H59663   5.727   0.446  11.060  0.0910  0.1128 -0.7129
  442MOL0     H59664   5.549   0.304  10.851 -4.3812  2.2499  0.8070
  442MOL0     H59665   5.558   0.265  11.026 -0.8558 -1.4888 -2.1244
  442MOL0     H59666   5.301   0.589  11.001  0.3214 -0.0654 -0.1178
  442MOL0     H59667   6.295   0.183  11.091  0.3290  0.5892  1.9877
  442MOL0     H59668   6.516   0.157  11.110  2.8905 -0.8563  4.0968
  442MOL0     H59669   6.640   0.269  11.043  0.3840  1.1129 -0.0234
  442MOL0     H59670   6.597   0.268  11.215  2.2482 -0.2174 -1.0331
  443MOL0     O59671   3.160   1.617   6.764 -0.6220 -0.1423  0.2148
  443MOL0     C59672   3.144   1.729   6.714  1.0606 -0.5801  0.0341
  443MOL0     O59673   3.249   1.811   6.667  0.1834 -0.2233 -0.7449
  443MOL0     C59674   3.375   1.769   6.659 -0.5858  0.5368  0.0404
  443MOL0     C59675   3.452   1.836   6.559 -0.2189 -1.2613 -0.0787
  443MOL0     C59676   3.586   1.805   6.535  0.3866  0.2356  0.3434
  443MOL0     C59677   3.649   1.692   6.598 -0.0482 -0.3842  0.3737
  443MOL0     O59678   3.780   1.654   6.573 -0.3091 -0.4027 -0.8332
  443MOL0     C59679   3.846   1.692   6.458  0.3697 -0.1448  0.2008
  443MOL0     C59680   3.989   1.619   6.453  1.0092  0.6083 -0.0303
  443MOL0     C59681   4.081   1.707   6.355 -0.5632  0.0150  0.3281
  443MOL0     C59682   4.213   1.641   6.318 -0.3812  1.3214  0.5422
  443MOL0     C59683   4.318   1.737   6.261 -0.1852 -0.5869 -0.0659
  443MOL0     C59684   4.452   1.667   6.220 -0.2449 -0.6660  0.0150
  443MOL0     C59685   4.532   1.761   6.138 -0.2763  0.3696  0.2510
  443MOL0     C59686   4.673   1.714   6.110 -0.4543  1.2028 -0.2079
  443MOL0     N59687   4.690   1.596   6.017  0.3617 -0.0609 -0.5866
  443MOL0     C59688   4.732   1.608   5.891 -0.2259 -0.8517  1.0079
  443MOL0     C59689   4.691   1.502   5.815  0.6568 -0.5451 -0.5339
  443MOL0     C59690   4.689   1.505   5.666  0.2607 -0.4344  0.3270
  443MOL0     C59691   4.831   1.519   5.606 -0.4726 -0.5210 -0.5209
  443MOL0     C59692   4.903   1.387   5.617  0.0771 -0.3305  0.0752
  443MOL0     C59693   5.054   1.405   5.600 -0.7457 -0.0391  0.5053
  443MOL0     O59694   5.105   1.503   5.697  0.5018 -0.5791 -0.0940
  443MOL0     C59695   5.207   1.589   5.670  0.2014  0.7016 -0.4565
  443MOL0     C59696   5.305   1.560   5.575  0.7459 -0.8041 -0.1020
  443MOL0     C59697   5.418   1.649   5.554 -0.4256  0.1880  1.0129
  443MOL0     C59698   5.428   1.765   5.637 -0.1660 -0.2102 -0.5211
  443MOL0     C59699   5.548   1.864   5.623 -0.6717  0.0923  0.1230
  443MOL0     O59700   5.645   1.846   5.522 -0.4527  0.1407 -0.0651
  443MOL0     C59701   5.756   1.926   5.535  0.8711  0.0617  0.6108
  443MOL0     C59702   5.863   1.896   5.617  1.3918  0.1494  0.4033
  443MOL0     C59703   5.978   1.969   5.613  0.1487  0.0379  0.1952
  443MOL0     C59704   6.002   2.078   5.530  0.2321  0.0787 -0.1257
  443MOL0     O59705   6.118   2.146   5.542  0.5375  0.2563 -0.0923
  443MOL0     C59706   6.157   2.228   5.425 -0.1087 -0.4749 -0.5690
  443MOL0     C59707   6.305   2.275   5.443 -0.1656 -1.0763 -0.5381
  443MOL0     C59708   6.412   2.153   5.429 -0.0930  0.3131 -0.0662
  443MOL0     C59709   6.545   2.218   5.455 -0.4095  0.9178  0.1149
  443MOL0     C59710   6.667   2.132   5.457 -0.2094 -0.1864 -0.1063
  443MOL0     C59711   6.785   2.218   5.517 -0.7351  0.3916  0.9404
  443MOL0     C59712   6.919   2.164   5.473  0.1558  0.3251  0.0158
  443MOL0     C59713   7.036   2.230   5.547  0.3387 -1.1232  0.6446
  443MOL0    Cl59714   7.191   2.178   5.484  0.4418  0.4495  0.2395
  443MOL0     C59715   5.902   2.102   5.432 -0.0012 -0.2460 -0.1305
  443MOL0     C59716   5.775   2.028   5.444 -0.1946 -0.0523  0.3448
  443MOL0     O59717   5.549   1.960   5.703  0.5738 -0.2036 -0.5621
  443MOL0     C59718   5.328   1.787   5.730  0.2017 -1.1493  0.0053
  443MOL0     C59719   5.224   1.701   5.750  0.4789  0.4891 -0.2685
  443MOL0     N59720   4.623   1.419   5.907  0.3459  0.1334  0.2733
  443MOL0     N59721   4.620   1.477   6.025 -0.5020 -0.0663  0.4855
  443MOL0     C59722   3.577   1.619   6.689 -0.0466  0.3802 -0.7514
  443MOL0     C59723   3.442   1.659   6.720 -0.3845 -0.6295  0.0123
  443MOL0     C59724   3.007   1.796   6.729  0.7842  0.1047 -0.0215
  443MOL0     C59725   2.883   1.734   6.692 -0.1669  0.4270  0.0619
  443MOL0     C59726   2.757   1.785   6.735  0.3932 -0.1688 -0.7183
  443MOL0     C59727   2.743   1.905   6.805 -0.2116  0.4963  0.4709
  443MOL0     O59728   2.623   1.956   6.850 -0.5760  0.0029 -0.8230
  443MOL0     C59729   2.498   1.908   6.794 -0.6428  0.5660 -0.9374
  443MOL0     C59730   2.368   1.990   6.838  0.1380  0.3432 -0.6950
  443MOL0     C59731   2.243   1.902   6.819  0.4708  0.6469  0.1757
  443MOL0     C59732   2.114   1.995   6.838  0.1662  0.2383  0.0951
  443MOL0     C59733   1.998   1.904   6.838  0.3652  0.8896  0.4281
  443MOL0     C59734   1.907   1.828   6.823 -0.6331 -0.5233 -0.4190
  443MOL0     C59735   2.865   1.971   6.835 -0.5032  0.0620  0.0035
  443MOL0     C59736   2.993   1.919   6.800  0.1127  0.9385  0.6154
  443MOL0     C59737   3.111   1.992   6.859  0.5585 -0.0039 -0.1355
  443MOL0     H59738   3.411   1.914   6.495  2.8199  0.6867  0.1724
  443MOL0     H59739   3.642   1.882   6.482  0.3121  1.1722  1.5710
  443MOL0     H59740   3.782   1.672   6.372 -1.2085  2.6630  0.5756
  443MOL0     H59741   3.849   1.800   6.475  0.5904  0.1746 -1.6619
  443MOL0     H59742   3.961   1.525   6.404 -2.5761 -0.7435  4.0273
  443MOL0     H59743   4.048   1.609   6.544  1.0038  3.6940  0.4237
  443MOL0     H59744   4.103   1.797   6.413  2.1535 -0.8410  0.7586
  443MOL0     H59745   4.023   1.731   6.266 -1.1735 -3.3739 -0.3513
  443MOL0     H59746   4.277   1.595   6.394 -0.0853 -1.9643 -1.4889
  443MOL0     H59747   4.182   1.568   6.243 -4.1609  2.5529  0.7289
  443MOL0     H59748   4.279   1.787   6.172 -0.8530  1.0059  1.0733
  443MOL0     H59749   4.340   1.813   6.337  2.0482 -0.7428 -0.4870
  443MOL0     H59750   4.519   1.631   6.299  1.8386 -1.8542 -2.1507
  443MOL0     H59751   4.423   1.573   6.173  0.3229 -1.0607  0.4381
  443MOL0     H59752   4.542   1.858   6.188 -3.1302  0.1539  1.3929
  443MOL0     H59753   4.481   1.782   6.044 -1.2189 -0.4375  0.5622
  443MOL0     H59754   4.738   1.799   6.088  0.3310  1.6862  3.3640
  443MOL0     H59755   4.717   1.687   6.206 -3.7992 -0.2222  1.0350
  443MOL0     H59756   4.782   1.700   5.863  0.8958 -0.8543  2.8756
  443MOL0     H59757   4.641   1.415   5.626  1.0700 -0.3544 -0.8801
  443MOL0     H59758   4.627   1.590   5.639 -1.6142 -1.6050  0.7715
  443MOL0     H59759   4.818   1.544   5.500 -3.0415 -3.3690 -1.0161
  443MOL0     H59760   4.896   1.593   5.653 -1.4201 -0.4974  0.7878
  443MOL0     H59761   4.857   1.314   5.549 -0.1646 -0.7645  0.6942
  443MOL0     H59762   4.883   1.347   5.717 -2.7851  2.5150  0.8270
  443MOL0     H59763   5.082   1.443   5.502 -1.7052 -0.7525 -0.0636
  443MOL0     H59764   5.087   1.304   5.626 -1.3512 -0.1862  0.7187
  443MOL0     H59765   5.299   1.474   5.509  1.9775  0.0874 -1.4409
  443MOL0     H59766   5.494   1.633   5.477 -0.6351 -0.0903  0.8591
  443MOL0     H59767   5.841   1.809   5.678 -2.2576 -0.0964 -1.0143
  443MOL0     H59768   6.056   1.955   5.687  0.4493  0.4181 -0.0424
  443MOL0     H59769   6.145   2.167   5.335  0.8467  0.2995 -1.2496
  443MOL0     H59770   6.097   2.320   5.425  1.1756  0.4500 -2.7449
  443MOL0     H59771   6.324   2.352   5.368  1.9601 -0.4962  0.5230
  443MOL0     H59772   6.306   2.326   5.540 -0.4995 -1.9092 -0.0863
  443MOL0     H59773   6.401   2.079   5.509 -1.3582  0.1926 -0.3337
  443MOL0     H59774   6.403   2.098   5.335 -3.4489 -1.2401  1.0413
  443MOL0     H59775   6.540   2.252   5.558  0.4765  0.3868  0.3495
  443MOL0     H59776   6.548   2.302   5.386 -2.8676  1.3938  0.5077
  443MOL0     H59777   6.680   2.112   5.351 -0.3812  0.6026 -0.2810
  443MOL0     H59778   6.648   2.036   5.507  2.3428  0.5331  2.5287
  443MOL0     H59779   6.771   2.324   5.493 -1.3561  0.4132  1.3887
  443MOL0     H59780   6.775   2.211   5.626  0.4954 -1.5472  0.9762
  443MOL0     H59781   6.925   2.175   5.365  0.0142 -1.7634 -0.2332
  443MOL0     H59782   6.929   2.056   5.486  2.7051  0.1549 -2.3972
  443MOL0     H59783   7.033   2.339   5.531 -1.3333 -1.1090  0.9434
  443MOL0     H59784   7.030   2.210   5.654 -1.0370 -0.2243  0.7543
  443MOL0     H59785   5.905   2.172   5.350  0.9625 -1.1819 -0.9174
  443MOL0     H59786   5.705   2.060   5.368 -0.6104 -0.9238  0.3521
  443MOL0     H59787   5.332   1.874   5.795 -1.3752 -0.8576 -0.2459
  443MOL0     H59788   5.151   1.707   5.829 -1.1669 -0.3452 -1.6626
  443MOL0     H59789   3.620   1.531   6.735 -2.7674 -1.0848 -0.8346
  443MOL0     H59790   3.390   1.602   6.796 -1.2023 -0.0684 -0.1117
  443MOL0     H59791   2.903   1.647   6.630  2.6504  1.3704 -0.5148
  443MOL0     H59792   2.665   1.736   6.706 -1.8735  2.7127  1.1713
  443MOL0     H59793   2.485   1.804   6.827 -2.0728  1.2736  0.9319
  443MOL0     H59794   2.511   1.912   6.686  0.1334 -3.6650 -1.1703
  443MOL0     H59795   2.355   2.073   6.768 -0.9527 -1.2523 -2.4861
  443MOL0     H59796   2.374   2.024   6.942 -1.6998 -3.2369  0.7739
  443MOL0     H59797   2.244   1.824   6.895 -2.3877  0.3837  0.0294
  443MOL0     H59798   2.242   1.859   6.719  1.4483  0.5897  0.1794
  443MOL0     H59799   2.112   2.056   6.929 -1.2990 -0.1126  0.3364
  443MOL0     H59800   2.094   2.066   6.757 -3.7935 -0.0381  0.6475
  443MOL0     H59801   1.826   1.767   6.788  0.3041  0.2271 -4.4075
  443MOL0     H59802   2.862   2.059   6.899 -0.6187 -1.5398  2.3381
  443MOL0     H59803   3.202   1.931   6.857  0.4646 -0.1444 -0.1484
  443MOL0     H59804   3.117   2.078   6.792 -0.8990 -1.1135 -1.7638
  443MOL0     H59805   3.092   2.023   6.962  1.3145 -0.4308  0.1473
  444MOL0     O59806   5.052   0.390   4.298 -0.2518  0.4881 -0.8793
  444MOL0     C59807   5.048   0.286   4.365  0.1309 -0.8240  0.2258
  444MOL0     O59808   5.159   0.222   4.424 -0.4307 -0.8506 -0.7284
  444MOL0     C59809   5.275   0.290   4.444 -0.3090  0.6127 -0.5806
  444MOL0     C59810   5.286   0.376   4.545 -0.2887 -0.8101 -0.0741
  444MOL0     C59811   5.409   0.448   4.563 -0.4871 -0.3952  0.2800
  444MOL0     C59812   5.515   0.426   4.472  0.9171  0.7059 -0.4620
  444MOL0     O59813   5.640   0.486   4.470  0.5970  0.1647 -0.3808
  444MOL0     C59814   5.686   0.523   4.602 -0.5159  0.6020 -0.0665
  444MOL0     C59815   5.792   0.632   4.599  0.4009  0.5971 -0.4068
  444MOL0     C59816   5.849   0.671   4.736 -0.9313  0.4105  0.1859
  444MOL0     C59817   5.970   0.577   4.761  0.4838 -0.4853  0.6196
  444MOL0     C59818   6.038   0.607   4.899  0.4215 -0.8209  1.0856
  444MOL0     C59819   6.123   0.730   4.887 -0.3101  0.3700  0.5539
  444MOL0     C59820   6.237   0.731   4.999  0.5430 -0.7119 -0.0693
  444MOL0     C59821   6.172   0.799   5.125  0.1396  0.1892  0.1007
  444MOL0     N59822   6.277   0.859   5.198  0.1796 -0.3712 -0.2356
  444MOL0     C59823   6.350   0.967   5.165 -0.4792  0.4704 -0.0073
  444MOL0     C59824   6.465   0.960   5.233 -0.4044 -0.6197 -0.2568
  444MOL0     C59825   6.579   1.056   5.210 -0.7044 -0.6352 -0.1393
  444MOL0     C59826   6.708   0.972   5.207 -0.4528 -0.5963  0.1495
  444MOL0     C59827   6.834   1.063   5.174 -0.3306 -0.3451 -0.2909
  444MOL0     C59828   6.972   0.993   5.164 -0.1973  0.1180 -0.3928
  444MOL0     O59829   7.074   1.091   5.150 -0.0909 -0.4505 -0.5490
  444MOL0     C59830   7.204   1.059   5.163  0.0372 -0.0483 -0.4621
  444MOL0     C59831   7.252   0.928   5.171 -0.5694 -0.8592 -0.6669
  444MOL0     C59832   7.389   0.909   5.179 -0.8054 -0.0008 -0.2594
  444MOL0     C59833   7.489   1.013   5.181 -0.3289  0.4431  0.1684
  444MOL0     C59834   7.638   1.000   5.171 -0.0637 -0.6260  0.3167
  444MOL0     O59835   7.711   1.108   5.204  0.3517 -0.3798  0.2091
  444MOL0     C59836   7.851   1.102   5.203  0.7147 -0.4577  0.0701
  444MOL0     C59837   7.911   1.075   5.073 -0.4098 -0.4519 -0.1633
  444MOL0     C59838   8.041   1.094   5.053 -0.7990  0.0482 -0.8975
  444MOL0     C59839   8.130   1.114   5.160  0.1379 -0.6227  0.2266
  444MOL0     O59840   8.271   1.135   5.149  0.1035  0.1253  0.1623
  444MOL0     C59841   8.325   1.131   5.012  0.5775 -0.1974  0.2002
  444MOL0     C59842   8.474   1.165   5.013  0.3128 -0.6458  0.3531
  444MOL0     C59843   8.553   1.084   5.112  0.0312  0.9324  0.6605
  444MOL0     C59844   8.698   1.110   5.110  0.5816  0.0533 -0.4544
  444MOL0     C59845   8.755   1.071   5.246 -0.1611 -0.2603 -0.5787
  444MOL0     C59846   8.904   1.087   5.249  0.3656 -0.3484 -0.1500
  444MOL0     C59847   8.967   1.068   5.386  0.0570 -0.5023 -0.4656
  444MOL0     C59848   9.114   1.103   5.387  1.4579  0.1061  0.0820
  444MOL0    Cl59849   9.211   1.004   5.276  0.1669  0.2764  0.0380
  444MOL0     C59850   8.079   1.137   5.289 -0.1164  0.5178  0.3151
  444MOL0     C59851   7.938   1.141   5.303 -0.7183  0.0773 -0.5014
  444MOL0     O59852   7.678   0.888   5.129  0.7046  0.1249 -0.4420
  444MOL0     C59853   7.437   1.143   5.181 -0.8934  0.0013 -0.0041
  444MOL0     C59854   7.298   1.166   5.161 -0.5995 -0.4134 -0.7136
  444MOL0     N59855   6.457   0.844   5.319 -1.2409  0.0216 -0.1802
  444MOL0     N59856   6.348   0.786   5.294  0.2189  0.1806 -0.6778
  444MOL0     C59857   5.501   0.333   4.376  0.1681  0.3593  0.5896
  444MOL0     C59858   5.384   0.260   4.360 -0.1419 -0.6383 -0.6937
  444MOL0     C59859   4.920   0.208   4.361 -0.1220 -0.4502 -0.1226
  444MOL0     C59860   4.922   0.071   4.363  0.5448 -0.7326 -0.6172
  444MOL0     C59861   4.808  -0.007   4.392 -0.3863 -0.0256  0.1973
  444MOL0     C59862   4.682   0.046   4.401 -0.0946  0.1431  0.4907
  444MOL0     O59863   4.577  -0.040   4.414 -0.5609  0.5615  0.0822
  444MOL0     C59864   4.440   0.003   4.443  0.1313 -0.1464 -0.0045
  444MOL0     C59865   4.352  -0.120   4.464 -0.5458 -0.8976  0.6852
  444MOL0     C59866   4.216  -0.100   4.528  0.4008  0.0087 -0.9473
  444MOL0     C59867   4.236  -0.069   4.672  0.1983 -0.8419  0.4321
  444MOL0     C59868   4.104  -0.056   4.736 -0.1655 -0.3236  0.5322
  444MOL0     C59869   3.998  -0.027   4.789  0.5519 -0.3819  0.9568
  444MOL0     C59870   4.671   0.189   4.396 -0.1391  0.0418  0.4218
  444MOL0     C59871   4.791   0.268   4.381 -0.4382  0.3142 -0.5881
  444MOL0     C59872   4.775   0.420   4.383  0.0590 -0.5167 -0.7597
  444MOL0     H59873   5.199   0.395   4.606 -0.4541  0.3765 -0.6416
  444MOL0     H59874   5.404   0.522   4.642  0.4679 -0.0902  0.0693
  444MOL0     H59875   5.611   0.561   4.672 -0.1562  1.1360  0.0365
  444MOL0     H59876   5.732   0.435   4.648  0.1284  2.1995  2.5978
  444MOL0     H59877   5.740   0.721   4.562  0.9452  0.8589 -0.5495
  444MOL0     H59878   5.871   0.604   4.528  2.6975 -0.4159  2.3463
  444MOL0     H59879   5.770   0.671   4.811 -0.7637  0.1243  0.3678
  444MOL0     H59880   5.893   0.771   4.731 -0.0108  0.0506  0.8346
  444MOL0     H59881   5.931   0.474   4.765  0.3218 -0.3775  2.7676
  444MOL0     H59882   6.043   0.571   4.680  2.4806  1.0350  2.1989
  444MOL0     H59883   5.965   0.624   4.978  0.4580 -0.5094  1.0519
  444MOL0     H59884   6.099   0.523   4.934  2.6463  1.0744  1.9882
  444MOL0     H59885   6.170   0.734   4.788  0.2486 -1.0061  0.7470
  444MOL0     H59886   6.053   0.814   4.886 -2.6365 -1.4303 -1.2403
  444MOL0     H59887   6.319   0.786   4.952  0.3405 -0.2632  0.0940
  444MOL0     H59888   6.277   0.629   5.011 -0.9762 -1.6048 -2.0930
  444MOL0     H59889   6.092   0.870   5.105  0.2388  0.4552  0.6207
  444MOL0     H59890   6.134   0.718   5.189 -0.1449 -0.8145 -1.3002
  444MOL0     H59891   6.309   1.053   5.113  1.5927  1.7395  0.3352
  444MOL0     H59892   6.564   1.100   5.111  2.4976  2.8616  0.7182
  444MOL0     H59893   6.582   1.127   5.293  1.4086 -2.9461  1.9335
  444MOL0     H59894   6.727   0.910   5.296 -0.0142  1.2599  1.4163
  444MOL0     H59895   6.688   0.910   5.119 -3.7429 -0.2063  0.4879
  444MOL0     H59896   6.839   1.140   5.251  1.4448 -1.0748  0.3877
  444MOL0     H59897   6.814   1.117   5.082  0.2959  0.7168  0.1884
  444MOL0     H59898   6.964   0.931   5.073 -1.9236  0.8995 -0.8135
  444MOL0     H59899   6.995   0.928   5.249 -1.5259 -1.3565 -1.1062
  444MOL0     H59900   7.191   0.838   5.176  0.6856 -1.7711 -1.3096
  444MOL0     H59901   7.433   0.809   5.177 -0.6720 -0.0169  1.7776
  444MOL0     H59902   7.847   1.051   4.989 -3.7033  4.7287  0.3719
  444MOL0     H59903   8.074   1.071   4.952  0.3836 -0.6087 -0.3846
  444MOL0     H59904   8.304   1.044   4.950  1.0129  0.8259 -1.4387
  444MOL0     H59905   8.283   1.216   4.957 -2.0943 -1.8765 -0.5208
  444MOL0     H59906   8.511   1.168   4.910 -3.2546 -1.9023 -1.1066
  444MOL0     H59907   8.470   1.270   5.045  0.6413 -0.0975 -1.3139
  444MOL0     H59908   8.506   1.111   5.208 -3.6961  0.5335 -0.8912
  444MOL0     H59909   8.525   0.983   5.081 -0.3028  1.8486 -2.3367
  444MOL0     H59910   8.726   1.215   5.094 -0.3105  0.2949 -0.5085
  444MOL0     H59911   8.743   1.055   5.027 -0.3454 -2.6238  0.7051
  444MOL0     H59912   8.731   0.965   5.261  0.4682 -0.2141  0.9170
  444MOL0     H59913   8.701   1.123   5.326 -0.2707 -0.0612 -0.7801
  444MOL0     H59914   8.950   1.031   5.167  1.2802  0.4246 -0.1728
  444MOL0     H59915   8.921   1.193   5.230  4.0650 -0.6720  0.6426
  444MOL0     H59916   8.956   0.960   5.404 -0.3768 -0.3240  0.3680
  444MOL0     H59917   8.903   1.114   5.462 -0.4860 -1.4290 -0.3512
  444MOL0     H59918   9.104   1.207   5.354 -0.7535  0.1803  0.7992
  444MOL0     H59919   9.165   1.090   5.483 -0.2340 -0.4806  0.9430
  444MOL0     H59920   8.144   1.152   5.374 -1.3169 -1.5002  1.6942
  444MOL0     H59921   7.905   1.166   5.403 -0.3214 -0.3458 -0.2593
  444MOL0     H59922   7.509   1.223   5.195 -0.0815 -1.0479  2.4553
  444MOL0     H59923   7.266   1.269   5.161 -2.3055 -0.9001  0.6260
  444MOL0     H59924   5.585   0.311   4.310 -0.9976 -0.1971 -0.7551
  444MOL0     H59925   5.379   0.185   4.282  0.7937  0.5167 -1.9189
  444MOL0     H59926   5.016   0.020   4.350  0.3814 -0.8454 -1.4135
  444MOL0     H59927   4.818  -0.113   4.413 -4.0337 -1.0221 -2.2376
  444MOL0     H59928   4.401   0.072   4.368  0.5497  2.9523  2.4350
  444MOL0     H59929   4.457   0.059   4.535  2.8306  0.4295 -0.7713
  444MOL0     H59930   4.423  -0.176   4.525  0.5057  1.1849  1.4656
  444MOL0     H59931   4.331  -0.166   4.367  0.2682  2.3984 -1.2024
  444MOL0     H59932   4.155  -0.191   4.520  0.8273 -0.1951 -1.9510
  444MOL0     H59933   4.169  -0.014   4.479 -1.2214 -0.1879  0.1862
  444MOL0     H59934   4.289  -0.150   4.723  0.0134 -0.4792  1.2063
  444MOL0     H59935   4.295   0.022   4.685 -1.9979  1.2835 -3.0885
  444MOL0     H59936   3.901  -0.005   4.827 -1.4305 -2.0700 -2.5569
  444MOL0     H59937   4.574   0.233   4.415 -1.8170 -3.0352 -0.2994
  444MOL0     H59938   4.838   0.467   4.306  1.8626 -0.3366  0.7480
  444MOL0     H59939   4.671   0.443   4.357  0.7062  0.2741 -2.8858
  444MOL0     H59940   4.799   0.451   4.485 -2.3934 -1.2767  0.1193
  445MOL0     O59941   9.315   0.155   4.840  0.0734  0.3227 -0.7986
  445MOL0     C59942   9.286   0.092   4.941 -0.2302  0.9891  0.6165
  445MOL0     O59943   9.382   0.025   5.016  0.3114  0.4279  0.0485
  445MOL0     C59944   9.504   0.003   4.959  0.3736 -0.2086 -0.3331
  445MOL0     C59945   9.526  -0.062   4.837  0.0736  0.1111 -0.5036
  445MOL0     C59946   9.648  -0.067   4.779  0.3489 -0.2143  1.0645
  445MOL0     C59947   9.761  -0.021   4.851 -0.4422  0.4124 -0.5265
  445MOL0     O59948   9.891  -0.036   4.801  0.3883  0.1725  0.3818
  445MOL0     C59949   9.916  -0.149   4.716  0.0726  0.1540 -0.3065
  445MOL0     C59950  10.063  -0.198   4.738 -0.0648 -0.5157  0.1136
  445MOL0     C59951  10.167  -0.080   4.715  0.6755  0.8960 -0.2056
  445MOL0     C59952  10.309  -0.132   4.703 -0.0501  0.0125  0.9148
  445MOL0     C59953  10.414  -0.042   4.770  0.6600 -0.4256 -0.4746
  445MOL0     C59954  10.562  -0.083   4.737 -0.2330  0.4781 -0.7343
  445MOL0     C59955  10.593  -0.239   4.758 -0.0865 -0.0489  0.2597
  445MOL0     C59956  10.743  -0.257   4.749 -0.3208  0.5122 -0.2060
  445MOL0     N59957  10.794  -0.281   4.613 -0.1780  0.1920  0.8066
  445MOL0     C59958  10.788  -0.404   4.550  0.9423 -0.3133  0.2506
  445MOL0     C59959  10.853  -0.380   4.436 -0.9548  0.1259 -0.7158
  445MOL0     C59960  10.882  -0.486   4.334 -0.3622 -0.1829  0.7339
  445MOL0     C59961  11.042  -0.488   4.311  0.4421 -0.3646 -0.0946
  445MOL0     C59962  11.063  -0.602   4.211  0.0711  0.2294 -0.6625
  445MOL0     C59963  11.192  -0.597   4.152 -0.3583 -0.0469  0.2998
  445MOL0     O59964  11.220  -0.712   4.071  1.2876 -0.3354  0.2164
  445MOL0     C59965  11.350  -0.715   4.024 -0.1516  0.2620  0.6146
  445MOL0     C59966  11.411  -0.842   4.032 -0.6587 -0.5095  1.2703
  445MOL0     C59967  11.552  -0.867   4.019  0.7400 -0.1029  0.2057
  445MOL0     C59968  11.627  -0.760   3.981  0.0936 -0.9752 -0.4864
  445MOL0     C59969  11.773  -0.776   3.946  0.0777 -0.2151 -0.2465
  445MOL0     O59970  11.838  -0.884   4.005  0.7000  0.0081 -0.0854
  445MOL0     C59971  11.969  -0.902   3.980  0.9040  0.6886 -0.2965
  445MOL0     C59972  12.005  -1.002   3.888  0.0282  0.1899  0.6347
  445MOL0     C59973  12.134  -1.029   3.861 -0.7179 -0.3504 -0.3013
  445MOL0     C59974  12.241  -0.961   3.924  0.3978 -0.6157  1.1255
  445MOL0     O59975  12.373  -0.974   3.877 -0.3728  0.2053 -0.0389
  445MOL0     C59976  12.401  -0.995   3.740  0.1581 -0.0796 -0.4780
  445MOL0     C59977  12.554  -1.008   3.718  0.7000 -1.1134  0.8253
  445MOL0     C59978  12.604  -1.153   3.752  0.0894  0.2832  0.6155
  445MOL0     C59979  12.725  -1.194   3.664 -0.3396 -0.1823  0.6557
  445MOL0     C59980  12.802  -1.310   3.722  0.3966  0.0575  0.6149
  445MOL0     C59981  12.884  -1.378   3.619 -0.1943 -0.1799  0.3365
  445MOL0     C59982  12.961  -1.491   3.684  0.3910 -0.1431 -0.3466
  445MOL0     C59983  13.034  -1.574   3.576  0.4870 -0.1278  0.6317
  445MOL0    Cl59984  13.133  -1.689   3.653  0.3330  0.1966  0.0530
  445MOL0     C59985  12.205  -0.874   4.022  0.3900  0.1740 -0.4989
  445MOL0     C59986  12.067  -0.841   4.053 -0.5084  0.7191  0.9343
  445MOL0     O59987  11.834  -0.687   3.887  0.1176  0.3203 -0.0385
  445MOL0     C59988  11.561  -0.634   3.953  0.2280  0.1245 -0.1359
  445MOL0     C59989  11.427  -0.611   3.971 -0.4782  0.1164  0.1917
  445MOL0     N59990  10.891  -0.251   4.419 -0.9000 -0.0931  0.5269
  445MOL0     N59991  10.874  -0.200   4.538  0.5113 -0.4995  0.0632
  445MOL0     C59992   9.743   0.039   4.976 -0.4021  0.2126  0.0881
  445MOL0     C59993   9.612   0.061   5.024 -0.0114  0.4080  0.8001
  445MOL0     C59994   9.144   0.089   4.999  0.2622 -0.0729  0.2371
  445MOL0     C59995   9.122   0.015   5.119  0.1837  0.8208 -0.3640
  445MOL0     C59996   8.987  -0.005   5.160 -0.3391  0.3757  0.1692
  445MOL0     C59997   8.881   0.043   5.093  0.1978 -0.0944 -0.2155
  445MOL0     O59998   8.758   0.026   5.154 -0.4187 -0.3920  0.1684
  445MOL0     C59999   8.664   0.130   5.176  0.0623  0.6887  0.5249
  445MOL0     C60000   8.715   0.228   5.277  0.0716  0.1908 -0.4365
  445MOL0     C60001   8.740   0.167   5.417  0.1912 -0.6312  0.2991
  445MOL0     C60002   8.803   0.260   5.518  0.5602 -0.8070 -0.0396
  445MOL0     C60003   8.950   0.282   5.497  0.3956  0.3469 -0.7084
  445MOL0     C60004   9.062   0.282   5.475 -0.5634  0.5829  0.0893
  445MOL0     C60005   8.905   0.136   4.991 -0.4112 -0.6999 -0.3575
  445MOL0     C60006   9.035   0.153   4.935 -0.0704  0.1952  0.3186
  445MOL0     C60007   9.046   0.232   4.805 -0.7830 -0.1700  0.1685
  445MOL0     H60008   9.445  -0.097   4.775  1.3186 -0.8619 -1.6472
  445MOL0     H60009   9.646  -0.097   4.675  0.5230 -1.1411  1.3228
  445MOL0     H60010   9.856  -0.236   4.744  0.6746 -0.8927 -2.1253
  445MOL0     H60011   9.897  -0.123   4.612  0.8634  0.2724 -0.4233
  445MOL0     H60012  10.083  -0.278   4.666 -1.1725 -1.1848  0.5253
  445MOL0     H60013  10.086  -0.244   4.835 -0.3223  0.0347  0.4385
  445MOL0     H60014  10.159  -0.010   4.798  1.0306 -1.6177  2.0565
  445MOL0     H60015  10.124  -0.035   4.625  1.1173 -1.9257 -1.9386
  445MOL0     H60016  10.306  -0.235   4.739 -1.0145 -0.2537  0.1343
  445MOL0     H60017  10.323  -0.130   4.594 -2.0893  0.7624  0.6118
  445MOL0     H60018  10.396   0.063   4.745 -2.8744 -0.5815  0.8547
  445MOL0     H60019  10.402  -0.051   4.879  0.1489  0.6456 -0.4269
  445MOL0     H60020  10.574  -0.053   4.632  1.3385  0.7036 -0.5144
  445MOL0     H60021  10.633  -0.030   4.801 -1.8516  1.8944 -0.0474
  445MOL0     H60022  10.544  -0.287   4.673  0.6100 -1.6879  0.7355
  445MOL0     H60023  10.544  -0.279   4.848  2.3321 -0.2322  1.5966
  445MOL0     H60024  10.799  -0.178   4.800  1.0157 -1.1859  1.0904
  445MOL0     H60025  10.765  -0.346   4.808 -2.7105 -1.6567 -2.3557
  445MOL0     H60026  10.734  -0.495   4.577 -0.0228 -0.4284 -1.8686
  445MOL0     H60027  10.851  -0.586   4.365  0.4112 -1.5368 -2.4998
  445MOL0     H60028  10.830  -0.453   4.244 -0.6398 -0.4123  0.8098
  445MOL0     H60029  11.078  -0.394   4.270  0.4310  0.5258  1.8597
  445MOL0     H60030  11.080  -0.508   4.411  0.5310 -0.7688 -0.2041
  445MOL0     H60031  10.990  -0.593   4.130 -0.0254  1.0462 -0.4945
  445MOL0     H60032  11.039  -0.700   4.255 -0.3673  1.0979  1.1342
  445MOL0     H60033  11.265  -0.586   4.232 -0.1912  0.9857  0.0212
  445MOL0     H60034  11.190  -0.504   4.094  2.4956  0.6386  1.1265
  445MOL0     H60035  11.353  -0.923   4.074 -1.2898 -1.7387 -1.7342
  445MOL0     H60036  11.587  -0.969   4.026  1.2549 -0.1122 -1.8888
  445MOL0     H60037  11.923  -1.055   3.839  0.4917  0.4570 -0.4573
  445MOL0     H60038  12.149  -1.102   3.782  2.0037  2.9122 -3.1172
  445MOL0     H60039  12.341  -1.076   3.699 -1.4681  1.0268 -0.3853
  445MOL0     H60040  12.380  -0.908   3.678 -2.0956  0.5868  1.1072
  445MOL0     H60041  12.564  -0.986   3.611  0.7430  0.3903  1.1154
  445MOL0     H60042  12.602  -0.927   3.775  2.3900  0.5138 -2.5771
  445MOL0     H60043  12.623  -1.159   3.859 -1.3065 -0.2315  0.8495
  445MOL0     H60044  12.518  -1.218   3.737 -0.3240  0.5886  1.5963
  445MOL0     H60045  12.794  -1.110   3.676 -0.4063  0.0093 -0.2393
  445MOL0     H60046  12.706  -1.211   3.558  1.1171 -0.6480  0.4476
  445MOL0     H60047  12.739  -1.391   3.761  0.9447 -0.9171 -0.4460
  445MOL0     H60048  12.852  -1.263   3.807  0.0034  0.8034  0.4405
  445MOL0     H60049  12.808  -1.421   3.553  0.1936  0.7019 -0.7285
  445MOL0     H60050  12.947  -1.307   3.565 -0.5874  0.7583  1.1008
  445MOL0     H60051  12.890  -1.544   3.748  2.3477  0.6221  2.7305
  445MOL0     H60052  13.037  -1.456   3.756 -0.3253 -2.6414  1.8076
  445MOL0     H60053  12.968  -1.625   3.506  2.4251  0.5175 -1.8064
  445MOL0     H60054  13.088  -1.503   3.513  2.9382 -0.8085  1.8220
  445MOL0     H60055  12.290  -0.826   4.070  0.3258  2.6122 -2.6229
  445MOL0     H60056  12.023  -0.787   4.136 -3.3499 -0.5268  0.3525
  445MOL0     H60057  11.610  -0.549   3.906 -3.1065  1.4662 -1.4849
  445MOL0     H60058  11.380  -0.515   3.952 -1.4461 -0.5587 -0.9166
  445MOL0     H60059   9.834   0.074   5.024  1.1538 -2.1701 -0.9138
  445MOL0     H60060   9.607   0.119   5.115  1.5667  0.5134  0.8564
  445MOL0     H60061   9.203  -0.024   5.179  0.7856  1.1676 -0.9365
  445MOL0     H60062   8.971  -0.056   5.255  0.4527 -2.2386 -0.9951
  445MOL0     H60063   8.570   0.092   5.216 -0.6363  1.9649  0.1484
  445MOL0     H60064   8.637   0.181   5.083 -1.3007 -1.5068 -0.3507
  445MOL0     H60065   8.648   0.313   5.288  1.4500  0.9634  6.1847
  445MOL0     H60066   8.805   0.275   5.236  0.4958 -0.1347  0.1129
  445MOL0     H60067   8.806   0.081   5.404 -0.0515 -0.7930  0.1130
  445MOL0     H60068   8.651   0.131   5.470  0.4290 -0.4123  0.8546
  445MOL0     H60069   8.757   0.358   5.500  0.8806 -1.3042 -4.8137
  445MOL0     H60070   8.780   0.237   5.623  2.2040  3.4210  1.4426
  445MOL0     H60071   9.168   0.285   5.463 -0.6854 -0.3269 -1.3477
  445MOL0     H60072   8.815   0.185   4.955  0.0281  0.1659 -0.2970
  445MOL0     H60073   9.120   0.312   4.800 -0.0006 -0.7842  1.5681
  445MOL0     H60074   9.060   0.167   4.718  1.1352  1.7539 -1.0476
  445MOL0     H60075   8.954   0.289   4.786  0.6110  2.1693  0.0171
  446MOL0     O60076   4.384   1.809   8.833  0.1751 -0.3578 -0.1286
  446MOL0     C60077   4.310   1.902   8.861  0.0451  0.6406 -0.5798
  446MOL0     O60078   4.354   2.031   8.869  0.2235 -0.2524  0.6470
  446MOL0     C60079   4.484   2.054   8.840  0.4429 -0.1315 -0.7159
  446MOL0     C60080   4.584   2.036   8.934 -0.5478 -0.9805  0.3772
  446MOL0     C60081   4.719   2.056   8.908 -0.7329 -0.1914  0.9013
  446MOL0     C60082   4.744   2.122   8.789 -0.1387  0.6713  0.2026
  446MOL0     O60083   4.876   2.153   8.768  0.0646 -0.4193 -0.7011
  446MOL0     C60084   4.902   2.270   8.701 -0.6794  0.0719  0.4699
  446MOL0     C60085   5.029   2.329   8.778  0.1222 -0.9429 -0.4721
  446MOL0     C60086   5.163   2.256   8.751  0.3248  0.3676 -0.3969
  446MOL0     C60087   5.265   2.312   8.858  0.7783 -0.4162 -0.2653
  446MOL0     C60088   5.412   2.260   8.840 -0.0248  0.2021  0.0663
  446MOL0     C60089   5.512   2.344   8.928 -0.2331 -0.2223  0.2343
  446MOL0     C60090   5.644   2.268   8.939  0.1234 -0.0152 -0.5606
  446MOL0     C60091   5.736   2.263   8.811  0.6442 -0.1557 -0.1225
  446MOL0     N60092   5.847   2.349   8.821 -0.0736  0.7352 -0.0352
  446MOL0     C60093   5.974   2.330   8.776  0.1665 -0.4674 -0.4778
  446MOL0     C60094   6.031   2.450   8.805  0.3092  0.2568 -0.0202
  446MOL0     C60095   6.188   2.474   8.773  0.0565  0.3846  0.3772
  446MOL0     C60096   6.249   2.599   8.830  0.3144 -0.0902  0.3107
  446MOL0     C60097   6.227   2.617   8.981  0.2139  1.1325 -0.8933
  446MOL0     C60098   6.350   2.670   9.054  0.3315  1.0562 -0.1739
  446MOL0     O60099   6.454   2.582   9.020  0.2562  0.1954 -0.5367
  446MOL0     C60100   6.578   2.607   9.083  0.0729  0.3757  0.1176
  446MOL0     C60101   6.598   2.699   9.180  0.2955 -1.0766  0.5308
  446MOL0     C60102   6.726   2.719   9.237  0.8689 -0.4284 -0.8676
  446MOL0     C60103   6.836   2.646   9.193 -0.2116 -0.2981 -0.3163
  446MOL0     C60104   6.965   2.661   9.266 -0.6079  0.4654 -1.0066
  446MOL0     O60105   6.972   2.757   9.365  0.0543 -0.5286 -0.0207
  446MOL0     C60106   7.097   2.781   9.416 -0.5710  0.0247 -0.0009
  446MOL0     C60107   7.206   2.828   9.338 -0.5186 -0.4039  0.1036
  446MOL0     C60108   7.330   2.860   9.400  1.0877  0.4021 -0.1364
  446MOL0     C60109   7.345   2.843   9.530 -1.3201 -0.5966  0.5056
  446MOL0     O60110   7.466   2.851   9.598 -0.7990 -0.8184  0.0448
  446MOL0     C60111   7.585   2.864   9.521  0.0980 -0.6882 -1.0192
  446MOL0     C60112   7.709   2.868   9.616 -0.1374  0.3396 -0.5555
  446MOL0     C60113   7.822   2.806   9.540 -0.8723  0.5742  0.5672
  446MOL0     C60114   7.941   2.796   9.630 -0.5061 -0.6586  0.2059
  446MOL0     C60115   8.055   2.705   9.570 -0.9596 -0.4481  0.0047
  446MOL0     C60116   8.185   2.687   9.659  0.1339  0.4028 -0.8393
  446MOL0     C60117   8.269   2.806   9.606  0.0144 -0.1116 -0.5381
  446MOL0     C60118   8.411   2.806   9.648 -0.1891  0.4770  0.1933
  446MOL0    Cl60119   8.502   2.644   9.625  0.1311 -0.4482  0.2000
  446MOL0     C60120   7.245   2.783   9.611 -1.1665 -0.0383  0.6661
  446MOL0     C60121   7.121   2.760   9.550 -0.4961 -0.0012 -1.0157
  446MOL0     O60122   7.047   2.574   9.234 -0.0840 -0.3472 -0.4947
  446MOL0     C60123   6.819   2.555   9.091 -1.2069 -0.3037  0.2848
  446MOL0     C60124   6.685   2.530   9.042 -0.2999  0.8629 -0.2162
  446MOL0     N60125   5.941   2.540   8.859  0.1729 -0.0332 -0.5311
  446MOL0     N60126   5.830   2.470   8.871  0.2681  0.1434 -0.5716
  446MOL0     C60127   4.647   2.125   8.685 -0.1632  0.0369 -0.2427
  446MOL0     C60128   4.518   2.096   8.714 -0.5252 -0.2454 -0.5122
  446MOL0     C60129   4.176   1.861   8.919  0.9202  0.1964 -0.0344
  446MOL0     C60130   4.085   1.959   8.944  0.4734 -0.8654  0.6928
  446MOL0     C60131   3.950   1.937   9.000 -0.8125  0.1862 -0.0114
  446MOL0     C60132   3.911   1.809   9.024  0.4099 -0.7161 -0.1368
  446MOL0     O60133   3.779   1.800   9.071  0.6389  0.0641  0.5141
  446MOL0     C60134   3.719   1.666   9.080 -0.1953 -0.5335  0.3553
  446MOL0     C60135   3.702   1.613   8.939  0.4959 -0.5394  0.6245
  446MOL0     C60136   3.609   1.692   8.846  0.4883  0.2843  0.1308
  446MOL0     C60137   3.469   1.708   8.902 -0.0849 -0.2900  0.0531
  446MOL0     C60138   3.410   1.579   8.899  0.5256  0.5262 -0.2373
  446MOL0     C60139   3.366   1.467   8.892 -0.6901  0.5539  0.0349
  446MOL0     C60140   4.002   1.706   9.001  0.0079  0.2797 -0.5687
  446MOL0     C60141   4.129   1.732   8.948 -0.4832  0.0906 -0.2021
  446MOL0     C60142   4.204   1.601   8.933 -0.3511 -0.7867  0.4704
  446MOL0     H60143   4.545   2.012   9.033 -2.2310  2.5335  0.7546
  446MOL0     H60144   4.802   2.025   8.970 -0.9665 -0.3089  1.1599
  446MOL0     H60145   4.932   2.257   8.596  0.3146 -2.8492  1.0214
  446MOL0     H60146   4.817   2.336   8.721 -0.4233  0.1268  1.4012
  446MOL0     H60147   5.024   2.344   8.886  4.0971  2.5152 -0.5320
  446MOL0     H60148   5.039   2.430   8.739  1.0782 -0.8034  0.1211
  446MOL0     H60149   5.196   2.265   8.647 -1.5792 -2.2747 -1.3175
  446MOL0     H60150   5.150   2.154   8.786 -2.9558  0.0632 -2.1599
  446MOL0     H60151   5.258   2.421   8.868  1.7920 -0.5303  2.6599
  446MOL0     H60152   5.236   2.271   8.954 -0.4380 -2.1969 -1.3405
  446MOL0     H60153   5.428   2.155   8.868  0.7747  0.6545  1.4240
  446MOL0     H60154   5.443   2.274   8.736 -1.3804  0.6929 -0.2830
  446MOL0     H60155   5.529   2.443   8.882 -2.1462 -0.3521 -0.8786
  446MOL0     H60156   5.470   2.347   9.028 -0.6945 -0.4118  0.0466
  446MOL0     H60157   5.599   2.169   8.954 -2.2575  0.8248 -1.7246
  446MOL0     H60158   5.697   2.304   9.028  0.7112 -0.5592 -0.6763
  446MOL0     H60159   5.773   2.162   8.795  1.6507  0.4638 -2.0244
  446MOL0     H60160   5.671   2.275   8.723  0.0528 -2.1262  0.0030
  446MOL0     H60161   6.024   2.251   8.722 -3.3328 -2.0810 -1.6657
  446MOL0     H60162   6.251   2.386   8.791  0.3216  0.2471 -1.1141
  446MOL0     H60163   6.188   2.475   8.664 -0.2022 -1.2218  0.3480
  446MOL0     H60164   6.353   2.602   8.796 -0.1112  0.0485 -1.0040
  446MOL0     H60165   6.194   2.675   8.775 -0.7694 -1.5502 -0.6772
  446MOL0     H60166   6.191   2.521   9.020 -3.2871  1.8857 -1.8514
  446MOL0     H60167   6.138   2.678   9.000  0.4560  0.9054  1.3200
  446MOL0     H60168   6.334   2.663   9.162  0.8541 -3.6108 -0.2176
  446MOL0     H60169   6.369   2.773   9.022  2.8053  0.5768 -0.4215
  446MOL0     H60170   6.521   2.769   9.211  1.0577  0.5934 -1.1757
  446MOL0     H60171   6.739   2.793   9.315  1.5731 -2.3025  0.8698
  446MOL0     H60172   7.193   2.838   9.231  1.7646 -1.0731 -0.2802
  446MOL0     H60173   7.399   2.903   9.328  2.0337 -0.6305  0.1303
  446MOL0     H60174   7.595   2.782   9.449  0.1398  0.8953 -2.9047
  446MOL0     H60175   7.585   2.956   9.462  0.2464  0.8628  1.2533
  446MOL0     H60176   7.733   2.967   9.656  0.2562  1.1986 -2.7438
  446MOL0     H60177   7.671   2.801   9.693 -0.1635  0.2889 -0.6129
  446MOL0     H60178   7.797   2.704   9.513  1.3307 -0.1462  1.0216
  446MOL0     H60179   7.849   2.856   9.447  2.5144  0.9464  1.5931
  446MOL0     H60180   7.912   2.743   9.720  0.3617 -0.4200  0.6390
  446MOL0     H60181   7.986   2.893   9.652 -1.4382  0.0630 -0.9241
  446MOL0     H60182   8.081   2.726   9.465  0.9955  0.5853  0.6570
  446MOL0     H60183   8.004   2.608   9.565 -1.6820 -0.0394 -0.9178
  446MOL0     H60184   8.160   2.705   9.764  2.0126  1.1784 -0.4941
  446MOL0     H60185   8.234   2.590   9.645 -0.3678 -0.2541  1.4974
  446MOL0     H60186   8.214   2.894   9.642 -0.8543 -1.5591  1.9210
  446MOL0     H60187   8.275   2.818   9.497 -2.1434  4.1101 -0.4052
  446MOL0     H60188   8.471   2.890   9.611 -2.2686  1.8136 -0.3834
  446MOL0     H60189   8.418   2.829   9.755  2.6887 -2.6878  0.8402
  446MOL0     H60190   7.261   2.757   9.715 -2.7588 -1.2578  0.6380
  446MOL0     H60191   7.053   2.727   9.628  0.2962  0.4325 -0.1132
  446MOL0     H60192   6.900   2.495   9.049 -0.7719  1.4345 -1.5556
  446MOL0     H60193   6.661   2.463   8.960 -0.3925 -1.0546  1.3051
  446MOL0     H60194   4.686   2.156   8.589  0.7199 -0.1556  0.0437
  446MOL0     H60195   4.438   2.115   8.642  0.4190  1.7551 -1.1215
  446MOL0     H60196   4.109   2.063   8.924  0.9967 -0.9110  1.0702
  446MOL0     H60197   3.889   2.024   9.019  1.1392  1.7385 -0.5115
  446MOL0     H60198   3.619   1.682   9.120 -0.6867  0.6683 -1.2350
  446MOL0     H60199   3.774   1.591   9.137 -2.2687 -2.3287  0.1310
  446MOL0     H60200   3.668   1.509   8.949  0.4307 -0.7560 -1.4915
  446MOL0     H60201   3.802   1.624   8.896  0.6665  1.7087  1.4712
  446MOL0     H60202   3.600   1.643   8.749 -1.6154 -1.3220  1.0390
  446MOL0     H60203   3.652   1.793   8.849  0.6625  0.1981  0.9917
  446MOL0     H60204   3.471   1.748   9.004  1.4450  0.9565 -0.4258
  446MOL0     H60205   3.416   1.785   8.845  1.2344  1.1836  0.7571
  446MOL0     H60206   3.329   1.369   8.867 -1.8930  1.0257 -0.0795
  446MOL0     H60207   3.966   1.608   9.031 -1.6467  0.3199 -2.2306
  446MOL0     H60208   4.230   1.599   8.827  1.5916 -1.1213  0.9328
  446MOL0     H60209   4.285   1.593   9.005  0.5006  1.5754 -0.1358
  446MOL0     H60210   4.132   1.519   8.945 -1.1524 -0.0973  0.4896
  447MOL0     O60211   3.255   2.845   8.593 -0.9065 -0.7108 -0.7808
  447MOL0     C60212   3.156   2.775   8.599  0.2899 -0.2476 -0.9725
  447MOL0     O60213   3.150   2.643   8.564  0.2777 -0.0441 -0.8182
  447MOL0     C60214   3.263   2.575   8.583  0.7081 -0.4117 -0.9305
  447MOL0     C60215   3.382   2.585   8.508 -0.4513 -0.1263 -0.0785
  447MOL0     C60216   3.497   2.512   8.538 -0.7811 -0.5165 -0.1901
  447MOL0     C60217   3.493   2.429   8.653  0.4680 -0.7231  0.7329
  447MOL0     O60218   3.610   2.364   8.678 -0.0122  0.2928 -0.7452
  447MOL0     C60219   3.632   2.347   8.819  0.1724  0.2162  0.0999
  447MOL0     C60220   3.771   2.288   8.859  0.6200  0.2517 -0.4138
  447MOL0     C60221   3.875   2.388   8.814 -0.2250  0.2335  0.5403
  447MOL0     C60222   4.014   2.332   8.802 -0.6730  0.4033  0.4056
  447MOL0     C60223   4.117   2.441   8.797  0.0680  0.0853  0.6943
  447MOL0     C60224   4.258   2.379   8.797 -0.1869  0.2697  0.4201
  447MOL0     C60225   4.358   2.492   8.805  0.0436  0.2387  0.5233
  447MOL0     C60226   4.493   2.461   8.867  0.1774  0.4086  0.2741
  447MOL0     N60227   4.540   2.585   8.919 -1.1135  0.7422 -0.1282
  447MOL0     C60228   4.529   2.612   9.048  0.4753 -0.0353 -1.2742
  447MOL0     C60229   4.570   2.736   9.067 -0.2507 -0.0409 -0.5106
  447MOL0     C60230   4.578   2.816   9.188  0.1781  0.1748 -0.4387
  447MOL0     C60231   4.442   2.845   9.251  0.2191  0.0309 -0.0604
  447MOL0     C60232   4.463   2.893   9.391 -0.6110 -0.4224 -0.1008
  447MOL0     C60233   4.339   2.951   9.465 -0.1031  0.2106 -0.4492
  447MOL0     O60234   4.294   3.080   9.410  0.4463  0.2635 -0.6212
  447MOL0     C60235   4.158   3.101   9.419  0.5760  0.0176  0.9357
  447MOL0     C60236   4.096   3.163   9.523 -0.8111 -0.1562 -0.8973
  447MOL0     C60237   3.958   3.196   9.512  0.0806 -0.0691  0.3371
  447MOL0     C60238   3.878   3.168   9.401 -0.5777  0.0464 -0.2378
  447MOL0     C60239   3.737   3.194   9.392  0.0644 -0.3238 -0.2544
  447MOL0     O60240   3.664   3.135   9.294  0.2356 -0.0952  0.6209
  447MOL0     C60241   3.529   3.164   9.263  0.6585 -0.7037 -0.2987
  447MOL0     C60242   3.496   3.144   9.130  0.0156 -0.0477  0.1721
  447MOL0     C60243   3.373   3.190   9.082  0.4023  0.3545 -0.1693
  447MOL0     C60244   3.276   3.258   9.163  0.0581  0.1625  0.0185
  447MOL0     O60245   3.154   3.285   9.105  0.5842  0.4336  0.1821
  447MOL0     C60246   3.064   3.163   9.111 -0.3821 -0.5317  0.2450
  447MOL0     C60247   2.930   3.198   9.050 -0.1268  0.1915 -0.1727
  447MOL0     C60248   2.814   3.100   9.068  0.1554  0.2786 -0.0161
  447MOL0     C60249   2.696   3.159   9.152 -0.3297  0.3559 -0.0087
  447MOL0     C60250   2.576   3.077   9.154  0.5119  0.3839  0.6410
  447MOL0     C60251   2.454   3.152   9.204 -1.0314 -0.3585 -0.1177
  447MOL0     C60252   2.332   3.064   9.206  0.5728  0.2624 -0.6019
  447MOL0     C60253   2.209   3.126   9.279 -0.5195 -0.2738  0.0191
  447MOL0    Cl60254   2.070   3.015   9.247 -0.0722  0.1568  0.1371
  447MOL0     C60255   3.307   3.266   9.298 -0.5754  0.2929 -0.4515
  447MOL0     C60256   3.431   3.220   9.346 -0.5044  0.0540 -1.4768
  447MOL0     O60257   3.691   3.269   9.482 -0.4847 -0.5009  0.8481
  447MOL0     C60258   3.943   3.110   9.295  0.0778 -0.7129 -0.0794
  447MOL0     C60259   4.083   3.088   9.298  0.5259 -0.1431  0.1908
  447MOL0     N60260   4.610   2.791   8.948  0.5440  0.0653 -0.1327
  447MOL0     N60261   4.597   2.696   8.856  0.1856 -0.0194 -0.2021
  447MOL0     C60262   3.371   2.427   8.738 -0.6941  0.1883  0.0961
  447MOL0     C60263   3.259   2.498   8.698 -0.5671  0.5637  0.1337
  447MOL0     C60264   3.034   2.842   8.643 -0.1408 -0.2959  0.7322
  447MOL0     C60265   2.917   2.765   8.662  1.4639  0.1698 -0.7554
  447MOL0     C60266   2.797   2.819   8.698 -0.0619 -0.8205  0.0995
  447MOL0     C60267   2.769   2.956   8.707 -0.3285  0.4024  0.6956
  447MOL0     O60268   2.642   2.992   8.741  0.0720 -0.4984 -0.5103
  447MOL0     C60269   2.612   3.139   8.736 -0.1049  0.3376 -0.2060
  447MOL0     C60270   2.465   3.178   8.780 -0.8430 -0.1733 -0.3037
  447MOL0     C60271   2.372   3.130   8.669  0.4057  0.3474 -0.6246
  447MOL0     C60272   2.225   3.159   8.709 -0.4382 -0.0722 -0.1683
  447MOL0     C60273   2.178   3.063   8.810  0.4129 -0.6032  0.0551
  447MOL0     C60274   2.120   2.986   8.884 -0.2320 -0.0621  0.7176
  447MOL0     C60275   2.891   3.036   8.698 -0.3277  0.0472  0.4014
  447MOL0     C60276   3.019   2.983   8.671 -0.2579 -0.0160 -0.1899
  447MOL0     C60277   3.138   3.083   8.685  0.0086 -0.0885  0.0605
  447MOL0     H60278   3.391   2.648   8.420  1.7317 -0.0636  0.1431
  447MOL0     H60279   3.591   2.511   8.484 -0.3372 -0.7436  0.5670
  447MOL0     H60280   3.612   2.448   8.856  1.1523  0.2907  0.4707
  447MOL0     H60281   3.578   2.257   8.851  1.5712 -1.5677 -2.2673
  447MOL0     H60282   3.788   2.193   8.809 -0.2405 -1.2004  1.8894
  447MOL0     H60283   3.777   2.272   8.967 -0.3682  2.6227  0.0558
  447MOL0     H60284   3.874   2.470   8.886 -1.3597 -0.3530  1.2304
  447MOL0     H60285   3.848   2.424   8.714  0.5995 -1.9589 -0.5409
  447MOL0     H60286   4.039   2.267   8.887 -0.4569 -1.4834 -1.0482
  447MOL0     H60287   4.023   2.255   8.725 -2.3185  0.2908  0.2980
  447MOL0     H60288   4.104   2.518   8.719  0.9631 -0.5287 -0.0801
  447MOL0     H60289   4.105   2.494   8.892  0.8616  2.3924 -0.4104
  447MOL0     H60290   4.268   2.312   8.882  0.6397 -0.9109 -0.5802
  447MOL0     H60291   4.265   2.322   8.704  1.1673  1.5119 -0.2806
  447MOL0     H60292   4.309   2.557   8.878 -1.8459 -2.1816  1.5884
  447MOL0     H60293   4.363   2.531   8.703 -0.0306 -0.3987  0.2727
  447MOL0     H60294   4.476   2.392   8.950  0.0864  1.8902  1.5395
  447MOL0     H60295   4.562   2.417   8.794  0.0171 -0.9797  0.9302
  447MOL0     H60296   4.482   2.559   9.131 -0.7228  2.1057 -0.5100
  447MOL0     H60297   4.630   2.755   9.263  1.2237 -0.6804 -1.8089
  447MOL0     H60298   4.635   2.909   9.182  1.1120 -0.1332  2.0992
  447MOL0     H60299   4.390   2.919   9.189 -3.7877 -2.7359 -0.3444
  447MOL0     H60300   4.374   2.760   9.249 -3.6098  2.7558  1.7730
  447MOL0     H60301   4.539   2.972   9.386  0.0506 -0.8953  1.6517
  447MOL0     H60302   4.508   2.813   9.450 -0.1544  0.4523  0.7675
  447MOL0     H60303   4.351   2.961   9.573 -3.0878 -1.0703  0.0976
  447MOL0     H60304   4.261   2.875   9.461 -0.8661  0.8849  0.8687
  447MOL0     H60305   4.134   3.180   9.623  1.2045 -0.5616 -1.5460
  447MOL0     H60306   3.908   3.251   9.592  1.7125  1.4164  0.3874
  447MOL0     H60307   3.572   3.103   9.065  0.8300  0.3099  0.8905
  447MOL0     H60308   3.358   3.173   8.976  1.6371 -0.7621 -0.1845
  447MOL0     H60309   3.110   3.077   9.063 -2.2150 -1.5809  0.3030
  447MOL0     H60310   3.061   3.134   9.217 -0.7370  0.4975  0.5348
  447MOL0     H60311   2.909   3.301   9.081  3.1013  1.4997 -1.7915
  447MOL0     H60312   2.947   3.201   8.942  0.0714  0.8016 -0.1318
  447MOL0     H60313   2.778   3.064   8.972 -0.0780 -0.5433  0.3673
  447MOL0     H60314   2.855   3.021   9.132  0.7695  1.0459  0.5731
  447MOL0     H60315   2.680   3.263   9.121 -0.5326  0.4185  0.2967
  447MOL0     H60316   2.729   3.168   9.256  0.2175  1.4573 -0.2650
  447MOL0     H60317   2.591   2.984   9.209  0.7045 -0.1264 -0.2614
  447MOL0     H60318   2.549   3.051   9.051  0.6454 -2.2670  1.2144
  447MOL0     H60319   2.476   3.170   9.309 -0.5143  2.4033 -0.6268
  447MOL0     H60320   2.426   3.244   9.151 -0.1335 -0.2670 -0.4420
  447MOL0     H60321   2.367   2.974   9.257 -1.3056 -0.0357  0.2317
  447MOL0     H60322   2.301   3.037   9.104 -2.5964  0.3868  0.2091
  447MOL0     H60323   2.220   3.136   9.387  1.8000 -1.2882 -0.0741
  447MOL0     H60324   2.188   3.228   9.244 -1.0240  0.8952  3.4111
  447MOL0     H60325   3.235   3.315   9.363 -0.7793  1.9242 -1.8435
  447MOL0     H60326   3.446   3.216   9.453 -3.7652 -0.8807 -0.9645
  447MOL0     H60327   3.890   3.100   9.201 -1.2343 -1.8220  0.7576
  447MOL0     H60328   4.142   3.050   9.215 -0.4463  0.0945 -0.6256
  447MOL0     H60329   3.370   2.358   8.821 -1.1818 -0.7381 -0.6597
  447MOL0     H60330   3.171   2.489   8.760  0.5421 -2.5442  1.4763
  447MOL0     H60331   2.925   2.657   8.657 -3.1720 -0.3255 -3.3449
  447MOL0     H60332   2.723   2.740   8.703 -0.1843 -0.8036 -1.0972
  447MOL0     H60333   2.635   3.182   8.638 -1.7960 -0.4979 -1.0168
  447MOL0     H60334   2.679   3.188   8.808  1.2560  3.2637 -3.2173
  447MOL0     H60335   2.448   3.284   8.802  2.5492  0.5809 -0.8166
  447MOL0     H60336   2.441   3.125   8.873 -0.6116  0.2143 -0.0203
  447MOL0     H60337   2.391   3.024   8.647 -0.9801  0.4210 -2.5045
  447MOL0     H60338   2.393   3.193   8.582  2.8189 -1.7734 -1.7120
  447MOL0     H60339   2.229   3.259   8.754 -2.7967 -0.4035  0.9204
  447MOL0     H60340   2.158   3.164   8.623 -0.2898 -1.2526 -0.3633
  447MOL0     H60341   2.055   2.931   8.948 -1.1293  1.7049  1.3898
  447MOL0     H60342   2.877   3.143   8.706  0.3505  0.0604  1.8600
  447MOL0     H60343   3.154   3.113   8.581 -0.7371 -3.0072 -0.9901
  447MOL0     H60344   3.099   3.173   8.734  0.8664  0.3826 -0.1096
  447MOL0     H60345   3.235   3.046   8.719  1.0697  0.8849 -1.7730
  448MOL0     O60346   7.918   5.612   7.319  0.1305  0.8462 -0.6030
  448MOL0     C60347   7.885   5.733   7.334 -0.0994  0.4632 -0.2128
  448MOL0     O60348   7.967   5.840   7.337 -1.0123 -0.5943 -0.1107
  448MOL0     C60349   8.105   5.830   7.318 -0.5425 -0.0500  0.5370
  448MOL0     C60350   8.188   5.915   7.390 -0.1200  0.6226 -0.4261
  448MOL0     C60351   8.330   5.912   7.375 -0.8326 -0.2270  0.5341
  448MOL0     C60352   8.392   5.820   7.291  0.3563 -0.4964  0.2628
  448MOL0     O60353   8.527   5.816   7.290 -0.6817  0.1822  0.3759
  448MOL0     C60354   8.612   5.755   7.196 -0.2492  0.0423  0.2284
  448MOL0     C60355   8.748   5.839   7.206 -0.0733  0.5750 -0.8980
  448MOL0     C60356   8.854   5.795   7.105  0.1134  0.5008 -0.1327
  448MOL0     C60357   8.988   5.875   7.119  0.2326  0.0018 -0.7643
  448MOL0     C60358   9.104   5.815   7.050 -0.1793  0.3031 -0.1458
  448MOL0     C60359   9.125   5.850   6.907  0.9058 -0.4886  0.2399
  448MOL0     C60360   9.226   5.752   6.842  0.3888  0.6181 -0.2902
  448MOL0     C60361   9.308   5.804   6.723 -0.1174 -1.1862  0.2575
  448MOL0     N60362   9.403   5.918   6.757 -0.3695 -0.0226  0.9070
  448MOL0     C60363   9.536   5.892   6.816  1.2316 -0.4747 -0.3875
  448MOL0     C60364   9.590   6.015   6.817 -0.8822  0.3903  0.0564
  448MOL0     C60365   9.728   6.046   6.880 -0.1953  0.3954 -0.5026
  448MOL0     C60366   9.711   6.105   7.020  0.3835  0.4088 -0.3113
  448MOL0     C60367   9.842   6.120   7.097 -0.3525  0.2533  0.5450
  448MOL0     C60368   9.974   6.120   7.021 -0.1584 -0.6096 -0.2571
  448MOL0     O60369  10.088   6.145   7.109  0.4015  1.4603  0.2060
  448MOL0     C60370  10.212   6.131   7.050  1.4889 -0.6225 -0.2392
  448MOL0     C60371  10.322   6.121   7.138 -0.2970  0.2366 -0.2802
  448MOL0     C60372  10.454   6.093   7.092 -0.1520 -0.5575  0.7713
  448MOL0     C60373  10.480   6.078   6.954  0.4531 -1.1465 -0.0086
  448MOL0     C60374  10.616   6.054   6.910 -0.3363  0.3130  0.0712
  448MOL0     O60375  10.710   6.004   7.001 -0.3219  0.7066  0.2785
  448MOL0     C60376  10.844   6.000   6.962 -0.2278  0.5582 -0.1795
  448MOL0     C60377  10.901   5.907   6.861 -0.3284  0.0412 -0.2922
  448MOL0     C60378  11.035   5.903   6.825  0.2847 -0.3349  0.4279
  448MOL0     C60379  11.122   5.991   6.892 -0.4381  0.0287  0.4798
  448MOL0     O60380  11.257   5.983   6.862  0.4202  0.6214  1.0279
  448MOL0     C60381  11.353   6.022   6.958  0.2154 -0.3700  0.2967
  448MOL0     C60382  11.495   6.014   6.897  0.4484  0.5684 -0.8647
  448MOL0     C60383  11.532   5.871   6.874  0.6196 -0.5864  0.6810
  448MOL0     C60384  11.678   5.863   6.818  0.3499 -0.0256  0.0618
  448MOL0     C60385  11.706   5.726   6.763  0.3208  0.6880  0.1916
  448MOL0     C60386  11.848   5.708   6.713  0.1705  0.1156  0.6522
  448MOL0     C60387  11.888   5.566   6.710  0.6237  0.8593  0.1702
  448MOL0     C60388  12.013   5.527   6.628  0.0246  0.1193 -0.3197
  448MOL0    Cl60389  12.015   5.353   6.605  0.3443 -0.0452  0.1487
  448MOL0     C60390  11.070   6.076   6.990  0.2316  0.5820  0.6173
  448MOL0     C60391  10.932   6.082   7.026 -0.0264 -0.1774  0.1979
  448MOL0     O60392  10.650   6.099   6.807 -0.3626  0.2840  0.0931
  448MOL0     C60393  10.371   6.089   6.869 -0.8107  0.1382 -0.7173
  448MOL0     C60394  10.241   6.113   6.916 -0.7004  0.7448  0.0736
  448MOL0     N60395   9.502   6.107   6.755  0.1775  0.5892 -0.7096
  448MOL0     N60396   9.386   6.054   6.731 -0.1466  0.1646 -0.1498
  448MOL0     C60397   8.311   5.729   7.219 -0.1386  0.0614  0.3121
  448MOL0     C60398   8.169   5.737   7.233  0.8846  0.4178  0.2254
  448MOL0     C60399   7.747   5.769   7.348  0.2993  0.0433  0.0199
  448MOL0     C60400   7.659   5.683   7.292 -0.2391 -0.3684 -0.1706
  448MOL0     C60401   7.525   5.703   7.298  0.4642  0.1187 -0.2446
  448MOL0     C60402   7.474   5.817   7.367 -0.0479  0.3401  0.0690
  448MOL0     O60403   7.349   5.849   7.391  0.1337 -0.2153 -0.0638
  448MOL0     C60404   7.240   5.766   7.361 -0.0968  0.2497  0.3425
  448MOL0     C60405   7.099   5.807   7.399 -0.9622 -0.0352  0.1938
  448MOL0     C60406   7.050   5.923   7.313 -0.2807  0.9932 -0.1883
  448MOL0     C60407   6.975   5.866   7.188 -0.5015 -0.2156 -0.3669
  448MOL0     C60408   6.839   5.817   7.220  0.1051  0.4078 -0.8804
  448MOL0     C60409   6.731   5.767   7.253  0.0007  0.0156  0.6854
  448MOL0     C60410   7.561   5.911   7.418 -0.2848  0.4456 -0.3396
  448MOL0     C60411   7.700   5.887   7.417  0.2764 -0.1628 -0.5633
  448MOL0     C60412   7.782   5.991   7.488 -0.2955  0.3080 -0.0297
  448MOL0     H60413   8.137   5.991   7.447 -2.6360  0.0698 -1.7859
  448MOL0     H60414   8.392   5.989   7.420 -0.9618 -0.6327  1.4355
  448MOL0     H60415   8.634   5.654   7.230  0.4190 -0.3136 -1.1695
  448MOL0     H60416   8.574   5.761   7.093  0.6238  1.0183 -0.0611
  448MOL0     H60417   8.795   5.832   7.304 -0.6478  0.8859 -0.5949
  448MOL0     H60418   8.721   5.944   7.188 -0.7906  0.8280  1.3080
  448MOL0     H60419   8.813   5.789   7.004 -0.2475 -2.1499  0.0883
  448MOL0     H60420   8.878   5.695   7.142 -2.6767  0.9889  3.5565
  448MOL0     H60421   8.977   5.976   7.079  1.0917  0.6259  0.5153
  448MOL0     H60422   9.018   5.869   7.224 -3.4970 -1.2939  0.3673
  448MOL0     H60423   9.195   5.850   7.099  1.1048 -3.5776  0.5948
  448MOL0     H60424   9.110   5.707   7.066  1.5202  0.4830  0.6798
  448MOL0     H60425   9.031   5.855   6.851  0.5063  2.4550  1.0156
  448MOL0     H60426   9.173   5.948   6.907  3.3019 -1.5296  2.7409
  448MOL0     H60427   9.185   5.652   6.826  1.4986 -0.3187  2.1134
  448MOL0     H60428   9.308   5.731   6.911 -1.3568  1.2399  2.1176
  448MOL0     H60429   9.364   5.717   6.686  1.1686  0.0730 -0.9361
  448MOL0     H60430   9.231   5.832   6.650 -1.1622 -1.1482  1.3589
  448MOL0     H60431   9.590   5.799   6.826  2.0041 -0.0086 -0.1716
  448MOL0     H60432   9.782   5.951   6.888 -1.8574 -0.4648  2.1457
  448MOL0     H60433   9.788   6.112   6.818 -0.2300  0.5911 -0.3292
  448MOL0     H60434   9.665   6.204   7.019 -0.2975  0.1047 -1.5267
  448MOL0     H60435   9.648   6.045   7.085  0.9168 -0.9426 -0.9968
  448MOL0     H60436   9.846   6.038   7.170 -1.6635  0.7416  1.2188
  448MOL0     H60437   9.831   6.217   7.147 -2.1998  1.1032 -1.3643
  448MOL0     H60438   9.961   6.203   6.951 -0.8101 -1.6503 -1.4202
  448MOL0     H60439   9.989   6.024   6.970 -0.8962 -1.6164  1.3174
  448MOL0     H60440  10.300   6.122   7.245  2.5716 -2.9018  0.4840
  448MOL0     H60441  10.537   6.105   7.161  0.0783  0.9206  0.2844
  448MOL0     H60442  10.831   5.845   6.805  0.3877  0.2368 -1.4304
  448MOL0     H60443  11.056   5.850   6.733 -0.1317 -1.8594  1.1951
  448MOL0     H60444  11.342   6.131   6.968  1.9982  0.0861 -1.9544
  448MOL0     H60445  11.329   5.970   7.051 -0.9357  0.0723  0.2688
  448MOL0     H60446  11.508   6.074   6.807  3.5657  0.3620 -0.6614
  448MOL0     H60447  11.567   6.053   6.970 -0.6018  0.5380  0.2167
  448MOL0     H60448  11.539   5.826   6.974  1.3736  1.3838  1.5601
  448MOL0     H60449  11.463   5.810   6.814 -0.7647  0.7686  0.8367
  448MOL0     H60450  11.745   5.888   6.901 -1.4344  0.7541  1.3299
  448MOL0     H60451  11.707   5.939   6.744  0.4186 -1.2680 -1.2312
  448MOL0     H60452  11.632   5.693   6.689 -0.7944  2.3483  0.5227
  448MOL0     H60453  11.695   5.665   6.853 -1.4676  1.7373  0.7440
  448MOL0     H60454  11.861   5.760   6.617 -3.3118 -0.3719 -0.2071
  448MOL0     H60455  11.907   5.771   6.781  1.0203 -0.3932  0.4090
  448MOL0     H60456  11.801   5.521   6.659  1.7460  0.3326 -1.3598
  448MOL0     H60457  11.894   5.534   6.814 -0.2120 -0.8526 -0.2630
  448MOL0     H60458  12.002   5.575   6.530 -0.6032  0.0188 -0.3037
  448MOL0     H60459  12.109   5.552   6.676 -0.6411 -0.7909  1.5968
  448MOL0     H60460  11.146   6.131   7.046  0.9732  3.3780 -2.7711
  448MOL0     H60461  10.900   6.151   7.103  0.0766  1.3660 -1.0890
  448MOL0     H60462  10.382   6.096   6.761 -2.5737 -1.3447 -1.0369
  448MOL0     H60463  10.155   6.104   6.850 -2.1326  0.0076  1.9608
  448MOL0     H60464   8.354   5.659   7.148 -0.5144 -0.1470  0.2921
  448MOL0     H60465   8.112   5.661   7.181  1.0107  0.3970  0.1173
  448MOL0     H60466   7.692   5.592   7.242 -3.0635 -1.2660 -0.6270
  448MOL0     H60467   7.449   5.637   7.257 -0.2396  0.7215  0.0757
  448MOL0     H60468   7.257   5.677   7.423 -0.8936  1.5621  2.5448
  448MOL0     H60469   7.258   5.737   7.257  1.9432 -1.0541  0.9898
  448MOL0     H60470   7.110   5.854   7.498  0.8777  3.7132 -1.5739
  448MOL0     H60471   7.027   5.725   7.396 -1.9372  0.6855 -4.7744
  448MOL0     H60472   7.134   5.988   7.286  0.6317  0.7230  1.7997
  448MOL0     H60473   6.986   5.989   7.371  0.2075 -0.0102  1.5862
  448MOL0     H60474   6.971   5.955   7.124 -1.9859  1.4152  1.8002
  448MOL0     H60475   7.028   5.781   7.146 -2.8647 -0.3316 -3.3972
  448MOL0     H60476   6.635   5.728   7.279  0.3668 -0.8716  0.7356
  448MOL0     H60477   7.533   6.000   7.474  1.9591  0.0649  1.5565
  448MOL0     H60478   7.864   5.963   7.555 -1.2704  0.9042  1.4818
  448MOL0     H60479   7.814   6.059   7.408 -1.0876  0.6069 -0.1052
  448MOL0     H60480   7.718   6.042   7.561  0.9047  1.2447  0.3979
  449MOL0     O60481  10.799   8.903   4.640 -0.0251  0.8240  0.0643
  449MOL0     C60482  10.714   8.814   4.642  0.3518 -0.9502 -0.8726
  449MOL0     O60483  10.731   8.691   4.586 -0.0121  0.3239  0.6469
  449MOL0     C60484  10.844   8.682   4.512  0.7886  0.0462  0.3826
  449MOL0     C60485  10.837   8.660   4.372 -0.4272  0.6969 -0.2665
  449MOL0     C60486  10.950   8.639   4.287 -0.1816 -0.0393 -0.0427
  449MOL0     C60487  11.086   8.654   4.338 -0.0109 -0.1114  0.4094
  449MOL0     O60488  11.191   8.654   4.248 -0.2922 -0.2921  0.4755
  449MOL0     C60489  11.274   8.777   4.247 -0.4156  0.5820 -0.1741
  449MOL0     C60490  11.421   8.740   4.229 -0.5757  0.3743  0.8076
  449MOL0     C60491  11.461   8.642   4.351  0.5327  0.3187  0.9007
  449MOL0     C60492  11.610   8.630   4.347 -0.0734 -0.0351 -0.2204
  449MOL0     C60493  11.674   8.532   4.453  1.0103  0.3722  0.6472
  449MOL0     C60494  11.829   8.532   4.430 -0.6104 -0.0358  0.6732
  449MOL0     C60495  11.910   8.458   4.530 -0.7207 -0.3633  0.0068
  449MOL0     C60496  12.061   8.493   4.514  1.5053 -0.2194  0.3809
  449MOL0     N60497  12.157   8.415   4.589 -0.3987  0.5780 -0.6213
  449MOL0     C60498  12.232   8.314   4.536  0.2541 -0.3461  0.0099
  449MOL0     C60499  12.304   8.279   4.641  0.3639  0.3044 -0.7123
  449MOL0     C60500  12.390   8.152   4.631 -0.1451  0.5066  0.5972
  449MOL0     C60501  12.542   8.179   4.615 -0.2768  0.1913 -0.1408
  449MOL0     C60502  12.632   8.058   4.649 -0.2890 -1.1301 -0.2909
  449MOL0     C60503  12.621   7.944   4.550  0.2790  0.1776 -0.1561
  449MOL0     O60504  12.640   7.986   4.414  0.0767 -0.0009  0.4816
  449MOL0     C60505  12.761   7.991   4.350 -0.4472 -0.4344  0.3346
  449MOL0     C60506  12.758   8.008   4.210  0.6365 -0.2094  0.0289
  449MOL0     C60507  12.872   8.000   4.134 -0.3774  0.0430 -0.3285
  449MOL0     C60508  13.002   7.988   4.203  0.6486 -0.2538 -0.5520
  449MOL0     C60509  13.125   7.986   4.129  0.3711  0.1896  0.0090
  449MOL0     O60510  13.242   7.968   4.197  0.0442  0.0775  0.9495
  449MOL0     C60511  13.359   7.937   4.125  0.5065 -0.3987 -0.3728
  449MOL0     C60512  13.357   7.851   4.016  0.6723  0.0303  0.3628
  449MOL0     C60513  13.472   7.835   3.948 -0.6605  0.1017  0.8126
  449MOL0     C60514  13.598   7.887   3.991 -0.2450  0.2052  0.2817
  449MOL0     O60515  13.714   7.870   3.924 -0.5446 -0.4265  0.1196
  449MOL0     C60516  13.755   7.732   3.920  0.7857  0.6678  0.3466
  449MOL0     C60517  13.901   7.737   3.890 -0.1865 -0.5509 -0.1152
  449MOL0     C60518  13.948   7.824   3.784 -0.0824 -0.1006 -0.2253
  449MOL0     C60519  14.101   7.822   3.767  0.0981 -0.2814 -0.5141
  449MOL0     C60520  14.137   7.864   3.623  0.6690  0.9224 -0.9407
  449MOL0     C60521  14.291   7.861   3.614 -0.0697 -0.5004  0.7317
  449MOL0     C60522  14.347   7.929   3.485  0.0111  0.4370  0.6559
  449MOL0     C60523  14.499   7.922   3.496  0.8021 -0.2502 -0.6540
  449MOL0    Cl60524  14.573   8.005   3.346  0.0051 -0.1069  0.2710
  449MOL0     C60525  13.595   7.969   4.103 -0.1948  0.2318 -0.5793
  449MOL0     C60526  13.475   7.999   4.168  0.2902 -0.3242  0.7576
  449MOL0     O60527  13.108   7.993   4.006 -0.4409 -0.3293 -0.3619
  449MOL0     C60528  13.000   7.982   4.339 -0.3076 -0.2093 -0.4251
  449MOL0     C60529  12.884   7.975   4.414  0.4874  0.4265  0.6008
  449MOL0     N60530  12.276   8.359   4.751  0.6961 -0.3027 -0.3353
  449MOL0     N60531  12.187   8.441   4.717 -0.4662  0.4217  0.4636
  449MOL0     C60532  11.085   8.670   4.473 -0.2760  0.3494 -0.9617
  449MOL0     C60533  10.976   8.682   4.565 -0.5235 -0.4631 -0.2406
  449MOL0     C60534  10.581   8.854   4.710 -1.1583  0.1634  0.4151
  449MOL0     C60535  10.480   8.758   4.733  0.2876 -0.3159  0.4829
  449MOL0     C60536  10.349   8.789   4.778 -0.3492  1.5488 -0.4198
  449MOL0     C60537  10.323   8.916   4.818 -0.5461 -0.3442 -0.5161
  449MOL0     O60538  10.190   8.943   4.866 -0.2628 -0.5209  0.1579
  449MOL0     C60539  10.145   9.068   4.920 -0.6760  0.2677 -0.1579
  449MOL0     C60540  10.018   9.051   5.004 -0.3087 -1.0418  0.3872
  449MOL0     C60541  10.015   8.958   5.124  0.2227 -0.7168 -0.7661
  449MOL0     C60542  10.140   8.949   5.206 -0.4817 -0.4282 -0.1422
  449MOL0     C60543  10.165   9.077   5.270 -0.5105 -0.9650 -0.1967
  449MOL0     C60544  10.181   9.178   5.331 -0.0247 -0.1307 -0.4162
  449MOL0     C60545  10.417   9.020   4.802 -0.6674  0.0357 -0.3008
  449MOL0     C60546  10.545   8.989   4.748  0.8216 -1.0062  0.0603
  449MOL0     C60547  10.635   9.105   4.728 -0.6208 -0.7653 -0.4900
  449MOL0     H60548  10.739   8.649   4.325 -0.3366  0.5120 -0.4121
  449MOL0     H60549  10.927   8.613   4.184 -1.2362 -2.7233  0.7946
  449MOL0     H60550  11.257   8.843   4.162  2.9431 -0.1029 -1.5699
  449MOL0     H60551  11.266   8.838   4.337 -0.8839  1.6906 -0.9446
  449MOL0     H60552  11.474   8.835   4.241  2.5372 -1.3028  1.4924
  449MOL0     H60553  11.443   8.696   4.132 -1.7515  5.0356 -1.8644
  449MOL0     H60554  11.417   8.542   4.338 -0.2150  0.8690 -1.4159
  449MOL0     H60555  11.421   8.682   4.444 -1.6439  1.5739 -0.4725
  449MOL0     H60556  11.631   8.600   4.244 -0.0105 -1.5010  0.2107
  449MOL0     H60557  11.647   8.732   4.362 -1.8215  0.9589 -2.1697
  449MOL0     H60558  11.644   8.558   4.555  1.5380 -0.9937  1.1827
  449MOL0     H60559  11.625   8.436   4.434 -0.3407  1.4838 -1.9648
  449MOL0     H60560  11.855   8.492   4.332  0.3809 -2.4597  1.8476
  449MOL0     H60561  11.868   8.633   4.437  2.7393 -1.2309  1.0845
  449MOL0     H60562  11.897   8.349   4.522 -0.8925 -0.4597  1.2616
  449MOL0     H60563  11.877   8.486   4.631 -0.2590  0.3241 -0.0344
  449MOL0     H60564  12.095   8.503   4.410 -3.2663  2.3746 -1.2309
  449MOL0     H60565  12.072   8.591   4.561  2.2434 -0.0631 -0.1028
  449MOL0     H60566  12.221   8.258   4.443 -1.8766  0.6762 -0.4120
  449MOL0     H60567  12.369   8.093   4.720 -0.6282  0.6284  0.5644
  449MOL0     H60568  12.354   8.095   4.545  0.9222 -0.6307  0.8680
  449MOL0     H60569  12.559   8.212   4.512  0.3450 -0.1117 -0.1379
  449MOL0     H60570  12.555   8.252   4.695 -2.3798 -3.6001  4.1458
  449MOL0     H60571  12.602   8.026   4.749 -1.0427  0.0462 -0.1151
  449MOL0     H60572  12.735   8.090   4.666 -1.5626  2.4285  1.8929
  449MOL0     H60573  12.523   7.894   4.554  1.2864 -1.8702  0.0578
  449MOL0     H60574  12.686   7.863   4.582 -1.0894 -1.2408 -0.8168
  449MOL0     H60575  12.665   8.018   4.156  0.4501 -0.7929  0.2361
  449MOL0     H60576  12.879   7.994   4.026  1.6466  0.1300 -0.2455
  449MOL0     H60577  13.269   7.797   3.984 -0.2618  1.6569  0.1091
  449MOL0     H60578  13.475   7.778   3.855  1.4621  1.5223 -0.0694
  449MOL0     H60579  13.729   7.684   4.015 -2.8621  0.2043 -0.7085
  449MOL0     H60580  13.708   7.692   3.829 -0.2987  2.4300  0.0660
  449MOL0     H60581  13.951   7.775   3.980  1.1501 -1.4769 -0.4366
  449MOL0     H60582  13.946   7.638   3.874  2.0200  0.5878 -1.4425
  449MOL0     H60583  13.894   7.802   3.692 -1.7577 -2.8490  1.2881
  449MOL0     H60584  13.918   7.926   3.812 -0.7396 -0.1274 -0.8058
  449MOL0     H60585  14.136   7.719   3.777  0.2444 -0.2814 -0.9773
  449MOL0     H60586  14.153   7.890   3.835 -0.7935 -0.9704  0.9012
  449MOL0     H60587  14.097   7.961   3.592 -0.6016  0.8516  0.3573
  449MOL0     H60588  14.102   7.785   3.556 -2.0234  1.6747 -0.5719
  449MOL0     H60589  14.332   7.919   3.697 -0.0782  0.1684  0.2820
  449MOL0     H60590  14.324   7.758   3.627  0.4264 -0.1977  2.0144
  449MOL0     H60591  14.328   8.037   3.484  1.1943  0.6747  1.4731
  449MOL0     H60592  14.310   7.890   3.389  3.5775 -2.5097  0.2515
  449MOL0     H60593  14.524   7.978   3.587  1.3884 -1.0964 -0.2823
  449MOL0     H60594  14.540   7.822   3.511  1.7358  0.3699  1.4179
  449MOL0     H60595  13.694   8.002   4.133 -0.2903  0.5611 -0.6158
  449MOL0     H60596  13.478   8.058   4.259  0.3477  1.4732 -0.3597
  449MOL0     H60597  13.099   7.977   4.383  0.8664 -0.1976 -2.8803
  449MOL0     H60598  12.885   7.949   4.519 -0.9347 -2.6352 -0.0444
  449MOL0     H60599  11.182   8.694   4.514  0.3288 -0.1367 -2.0436
  449MOL0     H60600  10.994   8.691   4.671 -0.6260  2.4488 -0.4115
  449MOL0     H60601  10.499   8.660   4.690  1.2802  1.1786 -2.8286
  449MOL0     H60602  10.274   8.711   4.781  0.0280  1.0139 -2.8769
  449MOL0     H60603  10.131   9.142   4.840 -1.1233 -1.2142 -1.5033
  449MOL0     H60604  10.227   9.106   4.981 -0.8716 -1.7250  1.4499
  449MOL0     H60605   9.941   9.028   4.930 -0.4218  1.8750 -0.5418
  449MOL0     H60606  10.007   9.156   5.035  0.7502 -1.3104  1.7334
  449MOL0     H60607   9.996   8.856   5.091 -0.8609 -0.3710 -1.2569
  449MOL0     H60608   9.939   8.990   5.196  3.2239  2.7574  1.1867
  449MOL0     H60609  10.129   8.872   5.282 -0.9586  1.7509  2.1206
  449MOL0     H60610  10.220   8.920   5.137  1.2288 -0.3019  1.7041
  449MOL0     H60611  10.205   9.267   5.385  4.2068 -1.6359  0.5770
  449MOL0     H60612  10.396   9.124   4.826 -3.8424 -0.3249 -0.9633
  449MOL0     H60613  10.679   9.123   4.629  2.4510 -0.0094  0.8781
  449MOL0     H60614  10.592   9.199   4.763 -1.2091 -0.7980 -1.1138
  449MOL0     H60615  10.716   9.082   4.798  1.8361 -0.1133 -2.9464
  450MOL0     O60616  10.145   3.242  10.184  0.2657  0.3557  0.0185
  450MOL0     C60617  10.117   3.326  10.264  0.5381  0.1399  0.5756
  450MOL0     O60618  10.210   3.402  10.331  0.1549  0.1259  0.3192
  450MOL0     C60619  10.347   3.379  10.305 -1.2432  0.3648 -0.1591
  450MOL0     C60620  10.433   3.490  10.280  0.0802 -0.1053 -0.6053
  450MOL0     C60621  10.566   3.482  10.249 -0.2592  1.1950 -0.3253
  450MOL0     C60622  10.624   3.352  10.261 -0.5311 -0.0839  0.1216
  450MOL0     O60623  10.758   3.348  10.248  0.5966  0.6457 -0.4707
  450MOL0     C60624  10.843   3.411  10.336 -0.3618 -0.4320 -0.4067
  450MOL0     C60625  10.984   3.431  10.275  0.4148 -0.4150  0.2230
  450MOL0     C60626  11.072   3.539  10.353  0.5343  1.5850  0.6647
  450MOL0     C60627  11.176   3.609  10.268 -1.0532  0.1689 -0.4853
  450MOL0     C60628  11.229   3.734  10.347 -0.4983 -0.7588 -0.2310
  450MOL0     C60629  11.296   3.841  10.256  0.0542  0.0223 -0.1968
  450MOL0     C60630  11.446   3.792  10.234 -0.7599  0.3806  0.1998
  450MOL0     C60631  11.517   3.864  10.118 -0.5164  0.1470  0.2951
  450MOL0     N60632  11.659   3.809  10.106 -0.2726  0.5562 -0.5877
  450MOL0     C60633  11.769   3.872  10.158 -0.0275 -0.3807 -0.3266
  450MOL0     C60634  11.874   3.781  10.127 -0.4218 -0.4192  0.8401
  450MOL0     C60635  12.003   3.789  10.208 -0.6673  0.3840  0.4566
  450MOL0     C60636  12.131   3.716  10.141  0.4521  0.0425 -0.2988
  450MOL0     C60637  12.232   3.799  10.058 -0.0790 -0.2527 -0.3139
  450MOL0     C60638  12.356   3.710  10.018  1.0800  0.2555  0.1741
  450MOL0     O60639  12.405   3.747   9.887  0.5831  0.3419 -0.2380
  450MOL0     C60640  12.518   3.820   9.877  0.0254 -0.0825  0.0698
  450MOL0     C60641  12.582   3.890   9.984  0.2388  0.3463  0.3295
  450MOL0     C60642  12.701   3.955   9.958  0.4281  0.7824  0.5383
  450MOL0     C60643  12.770   3.941   9.829  0.1197 -0.0717 -0.3096
  450MOL0     C60644  12.903   3.998   9.809 -0.3657  0.2055  0.3738
  450MOL0     O60645  12.952   3.981   9.687  0.1922  0.0346  0.2360
  450MOL0     C60646  13.078   4.042   9.658  0.5811 -0.2441  0.4115
  450MOL0     C60647  13.102   4.176   9.692  0.3665 -0.3983  0.5171
  450MOL0     C60648  13.224   4.223   9.665  0.2834 -0.5255  0.2613
  450MOL0     C60649  13.325   4.153   9.604 -0.0380 -0.4094  0.9434
  450MOL0     O60650  13.434   4.228   9.580 -0.0964 -0.1978 -0.4834
  450MOL0     C60651  13.488   4.202   9.453  0.3309 -0.9908  0.4229
  450MOL0     C60652  13.616   4.299   9.430 -0.3416  0.1380  0.1131
  450MOL0     C60653  13.588   4.444   9.409  0.3689 -0.3830  0.0594
  450MOL0     C60654  13.719   4.513   9.378 -0.0971  1.3227  0.8329
  450MOL0     C60655  13.714   4.559   9.226 -0.1980 -0.0058  0.3516
  450MOL0     C60656  13.850   4.610   9.186  1.1575 -0.1396  0.0942
  450MOL0     C60657  13.952   4.494   9.185  0.4101 -0.4397 -0.2193
  450MOL0     C60658  14.088   4.533   9.137 -0.3538  0.0222  0.1762
  450MOL0    Cl60659  14.176   4.606   9.277  0.4016  0.3600  0.1290
  450MOL0     C60660  13.303   4.024   9.567  0.5373  0.3868 -0.0793
  450MOL0     C60661  13.180   3.970   9.597  0.0637  0.5511 -0.4665
  450MOL0     O60662  12.954   4.061   9.902  0.4841  0.7642 -0.0167
  450MOL0     C60663  12.705   3.856   9.727  0.9028  0.3996 -0.5603
  450MOL0     C60664  12.577   3.810   9.749  1.0400  0.0227 -0.1856
  450MOL0     N60665  11.819   3.671  10.061 -0.6428 -0.0654 -0.1677
  450MOL0     N60666  11.691   3.690  10.049 -0.6164 -0.2752 -0.1852
  450MOL0     C60667  10.549   3.239  10.292  0.1426  0.6325  0.5656
  450MOL0     C60668  10.411   3.251  10.322 -0.1978  0.4785  0.5823
  450MOL0     C60669   9.971   3.346  10.283 -0.3078  0.4859  0.6732
  450MOL0     C60670   9.939   3.438  10.384 -0.0702 -0.1330  0.6480
  450MOL0     C60671   9.814   3.471  10.425  0.8617 -1.0128  0.3545
  450MOL0     C60672   9.713   3.430  10.341 -0.1124  0.0840 -1.0585
  450MOL0     O60673   9.584   3.457  10.368  0.0786  0.2513 -0.5103
  450MOL0     C60674   9.520   3.521  10.259  0.3637  0.1722  0.4049
  450MOL0     C60675   9.440   3.636  10.316 -0.7937 -0.5286 -0.2149
  450MOL0     C60676   9.344   3.602  10.432 -0.0257  0.0757  0.0135
  450MOL0     C60677   9.326   3.713  10.540 -0.1373  0.0010  0.0697
  450MOL0     C60678   9.442   3.750  10.622  0.6436  0.1680 -0.1895
  450MOL0     C60679   9.541   3.763  10.693  0.5151 -0.5688 -0.2994
  450MOL0     C60680   9.735   3.333  10.234 -0.2274 -0.1641 -0.5143
  450MOL0     C60681   9.865   3.298  10.199 -0.7396  0.4779 -0.7577
  450MOL0     C60682   9.877   3.195  10.095 -0.1191 -0.1328 -0.6019
  450MOL0     H60683  10.389   3.589  10.267 -0.6205 -0.1939  0.9523
  450MOL0     H60684  10.627   3.570  10.229  0.6066  0.7155  0.1513
  450MOL0     H60685  10.811   3.516  10.339  1.0412  0.0249 -0.4564
  450MOL0     H60686  10.842   3.368  10.436 -1.4917 -2.9227 -1.4251
  450MOL0     H60687  10.967   3.473  10.176 -0.0479  0.0519  0.4916
  450MOL0     H60688  11.042   3.338  10.268  2.0548  0.5224  0.9527
  450MOL0     H60689  11.114   3.488  10.440  0.5945  2.1980  0.9963
  450MOL0     H60690  10.999   3.607  10.399 -0.5353  0.3104  0.9286
  450MOL0     H60691  11.257   3.549  10.227  0.9521  1.6150  1.1239
  450MOL0     H60692  11.119   3.646  10.183 -4.4303 -0.6648  1.2235
  450MOL0     H60693  11.148   3.765  10.413 -0.5696 -1.7795  0.1823
  450MOL0     H60694  11.306   3.704  10.419 -1.7971 -2.5955  0.4736
  450MOL0     H60695  11.247   3.848  10.159  0.3012 -2.4898 -0.5640
  450MOL0     H60696  11.294   3.941  10.300  0.1977  0.3682 -0.9738
  450MOL0     H60697  11.440   3.687  10.205 -0.2293  0.3020  0.3595
  450MOL0     H60698  11.509   3.795  10.323  3.3730 -2.1792 -2.3129
  450MOL0     H60699  11.458   3.857  10.026  1.3108 -1.1508 -0.8497
  450MOL0     H60700  11.521   3.972  10.134  0.8908  0.1315  0.1859
  450MOL0     H60701  11.780   3.962  10.218 -3.0316  0.2256 -0.5614
  450MOL0     H60702  12.026   3.893  10.231 -5.9018  1.6954  0.9754
  450MOL0     H60703  11.981   3.730  10.298 -0.4489  0.5684  0.6293
  450MOL0     H60704  12.183   3.670  10.225 -0.6374 -4.2195 -1.7211
  450MOL0     H60705  12.101   3.644  10.064  2.4921  1.3245 -2.4378
  450MOL0     H60706  12.266   3.888  10.112 -1.8164  2.3008 -3.1509
  450MOL0     H60707  12.178   3.832   9.969 -1.1151 -1.1036 -0.0167
  450MOL0     H60708  12.321   3.606  10.013 -1.9246  0.9476  3.3709
  450MOL0     H60709  12.430   3.714  10.098 -0.7444  2.4259  1.8762
  450MOL0     H60710  12.547   3.889  10.087  2.1558 -2.9724  1.1217
  450MOL0     H60711  12.752   4.006  10.039 -1.6291  1.0718  1.7150
  450MOL0     H60712  13.023   4.243   9.726  0.6815  0.6551 -0.7403
  450MOL0     H60713  13.238   4.328   9.687 -0.1089 -0.7316  1.5974
  450MOL0     H60714  13.529   4.100   9.455  1.1329 -0.6822  2.6599
  450MOL0     H60715  13.417   4.208   9.371 -0.3792  1.6138  1.1502
  450MOL0     H60716  13.681   4.286   9.517  0.6227 -1.3704 -0.7909
  450MOL0     H60717  13.666   4.261   9.340  0.5669 -0.6297  0.9165
  450MOL0     H60718  13.512   4.463   9.333 -0.3103  0.0568  0.8420
  450MOL0     H60719  13.542   4.494   9.494  0.1209 -1.0172  0.3062
  450MOL0     H60720  13.802   4.446   9.403 -2.1935 -1.5090  0.6930
  450MOL0     H60721  13.725   4.598   9.447  1.1788  2.3070 -0.4185
  450MOL0     H60722  13.640   4.639   9.220 -0.2987  0.0986  2.3401
  450MOL0     H60723  13.687   4.484   9.151  0.9557  1.6197 -1.7899
  450MOL0     H60724  13.840   4.643   9.082 -3.0896 -0.3629  0.2641
  450MOL0     H60725  13.883   4.693   9.249  0.5511 -0.1560  0.4373
  450MOL0     H60726  13.914   4.417   9.118  1.4875 -1.5417  0.3945
  450MOL0     H60727  13.966   4.456   9.287 -2.5181 -1.6960 -0.1769
  450MOL0     H60728  14.152   4.452   9.101  0.9535  2.4025 -3.3756
  450MOL0     H60729  14.085   4.595   9.047 -1.2961 -3.4864 -2.4282
  450MOL0     H60730  13.377   3.961   9.518  0.6423 -1.3294  2.1049
  450MOL0     H60731  13.162   3.864   9.586 -0.1653  0.7986 -3.1308
  450MOL0     H60732  12.757   3.829   9.636  0.8273 -0.6447 -0.3095
  450MOL0     H60733  12.530   3.749   9.673 -0.4233  0.1488  0.5790
  450MOL0     H60734  10.605   3.146  10.294  0.1958  0.6192 -0.9256
  450MOL0     H60735  10.359   3.159  10.346 -0.0531 -0.1455 -1.3668
  450MOL0     H60736  10.014   3.480  10.451 -0.5913  1.3627  0.3469
  450MOL0     H60737   9.791   3.533  10.511  0.6746  0.0109 -0.4218
  450MOL0     H60738   9.449   3.450  10.213 -0.8406  0.4379  1.7854
  450MOL0     H60739   9.591   3.562  10.187  0.5882 -0.5364  0.2153
  450MOL0     H60740   9.382   3.683  10.236 -0.7039 -3.1305 -1.9032
  450MOL0     H60741   9.520   3.703  10.350  1.3509 -2.6468 -0.8046
  450MOL0     H60742   9.376   3.506  10.474 -1.3832 -0.7887 -0.8528
  450MOL0     H60743   9.241   3.581  10.399  0.1156 -0.8554  0.1183
  450MOL0     H60744   9.284   3.799  10.487 -0.1942 -0.4925 -0.7072
  450MOL0     H60745   9.243   3.685  10.606 -0.9221 -0.3036 -1.0119
  450MOL0     H60746   9.622   3.800  10.753  1.7391 -1.2273 -1.5083
  450MOL0     H60747   9.652   3.297  10.174  0.1474 -0.6925 -0.7345
  450MOL0     H60748   9.920   3.104  10.138 -0.9007 -1.7623 -3.0578
  450MOL0     H60749   9.783   3.179  10.042 -0.3145  1.7317 -0.8841
  450MOL0     H60750   9.954   3.222  10.023  0.8173  0.4474  0.5801
  451MOL0     O60751   9.050  10.625   8.805  0.4037  0.0475 -0.7100
  451MOL0     C60752   8.993  10.518   8.815  0.2552 -0.1396 -0.0460
  451MOL0     O60753   9.053  10.395   8.827  0.4167 -0.4304 -0.1119
  451MOL0     C60754   9.186  10.391   8.802 -0.4266  0.5915  0.7916
  451MOL0     C60755   9.246  10.438   8.678  0.7169  0.3402 -0.3134
  451MOL0     C60756   9.383  10.424   8.657  0.2431 -0.9522  1.1003
  451MOL0     C60757   9.460  10.367   8.754 -0.5214 -0.1347  0.2404
  451MOL0     O60758   9.591  10.356   8.719  0.9942 -0.0944 -0.0613
  451MOL0     C60759   9.682  10.319   8.819  0.0440  0.0087  0.0075
  451MOL0     C60760   9.811  10.381   8.770  0.5717 -0.4484  0.2153
  451MOL0     C60761   9.859  10.330   8.626 -1.0047  0.1873 -0.3463
  451MOL0     C60762   9.985  10.398   8.581  0.3848 -0.0031 -0.7007
  451MOL0     C60763  10.049  10.352   8.454  0.2360  0.2336  0.1572
  451MOL0     C60764  10.084  10.209   8.466 -0.4146 -0.7487 -0.8364
  451MOL0     C60765  10.178  10.160   8.355 -0.2351  0.6397 -0.6804
  451MOL0     C60766  10.195  10.010   8.355 -1.0780  0.2591  0.2505
  451MOL0     N60767  10.304   9.975   8.451 -0.2518  0.5352 -0.3825
  451MOL0     C60768  10.440   9.988   8.432 -0.7354 -0.4130  0.4037
  451MOL0     C60769  10.487   9.924   8.544 -0.1192 -0.0734  0.2290
  451MOL0     C60770  10.631   9.899   8.572  1.4077  0.1789  0.9485
  451MOL0     C60771  10.741   9.953   8.478  0.7905 -0.0664 -0.4035
  451MOL0     C60772  10.867   9.902   8.541  0.3872  0.2460 -0.4613
  451MOL0     C60773  10.988   9.930   8.448 -0.6336  0.9787  0.6798
  451MOL0     O60774  11.111   9.869   8.507 -0.0752  0.5739 -1.0597
  451MOL0     C60775  11.230   9.907   8.456 -0.6129  0.2004  0.1836
  451MOL0     C60776  11.260   9.991   8.344 -0.3201 -0.0461  0.3361
  451MOL0     C60777  11.388  10.042   8.322  0.0746  0.8538  1.0634
  451MOL0     C60778  11.496   9.994   8.399 -0.5690  0.1955 -0.2737
  451MOL0     C60779  11.633  10.037   8.368  0.5192  0.6087 -0.0381
  451MOL0     O60780  11.642  10.114   8.260  0.4939  0.1614  0.6248
  451MOL0     C60781  11.754  10.139   8.199 -0.1834 -0.0619 -0.0565
  451MOL0     C60782  11.775  10.095   8.070  0.3124  0.5718 -0.6483
  451MOL0     C60783  11.889  10.134   7.992  0.7074 -1.1354  0.0465
  451MOL0     C60784  11.986  10.216   8.055  0.1300 -0.3235  0.1356
  451MOL0     O60785  12.098  10.260   7.985 -0.2611  0.3161 -0.2600
  451MOL0     C60786  12.199  10.157   7.990 -0.0271  0.0143  0.3919
  451MOL0     C60787  12.212  10.092   7.854 -0.2904  0.4312  0.3654
  451MOL0     C60788  12.347  10.025   7.830 -0.5244 -0.6048  0.8774
  451MOL0     C60789  12.353   9.964   7.689 -0.5621  0.1203 -0.3187
  451MOL0     C60790  12.479   9.881   7.689  0.2932  0.3722  0.7476
  451MOL0     C60791  12.596   9.969   7.667 -0.1469 -0.6834 -1.1638
  451MOL0     C60792  12.719   9.890   7.628  0.2325  0.3132 -0.4998
  451MOL0     C60793  12.852   9.958   7.662 -0.5693 -0.9887  0.6542
  451MOL0    Cl60794  12.887  10.087   7.550 -0.0343  0.5395  0.1725
  451MOL0     C60795  11.965  10.266   8.185 -0.0465 -0.0367  0.5800
  451MOL0     C60796  11.856  10.222   8.260  0.1136  0.2697  0.8630
  451MOL0     O60797  11.727   9.976   8.425 -0.6031  0.4345  0.5070
  451MOL0     C60798  11.472   9.903   8.499 -0.1056 -0.9585 -0.0392
  451MOL0     C60799  11.342   9.858   8.526  0.2672 -0.0014 -0.4028
  451MOL0     N60800  10.390   9.877   8.624 -0.3954  0.2039 -0.7131
  451MOL0     N60801  10.277   9.907   8.566  0.0419  0.0521 -0.3022
  451MOL0     C60802   9.410  10.314   8.870  0.3721 -0.6032 -0.0307
  451MOL0     C60803   9.270  10.328   8.895 -0.3064  0.1523 -0.1568
  451MOL0     C60804   8.839  10.522   8.815  0.0003 -0.5938  0.9789
  451MOL0     C60805   8.774  10.400   8.827 -0.2769  0.0459 -0.6300
  451MOL0     C60806   8.634  10.400   8.844  0.1296  1.5003 -0.6307
  451MOL0     C60807   8.558  10.520   8.851 -0.0475 -0.6248 -0.2954
  451MOL0     O60808   8.424  10.527   8.875  0.3023  1.0527 -0.0482
  451MOL0     C60809   8.350  10.422   8.820  0.2888 -0.0789 -0.6793
  451MOL0     C60810   8.230  10.490   8.769 -0.0437  0.6032  0.0283
  451MOL0     C60811   8.118  10.535   8.875 -0.4893 -0.0448  0.0251
  451MOL0     C60812   8.007  10.584   8.780 -0.0472 -0.1180  0.6261
  451MOL0     C60813   7.879  10.620   8.842  0.2146 -0.2566 -0.4755
  451MOL0     C60814   7.779  10.657   8.903  0.1354 -0.5247 -0.4496
  451MOL0     C60815   8.624  10.639   8.846 -0.8832  0.2124  0.7439
  451MOL0     C60816   8.763  10.644   8.821 -0.3319 -0.5538 -0.9460
  451MOL0     C60817   8.828  10.783   8.835 -0.8154  0.6052  0.1482
  451MOL0     H60818   9.195  10.495   8.601 -2.1953 -0.6073  0.7838
  451MOL0     H60819   9.416  10.464   8.562 -0.7102 -1.6091  0.4809
  451MOL0     H60820   9.658  10.366   8.914  0.7637  1.7132 -0.6074
  451MOL0     H60821   9.689  10.210   8.832  2.2604  0.0554 -0.3827
  451MOL0     H60822   9.898  10.362   8.832  1.1998  1.8212  0.1208
  451MOL0     H60823   9.803  10.490   8.766 -0.0272 -0.5139 -0.9502
  451MOL0     H60824   9.777  10.340   8.554 -1.7422 -2.2474  0.0592
  451MOL0     H60825   9.870  10.222   8.639  0.1909  0.3979  0.6027
  451MOL0     H60826   9.954  10.502   8.566 -0.4236 -0.1189  0.0505
  451MOL0     H60827  10.058  10.396   8.662 -0.1494 -0.1385 -0.2091
  451MOL0     H60828   9.985  10.348   8.365 -2.1470 -0.9341  1.8005
  451MOL0     H60829  10.133  10.415   8.423  1.5091 -1.7583 -0.6276
  451MOL0     H60830  10.130  10.177   8.560  1.6206 -1.0572 -1.8671
  451MOL0     H60831   9.990  10.153   8.462 -2.6445  2.3621  2.5682
  451MOL0     H60832  10.272  10.214   8.358 -0.0871  0.3502  0.1990
  451MOL0     H60833  10.123  10.180   8.262 -1.4424 -2.9733 -0.9170
  451MOL0     H60834  10.104   9.950   8.367 -0.1903 -1.1634  0.0662
  451MOL0     H60835  10.243   9.976   8.263  1.1975 -0.0224  1.4863
  451MOL0     H60836  10.499  10.035   8.355 -0.2131  0.9930  1.6129
  451MOL0     H60837  10.649   9.943   8.670  1.4528  2.9638 -0.2282
  451MOL0     H60838  10.643   9.791   8.582 -1.8884 -0.5667 -1.6374
  451MOL0     H60839  10.732   9.921   8.374  0.2469 -0.6181 -0.1949
  451MOL0     H60840  10.741  10.061   8.493 -1.2635 -0.2997  1.7983
  451MOL0     H60841  10.848   9.796   8.558 -2.0537  0.8687  1.2568
  451MOL0     H60842  10.889   9.947   8.638  1.8388 -1.9110  0.2832
  451MOL0     H60843  11.009  10.036   8.427  0.8764  0.4749 -0.5517
  451MOL0     H60844  10.964   9.886   8.351  0.0071  0.9945  0.5114
  451MOL0     H60845  11.177  10.023   8.281  1.4966  3.0286 -0.7409
  451MOL0     H60846  11.405  10.103   8.234 -1.0073  0.0889  0.3046
  451MOL0     H60847  11.708  10.024   8.023  0.0915 -0.0569  0.5691
  451MOL0     H60848  11.919  10.092   7.897  1.6990  1.4474 -0.8746
  451MOL0     H60849  12.285  10.209   8.034 -1.6984  2.1789  1.3382
  451MOL0     H60850  12.182  10.073   8.058  0.5459 -0.3870  0.0497
  451MOL0     H60851  12.134  10.016   7.850  1.3534 -1.3378  0.3609
  451MOL0     H60852  12.189  10.165   7.776  1.6425  1.2967  0.5418
  451MOL0     H60853  12.424  10.102   7.834 -1.1598  0.0844 -0.0374
  451MOL0     H60854  12.369   9.951   7.907  0.5055 -0.8159  0.3927
  451MOL0     H60855  12.346  10.044   7.615 -1.5080  1.5307  1.2250
  451MOL0     H60856  12.265   9.901   7.671 -0.9409  0.5652 -0.0494
  451MOL0     H60857  12.483   9.813   7.603  1.3331  1.9673 -0.5244
  451MOL0     H60858  12.475   9.823   7.782  1.5187 -1.4396 -0.2721
  451MOL0     H60859  12.570  10.052   7.600 -1.4776 -0.1681 -0.0557
  451MOL0     H60860  12.620  10.014   7.764 -1.2497  0.4568 -1.3880
  451MOL0     H60861  12.715   9.867   7.521 -0.8289  2.4393 -0.9734
  451MOL0     H60862  12.718   9.798   7.687 -1.0500  0.0628 -0.8712
  451MOL0     H60863  12.851  10.009   7.759 -1.2453 -1.5756  0.9666
  451MOL0     H60864  12.940   9.893   7.662  0.1177 -0.2190 -2.5151
  451MOL0     H60865  12.033  10.335   8.232 -1.0018 -0.1167  2.1746
  451MOL0     H60866  11.824  10.251   8.360 -3.9505 -1.4723  0.2718
  451MOL0     H60867  11.555   9.869   8.561 -1.8348 -0.7865  2.5312
  451MOL0     H60868  11.323   9.789   8.608  0.0811  1.1083  0.5081
  451MOL0     H60869   9.469  10.265   8.947  1.7486 -2.2297 -2.0145
  451MOL0     H60870   9.230  10.308   8.993 -3.1600  3.2585 -0.4989
  451MOL0     H60871   8.810  10.299   8.844 -0.7516 -0.2343 -1.2603
  451MOL0     H60872   8.592  10.301   8.855  2.1365  0.7472  1.0479
  451MOL0     H60873   8.335  10.339   8.890  3.8056  0.2130  0.6148
  451MOL0     H60874   8.398  10.377   8.733  1.5503 -2.4916  1.1523
  451MOL0     H60875   8.175  10.424   8.701  3.1862 -1.6183 -0.6483
  451MOL0     H60876   8.262  10.574   8.707 -1.7976  2.2573  1.2451
  451MOL0     H60877   8.154  10.619   8.934 -1.3810  1.5310 -1.5731
  451MOL0     H60878   8.086  10.446   8.930 -1.2123  0.5063  0.5079
  451MOL0     H60879   8.052  10.665   8.723 -0.4463 -0.3160  0.0265
  451MOL0     H60880   7.984  10.506   8.708  0.5602 -0.1929  0.5077
  451MOL0     H60881   7.696  10.693   8.961 -0.0103  0.3615 -1.1886
  451MOL0     H60882   8.576  10.735   8.864 -1.3357 -0.1740  1.6943
  451MOL0     H60883   8.765  10.858   8.885  0.4615 -0.3220  3.4192
  451MOL0     H60884   8.909  10.791   8.908 -0.4979  1.3325 -0.2647
  451MOL0     H60885   8.867  10.811   8.736 -0.5840 -0.7495 -0.1572
  452MOL0     O60886  11.089   7.420   8.667  0.0810  0.0819 -0.1195
  452MOL0     C60887  11.034   7.332   8.604 -0.5202  0.2057 -0.2699
  452MOL0     O60888  11.093   7.219   8.552 -0.0002  0.2804 -0.2219
  452MOL0     C60889  11.227   7.196   8.563  0.1443 -0.0106  0.6948
  452MOL0     C60890  11.317   7.303   8.548  0.0092  0.1198 -0.0567
  452MOL0     C60891  11.461   7.282   8.564  0.3097 -1.0146  0.7263
  452MOL0     C60892  11.514   7.157   8.594 -0.8007 -0.6908 -0.0310
  452MOL0     O60893  11.652   7.135   8.612  0.6708 -0.4551  0.4183
  452MOL0     C60894  11.755   7.221   8.574 -0.4096 -1.2515 -0.3620
  452MOL0     C60895  11.887   7.194   8.643  0.5259 -0.0446  0.3358
  452MOL0     C60896  11.994   7.300   8.627  0.1481 -0.1039  0.4287
  452MOL0     C60897  12.117   7.271   8.722 -1.2017  0.3470  0.5819
  452MOL0     C60898  12.234   7.369   8.707 -0.4163  0.0906 -0.5878
  452MOL0     C60899  12.329   7.362   8.823  0.1824 -0.1621 -0.2054
  452MOL0     C60900  12.461   7.420   8.785  0.5368 -0.9587  0.1169
  452MOL0     C60901  12.557   7.438   8.904 -1.0714  0.4582  0.7213
  452MOL0     N60902  12.691   7.499   8.872 -0.0257 -0.5286 -0.0792
  452MOL0     C60903  12.796   7.435   8.810 -0.2915  0.3560  0.3659
  452MOL0     C60904  12.904   7.518   8.817  0.6404 -0.2427 -0.0584
  452MOL0     C60905  13.039   7.504   8.760 -0.1873 -0.0809  0.5852
  452MOL0     C60906  13.128   7.424   8.862 -0.7845  0.6272  0.5622
  452MOL0     C60907  13.069   7.285   8.894 -0.4767 -0.7398 -0.2973
  452MOL0     C60908  13.174   7.205   8.967 -0.6931  0.3980  0.6192
  452MOL0     O60909  13.272   7.161   8.873 -0.5964 -0.2205  0.5749
  452MOL0     C60910  13.396   7.134   8.922 -0.9551  0.0415  0.3960
  452MOL0     C60911  13.498   7.133   8.821 -0.0224 -0.1478 -0.4486
  452MOL0     C60912  13.626   7.090   8.861 -0.1449  0.1985  0.6250
  452MOL0     C60913  13.654   7.028   8.982  0.3768  0.1443 -0.1160
  452MOL0     C60914  13.786   6.977   9.016  0.3194  0.4069  0.1554
  452MOL0     O60915  13.889   7.009   8.929  0.1664  0.7809  0.0531
  452MOL0     C60916  14.020   6.978   8.967 -0.6414 -0.9695 -1.0152
  452MOL0     C60917  14.098   6.910   8.873 -0.1071 -0.3244  0.0867
  452MOL0     C60918  14.242   6.887   8.898  0.1132 -0.2139 -0.0113
  452MOL0     C60919  14.296   6.938   9.015 -1.3193  0.1446 -0.1351
  452MOL0     O60920  14.434   6.923   9.021 -0.7353 -0.6863  0.1271
  452MOL0     C60921  14.488   6.960   9.145 -0.8326  0.5480 -0.3146
  452MOL0     C60922  14.648   6.951   9.146 -0.1047 -0.1964  0.0615
  452MOL0     C60923  14.725   6.994   9.267  1.3075  0.1148 -0.0393
  452MOL0     C60924  14.858   6.930   9.272 -0.2857  0.0607  0.1199
  452MOL0     C60925  14.960   7.020   9.209  0.2028  0.9338  0.1514
  452MOL0     C60926  15.093   6.958   9.231  0.0874  0.1666  0.5841
  452MOL0     C60927  15.200   7.032   9.155 -0.1340 -0.3921 -0.2457
  452MOL0     C60928  15.194   7.020   8.998  0.5021  0.3315 -0.9819
  452MOL0    Cl60929  15.373   7.033   8.959  0.0676 -0.1437 -0.1798
  452MOL0     C60930  14.219   7.023   9.094 -0.0980  0.9074 -0.1713
  452MOL0     C60931  14.079   7.038   9.080  0.2513 -0.9211  0.1254
  452MOL0     O60932  13.802   6.921   9.122  0.1296  0.1574  0.4170
  452MOL0     C60933  13.546   7.028   9.075  1.1949 -0.9871  0.5152
  452MOL0     C60934  13.423   7.086   9.049  0.3880 -0.3616 -0.7673
  452MOL0     N60935  12.865   7.634   8.880  0.1309 -0.7093 -0.8029
  452MOL0     N60936  12.742   7.623   8.917  0.0468  0.0839  0.0467
  452MOL0     C60937  11.424   7.052   8.610  0.5274  0.3931 -0.7175
  452MOL0     C60938  11.289   7.069   8.583 -1.3288  0.1428 -0.4311
  452MOL0     C60939  10.892   7.364   8.589  0.1946 -0.3058 -0.4535
  452MOL0     C60940  10.843   7.490   8.546  0.7477 -0.1933 -0.5148
  452MOL0     C60941  10.710   7.515   8.529 -0.1363  0.1307 -0.9676
  452MOL0     C60942  10.617   7.412   8.546 -0.9413  0.2684  0.1962
  452MOL0     O60943  10.488   7.423   8.514  0.2114  0.0158 -0.3354
  452MOL0     C60944  10.399   7.516   8.577 -0.5631  0.0450  0.5289
  452MOL0     C60945  10.355   7.465   8.710  0.5889  0.0321 -0.4945
  452MOL0     C60946  10.290   7.327   8.716  0.4067 -0.4948 -0.4288
  452MOL0     C60947  10.230   7.305   8.856  0.5367  0.2685 -0.1972
  452MOL0     C60948  10.144   7.182   8.846  0.3628  0.6713  0.3111
  452MOL0     C60949  10.057   7.095   8.849 -0.0760 -0.7980  0.3818
  452MOL0     C60950  10.666   7.288   8.582  1.1351  0.3066 -0.5768
  452MOL0     C60951  10.798   7.267   8.611  0.4165  0.9718 -0.5984
  452MOL0     C60952  10.832   7.136   8.683 -0.1875 -0.4147  0.2189
  452MOL0     H60953  11.288   7.397   8.503 -1.4950  1.2453  2.9972
  452MOL0     H60954  11.532   7.362   8.546 -0.0560 -0.5395  1.3462
  452MOL0     H60955  11.761   7.232   8.465 -3.7892 -5.1985 -1.2212
  452MOL0     H60956  11.737   7.321   8.615  0.4417 -1.5079  0.6660
  452MOL0     H60957  11.923   7.098   8.605  0.5594 -0.5348  1.5722
  452MOL0     H60958  11.858   7.180   8.747 -0.0263  0.6539  0.2905
  452MOL0     H60959  11.954   7.398   8.658  1.4488  0.9475 -1.0633
  452MOL0     H60960  12.017   7.307   8.520 -0.5212  0.6428  0.3193
  452MOL0     H60961  12.081   7.270   8.826  0.6985 -0.9516  1.2822
  452MOL0     H60962  12.162   7.173   8.704  0.9154  1.0733  1.6057
  452MOL0     H60963  12.288   7.364   8.612  0.9107  2.6821 -0.0719
  452MOL0     H60964  12.191   7.469   8.698 -0.8140  0.1934  1.8061
  452MOL0     H60965  12.299   7.409   8.917  0.4435 -3.8344  1.8933
  452MOL0     H60966  12.342   7.257   8.850 -1.6821 -0.5688 -0.7180
  452MOL0     H60967  12.450   7.518   8.738 -1.3594 -0.9763  0.4564
  452MOL0     H60968  12.500   7.343   8.718  0.6745 -2.4411  1.8247
  452MOL0     H60969  12.512   7.505   8.977 -0.9744  0.8341  0.4417
  452MOL0     H60970  12.578   7.340   8.948 -3.4615 -0.9716 -1.0546
  452MOL0     H60971  12.793   7.335   8.769 -0.1518  0.4883  0.0231
  452MOL0     H60972  13.033   7.473   8.655 -1.9416  1.6266  0.1169
  452MOL0     H60973  13.080   7.604   8.744  1.2811 -0.9585 -1.6390
  452MOL0     H60974  13.229   7.405   8.825 -1.1827  0.6315 -0.5770
  452MOL0     H60975  13.138   7.476   8.958 -2.3525 -0.1410  1.1781
  452MOL0     H60976  13.044   7.235   8.800  0.7067  1.3576 -1.8096
  452MOL0     H60977  12.976   7.284   8.951 -0.5699 -0.1496 -0.4313
  452MOL0     H60978  13.127   7.110   8.997 -1.8372  0.4694 -0.7958
  452MOL0     H60979  13.204   7.265   9.053 -0.7118  0.6823  0.4292
  452MOL0     H60980  13.484   7.154   8.716  3.5224 -1.6000 -1.3537
  452MOL0     H60981  13.702   7.101   8.785 -0.9732  1.9505  0.0103
  452MOL0     H60982  14.046   6.882   8.782  0.2870  0.3124 -0.3412
  452MOL0     H60983  14.304   6.836   8.825  2.6168 -1.3540  2.6885
  452MOL0     H60984  14.458   7.061   9.174 -0.9293  0.1767  0.9421
  452MOL0     H60985  14.460   6.885   9.219  0.4525 -2.8727 -2.9804
  452MOL0     H60986  14.675   6.848   9.120 -2.3593 -0.8999  0.2409
  452MOL0     H60987  14.679   7.018   9.066  1.6323 -0.4487  0.4825
  452MOL0     H60988  14.727   7.103   9.270 -0.4076  0.1798 -0.3004
  452MOL0     H60989  14.655   6.969   9.347  0.0915  1.7330 -0.5371
  452MOL0     H60990  14.853   6.832   9.223 -2.1913  0.8586 -1.3603
  452MOL0     H60991  14.876   6.920   9.380 -1.3482  2.2206  0.5336
  452MOL0     H60992  14.964   7.114   9.265 -0.1452  1.0607 -0.0357
  452MOL0     H60993  14.929   7.045   9.107  0.0496  0.3158  0.0432
  452MOL0     H60994  15.113   6.950   9.338  2.1526 -3.0806  0.1026
  452MOL0     H60995  15.082   6.858   9.188  3.3743 -0.4413  0.8783
  452MOL0     H60996  15.295   6.995   9.195  0.7889  1.6760 -0.3772
  452MOL0     H60997  15.182   7.138   9.178 -0.4308 -0.5848  0.4456
  452MOL0     H60998  15.169   6.921   8.959  2.0850  0.3180 -2.0081
  452MOL0     H60999  15.132   7.093   8.945  0.9587  3.2476  2.1841
  452MOL0     H61000  14.264   7.075   9.179  1.9370  1.9083 -1.7617
  452MOL0     H61001  14.024   7.114   9.134 -1.2885 -1.7183 -0.2681
  452MOL0     H61002  13.563   6.996   9.178  0.7436  1.0869  1.2914
  452MOL0     H61003  13.343   7.080   9.122  0.3145 -0.9765 -0.8988
  452MOL0     H61004  11.465   6.955   8.640 -3.7905 -1.6398 -0.6735
  452MOL0     H61005  11.216   6.991   8.604 -1.0143  0.5303  2.5562
  452MOL0     H61006  10.908   7.577   8.542 -1.1804  1.4106  0.7432
  452MOL0     H61007  10.687   7.616   8.497  0.1351 -0.5612 -3.6107
  452MOL0     H61008  10.309   7.523   8.515 -0.4486 -3.1777 -0.2111
  452MOL0     H61009  10.425   7.622   8.584 -0.9391  0.2564 -0.9163
  452MOL0     H61010  10.288   7.547   8.738  1.2908  1.1598 -1.9824
  452MOL0     H61011  10.438   7.458   8.781  0.1489  3.2350  0.5427
  452MOL0     H61012  10.369   7.253   8.698 -1.3702 -2.4100 -0.7000
  452MOL0     H61013  10.206   7.323   8.647  2.5225 -0.2959 -3.1734
  452MOL0     H61014  10.315   7.290   8.922 -0.5520 -1.8918  0.8290
  452MOL0     H61015  10.170   7.390   8.889  1.6578  2.0748 -2.5656
  452MOL0     H61016   9.977   7.027   8.827 -1.0995  0.4834  0.0744
  452MOL0     H61017  10.592   7.209   8.575 -0.0854  1.4520 -0.9552
  452MOL0     H61018  10.744   7.093   8.732 -0.4740  1.4669  1.4711
  452MOL0     H61019  10.872   7.060   8.616  1.8672  2.7277 -2.4186
  452MOL0     H61020  10.897   7.167   8.765  2.1249  0.2255 -1.7474
  453MOL0     O61021  10.511  10.906   8.801  0.3148  0.0726  0.1876
  453MOL0     C61022  10.472  10.997   8.865 -0.8515  0.0269  0.3736
  453MOL0     O61023  10.543  11.046   8.972  0.1163 -0.5067 -0.7672
  453MOL0     C61024  10.668  11.002   8.994  0.0923 -0.3816  0.3594
  453MOL0     C61025  10.781  11.005   8.900  1.0436  0.5802  0.1851
  453MOL0     C61026  10.910  10.965   8.939  0.9201 -0.3980  0.5042
  453MOL0     C61027  10.937  10.930   9.073 -0.4064 -0.5849 -0.7646
  453MOL0     O61028  11.059  10.906   9.137 -0.0566 -0.7932  0.0636
  453MOL0     C61029  11.172  10.885   9.052  0.1455  0.0875 -0.9894
  453MOL0     C61030  11.268  10.789   9.126  0.1381 -0.6976 -0.2830
  453MOL0     C61031  11.374  10.862   9.215  0.9225  0.4618  0.1304
  453MOL0     C61032  11.449  10.756   9.291 -0.4746 -0.1257  0.6087
  453MOL0     C61033  11.558  10.815   9.374 -0.6201  0.0194 -0.6132
  453MOL0     C61034  11.598  10.715   9.481  0.1845 -0.3019  0.9871
  453MOL0     C61035  11.712  10.766   9.566 -0.0199 -0.2306 -0.0683
  453MOL0     C61036  11.853  10.766   9.499  0.2444 -0.2972  0.9987
  453MOL0     N61037  11.950  10.843   9.575  0.7706  0.5517  0.2535
  453MOL0     C61038  12.049  10.913   9.517 -0.1986 -0.0836  0.6435
  453MOL0     C61039  12.136  10.960   9.610 -0.6567  0.6314 -0.2325
  453MOL0     C61040  12.268  11.028   9.571 -0.1773  0.3980  0.1616
  453MOL0     C61041  12.370  10.917   9.527  0.8616 -0.1054 -0.1381
  453MOL0     C61042  12.425  10.943   9.387 -1.1971  0.4190 -0.5422
  453MOL0     C61043  12.539  11.048   9.365 -0.4672  0.3260  0.3122
  453MOL0     O61044  12.663  11.019   9.434 -0.2012  0.3598 -0.3462
  453MOL0     C61045  12.770  10.941   9.379  0.0540 -0.1918 -0.6140
  453MOL0     C61046  12.767  10.871   9.257  0.6673 -0.8595  0.2380
  453MOL0     C61047  12.876  10.797   9.215  0.5931 -0.5231 -1.2150
  453MOL0     C61048  12.999  10.807   9.281  0.6131 -0.9088 -1.1928
  453MOL0     C61049  13.119  10.743   9.229 -0.7812  0.0105 -0.1113
  453MOL0     O61050  13.102  10.658   9.117  0.2804 -0.2067 -0.1639
  453MOL0     C61051  13.214  10.643   9.043 -0.7739 -0.6480 -0.2070
  453MOL0     C61052  13.299  10.524   9.039  0.4013  0.4594  0.2420
  453MOL0     C61053  13.419  10.522   8.967 -0.0349  0.2356  0.0616
  453MOL0     C61054  13.472  10.633   8.912  0.5145  0.3731  0.3322
  453MOL0     O61055  13.582  10.632   8.840 -0.6970 -0.4209 -0.2707
  453MOL0     C61056  13.675  10.518   8.840 -0.6095 -0.0513 -0.8152
  453MOL0     C61057  13.813  10.560   8.769  1.0853 -0.1413 -0.0331
  453MOL0     C61058  13.907  10.647   8.856 -0.6326  0.0747  0.2520
  453MOL0     C61059  14.042  10.669   8.786 -0.6322  0.1414 -0.0579
  453MOL0     C61060  14.113  10.802   8.801 -0.5054 -0.0021  0.0911
  453MOL0     C61061  14.041  10.919   8.733  0.1217 -0.3351  1.2146
  453MOL0     C61062  14.114  11.055   8.727  0.1867  0.2848 -0.3472
  453MOL0     C61063  14.247  11.040   8.656  0.3531  0.8135 -0.1340
  453MOL0    Cl61064  14.341  11.196   8.657  0.1966  0.4179  0.0150
  453MOL0     C61065  13.395  10.757   8.918  0.5268 -0.0864  1.0335
  453MOL0     C61066  13.270  10.760   8.987 -0.0902 -0.0286  0.5008
  453MOL0     O61067  13.230  10.766   9.281  0.5229  0.1901 -0.2059
  453MOL0     C61068  13.010  10.890   9.397 -0.0173  0.2227  0.4809
  453MOL0     C61069  12.889  10.957   9.443  0.2809 -0.3387 -0.2221
  453MOL0     N61070  12.092  10.912   9.727  0.2755 -0.0868 -0.3775
  453MOL0     N61071  11.979  10.851   9.711  0.2815 -0.4905 -0.5912
  453MOL0     C61072  10.836  10.942   9.169  0.4150  0.2471 -0.1379
  453MOL0     C61073  10.708  10.969   9.128  0.1994  0.0782  0.0904
  453MOL0     C61074  10.338  11.050   8.851 -0.9091  0.0085  0.4684
  453MOL0     C61075  10.295  11.081   8.720 -0.6319  0.3482  0.4620
  453MOL0     C61076  10.169  11.133   8.697  0.1728  0.7264 -0.0940
  453MOL0     C61077  10.080  11.141   8.798 -0.1853  0.4221 -0.0990
  453MOL0     O61078   9.946  11.179   8.782 -0.7751  0.2311 -0.2825
  453MOL0     C61079   9.897  11.208   8.645  0.1021 -0.8488 -0.2996
  453MOL0     C61080   9.742  11.229   8.651 -0.3537 -0.3996  0.1489
  453MOL0     C61081   9.702  11.332   8.754 -0.0502 -0.7695 -0.1358
  453MOL0     C61082   9.574  11.297   8.830 -0.1618  0.4768 -0.4573
  453MOL0     C61083   9.452  11.303   8.741  0.3724  0.5503 -0.1425
  453MOL0     C61084   9.341  11.307   8.686 -0.5272 -0.8333 -1.2641
  453MOL0     C61085  10.117  11.108   8.936  0.1858 -0.2017  0.3758
  453MOL0     C61086  10.252  11.068   8.959 -0.0615  0.0657  0.1918
  453MOL0     C61087  10.301  11.058   9.098 -0.4770 -0.0136 -0.4879
  453MOL0     H61088  10.756  11.045   8.802 -0.1920 -0.4742  0.0397
  453MOL0     H61089  10.996  10.972   8.872  0.4049  1.0282 -0.0414
  453MOL0     H61090  11.137  10.836   8.961 -0.3119  0.5659 -1.0806
  453MOL0     H61091  11.221  10.979   9.021  1.0277 -0.6843 -2.0228
  453MOL0     H61092  11.332  10.740   9.053  0.2190  0.0076 -0.7003
  453MOL0     H61093  11.202  10.729   9.190 -2.2960  1.8302 -0.1813
  453MOL0     H61094  11.322  10.930   9.284  0.1348  1.1135 -1.0468
  453MOL0     H61095  11.437  10.926   9.152 -0.1966  1.1969 -0.2819
  453MOL0     H61096  11.378  10.704   9.356 -1.0921 -0.5345 -0.3758
  453MOL0     H61097  11.494  10.686   9.221  0.3347 -0.4329  1.4219
  453MOL0     H61098  11.647  10.846   9.319 -0.3089  0.2963  0.0261
  453MOL0     H61099  11.529  10.906   9.428  2.1566  0.9842 -0.5688
  453MOL0     H61100  11.507  10.712   9.542 -1.8045  2.3200 -1.6054
  453MOL0     H61101  11.611  10.616   9.437 -0.0316 -0.5447  1.4619
  453MOL0     H61102  11.709  10.708   9.659  0.1462 -0.5977 -0.2899
  453MOL0     H61103  11.688  10.864   9.608 -0.1521 -0.3102  0.0437
  453MOL0     H61104  11.884  10.661   9.490  2.0799  0.3014 -0.1676
  453MOL0     H61105  11.852  10.801   9.395 -1.1585  0.4722  1.2431
  453MOL0     H61106  12.065  10.936   9.413 -1.6363 -1.2263  0.1334
  453MOL0     H61107  12.250  11.099   9.490 -0.6112 -1.2454 -1.2397
  453MOL0     H61108  12.314  11.073   9.659  3.4537 -0.9255 -0.8604
  453MOL0     H61109  12.452  10.919   9.599  2.7859  0.4448 -2.2367
  453MOL0     H61110  12.322  10.819   9.537  2.7233 -0.9467  1.2039
  453MOL0     H61111  12.341  10.969   9.323 -4.1565 -0.6668  2.5944
  453MOL0     H61112  12.456  10.845   9.349 -3.8730  0.0700 -2.0372
  453MOL0     H61113  12.508  11.150   9.390 -1.9727  0.2298 -1.0186
  453MOL0     H61114  12.562  11.055   9.259 -0.0791  0.3258  0.3975
  453MOL0     H61115  12.670  10.862   9.209  1.7202 -2.4473 -1.7411
  453MOL0     H61116  12.864  10.728   9.132 -1.4739 -0.2170 -1.2059
  453MOL0     H61117  13.264  10.436   9.092  0.7668  1.0341  1.4654
  453MOL0     H61118  13.473  10.428   8.960 -0.6170  0.0036 -2.0668
  453MOL0     H61119  13.692  10.496   8.946 -0.7674 -1.4421 -1.0559
  453MOL0     H61120  13.639  10.423   8.800 -4.4513  0.5322  0.8495
  453MOL0     H61121  13.873  10.476   8.732  1.3766  1.2916 -3.0534
  453MOL0     H61122  13.791  10.605   8.673 -1.2366  0.1630  0.5945
  453MOL0     H61123  13.869  10.750   8.859  1.0632  0.7427 -0.0601
  453MOL0     H61124  13.924  10.606   8.956  0.7814 -1.1679 -0.4601
  453MOL0     H61125  14.016  10.648   8.682  0.9154 -3.9329  0.1777
  453MOL0     H61126  14.118  10.600   8.823  0.0450  0.3952 -0.9431
  453MOL0     H61127  14.213  10.807   8.756  0.0912  3.2543  1.4954
  453MOL0     H61128  14.120  10.826   8.908 -0.7705  1.9384 -0.2875
  453MOL0     H61129  14.040  10.897   8.626  0.4256  2.2597  0.6174
  453MOL0     H61130  13.938  10.937   8.767 -0.7299 -2.3747 -0.0661
  453MOL0     H61131  14.130  11.097   8.827  2.0693 -0.9847 -0.0547
  453MOL0     H61132  14.046  11.118   8.669  0.4396  0.8244 -0.0612
  453MOL0     H61133  14.308  10.967   8.710 -1.1485 -2.3097 -2.3261
  453MOL0     H61134  14.226  10.993   8.559 -2.4376 -0.7098  1.0888
  453MOL0     H61135  13.426  10.837   8.851  1.2551 -1.2492 -0.0423
  453MOL0     H61136  13.206  10.848   8.993 -1.4274 -0.8952 -0.4317
  453MOL0     H61137  13.108  10.910   9.439  0.7116 -2.4358  0.2156
  453MOL0     H61138  12.881  11.022   9.530  2.3934 -3.4944  2.5769
  453MOL0     H61139  10.860  10.930   9.275 -0.5542  2.8985  0.4466
  453MOL0     H61140  10.645  11.002   9.210 -3.5686  0.8289 -2.8378
  453MOL0     H61141  10.360  11.067   8.634 -3.2277  1.0546 -1.7600
  453MOL0     H61142  10.147  11.156   8.593  1.2863  0.7635 -0.3371
  453MOL0     H61143   9.922  11.120   8.584 -1.0361 -0.3936 -1.4772
  453MOL0     H61144   9.939  11.299   8.601  1.5442 -1.1379  0.4117
  453MOL0     H61145   9.697  11.132   8.673 -1.2930 -0.3507 -1.4110
  453MOL0     H61146   9.708  11.256   8.551  0.4269 -1.0811 -0.3115
  453MOL0     H61147   9.682  11.420   8.693  3.5705 -1.3974 -2.5645
  453MOL0     H61148   9.773  11.360   8.831 -2.7121  1.4266  1.7104
  453MOL0     H61149   9.591  11.207   8.889 -2.4790  0.0003 -0.4302
  453MOL0     H61150   9.565  11.379   8.902  0.0940  0.6261 -0.5935
  453MOL0     H61151   9.245  11.313   8.641 -0.2179 -3.3281 -2.4028
  453MOL0     H61152  10.046  11.130   9.015 -1.6594 -2.6945 -0.4449
  453MOL0     H61153  10.373  11.135   9.123 -1.3884  0.5536  0.4642
  453MOL0     H61154  10.218  11.081   9.166  0.4856 -0.2089  0.7909
  453MOL0     H61155  10.322  10.954   9.124 -0.5705  0.6189  2.4993
  454MOL0     O61156   7.141  10.437   6.577  0.5955  0.0592 -1.5178
  454MOL0     C61157   7.089  10.388   6.678  0.4471  0.4710 -0.3979
  454MOL0     O61158   7.165  10.330   6.780 -0.1898  0.0784 -0.3997
  454MOL0     C61159   7.305  10.360   6.796  0.7376  0.1193  0.6680
  454MOL0     C61160   7.349  10.492   6.779 -0.6494 -0.6202 -0.2373
  454MOL0     C61161   7.486  10.515   6.781 -0.4160  0.4527  0.9360
  454MOL0     C61162   7.576  10.401   6.778 -0.5254  0.1262 -0.3747
  454MOL0     O61163   7.714  10.412   6.762  0.2284 -0.5561  0.5441
  454MOL0     C61164   7.758  10.523   6.675  0.8842  0.4571 -0.2687
  454MOL0     C61165   7.909  10.516   6.655 -0.3609 -0.5755  0.1500
  454MOL0     C61166   7.974  10.625   6.561  0.8341 -0.2828  0.1368
  454MOL0     C61167   7.936  10.766   6.604  0.3153 -0.8332  0.0705
  454MOL0     C61168   8.026  10.885   6.573 -0.1810 -0.6095 -0.6610
  454MOL0     C61169   7.965  11.019   6.602  0.5423  0.0006  0.7324
  454MOL0     C61170   8.062  11.124   6.551 -0.2777 -0.2500  0.4289
  454MOL0     C61171   8.018  11.260   6.571 -0.4651 -0.1046  1.2039
  454MOL0     N61172   8.113  11.356   6.517 -0.5617 -0.5722 -0.9664
  454MOL0     C61173   8.213  11.407   6.597  0.3317 -0.5830  0.0230
  454MOL0     C61174   8.298  11.474   6.514  0.2768 -0.9010 -0.3370
  454MOL0     C61175   8.434  11.534   6.548  0.8761  0.1590  0.7798
  454MOL0     C61176   8.542  11.513   6.451  0.1298 -0.2691  0.5242
  454MOL0     C61177   8.674  11.548   6.511 -0.4120 -0.2888 -0.2076
  454MOL0     C61178   8.786  11.509   6.411  0.3438 -0.1109  0.0388
  454MOL0     O61179   8.893  11.602   6.452 -0.1004  0.4688  0.2776
  454MOL0     C61180   9.014  11.559   6.410  0.1099  0.4527  0.0910
  454MOL0     C61181   9.117  11.595   6.494  0.3574  0.6203  0.3864
  454MOL0     C61182   9.241  11.549   6.462 -0.8126  0.3037 -1.1490
  454MOL0     C61183   9.266  11.458   6.357 -0.0595  0.5725 -0.1517
  454MOL0     C61184   9.403  11.411   6.328  0.3028 -0.4432  0.6179
  454MOL0     O61185   9.455  11.431   6.199 -0.5595  0.3731 -0.8030
  454MOL0     C61186   9.593  11.403   6.168 -0.1216 -0.9762 -0.2818
  454MOL0     C61187   9.699  11.414   6.256  0.5854 -0.3993  0.6096
  454MOL0     C61188   9.828  11.384   6.208  0.9552  0.1347  0.4593
  454MOL0     C61189   9.849  11.334   6.076 -0.5090  0.0383 -0.2122
  454MOL0     O61190   9.976  11.312   6.034 -0.5906 -0.6694  0.1142
  454MOL0     C61191  10.029  11.196   6.093 -0.1348  0.3493 -0.0563
  454MOL0     C61192  10.186  11.193   6.086  0.1045  0.4534  0.4404
  454MOL0     C61193  10.250  11.066   6.137  0.2639 -0.7875 -0.0954
  454MOL0     C61194  10.396  11.064   6.086 -0.7931  0.3841 -0.6954
  454MOL0     C61195  10.458  10.922   6.094  0.2272  0.2955 -1.3418
  454MOL0     C61196  10.607  10.939   6.052  1.0547 -0.6543 -0.3294
  454MOL0     C61197  10.650  10.802   5.997  0.3905  0.2122 -0.9890
  454MOL0     C61198  10.807  10.796   5.971  0.5196  0.1437  0.2656
  454MOL0    Cl61199  10.878  10.923   5.850  0.0088  0.6484  0.4217
  454MOL0     C61200   9.739  11.336   5.989  0.0671 -0.5887 -0.4104
  454MOL0     C61201   9.614  11.372   6.039  1.0939  0.1219 -0.8616
  454MOL0     O61202   9.458  11.354   6.416  0.4294 -0.3380  0.0835
  454MOL0     C61203   9.159  11.434   6.268  0.4629 -0.1865  0.3378
  454MOL0     C61204   9.033  11.483   6.298 -0.7502  0.6255  0.5692
  454MOL0     N61205   8.237  11.473   6.387 -0.6278  0.5923  0.3909
  454MOL0     N61206   8.125  11.405   6.388  0.3883  0.7096 -0.1042
  454MOL0     C61207   7.524  10.273   6.796 -0.1440  0.2777 -0.9382
  454MOL0     C61208   7.391  10.253   6.800 -0.0382  0.6477 -0.3044
  454MOL0     C61209   6.942  10.379   6.668  0.7687 -0.1129  0.3921
  454MOL0     C61210   6.887  10.278   6.748  0.0530  0.7858 -0.2011
  454MOL0     C61211   6.749  10.249   6.757  0.2092 -1.0144 -0.8248
  454MOL0     C61212   6.662  10.330   6.680 -0.6530 -0.8602  0.6581
  454MOL0     O61213   6.535  10.319   6.686  0.1889  0.6052  0.4073
  454MOL0     C61214   6.474  10.231   6.788 -0.0750 -0.5168  0.7123
  454MOL0     C61215   6.320  10.253   6.776  0.4666  0.0518  0.3241
  454MOL0     C61216   6.247  10.214   6.907 -0.2930  0.2724 -0.1133
  454MOL0     C61217   6.093  10.206   6.885 -0.4860  0.3981 -0.0421
  454MOL0     C61218   6.030  10.175   7.011 -0.1981  0.2248 -0.2054
  454MOL0     C61219   5.996  10.136   7.124 -0.2213 -0.0027  0.4774
  454MOL0     C61220   6.721  10.438   6.597  0.7941  0.6777  0.2018
  454MOL0     C61221   6.857  10.463   6.591 -0.3281  0.1029  0.0350
  454MOL0     C61222   6.902  10.589   6.528 -0.1064  0.4849 -0.3648
  454MOL0     H61223   7.279  10.574   6.771  0.2106 -0.0043 -2.3102
  454MOL0     H61224   7.521  10.617   6.767  0.1315  0.4142  1.9191
  454MOL0     H61225   7.695  10.514   6.586 -1.2883 -3.0403  1.4089
  454MOL0     H61226   7.735  10.616   6.727  0.8080 -0.4386  1.3553
  454MOL0     H61227   7.921  10.415   6.614  3.6439 -0.2824  0.2307
  454MOL0     H61228   7.960  10.514   6.752  0.6979 -4.0128 -0.3551
  454MOL0     H61229   7.939  10.612   6.458  0.7722 -0.9388  0.2363
  454MOL0     H61230   8.081  10.611   6.575  0.5309 -1.8279  1.1843
  454MOL0     H61231   7.833  10.784   6.572 -0.1031 -4.4614 -1.1464
  454MOL0     H61232   7.922  10.765   6.712  1.1540 -0.1244  0.1914
  454MOL0     H61233   8.116  10.870   6.632 -0.4551  2.2690  0.6189
  454MOL0     H61234   8.054  10.877   6.467 -2.0503 -2.2729 -1.1129
  454MOL0     H61235   7.870  11.035   6.551  1.4596  2.6415 -0.2855
  454MOL0     H61236   7.941  11.030   6.708  1.1132  3.2197  0.6354
  454MOL0     H61237   8.083  11.114   6.444  1.3111 -0.7629  0.7673
  454MOL0     H61238   8.154  11.102   6.605  0.2049  0.1244 -0.2317
  454MOL0     H61239   7.922  11.276   6.521 -1.0997 -2.4607  1.5458
  454MOL0     H61240   8.004  11.279   6.678 -2.1100 -2.2228  1.4157
  454MOL0     H61241   8.226  11.393   6.703 -0.1573 -3.3723 -0.2009
  454MOL0     H61242   8.415  11.641   6.565  1.0091  0.6929 -2.0172
  454MOL0     H61243   8.478  11.484   6.634 -0.6730 -4.6066 -0.8939
  454MOL0     H61244   8.554  11.408   6.422 -2.1375 -0.5081  0.3064
  454MOL0     H61245   8.538  11.573   6.360  1.6357 -0.7308  0.1163
  454MOL0     H61246   8.696  11.497   6.604  1.8344  2.8811  1.1647
  454MOL0     H61247   8.680  11.655   6.532 -3.2076 -0.3420  1.3189
  454MOL0     H61248   8.760  11.524   6.306 -0.8522 -3.6178 -0.2850
  454MOL0     H61249   8.809  11.403   6.424  4.1931  0.6401  0.5350
  454MOL0     H61250   9.097  11.647   6.587  1.5165 -1.9534  2.1582
  454MOL0     H61251   9.326  11.578   6.524 -2.0591 -1.5288  1.5917
  454MOL0     H61252   9.672  11.454   6.353  0.7910  0.8270  0.1799
  454MOL0     H61253   9.906  11.409   6.280 -0.2247 -0.6060  2.0547
  454MOL0     H61254  10.004  11.183   6.198  1.6384 -0.5851  0.2887
  454MOL0     H61255   9.982  11.112   6.040 -0.2103  0.1937  0.2608
  454MOL0     H61256  10.217  11.214   5.984  0.8619 -2.0394  0.0910
  454MOL0     H61257  10.225  11.277   6.143 -2.1199  1.8082  0.1121
  454MOL0     H61258  10.262  11.078   6.245  3.0345  2.1341 -0.5873
  454MOL0     H61259  10.194  10.976   6.109  0.6193 -1.8880  2.4767
  454MOL0     H61260  10.462  11.136   6.137  0.2661  1.5653 -3.5421
  454MOL0     H61261  10.402  11.082   5.979  1.5002 -2.5548 -1.2100
  454MOL0     H61262  10.415  10.855   6.019  0.3103 -1.2814 -0.0615
  454MOL0     H61263  10.451  10.882   6.196  2.1477  4.7162  0.7935
  454MOL0     H61264  10.610  11.017   5.975 -4.1003 -0.7138 -0.9282
  454MOL0     H61265  10.662  10.960   6.144  2.1990 -0.1677 -1.0985
  454MOL0     H61266  10.589  10.768   5.912  0.7167 -2.6394 -0.1851
  454MOL0     H61267  10.633  10.720   6.067  1.2265  0.9456  0.1059
  454MOL0     H61268  10.852  10.817   6.069  0.6362  0.6704  0.1032
  454MOL0     H61269  10.839  10.698   5.936 -2.1216 -0.2699 -1.1951
  454MOL0     H61270   9.754  11.317   5.883  1.6355 -1.6454 -0.0278
  454MOL0     H61271   9.527  11.371   5.975 -0.3079  2.1874  0.8869
  454MOL0     H61272   9.179  11.383   6.174 -0.4418  0.7399 -0.3768
  454MOL0     H61273   8.955  11.469   6.224  1.4134  1.5209 -2.0681
  454MOL0     H61274   7.590  10.186   6.801  0.2098  0.5974  2.5938
  454MOL0     H61275   7.331  10.162   6.796 -1.2323  1.1275  3.0874
  454MOL0     H61276   6.946  10.224   6.820 -2.0998 -0.0062  1.0736
  454MOL0     H61277   6.721  10.166   6.820 -2.6843 -0.0444 -0.6507
  454MOL0     H61278   6.510  10.258   6.887 -0.9195  0.7019  0.7064
  454MOL0     H61279   6.497  10.127   6.761 -2.4271 -0.6096 -1.2958
  454MOL0     H61280   6.269  10.195   6.699  0.2164 -0.4997  0.8989
  454MOL0     H61281   6.304  10.360   6.756  2.1602  0.4020  0.7016
  454MOL0     H61282   6.270  10.292   6.981  2.0200  2.5274 -2.9673
  454MOL0     H61283   6.280  10.115   6.942  1.4961  0.3413 -1.4689
  454MOL0     H61284   6.053  10.307   6.873  1.5948  1.2950  0.1997
  454MOL0     H61285   6.060  10.138   6.806  0.9987 -1.8440  1.1735
  454MOL0     H61286   5.965  10.107   7.223  1.8383  3.6500  2.4214
  454MOL0     H61287   6.645  10.501   6.552  0.0693 -0.8318 -0.7750
  454MOL0     H61288   6.820  10.662   6.526  0.4874  1.2505  1.1466
  454MOL0     H61289   6.983  10.644   6.578  0.1447  1.7464 -2.0747
  454MOL0     H61290   6.936  10.570   6.426  2.3295  1.8614  0.1026
  455MOL0     O61291   4.470   8.698   3.056 -0.5689  0.0415 -0.0508
  455MOL0     C61292   4.422   8.806   3.043  0.7190 -0.9413  0.7704
  455MOL0     O61293   4.412   8.908   3.137 -0.2466  0.5577  0.3632
  455MOL0     C61294   4.509   8.896   3.229 -0.4865  0.2222  0.3051
  455MOL0     C61295   4.652   8.918   3.192 -0.9580 -0.0142  0.8843
  455MOL0     C61296   4.743   8.892   3.294 -0.2984  0.1891  0.0395
  455MOL0     C61297   4.705   8.866   3.427 -0.0827  0.0276 -1.2790
  455MOL0     O61298   4.803   8.863   3.521  0.0098 -0.0794 -0.0128
  455MOL0     C61299   4.765   8.884   3.656  0.0935  0.4118 -0.7915
  455MOL0     C61300   4.876   8.878   3.747 -0.0346 -0.8497 -0.2267
  455MOL0     C61301   4.978   8.988   3.709 -0.9770  0.7572 -0.6958
  455MOL0     C61302   5.101   8.985   3.799 -0.0961  0.5224 -0.1679
  455MOL0     C61303   5.199   9.096   3.770 -0.2437  0.1913 -0.6120
  455MOL0     C61304   5.320   9.095   3.863 -0.0823  0.2365  0.4109
  455MOL0     C61305   5.392   9.229   3.848 -0.9840  0.3002  0.5861
  455MOL0     C61306   5.524   9.233   3.923 -0.3043  1.3071  0.0098
  455MOL0     N61307   5.599   9.361   3.928 -0.4204 -1.1277 -0.0203
  455MOL0     C61308   5.614   9.452   3.825  0.0427  0.3488 -0.2173
  455MOL0     C61309   5.675   9.556   3.886  0.3982  0.8431  0.5228
  455MOL0     C61310   5.743   9.665   3.823 -0.9670 -0.1193  0.3878
  455MOL0     C61311   5.734   9.678   3.672  0.3288 -0.4408 -1.0061
  455MOL0     C61312   5.825   9.802   3.630  0.3292  0.1789  0.5104
  455MOL0     C61313   5.966   9.814   3.688  0.3341 -0.5848 -0.5066
  455MOL0     O61314   6.030   9.919   3.615  0.3027  0.1070 -0.2635
  455MOL0     C61315   6.167   9.923   3.621  0.1148 -0.9547 -0.4316
  455MOL0     C61316   6.244   9.861   3.711 -0.2062  0.5917  0.9904
  455MOL0     C61317   6.380   9.891   3.709 -0.4680 -0.2437  0.0239
  455MOL0     C61318   6.437   9.976   3.615 -0.3028 -0.4713 -0.6882
  455MOL0     C61319   6.580   9.994   3.613  0.0456  0.4474  0.8659
  455MOL0     O61320   6.665   9.916   3.696 -0.0254 -0.2777 -0.2149
  455MOL0     C61321   6.796   9.956   3.686  0.9186  0.3182 -0.1825
  455MOL0     C61322   6.895   9.901   3.603  0.9596  0.2603  0.2856
  455MOL0     C61323   7.018   9.948   3.590  0.3360  0.0771  0.1924
  455MOL0     C61324   7.057  10.059   3.655  0.9508  0.7874 -0.1840
  455MOL0     O61325   7.181  10.112   3.665  0.1557 -0.2112  0.4499
  455MOL0     C61326   7.240  10.133   3.537 -0.7997 -0.4128 -0.2311
  455MOL0     C61327   7.363  10.207   3.587 -0.0618  0.3007  1.3399
  455MOL0     C61328   7.456  10.122   3.681 -0.4187 -0.3322  0.2269
  455MOL0     C61329   7.572  10.207   3.735  0.2492 -1.0128 -0.0856
  455MOL0     C61330   7.671  10.128   3.817 -0.0898  0.3585  0.1049
  455MOL0     C61331   7.771  10.222   3.886  0.0476 -0.1118 -0.4603
  455MOL0     C61332   7.898  10.145   3.940 -0.6038 -0.1933 -0.0726
  455MOL0     C61333   7.897  10.101   4.089 -0.3389  0.8491  0.8059
  455MOL0    Cl61334   8.038  10.010   4.136  0.1060  0.1659  0.0315
  455MOL0     C61335   6.969  10.123   3.743  0.8385  0.0467 -0.5549
  455MOL0     C61336   6.831  10.074   3.758  0.1469 -0.1650  0.7680
  455MOL0     O61337   6.616  10.069   3.523 -0.4593  0.0980 -0.2849
  455MOL0     C61338   6.347  10.053   3.533  0.2872  0.5939 -0.1832
  455MOL0     C61339   6.217  10.013   3.528 -0.3784 -0.3796  0.0420
  455MOL0     N61340   5.686   9.537   4.021 -0.0660 -0.1367  0.4270
  455MOL0     N61341   5.645   9.413   4.043  0.6196 -0.3009 -0.3570
  455MOL0     C61342   4.569   8.841   3.453  0.1752 -0.2905  0.5698
  455MOL0     C61343   4.475   8.857   3.356  0.5355 -0.9210 -0.0528
  455MOL0     C61344   4.365   8.845   2.908  0.3276  0.6415  0.6294
  455MOL0     C61345   4.284   8.957   2.889  0.2869 -0.6501  0.2149
  455MOL0     C61346   4.248   9.000   2.759 -0.2431  0.1004  0.5781
  455MOL0     C61347   4.269   8.920   2.646 -0.6621 -0.9287  0.6142
  455MOL0     O61348   4.228   8.972   2.527  0.1356  0.2018 -0.9643
  455MOL0     C61349   4.320   8.962   2.424 -0.1226 -0.5199  0.3841
  455MOL0     C61350   4.428   9.068   2.420 -0.0057  1.0868 -0.1233
  455MOL0     C61351   4.459   9.089   2.268 -0.3029 -0.0380  0.1718
  455MOL0     C61352   4.600   9.141   2.243  0.3541 -0.9848 -0.0422
  455MOL0     C61353   4.702   9.044   2.266  0.2833 -0.5502 -0.7220
  455MOL0     C61354   4.794   8.979   2.309  0.9792  0.1441 -0.5436
  455MOL0     C61355   4.342   8.803   2.662 -0.3776 -0.8819  0.0347
  455MOL0     C61356   4.388   8.761   2.788 -0.4574  0.5376 -0.0909
  455MOL0     C61357   4.456   8.625   2.781  0.7239 -0.3586  0.6730
  455MOL0     H61358   4.675   8.940   3.089 -0.4123 -0.8902  0.8058
  455MOL0     H61359   4.847   8.892   3.264 -0.9790 -3.1344 -3.0402
  455MOL0     H61360   4.725   8.985   3.670 -1.1495 -0.2767  1.0922
  455MOL0     H61361   4.699   8.804   3.690  2.4740 -1.5927 -0.6475
  455MOL0     H61362   4.918   8.777   3.744 -0.0121 -0.8329 -2.9918
  455MOL0     H61363   4.844   8.895   3.851  3.2932 -2.7861  1.3055
  455MOL0     H61364   4.932   9.087   3.721  0.8012  1.5358  0.2447
  455MOL0     H61365   5.006   8.981   3.604 -0.4534 -0.1198 -0.5060
  455MOL0     H61366   5.082   8.992   3.906  0.7554  0.9063 -0.0349
  455MOL0     H61367   5.149   8.888   3.779  1.6534  0.0042  5.0286
  455MOL0     H61368   5.228   9.091   3.665  2.2357 -1.1292  0.0500
  455MOL0     H61369   5.145   9.190   3.779  0.0181  0.2675  0.3502
  455MOL0     H61370   5.303   9.083   3.970  4.3687 -3.4347  1.0147
  455MOL0     H61371   5.396   9.024   3.828  1.3729  1.9939 -0.1254
  455MOL0     H61372   5.329   9.311   3.883 -0.5688 -0.1167  2.3863
  455MOL0     H61373   5.419   9.257   3.746  0.1232  1.3937  1.1458
  455MOL0     H61374   5.509   9.217   4.031  2.6605  0.5618  0.4145
  455MOL0     H61375   5.592   9.153   3.891 -0.5960  1.5560 -1.2613
  455MOL0     H61376   5.586   9.424   3.724 -3.5126 -0.8720  0.9569
  455MOL0     H61377   5.708   9.760   3.864 -2.3667 -0.2068 -0.5381
  455MOL0     H61378   5.848   9.650   3.852 -0.1157 -0.1822 -2.4376
  455MOL0     H61379   5.769   9.581   3.637 -0.6973 -0.9705 -0.6138
  455MOL0     H61380   5.630   9.685   3.639 -0.7342 -2.6584  1.4891
  455MOL0     H61381   5.768   9.889   3.665  0.3787 -0.5367  2.5027
  455MOL0     H61382   5.831   9.800   3.521 -3.2620 -0.1263  0.2314
  455MOL0     H61383   6.021   9.720   3.675  0.6468 -0.3506 -0.9147
  455MOL0     H61384   5.962   9.840   3.794  0.6230  1.9469 -1.0564
  455MOL0     H61385   6.199   9.805   3.792 -0.8519 -2.1767 -1.1526
  455MOL0     H61386   6.441   9.846   3.787 -1.3439  1.7727  1.9793
  455MOL0     H61387   6.867   9.814   3.544  3.4313 -0.4255  0.0120
  455MOL0     H61388   7.079   9.898   3.516  0.8832 -1.8897  1.8688
  455MOL0     H61389   7.252  10.035   3.490 -1.6326 -0.1009 -1.1182
  455MOL0     H61390   7.174  10.197   3.478 -1.7088 -0.8664  0.2647
  455MOL0     H61391   7.418  10.237   3.498 -0.6802  0.0649  0.8700
  455MOL0     H61392   7.337  10.303   3.631 -1.8819  1.2129 -1.5028
  455MOL0     H61393   7.400  10.091   3.769 -0.7212  1.7851  0.8343
  455MOL0     H61394   7.498  10.031   3.637 -2.3719 -2.2637  2.1358
  455MOL0     H61395   7.530  10.292   3.790 -2.4351 -0.8750 -2.0914
  455MOL0     H61396   7.622  10.254   3.650 -1.9511 -0.7998 -1.3541
  455MOL0     H61397   7.719  10.059   3.747  4.2314  1.1946  1.9260
  455MOL0     H61398   7.609  10.066   3.883 -2.0311  2.0341 -0.0259
  455MOL0     H61399   7.799  10.315   3.835  2.2557 -1.4686 -1.8811
  455MOL0     H61400   7.707  10.259   3.967  0.6593  2.2858 -0.9942
  455MOL0     H61401   7.989  10.204   3.933 -1.2875  0.8163 -0.7937
  455MOL0     H61402   7.906  10.059   3.872 -0.0242 -0.6163  0.5315
  455MOL0     H61403   7.886  10.193   4.147 -1.1195  0.4881  1.2493
  455MOL0     H61404   7.806  10.042   4.103 -0.1070 -0.5036 -2.4011
  455MOL0     H61405   7.018  10.204   3.796 -0.1335  1.0035 -1.0828
  455MOL0     H61406   6.763  10.129   3.823 -1.9434 -2.0204  0.3168
  455MOL0     H61407   6.388  10.119   3.457  1.8668 -1.2129 -0.9956
  455MOL0     H61408   6.149  10.066   3.462 -0.4108 -1.0442 -0.4703
  455MOL0     H61409   4.522   8.816   3.548 -0.1704 -0.8130  0.2675
  455MOL0     H61410   4.371   8.849   3.386  0.0397  0.2239 -1.3709
  455MOL0     H61411   4.250   9.020   2.970 -0.8962 -1.0863  0.0726
  455MOL0     H61412   4.196   9.092   2.733 -0.2253  0.0702  0.4333
  455MOL0     H61413   4.251   8.987   2.343  0.0446  0.3213  0.4921
  455MOL0     H61414   4.347   8.857   2.409  1.5687 -0.4136  2.2314
  455MOL0     H61415   4.515   9.028   2.474 -0.3411 -1.7543 -1.4688
  455MOL0     H61416   4.388   9.160   2.463 -2.6002  1.1962 -2.4805
  455MOL0     H61417   4.395   9.163   2.219  2.2703  0.7792 -2.1969
  455MOL0     H61418   4.440   8.999   2.210 -0.5019  1.4785 -2.2583
  455MOL0     H61419   4.613   9.172   2.139 -1.5906  2.4826  0.5868
  455MOL0     H61420   4.621   9.231   2.302 -4.7797 -0.2651  1.1316
  455MOL0     H61421   4.875   8.928   2.356  0.0652 -1.9721 -1.1151
  455MOL0     H61422   4.361   8.744   2.573 -0.5101 -0.4520 -0.2827
  455MOL0     H61423   4.565   8.627   2.792  0.8282  1.6951 -0.1263
  455MOL0     H61424   4.418   8.557   2.858 -1.3982 -2.3123 -1.9205
  455MOL0     H61425   4.422   8.586   2.685  2.2021  1.9741 -0.9169
  456MOL0     O61426  10.139   5.786   4.887  0.0443 -1.2646  0.1591
  456MOL0     C61427  10.052   5.858   4.942 -0.0331 -0.7427  0.3066
  456MOL0     O61428  10.085   5.970   5.015  0.8790 -0.2022  0.3095
  456MOL0     C61429  10.204   6.027   5.001 -0.6463  0.4345  0.5251
  456MOL0     C61430  10.233   6.150   4.932  1.1228  0.2057 -0.2143
  456MOL0     C61431  10.348   6.218   4.942 -0.2412  0.4791 -0.5199
  456MOL0     C61432  10.458   6.162   5.021 -0.4237  0.1864 -0.0803
  456MOL0     O61433  10.579   6.219   5.043 -0.1221  0.6445  0.8194
  456MOL0     C61434  10.650   6.256   4.921  0.4208  0.7525  0.1921
  456MOL0     C61435  10.786   6.319   4.956 -0.0787  0.1458  0.3436
  456MOL0     C61436  10.910   6.303   4.869 -0.0789 -0.0260  0.0271
  456MOL0     C61437  11.008   6.429   4.880 -0.8441  0.2582  0.1609
  456MOL0     C61438  11.068   6.452   5.015 -0.3348  0.1673  0.2741
  456MOL0     C61439  11.224   6.413   5.019  0.8831 -0.4827 -0.3435
  456MOL0     C61440  11.287   6.350   5.142 -0.0730  0.4390  0.2804
  456MOL0     C61441  11.434   6.310   5.122 -0.7868 -0.5253 -0.1560
  456MOL0     N61442  11.469   6.225   5.013  0.3653  0.5094  1.2970
  456MOL0     C61443  11.420   6.099   4.997 -0.1169  0.4224  0.3415
  456MOL0     C61444  11.484   6.060   4.880 -0.3055 -0.7543 -0.5045
  456MOL0     C61445  11.465   5.918   4.817 -0.3925 -0.1739  0.4877
  456MOL0     C61446  11.477   5.924   4.662  1.1128  0.0765 -0.4105
  456MOL0     C61447  11.441   5.789   4.597  0.1622  0.6952  0.0597
  456MOL0     C61448  11.556   5.691   4.604 -0.3229 -0.8707  0.2615
  456MOL0     O61449  11.662   5.723   4.513  0.2831 -0.7468  0.5044
  456MOL0     C61450  11.791   5.684   4.537  0.2341  0.3976  0.8310
  456MOL0     C61451  11.886   5.732   4.446  0.1717 -0.1583  0.2026
  456MOL0     C61452  12.015   5.681   4.444  0.2561  0.4042  0.1064
  456MOL0     C61453  12.056   5.582   4.539  0.7794  0.6312  0.5371
  456MOL0     C61454  12.191   5.526   4.526 -0.4689  0.1189 -0.8534
  456MOL0     O61455  12.293   5.606   4.485  0.4881  0.4319 -0.0422
  456MOL0     C61456  12.415   5.551   4.463  0.1494 -0.0519  0.4085
  456MOL0     C61457  12.471   5.559   4.333 -0.3760  0.0648  0.0600
  456MOL0     C61458  12.600   5.532   4.318  0.0780  1.3577  0.3913
  456MOL0     C61459  12.691   5.498   4.427  1.2671  0.1384 -0.0043
  456MOL0     O61460  12.822   5.473   4.415 -0.9493 -0.0532 -0.0948
  456MOL0     C61461  12.882   5.541   4.301  0.1116  0.5728 -0.4492
  456MOL0     C61462  13.019   5.480   4.275 -0.0192 -0.9463 -0.5288
  456MOL0     C61463  13.098   5.560   4.170 -0.1043 -0.4328 -0.8385
  456MOL0     C61464  13.238   5.511   4.131 -0.4810 -0.4031  0.4784
  456MOL0     C61465  13.333   5.617   4.072 -0.8014 -0.3842 -0.0124
  456MOL0     C61466  13.473   5.557   4.042  0.6397 -0.0332 -0.8081
  456MOL0     C61467  13.558   5.672   3.984 -0.0068  0.2604  0.0893
  456MOL0     C61468  13.694   5.615   3.945 -0.4014 -0.5753  0.0377
  456MOL0    Cl61469  13.773   5.740   3.849 -0.2113  0.2387 -0.1058
  456MOL0     C61470  12.630   5.493   4.557 -0.0990  0.1615 -1.0508
  456MOL0     C61471  12.496   5.531   4.576  0.3086 -0.0462  0.5069
  456MOL0     O61472  12.194   5.407   4.556 -0.6895  0.7611 -1.2201
  456MOL0     C61473  11.955   5.532   4.634  0.3090 -0.6346  0.7965
  456MOL0     C61474  11.826   5.580   4.627 -0.4179 -0.0783  0.6922
  456MOL0     N61475  11.555   6.162   4.828 -0.7235  0.0232  0.7011
  456MOL0     N61476  11.557   6.257   4.913 -0.7603 -0.9531 -0.9181
  456MOL0     C61477  10.435   6.028   5.076  0.0575 -0.1469  0.4414
  456MOL0     C61478  10.311   5.971   5.070 -0.2070 -0.0564 -0.1234
  456MOL0     C61479   9.911   5.820   4.947  0.0506 -0.3790  0.4390
  456MOL0     C61480   9.877   5.740   4.837  1.3186 -0.1235  0.5043
  456MOL0     C61481   9.752   5.687   4.824  0.1212  0.0554 -0.5550
  456MOL0     C61482   9.657   5.720   4.915 -0.7639 -0.6792  0.6434
  456MOL0     O61483   9.531   5.664   4.912  0.1050  0.0637  0.2888
  456MOL0     C61484   9.537   5.516   4.938  0.1544 -0.5675  0.4565
  456MOL0     C61485   9.624   5.472   5.059  0.6064  0.1067 -0.9037
  456MOL0     C61486   9.593   5.543   5.194  0.9490  0.1176  0.7808
  456MOL0     C61487   9.681   5.492   5.315  0.6603 -0.0861  0.2801
  456MOL0     C61488   9.823   5.529   5.295 -0.0542 -0.2980  0.2557
  456MOL0     C61489   9.942   5.553   5.279  0.2488  0.2357  0.7251
  456MOL0     C61490   9.682   5.825   5.004 -0.5445  0.6210 -0.3532
  456MOL0     C61491   9.810   5.885   5.021 -0.1268  0.5680 -0.0271
  456MOL0     C61492   9.823   5.990   5.128  0.9877  0.1071 -0.4339
  456MOL0     H61493  10.153   6.196   4.875 -0.4437 -0.7054  1.1682
  456MOL0     H61494  10.368   6.313   4.893  1.8461 -0.8560 -2.4761
  456MOL0     H61495  10.672   6.160   4.873 -1.3939  0.4831 -0.1957
  456MOL0     H61496  10.591   6.317   4.852 -1.2646 -1.3820 -0.3705
  456MOL0     H61497  10.813   6.291   5.059  0.5570 -0.1965  0.0948
  456MOL0     H61498  10.773   6.427   4.960  3.6065  0.6886  1.7899
  456MOL0     H61499  10.872   6.292   4.767 -0.7670 -1.0875  0.3829
  456MOL0     H61500  10.961   6.210   4.895  0.3773  0.2691  0.1967
  456MOL0     H61501  11.085   6.400   4.809 -0.9167 -2.5809  1.1098
  456MOL0     H61502  10.958   6.519   4.843 -2.0077  0.1762  1.4297
  456MOL0     H61503  11.047   6.559   5.028  0.2366  0.3785 -0.4835
  456MOL0     H61504  11.017   6.390   5.089 -0.4268  0.2497  0.2793
  456MOL0     H61505  11.235   6.335   4.943  0.3398 -0.8852 -0.0070
  456MOL0     H61506  11.261   6.513   4.993 -3.6192  0.8028 -2.7653
  456MOL0     H61507  11.216   6.268   5.156 -1.8179  1.4465 -1.9343
  456MOL0     H61508  11.277   6.419   5.226 -1.5327 -1.6399  1.9249
  456MOL0     H61509  11.485   6.407   5.117 -2.2219  0.2958  0.4490
  456MOL0     H61510  11.465   6.266   5.217 -0.2886  0.8060  0.3242
  456MOL0     H61511  11.365   6.040   5.069  1.6430 -0.7924  0.7634
  456MOL0     H61512  11.546   5.853   4.851 -0.5563 -0.0277  1.1611
  456MOL0     H61513  11.365   5.885   4.843 -1.1335  1.3372 -0.2775
  456MOL0     H61514  11.408   6.001   4.625 -0.4639  0.3780  2.7764
  456MOL0     H61515  11.581   5.956   4.649  0.3107  3.9427  1.3137
  456MOL0     H61516  11.429   5.804   4.489 -1.6110 -0.1397  0.1079
  456MOL0     H61517  11.342   5.759   4.634 -0.4967  2.9965  0.3521
  456MOL0     H61518  11.512   5.596   4.573  1.0217 -1.7477  0.9670
  456MOL0     H61519  11.592   5.685   4.707 -2.0697  0.0473  0.9773
  456MOL0     H61520  11.857   5.798   4.364 -0.2221 -2.6927 -1.8243
  456MOL0     H61521  12.083   5.712   4.365  0.3547 -0.6986 -0.2588
  456MOL0     H61522  12.409   5.575   4.245 -0.6557 -2.1219 -0.1932
  456MOL0     H61523  12.632   5.528   4.215 -1.9086  3.3192 -0.3656
  456MOL0     H61524  12.831   5.535   4.205  0.6980  0.7085 -0.7724
  456MOL0     H61525  12.891   5.647   4.327 -1.4602  0.2902  1.5408
  456MOL0     H61526  13.092   5.464   4.354 -0.4850 -0.0997  0.0979
  456MOL0     H61527  13.005   5.375   4.248  0.5091 -1.2887  0.5101
  456MOL0     H61528  13.043   5.567   4.075  0.5994  0.2715 -1.2044
  456MOL0     H61529  13.114   5.664   4.200  0.7921 -0.6162 -0.6663
  456MOL0     H61530  13.227   5.422   4.068  0.8794  1.4372 -2.6039
  456MOL0     H61531  13.284   5.481   4.226  0.3998  1.2027  0.5942
  456MOL0     H61532  13.346   5.705   4.135 -1.2102  1.7662 -2.7578
  456MOL0     H61533  13.285   5.655   3.982 -2.5561 -0.7196  0.7402
  456MOL0     H61534  13.510   5.522   4.139 -3.8467 -1.2563  0.7210
  456MOL0     H61535  13.467   5.475   3.970  1.5567  0.3520 -1.3377
  456MOL0     H61536  13.576   5.752   4.057  1.7991 -0.4264  0.4458
  456MOL0     H61537  13.508   5.716   3.897  1.6501  2.0160 -0.0304
  456MOL0     H61538  13.760   5.586   4.027  2.4275  1.2511 -1.4220
  456MOL0     H61539  13.682   5.531   3.876  1.5429  0.2413 -1.3924
  456MOL0     H61540  12.698   5.500   4.641  0.1717  1.2533 -1.3494
  456MOL0     H61541  12.452   5.559   4.671  1.6162  2.1657  0.5107
  456MOL0     H61542  11.968   5.456   4.711 -1.1389 -0.1828  1.5279
  456MOL0     H61543  11.763   5.547   4.709  0.1106  1.2635  1.6836
  456MOL0     H61544  10.524   5.988   5.122  0.3156  2.3269  2.3550
  456MOL0     H61545  10.297   5.877   5.122 -1.2749  0.5922  0.7972
  456MOL0     H61546   9.950   5.686   4.777 -2.1590 -2.8409 -1.6765
  456MOL0     H61547   9.740   5.610   4.749 -0.6850  0.7473 -1.1677
  456MOL0     H61548   9.586   5.469   4.853  2.8640  0.1274  1.5395
  456MOL0     H61549   9.441   5.469   4.961  0.8666 -0.8606  3.1618
  456MOL0     H61550   9.727   5.497   5.032  0.8493  2.5630  1.7443
  456MOL0     H61551   9.616   5.364   5.070 -1.6125  0.1166 -1.8348
  456MOL0     H61552   9.485   5.536   5.207  0.2546  2.3871 -2.6266
  456MOL0     H61553   9.622   5.648   5.192 -0.0952  0.4427  1.7721
  456MOL0     H61554   9.646   5.538   5.408 -2.4876 -2.3298  0.3699
  456MOL0     H61555   9.666   5.384   5.327  0.9355 -0.1983 -0.3473
  456MOL0     H61556  10.047   5.573   5.278  0.4994 -1.0273  0.3024
  456MOL0     H61557   9.592   5.861   5.054  0.9835  2.3160  1.3414
  456MOL0     H61558   9.727   6.019   5.171  0.9521  1.3153 -1.2546
  456MOL0     H61559   9.872   5.958   5.220  1.3746  0.1891 -0.6055
  456MOL0     H61560   9.866   6.081   5.083  1.0425 -0.5972 -1.8636
  457MOL0     O61561   9.978   5.924   0.423  0.2967 -0.0233  0.4517
  457MOL0     C61562   9.918   5.878   0.517 -0.9240  0.4449 -0.6182
  457MOL0     O61563   9.985   5.844   0.632  0.2971 -0.3775  0.4133
  457MOL0     C61564  10.122   5.842   0.643  0.0343 -0.5593  0.1939
  457MOL0     C61565  10.206   5.785   0.551  0.8094  0.2557  0.3750
  457MOL0     C61566  10.340   5.809   0.556  0.4195  0.3262  0.0718
  457MOL0     C61567  10.390   5.889   0.654 -0.6115  0.4212 -0.9548
  457MOL0     O61568  10.516   5.931   0.653 -0.0540 -0.6540 -0.9937
  457MOL0     C61569  10.623   5.832   0.628 -0.6295  0.2143 -0.1098
  457MOL0     C61570  10.742   5.860   0.721 -1.3725  0.6204 -0.2558
  457MOL0     C61571  10.843   5.969   0.671  1.0239 -0.3350 -0.8765
  457MOL0     C61572  10.953   6.020   0.767  0.0920  0.2445 -0.7408
  457MOL0     C61573  11.068   6.095   0.697  0.2429  0.1561  0.1197
  457MOL0     C61574  11.183   6.113   0.793  0.4482 -0.1041 -0.3210
  457MOL0     C61575  11.165   6.201   0.925  0.0613 -0.5893 -0.7667
  457MOL0     C61576  11.284   6.205   1.022  0.3803 -0.2384  0.0529
  457MOL0     N61577  11.392   6.272   0.951 -0.3986  1.2868  0.3354
  457MOL0     C61578  11.396   6.408   0.944  1.1454 -1.0478 -0.3553
  457MOL0     C61579  11.502   6.434   0.857 -0.8297 -0.2714  0.0349
  457MOL0     C61580  11.539   6.565   0.800 -0.8975  0.0351  0.2103
  457MOL0     C61581  11.635   6.651   0.888 -0.0361  0.4100  0.3032
  457MOL0     C61582  11.773   6.601   0.870  0.6752 -0.4297 -0.3378
  457MOL0     C61583  11.872   6.651   0.965  0.7999  0.2971  0.3257
  457MOL0     O61584  11.968   6.542   0.981 -0.3654 -0.0845  0.2182
  457MOL0     C61585  12.083   6.566   1.045  0.1507 -0.1172 -0.1857
  457MOL0     C61586  12.124   6.689   1.105 -0.4678  0.2616  0.0166
  457MOL0     C61587  12.244   6.700   1.167 -0.2600 -0.1933  0.1474
  457MOL0     C61588  12.329   6.589   1.180  0.7266  0.1371  0.1647
  457MOL0     C61589  12.467   6.599   1.238 -0.8759  0.5797 -0.4461
  457MOL0     O61590  12.486   6.692   1.339 -0.5404  0.0741 -0.2915
  457MOL0     C61591  12.609   6.700   1.399  0.5946 -0.1924 -0.4383
  457MOL0     C61592  12.605   6.734   1.535 -0.1100 -0.4788  0.0395
  457MOL0     C61593  12.722   6.755   1.605 -0.9126  0.2538 -1.2092
  457MOL0     C61594  12.850   6.751   1.545 -0.0432  0.8013  0.9765
  457MOL0     O61595  12.953   6.793   1.617 -0.5652  0.1110 -1.4450
  457MOL0     C61596  13.087   6.742   1.593 -0.1265  0.0595 -0.1678
  457MOL0     C61597  13.191   6.849   1.594  0.5085  0.2817  0.4907
  457MOL0     C61598  13.326   6.793   1.538  0.1612 -0.1836  0.5946
  457MOL0     C61599  13.424   6.722   1.651 -0.2361  0.2076 -0.3833
  457MOL0     C61600  13.554   6.688   1.569  0.0275 -0.4576  0.6701
  457MOL0     C61601  13.661   6.612   1.647 -0.3245  0.9479  0.0204
  457MOL0     C61602  13.805   6.616   1.574  0.1635  0.4736  0.4705
  457MOL0     C61603  13.905   6.522   1.633 -0.3103 -0.9650 -0.0238
  457MOL0    Cl61604  14.068   6.556   1.565 -0.5179 -0.4710 -0.4262
  457MOL0     C61605  12.861   6.723   1.409  0.5686  0.3826  0.1682
  457MOL0     C61606  12.741   6.704   1.342  0.5670  0.3940  0.1021
  457MOL0     O61607  12.555   6.522   1.201 -0.0006  0.5286  0.3474
  457MOL0     C61608  12.289   6.468   1.125  0.3098  0.0719 -0.5383
  457MOL0     C61609  12.164   6.458   1.072 -0.1863 -0.0504  0.0265
  457MOL0     N61610  11.559   6.313   0.831  0.0730  0.3255 -0.0566
  457MOL0     N61611  11.495   6.221   0.883  0.3368  0.0401 -0.3321
  457MOL0     C61612  10.306   5.938   0.755 -0.1675  0.1790 -0.3772
  457MOL0     C61613  10.164   5.911   0.750 -0.0163  0.0913 -0.3699
  457MOL0     C61614   9.774   5.852   0.514  0.4296  0.7134  0.0792
  457MOL0     C61615   9.721   5.781   0.403  0.3198  0.2293 -0.5344
  457MOL0     C61616   9.580   5.751   0.390 -0.8748  0.8000 -0.6176
  457MOL0     C61617   9.494   5.788   0.490  0.7967  1.0491  0.3224
  457MOL0     O61618   9.362   5.759   0.496  0.1562  0.1419  0.2663
  457MOL0     C61619   9.312   5.659   0.398 -0.4574  0.0180 -0.1849
  457MOL0     C61620   9.187   5.592   0.445 -0.2676 -0.3390  0.3105
  457MOL0     C61621   9.073   5.693   0.471  0.3765 -0.4022 -0.2106
  457MOL0     C61622   8.963   5.634   0.551 -0.3437  0.9786 -0.6973
  457MOL0     C61623   8.842   5.709   0.555  0.7521  0.1801 -0.3147
  457MOL0     C61624   8.746   5.776   0.573 -0.0463 -0.6186 -0.1973
  457MOL0     C61625   9.551   5.841   0.606  0.3887 -0.1168 -0.3717
  457MOL0     C61626   9.691   5.875   0.622  0.4808  1.0936 -0.5577
  457MOL0     C61627   9.734   5.931   0.758  0.5788 -0.6780  0.9344
  457MOL0     H61628  10.168   5.714   0.478 -2.2134 -1.6304  3.4493
  457MOL0     H61629  10.399   5.752   0.485 -1.3120 -0.2362 -0.9914
  457MOL0     H61630  10.588   5.730   0.645  0.6411 -0.2347 -0.1024
  457MOL0     H61631  10.654   5.839   0.523 -3.5994 -1.5244 -1.2364
  457MOL0     H61632  10.807   5.772   0.726  1.4525  2.4099 -2.0893
  457MOL0     H61633  10.705   5.884   0.821  0.3861  0.3349  0.5043
  457MOL0     H61634  10.775   6.045   0.632 -0.6856 -1.4421 -0.1912
  457MOL0     H61635  10.895   5.927   0.584  1.7230  0.6321 -0.9466
  457MOL0     H61636  10.914   6.092   0.840 -1.2662  0.1006 -1.2935
  457MOL0     H61637  10.989   5.938   0.829  0.5937  0.2267 -1.0485
  457MOL0     H61638  11.114   6.048   0.609  3.3121  0.9512  1.1457
  457MOL0     H61639  11.021   6.186   0.659 -1.1652 -0.7879 -0.4355
  457MOL0     H61640  11.192   6.012   0.833 -1.2702  1.0300  3.3923
  457MOL0     H61641  11.275   6.126   0.735  0.8876 -0.6162  0.2493
  457MOL0     H61642  11.085   6.161   0.988  0.2751 -0.7253 -0.5784
  457MOL0     H61643  11.138   6.301   0.890 -1.0640 -0.6331 -0.0780
  457MOL0     H61644  11.236   6.258   1.105 -1.6733  0.1800 -1.3390
  457MOL0     H61645  11.310   6.110   1.070 -0.5881  0.0557  1.2047
  457MOL0     H61646  11.316   6.472   0.979  0.9151 -0.4613 -1.9208
  457MOL0     H61647  11.587   6.544   0.704 -2.1560 -1.1794 -0.1936
  457MOL0     H61648  11.449   6.627   0.789  1.1114  2.9938 -1.1799
  457MOL0     H61649  11.631   6.758   0.864  0.9300  0.2709 -0.5007
  457MOL0     H61650  11.598   6.643   0.991 -1.3963 -1.1938 -0.2717
  457MOL0     H61651  11.809   6.615   0.767 -1.5865  2.8461 -0.8272
  457MOL0     H61652  11.763   6.493   0.886 -2.5978 -0.6164 -2.4138
  457MOL0     H61653  11.828   6.674   1.062 -2.5465  0.2503 -1.0521
  457MOL0     H61654  11.918   6.742   0.925  1.1163 -0.2221 -0.5253
  457MOL0     H61655  12.065   6.778   1.123 -0.5403  0.0520  0.9001
  457MOL0     H61656  12.280   6.794   1.206  1.6589 -1.3161  1.2304
  457MOL0     H61657  12.508   6.734   1.584 -1.1587 -3.9801 -1.6655
  457MOL0     H61658  12.722   6.782   1.710  1.5369 -1.5056 -0.6671
  457MOL0     H61659  13.111   6.665   1.667  0.5077 -0.3329 -0.7673
  457MOL0     H61660  13.079   6.686   1.500  0.7014  0.1871 -0.3192
  457MOL0     H61661  13.157   6.924   1.521 -1.9066 -0.9354  0.2532
  457MOL0     H61662  13.209   6.905   1.686  1.0083  0.4937  0.2696
  457MOL0     H61663  13.314   6.722   1.456 -3.2437  4.2264 -3.2489
  457MOL0     H61664  13.394   6.871   1.502  1.0322 -1.4605 -0.6662
  457MOL0     H61665  13.377   6.630   1.688 -2.2979  0.7457 -1.5053
  457MOL0     H61666  13.443   6.788   1.735 -0.9330  0.1510 -0.1721
  457MOL0     H61667  13.589   6.777   1.517 -0.7872 -1.2768 -1.3768
  457MOL0     H61668  13.522   6.624   1.486 -0.5543  0.1476  0.4225
  457MOL0     H61669  13.667   6.652   1.749 -0.3171  1.8806 -0.3357
  457MOL0     H61670  13.625   6.509   1.650  1.7052  0.0099 -2.8823
  457MOL0     H61671  13.855   6.711   1.596  0.2837  0.5166  0.0152
  457MOL0     H61672  13.798   6.606   1.465 -1.7843  0.1803  0.5831
  457MOL0     H61673  13.916   6.535   1.741 -0.0205  1.0262 -0.2640
  457MOL0     H61674  13.871   6.419   1.615  1.0580 -1.8304  2.0256
  457MOL0     H61675  12.946   6.716   1.342  0.9394 -2.6780  0.7929
  457MOL0     H61676  12.741   6.698   1.233  0.5736 -1.9075  0.1983
  457MOL0     H61677  12.354   6.381   1.133 -2.1632 -1.6812  2.6832
  457MOL0     H61678  12.133   6.364   1.028  4.0752 -1.3639 -0.6252
  457MOL0     H61679  10.346   6.008   0.828 -0.7642  0.3962 -0.2550
  457MOL0     H61680  10.098   5.964   0.818 -0.6983 -0.6952 -0.4124
  457MOL0     H61681   9.780   5.723   0.332 -0.2833 -0.6539 -0.3224
  457MOL0     H61682   9.541   5.694   0.307 -0.0302  1.3173 -1.4007
  457MOL0     H61683   9.375   5.570   0.382 -3.6898 -2.5058  0.1530
  457MOL0     H61684   9.292   5.698   0.298  1.0511 -0.7350 -0.8176
  457MOL0     H61685   9.207   5.522   0.527 -1.4375 -0.5084  0.4702
  457MOL0     H61686   9.155   5.523   0.366 -0.1831 -0.1412  0.1023
  457MOL0     H61687   9.035   5.735   0.377 -0.8866  0.5841  0.7202
  457MOL0     H61688   9.123   5.770   0.530  2.4348 -2.4586  0.9352
  457MOL0     H61689   8.937   5.537   0.509  1.2052 -0.5325  1.6518
  457MOL0     H61690   8.998   5.610   0.651 -1.2913 -0.5481 -0.7123
  457MOL0     H61691   8.669   5.851   0.576 -0.1594 -0.5567 -2.7768
  457MOL0     H61692   9.486   5.848   0.693  0.8806 -1.6081  0.1532
  457MOL0     H61693   9.791   6.022   0.739 -0.9505  0.5181  1.8467
  457MOL0     H61694   9.648   5.967   0.815  0.3116 -1.4873  1.0619
  457MOL0     H61695   9.784   5.859   0.824 -0.1045  1.0810  3.5075
  458MOL0     O61696   8.515   1.074   8.579  0.6970 -0.7205  0.0524
  458MOL0     C61697   8.481   1.051   8.693 -0.4479  0.1185  1.0462
  458MOL0     O61698   8.576   1.035   8.797  0.2616  0.7005 -0.1875
  458MOL0     C61699   8.712   1.031   8.774  0.5036  0.0509  0.4551
  458MOL0     C61700   8.780   1.077   8.887  0.0529 -0.4946  1.0101
  458MOL0     C61701   8.917   1.087   8.875  0.8519 -0.7290 -0.5033
  458MOL0     C61702   8.990   1.048   8.762 -0.4064  0.0130  0.9103
  458MOL0     O61703   9.129   1.056   8.753 -0.1139 -0.3087 -0.0823
  458MOL0     C61704   9.204   1.101   8.865 -0.4026  0.3447  0.4352
  458MOL0     C61705   9.349   1.106   8.820  0.5072 -0.3432 -0.5320
  458MOL0     C61706   9.413   0.974   8.791  0.8374 -0.1830 -0.1761
  458MOL0     C61707   9.511   0.926   8.904  0.3058 -0.2743 -0.1488
  458MOL0     C61708   9.543   0.772   8.891 -0.5422  0.8621  0.3126
  458MOL0     C61709   9.661   0.737   8.987  0.7883 -0.0386 -0.1331
  458MOL0     C61710   9.708   0.593   8.971 -0.2123 -0.3323 -0.1422
  458MOL0     C61711   9.807   0.573   9.084 -1.0744 -0.1390  0.2817
  458MOL0     N61712   9.906   0.465   9.055  0.8609 -0.2452  0.4087
  458MOL0     C61713   9.947   0.408   8.942  0.4232 -0.1544  0.4854
  458MOL0     C61714  10.037   0.314   8.977  0.7668 -0.8684  0.7197
  458MOL0     C61715  10.127   0.234   8.874  0.0338 -0.6561 -0.3399
  458MOL0     C61716  10.276   0.262   8.886 -1.2472  0.7511  0.6099
  458MOL0     C61717  10.347   0.129   8.843  0.8150  0.3736 -0.1234
  458MOL0     C61718  10.487   0.141   8.795  0.1558  0.4119  0.3257
  458MOL0     O61719  10.493   0.221   8.681  0.1271  0.2736  0.2862
  458MOL0     C61720  10.599   0.196   8.597 -0.0271  0.0695 -1.0588
  458MOL0     C61721  10.716   0.149   8.646  0.0188  0.3162 -0.1673
  458MOL0     C61722  10.833   0.154   8.575  0.2533 -0.1303 -0.2222
  458MOL0     C61723  10.829   0.203   8.440 -0.0225 -0.1683  0.5951
  458MOL0     C61724  10.952   0.203   8.353 -0.2947  0.2185  0.6367
  458MOL0     O61725  11.064   0.154   8.408 -0.0340 -1.0726  0.2301
  458MOL0     C61726  11.182   0.172   8.340 -0.0869  0.6400 -0.0183
  458MOL0     C61727  11.271   0.068   8.300  0.5532  0.0566 -0.5109
  458MOL0     C61728  11.388   0.097   8.228  0.3388  0.2495 -0.0601
  458MOL0     C61729  11.430   0.229   8.193 -0.3449  0.3772 -0.6189
  458MOL0     O61730  11.548   0.261   8.125  0.0717  0.8378  0.1038
  458MOL0     C61731  11.633   0.346   8.193 -0.9723  0.1891 -0.7931
  458MOL0     C61732  11.783   0.302   8.210  0.3373 -0.8534  0.3589
  458MOL0     C61733  11.824   0.215   8.084  0.1550  0.2770 -0.3573
  458MOL0     C61734  11.984   0.188   8.079  0.2075 -0.7499 -0.0725
  458MOL0     C61735  12.027   0.115   7.946 -0.1959 -0.3232 -0.1981
  458MOL0     C61736  12.171   0.068   7.957 -1.2193 -0.1480  0.2963
  458MOL0     C61737  12.189  -0.021   7.836 -0.1494 -0.2883  0.4184
  458MOL0     C61738  12.333  -0.091   7.841 -0.6701  0.2856  0.0937
  458MOL0    Cl61739  12.378  -0.128   7.675  0.0752  0.0230 -0.1350
  458MOL0     C61740  11.339   0.336   8.227 -0.3798  0.2706 -0.4886
  458MOL0     C61741  11.217   0.299   8.300 -0.1496 -0.0634 -0.1303
  458MOL0     O61742  10.944   0.244   8.238 -0.0523  0.4136 -0.5326
  458MOL0     C61743  10.705   0.255   8.391  1.1148  0.7012  0.9856
  458MOL0     C61744  10.594   0.265   8.480 -0.2499  0.3551  0.0063
  458MOL0     N61745  10.039   0.303   9.114 -0.4843 -0.4238 -0.4997
  458MOL0     N61746   9.966   0.398   9.161  1.0284  0.3373  0.0301
  458MOL0     C61747   8.918   0.993   8.649 -0.3021  0.3219 -0.6560
  458MOL0     C61748   8.782   0.980   8.656  0.2747  0.0055 -0.3209
  458MOL0     C61749   8.338   1.026   8.723 -0.3324 -0.0923  0.3382
  458MOL0     C61750   8.244   1.062   8.631 -0.2790 -0.5919 -0.4381
  458MOL0     C61751   8.107   1.051   8.664 -0.1499  0.1784 -0.3970
  458MOL0     C61752   8.065   1.000   8.788  0.2445  0.9506 -0.1480
  458MOL0     O61753   7.933   0.987   8.821  0.1143 -0.5009  0.3662
  458MOL0     C61754   7.848   1.099   8.792  0.6386 -0.1190  0.4019
  458MOL0     C61755   7.728   1.099   8.891  0.3048  0.0546 -0.4857
  458MOL0     C61756   7.767   1.123   9.043  0.0271  0.3238  0.8849
  458MOL0     C61757   7.665   1.065   9.149  0.4940  0.0369  0.1324
  458MOL0     C61758   7.521   1.103   9.127 -0.6222 -1.2212 -0.5192
  458MOL0     C61759   7.412   1.133   9.089 -0.1618  0.0238 -0.4675
  458MOL0     C61760   8.161   0.959   8.882  0.3875 -0.6238 -0.8027
  458MOL0     C61761   8.303   0.963   8.849  0.9399  0.2460 -0.3386
  458MOL0     C61762   8.391   0.903   8.947  0.4314 -0.8495  0.5668
  458MOL0     H61763   8.729   1.110   8.977  0.6059  2.7997  0.2557
  458MOL0     H61764   8.969   1.122   8.963  0.9709 -0.4496 -0.6817
  458MOL0     H61765   9.188   1.205   8.894 -0.6157  0.2673  0.6011
  458MOL0     H61766   9.191   1.025   8.943  1.5262 -0.5286 -0.0286
  458MOL0     H61767   9.408   1.154   8.899 -0.1312 -0.3462 -0.0465
  458MOL0     H61768   9.371   1.165   8.730  0.1437 -2.8826 -2.4049
  458MOL0     H61769   9.459   0.982   8.692 -1.7384 -1.8183 -1.6153
  458MOL0     H61770   9.336   0.897   8.784  3.4641 -3.4389  2.6719
  458MOL0     H61771   9.598   0.993   8.904 -0.2768  0.5532 -2.4265
  458MOL0     H61772   9.459   0.937   9.000 -2.0588 -1.5389 -1.2192
  458MOL0     H61773   9.453   0.712   8.906  1.2658 -2.1014  0.1485
  458MOL0     H61774   9.570   0.757   8.786 -1.4221 -0.0756  0.2102
  458MOL0     H61775   9.740   0.813   8.986 -0.6254  1.4991 -0.0337
  458MOL0     H61776   9.617   0.746   9.087  1.4226  1.1202  0.0491
  458MOL0     H61777   9.761   0.584   8.876  2.8488  1.5045  1.2717
  458MOL0     H61778   9.628   0.520   8.986  0.1613 -0.5345  0.9425
  458MOL0     H61779   9.865   0.661   9.114  1.4633 -0.8892 -1.9889
  458MOL0     H61780   9.737   0.532   9.158  2.7540  0.1729  4.4978
  458MOL0     H61781   9.933   0.443   8.840 -0.8087 -0.8875  0.3882
  458MOL0     H61782  10.100   0.131   8.900  1.6279 -1.2700 -1.0366
  458MOL0     H61783  10.092   0.253   8.772  0.3859  2.0758 -0.0419
  458MOL0     H61784  10.298   0.341   8.813 -3.0903  0.4189 -0.3769
  458MOL0     H61785  10.306   0.274   8.990 -1.8998 -3.1077  1.3897
  458MOL0     H61786  10.280   0.081   8.771 -0.2248  1.0202  0.3771
  458MOL0     H61787  10.347   0.061   8.929 -3.2199  1.7549  1.2505
  458MOL0     H61788  10.517   0.039   8.770  1.7862  0.7927  0.6640
  458MOL0     H61789  10.553   0.190   8.866 -0.6984 -0.7664  2.0069
  458MOL0     H61790  10.721   0.113   8.748 -2.2954 -1.2474 -0.5196
  458MOL0     H61791  10.923   0.114   8.622  0.0347  3.5492  3.9592
  458MOL0     H61792  11.244  -0.033   8.330  0.1240  0.9562  2.5618
  458MOL0     H61793  11.451   0.009   8.217 -3.0153 -2.5401  1.1823
  458MOL0     H61794  11.633   0.435   8.131 -1.1763 -1.1557 -2.8241
  458MOL0     H61795  11.588   0.364   8.291  0.3269 -0.4323 -0.0392
  458MOL0     H61796  11.839   0.395   8.216 -0.6200 -0.1238 -1.2354
  458MOL0     H61797  11.805   0.241   8.298 -0.4163  0.8429  1.7914
  458MOL0     H61798  11.764   0.124   8.076  0.9741 -0.2917 -0.2786
  458MOL0     H61799  11.792   0.278   8.001 -0.6547  2.0230  1.2011
  458MOL0     H61800  12.021   0.130   8.164 -1.0982 -3.3629 -1.1905
  458MOL0     H61801  12.021   0.291   8.079 -1.3043 -0.1516  1.4082
  458MOL0     H61802  12.026   0.173   7.853  1.4325  4.6166  2.4740
  458MOL0     H61803  11.963   0.028   7.929 -1.1330  0.5870 -1.4796
  458MOL0     H61804  12.237   0.154   7.967 -1.6315  0.1166  0.7577
  458MOL0     H61805  12.186  -0.002   8.040 -2.2184 -1.5482 -0.6570
  458MOL0     H61806  12.191   0.039   7.745  1.1738  1.7614  1.6952
  458MOL0     H61807  12.108  -0.093   7.821 -0.2196 -0.1375  0.0579
  458MOL0     H61808  12.403  -0.019   7.886  1.6275 -2.1457  0.6347
  458MOL0     H61809  12.321  -0.181   7.902 -3.2318  0.0529 -0.6195
  458MOL0     H61810  11.357   0.432   8.180 -0.9452  0.9479  0.6215
  458MOL0     H61811  11.156   0.387   8.320 -0.6447  0.1825 -2.4771
  458MOL0     H61812  10.689   0.300   8.293  1.2991  0.8818  1.0379
  458MOL0     H61813  10.505   0.317   8.447  0.1549  0.1004 -1.5694
  458MOL0     H61814   8.976   0.956   8.565 -2.4334  0.9304 -2.4892
  458MOL0     H61815   8.728   0.948   8.568 -0.5001  0.0246  0.1387
  458MOL0     H61816   8.257   1.125   8.543 -2.2460  0.6012  0.0659
  458MOL0     H61817   8.022   1.081   8.602 -1.0437  2.0858  1.6190
  458MOL0     H61818   7.812   1.085   8.689  3.3093  0.4604 -0.6995
  458MOL0     H61819   7.900   1.195   8.787  1.3257 -0.5312 -1.0395
  458MOL0     H61820   7.665   1.011   8.881 -3.3773  2.4445 -0.0714
  458MOL0     H61821   7.664   1.185   8.869  0.7145  0.3446 -0.5631
  458MOL0     H61822   7.781   1.229   9.068 -1.7899  0.7110  0.3411
  458MOL0     H61823   7.867   1.079   9.057 -0.6586 -2.3918 -1.7211
  458MOL0     H61824   7.669   0.957   9.137 -0.5127  0.1108 -1.1403
  458MOL0     H61825   7.705   1.084   9.249 -0.0891 -0.4987  0.4765
  458MOL0     H61826   7.308   1.138   9.062 -0.5904  1.2118  1.2813
  458MOL0     H61827   8.125   0.925   8.979 -0.6387  1.4047 -0.4102
  458MOL0     H61828   8.419   0.989   9.008  0.9397  1.2025 -2.3386
  458MOL0     H61829   8.339   0.840   9.019  0.8731  1.1829  2.7713
  458MOL0     H61830   8.475   0.854   8.895  1.6346  1.7690 -0.1639
  459MOL0     O61831   9.731   7.931   1.597  0.0593 -0.5607 -0.3882
  459MOL0     C61832   9.662   7.902   1.499 -0.2834  1.0270  0.2512
  459MOL0     O61833   9.705   7.816   1.396 -0.6314  0.1336 -0.5228
  459MOL0     C61834   9.796   7.721   1.437 -0.5747  0.6875 -0.5681
  459MOL0     C61835   9.903   7.695   1.347  0.3395 -0.1995 -0.6389
  459MOL0     C61836   9.993   7.588   1.372  0.4343  0.8328  1.5293
  459MOL0     C61837   9.985   7.513   1.487 -1.2453 -0.6273  0.5990
  459MOL0     O61838  10.092   7.424   1.501  0.7930 -0.1556 -0.5937
  459MOL0     C61839  10.066   7.298   1.568 -0.3913  0.5707  0.4616
  459MOL0     C61840  10.186   7.208   1.550  0.1478 -0.6321 -0.3248
  459MOL0     C61841  10.214   7.145   1.422  0.0665  0.1302 -0.3126
  459MOL0     C61842  10.358   7.085   1.411 -0.1721  0.2049  0.6707
  459MOL0     C61843  10.360   6.987   1.286 -0.6949 -0.4414 -0.0931
  459MOL0     C61844  10.498   6.907   1.265  1.0120 -0.7577  0.0531
  459MOL0     C61845  10.503   6.820   1.132  0.1675 -0.7469  0.2637
  459MOL0     C61846  10.396   6.705   1.136  0.9106  0.2531 -0.3660
  459MOL0     N61847  10.393   6.614   1.021 -0.6036  0.2160 -0.5994
  459MOL0     C61848  10.369   6.649   0.892 -0.8696  0.7108  0.7989
  459MOL0     C61849  10.362   6.529   0.830  0.1974  0.2194 -0.3321
  459MOL0     C61850  10.325   6.510   0.679 -0.0473  0.0641 -0.3257
  459MOL0     C61851  10.389   6.385   0.608  0.0698  0.1924 -0.5355
  459MOL0     C61852  10.360   6.358   0.460 -0.5439  0.7967 -0.4518
  459MOL0     C61853  10.446   6.243   0.407  0.0293  0.7717  0.4921
  459MOL0     O61854  10.583   6.288   0.382  0.2382 -0.2138  0.3695
  459MOL0     C61855  10.680   6.200   0.351 -0.0105 -0.3036  0.5031
  459MOL0     C61856  10.654   6.066   0.303  0.1284 -0.5842 -0.1120
  459MOL0     C61857  10.756   5.978   0.256  0.0243 -0.6525  0.1122
  459MOL0     C61858  10.891   6.010   0.284  0.4251  0.4725 -0.1964
  459MOL0     C61859  10.995   5.911   0.264 -0.7389  0.8132  0.7091
  459MOL0     O61860  11.123   5.950   0.293 -0.1207 -0.0772  0.0551
  459MOL0     C61861  11.234   5.868   0.269 -0.0916  0.1475  0.3075
  459MOL0     C61862  11.239   5.810   0.147 -0.9318  0.7504  0.5524
  459MOL0     C61863  11.342   5.718   0.107  0.1350 -0.1924  0.5015
  459MOL0     C61864  11.450   5.699   0.198  0.1952  0.4555 -0.4419
  459MOL0     O61865  11.555   5.617   0.162  1.0444  0.4484 -0.3390
  459MOL0     C61866  11.511   5.490   0.100 -0.1449 -0.1668 -0.6045
  459MOL0     C61867  11.609   5.381   0.138 -0.0702 -0.0466 -0.2607
  459MOL0     C61868  11.751   5.392   0.072  0.1968  0.1617  0.2798
  459MOL0     C61869  11.865   5.299   0.118  0.5355  0.3195 -0.4837
  459MOL0     C61870  11.895   5.306   0.271 -0.0048  0.2339  0.6100
  459MOL0     C61871  11.970   5.437   0.306 -0.3992  0.2671 -0.4508
  459MOL0     C61872  12.119   5.419   0.320 -0.0815  0.5937 -0.2026
  459MOL0     C61873  12.156   5.358   0.450  1.0296  0.0615 -0.0957
  459MOL0    Cl61874  12.332   5.328   0.455  0.1042 -0.2481 -0.3649
  459MOL0     C61875  11.452   5.769   0.320 -0.3849 -0.4112 -0.6906
  459MOL0     C61876  11.348   5.859   0.350 -0.8732  0.6752  0.2792
  459MOL0     O61877  10.961   5.799   0.228  0.2189 -0.0653 -0.0821
  459MOL0     C61878  10.916   6.141   0.350 -0.6088 -0.9093  0.7366
  459MOL0     C61879  10.812   6.231   0.378 -1.1304  0.7408 -0.4828
  459MOL0     N61880  10.383   6.431   0.919 -0.6710 -0.3921  0.3514
  459MOL0     N61881  10.396   6.480   1.038  0.1550 -0.4390  1.0423
  459MOL0     C61882   9.881   7.536   1.575 -0.1122 -0.2510  0.3092
  459MOL0     C61883   9.788   7.640   1.554  0.1268 -0.1849 -0.0533
  459MOL0     C61884   9.524   7.953   1.486  0.7658 -0.0592 -0.2510
  459MOL0     C61885   9.462   7.998   1.608  0.6681 -0.1262 -0.4976
  459MOL0     C61886   9.330   8.044   1.610  0.9128 -0.1973 -0.9902
  459MOL0     C61887   9.256   8.046   1.496  1.0040 -0.6164  0.3577
  459MOL0     O61888   9.128   8.096   1.493  0.1331  0.2551  0.6370
  459MOL0     C61889   9.043   8.081   1.375 -0.1008  0.2975  0.1441
  459MOL0     C61890   8.900   8.082   1.413 -0.1482  0.2653 -0.2391
  459MOL0     C61891   8.812   8.025   1.304 -0.2238  0.5581  0.8811
  459MOL0     C61892   8.668   8.067   1.319 -0.0782  0.3670  0.2513
  459MOL0     C61893   8.582   7.975   1.398 -0.0867 -0.2978  0.3197
  459MOL0     C61894   8.522   7.898   1.460  0.1390  1.2500 -0.1586
  459MOL0     C61895   9.317   7.999   1.372  0.1184 -0.0569 -0.4332
  459MOL0     C61896   9.453   7.960   1.365 -0.3997  0.3773 -0.1477
  459MOL0     C61897   9.517   7.954   1.225  0.9342  1.0563 -0.3379
  459MOL0     H61898   9.904   7.762   1.261 -1.0625 -0.7459 -1.1121
  459MOL0     H61899  10.088   7.572   1.322  0.7968  0.2757  2.3951
  459MOL0     H61900  10.061   7.315   1.676 -1.1201 -2.6722  1.0224
  459MOL0     H61901   9.966   7.261   1.545 -0.9650  1.7979  0.9077
  459MOL0     H61902  10.171   7.121   1.615  4.8658  0.1329  2.1998
  459MOL0     H61903  10.275   7.268   1.570  0.1098  0.2706 -2.5224
  459MOL0     H61904  10.188   7.212   1.339 -0.6593  0.1694 -0.0600
  459MOL0     H61905  10.137   7.067   1.418 -0.7506  0.6428  2.9263
  459MOL0     H61906  10.434   7.155   1.377 -0.7262 -0.5725 -2.4407
  459MOL0     H61907  10.393   7.031   1.499  0.2322 -0.0370  0.3620
  459MOL0     H61908  10.292   6.905   1.310  0.0233 -0.4709  2.0907
  459MOL0     H61909  10.322   7.043   1.200 -3.0236 -1.1240  0.4328
  459MOL0     H61910  10.577   6.981   1.249 -0.7070  0.6363 -2.6978
  459MOL0     H61911  10.528   6.846   1.351  0.0658 -2.3097 -0.6735
  459MOL0     H61912  10.601   6.778   1.110  0.4505  0.1774 -0.3180
  459MOL0     H61913  10.490   6.890   1.048 -0.0898 -0.8304  0.2308
  459MOL0     H61914  10.415   6.656   1.232  0.1845 -0.5489 -0.6161
  459MOL0     H61915  10.296   6.748   1.129  1.3272  1.2697 -0.3472
  459MOL0     H61916  10.364   6.749   0.851 -1.7148  0.1342 -0.5672
  459MOL0     H61917  10.216   6.514   0.669 -0.1933  0.4032  1.1437
  459MOL0     H61918  10.359   6.603   0.631 -0.2624  0.8621  1.0030
  459MOL0     H61919  10.496   6.404   0.620  0.3212 -2.3106  2.4870
  459MOL0     H61920  10.364   6.301   0.673  2.3906  2.1732  3.2292
  459MOL0     H61921  10.387   6.453   0.413  3.4613  0.1516  0.2100
  459MOL0     H61922  10.255   6.330   0.443  0.0270 -1.0426 -1.3041
  459MOL0     H61923  10.409   6.212   0.309  2.0762 -2.3831  0.5512
  459MOL0     H61924  10.433   6.163   0.481 -1.1521  0.1023 -0.4180
  459MOL0     H61925  10.552   6.031   0.293 -0.7217  1.3028  1.3080
  459MOL0     H61926  10.731   5.879   0.220  2.9257 -1.0676 -0.9908
  459MOL0     H61927  11.165   5.825   0.069 -0.1609 -1.2015 -0.6388
  459MOL0     H61928  11.346   5.680   0.005 -1.0860  1.1244 -0.0723
  459MOL0     H61929  11.409   5.474   0.136 -1.3291  2.9563 -2.1799
  459MOL0     H61930  11.516   5.507  -0.008 -0.4233 -0.5361 -0.6753
  459MOL0     H61931  11.618   5.366   0.246  1.1889  2.5539  0.0651
  459MOL0     H61932  11.573   5.282   0.108  0.5511 -0.4833  0.3820
  459MOL0     H61933  11.733   5.359  -0.030 -1.4243 -3.4548  1.5655
  459MOL0     H61934  11.790   5.495   0.073 -0.1120  0.2858  1.4834
  459MOL0     H61935  11.952   5.323   0.056  2.4624 -0.7854  1.6246
  459MOL0     H61936  11.850   5.195   0.088  2.3650  0.1663 -0.9690
  459MOL0     H61937  11.961   5.220   0.291 -0.7625 -1.2195 -2.4521
  459MOL0     H61938  11.803   5.300   0.329 -1.7938  4.5079 -1.3793
  459MOL0     H61939  11.952   5.523   0.241  0.7178  1.5406  0.8293
  459MOL0     H61940  11.928   5.465   0.403 -1.7377  0.6536 -1.1265
  459MOL0     H61941  12.167   5.517   0.314  1.4961 -0.2035 -1.4799
  459MOL0     H61942  12.140   5.345   0.242 -2.3141  1.3587 -1.6363
  459MOL0     H61943  12.124   5.426   0.529 -1.9869 -0.5848 -0.6393
  459MOL0     H61944  12.108   5.259   0.454  1.0285  0.0900  1.1576
  459MOL0     H61945  11.538   5.765   0.386 -2.5501  0.4310  2.4122
  459MOL0     H61946  11.351   5.914   0.444  0.0858  1.4483 -0.1834
  459MOL0     H61947  11.019   6.165   0.375 -0.0520  0.7275 -2.4756
  459MOL0     H61948  10.840   6.326   0.423  1.5562  0.5243 -1.4966
  459MOL0     H61949   9.883   7.476   1.666  0.4025 -0.2964  0.2683
  459MOL0     H61950   9.697   7.652   1.611 -0.2509 -1.9391 -0.2452
  459MOL0     H61951   9.512   7.992   1.705  2.4665  2.6813 -1.1364
  459MOL0     H61952   9.283   8.082   1.700 -0.9590  2.5204 -2.9339
  459MOL0     H61953   9.060   7.984   1.327 -1.5909 -1.0578  2.1655
  459MOL0     H61954   9.063   8.167   1.310 -1.3629  1.1043  0.7834
  459MOL0     H61955   8.877   8.186   1.438 -0.6816 -0.0624  0.6932
  459MOL0     H61956   8.887   8.028   1.507  1.2175  2.2758  1.1821
  459MOL0     H61957   8.837   7.919   1.298  0.0900  0.6752 -0.2774
  459MOL0     H61958   8.847   8.075   1.212 -1.4172 -1.6767 -0.8747
  459MOL0     H61959   8.663   8.169   1.357 -1.2465  0.0533  0.9902
  459MOL0     H61960   8.629   8.062   1.217  1.4786  1.8933 -0.4662
  459MOL0     H61961   8.479   7.837   1.536  2.0210  3.4084  2.8481
  459MOL0     H61962   9.256   8.012   1.283 -1.4725 -1.2904  0.4176
  459MOL0     H61963   9.611   8.009   1.213  2.5978 -1.6620 -0.8619
  459MOL0     H61964   9.543   7.852   1.194  1.3623  1.9150 -3.1297
  459MOL0     H61965   9.443   7.987   1.152  0.8874 -0.2697 -0.9271
  460MOL0     O61966   4.870   6.271   7.956 -0.3634 -0.2264 -0.1873
  460MOL0     C61967   4.826   6.355   7.875  1.5510 -1.0091 -0.0428
  460MOL0     O61968   4.902   6.459   7.817 -0.1281  0.9912  0.2522
  460MOL0     C61969   5.031   6.492   7.854 -0.7151 -0.1718 -0.2954
  460MOL0     C61970   5.102   6.447   7.968  0.1071  0.9626  0.0204
  460MOL0     C61971   5.218   6.506   8.007  0.2260 -0.0339  0.1657
  460MOL0     C61972   5.291   6.600   7.931 -0.0333  0.3339  0.1088
  460MOL0     O61973   5.410   6.648   7.980 -0.9455  0.3198 -0.3031
  460MOL0     C61974   5.434   6.783   7.954 -0.4700  0.2864 -0.3939
  460MOL0     C61975   5.581   6.818   7.991 -0.7201 -0.8613 -0.4714
  460MOL0     C61976   5.607   6.791   8.141  0.1976  0.3122  0.0605
  460MOL0     C61977   5.743   6.781   8.192  0.9789 -0.3676  0.3353
  460MOL0     C61978   5.737   6.777   8.347 -0.0859  0.0695 -0.6687
  460MOL0     C61979   5.700   6.641   8.400  0.0514 -0.2447 -0.4946
  460MOL0     C61980   5.630   6.629   8.540 -0.0788 -0.0220  0.4489
  460MOL0     C61981   5.727   6.700   8.632  0.2478  0.3453  0.7178
  460MOL0     N61982   5.671   6.685   8.760 -0.5147  0.3312 -0.4034
  460MOL0     C61983   5.654   6.564   8.826  0.3547  0.0033 -0.3024
  460MOL0     C61984   5.619   6.595   8.949  0.8942  0.2854  0.6346
  460MOL0     C61985   5.602   6.488   9.045  0.2375 -0.2015 -0.8277
  460MOL0     C61986   5.734   6.440   9.115 -0.1591  0.1095 -1.5032
  460MOL0     C61987   5.829   6.360   9.027  0.1836  0.2470 -0.6051
  460MOL0     C61988   5.779   6.220   9.002  0.2921 -0.0523 -0.1365
  460MOL0     O61989   5.787   6.136   9.127  0.4653  0.1788  0.2151
  460MOL0     C61990   5.909   6.110   9.190 -0.2290 -0.7726  0.0689
  460MOL0     C61991   6.020   6.091   9.111  0.1618  0.1884 -1.1248
  460MOL0     C61992   6.139   6.073   9.178 -0.1365 -0.3915  0.0965
  460MOL0     C61993   6.149   6.055   9.322 -0.0978  0.5050  0.2055
  460MOL0     C61994   6.284   6.025   9.386  0.5442 -0.4373  0.0693
  460MOL0     O61995   6.386   5.975   9.305  0.2738 -0.0216 -0.1732
  460MOL0     C61996   6.512   5.927   9.339  0.5707  0.5750 -0.2116
  460MOL0     C61997   6.562   5.928   9.471 -0.1570  0.2704  0.2670
  460MOL0     C61998   6.701   5.890   9.488 -0.2353 -0.0476 -0.4152
  460MOL0     C61999   6.789   5.864   9.388 -0.3245  0.7237  0.6922
  460MOL0     O62000   6.914   5.824   9.430  0.7392  0.6078 -0.3468
  460MOL0     C62001   6.996   5.761   9.322  0.3299 -0.9835 -0.2329
  460MOL0     C62002   7.111   5.696   9.391  0.0809  0.2794  0.0161
  460MOL0     C62003   7.195   5.807   9.467 -0.2278 -0.2675  0.3036
  460MOL0     C62004   7.341   5.759   9.496  0.1479 -1.1344  0.0212
  460MOL0     C62005   7.446   5.861   9.542 -0.1478  0.6521  0.3347
  460MOL0     C62006   7.596   5.823   9.525  0.9308  0.8852  1.1159
  460MOL0     C62007   7.649   5.717   9.625 -0.1781 -0.5561 -0.0637
  460MOL0     C62008   7.794   5.686   9.584 -0.5923  0.5852  1.2908
  460MOL0    Cl62009   7.802   5.558   9.458 -0.0560 -0.1048  0.3917
  460MOL0     C62010   6.740   5.875   9.261  0.1417  0.9608 -0.6292
  460MOL0     C62011   6.599   5.890   9.232  0.0639  0.1689 -0.2891
  460MOL0     O62012   6.292   6.037   9.512  0.4906 -0.3794 -0.7751
  460MOL0     C62013   6.034   6.075   9.403  0.5528 -0.4491 -0.7421
  460MOL0     C62014   5.912   6.111   9.328 -0.7827  0.8452 -0.4130
  460MOL0     N62015   5.613   6.732   8.969 -0.0484  0.1396  0.9000
  460MOL0     N62016   5.648   6.784   8.852  0.3434 -0.2969  0.2446
  460MOL0     C62017   5.225   6.638   7.807  0.5319 -0.2306  0.2586
  460MOL0     C62018   5.097   6.590   7.778 -0.4557 -0.4756  0.1643
  460MOL0     C62019   4.679   6.362   7.848 -0.6695  0.0299 -0.3699
  460MOL0     C62020   4.619   6.239   7.854 -0.1960  0.5744 -0.0257
  460MOL0     C62021   4.486   6.215   7.820 -0.1991 -0.0625  0.8404
  460MOL0     C62022   4.404   6.316   7.791 -1.1107 -1.0583 -0.4198
  460MOL0     O62023   4.275   6.282   7.763 -0.1625 -0.1698  1.0789
  460MOL0     C62024   4.173   6.375   7.710 -0.3502 -0.1109 -0.4065
  460MOL0     C62025   4.133   6.479   7.818 -0.4304  0.2182  0.2470
  460MOL0     C62026   4.119   6.401   7.958  0.2980 -1.2434 -0.4608
  460MOL0     C62027   4.071   6.491   8.076  0.1919  0.3138 -0.7410
  460MOL0     C62028   3.921   6.512   8.081 -0.3687 -0.3095 -1.4986
  460MOL0     C62029   3.805   6.539   8.104  0.4107  0.3023  0.3869
  460MOL0     C62030   4.456   6.446   7.780 -0.2193 -0.2654  0.0775
  460MOL0     C62031   4.589   6.471   7.822 -0.1279 -0.2587  0.1071
  460MOL0     C62032   4.642   6.613   7.842 -1.1179  0.0712 -0.2662
  460MOL0     H62033   5.080   6.365   8.036 -0.1356  0.2698 -0.8705
  460MOL0     H62034   5.254   6.466   8.101 -5.4066 -1.1120  2.2699
  460MOL0     H62035   5.425   6.803   7.847  2.0547 -3.6678 -1.5667
  460MOL0     H62036   5.358   6.836   8.012 -2.8208 -2.8224 -0.3906
  460MOL0     H62037   5.608   6.919   7.959  2.7193 -0.9794  1.6074
  460MOL0     H62038   5.658   6.764   7.936  0.3688  0.1741 -0.0118
  460MOL0     H62039   5.558   6.696   8.166  3.4901 -1.6354 -0.2520
  460MOL0     H62040   5.557   6.872   8.195  1.0981  1.7549 -1.1868
  460MOL0     H62041   5.783   6.686   8.155  0.3569  0.3335 -2.3531
  460MOL0     H62042   5.802   6.867   8.162 -0.0688 -0.1207 -1.1027
  460MOL0     H62043   5.834   6.804   8.389 -0.6619 -0.0094  0.7800
  460MOL0     H62044   5.661   6.851   8.375  0.2968  0.0941  0.3360
  460MOL0     H62045   5.632   6.589   8.333  0.6565 -0.9437 -0.5797
  460MOL0     H62046   5.788   6.577   8.391 -0.4139 -0.7321 -1.6462
  460MOL0     H62047   5.618   6.527   8.577  2.8683  0.6332  3.8351
  460MOL0     H62048   5.527   6.665   8.531  0.0387  0.1350 -0.3049
  460MOL0     H62049   5.830   6.665   8.615  0.8778  1.8310  1.2653
  460MOL0     H62050   5.708   6.807   8.619 -0.7895  0.6216  3.6835
  460MOL0     H62051   5.666   6.460   8.797  0.2212 -1.5485  4.4046
  460MOL0     H62052   5.526   6.519   9.117  0.6316 -1.0187 -0.0491
  460MOL0     H62053   5.552   6.411   8.985 -2.0847 -0.1380  0.9159
  460MOL0     H62054   5.800   6.520   9.151 -0.5648  0.8844 -2.4274
  460MOL0     H62055   5.699   6.391   9.206  2.3087 -1.4718 -1.3056
  460MOL0     H62056   5.924   6.347   9.080 -1.0137 -1.3411  1.3164
  460MOL0     H62057   5.838   6.420   8.936 -0.1526 -1.1511 -1.5850
  460MOL0     H62058   5.839   6.178   8.922  1.2296  2.4821 -0.8390
  460MOL0     H62059   5.680   6.223   8.956 -0.2199  0.4780  0.9529
  460MOL0     H62060   6.013   6.083   9.003  0.2684  1.4052 -1.2347
  460MOL0     H62061   6.225   6.055   9.114 -0.8689  1.1286 -1.4083
  460MOL0     H62062   6.518   5.967   9.562 -0.1368  2.7479 -0.7063
  460MOL0     H62063   6.744   5.887   9.588  1.2364 -1.3598 -1.0406
  460MOL0     H62064   6.944   5.694   9.253 -1.1864  1.3144 -1.4312
  460MOL0     H62065   7.039   5.841   9.262 -1.4004 -1.0529 -1.6548
  460MOL0     H62066   7.064   5.625   9.458 -2.5579  0.5007 -1.4594
  460MOL0     H62067   7.174   5.648   9.315  0.4946  1.4115 -0.3855
  460MOL0     H62068   7.186   5.891   9.398 -2.2782 -2.1860 -1.9464
  460MOL0     H62069   7.144   5.826   9.562 -0.3419 -1.4641  0.5005
  460MOL0     H62070   7.383   5.723   9.402 -1.6706 -1.5410 -0.6926
  460MOL0     H62071   7.346   5.674   9.563 -0.5696 -0.4958  0.9167
  460MOL0     H62072   7.428   5.896   9.644  2.2530 -2.7083  2.1554
  460MOL0     H62073   7.426   5.942   9.472 -1.2440 -0.8085 -1.1344
  460MOL0     H62074   7.604   5.785   9.423 -0.5384 -0.9546  1.6254
  460MOL0     H62075   7.659   5.912   9.533  2.0607  0.1142  1.0510
  460MOL0     H62076   7.592   5.625   9.610 -0.4219 -0.0597 -2.6043
  460MOL0     H62077   7.650   5.768   9.722 -2.2403  2.8143 -1.6259
  460MOL0     H62078   7.834   5.785   9.562 -0.1187  0.2838  0.7771
  460MOL0     H62079   7.862   5.652   9.662  1.1193  0.2596 -0.2683
  460MOL0     H62080   6.802   5.862   9.173 -0.8071 -1.9040 -0.9813
  460MOL0     H62081   6.558   5.874   9.133  3.9115 -0.4378 -1.9630
  460MOL0     H62082   6.033   6.059   9.510 -0.6229  1.5332 -0.4170
  460MOL0     H62083   5.821   6.127   9.385  0.0636 -0.4586  1.4200
  460MOL0     H62084   5.280   6.706   7.743  1.8940 -0.3931  1.1946
  460MOL0     H62085   5.053   6.629   7.686  0.0246  3.2788  1.3739
  460MOL0     H62086   4.681   6.151   7.867  2.0013  2.0489 -0.1042
  460MOL0     H62087   4.436   6.119   7.832 -1.3558  0.4501  0.2722
  460MOL0     H62088   4.082   6.318   7.689 -0.7190  0.6854 -1.0510
  460MOL0     H62089   4.205   6.427   7.619  0.6416 -0.7060 -0.4125
  460MOL0     H62090   4.042   6.529   7.785 -0.7966  0.7708  1.9947
  460MOL0     H62091   4.197   6.566   7.834  3.1650 -1.9332 -1.0096
  460MOL0     H62092   4.208   6.349   7.994  0.5488 -1.4660 -1.3567
  460MOL0     H62093   4.051   6.316   7.944 -1.7112  0.3011 -0.5002
  460MOL0     H62094   4.095   6.445   8.172 -1.1620  1.8089  0.3830
  460MOL0     H62095   4.131   6.583   8.083  0.4329  0.1716 -0.9003
  460MOL0     H62096   3.701   6.552   8.123 -0.4389 -1.5591 -2.3404
  460MOL0     H62097   4.392   6.528   7.746 -0.2992 -1.4403 -2.9463
  460MOL0     H62098   4.563   6.684   7.869 -1.5646 -0.7484  0.5927
  460MOL0     H62099   4.712   6.612   7.926  0.4926 -0.6091 -1.5530
  460MOL0     H62100   4.687   6.638   7.745 -0.8169 -2.7791 -0.9626
  461MOL0     O62101   9.373   8.017   7.263 -0.2744 -0.5461 -0.3121
  461MOL0     C62102   9.272   8.008   7.337  0.3342 -0.9191  0.3328
  461MOL0     O62103   9.268   8.022   7.475 -0.0691  0.1716  0.1201
  461MOL0     C62104   9.384   8.051   7.544 -0.3369  0.0618 -0.3466
  461MOL0     C62105   9.426   7.974   7.659 -0.0785 -1.0081 -0.0832
  461MOL0     C62106   9.542   8.008   7.736  0.5615 -0.6393 -0.4637
  461MOL0     C62107   9.612   8.120   7.699  0.0874 -0.0104  0.5814
  461MOL0     O62108   9.721   8.159   7.771  0.5941  0.6649  0.1565
  461MOL0     C62109   9.692   8.249   7.880  0.5585 -0.4883  0.1847
  461MOL0     C62110   9.817   8.294   7.950  0.4887  0.1338 -1.1045
  461MOL0     C62111   9.926   8.353   7.863  0.5365 -0.1279 -0.5487
  461MOL0     C62112  10.054   8.261   7.842  0.9161 -0.4816  0.0363
  461MOL0     C62113  10.179   8.349   7.813  0.3207 -0.6794  0.1649
  461MOL0     C62114  10.307   8.269   7.799  0.1570 -0.0326  0.2814
  461MOL0     C62115  10.431   8.369   7.793 -0.4827 -0.4680  0.3720
  461MOL0     C62116  10.432   8.471   7.674 -0.2296 -0.8495  0.0059
  461MOL0     N62117  10.558   8.538   7.646 -0.1429  0.2477 -0.0501
  461MOL0     C62118  10.640   8.581   7.743 -0.7873 -0.0165  0.1416
  461MOL0     C62119  10.760   8.612   7.686 -0.5456 -0.4367  0.5995
  461MOL0     C62120  10.872   8.660   7.766  0.0337  0.3806 -0.1873
  461MOL0     C62121  10.985   8.709   7.672  0.6896 -0.0331 -0.5002
  461MOL0     C62122  11.096   8.770   7.762 -0.2113  0.2348  0.1521
  461MOL0     C62123  11.189   8.845   7.659 -0.1906  0.6708  0.2456
  461MOL0     O62124  11.298   8.903   7.730  0.5345 -0.1004 -0.5335
  461MOL0     C62125  11.430   8.901   7.680 -0.8957  0.4234  0.0956
  461MOL0     C62126  11.472   8.954   7.557  0.3342  0.0937 -0.1930
  461MOL0     C62127  11.602   8.938   7.504  0.2853 -0.0262  0.1797
  461MOL0     C62128  11.697   8.876   7.584  0.7798  0.6522  0.4383
  461MOL0     C62129  11.830   8.838   7.537 -0.3453 -0.4711 -0.4761
  461MOL0     O62130  11.923   8.783   7.626 -0.0415  0.7810 -0.0394
  461MOL0     C62131  12.050   8.743   7.580 -0.2424  1.0638  0.2709
  461MOL0     C62132  12.154   8.755   7.682 -0.2415 -0.3116 -0.2370
  461MOL0     C62133  12.283   8.691   7.666  0.3360 -0.0474  0.0004
  461MOL0     C62134  12.299   8.620   7.549 -1.0440  0.4174  0.3886
  461MOL0     O62135  12.416   8.565   7.511  1.0495  0.8350 -0.0507
  461MOL0     C62136  12.529   8.561   7.595 -0.1627 -0.1840  0.3205
  461MOL0     C62137  12.538   8.441   7.695  0.9125  0.1070  0.5243
  461MOL0     C62138  12.671   8.427   7.762 -0.3157  0.4387 -0.2279
  461MOL0     C62139  12.678   8.282   7.823  0.6605 -0.2204 -0.6941
  461MOL0     C62140  12.812   8.237   7.867 -0.1335  0.2468  0.5714
  461MOL0     C62141  12.912   8.188   7.758  0.0280 -0.2541  0.2795
  461MOL0     C62142  13.048   8.143   7.819 -0.3154  0.2234  0.2917
  461MOL0     C62143  13.043   8.025   7.905 -0.1776 -0.0187  0.0867
  461MOL0    Cl62144  12.967   7.891   7.809  0.2298 -0.2049 -0.5388
  461MOL0     C62145  12.197   8.600   7.454 -0.2010 -0.0306 -1.2321
  461MOL0     C62146  12.076   8.669   7.469 -0.1283 -0.4237 -0.1885
  461MOL0     O62147  11.851   8.869   7.419 -0.2122  0.3007  0.4885
  461MOL0     C62148  11.658   8.821   7.706 -0.3698 -0.4359  0.0515
  461MOL0     C62149  11.531   8.839   7.750  0.8585  0.7014 -0.2531
  461MOL0     N62150  10.744   8.599   7.548  0.6452  0.0942  0.9241
  461MOL0     N62151  10.631   8.536   7.527  0.2431 -0.0593  0.2271
  461MOL0     C62152   9.581   8.198   7.587  0.6205  0.2055  0.0628
  461MOL0     C62153   9.463   8.171   7.514 -0.1308  0.2523 -0.6915
  461MOL0     C62154   9.146   7.970   7.269 -0.2020  0.1688  0.0430
  461MOL0     C62155   9.021   7.987   7.340  0.4377 -0.1416 -1.2702
  461MOL0     C62156   8.901   7.951   7.279  0.3064  0.0314 -0.0667
  461MOL0     C62157   8.903   7.893   7.153  0.3762 -0.3107  0.1960
  461MOL0     O62158   8.783   7.856   7.103  0.6259  0.2723 -0.2187
  461MOL0     C62159   8.732   7.738   7.176  0.8822 -0.5856  0.4129
  461MOL0     C62160   8.606   7.678   7.114 -0.1454  0.0090  0.7833
  461MOL0     C62161   8.616   7.647   6.959  0.6326 -0.8634  0.1557
  461MOL0     C62162   8.753   7.593   6.899 -0.3855  0.9112 -0.4690
  461MOL0     C62163   8.741   7.522   6.769 -0.3226  0.1191  0.3749
  461MOL0     C62164   8.707   7.462   6.663 -0.3149 -0.1553  0.5577
  461MOL0     C62165   9.017   7.879   7.081 -0.8710  0.5012 -0.3370
  461MOL0     C62166   9.140   7.914   7.137  0.7393  0.3139 -0.1677
  461MOL0     C62167   9.249   7.891   7.041  0.6120  0.9553 -0.0117
  461MOL0     H62168   9.363   7.889   7.683 -1.1459  0.1854  1.6330
  461MOL0     H62169   9.567   7.968   7.834 -2.2999 -1.2368  0.0907
  461MOL0     H62170   9.646   8.340   7.843 -1.7277 -0.4096  2.8852
  461MOL0     H62171   9.621   8.200   7.947 -0.2629  1.7465  1.0360
  461MOL0     H62172   9.864   8.208   7.999 -2.0777 -0.8445 -0.1900
  461MOL0     H62173   9.774   8.366   8.021  0.6985 -0.4120 -0.4223
  461MOL0     H62174   9.964   8.448   7.903 -0.6421  0.6132 -1.1373
  461MOL0     H62175   9.872   8.387   7.775 -1.7533  1.9547  1.4967
  461MOL0     H62176  10.073   8.208   7.936 -0.2483 -1.6002 -0.3332
  461MOL0     H62177  10.021   8.193   7.763 -0.9141  0.6280 -0.2083
  461MOL0     H62178  10.157   8.410   7.725 -2.3020  1.0702  1.8674
  461MOL0     H62179  10.183   8.416   7.900  0.0732  1.5908 -1.4784
  461MOL0     H62180  10.307   8.202   7.885 -1.4929  0.0185  0.3550
  461MOL0     H62181  10.311   8.216   7.703  1.4425  0.3384  0.1024
  461MOL0     H62182  10.524   8.312   7.797 -0.7200 -1.3641 -3.2449
  461MOL0     H62183  10.432   8.426   7.887 -2.0175  0.0833  0.0855
  461MOL0     H62184  10.407   8.421   7.580  1.3439  1.5538 -1.8118
  461MOL0     H62185  10.366   8.554   7.702 -1.3715 -1.3574 -1.0553
  461MOL0     H62186  10.617   8.585   7.849 -1.3019  1.0723  0.0049
  461MOL0     H62187  10.823   8.731   7.833 -2.0078  0.3806 -1.5900
  461MOL0     H62188  10.912   8.585   7.835 -0.1663  0.1179 -0.3551
  461MOL0     H62189  11.025   8.628   7.610  1.7133 -0.8048  1.0945
  461MOL0     H62190  10.940   8.782   7.605 -2.1948 -1.4355 -0.2415
  461MOL0     H62191  11.169   8.693   7.790  1.5785  2.2261  1.1602
  461MOL0     H62192  11.049   8.826   7.843 -0.6436 -1.2163  0.9529
  461MOL0     H62193  11.138   8.926   7.605 -1.4904 -0.1047  0.2652
  461MOL0     H62194  11.224   8.771   7.586 -1.0279 -0.4422  0.9339
  461MOL0     H62195  11.411   9.013   7.488  1.7533 -1.0988 -2.5883
  461MOL0     H62196  11.629   8.968   7.403 -1.0956  0.1335 -0.1610
  461MOL0     H62197  12.140   8.809   7.775  1.5850 -2.8666  1.6729
  461MOL0     H62198  12.359   8.697   7.744 -1.9269 -0.8727  2.4111
  461MOL0     H62199  12.614   8.557   7.526 -1.1054 -0.1591 -0.8679
  461MOL0     H62200  12.546   8.652   7.653  0.8194  0.1298 -0.4268
  461MOL0     H62201  12.457   8.441   7.769  1.5036 -2.4688  1.2752
  461MOL0     H62202  12.508   8.355   7.634 -3.7348  1.6475  0.2367
  461MOL0     H62203  12.762   8.422   7.700  1.8436 -0.9071  2.7955
  461MOL0     H62204  12.690   8.511   7.830 -4.3015  2.6268 -1.5212
  461MOL0     H62205  12.657   8.211   7.743  1.4729 -1.0064 -0.2194
  461MOL0     H62206  12.606   8.272   7.904  2.7582  1.3121  1.5176
  461MOL0     H62207  12.788   8.145   7.921  0.5550 -0.0876  0.3107
  461MOL0     H62208  12.846   8.314   7.938  0.6827  2.1364 -1.7297
  461MOL0     H62209  12.873   8.103   7.701  2.5159 -1.1864 -0.1628
  461MOL0     H62210  12.917   8.268   7.684 -1.8467 -0.6102 -0.2800
  461MOL0     H62211  13.090   8.222   7.881 -1.7484  0.7398  0.6324
  461MOL0     H62212  13.121   8.130   7.738  0.2421 -0.0929  0.8398
  461MOL0     H62213  13.143   8.003   7.943  0.6549  1.2628 -1.2403
  461MOL0     H62214  12.976   8.052   7.987 -0.5101 -1.6224  0.3861
  461MOL0     H62215  12.205   8.532   7.369 -1.4526 -1.9088  0.0735
  461MOL0     H62216  11.996   8.650   7.398 -1.1308  1.8880  0.2599
  461MOL0     H62217  11.723   8.754   7.763 -0.1188 -2.6295 -2.6117
  461MOL0     H62218  11.514   8.801   7.850 -1.4263  0.1872 -0.7724
  461MOL0     H62219   9.635   8.290   7.563 -1.4384  0.4310 -4.9428
  461MOL0     H62220   9.431   8.233   7.431 -0.8575  0.3045 -0.3764
  461MOL0     H62221   9.021   8.036   7.437  2.7292  0.0516 -1.3168
  461MOL0     H62222   8.810   7.950   7.339 -0.1501  1.6268 -0.6874
  461MOL0     H62223   8.709   7.776   7.276  2.2975  3.0775 -0.5107
  461MOL0     H62224   8.806   7.658   7.185 -0.1136 -1.7305 -1.0707
  461MOL0     H62225   8.533   7.757   7.134  1.0115  1.3785 -0.2817
  461MOL0     H62226   8.564   7.588   7.160 -1.9736  1.6613  2.5856
  461MOL0     H62227   8.580   7.729   6.896 -0.2252 -1.4162 -0.1020
  461MOL0     H62228   8.542   7.572   6.928 -0.7716  1.3315 -2.1734
  461MOL0     H62229   8.834   7.667   6.894  1.0238  0.0235  4.0193
  461MOL0     H62230   8.787   7.528   6.980 -2.0120  1.8486  1.0470
  461MOL0     H62231   8.682   7.397   6.582  2.3147  0.5871 -0.9500
  461MOL0     H62232   9.008   7.861   6.974 -0.7659  1.4547 -0.5158
  461MOL0     H62233   9.277   7.785   7.050 -0.1690  0.7571  0.1706
  461MOL0     H62234   9.214   7.899   6.937 -0.7442  2.3792  0.5253
  461MOL0     H62235   9.325   7.969   7.043  0.1409  1.4337 -0.3722
  462MOL0     O62236   8.834  11.278  10.848  0.5520  0.0223  0.3513
  462MOL0     C62237   8.742  11.351  10.848  0.8768 -0.1998  0.6949
  462MOL0     O62238   8.742  11.473  10.895  0.1460 -0.4338 -0.1734
  462MOL0     C62239   8.842  11.501  10.980 -0.2080 -0.8571 -1.3202
  462MOL0     C62240   8.976  11.519  10.941 -0.7412  0.5062  0.2862
  462MOL0     C62241   9.074  11.557  11.031  0.1203  0.5016 -0.7211
  462MOL0     C62242   9.053  11.587  11.164  0.1031 -0.0406  0.2674
  462MOL0     O62243   9.142  11.637  11.256  0.2606 -0.6659 -0.1709
  462MOL0     C62244   9.277  11.609  11.232 -0.9142 -0.3987 -0.4694
  462MOL0     C62245   9.364  11.676  11.340  0.2804  0.9265  0.7119
  462MOL0     C62246   9.509  11.658  11.311  0.1417  0.3003 -0.3328
  462MOL0     C62247   9.585  11.718  11.434 -0.9239 -0.8679 -0.2423
  462MOL0     C62248   9.736  11.692  11.425 -0.3476 -0.0901  0.4351
  462MOL0     C62249   9.770  11.540  11.430 -0.0883  0.4618  0.6453
  462MOL0     C62250   9.915  11.511  11.467 -0.1180 -0.3701  0.0159
  462MOL0     C62251  10.006  11.562  11.353  0.7116  0.5886 -0.2076
  462MOL0     N62252  10.139  11.511  11.386 -0.5886  0.0349  1.0624
  462MOL0     C62253  10.201  11.396  11.352 -0.4374  0.7832  0.9037
  462MOL0     C62254  10.314  11.391  11.431 -0.0074 -0.5482 -0.6182
  462MOL0     C62255  10.422  11.298  11.426  0.0874 -0.4733  0.1727
  462MOL0     C62256  10.489  11.273  11.295 -0.4807 -0.7278  0.2290
  462MOL0     C62257  10.561  11.396  11.225  0.2238  0.0962  0.4440
  462MOL0     C62258  10.699  11.430  11.289 -0.0128 -0.4579  0.0285
  462MOL0     O62259  10.774  11.512  11.195 -0.8440  0.7049  0.5590
  462MOL0     C62260  10.909  11.471  11.179 -0.0321  0.4016 -0.6688
  462MOL0     C62261  11.012  11.554  11.214  0.2747  0.4789  0.3395
  462MOL0     C62262  11.136  11.495  11.212 -0.1237 -0.3621  0.0778
  462MOL0     C62263  11.161  11.359  11.178 -0.0725 -0.6441  0.1764
  462MOL0     C62264  11.294  11.297  11.183 -0.0152 -0.5323  1.3607
  462MOL0     O62265  11.395  11.371  11.236  0.3217  0.0733 -0.4968
  462MOL0     C62266  11.519  11.323  11.238 -0.3175  0.8701  1.0424
  462MOL0     C62267  11.570  11.282  11.356 -0.4239 -0.1855 -0.6724
  462MOL0     C62268  11.699  11.239  11.364 -1.2229  0.1131  0.3523
  462MOL0     C62269  11.776  11.228  11.239  0.4990  0.6058  0.3851
  462MOL0     O62270  11.905  11.187  11.235  0.5812 -0.0758 -0.2997
  462MOL0     C62271  11.978  11.231  11.357 -0.5171 -1.3936 -0.4081
  462MOL0     C62272  12.125  11.214  11.346  0.5638  0.4015 -0.1831
  462MOL0     C62273  12.181  11.314  11.244  0.0532  0.3011  0.0297
  462MOL0     C62274  12.315  11.276  11.190  0.3604  0.6380 -0.5981
  462MOL0     C62275  12.417  11.288  11.298  0.0507  0.2715  0.3554
  462MOL0     C62276  12.555  11.252  11.240  0.2134  0.7237  1.2303
  462MOL0     C62277  12.574  11.098  11.239 -0.0322 -0.8710 -0.2309
  462MOL0     C62278  12.723  11.063  11.226 -0.4593 -0.5790 -0.2991
  462MOL0    Cl62279  12.737  10.890  11.197 -0.0830  0.2083  0.3568
  462MOL0     C62280  11.718  11.247  11.113  0.4065  0.3771 -0.1830
  462MOL0     C62281  11.592  11.301  11.115  0.4851  0.0183 -0.1316
  462MOL0     O62282  11.304  11.180  11.138 -0.0254 -0.0632 -0.1067
  462MOL0     C62283  11.052  11.293  11.121 -1.0725  0.3088  0.4957
  462MOL0     C62284  10.926  11.348  11.120  0.1353  0.7975  0.2768
  462MOL0     N62285  10.316  11.512  11.499  0.2775  0.3019 -0.8693
  462MOL0     N62286  10.214  11.583  11.481  0.0155 -0.2770  0.5430
  462MOL0     C62287   8.915  11.581  11.208 -1.0218 -0.5918  0.5505
  462MOL0     C62288   8.818  11.552  11.117  0.2424  0.8738 -0.0257
  462MOL0     C62289   8.614  11.299  10.787 -0.1798  0.3686  0.6335
  462MOL0     C62290   8.632  11.214  10.668 -0.1045 -0.4933  0.6802
  462MOL0     C62291   8.513  11.169  10.607 -0.4221  0.2950 -0.3690
  462MOL0     C62292   8.388  11.196  10.656  0.1621 -0.2635 -0.2026
  462MOL0     O62293   8.287  11.142  10.586  0.7543  0.6441  0.8819
  462MOL0     C62294   8.154  11.187  10.606  0.2604  0.2248  0.2171
  462MOL0     C62295   8.056  11.120  10.501  0.4915  0.0261  0.2770
  462MOL0     C62296   7.939  11.208  10.486 -0.2995 -1.0384  0.4810
  462MOL0     C62297   7.834  11.141  10.390 -0.3980 -1.0474 -0.3339
  462MOL0     C62298   7.773  11.037  10.479 -1.0173  0.3045  0.4740
  462MOL0     C62299   7.721  10.949  10.546 -0.6287 -0.5898  0.0359
  462MOL0     C62300   8.379  11.282  10.763 -0.0270 -0.7574 -0.4371
  462MOL0     C62301   8.484  11.340  10.826 -0.4229 -0.5503  0.1589
  462MOL0     C62302   8.463  11.444  10.940  0.7124  0.3289  0.8605
  462MOL0     H62303   8.998  11.492  10.838 -0.8469  0.1111  0.3624
  462MOL0     H62304   9.172  11.575  10.989 -0.1158  0.4132 -1.3323
  462MOL0     H62305   9.290  11.501  11.236 -5.8955 -1.2769 -1.8374
  462MOL0     H62306   9.308  11.646  11.133 -0.3324  2.2405  0.5999
  462MOL0     H62307   9.341  11.621  11.431 -2.7557  1.0189  0.1098
  462MOL0     H62308   9.346  11.784  11.351 -0.9035  1.0535 -1.7249
  462MOL0     H62309   9.552  11.702  11.221  0.3589 -0.6533 -0.7160
  462MOL0     H62310   9.546  11.555  11.307  2.0931  0.9891 -1.6816
  462MOL0     H62311   9.576  11.827  11.441  0.0036 -0.6361 -1.9953
  462MOL0     H62312   9.560  11.669  11.528 -1.4148  1.8947  1.1780
  462MOL0     H62313   9.773  11.724  11.327 -2.6034  0.1575 -0.4123
  462MOL0     H62314   9.792  11.734  11.508 -0.7862 -1.7192  1.5945
  462MOL0     H62315   9.696  11.489  11.492 -0.3109 -2.4208 -1.7919
  462MOL0     H62316   9.756  11.498  11.330  1.4486 -3.9912  2.0470
  462MOL0     H62317   9.932  11.404  11.476 -0.5498 -0.8975 -3.7440
  462MOL0     H62318   9.929  11.567  11.560 -0.6203 -0.0595 -0.0901
  462MOL0     H62319   9.991  11.516  11.255  1.7782  0.8985 -0.5335
  462MOL0     H62320   9.999  11.670  11.335 -0.6085  0.4273 -0.7492
  462MOL0     H62321  10.176  11.317  11.282  0.9378  0.1308  1.1108
  462MOL0     H62322  10.493  11.326  11.504  0.3886  0.2181 -0.3354
  462MOL0     H62323  10.371  11.207  11.458 -0.6804 -0.0779  0.0948
  462MOL0     H62324  10.562  11.191  11.301  1.2222  0.7652  0.6245
  462MOL0     H62325  10.407  11.242  11.229 -1.5553 -1.9249  2.0420
  462MOL0     H62326  10.489  11.479  11.220 -1.4552 -1.2944  0.5445
  462MOL0     H62327  10.580  11.367  11.122 -1.4347  2.4110 -0.6178
  462MOL0     H62328  10.738  11.330  11.313 -0.9817 -1.4288 -2.1123
  462MOL0     H62329  10.682  11.490  11.378  0.3236  0.6753 -0.6488
  462MOL0     H62330  10.993  11.656  11.245  0.9513  0.7890 -0.2381
  462MOL0     H62331  11.206  11.565  11.256  0.0252 -0.8118  0.5540
  462MOL0     H62332  11.508  11.288  11.445  0.4479 -0.3386 -0.0399
  462MOL0     H62333  11.736  11.217  11.463 -0.2649  0.9296  0.1928
  462MOL0     H62334  11.971  11.339  11.373  1.4199 -1.4586  1.2137
  462MOL0     H62335  11.944  11.173  11.443 -1.1310 -0.1047  0.2415
  462MOL0     H62336  12.164  11.233  11.447  2.1463  1.7666 -0.9931
  462MOL0     H62337  12.142  11.114  11.306 -2.9184 -0.0100 -0.8987
  462MOL0     H62338  12.114  11.325  11.159  2.3880  1.6758 -1.7654
  462MOL0     H62339  12.181  11.416  11.285 -0.2498  0.8809 -1.3697
  462MOL0     H62340  12.343  11.348  11.113  0.8161  1.0529 -0.0508
  462MOL0     H62341  12.327  11.174  11.152  2.7249  0.2511  0.9612
  462MOL0     H62342  12.387  11.217  11.376  1.5011 -0.5642  0.1802
  462MOL0     H62343  12.416  11.391  11.337 -0.4368  0.6071 -0.5065
  462MOL0     H62344  12.574  11.298  11.143  1.5843  4.9448  3.2872
  462MOL0     H62345  12.635  11.293  11.302  0.6075  1.0732  0.4893
  462MOL0     H62346  12.531  11.060  11.146  0.2145 -0.5993 -0.4579
  462MOL0     H62347  12.531  11.059  11.332  1.2085  0.9156  1.1756
  462MOL0     H62348  12.756  11.122  11.140  1.2445 -1.1370 -0.0598
  462MOL0     H62349  12.786  11.096  11.310 -1.7652 -0.2693  0.5863
  462MOL0     H62350  11.763  11.214  11.020  0.0983 -3.1892  0.8081
  462MOL0     H62351  11.538  11.321  11.024 -1.1773 -0.2815  0.7566
  462MOL0     H62352  11.067  11.192  11.084 -0.0020  0.3179  0.8632
  462MOL0     H62353  10.840  11.291  11.087  1.3063 -2.9020  2.9512
  462MOL0     H62354   8.888  11.605  11.310  1.8493  0.0483  1.2395
  462MOL0     H62355   8.719  11.555  11.161 -1.3670 -0.1717 -3.2473
  462MOL0     H62356   8.735  11.193  10.640  0.2175 -1.1667  2.2365
  462MOL0     H62357   8.521  11.107  10.519  2.4652  0.7947 -0.5626
  462MOL0     H62358   8.148  11.293  10.584 -0.4456 -0.2466 -2.1447
  462MOL0     H62359   8.120  11.163  10.707  1.8985  1.1947  1.0293
  462MOL0     H62360   8.038  11.014  10.525  0.1419 -0.3045 -1.3443
  462MOL0     H62361   8.112  11.130  10.408 -0.3384  1.4242 -0.0918
  462MOL0     H62362   7.974  11.302  10.443  2.6030 -2.3215 -0.2128
  462MOL0     H62363   7.893  11.227  10.583 -3.7565 -3.2833 -0.4969
  462MOL0     H62364   7.764  11.222  10.365  0.4321  0.5823  2.1613
  462MOL0     H62365   7.885  11.104  10.301  2.3479 -0.1540  0.7674
  462MOL0     H62366   7.674  10.878  10.610 -0.5310  0.1290  0.9319
  462MOL0     H62367   8.287  11.317  10.808  1.7311  1.7120  1.5156
  462MOL0     H62368   8.377  11.405  10.995 -1.0326  3.0726  0.2503
  462MOL0     H62369   8.553  11.458  11.001  1.6036 -1.1892 -0.0176
  462MOL0     H62370   8.439  11.543  10.901 -0.3949 -0.5134 -0.7188
  463MOL0     O62371   3.420   2.256   5.462  0.7059 -0.3452  0.6984
  463MOL0     C62372   3.445   2.220   5.579  0.5667 -0.2314  0.2413
  463MOL0     O62373   3.560   2.157   5.612 -0.3720 -0.2211 -0.2168
  463MOL0     C62374   3.642   2.121   5.510 -0.6621  0.3660 -0.1628
  463MOL0     C62375   3.738   2.218   5.461 -0.2499  0.2111 -0.4619
  463MOL0     C62376   3.811   2.202   5.345 -1.3422  0.4265  0.0521
  463MOL0     C62377   3.794   2.077   5.281  0.0845 -0.4352 -0.2195
  463MOL0     O62378   3.889   2.050   5.183  0.3210  1.4691 -0.3838
  463MOL0     C62379   3.888   1.924   5.111 -0.6707 -0.5894  0.3316
  463MOL0     C62380   4.005   1.937   5.009  0.4562  0.9143 -0.7199
  463MOL0     C62381   4.150   1.938   5.068 -0.1375 -0.4445  0.5995
  463MOL0     C62382   4.264   1.951   4.967 -0.3456 -0.4236 -0.5978
  463MOL0     C62383   4.402   1.948   5.033 -1.1465  0.5646  0.3885
  463MOL0     C62384   4.452   1.804   5.071  0.1763  0.0091  0.6657
  463MOL0     C62385   4.600   1.788   5.115 -0.1007 -0.2950 -0.5561
  463MOL0     C62386   4.630   1.645   5.160 -0.1411 -1.1039 -0.2366
  463MOL0     N62387   4.772   1.637   5.187 -0.3359  0.2113 -0.0996
  463MOL0     C62388   4.840   1.698   5.284  0.2356 -1.1091 -0.0693
  463MOL0     C62389   4.971   1.697   5.256 -0.0213  0.6677  0.2600
  463MOL0     C62390   5.071   1.767   5.345 -1.0387 -0.3693 -0.3402
  463MOL0     C62391   5.165   1.852   5.259 -0.2024  0.1729  0.5482
  463MOL0     C62392   5.264   1.929   5.336  0.5029 -0.0767  0.4892
  463MOL0     C62393   5.340   2.035   5.248 -0.1437 -0.3078 -0.5834
  463MOL0     O62394   5.401   1.969   5.131 -0.0162 -0.0125 -0.1965
  463MOL0     C62395   5.533   1.976   5.124 -0.4720  0.3926 -0.3670
  463MOL0     C62396   5.617   1.868   5.095 -0.7694 -0.2075  0.0122
  463MOL0     C62397   5.755   1.886   5.080  0.1512 -0.1112 -0.7020
  463MOL0     C62398   5.816   2.014   5.070  0.0124  0.0212 -0.1289
  463MOL0     C62399   5.959   2.039   5.063 -0.5599  0.2663  0.0485
  463MOL0     O62400   6.004   2.167   5.072 -0.2540  0.3390  0.5471
  463MOL0     C62401   6.134   2.203   5.061 -0.7762  0.5306 -0.0241
  463MOL0     C62402   6.147   2.330   5.106  0.0811  0.2579 -0.1000
  463MOL0     C62403   6.266   2.399   5.108 -0.3940 -0.1677  0.5574
  463MOL0     C62404   6.381   2.322   5.075 -0.0938 -0.0545 -0.3845
  463MOL0     O62405   6.504   2.371   5.095  0.0777  0.0870  0.4605
  463MOL0     C62406   6.571   2.395   4.964  0.8543  0.7889 -0.6469
  463MOL0     C62407   6.686   2.508   4.983  1.3475  0.5114 -0.5066
  463MOL0     C62408   6.822   2.448   5.030  0.3004 -0.0667 -0.6190
  463MOL0     C62409   6.929   2.553   5.024 -0.0180 -0.4560 -0.1750
  463MOL0     C62410   7.080   2.499   5.040  0.4113 -0.6115 -0.6093
  463MOL0     C62411   7.132   2.412   4.925  0.1886  0.3082  0.3604
  463MOL0     C62412   7.112   2.475   4.785 -1.0881  0.6339 -0.6502
  463MOL0     C62413   7.212   2.431   4.672  0.1970  0.5856 -0.7230
  463MOL0    Cl62414   7.208   2.559   4.550 -0.0803  0.1812 -0.1401
  463MOL0     C62415   6.371   2.189   5.035  0.8064  0.2824 -0.5550
  463MOL0     C62416   6.248   2.129   5.026 -0.3194 -0.4095  0.3189
  463MOL0     O62417   6.031   1.938   5.067  0.2380  0.0604  0.7264
  463MOL0     C62418   5.728   2.117   5.091 -0.3450 -0.2862  0.2951
  463MOL0     C62419   5.588   2.100   5.104  0.2131  0.3843 -0.8189
  463MOL0     N62420   4.985   1.623   5.142 -0.8734  0.0911 -1.0866
  463MOL0     N62421   4.865   1.586   5.095 -0.3439 -0.0033 -0.5814
  463MOL0     C62422   3.701   1.978   5.319 -0.2732  0.0995  0.2404
  463MOL0     C62423   3.624   2.002   5.432  0.2575 -0.0056  0.1803
  463MOL0     C62424   3.333   2.231   5.676  1.6784 -0.1604  0.0580
  463MOL0     C62425   3.341   2.142   5.787 -0.1303 -0.2245  0.0768
  463MOL0     C62426   3.251   2.149   5.890 -0.1458 -0.0318 -0.2076
  463MOL0     C62427   3.138   2.236   5.890 -0.1482 -1.0569 -0.8916
  463MOL0     O62428   3.058   2.221   6.007  0.7371 -0.0866  0.4512
  463MOL0     C62429   2.913   2.248   5.986 -0.3923 -0.3312  0.1713
  463MOL0     C62430   2.833   2.238   6.120  0.2175 -0.2087 -0.6760
  463MOL0     C62431   2.682   2.258   6.104 -0.0124 -0.0091 -0.0746
  463MOL0     C62432   2.615   2.126   6.051  0.9490 -0.0013  0.4651
  463MOL0     C62433   2.474   2.164   6.048  0.0140  0.5752  0.6426
  463MOL0     C62434   2.365   2.215   6.046  0.0350 -0.0123  0.0538
  463MOL0     C62435   3.129   2.324   5.777  0.0547  0.1685  0.9471
  463MOL0     C62436   3.221   2.324   5.667  0.3551 -0.1319  0.4590
  463MOL0     C62437   3.174   2.405   5.550 -0.0142  0.0864  1.0137
  463MOL0     H62438   3.735   2.311   5.517  0.2616  0.2789 -0.5448
  463MOL0     H62439   3.875   2.285   5.316 -1.3309  0.7226  0.9162
  463MOL0     H62440   3.900   1.834   5.173 -0.6222 -1.4325 -0.8619
  463MOL0     H62441   3.799   1.910   5.049 -2.7822  3.1891  2.1358
  463MOL0     H62442   3.983   2.021   4.943  0.0865  1.4161  0.0263
  463MOL0     H62443   3.997   1.852   4.940 -4.2589  0.5924 -0.1118
  463MOL0     H62444   4.174   1.846   5.122  1.9961 -0.8524 -0.9060
  463MOL0     H62445   4.171   2.024   5.133 -0.4317 -0.5819  0.8772
  463MOL0     H62446   4.253   1.874   4.891  0.3061  0.8373 -2.0121
  463MOL0     H62447   4.254   2.044   4.910 -1.3216 -1.7768 -2.7683
  463MOL0     H62448   4.471   1.996   4.962 -2.0307  2.7326  0.9047
  463MOL0     H62449   4.407   2.015   5.119  2.2520  1.9262 -0.7000
  463MOL0     H62450   4.385   1.769   5.150 -3.2134  0.0237 -1.9991
  463MOL0     H62451   4.442   1.739   4.984  1.1100 -0.5634  0.9694
  463MOL0     H62452   4.623   1.861   5.193  0.0576 -0.3572 -0.5460
  463MOL0     H62453   4.666   1.807   5.030  0.5646  0.1623  0.0573
  463MOL0     H62454   4.569   1.634   5.250  0.7036  1.4757  0.7429
  463MOL0     H62455   4.601   1.575   5.081  1.3203  0.1242 -1.9417
  463MOL0     H62456   4.794   1.766   5.355 -0.7488 -0.7717 -0.9894
  463MOL0     H62457   5.016   1.826   5.419  1.1918  2.6395 -0.8835
  463MOL0     H62458   5.136   1.698   5.399 -1.0148  0.5046  0.7833
  463MOL0     H62459   5.221   1.784   5.194  1.0321  0.8370  0.9069
  463MOL0     H62460   5.109   1.919   5.193  0.5942  0.7522  0.4445
  463MOL0     H62461   5.338   1.856   5.371  1.7488 -0.2222 -2.2227
  463MOL0     H62462   5.220   1.979   5.423  1.0568  1.2381  0.0265
  463MOL0     H62463   5.412   2.075   5.320  1.6938 -0.3382 -2.3123
  463MOL0     H62464   5.269   2.110   5.214  1.4224  0.6821 -1.8066
  463MOL0     H62465   5.570   1.771   5.098 -0.5260 -0.4420 -2.3673
  463MOL0     H62466   5.804   1.792   5.057 -2.1624 -1.1694 -1.6214
  463MOL0     H62467   6.056   2.375   5.144 -1.8336 -2.4383 -1.1507
  463MOL0     H62468   6.285   2.500   5.142  0.8381  0.6796 -2.2992
  463MOL0     H62469   6.611   2.300   4.928  1.4415 -0.1157  2.1155
  463MOL0     H62470   6.503   2.441   4.892 -2.0386 -1.5982  0.3504
  463MOL0     H62471   6.695   2.567   4.891  2.1282 -0.7693 -1.2869
  463MOL0     H62472   6.647   2.582   5.053 -1.7469 -1.5049  0.1181
  463MOL0     H62473   6.805   2.408   5.131  1.8756 -0.4426 -0.4734
  463MOL0     H62474   6.841   2.365   4.962 -0.7912 -0.5128 -0.4051
  463MOL0     H62475   6.901   2.633   5.092 -1.1069  1.4346 -2.6687
  463MOL0     H62476   6.920   2.597   4.924 -0.6188  2.0601  0.9164
  463MOL0     H62477   7.091   2.434   5.128  0.7345  0.5071  0.2098
  463MOL0     H62478   7.138   2.586   5.075 -0.7846  0.0047 -0.0843
  463MOL0     H62479   7.236   2.380   4.938  0.0481  0.3460  1.6321
  463MOL0     H62480   7.066   2.324   4.923  0.1350  0.3209  1.2910
  463MOL0     H62481   7.127   2.582   4.799  0.3249  0.3414  0.2423
  463MOL0     H62482   7.010   2.445   4.758 -0.1141 -1.0934 -2.6917
  463MOL0     H62483   7.312   2.421   4.715  0.4369 -0.8279 -1.5176
  463MOL0     H62484   7.190   2.333   4.627  0.9064  0.6387 -1.2043
  463MOL0     H62485   6.454   2.118   5.027  1.2008  0.3189  2.2562
  463MOL0     H62486   6.240   2.028   4.988 -1.2120  0.1309 -1.0177
  463MOL0     H62487   5.766   2.216   5.067 -1.5884  0.0485 -0.3511
  463MOL0     H62488   5.527   2.190   5.106  2.0450  1.7185  2.0487
  463MOL0     H62489   3.678   1.895   5.252  1.4865  0.8772 -1.4415
  463MOL0     H62490   3.542   1.933   5.452 -1.7045  0.8764 -3.9381
  463MOL0     H62491   3.405   2.055   5.792 -0.7185 -0.7301 -0.8780
  463MOL0     H62492   3.261   2.078   5.971 -3.8836  2.0342  2.4062
  463MOL0     H62493   2.875   2.165   5.926  0.0795 -1.8458  1.8641
  463MOL0     H62494   2.903   2.347   5.941  1.9253  0.4283  1.1837
  463MOL0     H62495   2.862   2.311   6.196  0.8153  0.4413 -1.5005
  463MOL0     H62496   2.859   2.143   6.167  0.5417  0.9528  1.6240
  463MOL0     H62497   2.659   2.340   6.035  0.8847 -1.3291 -2.0610
  463MOL0     H62498   2.643   2.280   6.204 -2.3252 -0.7700 -0.7614
  463MOL0     H62499   2.657   2.095   5.955  0.6222 -3.0947  1.2068
  463MOL0     H62500   2.635   2.033   6.105 -0.2517 -1.0222 -0.7821
  463MOL0     H62501   2.266   2.255   6.057 -0.2912 -0.8315  0.2226
  463MOL0     H62502   3.042   2.389   5.780  1.2665  1.8242  2.1501
  463MOL0     H62503   3.223   2.503   5.546  0.7989 -0.3362 -0.6933
  463MOL0     H62504   3.196   2.352   5.457  1.9926  1.2750  0.7525
  463MOL0     H62505   3.066   2.416   5.563 -0.2768 -0.2345 -0.6365
  464MOL0     O62506   9.846   1.047   6.616  0.2614  0.0315 -0.0427
  464MOL0     C62507   9.778   1.023   6.713  0.4350 -0.0620 -0.5131
  464MOL0     O62508   9.832   1.016   6.845  0.4831  0.2902  0.4947
  464MOL0     C62509   9.968   1.013   6.859 -0.5884 -0.4542  0.0736
  464MOL0     C62510  10.049   0.918   6.797 -0.6121  1.2607  0.2472
  464MOL0     C62511  10.186   0.919   6.808  0.2857 -0.1383 -0.3742
  464MOL0     C62512  10.250   1.034   6.870  0.8249  0.1179  1.3936
  464MOL0     O62513  10.381   1.025   6.888 -0.2352 -0.4404  0.2156
  464MOL0     C62514  10.446   1.100   6.789 -0.3311 -0.4358  0.2888
  464MOL0     C62515  10.596   1.112   6.828  0.0405 -1.0863 -0.3787
  464MOL0     C62516  10.668   1.220   6.744  0.1300  0.9532 -0.4656
  464MOL0     C62517  10.816   1.232   6.775 -1.5127  0.8505 -0.8871
  464MOL0     C62518  10.844   1.336   6.887  1.2538 -0.2997  0.5290
  464MOL0     C62519  10.990   1.348   6.923  0.6310 -0.0484  0.2801
  464MOL0     C62520  11.004   1.469   7.012  0.9215  0.2462 -0.2083
  464MOL0     C62521  11.150   1.496   7.053  0.3055 -0.1462  0.1352
  464MOL0     N62522  11.259   1.431   6.972 -0.6602  0.1505  0.2544
  464MOL0     C62523  11.289   1.476   6.848  0.6625 -0.1291  0.1814
  464MOL0     C62524  11.409   1.434   6.827  0.2066  0.4275  0.1624
  464MOL0     C62525  11.495   1.460   6.706  0.5051  0.2041 -0.2681
  464MOL0     C62526  11.501   1.337   6.607  0.1781 -0.3620 -0.5157
  464MOL0     C62527  11.592   1.360   6.481  0.5126  0.8012 -0.2633
  464MOL0     C62528  11.746   1.364   6.520  0.5494  0.5424 -0.2087
  464MOL0     O62529  11.817   1.366   6.392 -0.4184  0.9191 -0.5412
  464MOL0     C62530  11.946   1.404   6.399  0.3583  0.1479 -0.4932
  464MOL0     C62531  12.043   1.342   6.484 -0.4591 -0.0371  0.5020
  464MOL0     C62532  12.176   1.397   6.483 -0.9619  0.1640 -0.5130
  464MOL0     C62533  12.207   1.506   6.402 -0.1297 -0.0063 -0.4261
  464MOL0     C62534  12.344   1.575   6.413  0.2027  0.0974 -0.0751
  464MOL0     O62535  12.432   1.534   6.506 -0.1832 -0.4020  0.0032
  464MOL0     C62536  12.559   1.578   6.503  0.1041 -0.1605  0.4956
  464MOL0     C62537  12.656   1.493   6.567 -1.2238 -0.2195  1.3123
  464MOL0     C62538  12.791   1.528   6.571 -0.6426  0.1383 -0.1199
  464MOL0     C62539  12.838   1.650   6.516 -0.2212 -0.1913 -1.2061
  464MOL0     O62540  12.966   1.694   6.523 -0.2447  0.3701  0.5128
  464MOL0     C62541  13.071   1.594   6.546  0.3428  0.1772 -0.7639
  464MOL0     C62542  13.216   1.640   6.524 -0.0447  0.2909  0.0464
  464MOL0     C62543  13.308   1.518   6.521 -0.7260  0.8502 -0.2019
  464MOL0     C62544  13.459   1.548   6.509  1.3212  0.7970 -0.3542
  464MOL0     C62545  13.534   1.432   6.443 -0.3950 -0.2657  0.1485
  464MOL0     C62546  13.678   1.464   6.410  0.6412 -0.6387 -0.3442
  464MOL0     C62547  13.694   1.544   6.273 -0.4343  0.1893 -0.0241
  464MOL0     C62548  13.821   1.628   6.274 -0.2842  0.2917  0.2049
  464MOL0    Cl62549  13.848   1.734   6.423 -0.2181 -0.0651 -0.1594
  464MOL0     C62550  12.742   1.741   6.472 -0.3927 -0.2516  0.1613
  464MOL0     C62551  12.604   1.704   6.454 -0.0583 -0.2557 -0.6251
  464MOL0     O62552  12.360   1.661   6.330 -0.4517 -0.2869  0.1827
  464MOL0     C62553  12.112   1.558   6.313  0.4696  0.7681 -0.5572
  464MOL0     C62554  11.980   1.515   6.321  0.0193 -0.1043  0.6219
  464MOL0     N62555  11.451   1.355   6.942  0.5499 -0.5042  0.1842
  464MOL0     N62556  11.352   1.349   7.027  0.4171 -0.9511  0.3981
  464MOL0     C62557  10.170   1.137   6.924  1.2412  0.3442  0.5061
  464MOL0     C62558  10.031   1.124   6.927  0.0577 -0.0472  0.5946
  464MOL0     C62559   9.626   1.007   6.688 -0.4948 -0.1321 -0.7736
  464MOL0     C62560   9.590   0.987   6.553  0.3627  0.2272 -0.5444
  464MOL0     C62561   9.462   0.975   6.514 -0.1630  0.3971  0.4097
  464MOL0     C62562   9.360   1.007   6.607 -0.7209  0.8590  0.0218
  464MOL0     O62563   9.228   1.004   6.591  0.8781  0.3442 -0.6418
  464MOL0     C62564   9.154   1.023   6.466  0.0224 -0.7284 -0.6574
  464MOL0     C62565   9.104   1.169   6.460  0.0864  0.0976  0.3753
  464MOL0     C62566   9.230   1.255   6.439  0.2676  0.2468 -0.1542
  464MOL0     C62567   9.194   1.386   6.366 -0.3613 -1.0394  0.0476
  464MOL0     C62568   9.306   1.443   6.282 -0.0885  0.1289  0.3514
  464MOL0     C62569   9.392   1.483   6.200 -0.0629  1.1920 -0.3559
  464MOL0     C62570   9.393   1.025   6.739 -0.0945  0.2673 -0.3000
  464MOL0     C62571   9.524   1.014   6.785  0.0417  0.6864 -0.3278
  464MOL0     C62572   9.543   1.016   6.936  0.3752  0.0691 -0.0582
  464MOL0     H62573  10.011   0.823   6.760  2.9045 -0.8505  1.5406
  464MOL0     H62574  10.251   0.839   6.774  2.3313  1.3424 -0.1519
  464MOL0     H62575  10.442   1.066   6.685 -1.5691 -2.2338  0.8774
  464MOL0     H62576  10.402   1.200   6.782 -0.8609 -0.7194 -0.6801
  464MOL0     H62577  10.640   1.012   6.824  1.1148 -0.7117  1.2373
  464MOL0     H62578  10.606   1.142   6.932 -0.6750  3.1646 -1.3616
  464MOL0     H62579  10.618   1.314   6.769 -0.7689  0.0061  1.5445
  464MOL0     H62580  10.654   1.187   6.641 -1.0404 -0.3701  0.0807
  464MOL0     H62581  10.857   1.133   6.793  1.7745  2.0784 -0.9245
  464MOL0     H62582  10.867   1.255   6.681  1.4344 -2.9663 -0.4564
  464MOL0     H62583  10.800   1.432   6.857  1.1125 -0.7125 -0.6646
  464MOL0     H62584  10.787   1.300   6.973  0.0971 -0.1163 -0.1430
  464MOL0     H62585  11.024   1.257   6.972  2.3313  0.0987 -0.5545
  464MOL0     H62586  11.036   1.373   6.827  0.1851  2.6682  0.6788
  464MOL0     H62587  10.939   1.446   7.097 -0.4697  0.0637 -1.2862
  464MOL0     H62588  10.957   1.559   6.972 -1.9148 -1.7214 -1.6623
  464MOL0     H62589  11.163   1.605   7.057 -0.5136 -0.0371  0.0019
  464MOL0     H62590  11.166   1.468   7.157 -0.8625 -0.3992  0.2522
  464MOL0     H62591  11.218   1.516   6.776  0.6314 -2.3711 -1.1037
  464MOL0     H62592  11.457   1.547   6.652 -0.0100  0.5733  0.6540
  464MOL0     H62593  11.595   1.479   6.747  0.7617  0.0342 -0.8115
  464MOL0     H62594  11.545   1.254   6.662  2.5686 -0.4989 -2.4915
  464MOL0     H62595  11.398   1.313   6.582 -0.3842  1.4632 -0.1490
  464MOL0     H62596  11.558   1.453   6.435 -0.0869  0.9258  0.4331
  464MOL0     H62597  11.576   1.287   6.401  0.8902  0.7480 -0.2947
  464MOL0     H62598  11.768   1.274   6.578 -0.0371  0.7746  0.3791
  464MOL0     H62599  11.770   1.450   6.583  3.2621  0.1123 -0.4902
  464MOL0     H62600  12.018   1.257   6.548  1.6435 -0.4156  0.8781
  464MOL0     H62601  12.260   1.353   6.536  1.1363  1.9533 -2.1416
  464MOL0     H62602  12.634   1.409   6.632  0.2512 -4.0794 -2.6656
  464MOL0     H62603  12.863   1.464   6.622 -0.1898  0.8124  0.0996
  464MOL0     H62604  13.055   1.569   6.652  0.1810 -0.7934 -1.0075
  464MOL0     H62605  13.056   1.494   6.505 -0.7569 -1.6179  3.3967
  464MOL0     H62606  13.216   1.697   6.430  0.4729 -0.6595 -0.5439
  464MOL0     H62607  13.241   1.702   6.610 -2.8089 -0.2882  1.3815
  464MOL0     H62608  13.299   1.463   6.615  2.8739 -2.1737 -1.3759
  464MOL0     H62609  13.285   1.458   6.433  0.0176  0.7160 -0.3134
  464MOL0     H62610  13.499   1.576   6.607  0.0758 -1.4736  0.8940
  464MOL0     H62611  13.461   1.634   6.442  0.0971  1.8524  0.9172
  464MOL0     H62612  13.481   1.403   6.352  2.7984 -0.8645 -1.6582
  464MOL0     H62613  13.524   1.349   6.513 -0.2894  1.1861  1.9670
  464MOL0     H62614  13.726   1.517   6.493 -3.9966 -1.2334  3.1578
  464MOL0     H62615  13.721   1.364   6.399 -0.9807 -1.2995 -0.9197
  464MOL0     H62616  13.609   1.613   6.267 -0.5588 -0.1036 -2.0614
  464MOL0     H62617  13.687   1.482   6.184  0.2107 -2.0752  1.4147
  464MOL0     H62618  13.906   1.560   6.257 -2.8219 -2.3968 -3.4420
  464MOL0     H62619  13.813   1.696   6.189 -1.0569  0.7221  0.6164
  464MOL0     H62620  12.775   1.835   6.430  1.1580  0.1283  2.0960
  464MOL0     H62621  12.529   1.774   6.421  0.5862  0.1069 -1.3713
  464MOL0     H62622  12.133   1.635   6.240  0.5824  1.6097  0.3520
  464MOL0     H62623  11.901   1.549   6.255  1.6274 -0.2491 -1.4999
  464MOL0     H62624  10.219   1.212   6.986  2.0801 -0.2190  0.5402
  464MOL0     H62625   9.969   1.203   6.970 -1.6286  0.4109 -2.4049
  464MOL0     H62626   9.675   0.990   6.486  1.3769 -1.4625  0.6006
  464MOL0     H62627   9.437   0.958   6.410  0.4699 -0.9737  0.4598
  464MOL0     H62628   9.064   0.961   6.473  0.4958 -1.3222  0.4347
  464MOL0     H62629   9.213   0.991   6.380  1.1566 -1.0547  0.2089
  464MOL0     H62630   9.051   1.189   6.554  1.2761 -4.8178  2.3869
  464MOL0     H62631   9.044   1.168   6.369  1.9830  1.1891 -0.9420
  464MOL0     H62632   9.305   1.196   6.385 -0.1245 -0.5826  0.1769
  464MOL0     H62633   9.272   1.281   6.537 -1.8011 -0.2738  0.9422
  464MOL0     H62634   9.116   1.364   6.293 -2.9019 -1.8053  2.7969
  464MOL0     H62635   9.154   1.456   6.439  1.0540 -0.8101  0.6564
  464MOL0     H62636   9.448   1.519   6.116 -1.6838 -0.0298 -2.0372
  464MOL0     H62637   9.311   1.043   6.809  0.8065 -1.6501  1.3533
  464MOL0     H62638   9.613   1.094   6.969  2.3949 -1.9856  0.8428
  464MOL0     H62639   9.444   1.030   6.979 -0.5828 -2.8463 -1.1241
  464MOL0     H62640   9.589   0.923   6.971  0.6634 -0.0888 -0.8297
  465MOL0     O62641   9.789  10.331   4.066 -0.4476  0.2354 -0.1965
  465MOL0     C62642   9.760  10.384   4.174 -0.2903  0.6097  0.7911
  465MOL0     O62643   9.651  10.459   4.198 -0.3482  0.0747  0.0737
  465MOL0     C62644   9.575  10.490   4.089 -0.1900 -0.8879  0.6290
  465MOL0     C62645   9.588  10.617   4.031 -0.0882  0.3296  0.0473
  465MOL0     C62646   9.506  10.647   3.920 -0.1312 -0.3278  1.0616
  465MOL0     C62647   9.410  10.558   3.872  0.6443  0.8090  0.7527
  465MOL0     O62648   9.323  10.584   3.769 -0.0276 -0.8524  0.2467
  465MOL0     C62649   9.327  10.709   3.705 -0.3136 -0.1669  0.1411
  465MOL0     C62650   9.198  10.727   3.626 -0.5170  0.6407 -0.7764
  465MOL0     C62651   9.187  10.868   3.574  0.0538  1.0822  0.6938
  465MOL0     C62652   9.284  10.896   3.465  0.1253 -0.4005 -0.5466
  465MOL0     C62653   9.301  10.806   3.343  0.2647  0.0422  0.1129
  465MOL0     C62654   9.421  10.861   3.256  0.7409  0.8668 -0.3183
  465MOL0     C62655   9.442  10.796   3.123  0.6123  0.3410  0.2566
  465MOL0     C62656   9.518  10.662   3.143  0.8083  0.6255 -0.1990
  465MOL0     N62657   9.660  10.676   3.169  0.5449  0.2822  0.5228
  465MOL0     C62658   9.728  10.644   3.282  0.0467 -1.0475  0.6362
  465MOL0     C62659   9.851  10.688   3.259 -0.3326  0.1977  0.7909
  465MOL0     C62660   9.962  10.672   3.362 -0.3494 -0.1521  0.3327
  465MOL0     C62661  10.057  10.790   3.348  0.5206  0.3839 -0.9767
  465MOL0     C62662  10.192  10.761   3.408  0.1512  0.2579  0.2486
  465MOL0     C62663  10.186  10.742   3.561  0.4749 -0.0770 -0.6960
  465MOL0     O62664  10.323  10.751   3.616 -0.5908  0.1616  0.5828
  465MOL0     C62665  10.414  10.654   3.586  0.6313  0.2954 -0.0939
  465MOL0     C62666  10.543  10.687   3.558 -0.5624 -0.4874  0.3218
  465MOL0     C62667  10.643  10.589   3.531  0.7922  0.2994 -0.5328
  465MOL0     C62668  10.610  10.457   3.515 -0.1026  0.3907  0.8695
  465MOL0     C62669  10.705  10.347   3.495 -0.5447  1.0623 -0.7692
  465MOL0     O62670  10.836  10.382   3.490  0.5572  0.2727  0.5467
  465MOL0     C62671  10.940  10.304   3.447 -0.4634  0.6590  0.6689
  465MOL0     C62672  10.948  10.162   3.437  0.0757  0.2118  0.4860
  465MOL0     C62673  11.070  10.099   3.415 -0.1562  0.9600 -0.5539
  465MOL0     C62674  11.190  10.176   3.390  0.5758 -0.5615 -0.0725
  465MOL0     O62675  11.304  10.103   3.378  0.7742 -0.6710  0.5121
  465MOL0     C62676  11.311  10.013   3.265  0.4728 -0.4750  0.6188
  465MOL0     C62677  11.434  10.058   3.186  0.2535 -0.2333  0.9527
  465MOL0     C62678  11.524   9.937   3.151  0.0765  0.4119 -0.2744
  465MOL0     C62679  11.649   9.993   3.075  0.3899  0.1854  0.0679
  465MOL0     C62680  11.707   9.876   2.995 -0.3630 -0.0939 -0.8844
  465MOL0     C62681  11.859   9.906   2.953 -0.0362  0.4969  0.0879
  465MOL0     C62682  11.931   9.792   2.889  0.2444 -0.0221 -0.8293
  465MOL0     C62683  11.964   9.667   2.971 -0.8403  0.9711  0.0662
  465MOL0    Cl62684  11.820   9.584   3.030 -0.4414 -0.0902 -0.1469
  465MOL0     C62685  11.179  10.316   3.381  0.3780  0.4241 -0.1216
  465MOL0     C62686  11.055  10.379   3.412 -0.5892 -0.2746  0.3034
  465MOL0     O62687  10.656  10.233   3.476  0.1400  0.3938  0.2104
  465MOL0     C62688  10.473  10.433   3.525  0.0758  0.1749  0.8683
  465MOL0     C62689  10.373  10.519   3.555  0.7212  0.2686  1.0893
  465MOL0     N62690   9.860  10.752   3.135 -0.3845 -0.1216  0.0023
  465MOL0     N62691   9.741  10.740   3.087 -0.0224 -0.0428  0.1422
  465MOL0     C62692   9.386  10.446   3.943 -1.0207  0.9093 -0.2997
  465MOL0     C62693   9.486  10.403   4.041  0.4262  0.0485 -0.1483
  465MOL0     C62694   9.857  10.351   4.287 -0.8418 -0.0887  0.2477
  465MOL0     C62695   9.991  10.376   4.275  0.2589 -0.3849 -0.4258
  465MOL0     C62696  10.076  10.344   4.382 -0.7320  1.5241 -0.9781
  465MOL0     C62697  10.039  10.300   4.505  0.4197 -0.8115  0.2475
  465MOL0     O62698  10.133  10.288   4.606  0.1333  0.1113 -0.7221
  465MOL0     C62699  10.103  10.206   4.720 -0.2472  0.6403 -0.3960
  465MOL0     C62700  10.232  10.201   4.808 -0.3051  0.1225  0.5953
  465MOL0     C62701  10.356  10.159   4.724  0.2287  0.6012 -0.0135
  465MOL0     C62702  10.486  10.202   4.796  0.2137 -0.1773 -0.5132
  465MOL0     C62703  10.587  10.108   4.756  1.1490  0.6771  0.2983
  465MOL0     C62704  10.678  10.034   4.730  0.2547  0.0635 -0.5365
  465MOL0     C62705   9.895  10.268   4.514  0.1315 -0.0290 -0.2358
  465MOL0     C62706   9.808  10.296   4.409 -0.0224  0.2701  0.5836
  465MOL0     C62707   9.656  10.279   4.438  0.2195  0.1272 -0.1904
  465MOL0     H62708   9.664  10.685   4.067 -0.9102 -1.2656  5.8372
  465MOL0     H62709   9.521  10.739   3.865 -5.5032  0.1811 -0.1183
  465MOL0     H62710   9.328  10.792   3.776 -2.1329  0.3400 -0.3618
  465MOL0     H62711   9.414  10.712   3.640 -1.8645 -3.4985 -2.4161
  465MOL0     H62712   9.116  10.704   3.695 -1.1397  1.1607 -1.3212
  465MOL0     H62713   9.190  10.651   3.548 -1.3608 -3.6221  3.0815
  465MOL0     H62714   9.203  10.942   3.653  2.4484  2.5115 -1.0139
  465MOL0     H62715   9.083  10.879   3.540 -0.6960  0.7353  2.7079
  465MOL0     H62716   9.266  11.002   3.442  1.5045  1.1776  4.4415
  465MOL0     H62717   9.379  10.895   3.520  0.5661  2.1907 -1.1398
  465MOL0     H62718   9.314  10.700   3.367 -1.5042 -1.1509 -3.3818
  465MOL0     H62719   9.204  10.809   3.293  0.3087 -1.6237 -0.1529
  465MOL0     H62720   9.401  10.967   3.242  0.3938  0.9288  0.5933
  465MOL0     H62721   9.515  10.845   3.310 -0.8930  2.1532  3.2290
  465MOL0     H62722   9.508  10.858   3.061  0.9498 -0.2719 -0.0016
  465MOL0     H62723   9.346  10.780   3.074  0.9337 -2.5674  0.4128
  465MOL0     H62724   9.475  10.599   3.222 -0.2811 -0.7855 -1.8518
  465MOL0     H62725   9.502  10.603   3.052 -2.7626 -3.2119  2.5077
  465MOL0     H62726   9.702  10.581   3.367 -0.8011 -4.7396 -2.1309
  465MOL0     H62727   9.935  10.656   3.466 -1.6527 -2.5203 -0.2832
  465MOL0     H62728  10.014  10.581   3.329 -1.4108 -1.0819  1.1327
  465MOL0     H62729  10.078  10.807   3.242 -1.5955 -1.2697 -1.7218
  465MOL0     H62730  10.013  10.881   3.389 -1.6089 -0.7447 -0.6404
  465MOL0     H62731  10.264  10.839   3.384  2.2341 -2.3390 -2.8976
  465MOL0     H62732  10.234  10.669   3.366 -2.8979 -2.0757  1.8913
  465MOL0     H62733  10.129  10.654   3.589 -2.6401  0.2688 -4.8780
  465MOL0     H62734  10.129  10.826   3.601  0.1605 -1.1494  1.1952
  465MOL0     H62735  10.566  10.790   3.580 -2.9498  0.3619 -0.8225
  465MOL0     H62736  10.745  10.625   3.529  1.2536 -0.9373 -0.0414
  465MOL0     H62737  10.860  10.100   3.447 -0.0922 -0.0327 -2.0235
  465MOL0     H62738  11.088   9.992   3.415  3.7527  1.4725 -0.9115
  465MOL0     H62739  11.326   9.909   3.299  0.4868 -0.5210  0.4719
  465MOL0     H62740  11.223  10.010   3.202  1.6597  0.0744 -1.1360
  465MOL0     H62741  11.393  10.106   3.097 -3.5447 -2.1298  1.4706
  465MOL0     H62742  11.487  10.136   3.241 -0.4129  0.3794  0.7407
  465MOL0     H62743  11.556   9.892   3.245 -1.4440  2.6870  1.4549
  465MOL0     H62744  11.466   9.871   3.086 -0.3384  0.2128  0.2889
  465MOL0     H62745  11.721  10.039   3.144 -1.9238  1.6185  1.6519
  465MOL0     H62746  11.615  10.064   2.999  0.3408  1.8698  1.6036
  465MOL0     H62747  11.643   9.857   2.909 -0.7909  0.9889 -0.8172
  465MOL0     H62748  11.708   9.787   3.058  2.7286 -0.9787 -1.9856
  465MOL0     H62749  11.847   9.984   2.877  2.0969 -0.2066 -1.0302
  465MOL0     H62750  11.928   9.942   3.029  1.5221 -1.1608 -0.4801
  465MOL0     H62751  12.029   9.833   2.860  0.9914 -1.2556 -0.1641
  465MOL0     H62752  11.882   9.771   2.794 -2.0726  0.9454  0.0863
  465MOL0     H62753  12.026   9.591   2.924 -0.2977  2.3061 -1.4877
  465MOL0     H62754  12.018   9.704   3.059  0.9010  1.0239 -0.9727
  465MOL0     H62755  11.267  10.374   3.355 -0.7350  1.7759 -1.0015
  465MOL0     H62756  11.050  10.488   3.415  0.6662 -0.1758 -0.2876
  465MOL0     H62757  10.446  10.330   3.503 -1.2879  0.8846 -1.0521
  465MOL0     H62758  10.269  10.490   3.545  1.4276 -1.5648 -2.4853
  465MOL0     H62759   9.303  10.388   3.904 -0.7434  0.2263  0.1006
  465MOL0     H62760   9.482  10.306   4.089  3.3935 -0.3620 -0.5419
  465MOL0     H62761  10.032  10.415   4.182  2.1201 -2.0204 -0.3455
  465MOL0     H62762  10.181  10.366   4.369  0.0141 -0.6519  0.6689
  465MOL0     H62763  10.079  10.105   4.686  1.9977  0.1292 -0.6259
  465MOL0     H62764  10.019  10.246   4.777  0.4077 -0.9847  1.8548
  465MOL0     H62765  10.222  10.137   4.897 -0.5574  0.9779  1.1999
  465MOL0     H62766  10.239  10.301   4.851  1.3669  0.0611  0.5187
  465MOL0     H62767  10.356  10.202   4.624 -1.0272  0.7730  0.0464
  465MOL0     H62768  10.352  10.051   4.706 -3.2272  0.7366 -0.7622
  465MOL0     H62769  10.518  10.305   4.779 -0.4252  0.3557  1.3276
  465MOL0     H62770  10.464  10.180   4.901  1.0972 -1.2858 -0.5415
  465MOL0     H62771  10.765   9.987   4.689  0.7861  1.3966 -0.9984
  465MOL0     H62772   9.851  10.235   4.608 -3.1316  0.6330 -1.3902
  465MOL0     H62773   9.624  10.185   4.393  0.4690 -1.2291  2.3041
  465MOL0     H62774   9.630  10.269   4.543 -1.5314 -1.1812 -0.7089
  465MOL0     H62775   9.606  10.368   4.397 -0.1384 -0.2081 -0.4876
  466MOL0     O62776   0.991   7.777   0.391  0.1545 -0.0881  0.1526
  466MOL0     C62777   0.958   7.678   0.332 -0.2070 -0.8765  0.2164
  466MOL0     O62778   1.034   7.564   0.325 -1.0045 -0.0309 -0.4355
  466MOL0     C62779   1.163   7.567   0.354 -0.0188 -0.0071 -0.1561
  466MOL0     C62780   1.212   7.597   0.484 -0.9707 -0.4214 -0.1768
  466MOL0     C62781   1.351   7.622   0.506  0.7109 -0.2802 -0.4838
  466MOL0     C62782   1.441   7.617   0.395 -0.1985  1.1088 -0.2146
  466MOL0     O62783   1.574   7.639   0.425  0.4960  0.4575  0.1799
  466MOL0     C62784   1.669   7.564   0.347 -0.4325  0.1667 -0.0369
  466MOL0     C62785   1.808   7.573   0.418  0.3559 -0.0189  0.2583
  466MOL0     C62786   1.920   7.505   0.333 -0.3851 -1.3901 -0.4579
  466MOL0     C62787   1.918   7.359   0.340 -0.5753  0.5708 -0.6841
  466MOL0     C62788   2.018   7.287   0.248 -1.2762 -0.7618 -0.1511
  466MOL0     C62789   2.160   7.344   0.250 -0.8102  0.5839 -0.6898
  466MOL0     C62790   2.252   7.273   0.152  1.2957  0.2329  0.3322
  466MOL0     C62791   2.214   7.317   0.006 -0.0427  0.4098  0.1008
  466MOL0     N62792   2.302   7.272  -0.104 -0.2490 -0.4093  0.3895
  466MOL0     C62793   2.371   7.360  -0.186  0.0289  0.0856 -0.5171
  466MOL0     C62794   2.449   7.287  -0.269 -0.2263 -0.2601 -0.1564
  466MOL0     C62795   2.553   7.337  -0.366  0.9384 -0.3996  0.1378
  466MOL0     C62796   2.702   7.312  -0.323  0.7294  1.1755 -0.0395
  466MOL0     C62797   2.793   7.358  -0.431 -0.3735 -0.0985  0.2242
  466MOL0     C62798   2.933   7.305  -0.423  0.8862  0.3233  1.0784
  466MOL0     O62799   2.999   7.361  -0.306  0.0452 -0.4761 -0.2471
  466MOL0     C62800   3.130   7.345  -0.292  0.4755  0.0603 -0.9169
  466MOL0     C62801   3.194   7.403  -0.185 -0.4588 -0.7091 -0.2639
  466MOL0     C62802   3.337   7.390  -0.165  0.0160  0.0497 -0.1106
  466MOL0     C62803   3.417   7.307  -0.242  0.3908  0.2297 -0.3404
  466MOL0     C62804   3.561   7.285  -0.209  0.2935  0.7395  0.2488
  466MOL0     O62805   3.602   7.335  -0.091 -0.4730 -0.6626  0.6504
  466MOL0     C62806   3.740   7.346  -0.075 -0.4421 -0.1637  0.7463
  466MOL0     C62807   3.812   7.436  -0.154  0.4275  0.5797  0.2442
  466MOL0     C62808   3.951   7.439  -0.133  0.0696  0.0664  0.5331
  466MOL0     C62809   4.029   7.338  -0.061  0.5223  0.3069 -1.0968
  466MOL0     O62810   4.157   7.345  -0.047 -0.8299  0.7589 -0.3288
  466MOL0     C62811   4.226   7.232   0.010  0.2811 -0.5466 -0.1322
  466MOL0     C62812   4.376   7.226  -0.028  0.3646 -0.0746 -0.1407
  466MOL0     C62813   4.449   7.342   0.033  0.5664 -0.0815  0.7188
  466MOL0     C62814   4.586   7.347  -0.037 -0.0148  0.0790 -0.4077
  466MOL0     C62815   4.682   7.452   0.026  0.0223 -0.0062  0.3978
  466MOL0     C62816   4.630   7.594   0.041 -0.0995  0.5889 -0.7124
  466MOL0     C62817   4.675   7.670   0.171  0.4154 -0.9625 -0.1812
  466MOL0     C62818   4.720   7.814   0.133 -0.5349  0.5922  0.5117
  466MOL0    Cl62819   4.836   7.812  -0.003 -0.2089 -0.8026  0.2305
  466MOL0     C62820   3.944   7.256   0.018 -0.0065 -0.3990  0.6595
  466MOL0     C62821   3.806   7.260   0.006  0.3878  0.5083 -0.8651
  466MOL0     O62822   3.633   7.229  -0.290  0.7580  0.5761  0.4218
  466MOL0     C62823   3.352   7.252  -0.353  0.0492 -0.2189  0.0316
  466MOL0     C62824   3.211   7.271  -0.378  0.0464  0.2105  0.0633
  466MOL0     N62825   2.422   7.155  -0.239 -0.3018  0.3563 -0.2370
  466MOL0     N62826   2.334   7.147  -0.145 -0.4669 -0.4855 -0.2371
  466MOL0     C62827   1.402   7.575   0.269 -0.0068 -0.0964  1.3082
  466MOL0     C62828   1.261   7.558   0.248 -0.2096  0.4906  0.0207
  466MOL0     C62829   0.824   7.665   0.266  0.0220  0.3706 -0.2313
  466MOL0     C62830   0.779   7.538   0.235  0.4680 -0.5944  0.5412
  466MOL0     C62831   0.654   7.526   0.177 -0.2257 -0.0571 -0.5211
  466MOL0     C62832   0.568   7.634   0.152 -0.4521 -0.5074 -0.0328
  466MOL0     O62833   0.458   7.604   0.084 -0.4186 -0.1641 -0.3650
  466MOL0     C62834   0.343   7.694   0.083 -0.4222 -0.0557 -0.5822
  466MOL0     C62835   0.313   7.763   0.222  0.4323  0.7619 -0.3362
  466MOL0     C62836   0.166   7.814   0.221  0.4104 -0.0489 -0.2817
  466MOL0     C62837   0.139   7.920   0.339  0.8234 -0.1151  0.3652
  466MOL0     C62838   0.231   8.033   0.338  0.6850 -0.3055  0.1401
  466MOL0     C62839   0.320   8.114   0.354 -0.2454 -0.6570  1.2587
  466MOL0     C62840   0.625   7.761   0.167 -0.2338 -0.8106  0.0192
  466MOL0     C62841   0.747   7.778   0.224  0.4218 -0.9689 -0.3467
  466MOL0     C62842   0.780   7.928   0.244 -0.2207  0.7128  0.1518
  466MOL0     H62843   1.148   7.622   0.568 -1.4045  2.2507 -1.2135
  466MOL0     H62844   1.392   7.639   0.605  2.7057 -1.7612 -0.9801
  466MOL0     H62845   1.655   7.456   0.349  1.9221 -0.1671  1.0578
  466MOL0     H62846   1.675   7.604   0.245  1.8767 -0.7719 -0.3079
  466MOL0     H62847   1.799   7.526   0.517  1.4055 -0.3081  0.2291
  466MOL0     H62848   1.830   7.680   0.428  0.0362 -0.0290  1.2065
  466MOL0     H62849   2.014   7.539   0.378 -1.5108 -1.6978  2.3407
  466MOL0     H62850   1.916   7.548   0.233  0.1041  0.8204  0.3943
  466MOL0     H62851   1.930   7.325   0.443 -1.3556  1.0768 -0.4146
  466MOL0     H62852   1.817   7.326   0.312 -2.3775  3.7534  1.4348
  466MOL0     H62853   2.022   7.181   0.275 -3.0829 -0.7752  0.1653
  466MOL0     H62854   1.982   7.289   0.145  0.1899  0.4890 -0.6683
  466MOL0     H62855   2.168   7.451   0.228  0.2179  0.8441  0.7811
  466MOL0     H62856   2.198   7.316   0.348 -1.8504  0.3853 -0.3243
  466MOL0     H62857   2.234   7.168   0.179 -1.4824  0.4153 -0.4780
  466MOL0     H62858   2.352   7.308   0.177  0.1684  1.8530  3.0206
  466MOL0     H62859   2.113   7.289  -0.028 -0.0023 -0.1113  0.3992
  466MOL0     H62860   2.218   7.426   0.011  0.2304  0.4114 -0.1343
  466MOL0     H62861   2.356   7.468  -0.187 -0.7672 -0.0033  0.0707
  466MOL0     H62862   2.530   7.294  -0.464 -2.1770  0.6995  0.2827
  466MOL0     H62863   2.537   7.445  -0.377 -3.1057 -1.0702 -2.8733
  466MOL0     H62864   2.721   7.356  -0.224  0.5685  1.2515 -0.0420
  466MOL0     H62865   2.715   7.205  -0.307 -2.2759  0.5627 -1.0690
  466MOL0     H62866   2.804   7.467  -0.427 -2.2089  0.0918  2.3426
  466MOL0     H62867   2.747   7.338  -0.528 -0.7954  1.4252  0.0862
  466MOL0     H62868   2.983   7.342  -0.513 -0.3761  0.3554  0.3803
  466MOL0     H62869   2.926   7.197  -0.407 -2.9403  0.4081  0.6761
  466MOL0     H62870   3.126   7.462  -0.124 -2.2851 -0.2058 -2.6547
  466MOL0     H62871   3.387   7.441  -0.084  5.0500  2.7658 -4.2940
  466MOL0     H62872   3.759   7.502  -0.221  0.3348  0.0495 -0.2132
  466MOL0     H62873   4.012   7.513  -0.185 -1.3218  0.7781 -0.1362
  466MOL0     H62874   4.215   7.227   0.119 -1.0137  0.1891 -0.2018
  466MOL0     H62875   4.174   7.142  -0.023  0.1363 -1.3175  2.0504
  466MOL0     H62876   4.424   7.131  -0.006  0.2272  0.3682  2.3178
  466MOL0     H62877   4.378   7.241  -0.137  2.4725 -0.2875 -0.1770
  466MOL0     H62878   4.393   7.436   0.030  1.5036  0.5729 -3.9454
  466MOL0     H62879   4.458   7.311   0.138 -2.9330 -0.1964  1.1123
  466MOL0     H62880   4.568   7.376  -0.141 -1.6626  0.2422 -0.0983
  466MOL0     H62881   4.639   7.252  -0.035 -0.8565 -0.4160 -1.0280
  466MOL0     H62882   4.773   7.448  -0.035  2.6706 -2.8895  4.0559
  466MOL0     H62883   4.721   7.419   0.123  1.7896  0.8091  0.0055
  466MOL0     H62884   4.654   7.647  -0.052  3.2924 -1.7431 -1.3841
  466MOL0     H62885   4.521   7.597   0.044 -0.1093  1.8853 -1.5491
  466MOL0     H62886   4.768   7.621   0.201 -0.0387 -1.2895  0.7411
  466MOL0     H62887   4.604   7.646   0.251 -0.7593  2.1018 -0.1424
  466MOL0     H62888   4.628   7.868   0.106 -0.8074 -0.3472 -0.4973
  466MOL0     H62889   4.756   7.843   0.232  0.3291  0.5213  0.2220
  466MOL0     H62890   3.977   7.188   0.095  0.5214 -1.8380 -0.7716
  466MOL0     H62891   3.741   7.190   0.058  0.5560  1.1583  0.2517
  466MOL0     H62892   3.411   7.198  -0.427 -0.4052 -3.0745  1.5915
  466MOL0     H62893   3.169   7.229  -0.468  0.0072 -3.5111  1.6476
  466MOL0     H62894   1.465   7.555   0.183  0.7193  0.8227  1.6108
  466MOL0     H62895   1.231   7.535   0.146  1.8601 -1.9730 -0.1198
  466MOL0     H62896   0.830   7.444   0.255  1.0468 -0.2644  0.6078
  466MOL0     H62897   0.627   7.422   0.162  0.6093 -0.3496 -0.0550
  466MOL0     H62898   0.255   7.633   0.064  0.9657 -1.8833 -1.3825
  466MOL0     H62899   0.348   7.775   0.009 -2.4443  1.5248  0.8866
  466MOL0     H62900   0.390   7.833   0.255 -0.6905 -0.2486  5.3972
  466MOL0     H62901   0.315   7.687   0.300  0.4867  1.7205  0.6131
  466MOL0     H62902   0.101   7.726   0.219  0.1401  0.0862 -3.8123
  466MOL0     H62903   0.166   7.875   0.130  5.3013 -0.6267 -0.9222
  466MOL0     H62904   0.035   7.953   0.328  1.4819  2.6087  1.5631
  466MOL0     H62905   0.154   7.866   0.433  0.3338  1.0677  1.1532
  466MOL0     H62906   0.392   8.190   0.374 -2.2464  2.1672 -1.3822
  466MOL0     H62907   0.567   7.847   0.134  0.7988  0.8209  2.1986
  466MOL0     H62908   0.734   7.993   0.169  0.4418  0.5945 -0.3639
  466MOL0     H62909   0.741   7.959   0.341  0.7005  0.6854  0.5383
  466MOL0     H62910   0.885   7.951   0.222  0.7098 -0.6249  2.7278
  467MOL0     O62911   6.667   9.716   0.797 -0.5705 -0.1629 -0.6262
  467MOL0     C62912   6.554   9.681   0.821 -0.6761 -0.3777  0.3529
  467MOL0     O62913   6.507   9.619   0.932  0.0005  0.1509  0.4438
  467MOL0     C62914   6.586   9.581   1.041  0.0708  0.7987  0.4482
  467MOL0     C62915   6.724   9.578   1.058 -0.2577 -0.1017  0.0278
  467MOL0     C62916   6.794   9.541   1.170 -0.0144  1.5033 -0.1433
  467MOL0     C62917   6.717   9.473   1.266  0.1339  0.6927  0.1103
  467MOL0     O62918   6.769   9.411   1.377 -0.5315  0.1567 -0.4009
  467MOL0     C62919   6.913   9.365   1.386  0.7003 -0.1670  0.1477
  467MOL0     C62920   6.996   9.463   1.464  0.1065  0.0082  0.0508
  467MOL0     C62921   7.145   9.413   1.475  0.1090  0.2461  0.4255
  467MOL0     C62922   7.233   9.496   1.558 -0.7848  0.2642  0.3941
  467MOL0     C62923   7.361   9.414   1.592  0.8391  1.0131 -0.3480
  467MOL0     C62924   7.467   9.492   1.669 -0.0443  0.5347 -0.0905
  467MOL0     C62925   7.442   9.476   1.822  0.1062 -0.0214  0.3400
  467MOL0     C62926   7.562   9.534   1.906 -0.2870 -0.9144  0.2067
  467MOL0     N62927   7.700   9.518   1.862  0.1772  0.5938  0.2258
  467MOL0     C62928   7.774   9.584   1.766  0.4543  0.2617 -0.0847
  467MOL0     C62929   7.893   9.529   1.785 -0.3869 -0.1171  0.3150
  467MOL0     C62930   8.022   9.575   1.723 -0.4372 -0.1688  0.5948
  467MOL0     C62931   8.136   9.480   1.738 -0.3277  0.0302 -0.3450
  467MOL0     C62932   8.201   9.488   1.878 -1.0169 -0.3530  0.1199
  467MOL0     C62933   8.326   9.396   1.888  0.4288 -0.4665  0.0409
  467MOL0     O62934   8.403   9.412   1.772 -0.4404  0.4926  0.0964
  467MOL0     C62935   8.524   9.345   1.765  0.7682  0.5111 -0.1900
  467MOL0     C62936   8.579   9.271   1.874  0.2422  0.6871 -0.4642
  467MOL0     C62937   8.707   9.217   1.860  0.0434  0.1163  0.0661
  467MOL0     C62938   8.792   9.229   1.750 -0.9264 -0.7395 -0.1655
  467MOL0     C62939   8.935   9.191   1.752  0.6508 -0.6205  0.1972
  467MOL0     O62940   9.001   9.198   1.631  0.2068  0.3166  0.5946
  467MOL0     C62941   9.129   9.141   1.628 -0.2777  1.2637 -0.2977
  467MOL0     C62942   9.228   9.207   1.561  0.3332 -0.5211 -0.3953
  467MOL0     C62943   9.367   9.166   1.565  0.8308 -0.4037 -1.0689
  467MOL0     C62944   9.401   9.049   1.634  0.1015  0.5613 -0.3857
  467MOL0     O62945   9.528   9.001   1.632  0.1646 -0.0534  0.6334
  467MOL0     C62946   9.624   9.067   1.714 -0.3725  0.7212  0.3756
  467MOL0     C62947   9.709   9.159   1.625 -0.9032 -0.2948 -0.5513
  467MOL0     C62948   9.852   9.182   1.679  0.1635  0.7265  0.3919
  467MOL0     C62949   9.956   9.246   1.583  0.1487 -0.5483  0.7324
  467MOL0     C62950  10.074   9.306   1.658  1.0493  0.4131  0.2707
  467MOL0     C62951  10.193   9.314   1.561  0.3706 -0.4478  0.9421
  467MOL0     C62952  10.323   9.338   1.638  0.5593 -0.3634  0.5818
  467MOL0     C62953  10.433   9.364   1.536  0.2498 -0.5053  0.4716
  467MOL0    Cl62954  10.412   9.529   1.489 -0.4187 -0.2072  0.0884
  467MOL0     C62955   9.301   8.971   1.689  0.5932  0.9729  0.9400
  467MOL0     C62956   9.160   9.015   1.694 -0.4994 -0.3336  0.0969
  467MOL0     O62957   8.982   9.157   1.858  0.4318  0.1205  0.3650
  467MOL0     C62958   8.736   9.315   1.648  0.1160  0.5914 -0.7888
  467MOL0     C62959   8.601   9.364   1.651 -0.2409 -0.1309 -0.4358
  467MOL0     N62960   7.893   9.441   1.900  0.5436  0.5756  0.8808
  467MOL0     N62961   7.773   9.434   1.940 -0.2775 -0.5791 -0.3570
  467MOL0     C62962   6.579   9.463   1.258  0.5428 -0.0397  0.0847
  467MOL0     C62963   6.512   9.517   1.148  0.2009 -0.2523  0.7878
  467MOL0     C62964   6.440   9.703   0.717  0.0140  0.0463  0.3064
  467MOL0     C62965   6.304   9.658   0.746 -0.5423 -0.2584 -0.8946
  467MOL0     C62966   6.196   9.663   0.657 -0.9322 -0.7403 -1.1194
  467MOL0     C62967   6.225   9.728   0.529  0.0650 -0.3306 -0.7385
  467MOL0     O62968   6.144   9.758   0.426 -0.6768 -0.0264  0.2063
  467MOL0     C62969   6.010   9.699   0.432 -0.0186 -0.7887 -0.2976
  467MOL0     C62970   5.928   9.720   0.310  0.3427 -0.1180 -0.3737
  467MOL0     C62971   5.876   9.861   0.323 -0.2553  0.3460  0.0902
  467MOL0     C62972   5.820   9.911   0.193 -0.3550  0.4826 -0.5943
  467MOL0     C62973   5.680   9.873   0.175 -0.0188  0.0264  0.6681
  467MOL0     C62974   5.568   9.828   0.154 -0.2873 -0.2899  0.2577
  467MOL0     C62975   6.355   9.770   0.498 -0.4634  0.9762  0.7763
  467MOL0     C62976   6.454   9.766   0.594  0.6295  0.2524  0.6641
  467MOL0     C62977   6.578   9.832   0.544  0.7719 -0.1108  0.0369
  467MOL0     H62978   6.781   9.606   0.970  0.7784 -1.5389  0.2161
  467MOL0     H62979   6.902   9.550   1.175 -0.0045  1.8142 -0.9219
  467MOL0     H62980   6.901   9.267   1.434 -0.3736 -0.0751  0.1029
  467MOL0     H62981   6.941   9.351   1.281  2.0242 -1.1676  0.6077
  467MOL0     H62982   6.963   9.472   1.568  1.0693 -0.4334  0.4057
  467MOL0     H62983   6.977   9.554   1.407  0.9145 -0.9843 -1.8780
  467MOL0     H62984   7.179   9.411   1.371 -0.2185  0.4171  0.3130
  467MOL0     H62985   7.142   9.309   1.508  0.9384  0.0751  0.0112
  467MOL0     H62986   7.259   9.587   1.503 -0.8852  1.0533  1.6306
  467MOL0     H62987   7.180   9.539   1.643  0.0911  0.6120  0.7819
  467MOL0     H62988   7.322   9.328   1.647 -1.1362  0.7243 -2.0980
  467MOL0     H62989   7.399   9.389   1.493 -2.0063  1.8315 -1.7419
  467MOL0     H62990   7.561   9.441   1.646  0.1116  0.8406 -0.1448
  467MOL0     H62991   7.467   9.594   1.629 -3.6627  0.3070 -0.9674
  467MOL0     H62992   7.426   9.373   1.856 -1.1674  0.0038 -0.1284
  467MOL0     H62993   7.353   9.535   1.842 -0.1694  1.1365 -3.4204
  467MOL0     H62994   7.537   9.640   1.922 -1.5604 -1.1695  0.0395
  467MOL0     H62995   7.550   9.486   2.003 -2.1202  1.3555  1.2084
  467MOL0     H62996   7.736   9.654   1.692  1.4112  0.4734 -0.3904
  467MOL0     H62997   8.004   9.578   1.615 -2.9929  2.6137  0.9575
  467MOL0     H62998   8.040   9.678   1.754 -2.7891 -0.2822  2.6897
  467MOL0     H62999   8.106   9.375   1.733 -2.0142  0.4355  0.4096
  467MOL0     H63000   8.207   9.513   1.662 -0.4475  1.0873 -0.0072
  467MOL0     H63001   8.129   9.463   1.956 -0.1243  0.1845  1.1396
  467MOL0     H63002   8.238   9.590   1.894 -2.2589  0.2816 -0.8011
  467MOL0     H63003   8.283   9.296   1.891 -1.3926  0.2841  2.2944
  467MOL0     H63004   8.386   9.423   1.976  1.4800  1.7531 -1.2676
  467MOL0     H63005   8.517   9.250   1.961 -1.9041  0.3433 -1.9819
  467MOL0     H63006   8.753   9.178   1.950  1.2905 -0.3554 -0.7463
  467MOL0     H63007   9.176   9.290   1.513  3.5880  2.2555  0.5125
  467MOL0     H63008   9.431   9.230   1.504 -0.5279  2.5351  0.3509
  467MOL0     H63009   9.575   9.125   1.793 -0.5728  0.2430  0.6023
  467MOL0     H63010   9.693   8.997   1.762 -0.5858  0.6852  0.6282
  467MOL0     H63011   9.709   9.110   1.527 -1.9178 -1.3751 -0.0325
  467MOL0     H63012   9.654   9.253   1.618  1.5795  1.2162 -1.2321
  467MOL0     H63013   9.844   9.243   1.769  1.0540  0.0700  0.9319
  467MOL0     H63014   9.895   9.085   1.706 -0.7978 -0.2333 -1.3223
  467MOL0     H63015   9.909   9.326   1.525 -1.3985 -1.3048  0.8751
  467MOL0     H63016   9.994   9.167   1.517  1.0150 -1.0820  1.8381
  467MOL0     H63017  10.100   9.244   1.745 -1.4818 -2.2842 -0.6991
  467MOL0     H63018  10.059   9.406   1.699 -1.6981  0.0708  0.2518
  467MOL0     H63019  10.207   9.232   1.490  0.8177  2.0118 -2.0156
  467MOL0     H63020  10.172   9.395   1.490  0.0763 -2.2610 -1.1335
  467MOL0     H63021  10.340   9.249   1.700 -0.2493  1.1562  3.1133
  467MOL0     H63022  10.309   9.426   1.700  0.8230 -1.2112  1.8850
  467MOL0     H63023  10.529   9.357   1.586 -0.8986 -2.5476  2.6107
  467MOL0     H63024  10.420   9.302   1.447 -3.3364 -1.6228  1.5974
  467MOL0     H63025   9.334   8.882   1.741  0.8562  1.1466  1.0718
  467MOL0     H63026   9.086   8.969   1.759 -1.0893 -1.0554 -1.0697
  467MOL0     H63027   8.803   9.343   1.567  2.1714  2.0822  1.3080
  467MOL0     H63028   8.555   9.413   1.566  0.1883  2.0292  0.5118
  467MOL0     H63029   6.530   9.400   1.331 -1.1869  1.7281  0.5346
  467MOL0     H63030   6.407   9.493   1.133 -0.0290  0.1189  1.7657
  467MOL0     H63031   6.281   9.622   0.846  2.1028  3.6682  1.4408
  467MOL0     H63032   6.105   9.624   0.701 -0.3508  0.6935  1.5743
  467MOL0     H63033   5.947   9.736   0.514 -1.7696 -2.2145 -0.9116
  467MOL0     H63034   6.025   9.592   0.451 -4.4227 -1.1975  2.2026
  467MOL0     H63035   5.849   9.645   0.321  0.9307 -0.6804  0.0301
  467MOL0     H63036   5.985   9.687   0.223  0.6835 -3.7623  1.0758
  467MOL0     H63037   5.963   9.921   0.351  0.2995 -0.9775  1.3290
  467MOL0     H63038   5.801   9.881   0.400 -0.4737  0.4235 -0.1395
  467MOL0     H63039   5.828  10.020   0.198 -0.7255  0.4631  1.7723
  467MOL0     H63040   5.888   9.887   0.112  1.4613  3.1621 -0.0090
  467MOL0     H63041   5.470   9.787   0.142 -0.3835  0.2245 -0.8067
  467MOL0     H63042   6.377   9.805   0.397 -0.7330 -2.1562 -0.4651
  467MOL0     H63043   6.548   9.914   0.478  1.4171  0.1197  0.0232
  467MOL0     H63044   6.632   9.879   0.626  0.4805  1.8577 -0.8574
  467MOL0     H63045   6.652   9.770   0.492  0.1846  0.1898 -1.1952
  468MOL0     O63046   8.112   3.179   3.205 -0.0073  0.7851 -0.5454
  468MOL0     C63047   8.064   3.071   3.171 -0.0342  0.4582  0.4400
  468MOL0     O63048   7.940   3.027   3.193  0.3776 -0.0887 -0.0800
  468MOL0     C63049   7.842   3.111   3.229  0.4004  0.1996 -0.0266
  468MOL0     C63050   7.848   3.193   3.343 -0.0360  0.4381 -0.3198
  468MOL0     C63051   7.739   3.282   3.367  0.3248  0.3108  0.5057
  468MOL0     C63052   7.624   3.285   3.287  0.5659  0.5208  0.5102
  468MOL0     O63053   7.516   3.370   3.325  0.0239  0.1953 -0.3442
  468MOL0     C63054   7.410   3.375   3.229 -0.0332  0.4401 -0.6747
  468MOL0     C63055   7.317   3.458   3.315 -0.0762  0.4570  1.0798
  468MOL0     C63056   7.189   3.507   3.238  0.4974  0.6898  0.6393
  468MOL0     C63057   7.070   3.411   3.256 -0.1727 -0.0656 -0.2122
  468MOL0     C63058   6.953   3.444   3.174  0.4149  0.7210  0.5614
  468MOL0     C63059   6.856   3.317   3.173  0.2418 -0.2285  0.1769
  468MOL0     C63060   6.726   3.347   3.096 -0.1731 -0.6256 -0.1490
  468MOL0     C63061   6.631   3.444   3.174 -0.9722  0.5599 -0.0131
  468MOL0     N63062   6.512   3.459   3.091 -0.0977  0.5297  0.4838
  468MOL0     C63063   6.385   3.414   3.121 -1.2334 -0.0741  0.6052
  468MOL0     C63064   6.310   3.486   3.037 -0.5187  0.3709 -0.1170
  468MOL0     C63065   6.161   3.501   2.997 -0.7735  0.3085 -0.1202
  468MOL0     C63066   6.105   3.377   2.903  0.2173 -0.6739 -0.5421
  468MOL0     C63067   6.116   3.399   2.754 -0.3305 -0.2239  1.3455
  468MOL0     C63068   6.260   3.376   2.698  0.7918  0.2338  0.2195
  468MOL0     O63069   6.312   3.250   2.747 -0.4031  0.1723 -0.2809
  468MOL0     C63070   6.448   3.245   2.751 -0.2544 -0.9416 -0.6054
  468MOL0     C63071   6.543   3.330   2.679 -0.1331  0.9930 -0.5239
  468MOL0     C63072   6.677   3.298   2.676  0.9820  0.3476 -0.5844
  468MOL0     C63073   6.733   3.195   2.754  0.5349  0.4482  0.1911
  468MOL0     C63074   6.876   3.163   2.754  0.3427 -0.0237  0.0627
  468MOL0     O63075   6.919   3.061   2.835  0.4449 -0.1371  0.4282
  468MOL0     C63076   7.055   3.041   2.851  0.2894 -0.5169 -0.8310
  468MOL0     C63077   7.139   3.033   2.742 -0.3135 -0.9144  0.0685
  468MOL0     C63078   7.273   3.006   2.752 -0.0384  0.3395 -1.0330
  468MOL0     C63079   7.324   2.979   2.883  0.4218 -0.0676  0.2116
  468MOL0     O63080   7.452   2.941   2.912 -0.2804 -1.0072 -0.2301
  468MOL0     C63081   7.513   2.860   2.815  0.1778 -0.8850 -0.3129
  468MOL0     C63082   7.618   2.755   2.872  1.4611  0.7951 -0.8026
  468MOL0     C63083   7.703   2.713   2.748 -0.3281  0.2657  0.1631
  468MOL0     C63084   7.801   2.595   2.775 -0.0309 -0.6430 -0.3995
  468MOL0     C63085   7.900   2.583   2.659 -0.3998 -0.3715  0.2709
  468MOL0     C63086   7.981   2.709   2.632 -0.8122 -0.1361 -0.6362
  468MOL0     C63087   8.100   2.676   2.538  1.0984  0.0584  0.6159
  468MOL0     C63088   8.173   2.809   2.523 -0.4348 -0.4889  0.7249
  468MOL0    Cl63089   8.053   2.919   2.426  0.2650 -0.1032 -0.6075
  468MOL0     C63090   7.234   3.002   2.986 -0.0640  0.2656 -0.0374
  468MOL0     C63091   7.106   3.027   2.975 -0.8625 -0.2647  0.2663
  468MOL0     O63092   6.945   3.230   2.674 -0.1452 -0.4542 -0.1142
  468MOL0     C63093   6.643   3.111   2.826  0.3583  0.1437  0.7726
  468MOL0     C63094   6.502   3.140   2.827  0.2802  0.3243 -0.3559
  468MOL0     N63095   6.392   3.571   2.971  1.1207  0.8267  0.2136
  468MOL0     N63096   6.511   3.549   2.995  0.4861  0.1003  0.6040
  468MOL0     C63097   7.617   3.185   3.184 -0.2168  0.0166 -1.1533
  468MOL0     C63098   7.722   3.101   3.158  0.6345 -0.1537  0.9769
  468MOL0     C63099   8.154   2.979   3.088 -0.1990 -0.0346  0.2467
  468MOL0     C63100   8.277   3.035   3.044 -0.0029  0.2317  0.7083
  468MOL0     C63101   8.367   2.955   2.977 -0.1355  0.0636 -0.6902
  468MOL0     C63102   8.337   2.824   2.938 -0.1953  0.9343 -0.1400
  468MOL0     O63103   8.436   2.758   2.856  0.6118  0.1082 -0.5809
  468MOL0     C63104   8.401   2.637   2.791 -0.4070  0.4431  0.2714
  468MOL0     C63105   8.523   2.582   2.709  0.1690  0.3618 -0.2028
  468MOL0     C63106   8.648   2.585   2.789 -0.1408  0.5410  0.7927
  468MOL0     C63107   8.741   2.462   2.749  0.0346  0.4098  0.4305
  468MOL0     C63108   8.877   2.479   2.783  0.0498  0.7875  0.2309
  468MOL0     C63109   8.990   2.490   2.825  0.6239  0.5306  0.0933
  468MOL0     C63110   8.215   2.772   2.967 -0.7384  0.3771 -1.9152
  468MOL0     C63111   8.121   2.846   3.048 -0.0688  0.0835  0.3300
  468MOL0     C63112   7.998   2.777   3.091  0.4286 -0.3588  0.6765
  468MOL0     H63113   7.938   3.194   3.404  0.3442 -1.6476 -0.7874
  468MOL0     H63114   7.752   3.346   3.454  1.1260  0.1118  0.5408
  468MOL0     H63115   7.436   3.430   3.138  0.3960  0.4057 -0.5741
  468MOL0     H63116   7.371   3.273   3.228  1.1700 -0.2112  3.2581
  468MOL0     H63117   7.366   3.553   3.336 -1.9039  2.4059 -2.4333
  468MOL0     H63118   7.290   3.400   3.403 -1.9822 -2.0491 -1.0033
  468MOL0     H63119   7.216   3.524   3.134 -1.0473  2.9672  0.5346
  468MOL0     H63120   7.174   3.606   3.281  3.0758  1.8054 -0.8412
  468MOL0     H63121   7.106   3.311   3.228  0.9284  0.2942 -0.1351
  468MOL0     H63122   7.039   3.401   3.361 -0.9554  0.3712 -0.3963
  468MOL0     H63123   6.905   3.525   3.231 -1.3406 -2.5533  4.1982
  468MOL0     H63124   6.974   3.469   3.070  0.5748 -1.2532  0.0826
  468MOL0     H63125   6.900   3.223   3.138  0.8321  0.8286 -2.1027
  468MOL0     H63126   6.812   3.312   3.273  1.3363  3.2146  0.9874
  468MOL0     H63127   6.670   3.254   3.086  1.5315 -1.7423  0.3097
  468MOL0     H63128   6.755   3.390   3.000 -1.2357 -2.1880 -1.2077
  468MOL0     H63129   6.612   3.407   3.276  2.4900 -1.6838 -0.0347
  468MOL0     H63130   6.686   3.538   3.175 -0.9206  0.5294  0.0233
  468MOL0     H63131   6.359   3.335   3.191 -0.1655  0.3277  1.4847
  468MOL0     H63132   6.098   3.510   3.085 -0.5349  0.5651  0.0257
  468MOL0     H63133   6.157   3.593   2.938 -0.4958 -0.4147 -1.2988
  468MOL0     H63134   6.134   3.276   2.933 -1.6327 -1.3758 -0.9485
  468MOL0     H63135   5.996   3.375   2.915  0.3604 -0.6214  0.9856
  468MOL0     H63136   6.083   3.501   2.733 -1.0703 -0.3107  1.9979
  468MOL0     H63137   6.060   3.324   2.698  0.9502 -1.3428  1.5101
  468MOL0     H63138   6.320   3.458   2.740 -2.8150  2.7730  0.8691
  468MOL0     H63139   6.261   3.394   2.590  3.9389  1.7190  0.3783
  468MOL0     H63140   6.503   3.399   2.605 -1.4459  1.4917  0.6136
  468MOL0     H63141   6.745   3.358   2.617  0.6718 -0.3727 -1.7229
  468MOL0     H63142   7.106   3.037   2.639  0.6552 -0.5688 -0.2361
  468MOL0     H63143   7.341   3.009   2.667 -1.0697  1.0005 -1.8680
  468MOL0     H63144   7.439   2.806   2.755 -2.5614  0.6230  1.4592
  468MOL0     H63145   7.569   2.928   2.751 -0.7451 -0.0533 -0.2601
  468MOL0     H63146   7.677   2.806   2.949  3.1286 -0.0683 -1.4515
  468MOL0     H63147   7.555   2.677   2.915  0.3056  3.0518  1.9329
  468MOL0     H63148   7.633   2.681   2.670  0.9178 -0.2600 -0.7795
  468MOL0     H63149   7.755   2.802   2.711 -2.2142  1.2889 -0.1684
  468MOL0     H63150   7.746   2.502   2.791 -1.4133  0.7501  4.2839
  468MOL0     H63151   7.862   2.609   2.864  2.1687 -0.6396 -1.8294
  468MOL0     H63152   7.849   2.557   2.565 -2.7542 -0.2779  1.4461
  468MOL0     H63153   7.967   2.500   2.684 -1.8230 -1.0092  2.2336
  468MOL0     H63154   7.916   2.779   2.580 -0.8062 -1.8831 -3.2088
  468MOL0     H63155   8.031   2.738   2.725  2.1570 -0.4071 -2.0245
  468MOL0     H63156   8.058   2.638   2.445 -0.9840  3.7237 -0.1357
  468MOL0     H63157   8.170   2.603   2.579  0.5593  0.1540  1.7607
  468MOL0     H63158   8.203   2.856   2.618 -0.3952 -1.8474  1.4165
  468MOL0     H63159   8.265   2.801   2.466  0.3153 -0.8892  1.9451
  468MOL0     H63160   7.256   2.994   3.093 -3.6956  0.5055  0.8463
  468MOL0     H63161   7.039   3.050   3.057 -0.0559  0.4195  0.7457
  468MOL0     H63162   6.667   3.024   2.886 -1.1318 -0.3151  0.7575
  468MOL0     H63163   6.437   3.068   2.877  1.7105 -1.7137 -1.3017
  468MOL0     H63164   7.535   3.166   3.115  0.0810 -2.3409 -0.9410
  468MOL0     H63165   7.720   3.036   3.071 -0.0048  0.4050  0.5645
  468MOL0     H63166   8.308   3.133   3.079 -0.5770  0.6716  0.0170
  468MOL0     H63167   8.461   3.004   2.952  0.1544 -0.0218  0.2036
  468MOL0     H63168   8.316   2.645   2.723  1.3005  0.8186 -1.9129
  468MOL0     H63169   8.378   2.572   2.876 -1.3147 -1.2416 -1.1962
  468MOL0     H63170   8.525   2.659   2.631 -1.4026  0.2375 -0.4044
  468MOL0     H63171   8.504   2.482   2.667  1.6921  1.0251 -2.6918
  468MOL0     H63172   8.627   2.585   2.896 -1.3499 -1.1416  0.5933
  468MOL0     H63173   8.701   2.680   2.779 -2.3610  1.6544 -1.4731
  468MOL0     H63174   8.712   2.370   2.801  0.0502  1.0925  1.6880
  468MOL0     H63175   8.737   2.451   2.641  2.1397  5.8830 -0.5305
  468MOL0     H63176   9.092   2.501   2.856  1.0761  0.2444 -1.1949
  468MOL0     H63177   8.199   2.668   2.940 -1.9508  0.5187 -1.7988
  468MOL0     H63178   7.909   2.821   3.047  0.5956 -2.2339 -1.7777
  468MOL0     H63179   8.003   2.672   3.059 -0.0731 -0.1968  0.0604
  468MOL0     H63180   7.994   2.772   3.200  0.7982 -1.6262  0.6546
  469MOL0     O63181   2.617   4.980   4.495 -0.6407  0.6653 -0.3104
  469MOL0     C63182   2.570   4.864   4.501 -0.1159 -0.7330 -0.0454
  469MOL0     O63183   2.632   4.749   4.469 -0.6732 -0.0820 -0.0492
  469MOL0     C63184   2.765   4.759   4.451  0.1295  0.1368 -0.4300
  469MOL0     C63185   2.845   4.793   4.561  0.2097  0.0534 -0.5536
  469MOL0     C63186   2.987   4.793   4.535 -0.1114 -0.4036  0.0984
  469MOL0     C63187   3.037   4.774   4.405  0.6134  0.3748 -0.1744
  469MOL0     O63188   3.160   4.799   4.368 -0.2628  0.2001  0.1814
  469MOL0     C63189   3.204   4.938   4.373  0.1431 -0.3832 -1.0723
  469MOL0     C63190   3.316   4.931   4.474 -0.2135  0.0043 -0.0849
  469MOL0     C63191   3.390   5.062   4.474  0.6179 -1.1951  0.0494
  469MOL0     C63192   3.443   5.114   4.337  0.1586  0.9892 -0.5787
  469MOL0     C63193   3.530   5.240   4.364 -1.3082  0.3589  0.4003
  469MOL0     C63194   3.672   5.196   4.393  0.2768  0.7818 -0.0425
  469MOL0     C63195   3.767   5.306   4.367  0.3537  0.3156  0.1028
  469MOL0     C63196   3.737   5.428   4.463  0.5026  0.2800 -0.5572
  469MOL0     N63197   3.845   5.529   4.450 -0.3203 -0.0695  0.2982
  469MOL0     C63198   3.929   5.553   4.549  0.0654 -0.5678 -0.2698
  469MOL0     C63199   4.006   5.655   4.496  0.2284  0.4611 -1.1396
  469MOL0     C63200   4.122   5.727   4.563  0.3107 -1.1021 -0.4879
  469MOL0     C63201   4.238   5.742   4.476 -0.1704  0.4732  0.5721
  469MOL0     C63202   4.324   5.620   4.478 -0.2395 -0.2974 -0.5306
  469MOL0     C63203   4.451   5.635   4.398 -0.0123 -0.2017 -0.0581
  469MOL0     O63204   4.534   5.735   4.465 -0.1865 -0.0077 -0.2532
  469MOL0     C63205   4.646   5.785   4.397 -0.0293 -0.5447  0.4702
  469MOL0     C63206   4.688   5.752   4.267  1.0830  0.2184  0.0379
  469MOL0     C63207   4.807   5.801   4.215 -0.4005 -0.0244 -0.1358
  469MOL0     C63208   4.890   5.895   4.285 -0.0896 -0.4481 -0.2602
  469MOL0     C63209   5.027   5.936   4.237 -0.4022  0.1131  0.2641
  469MOL0     O63210   5.079   5.863   4.131  0.7255 -0.3048 -0.4456
  469MOL0     C63211   5.200   5.894   4.085  0.0617 -0.4616  0.4680
  469MOL0     C63212   5.214   5.919   3.949  0.4389  0.0421  0.2247
  469MOL0     C63213   5.331   5.954   3.896  0.5227 -0.7114 -0.3262
  469MOL0     C63214   5.450   5.953   3.972  0.4033  0.3319  0.4355
  469MOL0     O63215   5.567   5.996   3.925  0.1620 -0.7053  0.0019
  469MOL0     C63216   5.606   5.990   3.789  0.0381  0.8452  0.1423
  469MOL0     C63217   5.761   6.004   3.781 -0.4804  0.6357 -0.2137
  469MOL0     C63218   5.832   5.882   3.830  0.0620 -0.4019 -0.0229
  469MOL0     C63219   5.985   5.906   3.842  1.0164  0.3760 -0.1157
  469MOL0     C63220   6.049   5.775   3.899 -0.0997 -1.3289  0.4391
  469MOL0     C63221   6.195   5.796   3.917  0.5017  0.1585 -0.5399
  469MOL0     C63222   6.260   5.799   3.777  0.1278 -0.4796  0.0649
  469MOL0     C63223   6.407   5.828   3.780 -0.2998  0.9068 -0.3972
  469MOL0    Cl63224   6.440   5.927   3.634  0.0896  0.2976  0.0444
  469MOL0     C63225   5.441   5.922   4.103 -0.2664  0.1453 -0.3290
  469MOL0     C63226   5.317   5.889   4.162 -0.4145 -0.7962  0.2237
  469MOL0     O63227   5.093   6.019   4.298  0.3606  0.1788  0.1916
  469MOL0     C63228   4.853   5.922   4.416  0.6851 -0.5173 -0.1328
  469MOL0     C63229   4.737   5.870   4.465 -0.4823  1.1236  0.1047
  469MOL0     N63230   3.949   5.686   4.376  0.6352 -0.0088 -0.4267
  469MOL0     N63231   3.848   5.611   4.344  0.3052 -0.1776  0.0720
  469MOL0     C63232   2.961   4.716   4.309  0.7703  0.0650 -0.1911
  469MOL0     C63233   2.822   4.718   4.328  0.2328 -0.1643 -0.0836
  469MOL0     C63234   2.434   4.859   4.550  0.6892 -0.1365  0.4540
  469MOL0     C63235   2.344   4.774   4.484 -0.5052  1.4386 -0.8464
  469MOL0     C63236   2.212   4.769   4.525  0.6496 -0.2030  0.0874
  469MOL0     C63237   2.169   4.854   4.630 -0.4137 -1.0187  1.2099
  469MOL0     O63238   2.036   4.846   4.653  0.1192  0.1891 -0.4139
  469MOL0     C63239   1.989   4.869   4.789  0.3746  0.0040 -0.0218
  469MOL0     C63240   1.843   4.819   4.811  0.3349 -1.1308  0.2652
  469MOL0     C63241   1.749   4.893   4.712  0.2401  0.6934  0.2819
  469MOL0     C63242   1.601   4.898   4.739 -0.3715 -0.1295 -0.5478
  469MOL0     C63243   1.570   4.957   4.880 -0.8537  0.3386  0.3382
  469MOL0     C63244   1.548   5.002   4.993  0.6023  0.8298  0.7338
  469MOL0     C63245   2.266   4.932   4.703 -0.2907  0.8664 -0.8765
  469MOL0     C63246   2.395   4.935   4.659 -0.2235 -0.2129  0.8545
  469MOL0     C63247   2.493   5.027   4.738 -0.8008 -0.3515  0.4140
  469MOL0     H63248   2.809   4.815   4.661  0.3659  0.5992 -0.6141
  469MOL0     H63249   3.059   4.831   4.607  0.2800  0.3523 -0.6741
  469MOL0     H63250   3.237   4.968   4.273 -1.3455  0.9012 -1.2211
  469MOL0     H63251   3.119   4.994   4.412  0.4443 -1.4431  1.2874
  469MOL0     H63252   3.386   4.852   4.444 -0.5266 -1.8139  3.4279
  469MOL0     H63253   3.283   4.910   4.576  1.1100  0.6748  0.4991
  469MOL0     H63254   3.462   5.067   4.557  0.0795  1.7634  0.4718
  469MOL0     H63255   3.321   5.140   4.510  2.0270  0.5276 -0.8207
  469MOL0     H63256   3.497   5.025   4.302 -2.6901 -0.3643 -1.8213
  469MOL0     H63257   3.370   5.137   4.260  0.7054 -0.3879 -1.5593
  469MOL0     H63258   3.531   5.298   4.271 -1.9198 -1.3096 -0.7041
  469MOL0     H63259   3.481   5.306   4.436 -1.4180  1.3127 -0.5345
  469MOL0     H63260   3.678   5.164   4.497 -4.7712  2.1397  0.9326
  469MOL0     H63261   3.704   5.116   4.326 -0.6394 -0.5410  1.0610
  469MOL0     H63262   3.757   5.345   4.265 -0.4823  2.2290  0.8785
  469MOL0     H63263   3.871   5.276   4.387  0.3176  0.5657  0.6889
  469MOL0     H63264   3.644   5.472   4.427  0.2966  0.9608  0.7592
  469MOL0     H63265   3.721   5.395   4.566  0.7266 -0.0145 -0.6135
  469MOL0     H63266   3.922   5.514   4.650  0.2369  2.1903  0.9053
  469MOL0     H63267   4.083   5.828   4.582 -1.5046 -0.8856 -4.3742
  469MOL0     H63268   4.146   5.681   4.660  0.1142 -0.0569  0.0738
  469MOL0     H63269   4.202   5.762   4.374  1.2033 -1.9889 -0.4910
  469MOL0     H63270   4.296   5.829   4.508 -1.2180  0.7412  1.8297
  469MOL0     H63271   4.261   5.545   4.431 -1.3864 -0.0187  0.4896
  469MOL0     H63272   4.351   5.591   4.581  1.5682 -0.3464 -0.9779
  469MOL0     H63273   4.430   5.662   4.294  2.3732 -0.3844 -0.6623
  469MOL0     H63274   4.510   5.542   4.397 -2.5715 -1.9558  1.2468
  469MOL0     H63275   4.635   5.686   4.198 -3.0436  1.1726  1.9548
  469MOL0     H63276   4.839   5.770   4.117  0.9586  0.5170  0.1107
  469MOL0     H63277   5.125   5.923   3.888 -1.7203 -1.7180  3.0173
  469MOL0     H63278   5.347   5.969   3.790 -1.2996 -1.1422 -0.6969
  469MOL0     H63279   5.573   5.894   3.746  0.1365  1.0312 -0.3560
  469MOL0     H63280   5.567   6.077   3.736  0.9823  1.4396  0.4138
  469MOL0     H63281   5.781   6.016   3.674  1.1670  0.0417  0.0038
  469MOL0     H63282   5.801   6.084   3.844  0.5698 -1.1107  1.4413
  469MOL0     H63283   5.787   5.847   3.923 -2.1787 -3.1122 -1.9351
  469MOL0     H63284   5.820   5.800   3.758 -1.7360 -0.3892  0.2232
  469MOL0     H63285   6.004   5.982   3.919 -0.3511  1.1015 -0.4637
  469MOL0     H63286   6.017   5.948   3.747  2.3188  0.6912  0.4385
  469MOL0     H63287   6.036   5.689   3.834  2.3120 -1.0827 -0.4744
  469MOL0     H63288   6.004   5.755   3.996 -5.8000 -0.0302 -1.5393
  469MOL0     H63289   6.232   5.879   3.979 -1.3887 -0.3014  1.3302
  469MOL0     H63290   6.236   5.712   3.974  1.8668 -0.1689 -1.9464
  469MOL0     H63291   6.218   5.887   3.726  2.3922  0.9720  0.5400
  469MOL0     H63292   6.239   5.706   3.725  2.0095 -0.9274  0.0253
  469MOL0     H63293   6.440   5.894   3.861 -1.0576  1.3593 -0.4521
  469MOL0     H63294   6.453   5.729   3.779  0.8292  1.3773 -2.4389
  469MOL0     H63295   5.532   5.941   4.159 -0.7648  1.5537  0.0656
  469MOL0     H63296   5.316   5.866   4.268 -1.9722 -1.5758  0.0712
  469MOL0     H63297   4.911   5.997   4.470 -2.2024  0.5413  1.7524
  469MOL0     H63298   4.718   5.896   4.569 -0.4393  2.7967 -0.2894
  469MOL0     H63299   3.001   4.691   4.211 -0.1318 -0.5344 -0.4164
  469MOL0     H63300   2.763   4.675   4.248 -1.5291 -1.6728  1.9147
  469MOL0     H63301   2.369   4.725   4.391  0.3440 -0.9487  0.5523
  469MOL0     H63302   2.141   4.706   4.472 -0.9255  2.9459 -1.8299
  469MOL0     H63303   1.988   4.977   4.810 -2.8531  0.0819 -0.0444
  469MOL0     H63304   2.055   4.820   4.861 -1.2452 -2.3696 -0.0540
  469MOL0     H63305   1.817   4.834   4.916  0.2339  0.6721  0.0096
  469MOL0     H63306   1.831   4.718   4.770 -1.0984 -1.5701  1.6824
  469MOL0     H63307   1.763   4.845   4.615 -0.4201  0.2577  0.3992
  469MOL0     H63308   1.782   4.995   4.691  0.2569  0.6486  0.0888
  469MOL0     H63309   1.555   4.958   4.660 -0.1612 -0.3108 -0.8108
  469MOL0     H63310   1.544   4.806   4.750 -0.3416 -0.0052  0.7728
  469MOL0     H63311   1.540   5.030   5.096 -1.8976 -0.9166  1.1053
  469MOL0     H63312   2.235   4.985   4.792 -0.7627 -2.0530  0.8466
  469MOL0     H63313   2.597   4.995   4.725 -0.2934  1.2769  0.2120
  469MOL0     H63314   2.482   5.129   4.701  0.8291  0.1213  1.1709
  469MOL0     H63315   2.459   5.021   4.841  2.5824  0.0802  1.6676
  470MOL0     O63316   1.498  11.258   4.434  0.9855  0.1236 -0.0975
  470MOL0     C63317   1.396  11.323   4.403 -0.8260 -0.2314 -0.3155
  470MOL0     O63318   1.357  11.443   4.458 -0.0513 -0.2403  0.0394
  470MOL0     C63319   1.453  11.507   4.525  0.0817 -0.8277  0.1762
  470MOL0     C63320   1.544  11.581   4.447  1.3013  0.3368  0.2295
  470MOL0     C63321   1.624  11.678   4.504 -0.0504  0.6637  0.2374
  470MOL0     C63322   1.635  11.678   4.644 -0.1171 -0.3175  0.4762
  470MOL0     O63323   1.731  11.763   4.685 -0.1529  0.6774  0.5719
  470MOL0     C63324   1.716  11.793   4.828 -0.3194 -0.3436 -0.1228
  470MOL0     C63325   1.791  11.923   4.844 -0.1357 -0.8168 -0.3461
  470MOL0     C63326   1.941  11.926   4.821 -0.2869  0.7214  0.3276
  470MOL0     C63327   1.990  12.071   4.836 -0.6783  0.3671  0.1712
  470MOL0     C63328   2.145  12.086   4.861  0.7094  0.2051 -0.7808
  470MOL0     C63329   2.220  12.088   4.726  0.6839  0.3325  0.1085
  470MOL0     C63330   2.358  12.139   4.755 -0.5622 -0.4492 -0.1425
  470MOL0     C63331   2.453  12.039   4.816  1.0001 -0.4955 -0.6815
  470MOL0     N63332   2.598  12.082   4.814  0.0396  0.3848  0.4498
  470MOL0     C63333   2.682  12.101   4.703  0.4774  0.2114  0.6485
  470MOL0     C63334   2.800  12.145   4.747  0.1175 -0.5967  0.0208
  470MOL0     C63335   2.916  12.196   4.665 -0.8811  0.1527  1.4507
  470MOL0     C63336   3.054  12.128   4.700  0.3514  0.0371  0.3012
  470MOL0     C63337   3.170  12.215   4.636 -0.0314 -0.2835  0.1760
  470MOL0     C63338   3.308  12.138   4.647  0.3210 -0.2139 -0.3707
  470MOL0     O63339   3.406  12.240   4.629  0.0787  0.1977  0.4008
  470MOL0     C63340   3.530  12.206   4.581  1.0762 -0.3571 -0.4072
  470MOL0     C63341   3.573  12.078   4.555  0.0066 -0.2066 -0.3201
  470MOL0     C63342   3.698  12.048   4.516  0.1030 -0.4528  0.1008
  470MOL0     C63343   3.792  12.144   4.495 -0.6475 -0.2154 -0.6717
  470MOL0     C63344   3.945  12.116   4.477  0.4692  0.1885 -0.5094
  470MOL0     O63345   4.010  12.224   4.433 -0.4439  0.3216 -0.5010
  470MOL0     C63346   4.145  12.214   4.410 -0.0440 -0.0809 -0.0963
  470MOL0     C63347   4.192  12.115   4.330 -0.4753 -0.5151  1.1736
  470MOL0     C63348   4.329  12.103   4.317 -0.3715 -0.9666  0.3380
  470MOL0     C63349   4.421  12.203   4.358 -0.0086  0.0944 -0.2865
  470MOL0     O63350   4.553  12.207   4.320  0.1657 -0.5193 -0.4312
  470MOL0     C63351   4.603  12.091   4.250  0.9480 -0.5365  0.3562
  470MOL0     C63352   4.748  12.124   4.225  0.4776  0.6787  0.4680
  470MOL0     C63353   4.846  12.109   4.347  0.3036 -0.4410 -0.6132
  470MOL0     C63354   4.986  12.134   4.299 -0.5048 -0.5996 -1.3378
  470MOL0     C63355   5.089  12.122   4.411 -0.0509 -0.1264 -0.0133
  470MOL0     C63356   5.234  12.139   4.353  0.2858 -0.8181  0.2146
  470MOL0     C63357   5.330  12.096   4.458  0.1465  0.8093 -0.2311
  470MOL0     C63358   5.344  12.190   4.577 -0.1373 -0.6139  0.0136
  470MOL0    Cl63359   5.489  12.109   4.666  0.6036  0.1710  0.0415
  470MOL0     C63360   4.365  12.310   4.422  1.1078  0.0852  0.0416
  470MOL0     C63361   4.228  12.313   4.459  0.0455  0.7237 -0.1402
  470MOL0     O63362   3.981  12.002   4.485  0.0525 -0.8750 -0.3756
  470MOL0     C63363   3.748  12.281   4.511 -0.9458 -0.6374 -0.7568
  470MOL0     C63364   3.622  12.306   4.557 -0.4737 -0.4489 -0.5191
  470MOL0     N63365   2.796  12.144   4.890 -0.2523  0.0889 -0.7458
  470MOL0     N63366   2.684  12.103   4.929 -0.3108 -0.2195  0.5427
  470MOL0     C63367   1.552  11.600   4.720  0.2661  0.5492  0.2241
  470MOL0     C63368   1.451  11.520   4.660  0.0836  0.1963 -0.6362
  470MOL0     C63369   1.307  11.279   4.290  0.3376  0.8046 -0.2296
  470MOL0     C63370   1.214  11.367   4.242 -0.1481 -0.6402  0.4307
  470MOL0     C63371   1.137  11.338   4.125 -0.6069  0.2294  0.0776
  470MOL0     C63372   1.148  11.209   4.058 -0.3636 -0.4593  0.5249
  470MOL0     O63373   1.085  11.166   3.948 -0.0223 -0.4310  0.1104
  470MOL0     C63374   0.967  11.237   3.901 -0.4542  0.1570  0.5314
  470MOL0     C63375   0.997  11.340   3.789 -0.5429  0.5299 -0.1326
  470MOL0     C63376   0.867  11.392   3.723  1.0010 -0.0220 -0.1812
  470MOL0     C63377   0.802  11.289   3.631 -0.6994 -0.5326  0.7619
  470MOL0     C63378   0.713  11.346   3.529 -0.3520 -0.6933 -0.0084
  470MOL0     C63379   0.644  11.408   3.458 -0.3028 -0.2771  0.3625
  470MOL0     C63380   1.245  11.120   4.104 -0.2818 -0.2970 -1.2793
  470MOL0     C63381   1.326  11.154   4.214 -0.4519  0.2089 -0.6545
  470MOL0     C63382   1.428  11.053   4.233  0.7972 -0.1664 -0.0286
  470MOL0     H63383   1.547  11.577   4.339 -0.4638 -0.6575  0.1689
  470MOL0     H63384   1.696  11.733   4.444  1.6029 -1.1283  0.4786
  470MOL0     H63385   1.614  11.828   4.847 -0.1132  1.1097 -1.5867
  470MOL0     H63386   1.750  11.709   4.891  0.3102 -0.3198 -0.4224
  470MOL0     H63387   1.787  11.950   4.950  1.5025  1.9678 -0.8898
  470MOL0     H63388   1.737  12.002   4.791 -1.4241 -1.9160 -0.7250
  470MOL0     H63389   1.972  11.894   4.721  0.5167  3.0341 -0.2107
  470MOL0     H63390   1.989  11.865   4.898  2.0439  1.3863 -0.5179
  470MOL0     H63391   1.964  12.123   4.743  2.1966  0.5529 -0.6075
  470MOL0     H63392   1.941  12.119   4.921  1.6042  0.7731  1.3296
  470MOL0     H63393   2.163  12.187   4.899  3.0001 -0.4110 -0.0499
  470MOL0     H63394   2.178  12.005   4.926 -1.0293 -0.2453 -0.3944
  470MOL0     H63395   2.226  11.985   4.690  1.3469 -0.7469  3.0332
  470MOL0     H63396   2.172  12.154   4.653 -1.5516 -1.2638  0.0370
  470MOL0     H63397   2.362  12.230   4.816  0.7130  0.2377 -1.1875
  470MOL0     H63398   2.401  12.170   4.659  1.6036  0.3813  1.0218
  470MOL0     H63399   2.422  12.031   4.921  1.0135  0.2829 -0.6094
  470MOL0     H63400   2.451  11.944   4.763  0.9966 -0.2339 -1.1479
  470MOL0     H63401   2.666  12.080   4.598  0.9908  1.4191  0.3193
  470MOL0     H63402   2.899  12.181   4.558  1.2339  2.8302  0.6216
  470MOL0     H63403   2.936  12.302   4.679  1.1221 -0.1670  1.3380
  470MOL0     H63404   3.075  12.087   4.800  2.7150 -2.8941 -1.2567
  470MOL0     H63405   3.046  12.040   4.636  0.5626  0.0154  0.3041
  470MOL0     H63406   3.166  12.312   4.688  0.6239 -0.7890  1.2009
  470MOL0     H63407   3.155  12.226   4.528  1.0525  0.4401  0.0890
  470MOL0     H63408   3.312  12.062   4.568  0.6584 -1.9676  1.2599
  470MOL0     H63409   3.331  12.087   4.741  1.5903  1.9631  0.5763
  470MOL0     H63410   3.505  11.997   4.583  2.0306 -1.8204  0.1918
  470MOL0     H63411   3.732  11.945   4.525 -1.9149 -1.2481 -0.9378
  470MOL0     H63412   4.132  12.035   4.288  0.1322 -1.9545  2.9260
  470MOL0     H63413   4.358  12.012   4.266 -2.2816 -0.5317 -1.7114
  470MOL0     H63414   4.591  12.000   4.310 -6.2456 -0.3128  0.0983
  470MOL0     H63415   4.546  12.078   4.158 -0.8667 -0.1222  1.3715
  470MOL0     H63416   4.768  12.056   4.142  1.9298  1.2294  0.3440
  470MOL0     H63417   4.744  12.226   4.186 -3.6680  0.2654 -0.7555
  470MOL0     H63418   4.827  12.185   4.423  2.0799  1.8015 -2.2793
  470MOL0     H63419   4.833  12.011   4.394 -0.0592  0.1109  0.4771
  470MOL0     H63420   4.992  12.229   4.247  1.6500 -0.8755 -1.6850
  470MOL0     H63421   5.010  12.057   4.224  1.3607 -0.7833 -0.6130
  470MOL0     H63422   5.077  12.024   4.459  1.4055  0.2428  1.1983
  470MOL0     H63423   5.079  12.196   4.491 -0.4178  0.2959 -0.4502
  470MOL0     H63424   5.266  12.072   4.272  2.4745 -0.3378  0.5958
  470MOL0     H63425   5.254  12.240   4.315 -1.0419 -0.4317  0.5045
  470MOL0     H63426   5.427  12.079   4.411  0.2927  3.1071 -0.8886
  470MOL0     H63427   5.304  11.998   4.498 -0.5837  0.7189 -0.9095
  470MOL0     H63428   5.373  12.293   4.553 -0.2489 -0.2962  1.2221
  470MOL0     H63429   5.254  12.190   4.638  1.7439 -1.7225  3.0005
  470MOL0     H63430   4.441  12.384   4.448  1.6449  0.1794 -1.6462
  470MOL0     H63431   4.190  12.394   4.521  1.5071  0.9730  0.4753
  470MOL0     H63432   3.815  12.364   4.490 -3.5872  2.0329  0.6071
  470MOL0     H63433   3.602  12.409   4.584  2.3161  0.0296  0.0235
  470MOL0     H63434   1.556  11.602   4.828  1.1348 -1.3605  0.2704
  470MOL0     H63435   1.378  11.462   4.717 -0.9153  0.5759 -1.4982
  470MOL0     H63436   1.190  11.465   4.284  0.8716 -0.9292  1.7674
  470MOL0     H63437   1.070  11.415   4.089  1.1956  2.1698  0.6180
  470MOL0     H63438   0.896  11.281   3.972 -1.5325  1.8163 -1.4701
  470MOL0     H63439   0.900  11.165   3.853 -1.1459  2.8114 -2.8921
  470MOL0     H63440   1.069  11.293   3.721 -2.1855 -1.0386 -0.8720
  470MOL0     H63441   1.038  11.425   3.844 -0.8571 -0.5301  1.8429
  470MOL0     H63442   0.902  11.478   3.664 -0.7669 -0.9540 -2.7675
  470MOL0     H63443   0.791  11.420   3.796 -2.1150 -1.5945 -2.6005
  470MOL0     H63444   0.879  11.238   3.572  0.4440 -0.1948  1.9187
  470MOL0     H63445   0.737  11.217   3.682 -0.9968  0.3001  1.5844
  470MOL0     H63446   0.586  11.469   3.391 -0.0889 -1.4836 -0.9867
  470MOL0     H63447   1.247  11.025   4.052 -1.7946 -0.1774 -1.6140
  470MOL0     H63448   1.388  10.957   4.198  0.4354 -0.1115  0.2265
  470MOL0     H63449   1.520  11.086   4.184  1.5698 -1.4036  0.5466
  470MOL0     H63450   1.442  11.031   4.339  0.0926 -0.4490  0.0164
  471MOL0     O63451   5.094   9.642  10.567 -0.0556  0.1711  0.3975
  471MOL0     C63452   5.072   9.638  10.447  0.2030  1.2824  0.6207
  471MOL0     O63453   5.139   9.552  10.361 -0.0224 -0.2830 -0.0389
  471MOL0     C63454   5.228   9.462  10.409 -0.9774 -0.0845 -0.6082
  471MOL0     C63455   5.351   9.496  10.482 -0.9408  0.5374  0.0894
  471MOL0     C63456   5.442   9.395  10.525 -1.1165 -0.2476  0.8846
  471MOL0     C63457   5.415   9.262  10.496 -0.2995 -0.0692  0.8768
  471MOL0     O63458   5.497   9.167  10.536  0.4053  0.0362  0.2889
  471MOL0     C63459   5.523   9.060  10.446 -0.3492  0.2024  0.4743
  471MOL0     C63460   5.552   8.930  10.507  0.0361  0.3984 -0.0881
  471MOL0     C63461   5.698   8.901  10.544  0.1652  0.1814 -0.3073
  471MOL0     C63462   5.717   8.760  10.602 -0.0557  0.1375  0.0344
  471MOL0     C63463   5.857   8.740  10.658  0.0606 -0.4213 -0.5213
  471MOL0     C63464   5.897   8.589  10.689 -0.1755  0.1500  0.0477
  471MOL0     C63465   6.035   8.578  10.739  0.1304  0.6125  0.0550
  471MOL0     C63466   6.039   8.576  10.895  0.5745  0.8685  0.6445
  471MOL0     N63467   6.179   8.560  10.952  0.5667 -0.0391  0.5867
  471MOL0     C63468   6.289   8.631  10.918  0.1106 -0.1981  0.0928
  471MOL0     C63469   6.385   8.576  10.991 -0.7318  0.0223 -0.7250
  471MOL0     C63470   6.520   8.622  10.973 -0.2978 -0.1648  0.2470
  471MOL0     C63471   6.634   8.530  11.005 -0.1543 -0.4156 -0.5581
  471MOL0     C63472   6.642   8.490  11.160  0.0943  0.9343 -0.3797
  471MOL0     C63473   6.770   8.402  11.187  0.3475 -0.5687 -0.0076
  471MOL0     O63474   6.877   8.466  11.261  0.5258 -0.1167  0.2564
  471MOL0     C63475   6.986   8.405  11.297  0.3158  0.1422  0.9941
  471MOL0     C63476   7.089   8.474  11.364 -0.5217 -0.3455 -0.1414
  471MOL0     C63477   7.210   8.412  11.406 -0.5747 -0.5864 -0.7761
  471MOL0     C63478   7.227   8.273  11.393 -0.8020  0.4406 -0.6132
  471MOL0     C63479   7.344   8.201  11.432  0.6909  0.3665 -0.5799
  471MOL0     O63480   7.353   8.085  11.357 -0.4173 -0.3737  0.1266
  471MOL0     C63481   7.474   8.020  11.336 -0.1201 -0.6101 -0.6114
  471MOL0     C63482   7.461   7.884  11.312  0.0132 -0.6393 -0.2553
  471MOL0     C63483   7.574   7.808  11.298 -0.9810 -0.4596  0.3097
  471MOL0     C63484   7.703   7.862  11.302 -0.9832  0.4335  0.3365
  471MOL0     O63485   7.827   7.792  11.294  0.5854  0.6632  0.1326
  471MOL0     C63486   7.829   7.648  11.248  0.0633 -0.0591 -0.4776
  471MOL0     C63487   7.958   7.571  11.275 -0.0221  0.4253 -0.6998
  471MOL0     C63488   7.941   7.431  11.207  0.1820 -0.4446 -0.0572
  471MOL0     C63489   8.064   7.357  11.211 -0.7937  0.0052  0.4729
  471MOL0     C63490   8.096   7.251  11.096 -0.5783  0.2437 -0.4542
  471MOL0     C63491   8.040   7.110  11.128 -0.5579 -0.3857 -0.6063
  471MOL0     C63492   8.115   6.999  11.062  0.4528 -0.0014  0.2165
  471MOL0     C63493   8.066   6.861  11.098 -0.1046  0.0655 -0.9224
  471MOL0    Cl63494   7.917   6.833  11.030  0.4503  0.0166  0.4789
  471MOL0     C63495   7.718   8.002  11.323 -0.3661  0.4311  0.0389
  471MOL0     C63496   7.605   8.083  11.343  1.1969 -0.2885 -0.0849
  471MOL0     O63497   7.426   8.248  11.510  0.0980  0.4447  0.6702
  471MOL0     C63498   7.121   8.210  11.333  0.3457 -1.0885 -0.4350
  471MOL0     C63499   7.002   8.268  11.283  0.2077  0.3336  0.1388
  471MOL0     N63500   6.336   8.473  11.068 -0.1370  0.6880  0.4034
  471MOL0     N63501   6.212   8.459  11.041  0.5615 -0.3827  0.6192
  471MOL0     C63502   5.289   9.225  10.423  0.0042 -0.1548  0.0677
  471MOL0     C63503   5.198   9.324  10.378 -0.0441  0.0688 -0.0860
  471MOL0     C63504   4.966   9.723  10.385 -0.5774 -0.7502  0.1793
  471MOL0     C63505   4.976   9.732  10.243  0.0833  0.1374  0.1592
  471MOL0     C63506   4.870   9.781  10.170 -0.1705  0.9022 -0.5102
  471MOL0     C63507   4.753   9.837  10.232  0.2822 -0.0540  0.5647
  471MOL0     O63508   4.635   9.877  10.169 -0.0320 -0.8949  0.1141
  471MOL0     C63509   4.629   9.878  10.023 -0.6528 -0.5166  0.5285
  471MOL0     C63510   4.689  10.008   9.966  0.0394 -0.2525 -1.0824
  471MOL0     C63511   4.666  10.020   9.814  0.2007 -0.3775 -1.3756
  471MOL0     C63512   4.769   9.927   9.739 -0.3644 -0.2246  0.2795
  471MOL0     C63513   4.896  10.007   9.741  0.4287  1.0273  0.8016
  471MOL0     C63514   5.002  10.077   9.731 -0.2585  0.2203 -0.4944
  471MOL0     C63515   4.759   9.840  10.363  0.2235  0.4812 -0.6390
  471MOL0     C63516   4.854   9.778  10.450 -0.1061 -0.3237  0.3270
  471MOL0     C63517   4.839   9.801  10.600 -0.4897 -0.4877 -0.4235
  471MOL0     H63518   5.389   9.598  10.481 -1.0792  0.6371 -2.3963
  471MOL0     H63519   5.532   9.430  10.575  0.9478 -0.3749 -2.4361
  471MOL0     H63520   5.455   9.037  10.364  1.7826  1.3854 -1.7548
  471MOL0     H63521   5.612   9.089  10.390  0.7826  1.3229  2.7355
  471MOL0     H63522   5.535   8.853  10.431 -0.3117  0.8946 -0.5164
  471MOL0     H63523   5.485   8.916  10.592 -1.9916  0.3001 -1.6412
  471MOL0     H63524   5.720   8.973  10.624 -0.7271 -2.0290  2.0892
  471MOL0     H63525   5.763   8.915  10.458 -1.3169 -2.1035 -1.9000
  471MOL0     H63526   5.655   8.735  10.689  0.4304  0.4382  0.4725
  471MOL0     H63527   5.702   8.691  10.518  0.1450 -1.8028  1.5275
  471MOL0     H63528   5.923   8.776  10.578  1.9786 -3.4350 -0.4650
  471MOL0     H63529   5.872   8.803  10.746  3.0366 -1.6539 -0.0272
  471MOL0     H63530   5.831   8.549  10.766  1.3410  0.8673  1.7816
  471MOL0     H63531   5.880   8.523  10.603  0.8268  1.8175 -1.4938
  471MOL0     H63532   6.097   8.660  10.702 -2.2002  2.3924 -0.1797
  471MOL0     H63533   6.073   8.478  10.716  0.0467  0.5102  0.3607
  471MOL0     H63534   5.997   8.674  10.920 -0.8008  1.0058 -1.8909
  471MOL0     H63535   5.968   8.500  10.929  0.6702 -0.1209 -1.2462
  471MOL0     H63536   6.293   8.715  10.848  0.6707  0.2823  0.6890
  471MOL0     H63537   6.529   8.664  10.873 -1.4997  0.5385  0.4273
  471MOL0     H63538   6.529   8.712  11.034 -1.0628  1.1452 -1.4924
  471MOL0     H63539   6.624   8.431  10.959  2.9980 -1.3871  0.5449
  471MOL0     H63540   6.732   8.570  10.976  1.7750 -0.8345  4.3049
  471MOL0     H63541   6.551   8.435  11.183  0.6176  0.1824 -0.0732
  471MOL0     H63542   6.646   8.576  11.227  0.8910  0.3239  0.3802
  471MOL0     H63543   6.820   8.365  11.097 -1.0084  1.8521 -1.8819
  471MOL0     H63544   6.719   8.322  11.240 -0.2582 -0.7936 -0.9189
  471MOL0     H63545   7.062   8.571  11.404  1.4944 -0.2505  1.1527
  471MOL0     H63546   7.290   8.467  11.454 -1.3231 -0.6277  0.5813
  471MOL0     H63547   7.367   7.832  11.330  0.5798 -1.4097  0.5973
  471MOL0     H63548   7.557   7.703  11.277 -1.3439 -0.0443 -1.7386
  471MOL0     H63549   7.754   7.599  11.311  1.1356 -0.6446  0.3752
  471MOL0     H63550   7.798   7.634  11.144 -0.2863 -0.0181 -0.3788
  471MOL0     H63551   8.049   7.610  11.229  2.0933 -3.7314 -0.5864
  471MOL0     H63552   7.977   7.562  11.383  0.4159  0.0944 -0.8013
  471MOL0     H63553   7.861   7.377  11.258 -0.5590 -1.8204 -2.5040
  471MOL0     H63554   7.910   7.441  11.103 -0.5474 -2.2851 -0.0667
  471MOL0     H63555   8.074   7.305  11.307 -1.3838 -0.3852  0.3256
  471MOL0     H63556   8.146   7.430  11.209  0.1532 -0.8937 -3.6351
  471MOL0     H63557   8.203   7.234  11.089 -0.3424  0.4273  1.7874
  471MOL0     H63558   8.064   7.288  10.998  1.0118 -1.5283 -1.7140
  471MOL0     H63559   8.046   7.092  11.236 -3.0242 -3.9553 -0.8580
  471MOL0     H63560   7.935   7.101  11.097 -0.5950 -3.9886  0.1447
  471MOL0     H63561   8.221   7.011  11.086  0.8471  0.9889 -1.7852
  471MOL0     H63562   8.115   7.012  10.954  1.2157  2.9082  0.4814
  471MOL0     H63563   8.131   6.776  11.077  0.6964  0.2302  0.7265
  471MOL0     H63564   8.053   6.858  11.207 -1.2100 -1.4039 -1.0775
  471MOL0     H63565   7.806   8.064  11.328 -2.0660  3.0943 -0.9386
  471MOL0     H63566   7.613   8.186  11.375 -0.3829 -0.5015  1.1094
  471MOL0     H63567   7.125   8.102  11.323 -1.8130 -1.3255  0.7823
  471MOL0     H63568   6.922   8.205  11.245 -1.5982  1.3174  2.0898
  471MOL0     H63569   5.258   9.122  10.411  1.7952 -1.1133  2.6813
  471MOL0     H63570   5.107   9.291  10.327 -0.9894 -0.9670  2.1481
  471MOL0     H63571   5.057   9.692  10.182  1.0980 -0.5487  1.8814
  471MOL0     H63572   4.875   9.771  10.062 -1.3040 -3.2970 -0.3340
  471MOL0     H63573   4.525   9.874   9.991 -0.5720  1.3433 -0.1261
  471MOL0     H63574   4.679   9.801   9.964 -3.8452  0.2748 -3.6984
  471MOL0     H63575   4.794  10.017   9.996  0.0462  1.8420 -1.5777
  471MOL0     H63576   4.647  10.093  10.021 -0.7726 -2.2297  1.5242
  471MOL0     H63577   4.664  10.125   9.784 -1.9144 -0.1058 -0.4809
  471MOL0     H63578   4.564   9.982   9.798  0.1057 -1.0429  0.5026
  471MOL0     H63579   4.786   9.831   9.789 -1.1935 -0.4236  0.1904
  471MOL0     H63580   4.725   9.930   9.639 -3.7874  5.0090  1.5725
  471MOL0     H63581   5.084  10.145   9.737 -0.2638  0.3064 -1.2641
  471MOL0     H63582   4.661   9.867  10.399  0.2675  0.0650 -0.1948
  471MOL0     H63583   4.936   9.807  10.649  1.0308 -2.7245 -2.8836
  471MOL0     H63584   4.784   9.896  10.608  0.9285  0.3984 -0.9020
  471MOL0     H63585   4.784   9.723  10.654 -0.7278  1.2466  1.9988
  472MOL0     O63586  10.488   7.056  10.776  0.3065 -0.0294 -0.1054
  472MOL0     C63587  10.391   6.986  10.746 -0.0597  0.3170 -0.3068
  472MOL0     O63588  10.393   6.876  10.665  0.4791  0.3219  0.0497
  472MOL0     C63589  10.506   6.860  10.590  0.4366 -0.1820  1.0258
  472MOL0     C63590  10.490   6.841  10.448  0.2061  0.6095  0.6743
  472MOL0     C63591  10.593   6.812  10.361 -0.3575 -0.1934  0.4089
  472MOL0     C63592  10.725   6.810  10.408  1.3311  0.6628 -0.1313
  472MOL0     O63593  10.831   6.785  10.328 -0.1263  0.0346 -0.2233
  472MOL0     C63594  10.920   6.894  10.289 -0.6405  0.7621 -0.9139
  472MOL0     C63595  11.032   6.831  10.206  0.2565 -0.1523  0.6385
  472MOL0     C63596  11.111   6.728  10.286 -0.4110  0.9282  0.0775
  472MOL0     C63597  11.243   6.707  10.210  0.1260 -0.3046  0.7869
  472MOL0     C63598  11.311   6.576  10.255  0.7339  0.0811  0.1784
  472MOL0     C63599  11.439   6.540  10.172  0.4250  0.0293  0.8714
  472MOL0     C63600  11.497   6.400  10.211 -0.0221 -0.5069  0.3346
  472MOL0     C63601  11.622   6.368  10.121  0.2355 -0.1464 -0.1651
  472MOL0     N63602  11.742   6.460  10.142  0.7172  0.7202 -0.5332
  472MOL0     C63603  11.840   6.419  10.222 -1.0935  0.1079 -0.5963
  472MOL0     C63604  11.936   6.510  10.202 -0.4110 -0.8680  0.2851
  472MOL0     C63605  12.064   6.522  10.275 -1.0851 -0.5060  0.6846
  472MOL0     C63606  12.059   6.616  10.386  0.2367 -0.9754 -0.1140
  472MOL0     C63607  12.002   6.554  10.512  0.3087  0.0176 -0.5140
  472MOL0     C63608  12.080   6.441  10.575  0.5929 -0.2780  0.6105
  472MOL0     O63609  12.039   6.419  10.713 -0.4291  0.0818  0.8605
  472MOL0     C63610  12.152   6.403  10.791 -0.4217 -0.5338  0.6870
  472MOL0     C63611  12.213   6.280  10.804 -0.0293  0.1030  0.0312
  472MOL0     C63612  12.308   6.256  10.906 -0.5887 -0.0140 -0.6647
  472MOL0     C63613  12.343   6.357  10.989  0.2510 -0.9961  0.3421
  472MOL0     C63614  12.452   6.344  11.088  0.4288  0.6632  0.3032
  472MOL0     O63615  12.501   6.458  11.145  0.3621  0.1749 -0.3610
  472MOL0     C63616  12.602   6.455  11.236 -0.6709  0.4595 -0.5659
  472MOL0     C63617  12.606   6.352  11.339  0.0649  0.1153  0.3866
  472MOL0     C63618  12.708   6.344  11.432  1.1037 -0.6406  0.0732
  472MOL0     C63619  12.795   6.453  11.424 -0.3398 -0.6168  0.4494
  472MOL0     O63620  12.904   6.453  11.511  0.0888 -0.8438 -0.1272
  472MOL0     C63621  12.996   6.350  11.482 -0.0659 -0.2239 -0.3708
  472MOL0     C63622  13.071   6.375  11.347 -0.7945 -0.2659  0.4792
  472MOL0     C63623  13.171   6.256  11.322  0.5594  0.6393  0.2173
  472MOL0     C63624  13.117   6.112  11.286 -0.1400 -0.4214  0.2861
  472MOL0     C63625  13.226   6.003  11.280  0.0517 -0.1610 -0.0307
  472MOL0     C63626  13.243   5.934  11.416  0.7476  0.0850  0.6278
  472MOL0     C63627  13.139   5.820  11.441  0.1955  0.1680  0.1375
  472MOL0     C63628  13.163   5.702  11.340 -0.3821 -0.2186  0.2299
  472MOL0    Cl63629  13.304   5.616  11.403 -0.3684  0.0775  0.0829
  472MOL0     C63630  12.791   6.559  11.336 -0.6187  0.3429  0.1426
  472MOL0     C63631  12.700   6.555  11.235 -0.6041  1.1824 -0.2842
  472MOL0     O63632  12.492   6.233  11.111 -0.0708 -0.8507  0.4631
  472MOL0     C63633  12.287   6.485  10.970  1.1682 -0.1516 -0.1828
  472MOL0     C63634  12.195   6.510  10.875  0.0792  0.0955  0.8167
  472MOL0     N63635  11.888   6.613  10.113  0.2480 -0.8779  0.8504
  472MOL0     N63636  11.768   6.577  10.092 -0.2842 -0.2662  0.7813
  472MOL0     C63637  10.746   6.833  10.548  0.5706 -0.1210  0.3040
  472MOL0     C63638  10.639   6.849  10.633 -0.0779  0.6764  0.5530
  472MOL0     C63639  10.263   7.040  10.804  0.6372  0.1514  0.2945
  472MOL0     C63640  10.249   7.179  10.836 -0.4639 -0.1971 -0.1348
  472MOL0     C63641  10.131   7.236  10.873 -0.2324 -0.2427 -1.1792
  472MOL0     C63642  10.017   7.158  10.883  0.3025 -0.7589  0.1568
  472MOL0     O63643   9.893   7.203  10.902 -0.8150  0.1412  0.5111
  472MOL0     C63644   9.881   7.316  10.991  0.4968  0.1753 -0.7922
  472MOL0     C63645   9.742   7.330  11.058  0.1386  0.1630 -0.6568
  472MOL0     C63646   9.724   7.456  11.147  0.4563 -1.0396 -0.5215
  472MOL0     C63647   9.727   7.423  11.299  0.3003  0.5384  0.0462
  472MOL0     C63648   9.870   7.409  11.337  0.9459  0.5523  0.3708
  472MOL0     C63649   9.980   7.422  11.382 -0.4334 -0.2930 -0.3843
  472MOL0     C63650  10.024   7.021  10.861 -0.6582  0.1864 -0.5354
  472MOL0     C63651  10.148   6.956  10.822 -0.4543  0.7068 -0.1342
  472MOL0     C63652  10.140   6.806  10.800  1.2774  0.3470 -0.3102
  472MOL0     H63653  10.390   6.857  10.408  0.4787  1.5439  0.3283
  472MOL0     H63654  10.585   6.794  10.254 -1.3461 -1.7095  0.7178
  472MOL0     H63655  10.866   6.968  10.229 -0.1658 -0.0995 -2.4685
  472MOL0     H63656  10.974   6.937  10.374  2.4935 -1.2305 -1.7452
  472MOL0     H63657  11.097   6.912  10.171 -0.3529  0.3464  0.6273
  472MOL0     H63658  10.993   6.799  10.108 -3.7073  3.1754  0.8318
  472MOL0     H63659  11.062   6.631  10.298  1.2436 -0.0635 -0.6670
  472MOL0     H63660  11.125   6.775  10.384 -2.3381  0.3111  0.6958
  472MOL0     H63661  11.212   6.694  10.106  1.6815 -1.6122  0.4415
  472MOL0     H63662  11.307   6.795  10.221  1.0952 -0.5764 -1.8363
  472MOL0     H63663  11.336   6.568  10.361  1.5088 -2.9212 -0.1387
  472MOL0     H63664  11.238   6.495  10.250  0.8772 -0.0906  0.8622
  472MOL0     H63665  11.416   6.535  10.065 -0.5754 -2.1445  1.1368
  472MOL0     H63666  11.513   6.619  10.182 -0.3186  1.6023 -3.5339
  472MOL0     H63667  11.427   6.316  10.200  0.3364 -0.8716  0.7916
  472MOL0     H63668  11.520   6.396  10.318 -0.2773  2.1683  0.5649
  472MOL0     H63669  11.648   6.262  10.136  0.7669 -0.4060 -2.5546
  472MOL0     H63670  11.581   6.377  10.020 -0.7608  0.4151  0.2835
  472MOL0     H63671  11.836   6.331  10.287  0.4129  0.8257  0.5351
  472MOL0     H63672  12.106   6.423  10.291 -0.1001 -0.3863 -0.9500
  472MOL0     H63673  12.128   6.570  10.200  0.5482 -0.5572  1.9897
  472MOL0     H63674  12.161   6.653  10.400  0.0847 -0.5484 -0.1329
  472MOL0     H63675  12.003   6.705  10.358 -0.6096 -0.6562  2.3333
  472MOL0     H63676  11.900   6.516  10.497  0.4801  0.4009 -3.2598
  472MOL0     H63677  11.991   6.630  10.590 -1.4911 -3.2761  2.7673
  472MOL0     H63678  12.186   6.470  10.573  0.8929 -1.3035  0.8285
  472MOL0     H63679  12.077   6.349  10.515  0.4022  0.3696 -0.3995
  472MOL0     H63680  12.188   6.203  10.732 -0.6078 -2.4466  2.7675
  472MOL0     H63681  12.364   6.164  10.922 -1.1936 -0.3759 -0.5857
  472MOL0     H63682  12.524   6.281  11.349  2.0258 -2.3494 -0.1456
  472MOL0     H63683  12.721   6.263  11.504  0.4671 -3.2071 -2.5267
  472MOL0     H63684  13.070   6.348  11.562 -0.3907 -1.5147 -0.0759
  472MOL0     H63685  12.945   6.253  11.479  0.6461 -0.5828 -1.0675
  472MOL0     H63686  12.991   6.386  11.272  0.3228  0.8145 -0.6059
  472MOL0     H63687  13.137   6.462  11.353 -1.3588  0.3168 -1.1712
  472MOL0     H63688  13.243   6.292  11.248  2.6576  1.2253  2.4441
  472MOL0     H63689  13.231   6.242  11.412  1.2052  2.5012  0.1258
  472MOL0     H63690  13.056   6.126  11.197  0.9369  0.9761 -0.2488
  472MOL0     H63691  13.049   6.095  11.371 -1.1884  2.7085  0.1921
  472MOL0     H63692  13.317   6.058  11.253 -0.5789  1.3179  0.8186
  472MOL0     H63693  13.219   5.939  11.191  2.5790  0.9596 -1.1209
  472MOL0     H63694  13.346   5.897  11.421  1.4368  1.0550 -3.0305
  472MOL0     H63695  13.218   6.001  11.498 -2.5399 -1.9324  1.4594
  472MOL0     H63696  13.032   5.841  11.438  0.3437  0.9691 -2.7705
  472MOL0     H63697  13.142   5.777  11.541 -1.4418 -0.4629 -0.0434
  472MOL0     H63698  13.087   5.626  11.319  1.8051 -2.0381 -1.7411
  472MOL0     H63699  13.179   5.744  11.240  3.2253  1.7174  1.4405
  472MOL0     H63700  12.863   6.640  11.338  0.7845 -0.8284 -0.8846
  472MOL0     H63701  12.709   6.615  11.145  2.1315 -1.5283 -2.0144
  472MOL0     H63702  12.336   6.562  11.028 -0.9725 -1.4582  3.6668
  472MOL0     H63703  12.164   6.613  10.864 -0.8109  0.0337  2.3662
  472MOL0     H63704  10.846   6.835  10.590  0.2805 -2.1938  1.2474
  472MOL0     H63705  10.663   6.858  10.739  0.0948 -1.7327  0.7557
  472MOL0     H63706  10.340   7.238  10.829 -0.4649 -0.3013 -1.2433
  472MOL0     H63707  10.140   7.343  10.885  0.7885 -0.3745 -0.5955
  472MOL0     H63708   9.897   7.411  10.939 -1.4161  1.6737  1.2201
  472MOL0     H63709   9.955   7.304  11.071 -3.1216 -0.5357  2.7413
  472MOL0     H63710   9.718   7.237  11.111  1.4774  0.6221  0.8505
  472MOL0     H63711   9.678   7.335  10.970  1.5245 -4.0595 -2.1573
  472MOL0     H63712   9.624   7.498  11.133 -0.0391 -0.7562  2.9733
  472MOL0     H63713   9.798   7.533  11.122  0.3531 -0.5268  0.6651
  472MOL0     H63714   9.671   7.497  11.357  0.9577  1.1764 -0.1139
  472MOL0     H63715   9.677   7.327  11.312 -1.2871  1.0570 -1.7065
  472MOL0     H63716  10.081   7.416  11.420  0.0056  0.8656 -1.3001
  472MOL0     H63717   9.933   6.965  10.882 -1.1695  2.0842  3.2161
  472MOL0     H63718  10.164   6.769  10.700  3.9429 -1.1726  0.7874
  472MOL0     H63719  10.214   6.767  10.870 -0.4278  0.5311  1.6779
  472MOL0     H63720  10.038   6.769  10.818 -0.1924  3.4843 -1.3924
  473MOL0     O63721  10.466   3.229   6.224  0.4736  0.5252  0.6104
  473MOL0     C63722  10.454   3.223   6.346  0.5116 -0.2657  0.8025
  473MOL0     O63723  10.536   3.278   6.437  0.3175 -0.3254  0.1933
  473MOL0     C63724  10.665   3.308   6.393  0.2941  0.5683  0.1625
  473MOL0     C63725  10.718   3.411   6.464 -0.6537 -0.2405  0.0736
  473MOL0     C63726  10.850   3.450   6.441 -0.4411  0.8361  0.1511
  473MOL0     C63727  10.935   3.378   6.352  0.3778 -0.3399  0.8078
  473MOL0     O63728  11.063   3.408   6.329 -0.2940  0.6883  1.1118
  473MOL0     C63729  11.098   3.546   6.321 -0.0369 -0.2342  0.0927
  473MOL0     C63730  11.217   3.572   6.223  0.5855  0.3702  0.3432
  473MOL0     C63731  11.335   3.491   6.254  0.0022 -0.1465 -0.1319
  473MOL0     C63732  11.380   3.485   6.397  0.0236  0.6439 -1.7242
  473MOL0     C63733  11.520   3.430   6.426  0.1087  0.4131 -0.1102
  473MOL0     C63734  11.563   3.415   6.580 -1.1609  0.5710 -0.0744
  473MOL0     C63735  11.709   3.445   6.600  0.1878 -0.5552 -0.3394
  473MOL0     C63736  11.748   3.399   6.746 -0.0322 -0.4923  0.1435
  473MOL0     N63737  11.876   3.461   6.792  0.3719 -0.1887 -0.4635
  473MOL0     C63738  11.885   3.563   6.885 -1.1883  0.6188 -0.5153
  473MOL0     C63739  12.017   3.579   6.893 -0.6289 -0.1150  0.3071
  473MOL0     C63740  12.081   3.669   6.988 -0.0064 -0.0351  0.2076
  473MOL0     C63741  12.152   3.596   7.112  0.9766 -0.5461 -0.1080
  473MOL0     C63742  12.200   3.689   7.223 -0.2662 -0.7416 -0.4142
  473MOL0     C63743  12.302   3.794   7.182 -0.5711  0.0252 -1.0219
  473MOL0     O63744  12.436   3.756   7.205 -0.1924  0.5530  0.2454
  473MOL0     C63745  12.514   3.826   7.294  0.0592  0.8388 -0.6661
  473MOL0     C63746  12.647   3.840   7.276  0.2013  0.2261  0.5839
  473MOL0     C63747  12.738   3.893   7.372 -0.1281  0.3521 -0.1667
  473MOL0     C63748  12.692   3.949   7.487  0.9561  0.2925  0.5689
  473MOL0     C63749  12.792   4.007   7.591  0.7937  0.1286  0.1933
  473MOL0     O63750  12.924   4.009   7.550  0.6690 -0.6054  0.3373
  473MOL0     C63751  13.025   4.053   7.634  0.0693 -0.1915  0.4544
  473MOL0     C63752  13.032   4.034   7.772  0.3776  0.9141  0.0105
  473MOL0     C63753  13.145   4.082   7.840 -0.3773 -0.2247  0.3163
  473MOL0     C63754  13.248   4.144   7.776 -0.8790 -0.0517  0.5817
  473MOL0     O63755  13.361   4.168   7.850  0.3593  0.1496 -0.2910
  473MOL0     C63756  13.478   4.222   7.787 -0.3649  0.2683 -0.2783
  473MOL0     C63757  13.587   4.221   7.889 -0.2842 -0.1758  0.0774
  473MOL0     C63758  13.716   4.289   7.836 -0.4608 -0.3193  0.7296
  473MOL0     C63759  13.812   4.318   7.956  0.0951 -0.3838 -0.7375
  473MOL0     C63760  13.952   4.339   7.912 -0.5522  0.9899  0.3956
  473MOL0     C63761  14.031   4.393   8.037 -0.0713 -0.2822 -0.0036
  473MOL0     C63762  14.178   4.394   8.015 -0.2946  0.1951 -0.0114
  473MOL0     C63763  14.259   4.454   8.133 -0.5958  0.3115 -0.2491
  473MOL0    Cl63764  14.215   4.388   8.289  0.1551 -0.6355 -0.0437
  473MOL0     C63765  13.238   4.163   7.638 -0.3674  1.0501  0.8356
  473MOL0     C63766  13.132   4.115   7.568  0.0124 -0.5563 -0.0422
  473MOL0     O63767  12.749   4.032   7.699  0.3120 -0.7932 -0.5047
  473MOL0     C63768  12.557   3.958   7.501  0.8736  0.1929 -0.0792
  473MOL0     C63769  12.473   3.894   7.412  0.5167 -0.0681  0.8252
  473MOL0     N63770  12.084   3.499   6.806  0.2557  0.2619  0.8161
  473MOL0     N63771  11.995   3.423   6.743  0.5279  0.4688  0.0846
  473MOL0     C63772  10.878   3.273   6.274 -0.4368  0.3313 -0.4216
  473MOL0     C63773  10.741   3.235   6.301  0.4843  0.2270  0.2148
  473MOL0     C63774  10.327   3.170   6.411  0.2365  0.7142  0.3904
  473MOL0     C63775  10.286   3.210   6.540  0.1126 -0.1107  0.1157
  473MOL0     C63776  10.168   3.161   6.597 -0.5029  0.2406  0.5328
  473MOL0     C63777  10.094   3.062   6.531  0.7880 -0.4922 -0.5246
  473MOL0     O63778   9.974   3.032   6.604  0.2591 -0.1767 -0.2649
  473MOL0     C63779   9.863   2.958   6.544 -0.8183 -0.0395  0.5382
  473MOL0     C63780   9.752   2.958   6.644  0.8143  0.5291  0.9274
  473MOL0     C63781   9.624   2.898   6.587  0.0419  0.8019 -0.2794
  473MOL0     C63782   9.500   2.902   6.680  0.2068 -0.3067  0.1740
  473MOL0     C63783   9.466   2.772   6.741  0.0349 -0.0404 -0.7971
  473MOL0     C63784   9.432   2.660   6.777 -0.0746 -0.3905 -0.4795
  473MOL0     C63785  10.134   3.013   6.405 -0.1588 -0.9905 -0.3142
  473MOL0     C63786  10.251   3.071   6.342  0.4600 -0.6449 -0.6689
  473MOL0     C63787  10.294   3.009   6.216 -0.7975 -0.2433  0.1232
  473MOL0     H63788  10.657   3.462   6.537  0.6947  0.2687  0.8922
  473MOL0     H63789  10.891   3.522   6.512 -1.0361  0.5920  0.7532
  473MOL0     H63790  11.028   3.612   6.268  2.2084  0.7189 -1.8728
  473MOL0     H63791  11.111   3.596   6.417 -2.9232  1.8665 -0.4621
  473MOL0     H63792  11.242   3.678   6.217  0.2969  0.3288 -3.4264
  473MOL0     H63793  11.183   3.552   6.121 -1.4800 -0.5121  1.1502
  473MOL0     H63794  11.419   3.541   6.203 -1.1783  2.2659  0.1509
  473MOL0     H63795  11.319   3.393   6.209 -3.7966 -0.4196  1.4572
  473MOL0     H63796  11.375   3.590   6.425 -2.4644 -0.1581  1.5464
  473MOL0     H63797  11.305   3.430   6.454  0.2313  0.1638 -1.9033
  473MOL0     H63798  11.529   3.336   6.371  3.3446  0.0389  0.8588
  473MOL0     H63799  11.591   3.495   6.373 -0.5560 -1.6405 -3.9231
  473MOL0     H63800  11.499   3.472   6.647  0.6631 -0.0166  2.2827
  473MOL0     H63801  11.540   3.312   6.609  1.5075 -0.1438 -0.2399
  473MOL0     H63802  11.719   3.554   6.597  2.0244 -0.6997 -0.3873
  473MOL0     H63803  11.774   3.390   6.531  1.6972 -0.7207  1.1672
  473MOL0     H63804  11.669   3.413   6.820 -2.1520  0.4057 -2.1572
  473MOL0     H63805  11.757   3.290   6.745  0.4031 -0.4575 -0.0599
  473MOL0     H63806  11.802   3.610   6.936 -2.4334 -1.5473 -0.4391
  473MOL0     H63807  12.150   3.728   6.926  1.7248 -0.9126  1.2012
  473MOL0     H63808  12.010   3.741   7.029  1.3579  1.6500 -0.2122
  473MOL0     H63809  12.074   3.536   7.160  0.2277  1.0907  0.8162
  473MOL0     H63810  12.233   3.530   7.081 -0.2007 -1.3505 -1.6293
  473MOL0     H63811  12.232   3.630   7.309  0.7752  0.1477 -0.1711
  473MOL0     H63812  12.114   3.749   7.253  1.6196  1.0063  1.8416
  473MOL0     H63813  12.279   3.890   7.230  0.2504 -0.2106 -0.1193
  473MOL0     H63814  12.301   3.808   7.074  2.0011 -0.7523 -1.1982
  473MOL0     H63815  12.695   3.812   7.183 -0.7250  0.6623 -0.0390
  473MOL0     H63816  12.843   3.905   7.349  0.9452 -1.9775  2.8815
  473MOL0     H63817  12.949   3.994   7.829 -1.4732  2.8678 -1.1549
  473MOL0     H63818  13.157   4.036   7.937  1.6050 -1.7916 -0.5827
  473MOL0     H63819  13.509   4.177   7.692 -0.6370  0.7927 -0.6145
  473MOL0     H63820  13.467   4.330   7.773 -2.1280  0.1932  0.2996
  473MOL0     H63821  13.560   4.270   7.983 -1.5858 -0.8581  0.0945
  473MOL0     H63822  13.625   4.122   7.916  0.0847  0.8685  3.9847
  473MOL0     H63823  13.768   4.227   7.763  1.8000  0.0839  1.9021
  473MOL0     H63824  13.695   4.379   7.778  1.9290  1.2057  2.0449
  473MOL0     H63825  13.808   4.236   8.028 -3.5496 -0.4123 -0.7871
  473MOL0     H63826  13.779   4.409   8.008  1.6519 -0.8023  1.0657
  473MOL0     H63827  13.964   4.404   7.825  1.6141 -2.0220 -1.7703
  473MOL0     H63828  13.994   4.246   7.874  2.3717  1.7472  1.4943
  473MOL0     H63829  13.979   4.487   8.060 -0.1882 -0.2167 -0.5228
  473MOL0     H63830  14.022   4.324   8.121  0.5061  0.5212  0.7385
  473MOL0     H63831  14.204   4.444   7.922  0.3850  2.3995  1.2910
  473MOL0     H63832  14.216   4.291   8.011 -2.9458 -0.9544  1.3792
  473MOL0     H63833  14.366   4.430   8.127 -0.5943 -0.1586  1.2000
  473MOL0     H63834  14.251   4.563   8.136 -3.5515  0.2118 -1.6830
  473MOL0     H63835  13.316   4.206   7.577 -1.7533 -0.2125 -1.9924
  473MOL0     H63836  13.131   4.122   7.460 -2.0388 -0.8138 -0.0793
  473MOL0     H63837  12.513   3.982   7.597  1.3616 -1.3767  0.5718
  473MOL0     H63838  12.365   3.895   7.422  0.2916 -0.0853 -1.1421
  473MOL0     H63839  10.943   3.210   6.214  2.2246  2.6977 -0.2603
  473MOL0     H63840  10.700   3.147   6.254  1.7112 -0.5821  0.6090
  473MOL0     H63841  10.349   3.268   6.607 -2.3826  1.0298  1.6282
  473MOL0     H63842  10.138   3.208   6.690  0.8231  0.6462  0.7738
  473MOL0     H63843   9.898   2.860   6.512 -1.4340 -0.3464  0.7970
  473MOL0     H63844   9.829   3.018   6.459 -1.4639  2.1944  2.2703
  473MOL0     H63845   9.730   3.061   6.677 -0.3050  0.1408  1.4573
  473MOL0     H63846   9.791   2.909   6.734  0.9249  1.7761  1.5870
  473MOL0     H63847   9.649   2.794   6.562  0.1931  0.7850 -0.0656
  473MOL0     H63848   9.599   2.946   6.492  0.8624  1.2769 -0.2675
  473MOL0     H63849   9.495   2.974   6.762  0.2073  0.0938 -0.1699
  473MOL0     H63850   9.412   2.918   6.617 -2.0826 -1.9738  2.7400
  473MOL0     H63851   9.394   2.564   6.806  0.2886  0.2896  2.6154
  473MOL0     H63852  10.065   2.944   6.359 -0.8520 -0.5040 -0.0181
  473MOL0     H63853  10.252   2.909   6.203  1.7595 -1.1235 -2.4137
  473MOL0     H63854  10.257   3.067   6.131  0.7176  0.2474 -0.2254
  473MOL0     H63855  10.401   2.987   6.208 -0.5816  1.3846 -2.7120
  474MOL0     O63856   0.235   0.314   0.250  0.0936  0.4351 -0.4317
  474MOL0     C63857   0.202   0.427   0.216  0.1960  0.3686  1.3242
  474MOL0     O63858   0.289   0.523   0.201  0.1348 -0.4401  0.1636
  474MOL0     C63859   0.424   0.504   0.178  0.5119 -0.3906 -0.1158
  474MOL0     C63860   0.476   0.388   0.132 -0.2523  0.2852  0.6377
  474MOL0     C63861   0.610   0.377   0.097  0.8622 -0.1229 -1.2039
  474MOL0     C63862   0.696   0.479   0.112  0.1645  0.3953 -1.1090
  474MOL0     O63863   0.829   0.467   0.085 -0.1663  0.5147 -0.1116
  474MOL0     C63864   0.888   0.564  -0.003  0.0736  0.1940 -0.4817
  474MOL0     C63865   0.991   0.484  -0.081  0.6066 -0.3569  0.4804
  474MOL0     C63866   1.119   0.443  -0.002  0.2977  0.0161  0.0310
  474MOL0     C63867   1.223   0.396  -0.095 -0.2174 -0.9410  0.6670
  474MOL0     C63868   1.334   0.501  -0.121  0.0313  0.3312  0.3641
  474MOL0     C63869   1.446   0.457  -0.223  0.0969  0.2353 -0.1479
  474MOL0     C63870   1.520   0.323  -0.189  0.2954 -0.3695  0.2919
  474MOL0     C63871   1.580   0.328  -0.048 -0.2686 -0.1689  0.0595
  474MOL0     N63872   1.664   0.209  -0.020 -0.3364 -0.0134 -0.5837
  474MOL0     C63873   1.803   0.202  -0.041 -0.7582  0.2548  0.0346
  474MOL0     C63874   1.851   0.085   0.012  0.2285 -0.3233  0.5448
  474MOL0     C63875   1.996   0.039   0.034  1.3496  0.5519  0.2215
  474MOL0     C63876   2.010  -0.039   0.168 -0.3408 -0.5472  0.3030
  474MOL0     C63877   1.968  -0.186   0.163  0.1907  0.3332  0.0327
  474MOL0     C63878   2.089  -0.285   0.152  0.2122 -0.8921  0.2734
  474MOL0     O63879   2.159  -0.245   0.038 -0.7778 -0.1900  0.2451
  474MOL0     C63880   2.268  -0.322  -0.000 -0.1313 -0.2279 -0.5608
  474MOL0     C63881   2.307  -0.452   0.062 -1.0604  0.6227  0.1602
  474MOL0     C63882   2.419  -0.522   0.007 -0.5973  0.4296 -0.7618
  474MOL0     C63883   2.502  -0.461  -0.084 -0.2453 -0.1912  0.9065
  474MOL0     C63884   2.629  -0.535  -0.129  0.3488 -0.6313 -0.4532
  474MOL0     O63885   2.673  -0.650  -0.056  0.5632  0.0826  0.5299
  474MOL0     C63886   2.790  -0.720  -0.088 -0.1061 -0.2068  0.2133
  474MOL0     C63887   2.892  -0.683  -0.175  0.0003  0.5166  0.0074
  474MOL0     C63888   3.002  -0.764  -0.207 -0.2185 -0.8488 -0.2388
  474MOL0     C63889   3.007  -0.894  -0.149 -0.0855 -0.6711 -0.0929
  474MOL0     O63890   3.124  -0.954  -0.165 -0.2252 -0.1418  0.0260
  474MOL0     C63891   3.110  -1.095  -0.185 -0.1799  0.4232 -1.3558
  474MOL0     C63892   3.148  -1.125  -0.329 -0.5579  0.0110 -0.0618
  474MOL0     C63893   3.287  -1.094  -0.363 -0.6355  0.5818  0.3932
  474MOL0     C63894   3.347  -1.200  -0.464  0.0887 -0.3725 -0.0047
  474MOL0     C63895   3.483  -1.157  -0.527 -0.4116  0.4949  0.2356
  474MOL0     C63896   3.583  -1.104  -0.433  0.7141 -0.2082  1.0509
  474MOL0     C63897   3.723  -1.073  -0.490  0.7497 -0.2003 -0.0264
  474MOL0     C63898   3.813  -1.192  -0.468  0.5232  0.5437 -0.2429
  474MOL0    Cl63899   3.970  -1.149  -0.546 -0.1866  0.0500  0.3169
  474MOL0     C63900   2.907  -0.931  -0.059 -0.3973 -0.2322  0.3236
  474MOL0     C63901   2.804  -0.846  -0.029 -0.5306 -0.3815 -0.0343
  474MOL0     O63902   2.692  -0.483  -0.214 -0.3657  0.7472  0.4735
  474MOL0     C63903   2.464  -0.342  -0.142  0.4982  0.6518 -0.9909
  474MOL0     C63904   2.347  -0.270  -0.104  0.0603  0.0291  0.0883
  474MOL0     N63905   1.739   0.030   0.068  0.1071 -0.3776  0.4255
  474MOL0     N63906   1.632   0.100   0.049 -0.1986 -0.4468  0.5505
  474MOL0     C63907   0.648   0.602   0.149 -0.1637 -0.5690  0.4982
  474MOL0     C63908   0.514   0.618   0.183 -0.0809  0.0299  0.4844
  474MOL0     C63909   0.050   0.464   0.215 -0.9448  0.2722  0.1105
  474MOL0     C63910  -0.047   0.356   0.229  0.1063  0.1917 -0.3860
  474MOL0     C63911  -0.183   0.377   0.238 -0.7237  0.2580  0.0538
  474MOL0     C63912  -0.232   0.507   0.212 -0.7348  0.6463 -0.0544
  474MOL0     O63913  -0.367   0.540   0.189  0.2098  0.2103 -0.5465
  474MOL0     C63914  -0.472   0.449   0.223  0.9675 -0.1493 -0.9242
  474MOL0     C63915  -0.621   0.486   0.161 -0.4915 -0.1382 -0.7333
  474MOL0     C63916  -0.681   0.631   0.200  0.3132 -0.2691 -0.1551
  474MOL0     C63917  -0.807   0.659   0.113 -0.3168 -0.2707  0.7289
  474MOL0     C63918  -0.887   0.758   0.176 -0.1738  0.2749 -0.4811
  474MOL0     C63919  -0.961   0.835   0.239 -0.3259 -0.6203  0.0247
  474MOL0     C63920  -0.142   0.613   0.210  0.1620  0.3484 -0.4942
  474MOL0     C63921  -0.000   0.598   0.218  0.4942 -0.3857 -0.1108
  474MOL0     C63922   0.084   0.720   0.232  0.3529  0.3530  0.0369
  474MOL0     H63923   0.404   0.312   0.105 -1.3086  1.3052  0.4950
  474MOL0     H63924   0.654   0.282   0.068  4.5326  1.0436  0.0034
  474MOL0     H63925   0.811   0.609  -0.067 -0.2196 -0.8807 -0.9142
  474MOL0     H63926   0.941   0.643   0.050  0.2317 -1.9099  2.7227
  474MOL0     H63927   1.024   0.546  -0.165 -0.5486  0.4169  0.5705
  474MOL0     H63928   0.943   0.394  -0.120  1.4585 -0.9517  0.7746
  474MOL0     H63929   1.099   0.364   0.071  0.3586 -0.1812 -0.1642
  474MOL0     H63930   1.150   0.527   0.060  1.7311 -1.3489  1.2629
  474MOL0     H63931   1.269   0.304  -0.059  0.3369 -0.9445 -0.0272
  474MOL0     H63932   1.172   0.376  -0.189  1.6415  1.2766 -0.9333
  474MOL0     H63933   1.288   0.589  -0.167  0.2303 -0.4818 -1.4762
  474MOL0     H63934   1.374   0.547  -0.030  0.5960 -0.4204  0.5043
  474MOL0     H63935   1.418   0.437  -0.327  1.1571  0.7021 -0.5343
  474MOL0     H63936   1.518   0.537  -0.239 -0.4746  0.7524 -0.1671
  474MOL0     H63937   1.597   0.295  -0.262 -1.1402 -1.0836 -1.0029
  474MOL0     H63938   1.453   0.237  -0.177 -0.8638  0.5788  0.8334
  474MOL0     H63939   1.631   0.423  -0.032  2.2162 -1.6524  1.6367
  474MOL0     H63940   1.497   0.326   0.024 -0.6295  1.2450 -0.2909
  474MOL0     H63941   1.868   0.273  -0.091  1.0398 -1.2761  0.0398
  474MOL0     H63942   2.036  -0.029  -0.041  1.0814 -1.9143  2.1723
  474MOL0     H63943   2.063   0.123   0.054  1.1164  0.8019 -0.0558
  474MOL0     H63944   2.111  -0.023   0.205  0.2085  1.1997 -1.7477
  474MOL0     H63945   1.945  -0.002   0.248 -1.0162  0.7941 -0.8361
  474MOL0     H63946   1.902  -0.204   0.078 -0.0309 -0.2425  0.3256
  474MOL0     H63947   1.909  -0.212   0.251  2.8023 -0.8878  1.5528
  474MOL0     H63948   2.047  -0.385   0.146 -2.2327  0.1038 -0.5694
  474MOL0     H63949   2.154  -0.279   0.239 -0.0744  0.2293  0.4284
  474MOL0     H63950   2.255  -0.499   0.146  0.0084  0.6715  0.8707
  474MOL0     H63951   2.436  -0.619   0.053 -0.1099  0.1878 -1.4351
  474MOL0     H63952   2.890  -0.582  -0.215  2.1444  1.9608  3.1123
  474MOL0     H63953   3.076  -0.737  -0.282 -1.5687 -2.1347 -2.1334
  474MOL0     H63954   3.185  -1.137  -0.117  0.7605  1.3468 -1.7901
  474MOL0     H63955   3.012  -1.138  -0.163  1.5777 -1.6960  3.9698
  474MOL0     H63956   3.139  -1.234  -0.319  0.5272  0.0597  2.0736
  474MOL0     H63957   3.081  -1.083  -0.405  1.2287  3.8762  0.2722
  474MOL0     H63958   3.299  -0.997  -0.412  0.9137 -0.3652 -1.2342
  474MOL0     H63959   3.344  -1.094  -0.269 -1.5749 -1.6486  1.0483
  474MOL0     H63960   3.270  -1.199  -0.542 -2.8527 -0.2252  2.6594
  474MOL0     H63961   3.360  -1.300  -0.422 -0.8070 -0.8731 -0.8636
  474MOL0     H63962   3.465  -1.088  -0.610 -0.4060  0.2659  0.0389
  474MOL0     H63963   3.527  -1.249  -0.568 -0.0593  1.1048 -0.8003
  474MOL0     H63964   3.544  -1.007  -0.399 -1.9950 -1.6783  2.4626
  474MOL0     H63965   3.596  -1.161  -0.341  1.4593 -0.3506  0.8673
  474MOL0     H63966   3.778  -0.996  -0.435  1.3861 -1.1973  0.7678
  474MOL0     H63967   3.718  -1.037  -0.594 -0.0568 -0.1518  0.0239
  474MOL0     H63968   3.826  -1.215  -0.362 -0.6348 -1.1195 -0.4163
  474MOL0     H63969   3.771  -1.279  -0.520  3.5881 -0.9537 -0.4746
  474MOL0     H63970   2.924  -1.024  -0.005  1.9189 -0.8995 -1.4263
  474MOL0     H63971   2.733  -0.862   0.052 -0.9908  1.4666 -0.0341
  474MOL0     H63972   2.525  -0.297  -0.220 -1.4395  0.3237 -2.7831
  474MOL0     H63973   2.317  -0.178  -0.153 -1.0493 -0.8111 -0.8791
  474MOL0     H63974   0.711   0.690   0.160  1.4189 -1.2521 -2.1114
  474MOL0     H63975   0.486   0.707   0.238  1.1505  0.1971  0.8746
  474MOL0     H63976  -0.014   0.254   0.243 -0.0941  0.0353 -1.0352
  474MOL0     H63977  -0.251   0.292   0.235  0.7751 -0.9753 -1.1192
  474MOL0     H63978  -0.473   0.454   0.332 -0.3435  0.0784 -0.9373
  474MOL0     H63979  -0.443   0.349   0.189  0.7266 -0.0334 -1.4815
  474MOL0     H63980  -0.700   0.413   0.180 -0.7718  0.5014  0.7681
  474MOL0     H63981  -0.595   0.481   0.055 -0.3752 -2.2956 -0.6436
  474MOL0     H63982  -0.608   0.712   0.188  0.4732 -0.4566 -0.4515
  474MOL0     H63983  -0.716   0.633   0.304  0.0744 -1.0932 -0.2111
  474MOL0     H63984  -0.774   0.689   0.013 -2.0685 -0.9097 -0.0792
  474MOL0     H63985  -0.869   0.570   0.104 -2.5861  1.0923  1.7045
  474MOL0     H63986  -1.008   0.907   0.302  0.6682  0.1626 -0.1191
  474MOL0     H63987  -0.191   0.709   0.198 -1.6420 -0.1415  2.0965
  474MOL0     H63988   0.159   0.711   0.311  1.8949 -0.9869 -1.5148
  474MOL0     H63989   0.135   0.741   0.138  0.2739 -1.8271 -0.5506
  474MOL0     H63990   0.015   0.804   0.248  0.6217  0.7190 -0.6699
  475MOL0     O63991   2.220   1.240   4.933 -0.5573 -0.0497 -0.5095
  475MOL0     C63992   2.204   1.199   5.048  0.2785  0.8664 -0.8437
  475MOL0     O63993   2.310   1.169   5.144  0.3809 -0.4374 -0.3994
  475MOL0     C63994   2.434   1.208   5.097  0.4151  0.9610 -0.1073
  475MOL0     C63995   2.505   1.140   5.001  0.3730  0.3923 -0.1076
  475MOL0     C63996   2.636   1.173   4.977 -0.7449 -0.6023  0.2326
  475MOL0     C63997   2.704   1.279   5.043  1.5616  0.5824  0.4933
  475MOL0     O63998   2.838   1.313   5.033 -0.5862 -0.2140  0.4812
  475MOL0     C63999   2.899   1.331   4.896 -0.4823  0.2204 -0.9870
  475MOL0     C64000   3.045   1.380   4.901  0.1358  0.2001  0.8207
  475MOL0     C64001   3.139   1.276   4.953  0.0593  0.4226  0.0125
  475MOL0     C64002   3.273   1.341   4.981 -0.0638 -0.4097  0.0160
  475MOL0     C64003   3.369   1.230   5.016  0.3299 -0.1475  0.4456
  475MOL0     C64004   3.502   1.284   5.064 -0.0038 -0.0781 -0.5600
  475MOL0     C64005   3.600   1.171   5.041 -0.1920  0.6145  0.4265
  475MOL0     C64006   3.740   1.222   5.077 -0.5402  0.0296 -0.5463
  475MOL0     N64007   3.833   1.110   5.040 -0.6197 -0.3838  0.0748
  475MOL0     C64008   3.878   1.082   4.913 -0.4155  0.4213  0.4283
  475MOL0     C64009   3.959   0.978   4.923  0.9989  0.6039 -0.3492
  475MOL0     C64010   4.039   0.916   4.811 -0.1242 -0.1598 -0.7429
  475MOL0     C64011   4.194   0.936   4.835  0.2458 -0.8460  0.2981
  475MOL0     C64012   4.244   1.074   4.834  0.2435  0.4340  0.3086
  475MOL0     C64013   4.394   1.082   4.855 -0.0730 -0.4613 -0.8383
  475MOL0     O64014   4.473   1.023   4.747 -0.1701 -0.5966 -0.6427
  475MOL0     C64015   4.609   1.042   4.759 -0.7002 -0.3639  0.8641
  475MOL0     C64016   4.683   1.043   4.636  0.8311  0.4208 -0.6174
  475MOL0     C64017   4.806   1.092   4.626  0.5618  0.9603 -0.5845
  475MOL0     C64018   4.874   1.119   4.747 -0.1848  0.1726 -0.1770
  475MOL0     C64019   5.014   1.168   4.732 -0.2938  1.0346  0.7151
  475MOL0     O64020   5.043   1.246   4.833 -0.0452 -0.0183 -0.0696
  475MOL0     C64021   5.171   1.281   4.869  0.0595  0.1657 -0.2998
  475MOL0     C64022   5.290   1.259   4.810  0.8078  0.5694  0.1106
  475MOL0     C64023   5.405   1.314   4.864  0.0477  0.6235  1.1141
  475MOL0     C64024   5.416   1.398   4.972  0.6288  0.7947  0.2182
  475MOL0     O64025   5.535   1.448   5.006 -0.4789 -0.3343  0.3981
  475MOL0     C64026   5.578   1.424   5.142  0.3662 -0.0484 -0.3420
  475MOL0     C64027   5.711   1.492   5.177  0.1067  0.0518 -0.1204
  475MOL0     C64028   5.739   1.481   5.325 -0.5541 -0.1832 -0.1238
  475MOL0     C64029   5.825   1.588   5.381 -0.6273  0.2176  0.0361
  475MOL0     C64030   5.968   1.601   5.322  0.4434 -0.3231 -0.4851
  475MOL0     C64031   6.050   1.716   5.389  1.1005 -0.7454  0.7659
  475MOL0     C64032   6.192   1.708   5.337  0.6341 -0.2407  0.3008
  475MOL0     C64033   6.267   1.840   5.376  1.3262  0.7920  0.6876
  475MOL0    Cl64034   6.433   1.781   5.349  0.0575  0.4240  0.5480
  475MOL0     C64035   5.288   1.424   5.033 -0.6244  0.3225 -0.3667
  475MOL0     C64036   5.168   1.368   4.985  0.6813  0.4443 -0.2732
  475MOL0     O64037   5.088   1.130   4.639  0.0349  1.1937  0.3992
  475MOL0     C64038   4.814   1.098   4.868  0.2077 -0.8105 -1.3381
  475MOL0     C64039   4.679   1.058   4.879 -0.7732 -0.3828 -0.4454
  475MOL0     N64040   3.958   0.945   5.062  0.1246  0.2451  0.2846
  475MOL0     N64041   3.873   1.017   5.131 -0.3850 -0.0898  0.7868
  475MOL0     C64042   2.634   1.333   5.155 -1.1941 -0.8070  0.3407
  475MOL0     C64043   2.496   1.310   5.168 -0.3545  0.6174 -0.6217
  475MOL0     C64044   2.064   1.166   5.080  0.5475 -0.2043 -0.3053
  475MOL0     C64045   1.977   1.144   4.968  0.7622  0.3538  0.3737
  475MOL0     C64046   1.840   1.110   4.992  0.6030  0.5304  0.0182
  475MOL0     C64047   1.805   1.071   5.121 -0.1791 -0.3872  0.4940
  475MOL0     O64048   1.689   1.006   5.152 -0.2157 -0.5759 -0.1130
  475MOL0     C64049   1.607   0.949   5.051 -0.0253  0.0402 -0.3895
  475MOL0     C64050   1.542   0.829   5.108  0.0263 -0.1321 -0.0084
  475MOL0     C64051   1.434   0.765   5.018 -0.1733 -0.6881 -0.2342
  475MOL0     C64052   1.404   0.630   5.083 -0.0351 -0.0839 -0.5454
  475MOL0     C64053   1.285   0.562   5.038 -0.5693 -0.3413 -0.3783
  475MOL0     C64054   1.185   0.509   4.997 -0.8149 -0.3849 -0.5085
  475MOL0     C64055   1.888   1.097   5.232 -0.4725 -0.5585 -0.4265
  475MOL0     C64056   2.020   1.145   5.214  0.1410  0.6342 -0.0665
  475MOL0     C64057   2.099   1.191   5.334  1.0886 -0.3246 -0.1086
  475MOL0     H64058   2.465   1.051   4.954  1.0474 -0.2018  0.4320
  475MOL0     H64059   2.690   1.101   4.918  1.3110 -0.8172  2.2197
  475MOL0     H64060   2.890   1.239   4.838 -0.0964 -0.0368 -0.6431
  475MOL0     H64061   2.841   1.415   4.855 -1.4637  1.1101  1.9858
  475MOL0     H64062   3.054   1.468   4.966  1.1977 -0.2451  1.3097
  475MOL0     H64063   3.080   1.415   4.804  0.5253 -1.7148  0.2306
  475MOL0     H64064   3.160   1.201   4.877  1.6632  0.2145  0.6157
  475MOL0     H64065   3.099   1.230   5.044  0.5911 -2.4599 -1.0946
  475MOL0     H64066   3.302   1.395   4.890 -1.7211  1.1387  0.3585
  475MOL0     H64067   3.249   1.411   5.061 -1.3860 -0.6024 -0.1848
  475MOL0     H64068   3.320   1.167   5.092 -0.8281 -0.0547 -0.1984
  475MOL0     H64069   3.379   1.161   4.932 -3.3984 -1.6772  1.0371
  475MOL0     H64070   3.531   1.368   5.000  2.0904  1.7420  2.4994
  475MOL0     H64071   3.494   1.329   5.163  3.6038 -0.9299  0.2556
  475MOL0     H64072   3.592   1.142   4.935  0.9799  1.8133 -0.0195
  475MOL0     H64073   3.579   1.085   5.105 -3.0670  2.1491  1.7329
  475MOL0     H64074   3.763   1.316   5.027  1.7764 -0.3492 -0.3274
  475MOL0     H64075   3.751   1.236   5.185 -1.5102 -1.1654 -0.2742
  475MOL0     H64076   3.845   1.137   4.826  1.5049  1.8208  0.5146
  475MOL0     H64077   4.009   0.812   4.797 -1.7263  0.3154 -1.0271
  475MOL0     H64078   4.018   0.969   4.718  1.3879  4.1963  1.1133
  475MOL0     H64079   4.217   0.885   4.929 -0.1376 -3.4165 -0.9131
  475MOL0     H64080   4.250   0.895   4.751 -1.1213  0.2216 -1.2114
  475MOL0     H64081   4.200   1.126   4.919 -1.2114 -0.2168 -0.0166
  475MOL0     H64082   4.216   1.125   4.742  0.9788  1.4404  0.6268
  475MOL0     H64083   4.419   1.036   4.952  1.6264  2.2560  0.1290
  475MOL0     H64084   4.413   1.187   4.876 -1.9188 -0.5512  1.8027
  475MOL0     H64085   4.622   1.017   4.550 -1.2344 -1.5567  1.3176
  475MOL0     H64086   4.838   1.117   4.525 -2.2184  1.6387 -1.3752
  475MOL0     H64087   5.302   1.211   4.713  1.5669  2.9167 -1.0416
  475MOL0     H64088   5.490   1.286   4.803 -0.8340  0.0536  0.0908
  475MOL0     H64089   5.503   1.448   5.217  1.6200 -1.3701  1.4403
  475MOL0     H64090   5.589   1.315   5.141 -1.4973 -0.2762 -1.8091
  475MOL0     H64091   5.795   1.460   5.114 -0.7139  2.4698 -2.6621
  475MOL0     H64092   5.699   1.599   5.161  1.6998  0.6029  2.0434
  475MOL0     H64093   5.645   1.487   5.381 -2.6991  1.2329 -3.5432
  475MOL0     H64094   5.782   1.383   5.349 -1.3612 -0.2477  1.1443
  475MOL0     H64095   5.851   1.563   5.484 -1.5328  2.8783  1.0039
  475MOL0     H64096   5.771   1.683   5.372  2.5203  2.0498 -1.2093
  475MOL0     H64097   5.952   1.612   5.215 -0.4553 -1.6638 -0.5155
  475MOL0     H64098   6.022   1.507   5.337  0.6017 -0.2951 -0.8856
  475MOL0     H64099   5.995   1.803   5.353  1.2321 -1.8726 -2.6055
  475MOL0     H64100   6.044   1.709   5.498 -0.8056  0.9014  0.8130
  475MOL0     H64101   6.197   1.707   5.228 -1.4011 -0.8928  0.1747
  475MOL0     H64102   6.248   1.624   5.378 -0.8066 -1.4561 -0.1422
  475MOL0     H64103   6.242   1.914   5.299 -1.7771 -0.6012  0.2168
  475MOL0     H64104   6.230   1.867   5.475 -3.5772 -1.2226 -0.3154
  475MOL0     H64105   5.280   1.478   5.126  0.3196 -0.2076  0.0323
  475MOL0     H64106   5.079   1.377   5.046 -0.0717  0.6203 -1.3530
  475MOL0     H64107   4.876   1.111   4.956 -0.9497 -0.0234 -0.6006
  475MOL0     H64108   4.636   1.049   4.978 -2.5272  0.5695 -1.0803
  475MOL0     H64109   2.685   1.400   5.224 -2.6209 -2.6282  3.3982
  475MOL0     H64110   2.444   1.369   5.243  0.5815  2.0645 -1.0499
  475MOL0     H64111   2.022   1.160   4.871 -0.6483  1.4683 -0.1325
  475MOL0     H64112   1.761   1.092   4.920 -1.1150  2.0870  1.4107
  475MOL0     H64113   1.675   0.912   4.974  1.3429  0.7391  0.4365
  475MOL0     H64114   1.541   1.022   5.003  1.6068 -0.0191 -2.9578
  475MOL0     H64115   1.493   0.869   5.197  0.1594 -0.8352  0.3855
  475MOL0     H64116   1.620   0.761   5.142  1.4284  1.9960  1.2288
  475MOL0     H64117   1.467   0.747   4.915 -1.2457  2.6372 -1.2946
  475MOL0     H64118   1.353   0.839   5.013 -0.6049 -1.1857 -0.7663
  475MOL0     H64119   1.493   0.568   5.075  1.3975  1.2733  2.7782
  475MOL0     H64120   1.389   0.651   5.190 -4.2379  1.1521 -1.1900
  475MOL0     H64121   1.094   0.459   4.970 -0.9237 -0.2236 -0.4399
  475MOL0     H64122   1.850   1.087   5.333  0.5135  0.7959  0.0947
  475MOL0     H64123   2.033   1.172   5.419 -1.3105 -1.4697 -2.1059
  475MOL0     H64124   2.184   1.122   5.341  0.7224 -0.7726 -0.0985
  475MOL0     H64125   2.133   1.295   5.326 -0.5417  0.1135 -2.0422
  476MOL0     O64126   8.708   3.075   7.356  0.5750 -0.2905  0.6366
  476MOL0     C64127   8.713   3.102   7.235 -0.7098  0.0372 -0.4924
  476MOL0     O64128   8.835   3.099   7.168 -0.4962 -0.3367  0.4161
  476MOL0     C64129   8.941   3.024   7.220 -0.2305 -0.6156  0.1073
  476MOL0     C64130   8.930   2.912   7.302  0.6827  0.4103  0.3618
  476MOL0     C64131   9.046   2.840   7.338  0.0931 -0.8829 -0.5182
  476MOL0     C64132   9.169   2.875   7.297 -0.6667  0.1069  0.3713
  476MOL0     O64133   9.265   2.788   7.323 -0.4836 -0.6344 -0.0105
  476MOL0     C64134   9.406   2.818   7.280  0.6188  0.2099 -0.4178
  476MOL0     C64135   9.503   2.697   7.289  0.0007  0.1912 -0.0662
  476MOL0     C64136   9.644   2.740   7.294 -0.0124 -0.0341  0.0718
  476MOL0     C64137   9.683   2.805   7.161  0.0478  0.0368 -0.2719
  476MOL0     C64138   9.832   2.853   7.173  0.7071 -0.6661  0.3461
  476MOL0     C64139   9.877   2.926   7.049  0.7272 -0.0136  0.2952
  476MOL0     C64140  10.024   2.965   7.052 -0.1673 -0.1844 -0.2847
  476MOL0     C64141  10.072   2.989   6.904 -0.3967  0.7403  0.2965
  476MOL0     N64142  10.211   3.032   6.910 -0.2107 -0.4309 -0.1854
  476MOL0     C64143  10.330   2.961   6.920  0.3778 -0.1040 -0.4821
  476MOL0     C64144  10.426   3.063   6.916 -0.1949 -0.6780  0.3781
  476MOL0     C64145  10.578   3.052   6.901  0.2442  0.7088 -0.2134
  476MOL0     C64146  10.623   3.150   6.795  1.4495 -0.4122 -0.7554
  476MOL0     C64147  10.775   3.137   6.763  0.1963 -0.4261  0.3896
  476MOL0     C64148  10.876   3.165   6.878 -0.1380  0.3812  0.5111
  476MOL0     O64149  11.000   3.203   6.819  0.1822 -0.8521 -0.3251
  476MOL0     C64150  11.096   3.264   6.903  0.8747 -0.7081 -0.5414
  476MOL0     C64151  11.208   3.327   6.842 -0.4966 -0.1451  0.0357
  476MOL0     C64152  11.320   3.365   6.910  0.2303  0.5243 -0.1836
  476MOL0     C64153  11.316   3.366   7.048 -0.5402  0.8812  0.1836
  476MOL0     C64154  11.437   3.401   7.131  0.0275  0.4076  0.3484
  476MOL0     O64155  11.546   3.438   7.059  0.6280 -0.2143 -0.3843
  476MOL0     C64156  11.655   3.477   7.136 -0.0198 -0.5615  0.3875
  476MOL0     C64157  11.749   3.390   7.178 -0.5492  0.2399  0.1220
  476MOL0     C64158  11.854   3.430   7.265  0.4068 -0.9590 -0.6908
  476MOL0     C64159  11.846   3.562   7.321 -0.9291  0.4299  1.5517
  476MOL0     O64160  11.916   3.614   7.426  0.0443  0.6249  0.0047
  476MOL0     C64161  12.005   3.538   7.503  0.2244  1.3668  0.4571
  476MOL0     C64162  12.076   3.639   7.589 -0.3855  0.8040 -0.0085
  476MOL0     C64163  12.221   3.580   7.634  0.7727 -0.1057  0.4502
  476MOL0     C64164  12.297   3.677   7.723 -0.0506  0.2416  0.5365
  476MOL0     C64165  12.439   3.630   7.743  0.0527 -0.5590  0.4269
  476MOL0     C64166  12.524   3.722   7.825  0.3179  0.3161 -0.7714
  476MOL0     C64167  12.640   3.643   7.885  0.2389  0.3216 -0.3760
  476MOL0     C64168  12.748   3.739   7.936  0.5065 -0.2452  0.3195
  476MOL0    Cl64169  12.893   3.648   7.991  0.2544 -0.1525 -0.0046
  476MOL0     C64170  11.750   3.648   7.272 -0.5649 -0.2748 -0.0073
  476MOL0     C64171  11.654   3.607   7.178  0.3897  0.3193  0.0410
  476MOL0     O64172  11.428   3.386   7.249  0.0171 -0.4007 -0.2547
  476MOL0     C64173  11.201   3.325   7.118 -0.1136 -0.1874  0.8439
  476MOL0     C64174  11.095   3.273   7.046 -0.4853 -1.0666 -0.0674
  476MOL0     N64175  10.359   3.190   6.924  0.1446  0.0628 -0.1751
  476MOL0     N64176  10.237   3.164   6.928  0.2841  0.4476  0.7321
  476MOL0     C64177   9.180   2.984   7.206 -0.5284  0.4021 -0.5979
  476MOL0     C64178   9.070   3.051   7.169 -0.7584 -1.2716  0.8665
  476MOL0     C64179   8.605   3.165   7.161 -0.0430 -0.2281  0.2949
  476MOL0     C64180   8.630   3.284   7.093 -0.5740  0.4058  0.0324
  476MOL0     C64181   8.531   3.364   7.034  0.1549  0.1042  0.4467
  476MOL0     C64182   8.401   3.315   7.028  0.2039 -0.5908  0.0981
  476MOL0     O64183   8.310   3.401   6.972 -0.4516 -0.0630 -0.8051
  476MOL0     C64184   8.171   3.358   6.958 -0.6929  0.3045 -0.7793
  476MOL0     C64185   8.122   3.406   6.828  0.3795  0.3497 -0.7523
  476MOL0     C64186   7.969   3.383   6.801  0.4385 -0.8337  1.0133
  476MOL0     C64187   7.926   3.237   6.820  0.5840 -0.4575  0.3123
  476MOL0     C64188   7.785   3.231   6.795 -0.1158 -0.0496 -0.8797
  476MOL0     C64189   7.668   3.221   6.765  0.6071 -0.3690 -0.1516
  476MOL0     C64190   8.372   3.197   7.092  0.4750 -0.2681  0.4806
  476MOL0     C64191   8.467   3.117   7.166  0.0457 -0.3564  0.3138
  476MOL0     C64192   8.435   3.014   7.264  0.3358 -0.0002  0.3877
  476MOL0     H64193   8.827   2.881   7.316  0.5639 -0.2704 -1.6652
  476MOL0     H64194   9.036   2.756   7.406  2.0782 -1.3838 -0.7829
  476MOL0     H64195   9.405   2.850   7.175 -0.9610 -0.8420 -0.7610
  476MOL0     H64196   9.448   2.898   7.341  0.5957 -2.3911  3.3397
  476MOL0     H64197   9.490   2.624   7.208  3.6118 -2.1564  1.2470
  476MOL0     H64198   9.488   2.626   7.371 -1.0753 -0.4657 -0.7959
  476MOL0     H64199   9.711   2.657   7.318  2.4564  1.4918 -1.1324
  476MOL0     H64200   9.651   2.815   7.373  0.2257  1.1000 -0.9965
  476MOL0     H64201   9.665   2.741   7.074 -2.6971  2.4682 -1.6639
  476MOL0     H64202   9.622   2.893   7.140  1.5994  1.2048 -0.0003
  476MOL0     H64203   9.835   2.922   7.257 -0.9482  0.5784 -0.5763
  476MOL0     H64204   9.896   2.766   7.193  0.5967 -1.1344 -1.1644
  476MOL0     H64205   9.857   2.856   6.967 -0.9365  0.3799  0.3424
  476MOL0     H64206   9.813   3.012   7.028  2.9227  2.4660  2.8485
  476MOL0     H64207  10.080   2.889   7.108  0.2434  0.4824  0.2245
  476MOL0     H64208  10.031   3.055   7.114  2.6248  0.2859 -1.1401
  476MOL0     H64209  10.060   2.902   6.838 -1.3406  0.1887  1.1555
  476MOL0     H64210  10.010   3.065   6.855 -1.8272 -1.0349 -0.8171
  476MOL0     H64211  10.347   2.854   6.925  0.6920 -0.0804 -0.9874
  476MOL0     H64212  10.629   3.062   6.998 -2.5523  1.2134  1.3035
  476MOL0     H64213  10.605   2.953   6.863 -3.6748 -0.3895 -0.5473
  476MOL0     H64214  10.559   3.148   6.706  0.0328 -0.1587  0.2213
  476MOL0     H64215  10.607   3.254   6.825 -2.4379 -1.1168  0.2746
  476MOL0     H64216  10.789   3.206   6.679 -2.4033 -1.8722 -1.3816
  476MOL0     H64217  10.786   3.042   6.710 -1.4089 -0.1585 -0.4901
  476MOL0     H64218  10.872   3.068   6.928  0.3391 -1.1004 -2.0869
  476MOL0     H64219  10.848   3.245   6.947 -0.6004  0.6788 -0.0168
  476MOL0     H64220  11.203   3.336   6.734 -0.3134 -0.4053  0.0043
  476MOL0     H64221  11.404   3.408   6.857  0.6278 -0.3762 -0.2951
  476MOL0     H64222  11.741   3.289   7.139  0.4192  0.1176  0.2167
  476MOL0     H64223  11.929   3.364   7.306  1.5596  1.4038  1.2015
  476MOL0     H64224  11.949   3.470   7.568 -0.4869  0.1024 -1.3641
  476MOL0     H64225  12.077   3.474   7.450  0.5830  0.4456  1.9982
  476MOL0     H64226  12.100   3.730   7.533 -2.1314  2.3616  1.6118
  476MOL0     H64227  12.019   3.655   7.681  2.4304 -0.6359  2.1483
  476MOL0     H64228  12.205   3.481   7.676 -0.9732 -0.4570 -0.9016
  476MOL0     H64229  12.273   3.570   7.538 -2.1623 -1.0014 -1.1633
  476MOL0     H64230  12.253   3.678   7.823  2.0209 -0.5802  1.5075
  476MOL0     H64231  12.296   3.779   7.684  0.5205  0.6826  1.6208
  476MOL0     H64232  12.475   3.619   7.640  0.2993 -2.0479  0.6573
  476MOL0     H64233  12.436   3.528   7.782  2.8419 -0.5242  0.9271
  476MOL0     H64234  12.555   3.814   7.776 -1.2078  1.9320  1.1262
  476MOL0     H64235  12.469   3.765   7.909  0.0699 -0.0965 -0.7211
  476MOL0     H64236  12.679   3.570   7.814  1.2909 -1.2382  1.7108
  476MOL0     H64237  12.612   3.590   7.976  0.4084  1.3468  0.3009
  476MOL0     H64238  12.777   3.814   7.862  4.1161  1.3017  3.0212
  476MOL0     H64239  12.711   3.791   8.025 -1.0822  1.7115 -1.3713
  476MOL0     H64240  11.740   3.748   7.313  1.3298 -0.7139  1.6698
  476MOL0     H64241  11.576   3.679   7.152 -0.2513 -0.3465  0.0740
  476MOL0     H64242  11.193   3.338   7.225  0.8117 -2.2550  1.2221
  476MOL0     H64243  11.001   3.233   7.083 -1.5295 -0.9341 -2.3883
  476MOL0     H64244   9.280   3.016   7.178  1.1125 -0.3345  3.7227
  476MOL0     H64245   9.072   3.132   7.097  3.3701 -1.3364  0.6574
  476MOL0     H64246   8.732   3.319   7.079 -0.4577  0.2246  0.4101
  476MOL0     H64247   8.545   3.459   6.985 -2.1542 -0.7361 -2.0929
  476MOL0     H64248   8.110   3.410   7.033 -1.9189  3.0368 -3.4868
  476MOL0     H64249   8.156   3.249   6.964  2.2957 -0.1721 -0.6455
  476MOL0     H64250   8.174   3.342   6.758  0.3227  0.3827 -0.8250
  476MOL0     H64251   8.145   3.513   6.820  1.5001  0.1647 -0.1189
  476MOL0     H64252   7.949   3.397   6.695 -1.8819 -1.1115  1.3595
  476MOL0     H64253   7.902   3.449   6.857 -2.0005 -1.7638 -0.6393
  476MOL0     H64254   7.984   3.168   6.758 -0.4572  0.2662 -1.5436
  476MOL0     H64255   7.943   3.207   6.924  2.0332 -0.8686 -0.0122
  476MOL0     H64256   7.568   3.205   6.728  0.2306 -1.0091  1.0909
  476MOL0     H64257   8.272   3.157   7.105  0.3132 -0.0429 -0.0699
  476MOL0     H64258   8.332   2.983   7.247  0.4256  0.0616 -0.2950
  476MOL0     H64259   8.498   2.924   7.261  1.3434  0.6204  1.8203
  476MOL0     H64260   8.449   3.060   7.362  2.6164 -0.2672  0.2440
  477MOL0     O64261   8.634   8.791   6.373 -0.6588 -0.0420 -0.1028
  477MOL0     C64262   8.537   8.865   6.358  0.1071  0.1641  0.5017
  477MOL0     O64263   8.486   8.946   6.460 -1.2531  0.2448  0.1360
  477MOL0     C64264   8.547   8.934   6.580 -0.4798 -0.2937 -0.3993
  477MOL0     C64265   8.488   8.894   6.702  0.7889 -0.9021 -0.6537
  477MOL0     C64266   8.552   8.891   6.821  0.2219  0.1418 -0.0857
  477MOL0     C64267   8.684   8.937   6.824 -0.4433 -0.4062 -0.0316
  477MOL0     O64268   8.748   8.920   6.945 -0.0123 -0.6315  0.0514
  477MOL0     C64269   8.890   8.922   6.943 -0.0180  0.2901  0.2349
  477MOL0     C64270   8.945   8.933   7.084 -0.0363 -1.1304  0.3252
  477MOL0     C64271   9.080   8.874   7.085 -0.4603 -0.5760 -0.9814
  477MOL0     C64272   9.160   8.932   7.203  0.0954 -0.4374 -0.4242
  477MOL0     C64273   9.299   8.876   7.194 -0.2034 -0.3670  0.1886
  477MOL0     C64274   9.395   8.947   7.294 -1.1003 -0.2024  0.7949
  477MOL0     C64275   9.364   8.934   7.438  0.9978  0.0025  0.7271
  477MOL0     C64276   9.403   9.050   7.534 -0.6637 -0.1532  0.1741
  477MOL0     N64277   9.546   9.079   7.525  0.3348 -0.5238  0.0045
  477MOL0     C64278   9.639   9.068   7.624 -0.3881  0.0699 -1.2104
  477MOL0     C64279   9.760   9.075   7.561  0.2896 -0.0189 -0.3074
  477MOL0     C64280   9.878   9.039   7.640  0.2686  0.1151 -0.1653
  477MOL0     C64281   9.985   9.150   7.640 -0.5537 -0.1658 -0.1991
  477MOL0     C64282  10.077   9.149   7.514  0.2747  0.2400 -0.3228
  477MOL0     C64283  10.212   9.219   7.547  1.4179  0.8177  0.4828
  477MOL0     O64284  10.291   9.139   7.633  0.7838  0.8652 -0.4436
  477MOL0     C64285  10.405   9.189   7.686 -0.3128  0.2933 -0.5695
  477MOL0     C64286  10.481   9.292   7.625  0.5999 -0.1036 -0.0960
  477MOL0     C64287  10.609   9.326   7.672  0.1744 -1.3201 -0.2557
  477MOL0     C64288  10.663   9.253   7.778 -0.3539 -0.5907 -0.0256
  477MOL0     C64289  10.806   9.275   7.813 -0.6408  0.0297  0.5623
  477MOL0     O64290  10.873   9.375   7.752  0.1395  0.0419 -0.1404
  477MOL0     C64291  11.011   9.376   7.771 -0.1824 -0.8575 -0.0018
  477MOL0     C64292  11.095   9.268   7.730 -0.2193  0.2419  0.0513
  477MOL0     C64293  11.228   9.266   7.743  0.2330 -0.2697  0.2426
  477MOL0     C64294  11.295   9.370   7.812  0.7861 -1.5706 -1.0717
  477MOL0     O64295  11.426   9.369   7.843 -0.1139  0.1581 -0.0189
  477MOL0     C64296  11.512   9.272   7.772  0.3671 -0.0959  0.9365
  477MOL0     C64297  11.656   9.308   7.804  0.3505 -0.1081 -0.6441
  477MOL0     C64298  11.743   9.251   7.689 -0.6420  0.5471 -0.7548
  477MOL0     C64299  11.896   9.258   7.713 -0.1898 -0.8371 -0.1987
  477MOL0     C64300  11.971   9.176   7.609  0.4505  0.2227 -0.0081
  477MOL0     C64301  12.118   9.178   7.635  0.1344 -0.1429  0.2922
  477MOL0     C64302  12.180   9.113   7.513 -0.1898 -0.4154 -0.4764
  477MOL0     C64303  12.333   9.115   7.514  0.5831 -0.1977  0.8121
  477MOL0    Cl64304  12.407   9.081   7.666  0.4907  0.0244 -0.3080
  477MOL0     C64305  11.207   9.474   7.870 -0.7959  0.1397  0.4647
  477MOL0     C64306  11.073   9.478   7.845  0.7765 -0.1267  0.5143
  477MOL0     O64307  10.856   9.198   7.890 -0.3416  0.4834 -0.0196
  477MOL0     C64308  10.593   9.144   7.836 -0.1772  0.1332  0.0823
  477MOL0     C64309  10.469   9.104   7.783 -0.0769 -0.1732 -0.0940
  477MOL0     N64310   9.741   9.114   7.436 -0.2945 -0.6914 -0.3681
  477MOL0     N64311   9.611   9.128   7.413 -0.2521  0.1758  0.2051
  477MOL0     C64312   8.750   8.993   6.710 -0.3606  0.7056 -0.7347
  477MOL0     C64313   8.676   8.982   6.594 -0.4516 -0.0238  0.0022
  477MOL0     C64314   8.456   8.871   6.234  1.3611 -0.6955 -1.1087
  477MOL0     C64315   8.322   8.919   6.246 -0.4067  0.0810  0.5039
  477MOL0     C64316   8.235   8.933   6.139  0.2311  0.4223 -0.2013
  477MOL0     C64317   8.269   8.899   6.008 -0.8030 -0.0593  0.1260
  477MOL0     O64318   8.188   8.891   5.898  0.1897 -0.7002 -0.3237
  477MOL0     C64319   8.059   8.953   5.903 -0.5923  0.9108  0.7206
  477MOL0     C64320   7.992   8.950   5.768  0.1316 -0.0028  0.2883
  477MOL0     C64321   8.078   9.038   5.665  0.4052  0.4890 -1.1724
  477MOL0     C64322   8.003   9.079   5.534 -0.4927 -1.1029 -0.0376
  477MOL0     C64323   7.890   9.173   5.558  0.0278 -0.4135  0.8305
  477MOL0     C64324   7.794   9.248   5.576  1.2654  0.1441  0.4534
  477MOL0     C64325   8.406   8.855   5.995 -0.4507  0.5123 -0.0078
  477MOL0     C64326   8.498   8.837   6.106  1.1963  0.4085  0.2580
  477MOL0     C64327   8.641   8.788   6.078  0.4138 -0.2904 -0.6984
  477MOL0     H64328   8.387   8.858   6.683  1.3239 -1.3266 -2.9735
  477MOL0     H64329   8.496   8.867   6.910  1.5677  1.8785  1.3000
  477MOL0     H64330   8.924   8.826   6.902 -0.8561 -0.2378  0.7391
  477MOL0     H64331   8.920   9.012   6.889 -3.2284  0.8661 -0.8394
  477MOL0     H64332   8.888   8.871   7.154  0.6824 -1.5380  0.5626
  477MOL0     H64333   8.938   9.040   7.109 -3.5928 -0.7838 -1.4910
  477MOL0     H64334   9.129   8.895   6.989 -0.1685 -0.9383 -0.9165
  477MOL0     H64335   9.080   8.765   7.081  3.8496 -0.8319  0.0973
  477MOL0     H64336   9.151   9.041   7.199 -0.2027 -0.4532 -0.2113
  477MOL0     H64337   9.114   8.894   7.294  0.5022 -0.5596 -0.2677
  477MOL0     H64338   9.290   8.770   7.219  1.7107 -0.6136 -0.0203
  477MOL0     H64339   9.329   8.892   7.090 -1.6322 -1.9049 -0.5044
  477MOL0     H64340   9.500   8.919   7.279 -0.2795  1.8618  2.1939
  477MOL0     H64341   9.384   9.052   7.266 -3.4303 -0.1983  1.4819
  477MOL0     H64342   9.405   8.839   7.475  0.6546 -0.8439 -0.9829
  477MOL0     H64343   9.256   8.934   7.458  1.1062  0.0518  1.3512
  477MOL0     H64344   9.345   9.141   7.514 -1.7309 -0.6241  1.0101
  477MOL0     H64345   9.377   9.020   7.636  0.2825 -1.8209 -0.0328
  477MOL0     H64346   9.618   9.034   7.725 -0.4672 -1.8634 -1.8457
  477MOL0     H64347   9.837   9.018   7.739 -2.4908  1.7204 -0.8730
  477MOL0     H64348   9.917   8.948   7.592 -0.5290 -0.5660  0.4674
  477MOL0     H64349   9.945   9.250   7.656 -1.5598 -0.3926 -1.1724
  477MOL0     H64350  10.051   9.127   7.724  1.1807 -0.3655 -1.5618
  477MOL0     H64351  10.028   9.205   7.434 -0.6020  0.4315  0.3231
  477MOL0     H64352  10.078   9.044   7.484 -4.5221 -0.4169  0.8606
  477MOL0     H64353  10.187   9.316   7.593 -1.6074 -0.5496  2.0676
  477MOL0     H64354  10.268   9.234   7.455  2.0457  1.1849  0.9125
  477MOL0     H64355  10.450   9.350   7.539 -3.7234  1.3246  2.1751
  477MOL0     H64356  10.666   9.398   7.614 -0.0319  0.5446  1.6956
  477MOL0     H64357  11.051   9.181   7.683  0.5252 -0.4600  0.6288
  477MOL0     H64358  11.283   9.181   7.705  0.3914 -0.7156  1.4163
  477MOL0     H64359  11.494   9.167   7.797  0.5979 -0.8061 -1.5621
  477MOL0     H64360  11.488   9.277   7.665 -1.2009 -0.2958  1.2477
  477MOL0     H64361  11.668   9.417   7.812 -2.9959  0.5299 -2.6366
  477MOL0     H64362  11.680   9.264   7.902  0.3319  0.7488 -0.2432
  477MOL0     H64363  11.717   9.146   7.675 -1.5446  0.8801 -1.6919
  477MOL0     H64364  11.725   9.303   7.594 -2.0859 -1.4098 -1.6328
  477MOL0     H64365  11.917   9.231   7.817 -2.0968  1.3980  0.8740
  477MOL0     H64366  11.934   9.360   7.702  0.5057 -1.2207 -1.4901
  477MOL0     H64367  11.948   9.210   7.508  1.0535 -0.2529 -0.3110
  477MOL0     H64368  11.946   9.070   7.611  1.6022 -0.0636  2.1562
  477MOL0     H64369  12.153   9.281   7.634 -0.6447  0.1308  0.3512
  477MOL0     H64370  12.144   9.137   7.734  2.3142 -0.4297 -0.3492
  477MOL0     H64371  12.137   9.154   7.421 -0.8082 -1.2203 -0.5611
  477MOL0     H64372  12.150   9.008   7.507  0.7770 -0.6126 -3.9706
  477MOL0     H64373  12.371   9.038   7.446  2.8661  1.0530  0.5457
  477MOL0     H64374  12.363   9.217   7.487 -0.3392 -0.4608 -1.4545
  477MOL0     H64375  11.245   9.553   7.934  2.0634 -1.6478  1.1691
  477MOL0     H64376  11.024   9.564   7.888  1.7556 -0.0574  1.5297
  477MOL0     H64377  10.633   9.080   7.914  1.9299  0.2766 -0.8255
  477MOL0     H64378  10.412   9.017   7.815 -2.3414  0.5849 -1.8046
  477MOL0     H64379   8.852   9.029   6.711  0.0651 -0.4446  0.0307
  477MOL0     H64380   8.718   9.027   6.504 -1.2867  1.0740  0.1445
  477MOL0     H64381   8.283   8.944   6.344 -1.2790  0.0642  0.1611
  477MOL0     H64382   8.132   8.962   6.159  0.2212  0.4828 -0.3376
  477MOL0     H64383   8.079   9.051   5.945  2.2302  0.8784 -0.3590
  477MOL0     H64384   7.997   8.892   5.969 -1.3206  1.1943  0.3128
  477MOL0     H64385   7.887   8.978   5.772 -0.2429 -1.3869  0.6001
  477MOL0     H64386   7.993   8.849   5.727 -2.6537 -0.0892  0.2685
  477MOL0     H64387   8.161   8.971   5.640  0.0917 -0.4096  0.0887
  477MOL0     H64388   8.116   9.123   5.722 -1.1572  0.8458 -0.6135
  477MOL0     H64389   8.078   9.130   5.474 -2.7937  0.2971 -1.8978
  477MOL0     H64390   7.972   8.997   5.469 -0.2253 -0.2410 -1.2881
  477MOL0     H64391   7.719   9.323   5.591  0.1712 -0.6465 -0.8058
  477MOL0     H64392   8.459   8.819   5.907  1.0423  1.0142  0.6520
  477MOL0     H64393   8.677   8.718   6.153 -0.0425 -0.1076 -0.2996
  477MOL0     H64394   8.652   8.735   5.983 -0.0772 -0.0390 -0.9022
  477MOL0     H64395   8.707   8.876   6.073 -1.2726  1.3130  2.3676
  478MOL0     O64396   5.601   7.058   3.367  0.2307  0.0543 -0.2655
  478MOL0     C64397   5.531   7.042   3.461 -1.0132 -0.2793  0.0474
  478MOL0     O64398   5.579   7.021   3.590 -0.4770 -0.6678  0.3634
  478MOL0     C64399   5.714   7.049   3.616  0.3209 -0.7025 -0.5952
  478MOL0     C64400   5.787   6.962   3.689 -0.1350 -0.0289  0.0220
  478MOL0     C64401   5.922   6.980   3.732  0.6745  0.9464 -0.2418
  478MOL0     C64402   5.990   7.096   3.709 -0.4617 -0.1726  0.1957
  478MOL0     O64403   6.120   7.100   3.755 -0.0054  0.2508  0.1336
  478MOL0     C64404   6.202   7.217   3.767 -0.2521 -0.3700  0.8417
  478MOL0     C64405   6.322   7.174   3.842  1.1817 -0.0522 -0.2557
  478MOL0     C64406   6.430   7.277   3.839 -0.3929 -0.5802 -0.5856
  478MOL0     C64407   6.552   7.229   3.917  0.2176 -0.1865 -0.0847
  478MOL0     C64408   6.666   7.324   3.898  0.1728 -0.4444  0.3455
  478MOL0     C64409   6.759   7.332   4.014 -0.3786  0.6604 -0.8463
  478MOL0     C64410   6.876   7.435   3.993 -0.8719  0.2758  0.7981
  478MOL0     C64411   6.999   7.351   3.929 -0.8885  0.3964  0.3842
  478MOL0     N64412   7.119   7.427   3.948 -0.1461  0.7423  0.1258
  478MOL0     C64413   7.124   7.559   3.967 -0.0691 -1.0526  0.9392
  478MOL0     C64414   7.248   7.592   4.012  0.7663 -0.5844 -0.4299
  478MOL0     C64415   7.294   7.728   4.043 -0.3760 -0.5363  0.4513
  478MOL0     C64416   7.449   7.739   4.014 -0.2589 -0.0427 -0.7425
  478MOL0     C64417   7.501   7.881   4.015  0.2185 -0.2954  0.5644
  478MOL0     C64418   7.652   7.889   4.030 -0.3482 -0.5185 -0.3656
  478MOL0     O64419   7.699   7.827   4.154  0.4661  0.2253  0.2312
  478MOL0     C64420   7.827   7.839   4.205 -0.4752  0.6973  0.1108
  478MOL0     C64421   7.934   7.907   4.151 -0.9015  0.4279  0.2139
  478MOL0     C64422   8.061   7.915   4.216  0.5200  0.4503  0.5730
  478MOL0     C64423   8.079   7.855   4.338  0.4200 -0.0405  0.7702
  478MOL0     C64424   8.213   7.848   4.401  0.5724  0.1447  0.5196
  478MOL0     O64425   8.231   7.761   4.507 -0.4418 -0.7580  0.1734
  478MOL0     C64426   8.348   7.753   4.575  0.0094 -0.8689  0.2655
  478MOL0     C64427   8.462   7.700   4.513 -0.5670  0.0577  0.3270
  478MOL0     C64428   8.579   7.668   4.589 -0.3466 -1.3140 -0.2715
  478MOL0     C64429   8.585   7.701   4.730  0.1486  0.3517  1.2426
  478MOL0     O64430   8.696   7.681   4.798  0.2625 -0.1551  0.3438
  478MOL0     C64431   8.769   7.801   4.832  0.1691 -0.3397  1.0243
  478MOL0     C64432   8.923   7.776   4.861 -0.8024  0.2713  0.4919
  478MOL0     C64433   8.976   7.895   4.947 -0.2056 -0.4226 -0.7278
  478MOL0     C64434   9.116   7.860   4.997 -0.2347  0.5454  0.4673
  478MOL0     C64435   9.201   7.980   5.056  0.7830  1.0448  0.0045
  478MOL0     C64436   9.347   7.941   5.090 -0.4016 -0.7853 -0.1232
  478MOL0     C64437   9.428   8.067   5.125 -0.5365 -0.6475 -0.2535
  478MOL0     C64438   9.574   8.053   5.123 -0.5888  0.7623  0.2346
  478MOL0    Cl64439   9.632   8.007   4.966  0.3860  0.1892  0.1189
  478MOL0     C64440   8.464   7.743   4.788 -0.2804 -0.5847 -0.0527
  478MOL0     C64441   8.351   7.784   4.717  0.0372 -0.9199  0.6515
  478MOL0     O64442   8.304   7.913   4.354  0.1292 -0.2688 -0.2381
  478MOL0     C64443   7.971   7.793   4.393  1.6746  0.2770  0.0418
  478MOL0     C64444   7.849   7.777   4.328 -0.1329 -1.0607 -0.8863
  478MOL0     N64445   7.311   7.472   4.025 -0.2421  0.5157  1.0928
  478MOL0     N64446   7.239   7.381   3.989  0.5541 -0.0423 -0.5683
  478MOL0     C64447   5.919   7.191   3.627 -0.8499  0.4592 -0.5980
  478MOL0     C64448   5.778   7.172   3.591 -0.8769 -0.0121  0.5927
  478MOL0     C64449   5.378   7.058   3.441  0.0129  0.2170 -0.4740
  478MOL0     C64450   5.295   7.052   3.556  0.0133 -0.4520 -0.3511
  478MOL0     C64451   5.164   7.089   3.550 -0.0510  0.5682 -0.5814
  478MOL0     C64452   5.103   7.104   3.428 -0.2739  0.1467 -0.2778
  478MOL0     O64453   4.974   7.136   3.414  0.0551  0.4743  0.1760
  478MOL0     C64454   4.913   7.213   3.517 -0.1403 -0.4399 -1.0724
  478MOL0     C64455   4.784   7.259   3.449  0.0531 -0.5556  0.0937
  478MOL0     C64456   4.683   7.148   3.415  0.4674  0.1675 -1.0244
  478MOL0     C64457   4.553   7.211   3.362 -0.0592 -0.4084 -0.1136
  478MOL0     C64458   4.559   7.255   3.220  0.1312  0.3137 -0.8456
  478MOL0     C64459   4.561   7.296   3.108  0.3237 -1.2633 -0.5936
  478MOL0     C64460   5.179   7.103   3.316  0.1684 -0.2801 -0.0836
  478MOL0     C64461   5.322   7.078   3.312  0.4463  0.2417 -0.2558
  478MOL0     C64462   5.388   7.064   3.184 -0.4712  0.0396  0.0858
  478MOL0     H64463   5.749   6.860   3.688 -0.8591  0.1271 -3.3417
  478MOL0     H64464   5.978   6.903   3.784  1.3658  1.8178  0.3136
  478MOL0     H64465   6.227   7.257   3.669 -1.5209 -0.6972  0.3668
  478MOL0     H64466   6.147   7.296   3.819  0.5673  1.7627 -1.3883
  478MOL0     H64467   6.361   7.090   3.784  0.2226 -1.6690  1.3522
  478MOL0     H64468   6.293   7.133   3.940  0.0613  1.5305  0.1109
  478MOL0     H64469   6.396   7.365   3.894 -0.3610  0.4329 -2.1127
  478MOL0     H64470   6.461   7.292   3.735  0.6049 -0.6619 -0.3092
  478MOL0     H64471   6.524   7.219   4.022 -1.2541 -0.2305 -0.4628
  478MOL0     H64472   6.575   7.124   3.897 -1.1440 -0.3946 -0.7008
  478MOL0     H64473   6.715   7.308   3.801 -0.5408  0.8747 -0.2633
  478MOL0     H64474   6.623   7.424   3.881  0.4176 -0.0756  1.7892
  478MOL0     H64475   6.699   7.363   4.100  0.0989  0.2234 -0.3439
  478MOL0     H64476   6.795   7.233   4.041 -0.6989 -0.1989 -3.3148
  478MOL0     H64477   6.911   7.499   4.075 -1.0622  3.1703 -1.2126
  478MOL0     H64478   6.848   7.514   3.923  2.2466  2.0038  1.3081
  478MOL0     H64479   7.019   7.259   3.985  3.4354  0.9287  0.0758
  478MOL0     H64480   6.978   7.321   3.827  0.6525 -0.7359  0.3611
  478MOL0     H64481   7.040   7.626   3.950  0.2260 -1.1521 -1.2602
  478MOL0     H64482   7.242   7.796   3.975 -0.5056 -0.7662  0.3172
  478MOL0     H64483   7.274   7.760   4.146  0.7659  0.1761  0.4635
  478MOL0     H64484   7.516   7.680   4.078  3.8898  4.1531 -0.7107
  478MOL0     H64485   7.458   7.686   3.918 -1.5843 -0.2798 -0.7568
  478MOL0     H64486   7.437   7.930   4.090  1.1370  0.3325  0.9557
  478MOL0     H64487   7.476   7.941   3.927 -1.6382 -1.8904 -0.0585
  478MOL0     H64488   7.685   7.993   4.040 -0.6285 -0.3914 -0.7431
  478MOL0     H64489   7.699   7.855   3.938 -2.1252  0.4282 -1.6823
  478MOL0     H64490   7.928   7.952   4.052  0.4397 -1.5620 -0.8319
  478MOL0     H64491   8.142   7.968   4.168 -0.3004  1.6386  0.4500
  478MOL0     H64492   8.471   7.685   4.406  3.4507 -1.1084  0.6591
  478MOL0     H64493   8.663   7.616   4.545 -0.7710 -0.4263 -2.2710
  478MOL0     H64494   8.755   7.876   4.754  0.6885 -0.1164  1.1422
  478MOL0     H64495   8.728   7.843   4.925  0.0576 -0.0999  0.8671
  478MOL0     H64496   8.924   7.681   4.915 -1.1560 -0.4972 -0.8174
  478MOL0     H64497   8.971   7.750   4.767 -0.8599  2.1272 -0.0735
  478MOL0     H64498   8.988   7.977   4.875 -2.1432  0.9191  0.3669
  478MOL0     H64499   8.902   7.930   5.020  1.0266  2.2504 -0.6368
  478MOL0     H64500   9.176   7.822   4.914 -1.3891  2.3670 -1.2690
  478MOL0     H64501   9.116   7.786   5.077 -1.0549  0.2883  0.2296
  478MOL0     H64502   9.151   8.015   5.146 -1.2262 -1.0231 -0.1958
  478MOL0     H64503   9.198   8.067   4.990  1.5284  1.0198 -0.0780
  478MOL0     H64504   9.350   7.865   5.169 -2.8859  0.2260  1.0448
  478MOL0     H64505   9.392   7.893   5.003 -0.6482  2.2595 -2.0664
  478MOL0     H64506   9.396   8.109   5.221 -0.2657 -0.6734 -0.1495
  478MOL0     H64507   9.408   8.146   5.053  0.2768  1.5687  1.8190
  478MOL0     H64508   9.615   8.147   5.161 -1.8447  2.2590 -1.8752
  478MOL0     H64509   9.606   7.968   5.185  0.9635  1.0954 -0.0653
  478MOL0     H64510   8.467   7.761   4.895 -0.8583 -0.9903  0.0348
  478MOL0     H64511   8.274   7.836   4.772  0.3040  1.3877 -1.0109
  478MOL0     H64512   7.971   7.753   4.494  1.3632  0.6936  0.2114
  478MOL0     H64513   7.765   7.723   4.371 -0.6417  1.4617  1.5685
  478MOL0     H64514   5.967   7.287   3.612  1.8090 -0.6398  0.3317
  478MOL0     H64515   5.748   7.250   3.522  0.6127 -0.0191 -0.1033
  478MOL0     H64516   5.341   7.040   3.654 -1.1021  0.0723  0.2597
  478MOL0     H64517   5.103   7.086   3.640  1.9467  3.1282  0.9996
  478MOL0     H64518   4.976   7.298   3.547  1.4867 -1.7459 -0.6025
  478MOL0     H64519   4.900   7.165   3.615  3.1274  0.8340  0.1563
  478MOL0     H64520   4.802   7.314   3.356  0.8838 -1.5182 -0.3314
  478MOL0     H64521   4.722   7.322   3.514 -2.4353 -0.8443 -1.8466
  478MOL0     H64522   4.661   7.088   3.504  2.3307  2.1803  0.9413
  478MOL0     H64523   4.724   7.079   3.341  0.5359 -0.9352  0.0063
  478MOL0     H64524   4.475   7.135   3.366  1.8168 -2.6259 -2.3557
  478MOL0     H64525   4.530   7.297   3.425  0.7958 -1.6466  1.9889
  478MOL0     H64526   4.581   7.328   3.008 -0.4940  0.8775 -0.1242
  478MOL0     H64527   5.128   7.133   3.225  2.1546 -1.3657 -1.6297
  478MOL0     H64528   5.435   6.965   3.179 -0.5518  0.0616 -3.4712
  478MOL0     H64529   5.322   7.060   3.097  1.3877 -2.3935 -1.3456
  478MOL0     H64530   5.461   7.143   3.166 -0.4376  0.2500  1.0816
  479MOL0     O64531   1.851   8.107   2.697 -0.2339  0.0831 -0.0948
  479MOL0     C64532   1.758   8.078   2.620 -0.0276 -0.1415  0.5835
  479MOL0     O64533   1.776   8.025   2.495 -0.0864 -0.3983 -0.0556
  479MOL0     C64534   1.899   8.042   2.435 -0.9743 -0.3553  0.3016
  479MOL0     C64535   1.978   8.160   2.428  0.0017  0.5313 -0.0462
  479MOL0     C64536   2.098   8.160   2.373  0.7003 -0.0804 -0.0279
  479MOL0     C64537   2.154   8.038   2.324  0.0771  0.3011  0.3554
  479MOL0     O64538   2.273   8.029   2.254  0.4184  0.8301  0.1940
  479MOL0     C64539   2.343   8.140   2.218  0.3233 -0.6323 -0.2707
  479MOL0     C64540   2.445   8.106   2.116 -0.5427 -0.0700  0.6898
  479MOL0     C64541   2.542   8.223   2.093  0.2323 -0.0516  0.0898
  479MOL0     C64542   2.652   8.195   1.987  0.2982  0.0510 -0.6872
  479MOL0     C64543   2.769   8.289   2.012  0.0455 -0.1561  0.2041
  479MOL0     C64544   2.888   8.270   1.908  0.4275  0.4046  0.0435
  479MOL0     C64545   3.037   8.311   1.947  0.1977  0.3925 -0.0409
  479MOL0     C64546   3.131   8.294   1.821 -0.6367  0.2214 -0.4383
  479MOL0     N64547   3.271   8.338   1.870  0.1758  0.0280  0.6265
  479MOL0     C64548   3.347   8.450   1.824 -0.5291  0.5535 -0.3367
  479MOL0     C64549   3.466   8.440   1.885  0.1879  0.1694  0.6488
  479MOL0     C64550   3.583   8.536   1.850  0.4371  0.5048  0.8297
  479MOL0     C64551   3.697   8.458   1.773 -1.1007  0.3677 -0.2884
  479MOL0     C64552   3.819   8.543   1.734 -0.5784 -0.4005 -0.1417
  479MOL0     C64553   3.939   8.453   1.698  0.4797 -0.2791 -0.0406
  479MOL0     O64554   4.037   8.553   1.669  0.0109 -0.0349 -0.2250
  479MOL0     C64555   4.172   8.519   1.703 -0.5801 -0.0913 -0.2138
  479MOL0     C64556   4.267   8.621   1.677 -0.2708 -0.1913  0.3277
  479MOL0     C64557   4.400   8.598   1.711 -1.4463  0.7371  0.7008
  479MOL0     C64558   4.449   8.470   1.765  0.9018 -1.2448 -0.8043
  479MOL0     C64559   4.584   8.440   1.778  0.1048 -0.2879 -0.1522
  479MOL0     O64560   4.623   8.317   1.742  0.0503  0.2127 -0.1304
  479MOL0     C64561   4.748   8.265   1.767 -0.0804  0.5583 -0.2317
  479MOL0     C64562   4.796   8.161   1.684 -1.0079 -0.2064 -0.0587
  479MOL0     C64563   4.924   8.109   1.701  0.4927 -0.4634  0.0044
  479MOL0     C64564   5.014   8.158   1.798  0.0958  0.5150 -0.1247
  479MOL0     O64565   5.110   8.086   1.846 -0.2813  0.3175  0.3722
  479MOL0     C64566   5.218   8.061   1.750  0.5915 -0.1812  0.4536
  479MOL0     C64567   5.349   8.033   1.829  0.1373  0.0966  0.0153
  479MOL0     C64568   5.486   8.007   1.766  1.6635 -0.9922 -0.2783
  479MOL0     C64569   5.589   7.949   1.863 -0.2142  0.6520 -0.1070
  479MOL0     C64570   5.703   7.890   1.791  1.0073  0.2568  0.3456
  479MOL0     C64571   5.796   7.798   1.876 -0.9210 -0.3841  0.0818
  479MOL0     C64572   5.872   7.880   1.978 -0.1881  0.7464 -0.2001
  479MOL0     C64573   5.934   7.790   2.089  0.8950 -0.3994  0.0551
  479MOL0    Cl64574   6.027   7.653   2.024  0.0347 -0.2738 -0.0356
  479MOL0     C64575   4.965   8.262   1.885 -0.2049  0.2532  0.5551
  479MOL0     C64576   4.832   8.308   1.865  0.4258  1.0056  0.4149
  479MOL0     O64577   4.660   8.537   1.804 -0.6928 -0.2961 -0.1494
  479MOL0     C64578   4.348   8.370   1.798  0.4851 -0.4617  0.6723
  479MOL0     C64579   4.216   8.398   1.769  0.1122 -0.2346  0.1538
  479MOL0     N64580   3.471   8.326   1.973 -0.2833 -0.7494 -0.2430
  479MOL0     N64581   3.355   8.265   1.957 -0.8957  0.4673  0.6449
  479MOL0     C64582   2.081   7.913   2.325 -0.3424  0.7044  0.1922
  479MOL0     C64583   1.958   7.923   2.388 -0.2460 -0.0037 -0.2546
  479MOL0     C64584   1.623   8.090   2.679 -0.0006  0.2203 -0.0842
  479MOL0     C64585   1.603   8.032   2.810 -0.1397  0.1552 -0.6429
  479MOL0     C64586   1.478   8.040   2.872  0.7409  0.5130  0.8010
  479MOL0     C64587   1.361   8.077   2.795 -0.6492  0.0276  0.0972
  479MOL0     O64588   1.230   8.073   2.847 -0.1372 -0.3531  0.1380
  479MOL0     C64589   1.142   8.169   2.795 -0.6999 -0.9443 -0.0582
  479MOL0     C64590   1.003   8.157   2.856 -0.6282  0.2370 -1.2030
  479MOL0     C64591   0.941   8.020   2.833  0.5719  0.1912  0.7423
  479MOL0     C64592   0.810   7.984   2.890 -0.3753 -0.7085  0.0488
  479MOL0     C64593   0.704   8.067   2.835  0.7454 -0.7888  0.0258
  479MOL0     C64594   0.626   8.140   2.784  0.4025 -0.6920 -0.1592
  479MOL0     C64595   1.381   8.121   2.665 -0.6730 -0.3682  0.6306
  479MOL0     C64596   1.508   8.139   2.608  0.5625  0.0399  0.3081
  479MOL0     C64597   1.522   8.198   2.471  0.5163 -0.4166  0.2446
  479MOL0     H64598   1.961   8.257   2.472  3.3346  0.0995  2.6030
  479MOL0     H64599   2.160   8.249   2.371  2.2864 -1.1497 -0.2421
  479MOL0     H64600   2.273   8.212   2.175  0.8153 -0.1930 -0.3509
  479MOL0     H64601   2.393   8.193   2.300  1.7957 -0.5803 -1.1651
  479MOL0     H64602   2.394   8.083   2.022 -1.1464 -0.7964  1.1867
  479MOL0     H64603   2.503   8.020   2.150 -0.7716  0.0856  1.5023
  479MOL0     H64604   2.593   8.240   2.189  0.9271 -0.6537 -0.1607
  479MOL0     H64605   2.492   8.317   2.071  0.0853 -0.5471 -1.8135
  479MOL0     H64606   2.685   8.091   1.983  0.6574  0.2074 -2.5705
  479MOL0     H64607   2.608   8.213   1.889 -0.4955 -3.7445 -1.1954
  479MOL0     H64608   2.746   8.396   2.013  2.4316  0.4033  1.4053
  479MOL0     H64609   2.806   8.277   2.114  0.3523  0.2155  0.1399
  479MOL0     H64610   2.889   8.163   1.887 -1.3803 -0.0955  2.1376
  479MOL0     H64611   2.870   8.314   1.810  0.0746  0.8398  0.2997
  479MOL0     H64612   3.078   8.253   2.030  0.6084  1.6508  0.6581
  479MOL0     H64613   3.039   8.415   1.977  0.8735  0.5856 -0.7193
  479MOL0     H64614   3.143   8.189   1.792  0.2667  0.3724 -0.6323
  479MOL0     H64615   3.112   8.351   1.730  0.8159  1.7089  0.1345
  479MOL0     H64616   3.324   8.532   1.756  0.0766  1.4712  0.5423
  479MOL0     H64617   3.543   8.614   1.784  1.7590 -1.3946 -2.4940
  479MOL0     H64618   3.620   8.579   1.943  1.3691 -2.2882  1.8769
  479MOL0     H64619   3.727   8.372   1.833 -0.1854 -0.0672 -1.3320
  479MOL0     H64620   3.663   8.407   1.682  2.1980 -1.5695 -0.5788
  479MOL0     H64621   3.854   8.597   1.823  2.9935 -0.6686 -1.1949
  479MOL0     H64622   3.784   8.608   1.654 -2.5305 -2.2495 -0.8922
  479MOL0     H64623   3.912   8.395   1.610  1.2599 -0.1132 -0.3926
  479MOL0     H64624   3.965   8.393   1.786  0.9398  2.4899  1.8727
  479MOL0     H64625   4.218   8.702   1.623 -1.9821 -1.4778 -0.1328
  479MOL0     H64626   4.479   8.669   1.685 -0.0732  0.5616  3.8732
  479MOL0     H64627   4.733   8.126   1.603 -1.8364  1.3367 -0.1209
  479MOL0     H64628   4.942   8.019   1.644 -1.4669 -0.9893  0.1397
  479MOL0     H64629   5.186   7.972   1.695  0.8614 -0.2574  0.4190
  479MOL0     H64630   5.219   8.142   1.677 -1.8298  0.2548  0.7928
  479MOL0     H64631   5.363   8.117   1.898 -2.1490  0.5578  0.0082
  479MOL0     H64632   5.325   7.953   1.900  0.5709 -1.0479 -1.1024
  479MOL0     H64633   5.464   7.934   1.688 -0.2229 -0.2282 -0.5152
  479MOL0     H64634   5.531   8.091   1.713  2.9941 -1.6777 -0.2839
  479MOL0     H64635   5.544   7.865   1.917  0.4982 -0.9621 -1.9034
  479MOL0     H64636   5.627   8.027   1.930 -1.4183  0.3321  1.0085
  479MOL0     H64637   5.758   7.976   1.750 -1.1665  2.2144  1.2665
  479MOL0     H64638   5.660   7.833   1.708  0.4347 -0.9755  1.4443
  479MOL0     H64639   5.733   7.717   1.912 -0.6914 -1.3440 -1.5778
  479MOL0     H64640   5.865   7.750   1.805  0.5599  1.8351 -0.1057
  479MOL0     H64641   5.796   7.949   2.016 -1.6639  0.1725 -1.9242
  479MOL0     H64642   5.953   7.924   1.919  1.5848 -1.6883  0.2873
  479MOL0     H64643   6.000   7.842   2.159  1.4315 -2.3469  1.0633
  479MOL0     H64644   5.849   7.761   2.152  0.0852 -2.8834 -2.0324
  479MOL0     H64645   5.031   8.288   1.968  1.8939 -1.2280 -0.5534
  479MOL0     H64646   4.787   8.382   1.929  1.3238  2.2682 -0.3507
  479MOL0     H64647   4.373   8.266   1.819  0.7027 -1.0922 -2.3022
  479MOL0     H64648   4.149   8.314   1.789  0.3377 -0.2645  0.8113
  479MOL0     H64649   2.126   7.821   2.289 -1.9441 -1.5434  3.4845
  479MOL0     H64650   1.893   7.836   2.390 -1.3117  0.7751  0.0094
  479MOL0     H64651   1.688   7.994   2.866  0.7197  2.5181 -0.2404
  479MOL0     H64652   1.470   7.999   2.972  1.2728 -2.2845 -0.1791
  479MOL0     H64653   1.121   8.132   2.694  1.9199 -3.4830  0.2057
  479MOL0     H64654   1.171   8.275   2.796 -3.2765 -0.0694 -2.5922
  479MOL0     H64655   0.940   8.237   2.816  1.2182  2.8874  0.8555
  479MOL0     H64656   1.002   8.180   2.962 -1.3496 -1.0453 -0.9084
  479MOL0     H64657   1.015   7.960   2.886  1.3829 -0.0772 -0.6546
  479MOL0     H64658   0.954   7.996   2.727  1.5841  0.0522  0.8895
  479MOL0     H64659   0.793   7.879   2.865  1.3487 -0.6330 -1.7080
  479MOL0     H64660   0.812   7.997   2.998  2.8625 -1.3016  0.1529
  479MOL0     H64661   0.559   8.220   2.757  0.2631 -0.6799  0.2241
  479MOL0     H64662   1.301   8.156   2.602  0.2828  3.0897  1.1530
  479MOL0     H64663   1.427   8.230   2.428  0.9833  1.5809  0.5813
  479MOL0     H64664   1.583   8.289   2.479  3.0906 -1.9236 -0.9586
  479MOL0     H64665   1.580   8.126   2.413 -0.9374 -1.1794 -0.2934
  480MOL0     O64666   4.033   6.138   1.064  1.2089 -0.1605  0.4877
  480MOL0     C64667   4.012   6.258   1.054  0.4085  0.1323 -0.6670
  480MOL0     O64668   4.096   6.353   1.109  0.2269 -0.3072 -0.5700
  480MOL0     C64669   4.221   6.312   1.132 -0.0764  0.6053  0.4881
  480MOL0     C64670   4.317   6.345   1.045  0.1013 -0.7667  0.0710
  480MOL0     C64671   4.444   6.290   1.058 -0.0671  0.3906  0.1031
  480MOL0     C64672   4.475   6.222   1.178  0.4055  0.9839 -0.8214
  480MOL0     O64673   4.592   6.158   1.195 -0.0770  0.0198  0.2118
  480MOL0     C64674   4.615   6.036   1.113 -0.0750 -0.7812 -0.1107
  480MOL0     C64675   4.509   5.940   1.149  0.3283 -0.8817  0.1559
  480MOL0     C64676   4.535   5.796   1.124  0.2243 -0.4426  0.8446
  480MOL0     C64677   4.409   5.726   1.126  0.0610  0.5291 -0.4462
  480MOL0     C64678   4.438   5.571   1.123  0.2995  0.4419  0.4720
  480MOL0     C64679   4.326   5.481   1.078 -0.9320  0.1199  0.1493
  480MOL0     C64680   4.318   5.479   0.927  0.4749 -0.4158 -0.6446
  480MOL0     C64681   4.193   5.421   0.858  0.4697  0.0992  0.2607
  480MOL0     N64682   4.073   5.496   0.897  0.0125  0.9746  0.3483
  480MOL0     C64683   4.034   5.622   0.854  0.0146  1.1026 -0.3158
  480MOL0     C64684   3.958   5.664   0.954 -0.0378  0.3286 -0.9503
  480MOL0     C64685   3.899   5.801   0.973  0.2230 -0.2493 -0.6924
  480MOL0     C64686   3.740   5.813   0.988 -0.2767  0.5688 -0.3492
  480MOL0     C64687   3.669   5.810   0.849 -1.0466 -0.3921  0.1052
  480MOL0     C64688   3.520   5.838   0.859  1.2020  0.4705 -0.2515
  480MOL0     O64689   3.454   5.873   0.731  0.3309  0.0747  0.1544
  480MOL0     C64690   3.318   5.887   0.742  0.2352 -0.3411  0.2928
  480MOL0     C64691   3.262   6.002   0.783 -0.4082  0.0348 -0.1384
  480MOL0     C64692   3.117   6.020   0.778 -0.1101  0.3901  0.0543
  480MOL0     C64693   3.033   5.915   0.742 -0.9391  0.8308 -1.0652
  480MOL0     C64694   2.882   5.936   0.736  0.3542  1.3984  0.7677
  480MOL0     O64695   2.803   5.834   0.675 -0.0327 -0.2711  0.5141
  480MOL0     C64696   2.669   5.861   0.649 -0.2442 -0.4493  0.2588
  480MOL0     C64697   2.576   5.765   0.688 -0.1371  0.4767 -0.3513
  480MOL0     C64698   2.440   5.778   0.659  0.9043 -0.5052  0.5429
  480MOL0     C64699   2.384   5.895   0.609  0.7304  0.3692 -0.3398
  480MOL0     O64700   2.247   5.923   0.593 -0.0595  0.5992 -0.8765
  480MOL0     C64701   2.148   5.872   0.681  0.2553  0.5637  0.1179
  480MOL0     C64702   2.018   5.950   0.678  0.5467 -0.8027  0.0014
  480MOL0     C64703   1.931   5.902   0.554 -0.2889  0.1044 -0.0764
  480MOL0     C64704   1.798   5.974   0.567  0.8079  0.3635 -0.5669
  480MOL0     C64705   1.692   5.906   0.663 -0.6894  0.6015 -1.2976
  480MOL0     C64706   1.570   5.997   0.670 -0.1081 -0.3057 -0.6371
  480MOL0     C64707   1.446   5.930   0.613  0.7617 -0.5964 -0.9727
  480MOL0     C64708   1.451   5.893   0.471 -0.0789  0.5995  0.0277
  480MOL0    Cl64709   1.461   6.034   0.370 -0.5711  0.1342  0.3557
  480MOL0     C64710   2.475   5.997   0.582 -0.3530 -0.1844 -1.1423
  480MOL0     C64711   2.612   5.981   0.594  0.3217 -1.1136 -0.2781
  480MOL0     O64712   2.840   6.029   0.789 -1.2371  0.1838 -0.7363
  480MOL0     C64713   3.094   5.799   0.706 -0.9639  0.1960 -0.3788
  480MOL0     C64714   3.234   5.784   0.706  0.7442  0.2820 -0.1727
  480MOL0     N64715   3.940   5.567   1.049 -0.0177 -0.2185 -0.1106
  480MOL0     N64716   3.998   5.461   1.001  0.4940 -0.2075 -0.1403
  480MOL0     C64717   4.381   6.212   1.281 -0.1696 -1.0781  0.2225
  480MOL0     C64718   4.251   6.250   1.257 -0.3660 -0.0448  0.0160
  480MOL0     C64719   3.879   6.296   1.012  0.1178  0.7008  0.5079
  480MOL0     C64720   3.794   6.197   0.945 -0.1017 -0.0203 -1.1782
  480MOL0     C64721   3.667   6.223   0.892  0.8820 -0.0592  0.0188
  480MOL0     C64722   3.628   6.362   0.880  0.5557 -0.0532 -0.7356
  480MOL0     O64723   3.510   6.379   0.811  0.1297 -0.1537 -0.1095
  480MOL0     C64724   3.464   6.518   0.798  0.0459  1.0174  0.5952
  480MOL0     C64725   3.352   6.529   0.691 -0.8417 -0.5097 -0.6769
  480MOL0     C64726   3.231   6.442   0.718  1.2209  0.4259 -0.6016
  480MOL0     C64727   3.144   6.436   0.593 -0.5168  0.2863 -0.0773
  480MOL0     C64728   3.005   6.403   0.625 -0.4754 -0.4288 -0.0580
  480MOL0     C64729   2.892   6.378   0.663  1.1528 -0.2875  0.3112
  480MOL0     C64730   3.706   6.459   0.941  0.3358 -0.3586 -1.2219
  480MOL0     C64731   3.828   6.429   1.008  0.6143 -0.1466 -0.1186
  480MOL0     C64732   3.891   6.551   1.065  0.3610  0.0913  0.1211
  480MOL0     H64733   4.298   6.389   0.948  0.9956  0.7786  0.5723
  480MOL0     H64734   4.511   6.296   0.972 -1.7948 -3.4735 -1.7533
  480MOL0     H64735   4.619   6.053   1.005 -0.1621 -0.4214 -0.0583
  480MOL0     H64736   4.714   6.003   1.144  0.5345  0.9981 -0.0555
  480MOL0     H64737   4.426   5.977   1.089  0.5245  1.8090  1.3826
  480MOL0     H64738   4.486   5.957   1.254  0.4354 -1.9643  0.3670
  480MOL0     H64739   4.584   5.756   1.213  1.0036 -2.1858 -0.3033
  480MOL0     H64740   4.596   5.787   1.033  2.1801  0.0882  2.0447
  480MOL0     H64741   4.366   5.744   1.225  0.9725 -3.2460  0.8091
  480MOL0     H64742   4.341   5.753   1.045 -0.5898 -0.6231 -0.3137
  480MOL0     H64743   4.529   5.553   1.064  0.0317  0.9828 -0.1185
  480MOL0     H64744   4.455   5.546   1.228  0.7959 -1.2296  0.0281
  480MOL0     H64745   4.345   5.381   1.116 -2.1957  0.1307  0.8896
  480MOL0     H64746   4.227   5.505   1.120 -1.7693 -0.0962 -1.6042
  480MOL0     H64747   4.398   5.411   0.899  0.8477  0.0186 -0.6544
  480MOL0     H64748   4.336   5.576   0.879  1.4504  0.3005  1.0683
  480MOL0     H64749   4.204   5.431   0.750 -2.6937 -2.3343 -0.4129
  480MOL0     H64750   4.179   5.318   0.890 -0.4440  0.8506  2.4685
  480MOL0     H64751   4.064   5.678   0.766  0.6253  2.0421  0.4722
  480MOL0     H64752   3.944   5.846   1.062 -0.5739 -0.5092 -0.1429
  480MOL0     H64753   3.929   5.863   0.888  3.4278  0.8200  1.0452
  480MOL0     H64754   3.697   5.737   1.053 -0.7038  0.7357 -0.4302
  480MOL0     H64755   3.706   5.901   1.044 -1.9330  0.3873 -1.0256
  480MOL0     H64756   3.671   5.710   0.803 -0.8367 -0.9730  1.3293
  480MOL0     H64757   3.721   5.880   0.783 -0.4265 -1.4928 -0.6279
  480MOL0     H64758   3.503   5.921   0.929 -0.0922  4.0457 -4.3008
  480MOL0     H64759   3.474   5.745   0.892 -0.3172  0.4706 -2.1565
  480MOL0     H64760   3.328   6.083   0.813  0.1380 -1.1989  2.2433
  480MOL0     H64761   3.072   6.118   0.789 -0.8027 -0.0066  0.8905
  480MOL0     H64762   2.615   5.676   0.737  1.2680  0.4335 -1.4649
  480MOL0     H64763   2.378   5.698   0.698  1.0064  0.4096  2.7207
  480MOL0     H64764   2.121   5.770   0.654  0.9928  0.2413  0.5851
  480MOL0     H64765   2.181   5.868   0.785  0.1328 -1.2782  0.1134
  480MOL0     H64766   1.964   5.920   0.769  1.3252 -0.2205  0.6726
  480MOL0     H64767   2.022   6.059   0.686 -1.2453 -0.7568  0.8783
  480MOL0     H64768   1.995   5.937   0.473 -0.3374  0.8087  0.1782
  480MOL0     H64769   1.914   5.794   0.551  1.7234 -0.2262 -1.0204
  480MOL0     H64770   1.756   5.989   0.467  0.5921  0.4807 -0.4601
  480MOL0     H64771   1.809   6.075   0.608 -0.8244  0.2440  0.2572
  480MOL0     H64772   1.737   5.896   0.762 -1.4953  1.3240 -0.8501
  480MOL0     H64773   1.665   5.811   0.614  1.7048 -0.0926 -1.3797
  480MOL0     H64774   1.545   6.021   0.774  1.0415  3.1716 -1.0376
  480MOL0     H64775   1.586   6.095   0.623 -1.1571  2.0608  3.4493
  480MOL0     H64776   1.361   5.997   0.627  4.1308  3.4560  3.3526
  480MOL0     H64777   1.428   5.841   0.675  3.4629  0.1536  1.0844
  480MOL0     H64778   1.532   5.825   0.442 -1.6760 -0.9424 -1.1189
  480MOL0     H64779   1.356   5.844   0.445  0.5344 -0.1941 -0.8096
  480MOL0     H64780   2.428   6.094   0.569 -0.7383  0.3652  3.0263
  480MOL0     H64781   2.676   6.067   0.575 -1.1438 -0.2044 -1.3088
  480MOL0     H64782   3.039   5.715   0.664  0.6444  0.4067 -3.1409
  480MOL0     H64783   3.273   5.692   0.664  0.7105  0.3060 -0.2579
  480MOL0     H64784   4.403   6.159   1.374 -0.7659  0.0129  1.0126
  480MOL0     H64785   4.175   6.225   1.330  2.5990 -3.6766  2.2288
  480MOL0     H64786   3.842   6.100   0.940  1.5381  0.5792  1.1179
  480MOL0     H64787   3.597   6.156   0.842 -0.0611 -0.5309  1.8695
  480MOL0     H64788   3.540   6.590   0.767  0.8992 -0.4099 -0.7862
  480MOL0     H64789   3.416   6.555   0.889 -2.4548 -0.2560 -0.0918
  480MOL0     H64790   3.403   6.494   0.601 -2.2212 -0.8267 -1.3664
  480MOL0     H64791   3.317   6.632   0.679  0.6237  0.2167  0.9884
  480MOL0     H64792   3.170   6.481   0.800  2.0414 -0.2454  0.3393
  480MOL0     H64793   3.255   6.343   0.757 -0.1714 -0.2036 -1.2941
  480MOL0     H64794   3.137   6.540   0.559 -0.5612  0.1081 -0.6234
  480MOL0     H64795   3.179   6.365   0.517  2.4114  0.0557  1.3680
  480MOL0     H64796   2.804   6.338   0.709 -0.3017 -1.0384 -2.8116
  480MOL0     H64797   3.676   6.563   0.931 -0.1370 -0.6653 -4.0471
  480MOL0     H64798   3.944   6.523   1.157 -0.7751 -2.5073  0.0911
  480MOL0     H64799   3.963   6.602   1.001 -1.5539  1.8291 -0.7683
  480MOL0     H64800   3.820   6.633   1.077 -0.1108 -0.5572  2.2034
  481MOL0     O64801   3.632   2.908  10.269  0.9313 -0.1428  0.3799
  481MOL0     C64802   3.599   2.847  10.373  0.8022 -0.2719 -0.1698
  481MOL0     O64803   3.679   2.831  10.486  0.2372  0.1839  0.7106
  481MOL0     C64804   3.811   2.838  10.462  0.3957  0.3319  0.9352
  481MOL0     C64805   3.893   2.723  10.444  0.2339 -0.2605 -0.5379
  481MOL0     C64806   4.030   2.733  10.434  0.1610 -0.2175  0.1348
  481MOL0     C64807   4.091   2.860  10.426 -0.4260  0.8769  0.1502
  481MOL0     O64808   4.221   2.865  10.402 -0.2114 -0.3342 -0.7021
  481MOL0     C64809   4.303   2.977  10.349 -0.2624  1.0911 -0.3750
  481MOL0     C64810   4.447   2.919  10.349  0.6537  0.6039  0.1586
  481MOL0     C64811   4.544   2.998  10.270 -0.4510 -0.3655  0.8146
  481MOL0     C64812   4.674   2.923  10.258  0.7352  1.6137 -0.5173
  481MOL0     C64813   4.756   2.979  10.147 -0.4671 -0.4414  0.3101
  481MOL0     C64814   4.820   3.114  10.176 -0.6902 -0.1609  0.0147
  481MOL0     C64815   4.937   3.143  10.082 -0.0403 -0.8158 -0.2639
  481MOL0     C64816   4.973   3.293  10.093  0.1675 -0.0449  0.3724
  481MOL0     N64817   5.095   3.328  10.019 -0.2878  0.5415 -0.4713
  481MOL0     C64818   5.168   3.439  10.054 -0.1777  0.5112  0.9204
  481MOL0     C64819   5.253   3.457   9.954 -0.8520  0.5888  0.0958
  481MOL0     C64820   5.347   3.574   9.939  0.1414 -0.2960 -0.0332
  481MOL0     C64821   5.371   3.648  10.073 -0.4360 -0.5758  0.0376
  481MOL0     C64822   5.507   3.721  10.068 -0.0591  0.0905  0.1419
  481MOL0     C64823   5.630   3.630  10.111  0.5612  0.3041  0.3674
  481MOL0     O64824   5.751   3.701  10.119  0.1379 -0.5257  0.4051
  481MOL0     C64825   5.866   3.627  10.125 -0.1973 -0.2273  0.6179
  481MOL0     C64826   5.884   3.492  10.088  0.3831 -0.2125  0.0465
  481MOL0     C64827   6.006   3.425  10.099 -0.1446 -0.8195  0.1673
  481MOL0     C64828   6.120   3.504  10.132 -0.0612 -0.7998 -0.0055
  481MOL0     C64829   6.254   3.446  10.125  0.4530  0.5393  0.0528
  481MOL0     O64830   6.350   3.517  10.185  0.0120  0.2364 -0.6975
  481MOL0     C64831   6.468   3.461  10.193  0.2152  0.7230  0.5021
  481MOL0     C64832   6.496   3.387  10.305 -0.4752  0.0504  0.2514
  481MOL0     C64833   6.631   3.357  10.326 -0.1979  0.3586 -0.3823
  481MOL0     C64834   6.730   3.396  10.242  0.4746  0.4660  1.2066
  481MOL0     O64835   6.868   3.371  10.249  0.3538  0.7490  0.6056
  481MOL0     C64836   6.911   3.344  10.384 -1.7845 -0.1048 -0.0595
  481MOL0     C64837   7.071   3.336  10.391  0.0050  0.1117  0.1890
  481MOL0     C64838   7.124   3.197  10.335 -0.3335 -0.2415 -0.1159
  481MOL0     C64839   7.284   3.199  10.339 -0.0497 -0.1374  0.3108
  481MOL0     C64840   7.336   3.186  10.488  0.4731  0.1852  0.5807
  481MOL0     C64841   7.473   3.136  10.503  1.0216  1.1476 -0.1540
  481MOL0     C64842   7.478   2.984  10.464 -0.8273  0.0666 -0.8186
  481MOL0     C64843   7.607   2.917  10.520 -0.2610 -0.7581  0.1168
  481MOL0    Cl64844   7.630   2.927  10.707  0.2678 -0.0561 -0.0357
  481MOL0     C64845   6.699   3.484  10.144  0.2843 -0.6405  0.2079
  481MOL0     C64846   6.567   3.515  10.105 -1.2594  0.2312 -0.0991
  481MOL0     O64847   6.273   3.332  10.083 -0.1962 -0.6252 -0.6822
  481MOL0     C64848   6.104   3.638  10.165  0.5825 -0.3660  0.3429
  481MOL0     C64849   5.977   3.704  10.167  0.4615 -1.2231 -0.7728
  481MOL0     N64850   5.231   3.352   9.861 -0.0804  0.8869 -0.5449
  481MOL0     N64851   5.127   3.287   9.893 -0.9445  1.1646 -0.1768
  481MOL0     C64852   4.008   2.972  10.435  0.3348  0.2810 -0.0157
  481MOL0     C64853   3.878   2.958  10.459  0.3248 -0.3807  0.1071
  481MOL0     C64854   3.467   2.782  10.380  0.1385 -0.0689  0.7017
  481MOL0     C64855   3.446   2.684  10.475  0.2833  0.1374 -0.1980
  481MOL0     C64856   3.330   2.606  10.486 -0.5824 -0.2628 -0.6458
  481MOL0     C64857   3.222   2.636  10.410  0.7087 -0.2355  0.0616
  481MOL0     O64858   3.107   2.580  10.443 -0.1716  0.3265 -0.2350
  481MOL0     C64859   2.990   2.599  10.366 -0.0662  0.2757  0.1856
  481MOL0     C64860   2.977   2.472  10.265  0.0784 -0.0725 -0.9435
  481MOL0     C64861   2.854   2.472  10.179 -0.3266  0.7149 -0.1852
  481MOL0     C64862   2.721   2.459  10.261  0.1405 -0.0154 -0.3646
  481MOL0     C64863   2.632   2.382  10.177  0.7199 -0.2795 -0.1644
  481MOL0     C64864   2.573   2.312  10.101 -0.7256  0.3611 -0.5300
  481MOL0     C64865   3.246   2.725  10.303 -0.3789 -0.1498  0.2374
  481MOL0     C64866   3.360   2.808  10.295 -0.3166  1.2922 -0.3481
  481MOL0     C64867   3.351   2.922  10.197 -0.5012  0.1315 -0.0042
  481MOL0     H64868   3.845   2.625  10.445 -0.9959  0.3143 -1.2535
  481MOL0     H64869   4.078   2.637  10.419 -0.6662 -0.7813  1.0014
  481MOL0     H64870   4.268   3.004  10.249 -2.2065 -1.2184 -0.4224
  481MOL0     H64871   4.310   3.066  10.412 -3.0607 -0.2765  2.1043
  481MOL0     H64872   4.429   2.820  10.307  1.2753  0.3693  0.4361
  481MOL0     H64873   4.477   2.912  10.454 -1.9818 -0.2274  0.9219
  481MOL0     H64874   4.561   3.098  10.310  0.7204 -0.4005  0.4363
  481MOL0     H64875   4.510   3.010  10.167  1.1855  1.2969  0.4085
  481MOL0     H64876   4.728   2.929  10.353  1.6295 -1.3914 -0.7228
  481MOL0     H64877   4.643   2.823  10.226 -0.1081  1.5173  0.5455
  481MOL0     H64878   4.842   2.913  10.129  0.0867 -0.1182  1.6892
  481MOL0     H64879   4.696   2.989  10.056  0.2576  1.3025 -0.0236
  481MOL0     H64880   4.736   3.181  10.156  0.9295  1.0363 -3.5369
  481MOL0     H64881   4.849   3.114  10.281 -0.7958  0.0527  0.0440
  481MOL0     H64882   4.913   3.142   9.976 -2.7611 -0.0714  0.2660
  481MOL0     H64883   5.021   3.078  10.108 -1.3450 -1.2603  3.6081
  481MOL0     H64884   4.890   3.356  10.059  1.9077  2.3789  0.3527
  481MOL0     H64885   4.987   3.308  10.200 -2.0671  0.3746  0.6566
  481MOL0     H64886   5.157   3.500  10.143 -0.2509  0.1022  1.1946
  481MOL0     H64887   5.439   3.532   9.899 -1.3005 -2.6234 -1.1014
  481MOL0     H64888   5.310   3.642   9.861  0.5714 -1.3758 -1.2167
  481MOL0     H64889   5.288   3.712  10.105 -0.6186 -1.1089  0.6400
  481MOL0     H64890   5.384   3.574  10.152 -1.6697 -0.6577  0.1822
  481MOL0     H64891   5.496   3.801  10.142  2.4593 -0.4939  1.2803
  481MOL0     H64892   5.527   3.766   9.971 -0.6089 -1.9544 -0.9661
  481MOL0     H64893   5.633   3.555  10.031  0.4782  0.2951  0.3722
  481MOL0     H64894   5.601   3.588  10.207 -1.3240  1.6092  0.4422
  481MOL0     H64895   5.798   3.435  10.054 -1.6976  0.8596  3.0703
  481MOL0     H64896   6.007   3.322  10.067  4.2794 -1.2675  1.1438
  481MOL0     H64897   6.415   3.352  10.368 -4.5541  1.5541 -3.6377
  481MOL0     H64898   6.653   3.288  10.408 -2.3977 -0.1627 -0.1762
  481MOL0     H64899   6.873   3.426  10.446  2.3248  2.3309 -0.3763
  481MOL0     H64900   6.875   3.247  10.419 -0.9629 -0.9568 -1.4590
  481MOL0     H64901   7.113   3.413  10.324 -1.2228 -2.0533 -3.3644
  481MOL0     H64902   7.106   3.356  10.492  2.8102 -1.5421 -0.3648
  481MOL0     H64903   7.093   3.125  10.411 -0.6157 -0.3879 -0.3680
  481MOL0     H64904   7.089   3.179  10.233  1.3013  3.7460 -1.5912
  481MOL0     H64905   7.325   3.289  10.292  2.6306 -2.1148 -1.4378
  481MOL0     H64906   7.319   3.124  10.267  0.3895  0.8094 -0.4777
  481MOL0     H64907   7.264   3.128  10.548 -0.4313  1.2122  0.5154
  481MOL0     H64908   7.346   3.283  10.537  1.9584 -0.3427  1.3672
  481MOL0     H64909   7.544   3.193  10.442  0.5036  1.5081 -0.4266
  481MOL0     H64910   7.498   3.161  10.606 -0.2592 -2.2312  1.1111
  481MOL0     H64911   7.471   2.970  10.355 -0.2903 -1.0045 -0.7313
  481MOL0     H64912   7.388   2.932  10.500 -0.0409 -0.0639  1.0648
  481MOL0     H64913   7.617   2.811  10.496  0.7735 -0.2265 -2.0078
  481MOL0     H64914   7.693   2.961  10.469 -1.1928 -0.2133 -1.0423
  481MOL0     H64915   6.783   3.505  10.079 -0.3610 -0.4056 -0.5682
  481MOL0     H64916   6.555   3.584  10.022 -0.7627  0.5647  0.1017
  481MOL0     H64917   6.192   3.690  10.200 -0.8828 -0.3395  4.5993
  481MOL0     H64918   5.955   3.810  10.176 -0.5512 -1.5705  1.5255
  481MOL0     H64919   4.058   3.069  10.432 -0.6635  0.9602  2.4109
  481MOL0     H64920   3.817   3.046  10.475  1.3401  0.1981  0.8617
  481MOL0     H64921   3.534   2.659  10.533  1.6683  2.2603 -1.2462
  481MOL0     H64922   3.313   2.535  10.566  2.8429  0.5965  1.0588
  481MOL0     H64923   2.970   2.694  10.314  1.3608  0.9444  0.8049
  481MOL0     H64924   2.904   2.599  10.433 -1.4055  2.4608 -1.3677
  481MOL0     H64925   2.984   2.371  10.307 -1.9866 -1.0539 -2.7071
  481MOL0     H64926   3.066   2.470  10.202  1.0288 -0.7282  0.3634
  481MOL0     H64927   2.862   2.393  10.104  3.7850 -2.2840  2.9837
  481MOL0     H64928   2.848   2.565  10.122  0.5359 -0.4303 -2.2626
  481MOL0     H64929   2.738   2.395  10.349 -1.0906  0.0124 -0.0737
  481MOL0     H64930   2.678   2.554  10.295  0.4133 -0.2209  0.5982
  481MOL0     H64931   2.516   2.253  10.032 -0.1142 -1.1982  0.2495
  481MOL0     H64932   3.154   2.733  10.246 -2.6056 -1.4405  3.3617
  481MOL0     H64933   3.394   2.891  10.102  0.6361  2.2701 -0.2362
  481MOL0     H64934   3.252   2.953  10.163  0.1237 -1.0398 -3.2178
  481MOL0     H64935   3.403   3.011  10.234  0.3365  0.4041 -1.7701
  482MOL0     O64936   1.849   1.683  11.091 -0.0847  0.8472  0.0038
  482MOL0     C64937   1.782   1.774  11.043  0.1338  0.2924 -0.4863
  482MOL0     O64938   1.817   1.906  11.044 -0.1463  0.2396 -0.0771
  482MOL0     C64939   1.934   1.948  11.105  0.4176  0.7589  0.0290
  482MOL0     C64940   2.058   1.888  11.077 -0.5330  0.5504  0.5316
  482MOL0     C64941   2.176   1.929  11.144  0.0825 -0.0349  1.3969
  482MOL0     C64942   2.175   2.026  11.250 -0.3088 -0.2071  0.1978
  482MOL0     O64943   2.297   2.044  11.318 -0.7179  0.1394  0.3243
  482MOL0     C64944   2.298   2.177  11.390 -0.3362  0.1497  0.8290
  482MOL0     C64945   2.441   2.230  11.404  0.3171 -0.1655  0.0334
  482MOL0     C64946   2.510   2.177  11.532 -0.2579 -0.4388  0.2600
  482MOL0     C64947   2.657   2.219  11.551  0.2390  0.0904  0.3882
  482MOL0     C64948   2.703   2.178  11.691  1.0668 -0.2128  0.2939
  482MOL0     C64949   2.842   2.245  11.731  0.6303 -0.1558  0.0594
  482MOL0     C64950   2.962   2.185  11.650 -0.6428  0.1944 -0.3519
  482MOL0     C64951   3.095   2.195  11.725  0.2384  0.1750 -0.2743
  482MOL0     N64952   3.128   2.317  11.806  0.5432 -0.2476  0.3613
  482MOL0     C64953   3.191   2.420  11.763 -0.6158  0.3941  0.2498
  482MOL0     C64954   3.232   2.486  11.874  0.2049  0.1142 -0.2631
  482MOL0     C64955   3.323   2.603  11.877 -0.0155 -0.8365  0.4775
  482MOL0     C64956   3.479   2.566  11.873 -0.6210 -0.0418 -0.3912
  482MOL0     C64957   3.555   2.688  11.899  0.6111 -0.5246 -0.1894
  482MOL0     C64958   3.692   2.658  11.929 -0.2174 -0.0226  0.6390
  482MOL0     O64959   3.748   2.565  11.832 -0.1936  0.0357  0.2989
  482MOL0     C64960   3.864   2.497  11.844  0.2049 -0.7216 -1.0015
  482MOL0     C64961   3.991   2.563  11.872  0.5493 -0.1923 -0.2804
  482MOL0     C64962   4.106   2.489  11.896  0.0157  0.2958 -0.5638
  482MOL0     C64963   4.113   2.347  11.883  0.1967  0.5606  0.9204
  482MOL0     C64964   4.232   2.270  11.889  0.9099  0.2125  1.0793
  482MOL0     O64965   4.216   2.140  11.886  0.1767  0.3776  0.2037
  482MOL0     C64966   4.316   2.059  11.942 -0.0518  0.3688 -0.0903
  482MOL0     C64967   4.377   2.085  12.058 -0.6268  1.0345  0.0740
  482MOL0     C64968   4.483   2.008  12.106 -0.8144 -0.2314 -0.0402
  482MOL0     C64969   4.527   1.897  12.025  0.2331 -0.4120 -0.3585
  482MOL0     O64970   4.633   1.819  12.058 -0.5593  0.2774  0.1590
  482MOL0     C64971   4.696   1.728  11.963  0.4343 -0.1099 -0.5506
  482MOL0     C64972   4.816   1.642  12.015 -0.7120 -0.5915  0.6881
  482MOL0     C64973   4.851   1.533  11.912 -0.2104 -0.2847 -0.3399
  482MOL0     C64974   4.918   1.568  11.783 -0.5642 -0.5833 -0.3419
  482MOL0     C64975   4.976   1.444  11.724 -0.5799  0.6562 -0.2030
  482MOL0     C64976   5.012   1.472  11.577  0.1981  0.6577 -0.3597
  482MOL0     C64977   5.106   1.360  11.526 -0.3091  0.6130 -0.3657
  482MOL0     C64978   5.151   1.383  11.382  0.1706  0.6612 -0.4274
  482MOL0    Cl64979   5.332   1.418  11.368 -0.5591 -0.0112 -0.1484
  482MOL0     C64980   4.451   1.860  11.909 -0.0633 -0.5580  0.1916
  482MOL0     C64981   4.348   1.945  11.868 -0.0060 -0.2839 -0.6422
  482MOL0     O64982   4.335   2.340  11.901  0.4704  0.3861 -0.1125
  482MOL0     C64983   3.985   2.282  11.858  0.0348 -0.0878 -0.1742
  482MOL0     C64984   3.865   2.360  11.851  0.5593  0.5133 -0.4153
  482MOL0     N64985   3.192   2.419  11.989  0.7443 -0.0807  0.3576
  482MOL0     N64986   3.133   2.314  11.940  0.7035 -0.5206  0.0083
  482MOL0     C64987   2.051   2.084  11.270 -1.0858  0.6506 -0.1988
  482MOL0     C64988   1.931   2.053  11.196 -0.7636  0.1628  0.6009
  482MOL0     C64989   1.643   1.756  11.012 -0.2604  0.3482  0.6290
  482MOL0     C64990   1.614   1.654  10.920  0.4032  0.7514  0.2375
  482MOL0     C64991   1.488   1.643  10.864  0.0735  0.1500  0.4896
  482MOL0     C64992   1.386   1.723  10.915  0.4661 -0.1081  0.6342
  482MOL0     O64993   1.265   1.704  10.854  0.2200 -0.6954 -0.1480
  482MOL0     C64994   1.145   1.763  10.905  0.2410 -0.7495  0.8625
  482MOL0     C64995   1.027   1.689  10.833  0.1506 -0.3977  0.0299
  482MOL0     C64996   0.898   1.752  10.884  0.0396  0.7112 -0.2552
  482MOL0     C64997   0.780   1.661  10.845 -0.2056 -0.1340  0.6440
  482MOL0     C64998   0.663   1.703  10.923  0.7576  1.5639 -0.6464
  482MOL0     C64999   0.567   1.736  10.992 -0.9452  0.1558  0.3180
  482MOL0     C65000   1.413   1.814  11.018  0.5443 -0.2712 -0.9191
  482MOL0     C65001   1.544   1.831  11.068  0.5800  0.8000 -0.1708
  482MOL0     C65002   1.560   1.932  11.171  0.2613  0.7619 -0.2397
  482MOL0     H65003   2.066   1.811  11.000 -0.2416  0.6586  0.4511
  482MOL0     H65004   2.266   1.873  11.120  0.8803  1.2852  1.2110
  482MOL0     H65005   2.244   2.245  11.323  2.5690  0.5220 -1.3079
  482MOL0     H65006   2.250   2.168  11.488 -2.6297 -1.4962 -0.3661
  482MOL0     H65007   2.430   2.337  11.426  0.3981 -0.2055  0.2679
  482MOL0     H65008   2.498   2.219  11.311  0.6753 -1.2378  0.3624
  482MOL0     H65009   2.496   2.068  11.529 -2.5783 -0.1766 -0.7542
  482MOL0     H65010   2.461   2.223  11.619  0.0769  0.2418  0.0904
  482MOL0     H65011   2.713   2.172  11.470 -0.9691  1.9154 -1.5839
  482MOL0     H65012   2.664   2.328  11.542  0.2061  0.0742  0.1501
  482MOL0     H65013   2.621   2.210  11.756  0.5116  1.7241 -1.2593
  482MOL0     H65014   2.706   2.069  11.688 -0.3190 -0.2650  0.3413
  482MOL0     H65015   2.834   2.351  11.704 -1.0793  0.2968  2.0673
  482MOL0     H65016   2.849   2.236  11.839 -0.1129  0.1044  0.1354
  482MOL0     H65017   2.961   2.244  11.557 -0.7549  3.8148  1.7664
  482MOL0     H65018   2.947   2.080  11.625  0.9133  0.1865 -1.4114
  482MOL0     H65019   3.092   2.116  11.800  0.8950 -0.5545 -0.9967
  482MOL0     H65020   3.177   2.168  11.658 -0.5931 -2.9010 -0.1676
  482MOL0     H65021   3.215   2.458  11.664 -1.2078  1.4391  0.4927
  482MOL0     H65022   3.310   2.671  11.792  1.6913 -0.4626  0.4860
  482MOL0     H65023   3.297   2.659  11.968 -0.3501 -3.1917  1.9074
  482MOL0     H65024   3.505   2.498  11.954  2.2168 -0.0830 -1.2280
  482MOL0     H65025   3.501   2.515  11.779 -0.2125  0.4891 -0.5934
  482MOL0     H65026   3.515   2.753  11.978  0.1280  1.4212 -1.9350
  482MOL0     H65027   3.554   2.754  11.812  3.2041  1.7542  1.3605
  482MOL0     H65028   3.692   2.623  12.033  1.0006 -1.2070  0.2681
  482MOL0     H65029   3.751   2.749  11.932 -1.9263  1.1289  3.1606
  482MOL0     H65030   3.992   2.667  11.903  0.7981  0.4569 -2.3528
  482MOL0     H65031   4.196   2.549  11.907  0.1971 -0.2216  0.9172
  482MOL0     H65032   4.364   2.176  12.117  0.8066  1.4963 -0.2876
  482MOL0     H65033   4.536   2.033  12.198 -2.5741  0.0735  0.9298
  482MOL0     H65034   4.621   1.651  11.940 -1.9064  0.4973  3.9984
  482MOL0     H65035   4.729   1.781  11.873  1.5975  0.3874  0.1525
  482MOL0     H65036   4.895   1.714  12.039 -0.3230 -1.2993  1.5469
  482MOL0     H65037   4.789   1.598  12.111 -1.6407  2.1788  1.8065
  482MOL0     H65038   4.928   1.478  11.969 -0.3469  2.1058  2.3608
  482MOL0     H65039   4.761   1.473  11.896  0.8306 -1.8210 -0.7643
  482MOL0     H65040   4.993   1.640  11.816 -2.4262  1.7577 -0.9198
  482MOL0     H65041   4.849   1.620  11.715 -1.1601  1.2381  1.5456
  482MOL0     H65042   4.914   1.354  11.733 -0.3700  0.2504 -2.2175
  482MOL0     H65043   5.073   1.429  11.773 -0.5783  0.9524 -0.1136
  482MOL0     H65044   4.911   1.463  11.534 -0.1635 -0.5092  0.6543
  482MOL0     H65045   5.045   1.575  11.562  1.4596 -0.0292 -2.6196
  482MOL0     H65046   5.050   1.269  11.545  0.3063  0.3833  0.4281
  482MOL0     H65047   5.194   1.350  11.591  0.2044 -1.9175 -1.3662
  482MOL0     H65048   5.124   1.293  11.325 -0.4317 -0.1686  1.0981
  482MOL0     H65049   5.097   1.466  11.335 -0.5653  0.0743 -0.6426
  482MOL0     H65050   4.471   1.769  11.852 -0.7179 -0.4708 -0.1783
  482MOL0     H65051   4.286   1.924  11.781 -1.9443 -1.1024  0.8480
  482MOL0     H65052   3.982   2.174  11.849 -0.6658 -0.0746 -0.1163
  482MOL0     H65053   3.778   2.295  11.848  0.6335  0.2864  1.4810
  482MOL0     H65054   2.039   2.144  11.360 -0.7143  3.5554 -1.9649
  482MOL0     H65055   1.838   2.103  11.220 -0.8661  1.1660 -1.5892
  482MOL0     H65056   1.700   1.596  10.887 -0.0002  0.6328 -0.6297
  482MOL0     H65057   1.462   1.569  10.790 -3.3181  1.5538  0.1207
  482MOL0     H65058   1.140   1.871  10.890  1.3907 -0.6447  1.1611
  482MOL0     H65059   1.136   1.749  11.013 -1.0954  1.4999  1.1198
  482MOL0     H65060   1.030   1.582  10.852  1.5287 -0.0391  2.2181
  482MOL0     H65061   1.033   1.709  10.726 -1.7337  1.7441  0.2390
  482MOL0     H65062   0.876   1.847  10.834 -0.7856  0.7932  0.2566
  482MOL0     H65063   0.890   1.769  10.992 -0.8264  0.8829 -0.3390
  482MOL0     H65064   0.761   1.682  10.739  1.3849  2.0075  0.7016
  482MOL0     H65065   0.798   1.554  10.860 -1.2170 -0.5822 -1.0497
  482MOL0     H65066   0.482   1.781  11.039 -0.4098  0.9218  0.5749
  482MOL0     H65067   1.335   1.875  11.063  0.3602 -1.5757  0.6557
  482MOL0     H65068   1.607   2.023  11.135 -1.9424  2.3959  0.7612
  482MOL0     H65069   1.467   1.966  11.218  1.4728  1.0326  2.0823
  482MOL0     H65070   1.617   1.891  11.255 -0.7274  0.9700  0.5640
  483MOL0     O65071   9.806   8.811   2.184 -0.0457 -0.2478 -0.4008
  483MOL0     C65072   9.730   8.846   2.090  1.1980  0.3247 -0.5004
  483MOL0     O65073   9.762   8.936   1.994  0.9242 -0.8045  0.1315
  483MOL0     C65074   9.890   8.979   1.992  0.4126  0.1440  0.0122
  483MOL0     C65075   9.938   9.096   2.066 -0.4247  0.2786  0.5431
  483MOL0     C65076  10.070   9.133   2.054  0.1714  0.4268 -1.2268
  483MOL0     C65077  10.167   9.066   1.984 -0.5361  0.1031  0.9961
  483MOL0     O65078  10.293   9.108   1.967 -0.6096  0.1629  0.1139
  483MOL0     C65079  10.354   9.171   2.081 -0.1437  0.3726 -0.3438
  483MOL0     C65080  10.506   9.190   2.081  0.4429 -0.2808 -0.9452
  483MOL0     C65081  10.559   9.252   1.955  0.2676  0.4468  1.0601
  483MOL0     C65082  10.701   9.299   1.966  0.0218 -0.3362  0.1734
  483MOL0     C65083  10.737   9.334   1.824  0.0786  0.3290  0.7519
  483MOL0     C65084  10.865   9.424   1.806  0.7094  0.7927 -0.1283
  483MOL0     C65085  10.989   9.338   1.823 -0.4986  0.5563 -0.0750
  483MOL0     C65086  11.114   9.421   1.799  0.2593  0.0034  0.4627
  483MOL0     N65087  11.221   9.335   1.752 -0.3733  0.2256 -0.1153
  483MOL0     C65088  11.326   9.290   1.832 -0.1719  0.0315 -0.8927
  483MOL0     C65089  11.397   9.231   1.736 -0.6983  0.4302 -0.1425
  483MOL0     C65090  11.514   9.152   1.772 -0.9744  0.0277  0.0947
  483MOL0     C65091  11.620   9.241   1.837 -0.6047  0.6821 -0.0454
  483MOL0     C65092  11.676   9.353   1.745 -0.2794  0.2131 -0.2839
  483MOL0     C65093  11.800   9.417   1.801 -0.2777 -0.0678 -1.1405
  483MOL0     O65094  11.902   9.317   1.798 -1.1267  0.3355 -0.2892
  483MOL0     C65095  12.035   9.361   1.807  0.4795  0.7623 -1.3939
  483MOL0     C65096  12.131   9.266   1.796 -0.0556 -0.4106 -0.7499
  483MOL0     C65097  12.268   9.303   1.804 -0.3739  0.0086  0.2308
  483MOL0     C65098  12.307   9.436   1.825  0.0177  0.0380  1.7151
  483MOL0     C65099  12.448   9.480   1.837  0.0974  0.1896 -0.5668
  483MOL0     O65100  12.537   9.386   1.808  0.4842 -0.7213 -0.6749
  483MOL0     C65101  12.661   9.424   1.785 -0.5523  0.0567 -0.0376
  483MOL0     C65102  12.752   9.475   1.883  1.1083 -0.3800  1.1974
  483MOL0     C65103  12.882   9.508   1.846  0.1388 -0.2954 -0.0916
  483MOL0     C65104  12.927   9.509   1.716  0.6807 -0.4017 -0.3993
  483MOL0     O65105  13.056   9.541   1.691 -0.0582 -0.2197  0.3739
  483MOL0     C65106  13.096   9.535   1.549  0.0871 -0.6586 -0.2663
  483MOL0     C65107  13.243   9.556   1.544  0.1497  1.3989 -0.1765
  483MOL0     C65108  13.283   9.704   1.574  1.2858 -0.4859  0.6074
  483MOL0     C65109  13.238   9.803   1.464  0.2882  0.5420  0.0481
  483MOL0     C65110  13.308   9.935   1.482  0.0964 -0.3532  0.6224
  483MOL0     C65111  13.259  10.020   1.602 -0.6754 -0.6549 -0.4644
  483MOL0     C65112  13.311  10.168   1.585  0.0413 -0.2316  0.0769
  483MOL0     C65113  13.272  10.264   1.690 -0.8123 -0.2224  0.2057
  483MOL0    Cl65114  13.354  10.249   1.849 -0.1911  0.1060 -0.3644
  483MOL0     C65115  12.829   9.488   1.613 -0.4541  0.8402  0.2674
  483MOL0     C65116  12.704   9.440   1.648  0.0427  0.6195  0.3475
  483MOL0     O65117  12.471   9.603   1.857  0.0409  0.1601  0.3300
  483MOL0     C65118  12.204   9.527   1.839 -0.9252  0.1832 -0.8123
  483MOL0     C65119  12.077   9.496   1.816  0.2816  0.1890 -0.3399
  483MOL0     N65120  11.346   9.248   1.602 -0.6503  0.8620  0.0550
  483MOL0     N65121  11.238   9.308   1.620  0.7914 -0.8133 -0.2035
  483MOL0     C65122  10.114   8.954   1.911 -0.5385  0.2551 -0.1321
  483MOL0     C65123   9.986   8.901   1.923  0.2348  0.0088 -0.0620
  483MOL0     C65124   9.594   8.799   2.099 -0.3619 -0.2902 -0.0970
  483MOL0     C65125   9.501   8.899   2.065  0.5165 -0.0722 -0.2121
  483MOL0     C65126   9.364   8.875   2.067 -1.2055  0.1958 -0.6751
  483MOL0     C65127   9.314   8.748   2.091 -0.7095  0.0675  0.3438
  483MOL0     O65128   9.180   8.723   2.083 -0.4730 -0.6235 -0.3649
  483MOL0     C65129   9.086   8.825   2.034  0.1654 -0.5281 -0.2968
  483MOL0     C65130   8.947   8.752   2.015 -0.2822 -0.4366 -0.2853
  483MOL0     C65131   8.955   8.641   1.922  0.0095  0.1163  0.5094
  483MOL0     C65132   8.979   8.677   1.774  0.2469  0.0185  0.4086
  483MOL0     C65133   8.901   8.791   1.725 -0.1567  0.6184  0.3341
  483MOL0     C65134   8.834   8.886   1.684 -0.5061  0.2239 -0.3921
  483MOL0     C65135   9.403   8.647   2.132  0.3002  0.3022 -0.4393
  483MOL0     C65136   9.538   8.671   2.129 -0.3090  0.3290  0.6249
  483MOL0     C65137   9.619   8.551   2.161  0.3248 -0.0219  0.7635
  483MOL0     H65138   9.872   9.171   2.109  0.7817  1.8253 -0.2238
  483MOL0     H65139  10.107   9.220   2.109 -2.1333  0.0256  1.1677
  483MOL0     H65140  10.308   9.270   2.084 -0.6383  0.1434 -0.3789
  483MOL0     H65141  10.334   9.119   2.175 -0.2871 -0.5617 -0.8796
  483MOL0     H65142  10.553   9.093   2.101 -1.4117 -0.9114  0.6191
  483MOL0     H65143  10.520   9.253   2.169 -1.9419  2.0193 -2.0811
  483MOL0     H65144  10.505   9.338   1.916 -0.8405 -1.0131 -0.8552
  483MOL0     H65145  10.565   9.172   1.879 -2.6445 -0.3793  1.5573
  483MOL0     H65146  10.713   9.378   2.040 -1.9669  1.0100 -0.8375
  483MOL0     H65147  10.775   9.222   1.990  4.1426  3.0923 -0.4487
  483MOL0     H65148  10.743   9.244   1.762  1.1605  0.5294  0.5402
  483MOL0     H65149  10.663   9.406   1.788  0.0960  1.2412  2.4481
  483MOL0     H65150  10.866   9.468   1.706 -0.4908 -1.1341 -1.0414
  483MOL0     H65151  10.866   9.501   1.884 -1.3559 -1.0267  1.8472
  483MOL0     H65152  10.979   9.255   1.752 -1.9700  0.0182  0.7237
  483MOL0     H65153  10.999   9.284   1.918 -0.9846 -0.6758 -0.7043
  483MOL0     H65154  11.093   9.489   1.716  3.4867 -0.1898 -0.6544
  483MOL0     H65155  11.141   9.477   1.889  1.2332  1.9696 -0.9817
  483MOL0     H65156  11.350   9.292   1.938  3.6083 -1.6062 -1.5471
  483MOL0     H65157  11.483   9.072   1.840 -2.0622 -1.2155 -1.7807
  483MOL0     H65158  11.561   9.110   1.683  2.0435  1.5336  0.8296
  483MOL0     H65159  11.582   9.282   1.931  2.3054  0.2624  1.4271
  483MOL0     H65160  11.705   9.179   1.866 -0.4926  0.9869  0.2850
  483MOL0     H65161  11.604   9.434   1.725  3.0259  3.1619 -1.2235
  483MOL0     H65162  11.702   9.311   1.648 -0.0547  3.5345 -1.8030
  483MOL0     H65163  11.786   9.445   1.905  0.9360 -0.6337 -0.8089
  483MOL0     H65164  11.825   9.504   1.739 -0.8417  0.4081 -0.7157
  483MOL0     H65165  12.103   9.161   1.785 -0.4926 -0.3908  0.0601
  483MOL0     H65166  12.339   9.220   1.807  0.1233  0.3659 -0.9158
  483MOL0     H65167  12.727   9.486   1.988  0.6959 -1.5276  1.2324
  483MOL0     H65168  12.953   9.522   1.927 -0.1499 -0.5595  0.2125
  483MOL0     H65169  13.071   9.437   1.507  1.0553  0.3828 -3.5247
  483MOL0     H65170  13.050   9.614   1.490 -0.4239 -1.4221 -0.9173
  483MOL0     H65171  13.301   9.488   1.607  1.5415  3.0586  0.4114
  483MOL0     H65172  13.265   9.540   1.438 -4.0485  3.4131 -1.5846
  483MOL0     H65173  13.225   9.734   1.662 -0.5676 -1.4523 -0.2327
  483MOL0     H65174  13.391   9.706   1.591  1.0606 -0.9903  2.2678
  483MOL0     H65175  13.129   9.808   1.464  0.1440 -1.4063 -1.1143
  483MOL0     H65176  13.276   9.751   1.375  2.9808  0.5360  1.1192
  483MOL0     H65177  13.285   9.983   1.387  1.9980 -0.2805  0.1466
  483MOL0     H65178  13.417   9.933   1.492  0.1197  2.6857  2.1394
  483MOL0     H65179  13.150  10.023   1.613 -0.5235 -0.8814  1.5357
  483MOL0     H65180  13.303   9.979   1.694  0.0429 -0.2799 -0.6366
  483MOL0     H65181  13.281  10.199   1.484 -1.2952  0.4088  0.6461
  483MOL0     H65182  13.420  10.180   1.587  0.0056  0.8117 -1.6986
  483MOL0     H65183  13.274  10.370   1.659 -1.5333 -0.0026  0.8836
  483MOL0     H65184  13.166  10.245   1.708 -0.9433 -1.1683 -1.3430
  483MOL0     H65185  12.838   9.508   1.507 -1.5565  0.3714  0.0745
  483MOL0     H65186  12.636   9.412   1.569  1.0590 -2.2710  0.3467
  483MOL0     H65187  12.237   9.631   1.839  0.5396 -0.2567 -0.6356
  483MOL0     H65188  12.005   9.577   1.821 -0.3249 -0.2917 -1.1299
  483MOL0     H65189  10.181   8.895   1.850 -1.5812 -1.9639  0.7413
  483MOL0     H65190   9.979   8.804   1.875  1.0862 -0.6924  1.1875
  483MOL0     H65191   9.527   9.004   2.073 -1.7282  0.4200  5.1448
  483MOL0     H65192   9.304   8.964   2.051 -0.7047  0.3670 -1.6760
  483MOL0     H65193   9.117   8.860   1.935 -0.1194 -0.4498 -0.3610
  483MOL0     H65194   9.073   8.906   2.106 -2.7490 -0.9157 -0.2505
  483MOL0     H65195   8.867   8.825   2.002 -3.8338 -3.7233  1.2384
  483MOL0     H65196   8.924   8.710   2.114  2.8448 -1.0903  0.2678
  483MOL0     H65197   8.858   8.589   1.924  0.9821 -1.9557 -1.5014
  483MOL0     H65198   9.037   8.577   1.953  0.1029 -0.7674 -1.4364
  483MOL0     H65199   9.087   8.691   1.781  0.2165 -0.0072  0.9885
  483MOL0     H65200   8.949   8.587   1.721  0.9459  0.3161 -0.5208
  483MOL0     H65201   8.788   8.966   1.630  2.0564  0.5806 -2.2747
  483MOL0     H65202   9.368   8.546   2.151  0.2200  0.1166 -1.5002
  483MOL0     H65203   9.644   8.558   2.268 -4.6084 -2.5312  2.4206
  483MOL0     H65204   9.553   8.464   2.159  2.4032 -1.6916  0.5659
  483MOL0     H65205   9.705   8.542   2.094 -0.6266 -1.5642 -0.3044
  484MOL0     O65206   9.047   0.463   2.546 -0.0752 -1.0382  0.3004
  484MOL0     C65207   9.016   0.561   2.473 -0.2990 -0.4139  0.0001
  484MOL0     O65208   9.104   0.643   2.410 -0.5743 -0.3573 -0.0382
  484MOL0     C65209   9.235   0.620   2.427 -0.1308  0.4422 -0.2369
  484MOL0     C65210   9.314   0.616   2.312 -0.0724  0.3557  0.5263
  484MOL0     C65211   9.456   0.635   2.327  0.1043  0.0219 -0.0568
  484MOL0     C65212   9.511   0.647   2.462  0.1732  0.1753  0.3446
  484MOL0     O65213   9.641   0.669   2.488  0.1542  0.3534 -0.2503
  484MOL0     C65214   9.711   0.738   2.386  0.2731 -0.0130  0.8887
  484MOL0     C65215   9.847   0.769   2.445 -0.4032 -0.6748  0.1128
  484MOL0     C65216   9.950   0.651   2.459  0.5703 -0.0097 -0.2807
  484MOL0     C65217  10.073   0.681   2.539 -0.1908 -0.1545 -0.1720
  484MOL0     C65218  10.159   0.553   2.573 -0.1925  0.7387  0.5631
  484MOL0     C65219  10.268   0.526   2.469 -0.7665 -0.5136  1.3867
  484MOL0     C65220  10.404   0.585   2.513  0.0355  0.1152  0.2902
  484MOL0     C65221  10.524   0.541   2.431  0.0911 -0.1385 -0.0628
  484MOL0     N65222  10.505   0.591   2.295  0.5948 -0.4063  0.2292
  484MOL0     C65223  10.462   0.525   2.178 -0.9933 -0.0473  0.0545
  484MOL0     C65224  10.471   0.617   2.074 -0.9104 -0.6257 -0.7613
  484MOL0     C65225  10.455   0.599   1.921 -0.8207 -0.3432 -0.6119
  484MOL0     C65226  10.562   0.503   1.866 -1.2459  0.3240 -0.0706
  484MOL0     C65227  10.549   0.484   1.711 -0.4476 -0.4365 -0.2752
  484MOL0     C65228  10.619   0.594   1.630 -0.0495 -0.2007 -0.0482
  484MOL0     O65229  10.755   0.609   1.671 -0.0830 -0.2934 -0.0335
  484MOL0     C65230  10.865   0.568   1.596 -0.3264  0.5454 -0.0612
  484MOL0     C65231  10.862   0.528   1.460  0.0760 -0.1428 -0.0126
  484MOL0     C65232  10.980   0.488   1.405  0.6088 -0.0520 -0.4519
  484MOL0     C65233  11.101   0.479   1.475 -0.7617 -0.1443 -0.6090
  484MOL0     C65234  11.222   0.438   1.414  0.6780  0.1655 -0.4699
  484MOL0     O65235  11.332   0.470   1.481  0.0075  0.8835 -0.7384
  484MOL0     C65236  11.457   0.437   1.436 -0.8035 -0.3926 -0.1536
  484MOL0     C65237  11.485   0.318   1.361 -0.2888 -0.0267  0.0793
  484MOL0     C65238  11.616   0.282   1.320 -0.6278  0.2906 -0.5687
  484MOL0     C65239  11.720   0.371   1.331 -0.6708 -0.4680  0.6346
  484MOL0     O65240  11.840   0.338   1.264 -0.2453 -0.5960  0.4928
  484MOL0     C65241  11.928   0.446   1.234  0.0420  0.1710  0.3699
  484MOL0     C65242  12.012   0.409   1.117 -0.7718  0.0652 -0.1179
  484MOL0     C65243  12.155   0.474   1.113 -0.0132 -0.1753 -0.4173
  484MOL0     C65244  12.254   0.387   1.024  0.7637 -0.1900  0.5389
  484MOL0     C65245  12.391   0.452   0.989 -0.1359  0.8802 -0.8266
  484MOL0     C65246  12.476   0.343   0.916 -0.3764 -0.1944  0.6408
  484MOL0     C65247  12.592   0.400   0.842  0.2277 -1.4748  0.3315
  484MOL0     C65248  12.701   0.473   0.934  0.4956 -0.8835 -0.9413
  484MOL0    Cl65249  12.853   0.506   0.842  0.2511  0.1584  0.2181
  484MOL0     C65250  11.696   0.493   1.395  0.2820 -0.1104  0.6018
  484MOL0     C65251  11.568   0.524   1.450  0.4669  0.7336 -0.5327
  484MOL0     O65252  11.213   0.384   1.310  0.4025 -0.3708  1.0254
  484MOL0     C65253  11.101   0.524   1.603  0.0911  0.6590  0.1265
  484MOL0     C65254  10.987   0.567   1.668  0.1695  0.6922 -0.3697
  484MOL0     N65255  10.511   0.743   2.127 -0.1863  0.2098 -0.2997
  484MOL0     N65256  10.531   0.724   2.251 -0.4352  0.1637  0.0759
  484MOL0     C65257   9.425   0.645   2.571  0.6241 -0.6333  1.0138
  484MOL0     C65258   9.290   0.638   2.552 -0.4279 -0.1168 -0.4265
  484MOL0     C65259   8.877   0.589   2.460  0.7081  0.3673 -0.8900
  484MOL0     C65260   8.796   0.563   2.575 -0.7832 -0.1817  0.0747
  484MOL0     C65261   8.662   0.587   2.569  0.5895 -0.0743 -0.5081
  484MOL0     C65262   8.607   0.626   2.447  0.6239  0.2464 -0.6362
  484MOL0     O65263   8.470   0.656   2.450  0.9906 -0.9240  0.8588
  484MOL0     C65264   8.395   0.646   2.576  0.3096  0.7610  0.3001
  484MOL0     C65265   8.247   0.653   2.552  0.3538  0.9547  1.4522
  484MOL0     C65266   8.191   0.538   2.468 -0.1624  0.2701  0.1345
  484MOL0     C65267   8.094   0.444   2.545  0.1454  0.3853 -0.6912
  484MOL0     C65268   7.966   0.506   2.580 -0.1139  0.1436 -0.3451
  484MOL0     C65269   7.855   0.544   2.602 -0.8494 -1.3079 -0.0127
  484MOL0     C65270   8.678   0.641   2.332 -0.0605  1.0238 -0.2546
  484MOL0     C65271   8.813   0.631   2.336  0.0609  0.3065  0.0658
  484MOL0     C65272   8.888   0.661   2.214 -0.0325 -0.5652  0.0718
  484MOL0     H65273   9.274   0.600   2.212 -0.7001  2.3914  0.4207
  484MOL0     H65274   9.513   0.656   2.237  2.2072 -4.7570 -0.1615
  484MOL0     H65275   9.728   0.678   2.297 -2.7005 -0.2437  0.4087
  484MOL0     H65276   9.657   0.828   2.357 -1.1867 -0.9111  0.7325
  484MOL0     H65277   9.821   0.825   2.535  2.5945 -0.6696  1.0728
  484MOL0     H65278   9.893   0.843   2.379 -2.4775  1.7160  1.1879
  484MOL0     H65279   9.991   0.622   2.362  2.7345 -1.3111  0.9440
  484MOL0     H65280   9.889   0.567   2.496 -1.5570  2.7095  2.9510
  484MOL0     H65281  10.128   0.766   2.497 -2.0485  1.0068 -0.3426
  484MOL0     H65282  10.038   0.708   2.639  0.0259  0.7399 -0.3313
  484MOL0     H65283  10.192   0.566   2.676 -1.5176 -0.4027  1.1693
  484MOL0     H65284  10.094   0.465   2.574 -1.5653  1.6026 -1.9067
  484MOL0     H65285  10.287   0.418   2.468 -0.7510 -0.5690 -1.6112
  484MOL0     H65286  10.236   0.568   2.373  0.0594  2.3061  2.2326
  484MOL0     H65287  10.426   0.553   2.616 -0.7633 -2.5233 -0.2993
  484MOL0     H65288  10.402   0.694   2.510  0.1584  0.1753  1.7176
  484MOL0     H65289  10.621   0.577   2.464 -0.0792 -1.1532  1.6459
  484MOL0     H65290  10.527   0.432   2.425  0.4114 -0.0673 -1.6534
  484MOL0     H65291  10.429   0.421   2.169 -0.6985 -0.1172 -0.2247
  484MOL0     H65292  10.356   0.556   1.904 -0.1269 -1.3133 -2.3963
  484MOL0     H65293  10.457   0.692   1.863 -1.8195  0.0945  0.0172
  484MOL0     H65294  10.666   0.526   1.892 -0.9933 -0.1958 -0.5852
  484MOL0     H65295  10.541   0.404   1.908 -2.1926 -0.1894 -1.6729
  484MOL0     H65296  10.445   0.477   1.680 -0.7148  0.8549  0.2799
  484MOL0     H65297  10.599   0.390   1.684  1.0813  0.1676  0.3493
  484MOL0     H65298  10.575   0.692   1.646 -1.2871 -1.1124  2.9296
  484MOL0     H65299  10.612   0.556   1.528  0.7842 -0.1218 -0.1462
  484MOL0     H65300  10.767   0.536   1.407  0.4635  1.7267 -0.4995
  484MOL0     H65301  10.970   0.463   1.300  1.4262 -2.8526  0.0376
  484MOL0     H65302  11.411   0.239   1.361  0.8058 -1.1201  1.2298
  484MOL0     H65303  11.635   0.190   1.266  1.1156  0.4298 -0.2638
  484MOL0     H65304  11.875   0.538   1.205  2.6889  0.8094 -3.0962
  484MOL0     H65305  11.987   0.468   1.323 -1.6570  0.3451  1.5218
  484MOL0     H65306  12.027   0.301   1.116  1.0579  0.2911 -0.6115
  484MOL0     H65307  11.966   0.411   1.018 -0.0578  0.0140 -0.4635
  484MOL0     H65308  12.142   0.575   1.072  2.2228  0.9837  1.5385
  484MOL0     H65309  12.188   0.481   1.217 -1.1123 -0.6531 -0.0182
  484MOL0     H65310  12.209   0.352   0.931 -1.4429  3.3608  0.0636
  484MOL0     H65311  12.274   0.298   1.085 -2.2203 -0.6426  0.9764
  484MOL0     H65312  12.444   0.493   1.076  0.1876 -0.7579 -0.2106
  484MOL0     H65313  12.370   0.533   0.919  0.6675  1.0912 -0.8300
  484MOL0     H65314  12.502   0.268   0.992 -0.9934  0.8866  1.9791
  484MOL0     H65315  12.409   0.299   0.843  0.8022  2.0589 -1.9858
  484MOL0     H65316  12.558   0.471   0.767  0.9412  0.6278  1.9109
  484MOL0     H65317  12.647   0.315   0.798  0.0711 -0.4487 -2.0027
  484MOL0     H65318  12.654   0.566   0.968 -0.5921 -1.3789 -1.0305
  484MOL0     H65319  12.716   0.409   1.021  0.1662  0.1912 -0.0674
  484MOL0     H65320  11.776   0.567   1.399  0.6699 -0.5703  2.8637
  484MOL0     H65321  11.562   0.616   1.508  2.3820 -1.3461  3.3906
  484MOL0     H65322  11.190   0.526   1.665  0.3331 -1.4307 -0.0921
  484MOL0     H65323  10.976   0.601   1.770 -3.0794  2.1249 -1.0580
  484MOL0     H65324   9.470   0.661   2.669  1.3286  3.0864  0.2408
  484MOL0     H65325   9.217   0.643   2.632 -0.3457 -1.4738 -0.2386
  484MOL0     H65326   8.845   0.533   2.667 -1.6371  2.5744  1.5362
  484MOL0     H65327   8.608   0.569   2.661 -1.4040  1.0007 -1.4085
  484MOL0     H65328   8.426   0.731   2.637  0.0607  1.0283  0.0590
  484MOL0     H65329   8.402   0.549   2.627 -1.3577  1.0281  1.1203
  484MOL0     H65330   8.227   0.740   2.487  0.0537 -0.5713 -0.6125
  484MOL0     H65331   8.196   0.655   2.648  2.2762  1.6919  2.5133
  484MOL0     H65332   8.267   0.465   2.440 -1.2553 -1.3832  1.3032
  484MOL0     H65333   8.146   0.584   2.379  2.2513  2.0317 -0.2768
  484MOL0     H65334   8.063   0.357   2.486  1.3143 -0.6324  0.1365
  484MOL0     H65335   8.142   0.411   2.637  0.7504  2.0136 -0.3847
  484MOL0     H65336   7.760   0.592   2.605  0.8005  2.6620 -2.7079
  484MOL0     H65337   8.619   0.668   2.246  0.3695  0.7908 -0.6298
  484MOL0     H65338   8.967   0.736   2.228  0.2866 -0.2745 -2.6074
  484MOL0     H65339   8.943   0.574   2.176 -1.8594 -2.0705  0.7213
  484MOL0     H65340   8.821   0.702   2.137 -0.6275  1.4340  1.5656
  485MOL0     O65341  10.249   5.686   2.214 -0.0613  0.5105  0.2349
  485MOL0     C65342  10.307   5.778   2.163 -0.7820 -0.3258  0.0607
  485MOL0     O65343  10.439   5.818   2.198 -0.3364  0.1644  0.3580
  485MOL0     C65344  10.507   5.757   2.293 -0.4698  0.8231 -0.5572
  485MOL0     C65345  10.455   5.756   2.425  0.2164  0.0133  0.3856
  485MOL0     C65346  10.526   5.686   2.523 -1.0848  0.3515  0.3087
  485MOL0     C65347  10.647   5.615   2.495  0.0701 -0.4343 -0.7297
  485MOL0     O65348  10.731   5.555   2.578 -0.5635 -0.3707 -0.4992
  485MOL0     C65349  10.700   5.564   2.716  0.5081  0.5458 -0.3335
  485MOL0     C65350  10.754   5.692   2.778 -0.5972 -0.3791 -0.1765
  485MOL0     C65351  10.919   5.691   2.779  0.4982  0.2080 -0.9870
  485MOL0     C65352  10.985   5.831   2.834 -0.3421 -0.9291 -0.4831
  485MOL0     C65353  11.137   5.825   2.861 -0.0527 -0.9885  0.2626
  485MOL0     C65354  11.203   5.963   2.873 -0.1406 -0.3168  0.1348
  485MOL0     C65355  11.340   5.948   2.929 -0.7527  0.0410  0.0053
  485MOL0     C65356  11.450   5.888   2.834 -0.6762 -0.6319 -0.1219
  485MOL0     N65357  11.589   5.896   2.885 -0.1414  1.0356 -0.6527
  485MOL0     C65358  11.649   6.011   2.931 -0.1019  0.6691 -0.3915
  485MOL0     C65359  11.770   5.970   2.971 -0.2721  0.2092 -0.3526
  485MOL0     C65360  11.866   6.049   3.054  0.2295 -0.7054 -0.1000
  485MOL0     C65361  12.012   6.035   3.012  0.1890 -0.0067  0.8953
  485MOL0     C65362  12.071   5.913   3.074 -0.3895  0.1159 -0.3000
  485MOL0     C65363  12.219   5.890   3.039  0.8014 -0.5895  0.4660
  485MOL0     O65364  12.213   5.867   2.900 -0.1805 -0.6398 -0.8230
  485MOL0     C65365  12.327   5.841   2.830 -0.3161  0.9296 -0.3395
  485MOL0     C65366  12.459   5.891   2.866 -0.0131 -0.0939 -0.3642
  485MOL0     C65367  12.573   5.855   2.798  0.2572  0.5156  0.4992
  485MOL0     C65368  12.561   5.762   2.688 -0.1940 -0.0049  0.1524
  485MOL0     C65369  12.684   5.708   2.620 -0.6428 -0.9050 -0.3669
  485MOL0     O65370  12.806   5.727   2.683  0.3195  0.3502  0.4001
  485MOL0     C65371  12.928   5.701   2.620  0.3721  0.7404 -0.1979
  485MOL0     C65372  13.025   5.620   2.681 -0.1325  0.9229 -0.6786
  485MOL0     C65373  13.144   5.597   2.624  1.7143  0.4031 -0.0032
  485MOL0     C65374  13.178   5.649   2.497  0.2082 -0.3707 -0.0617
  485MOL0     O65375  13.299   5.619   2.445  0.2190  0.2145 -0.4705
  485MOL0     C65376  13.379   5.731   2.407 -0.0176  0.1396  0.2725
  485MOL0     C65377  13.522   5.692   2.444  0.3805 -0.8867  0.6932
  485MOL0     C65378  13.591   5.619   2.335  0.7001  0.6852 -1.0303
  485MOL0     C65379  13.741   5.587   2.353 -0.7439  0.3945  0.0536
  485MOL0     C65380  13.786   5.478   2.250 -0.5262  0.6185  0.2750
  485MOL0     C65381  13.939   5.432   2.241 -0.3288  0.3937  0.3387
  485MOL0     C65382  13.967   5.302   2.174 -0.5478  0.0082  0.6426
  485MOL0     C65383  14.112   5.262   2.174 -0.7239  0.2566 -0.2525
  485MOL0    Cl65384  14.162   5.251   2.347 -0.4341 -0.0079  0.3103
  485MOL0     C65385  13.083   5.734   2.432  0.3622  0.8145  0.2661
  485MOL0     C65386  12.956   5.752   2.491 -0.1583 -0.6873 -0.6034
  485MOL0     O65387  12.662   5.643   2.516 -0.3404  0.1025 -0.3459
  485MOL0     C65388  12.428   5.719   2.651 -0.2141 -0.3035  0.3251
  485MOL0     C65389  12.311   5.757   2.721 -0.4244 -0.4786 -0.4497
  485MOL0     N65390  11.781   5.836   2.929 -0.1780  0.8032  0.5266
  485MOL0     N65391  11.674   5.796   2.887  0.2492  0.0169  0.5340
  485MOL0     C65392  10.694   5.611   2.369 -0.2145  0.4478  0.4928
  485MOL0     C65393  10.626   5.682   2.268 -0.1765 -0.3647 -0.4556
  485MOL0     C65394  10.244   5.866   2.067  0.0593 -0.4606 -0.2108
  485MOL0     C65395  10.240   6.003   2.101  0.5086  0.1572 -0.6354
  485MOL0     C65396  10.189   6.093   2.009  0.4822  0.6346 -0.2261
  485MOL0     C65397  10.123   6.052   1.897 -0.4853  0.3660 -0.3377
  485MOL0     O65398  10.053   6.127   1.819 -0.1608  0.5088 -0.0936
  485MOL0     C65399  10.037   6.269   1.837  0.1502 -0.3536 -0.3891
  485MOL0     C65400   9.916   6.308   1.749  0.0845 -0.8612 -0.8632
  485MOL0     C65401   9.782   6.235   1.794 -0.9504 -0.0791  0.4339
  485MOL0     C65402   9.765   6.093   1.738  0.7605  0.2402 -0.0334
  485MOL0     C65403   9.779   5.984   1.837 -0.2490  0.1658  0.1722
  485MOL0     C65404   9.800   5.904   1.932 -0.0047 -0.6415 -0.8769
  485MOL0     C65405  10.131   5.915   1.862  0.2371  0.4284 -1.1296
  485MOL0     C65406  10.194   5.826   1.942  0.1562  0.0283 -0.2468
  485MOL0     C65407  10.218   5.680   1.904  0.4218  0.1748 -0.0572
  485MOL0     H65408  10.366   5.813   2.455 -0.6591 -0.9212 -0.3760
  485MOL0     H65409  10.484   5.671   2.622 -0.3292 -1.9560  0.3487
  485MOL0     H65410  10.592   5.554   2.728  0.2822  1.8210 -1.2072
  485MOL0     H65411  10.751   5.481   2.767 -1.2757 -1.5589 -1.7695
  485MOL0     H65412  10.722   5.696   2.882 -1.1952  1.0367 -0.3861
  485MOL0     H65413  10.715   5.784   2.733  1.7520  0.5065 -0.5272
  485MOL0     H65414  10.958   5.667   2.679 -0.2523 -0.4039 -1.1434
  485MOL0     H65415  10.949   5.615   2.852  2.2750  1.3160 -0.5116
  485MOL0     H65416  10.959   5.912   2.765  0.1917 -0.8264 -0.5736
  485MOL0     H65417  10.942   5.872   2.926  1.9980  1.3452 -0.2684
  485MOL0     H65418  11.157   5.769   2.952  1.5221 -3.6664 -1.5981
  485MOL0     H65419  11.173   5.758   2.782  0.0449  0.0009 -0.5628
  485MOL0     H65420  11.213   6.019   2.779  2.5132  1.0319  1.1201
  485MOL0     H65421  11.148   6.019   2.950 -0.9379 -2.1360  0.9371
  485MOL0     H65422  11.335   5.880   3.015  4.6051 -0.9079 -0.0882
  485MOL0     H65423  11.372   6.045   2.969  1.4602 -0.4907 -0.3581
  485MOL0     H65424  11.433   5.783   2.812 -1.2439 -0.8663  1.3443
  485MOL0     H65425  11.449   5.942   2.739  1.8582  2.6058  1.4562
  485MOL0     H65426  11.607   6.108   2.956  1.7324  0.5730  3.8974
  485MOL0     H65427  11.837   6.154   3.055 -2.7449 -1.4260  0.2412
  485MOL0     H65428  11.862   6.039   3.163  7.3661  1.7778  0.9022
  485MOL0     H65429  12.002   6.027   2.903  0.5999  3.5085  0.4630
  485MOL0     H65430  12.074   6.120   3.044 -1.0169  0.5156  1.9300
  485MOL0     H65431  12.015   5.825   3.043  1.8324 -1.5234  0.0604
  485MOL0     H65432  12.064   5.912   3.183 -0.7255  0.7817 -0.3115
  485MOL0     H65433  12.240   5.792   3.084  1.6698 -0.2999  0.7138
  485MOL0     H65434  12.290   5.966   3.074  1.5678 -1.1689  0.1953
  485MOL0     H65435  12.459   5.971   2.940  0.3928  0.2126 -0.6901
  485MOL0     H65436  12.669   5.889   2.837  3.0005 -0.6544 -4.4174
  485MOL0     H65437  13.007   5.569   2.775  1.2244 -2.0406 -1.8677
  485MOL0     H65438  13.206   5.514   2.655  1.2115 -0.3144 -0.8905
  485MOL0     H65439  13.362   5.751   2.301 -2.5296  0.7576  0.7129
  485MOL0     H65440  13.344   5.822   2.457  0.9749  3.3600 -4.2889
  485MOL0     H65441  13.578   5.785   2.461  0.7652 -0.2654 -3.0229
  485MOL0     H65442  13.527   5.644   2.542  0.9762 -1.2080  0.5106
  485MOL0     H65443  13.535   5.525   2.331 -0.7778  1.5483 -1.7602
  485MOL0     H65444  13.583   5.666   2.237  1.9997  0.0858 -1.4448
  485MOL0     H65445  13.758   5.535   2.448 -1.7562  1.1740  0.6826
  485MOL0     H65446  13.803   5.677   2.350  0.0109 -0.0976  0.5438
  485MOL0     H65447  13.748   5.505   2.150  0.3121  1.2450  0.1207
  485MOL0     H65448  13.730   5.388   2.279 -0.1491 -0.2591 -1.5489
  485MOL0     H65449  13.995   5.512   2.192  2.3636 -1.9276 -0.6773
  485MOL0     H65450  13.980   5.421   2.342  0.2598  0.0316  0.0670
  485MOL0     H65451  13.928   5.303   2.072  1.8532 -0.8744 -0.3738
  485MOL0     H65452  13.913   5.223   2.226 -3.2666  1.8030  0.7184
  485MOL0     H65453  14.130   5.164   2.130 -1.2066  0.0245  0.0558
  485MOL0     H65454  14.173   5.338   2.125  1.0567 -1.7048 -1.2143
  485MOL0     H65455  13.096   5.775   2.333 -0.4625 -0.6597 -0.5001
  485MOL0     H65456  12.886   5.814   2.436  0.7543 -0.3863 -1.4647
  485MOL0     H65457  12.413   5.663   2.559  0.7638  0.5066 -0.3506
  485MOL0     H65458  12.216   5.729   2.678  0.0415 -0.8817 -1.2307
  485MOL0     H65459  10.788   5.562   2.350  0.1021  1.3757 -0.4676
  485MOL0     H65460  10.676   5.704   2.175  0.9909  3.4352  0.8757
  485MOL0     H65461  10.274   6.034   2.199  0.6727 -1.2234 -0.2302
  485MOL0     H65462  10.187   6.195   2.045  0.4661  0.4901  0.1917
  485MOL0     H65463  10.126   6.320   1.800 -0.4451 -0.4142 -2.0239
  485MOL0     H65464  10.025   6.308   1.938  1.1696  2.2548 -1.2007
  485MOL0     H65465   9.928   6.306   1.640 -2.7120 -0.2784 -1.2408
  485MOL0     H65466   9.898   6.413   1.774 -0.3072 -1.9149  4.5740
  485MOL0     H65467   9.704   6.293   1.743  1.3442  0.7173 -2.4631
  485MOL0     H65468   9.770   6.244   1.902  0.6232  3.2016  0.4453
  485MOL0     H65469   9.659   6.089   1.712  1.4499  2.0772 -3.7795
  485MOL0     H65470   9.818   6.083   1.643  0.3061 -0.6834 -0.2074
  485MOL0     H65471   9.797   5.828   2.007 -1.3199 -2.0284 -2.2582
  485MOL0     H65472  10.080   5.878   1.773 -2.7389  2.9348 -0.6296
  485MOL0     H65473  10.163   5.611   1.969  2.3024 -1.2900  0.0748
  485MOL0     H65474  10.187   5.659   1.801 -1.9199 -0.4816  0.7168
  485MOL0     H65475  10.323   5.650   1.914  0.2487 -1.7948 -2.9670
  486MOL0     O65476   5.328  11.022  10.251  0.6088 -0.4404 -0.7071
  486MOL0     C65477   5.280  10.952  10.161 -0.7500 -0.4577  0.1674
  486MOL0     O65478   5.344  10.855  10.087  0.2576 -0.1317  0.3990
  486MOL0     C65479   5.474  10.828  10.081 -0.7835  0.1600 -0.2114
  486MOL0     C65480   5.562  10.872  10.179 -0.6324  0.1581 -0.0161
  486MOL0     C65481   5.692  10.819  10.179 -0.5173  0.1265  0.0581
  486MOL0     C65482   5.740  10.749  10.067 -0.0087 -0.6195  0.0816
  486MOL0     O65483   5.874  10.711  10.044 -0.4892  0.0803  0.3635
  486MOL0     C65484   5.956  10.687  10.158  0.0702 -0.0225 -0.8964
  486MOL0     C65485   6.085  10.650  10.104  0.2845 -1.0201 -0.0062
  486MOL0     C65486   6.206  10.692  10.195  0.2169 -0.6916 -0.0723
  486MOL0     C65487   6.327  10.709  10.101 -0.7509 -0.4023  0.0579
  486MOL0     C65488   6.444  10.741  10.190  0.2455  0.6951  0.6116
  486MOL0     C65489   6.583  10.706  10.135  0.0816 -0.2737  0.1037
  486MOL0     C65490   6.683  10.705  10.255 -0.1105  0.4389 -0.0377
  486MOL0     C65491   6.818  10.684  10.199  0.2456 -0.4816 -0.5485
  486MOL0     N65492   6.920  10.676  10.308 -0.1868  0.2793 -0.6229
  486MOL0     C65493   7.022  10.579  10.316 -1.0619  0.2719 -0.5388
  486MOL0     C65494   7.091  10.609  10.429  0.0042  0.0434 -1.1828
  486MOL0     C65495   7.219  10.548  10.472 -0.0096  0.3203  0.0425
  486MOL0     C65496   7.266  10.604  10.601 -0.1008  0.4144 -0.1380
  486MOL0     C65497   7.393  10.532  10.648 -0.1919  0.1908  0.6218
  486MOL0     C65498   7.453  10.592  10.768  0.1378 -0.2914 -0.6131
  486MOL0     O65499   7.582  10.531  10.790  0.5472  0.1723 -0.2186
  486MOL0     C65500   7.683  10.619  10.821 -0.0621 -0.0403  0.1147
  486MOL0     C65501   7.667  10.735  10.903  0.1017 -0.4527 -0.1954
  486MOL0     C65502   7.776  10.811  10.942 -0.7559  0.2084 -0.2189
  486MOL0     C65503   7.907  10.779  10.902 -0.7670 -0.7954  0.5524
  486MOL0     C65504   8.027  10.856  10.947 -0.2069  0.0580  0.4332
  486MOL0     O65505   7.999  10.952  11.042 -0.5895 -0.1617  0.1421
  486MOL0     C65506   8.101  11.026  11.092  0.2725 -0.2795  0.3016
  486MOL0     C65507   8.214  11.067  11.024  0.3129  0.6150  0.1536
  486MOL0     C65508   8.307  11.148  11.085  0.8202 -0.4123  0.9304
  486MOL0     C65509   8.299  11.176  11.223 -0.3431  0.1095  0.0479
  486MOL0     O65510   8.391  11.262  11.278  1.1637  0.3991  1.0644
  486MOL0     C65511   8.352  11.400  11.296  0.1215 -0.0571  0.1807
  486MOL0     C65512   8.457  11.478  11.372  0.7790 -0.1419  0.2816
  486MOL0     C65513   8.446  11.630  11.355 -1.3993 -0.8503  0.6337
  486MOL0     C65514   8.559  11.689  11.420  0.2866  0.3043 -0.2883
  486MOL0     C65515   8.557  11.843  11.412 -0.4343 -0.2531 -0.7459
  486MOL0     C65516   8.563  11.916  11.280  0.0224  0.2812 -0.8427
  486MOL0     C65517   8.688  11.900  11.204 -0.1987 -0.7725  0.0904
  486MOL0     C65518   8.792  12.007  11.241 -0.4249  0.9793  0.5035
  486MOL0    Cl65519   8.943  11.989  11.151 -0.1514 -0.1978 -0.1861
  486MOL0     C65520   8.190  11.125  11.290  0.6018  0.7561  0.5629
  486MOL0     C65521   8.086  11.053  11.229  0.3787  0.4098  0.7648
  486MOL0     O65522   8.145  10.825  10.909  0.0821 -0.2244 -0.0109
  486MOL0     C65523   7.917  10.673  10.800  0.1466  0.2799 -0.0233
  486MOL0     C65524   7.812  10.600  10.758  0.3409 -0.2090  0.1350
  486MOL0     N65525   7.028  10.710  10.499  0.1421  0.2638  0.1675
  486MOL0     N65526   6.924  10.747  10.426  0.4800  0.3888 -0.2666
  486MOL0     C65527   5.660  10.725   9.963  0.1653 -0.1410 -1.0089
  486MOL0     C65528   5.520  10.759   9.968 -0.1524  0.3946  0.0727
  486MOL0     C65529   5.149  10.995  10.117 -0.3687 -0.6028 -0.0589
  486MOL0     C65530   5.092  11.120  10.172  0.0151 -0.2699  0.2153
  486MOL0     C65531   4.960  11.152  10.141 -0.2025  0.1047 -0.6044
  486MOL0     C65532   4.876  11.075  10.061 -0.0225 -0.5018 -0.4974
  486MOL0     O65533   4.743  11.118  10.051 -0.3634  0.3354 -0.1064
  486MOL0     C65534   4.652  11.025   9.996 -0.4371  0.0734  0.4291
  486MOL0     C65535   4.508  11.047  10.051  0.3626  0.1044  0.0237
  486MOL0     C65536   4.407  11.008   9.948  0.3446  0.5143  0.2989
  486MOL0     C65537   4.264  11.023  10.010  0.6360  0.3399  0.4520
  486MOL0     C65538   4.156  10.970   9.932  0.0576  0.3398  0.1561
  486MOL0     C65539   4.070  10.935   9.850  0.1626 -0.6360  0.0926
  486MOL0     C65540   4.934  10.966   9.999  0.0431 -0.3720  0.2931
  486MOL0     C65541   5.062  10.923  10.025  0.0483  0.0944 -0.4632
  486MOL0     C65542   5.081  10.790   9.962  0.4399  0.3126 -0.1784
  486MOL0     H65543   5.525  10.924  10.267  0.1460 -1.6622  1.4643
  486MOL0     H65544   5.766  10.841  10.254  1.4266  1.5728 -2.1366
  486MOL0     H65545   5.961  10.775  10.224 -1.6813 -1.4965  1.3394
  486MOL0     H65546   5.927  10.597  10.213  2.2046 -1.9112 -2.6601
  486MOL0     H65547   6.098  10.687  10.002 -1.5126  0.4895  0.2561
  486MOL0     H65548   6.088  10.541  10.089  4.7320 -0.9344 -1.0869
  486MOL0     H65549   6.225  10.623  10.278  3.1257 -1.2148 -1.0286
  486MOL0     H65550   6.184  10.790  10.239 -1.9414 -2.0817  2.2327
  486MOL0     H65551   6.338  10.615  10.046 -0.6296 -0.9223  0.9482
  486MOL0     H65552   6.319  10.787  10.025  2.4556 -0.8355 -0.8818
  486MOL0     H65553   6.427  10.841  10.231 -2.7663  0.0865  1.0929
  486MOL0     H65554   6.429  10.672  10.274 -0.5101 -1.3526 -1.1286
  486MOL0     H65555   6.575  10.612  10.080 -2.1763  0.6426 -1.2681
  486MOL0     H65556   6.608  10.787  10.066  1.0030 -1.2606 -0.7504
  486MOL0     H65557   6.655  10.629  10.328  1.5636 -0.8563 -0.6875
  486MOL0     H65558   6.675  10.800  10.309 -0.3920  0.0704  0.5734
  486MOL0     H65559   6.830  10.589  10.147  2.0680 -0.5451 -0.0590
  486MOL0     H65560   6.840  10.764  10.127 -2.5868  0.6660 -0.2936
  486MOL0     H65561   7.053  10.503  10.245 -1.2273  2.2749 -2.9310
  486MOL0     H65562   7.208  10.441  10.491 -1.0789  0.1618 -1.2785
  486MOL0     H65563   7.289  10.558  10.389  0.8322 -0.5517  0.6269
  486MOL0     H65564   7.285  10.710  10.585 -0.0519  0.1477 -2.2121
  486MOL0     H65565   7.184  10.590  10.672 -2.8272  0.0092 -3.1156
  486MOL0     H65566   7.469  10.528  10.568  0.1193 -0.7363  0.9508
  486MOL0     H65567   7.374  10.426  10.663  0.8105 -0.0383  0.3952
  486MOL0     H65568   7.383  10.583  10.852 -1.4110 -0.8133 -1.8904
  486MOL0     H65569   7.466  10.700  10.767  1.0455 -0.3662  0.5448
  486MOL0     H65570   7.568  10.766  10.934  0.3843  0.5930 -0.3169
  486MOL0     H65571   7.758  10.886  11.017  0.8467 -1.3145  1.7881
  486MOL0     H65572   8.221  11.051  10.917  0.2303  0.5376  0.1591
  486MOL0     H65573   8.386  11.190  11.025 -1.4599 -1.3458 -3.0585
  486MOL0     H65574   8.345  11.453  11.201  0.9051  0.7905  0.5755
  486MOL0     H65575   8.260  11.403  11.356  0.5303 -3.0620  1.1192
  486MOL0     H65576   8.453  11.453  11.478  2.8768  0.9574  0.6792
  486MOL0     H65577   8.554  11.454  11.328  0.4209  1.7791 -1.7083
  486MOL0     H65578   8.455  11.654  11.248  0.5750 -1.3163  0.6561
  486MOL0     H65579   8.352  11.682  11.374 -1.6466 -0.3252 -1.6527
  486MOL0     H65580   8.653  11.648  11.382  1.0755 -0.4139  2.2095
  486MOL0     H65581   8.552  11.668  11.527 -1.6376  1.8568 -0.0585
  486MOL0     H65582   8.643  11.881  11.468 -0.8432 -1.7423  0.9926
  486MOL0     H65583   8.470  11.880  11.467 -1.3919  0.3547 -2.5913
  486MOL0     H65584   8.490  11.874  11.209 -1.8859  0.2957  1.0007
  486MOL0     H65585   8.540  12.021  11.299  0.5678  0.0921  0.9610
  486MOL0     H65586   8.660  11.906  11.098 -0.7693  0.0568  0.2753
  486MOL0     H65587   8.736  11.803  11.213  2.9453  0.7090  0.7919
  486MOL0     H65588   8.748  12.106  11.236 -1.9961  0.2519 -2.1930
  486MOL0     H65589   8.816  11.993  11.346 -1.8685 -1.5456  0.5766
  486MOL0     H65590   8.171  11.147  11.395  1.8495  0.2678  0.9068
  486MOL0     H65591   8.001  11.013  11.284  0.0653  0.9166  0.6540
  486MOL0     H65592   8.011  10.647  10.752 -0.0744  0.8529 -0.7689
  486MOL0     H65593   7.832  10.518  10.689 -1.5266  0.3410 -1.1369
  486MOL0     H65594   5.698  10.677   9.873 -1.4851 -1.2339 -1.1535
  486MOL0     H65595   5.465  10.725   9.881  2.0608  0.1403 -1.2992
  486MOL0     H65596   5.146  11.188  10.237 -0.8352  1.6133 -0.9756
  486MOL0     H65597   4.923  11.238  10.196 -0.8371 -2.0883  2.7102
  486MOL0     H65598   4.677  10.920  10.013 -2.1648 -0.8615 -2.1670
  486MOL0     H65599   4.653  11.031   9.886  1.3895 -2.5191  0.2201
  486MOL0     H65600   4.497  11.154  10.073 -0.7141  1.0621 -4.2505
  486MOL0     H65601   4.502  10.984  10.140  1.3581  1.8215  1.3768
  486MOL0     H65602   4.421  10.901   9.928  0.8615  0.5075  0.6963
  486MOL0     H65603   4.414  11.065   9.855  3.3703 -3.6443 -2.3585
  486MOL0     H65604   4.259  10.971  10.106 -2.0514  0.8159  0.6620
  486MOL0     H65605   4.249  11.126  10.044  0.7174  0.0866  1.2726
  486MOL0     H65606   3.995  10.910   9.778  0.3024  1.6413 -0.9269
  486MOL0     H65607   4.869  10.917   9.928  0.3160  1.2651 -1.1572
  486MOL0     H65608   5.168  10.783   9.896 -0.4165  0.0775 -1.2936
  486MOL0     H65609   5.098  10.709  10.034 -1.0682  1.4601  1.5704
  486MOL0     H65610   4.990  10.757   9.913 -1.6442  2.3251  2.0250
  487MOL0     O65611   3.896   0.389   9.292 -0.0678  0.5492  0.7720
  487MOL0     C65612   3.914   0.340   9.403  0.2770 -0.0543  0.0000
  487MOL0     O65613   4.009   0.241   9.425 -0.6031  0.5463 -0.3780
  487MOL0     C65614   4.116   0.204   9.347  0.5173 -0.2064  0.9096
  487MOL0     C65615   4.240   0.164   9.407  0.2572  0.1939 -0.0192
  487MOL0     C65616   4.351   0.137   9.335 -0.3111 -0.1075  0.2946
  487MOL0     C65617   4.349   0.135   9.191 -0.6788 -0.5584 -0.1111
  487MOL0     O65618   4.460   0.093   9.114  0.4615  0.5815 -0.1851
  487MOL0     C65619   4.448  -0.019   9.021 -0.0374  0.0287  0.0994
  487MOL0     C65620   4.564  -0.015   8.921  0.5706 -0.0342 -0.8422
  487MOL0     C65621   4.683  -0.059   8.998  0.4326  1.1093  0.4416
  487MOL0     C65622   4.809  -0.051   8.916  0.0281 -0.9062  0.5331
  487MOL0     C65623   4.939  -0.130   8.966  0.0718 -0.5131 -0.4365
  487MOL0     C65624   4.954  -0.132   9.127 -0.5161 -0.4087  0.2366
  487MOL0     C65625   5.082  -0.183   9.191  0.5390 -0.8667  1.0637
  487MOL0     C65626   5.200  -0.104   9.135 -0.6584 -0.1851  0.2614
  487MOL0     N65627   5.319  -0.138   9.215 -0.3038  0.1775  0.3035
  487MOL0     C65628   5.388  -0.047   9.291  0.4067  0.5197  0.0910
  487MOL0     C65629   5.514  -0.092   9.284  1.0251  0.5517 -0.1868
  487MOL0     C65630   5.637  -0.011   9.326  0.2731  0.3925 -0.5954
  487MOL0     C65631   5.698   0.075   9.216  0.1777 -0.4696 -0.1519
  487MOL0     C65632   5.785   0.197   9.271  0.1373  0.0988 -0.9074
  487MOL0     C65633   5.919   0.167   9.327  0.0743  0.0402 -0.4537
  487MOL0     O65634   5.994   0.288   9.367  0.2895 -0.0032  0.5032
  487MOL0     C65635   6.092   0.264   9.458 -1.3054 -0.3215  0.6514
  487MOL0     C65636   6.160   0.147   9.503 -0.0504  0.2873  0.6367
  487MOL0     C65637   6.258   0.142   9.603  0.5267 -0.1284 -0.5374
  487MOL0     C65638   6.295   0.257   9.668 -1.0531 -0.6119 -0.6641
  487MOL0     C65639   6.396   0.262   9.783  0.2270  0.5530 -0.7574
  487MOL0     O65640   6.385   0.370   9.872 -0.5682  0.0643  0.5055
  487MOL0     C65641   6.466   0.364   9.977 -0.0961 -0.0712 -0.2553
  487MOL0     C65642   6.590   0.425   9.974 -0.5656 -0.4053  1.1743
  487MOL0     C65643   6.677   0.402  10.083 -0.3521  0.2219 -0.0303
  487MOL0     C65644   6.636   0.345  10.202  0.5324 -0.6903 -0.3171
  487MOL0     O65645   6.712   0.337  10.318 -0.5807  0.1573 -0.2450
  487MOL0     C65646   6.858   0.360  10.306 -0.1806  0.2231  0.1321
  487MOL0     C65647   6.920   0.233  10.260 -0.1604  0.3209  0.4359
  487MOL0     C65648   7.073   0.222  10.284 -0.1942  0.7238 -0.4924
  487MOL0     C65649   7.154   0.350  10.236  0.0592 -0.2311  0.9069
  487MOL0     C65650   7.309   0.331  10.271 -0.1947  0.1516  0.1730
  487MOL0     C65651   7.371   0.234  10.179 -0.0335 -0.4926  0.4032
  487MOL0     C65652   7.351   0.265  10.024 -0.2562  0.3309 -0.4497
  487MOL0     C65653   7.473   0.218   9.943 -0.2852 -0.4112  0.0895
  487MOL0    Cl65654   7.490   0.048   9.970  0.1736 -0.2823  0.2738
  487MOL0     C65655   6.506   0.294  10.210  0.0153 -0.4702 -0.1191
  487MOL0     C65656   6.420   0.313  10.097 -0.3098  0.4993  0.2680
  487MOL0     O65657   6.482   0.176   9.792 -0.3528 -0.0489  0.3175
  487MOL0     C65658   6.238   0.376   9.625  0.6511  0.4237 -0.0861
  487MOL0     C65659   6.138   0.377   9.522 -0.6717  0.0496  0.6422
  487MOL0     N65660   5.515  -0.218   9.226  0.5297  0.2650  0.0535
  487MOL0     N65661   5.398  -0.249   9.197 -0.1565 -0.3497 -0.2381
  487MOL0     C65662   4.225   0.168   9.132 -0.0028 -0.1252  0.1160
  487MOL0     C65663   4.109   0.202   9.209 -0.5184  0.1802  0.0889
  487MOL0     C65664   3.830   0.389   9.523  0.4879  0.7248  0.0558
  487MOL0     C65665   3.701   0.437   9.497  0.1095 -0.3630  0.7631
  487MOL0     C65666   3.600   0.446   9.595  0.0479  0.4832  0.5727
  487MOL0     C65667   3.637   0.431   9.727 -0.0018  0.2289  0.8365
  487MOL0     O65668   3.557   0.416   9.835 -0.4448  0.4029 -0.1555
  487MOL0     C65669   3.419   0.467   9.832 -0.0177 -0.0715  0.4114
  487MOL0     C65670   3.345   0.413   9.951  0.2595 -1.0869  0.5115
  487MOL0     C65671   3.289   0.272   9.922 -0.1175 -0.1638 -0.1252
  487MOL0     C65672   3.215   0.206  10.045 -0.0029  0.3980 -0.1416
  487MOL0     C65673   3.118   0.107   9.996 -1.6564  0.1831  0.5992
  487MOL0     C65674   3.050   0.028   9.938 -0.4825 -0.4105 -0.4561
  487MOL0     C65675   3.775   0.403   9.755  0.6983 -0.1274 -1.2979
  487MOL0     C65676   3.867   0.376   9.654 -0.5750  0.1641 -0.3681
  487MOL0     C65677   3.996   0.314   9.695 -0.3310 -0.2122 -0.1503
  487MOL0     H65678   4.261   0.175   9.513  0.2575 -1.5079  0.1887
  487MOL0     H65679   4.442   0.106   9.386 -1.0661 -2.5050  0.3079
  487MOL0     H65680   4.445  -0.116   9.072  0.8581 -0.8113 -1.3881
  487MOL0     H65681   4.355  -0.014   8.964 -1.0150 -1.2120  1.5074
  487MOL0     H65682   4.583   0.089   8.893 -0.1285  1.2929  2.9714
  487MOL0     H65683   4.554  -0.085   8.838 -3.5625 -0.7793  0.0552
  487MOL0     H65684   4.665  -0.165   9.018  0.2001  1.5164  2.6379
  487MOL0     H65685   4.691  -0.006   9.094  0.6467 -0.8109  1.5310
  487MOL0     H65686   4.790  -0.073   8.811  0.1807  2.2727 -0.2662
  487MOL0     H65687   4.835   0.055   8.926 -1.6747 -0.3091 -0.7489
  487MOL0     H65688   4.928  -0.233   8.928  1.8862 -1.1783  0.7357
  487MOL0     H65689   5.033  -0.095   8.924 -0.0952  1.6802  0.8876
  487MOL0     H65690   4.949  -0.028   9.157 -0.1063  0.7357 -3.2085
  487MOL0     H65691   4.876  -0.195   9.170 -0.3743 -0.2620  0.7129
  487MOL0     H65692   5.097  -0.286   9.157  0.9507  0.1553 -2.2365
  487MOL0     H65693   5.073  -0.177   9.300  1.3040  0.2521  1.0740
  487MOL0     H65694   5.217  -0.120   9.028 -2.2482  1.2175 -0.2421
  487MOL0     H65695   5.188   0.005   9.134  1.9821  0.2544 -3.5324
  487MOL0     H65696   5.359   0.053   9.322 -0.1883  0.3480  0.0825
  487MOL0     H65697   5.615   0.044   9.418  0.6716 -0.6783  0.1583
  487MOL0     H65698   5.715  -0.086   9.343  0.4007  0.5708 -0.3901
  487MOL0     H65699   5.760   0.009   9.154  0.2649 -0.3041 -0.2416
  487MOL0     H65700   5.610   0.109   9.161 -0.4201 -1.4490  0.1737
  487MOL0     H65701   5.723   0.235   9.353 -0.1800 -0.1437 -1.0305
  487MOL0     H65702   5.803   0.272   9.193  0.0592 -0.6602 -1.6618
  487MOL0     H65703   5.982   0.123   9.249 -0.3831 -2.4801  0.4692
  487MOL0     H65704   5.904   0.095   9.409 -2.0391 -0.1890 -1.0028
  487MOL0     H65705   6.135   0.059   9.444 -1.7729  0.5098  0.9825
  487MOL0     H65706   6.311   0.052   9.634  1.8473  0.8099 -0.0021
  487MOL0     H65707   6.622   0.482   9.887 -0.7787  0.6949  1.8066
  487MOL0     H65708   6.776   0.445  10.072 -0.2006 -0.2165 -0.4402
  487MOL0     H65709   6.883   0.446  10.242 -0.4777 -0.9520 -1.6260
  487MOL0     H65710   6.892   0.385  10.407  2.4355 -0.1162 -0.5745
  487MOL0     H65711   6.871   0.150  10.311  1.0509 -0.7199 -0.0589
  487MOL0     H65712   6.903   0.222  10.152 -0.7279  2.4574  0.2630
  487MOL0     H65713   7.083   0.201  10.391 -0.0051 -0.4613 -0.7289
  487MOL0     H65714   7.129   0.141  10.237  1.3933  2.7585 -2.3587
  487MOL0     H65715   7.116   0.426  10.305  0.4831  0.4541  0.4080
  487MOL0     H65716   7.126   0.369  10.132 -1.3222 -3.0999  0.6707
  487MOL0     H65717   7.310   0.286  10.371  0.2843 -0.1012  0.0547
  487MOL0     H65718   7.359   0.427  10.260 -0.6775  0.3097 -0.7355
  487MOL0     H65719   7.474   0.230  10.215  0.2174 -0.3083 -0.2908
  487MOL0     H65720   7.335   0.131  10.193  1.1199 -0.6913  2.4486
  487MOL0     H65721   7.344   0.371   9.997 -0.0984 -0.4436 -4.1606
  487MOL0     H65722   7.261   0.216   9.986  0.7077 -1.1620 -0.9096
  487MOL0     H65723   7.466   0.235   9.835  2.5993 -2.3892 -0.5398
  487MOL0     H65724   7.562   0.266   9.985 -0.4487  1.7359 -1.8264
  487MOL0     H65725   6.483   0.235  10.298 -0.3646  2.1330  1.6340
  487MOL0     H65726   6.316   0.280  10.098 -0.3761  0.7142  0.4866
  487MOL0     H65727   6.263   0.474   9.665  1.1036  0.8529 -1.3933
  487MOL0     H65728   6.091   0.465   9.480 -0.4135 -1.1078 -2.2657
  487MOL0     H65729   4.223   0.176   9.024 -0.6669  0.2490  0.1523
  487MOL0     H65730   4.016   0.228   9.160 -0.3484 -1.3080 -1.1000
  487MOL0     H65731   3.676   0.445   9.391  0.3367 -0.9800  0.6567
  487MOL0     H65732   3.497   0.468   9.568 -0.2365 -2.0582 -0.6951
  487MOL0     H65733   3.364   0.436   9.743  1.7460  1.1978 -1.1762
  487MOL0     H65734   3.407   0.575   9.831 -0.1805 -0.0818  0.8939
  487MOL0     H65735   3.261   0.481   9.973  2.0048  1.9376 -1.4192
  487MOL0     H65736   3.406   0.424  10.041 -0.9536  1.0363  1.1712
  487MOL0     H65737   3.378   0.210   9.906  0.0949  0.3342 -0.9527
  487MOL0     H65738   3.228   0.271   9.831 -2.3989  1.9915  1.2501
  487MOL0     H65739   3.291   0.165  10.111  0.2112 -0.7398 -1.0604
  487MOL0     H65740   3.169   0.289  10.100  3.9284  2.0287  0.9929
  487MOL0     H65741   2.983  -0.040   9.890 -0.2414  1.0588 -3.0473
  487MOL0     H65742   3.801   0.384   9.859 -1.2983 -2.2872 -1.1202
  487MOL0     H65743   4.070   0.344   9.620  1.1560 -3.2683 -0.0865
  487MOL0     H65744   4.019   0.359   9.792 -2.1710  1.5879 -0.4737
  487MOL0     H65745   4.000   0.205   9.708  0.9584 -0.4068 -1.7613
  488MOL0     O65746  10.624   4.774   9.701  0.0713 -0.1453 -0.0994
  488MOL0     C65747  10.627   4.735   9.585 -0.2532  0.2524  0.0934
  488MOL0     O65748  10.739   4.678   9.514  0.3806 -0.5241  0.1840
  488MOL0     C65749  10.858   4.670   9.583  0.2944  0.2545 -0.3820
  488MOL0     C65750  10.874   4.619   9.713 -0.3182 -0.1663  0.4569
  488MOL0     C65751  10.992   4.616   9.780 -0.0423 -0.6551  0.8924
  488MOL0     C65752  11.110   4.664   9.721  0.0002  0.4341  0.3763
  488MOL0     O65753  11.212   4.671   9.794 -0.5496 -0.0056 -0.6768
  488MOL0     C65754  11.340   4.677   9.732  0.1990 -0.5521 -0.5281
  488MOL0     C65755  11.460   4.651   9.823 -0.3021  0.5029 -0.1086
  488MOL0     C65756  11.603   4.652   9.762 -0.4755  0.3964 -0.7211
  488MOL0     C65757  11.710   4.639   9.866  0.0618 -0.5796 -0.1914
  488MOL0     C65758  11.839   4.641   9.799 -0.0465 -0.2984  0.2109
  488MOL0     C65759  11.960   4.625   9.896  0.1846 -0.0882  1.2080
  488MOL0     C65760  12.087   4.650   9.819 -0.8491  0.6404  1.2010
  488MOL0     C65761  12.195   4.675   9.926  0.3555  0.6379  0.1632
  488MOL0     N65762  12.330   4.682   9.868 -0.2330  0.4224 -0.3009
  488MOL0     C65763  12.425   4.769   9.913 -0.1505 -0.1305 -0.0245
  488MOL0     C65764  12.535   4.719   9.867 -0.5619 -0.2480 -0.3559
  488MOL0     C65765  12.669   4.775   9.897  0.1340  0.0901  0.5482
  488MOL0     C65766  12.697   4.897   9.811 -0.7358 -0.1685 -0.1928
  488MOL0     C65767  12.848   4.921   9.821 -0.3144 -0.9024  0.7352
  488MOL0     C65768  12.905   4.977   9.959 -0.1269  0.3080 -0.2764
  488MOL0     O65769  12.833   5.097   9.994 -0.5561  0.1034 -0.6873
  488MOL0     C65770  12.873   5.216   9.949  0.6312 -0.4273 -0.4410
  488MOL0     C65771  12.784   5.325   9.964 -0.4537  0.1079  0.4244
  488MOL0     C65772  12.808   5.453   9.914  0.1234 -0.1228  0.2220
  488MOL0     C65773  12.931   5.479   9.852  0.0997  0.2973 -0.2474
  488MOL0     C65774  12.957   5.609   9.787  0.5696  0.2602  0.5527
  488MOL0     O65775  13.085   5.622   9.736  0.2251 -0.1594 -0.3116
  488MOL0     C65776  13.096   5.736   9.652  0.1171  0.8756  0.0863
  488MOL0     C65777  13.098   5.867   9.697  0.0011  0.0350 -0.0989
  488MOL0     C65778  13.089   5.979   9.618  0.2074 -0.3228  0.3022
  488MOL0     C65779  13.084   5.959   9.481  0.8671  0.2529  0.6026
  488MOL0     O65780  13.083   6.054   9.380  0.4173  0.4684  0.5585
  488MOL0     C65781  13.186   6.154   9.387 -0.4418  0.2350 -1.0195
  488MOL0     C65782  13.134   6.290   9.347 -0.0498 -0.7908 -0.2636
  488MOL0     C65783  13.088   6.378   9.458 -0.1456  1.1870 -0.2069
  488MOL0     C65784  12.973   6.483   9.429 -0.7777 -0.4231  0.4831
  488MOL0     C65785  12.849   6.401   9.364 -0.4970 -0.8536 -0.1598
  488MOL0     C65786  12.708   6.470   9.357 -0.4980  0.4658 -0.6058
  488MOL0     C65787  12.629   6.400   9.242  0.5169 -0.4274  0.3777
  488MOL0     C65788  12.485   6.410   9.291  0.6062  0.2462  0.2042
  488MOL0    Cl65789  12.439   6.575   9.309 -0.1740 -0.2766 -0.2421
  488MOL0     C65790  13.078   5.831   9.425 -0.7346  0.2264  0.5747
  488MOL0     C65791  13.087   5.718   9.510  1.2261  0.0860 -0.2474
  488MOL0     O65792  12.858   5.676   9.767 -0.2524  0.2779  0.4619
  488MOL0     C65793  13.030   5.377   9.853 -0.0371 -0.2065 -0.8900
  488MOL0     C65794  12.994   5.244   9.879  0.0783 -0.3468 -0.1954
  488MOL0     N65795  12.505   4.621   9.779 -0.3292  0.8189 -0.0091
  488MOL0     N65796  12.386   4.589   9.784 -0.5107 -0.0588 -0.3667
  488MOL0     C65797  11.100   4.720   9.590  0.7174 -0.1848 -1.0054
  488MOL0     C65798  10.976   4.723   9.526  0.3899 -0.7191 -0.2139
  488MOL0     C65799  10.506   4.762   9.508 -0.0765  0.1471  0.0515
  488MOL0     C65800  10.513   4.760   9.363 -0.2678  0.0324 -0.1969
  488MOL0     C65801  10.398   4.775   9.287 -0.1844  0.3869 -0.6402
  488MOL0     C65802  10.270   4.792   9.345  0.0652  0.7718 -0.2671
  488MOL0     O65803  10.151   4.836   9.282 -0.1943 -0.1547 -0.1722
  488MOL0     C65804  10.142   4.833   9.135  0.1038 -0.7574 -0.3761
  488MOL0     C65805  10.128   4.694   9.073 -0.0595  0.7279  0.3120
  488MOL0     C65806  10.142   4.703   8.917  1.4408 -0.6047 -1.2160
  488MOL0     C65807  10.094   4.576   8.836  0.1658 -0.5413 -0.7313
  488MOL0     C65808  10.210   4.510   8.781 -0.0942  0.1057  0.1705
  488MOL0     C65809  10.302   4.478   8.721 -0.0845 -1.1715  0.3462
  488MOL0     C65810  10.261   4.786   9.483 -0.3240  0.8012  0.5932
  488MOL0     C65811  10.371   4.767   9.562 -0.6012 -0.2803  0.0001
  488MOL0     C65812  10.337   4.743   9.707 -0.4625 -0.0868  0.5773
  488MOL0     H65813  10.791   4.578   9.770 -0.1574  0.5124  1.2072
  488MOL0     H65814  10.998   4.578   9.881  2.1704 -2.0374  0.3184
  488MOL0     H65815  11.342   4.605   9.649 -4.2325 -1.4322 -0.0657
  488MOL0     H65816  11.355   4.779   9.695  0.7685 -1.0315 -1.6966
  488MOL0     H65817  11.445   4.548   9.855  0.1429  0.8427  1.3019
  488MOL0     H65818  11.467   4.726   9.904  0.7809  0.8920 -0.5413
  488MOL0     H65819  11.623   4.750   9.717 -2.1044  1.0180 -0.1671
  488MOL0     H65820  11.616   4.576   9.685 -0.8747 -1.5006  1.0092
  488MOL0     H65821  11.709   4.723   9.937  3.6748 -0.9058  0.4122
  488MOL0     H65822  11.679   4.549   9.919 -0.9057  0.6331  1.4112
  488MOL0     H65823  11.856   4.560   9.727 -0.4546 -1.5228  1.4569
  488MOL0     H65824  11.854   4.737   9.750  0.6697  0.4264  1.7879
  488MOL0     H65825  11.957   4.704   9.971  1.1287 -0.1373  1.3015
  488MOL0     H65826  11.950   4.526   9.942  0.4625 -0.8983 -0.3919
  488MOL0     H65827  12.083   4.734   9.750  1.4815 -0.0814  0.0899
  488MOL0     H65828  12.104   4.557   9.763 -0.3389  1.5302 -0.1627
  488MOL0     H65829  12.177   4.770   9.978  0.1072  0.2484  0.8073
  488MOL0     H65830  12.192   4.591   9.996 -0.4441 -0.1048 -0.7385
  488MOL0     H65831  12.427   4.844   9.992  1.1327 -0.4985  0.3046
  488MOL0     H65832  12.681   4.802  10.003 -1.7286  1.5805  0.4254
  488MOL0     H65833  12.745   4.700   9.873  1.2681  1.1995  0.5184
  488MOL0     H65834  12.664   4.864   9.712  1.6302 -1.6602 -0.5642
  488MOL0     H65835  12.631   4.983   9.825  0.8541  1.0916 -0.0923
  488MOL0     H65836  12.874   4.989   9.740 -2.3592  0.4234  1.1446
  488MOL0     H65837  12.897   4.830   9.785  0.8831  1.0085 -2.9161
  488MOL0     H65838  13.012   4.996   9.951 -0.0271  0.3907  1.1423
  488MOL0     H65839  12.909   4.897  10.033 -1.1567 -0.5853 -1.1389
  488MOL0     H65840  12.688   5.307  10.012 -0.8596 -3.6877 -1.4712
  488MOL0     H65841  12.734   5.531   9.925 -1.1123 -0.9860 -1.4539
  488MOL0     H65842  13.088   5.884   9.804 -3.2335 -0.8430 -0.1364
  488MOL0     H65843  13.085   6.084   9.644 -3.0954 -0.5029  1.0167
  488MOL0     H65844  13.241   6.147   9.482 -0.7620 -0.7415 -0.8929
  488MOL0     H65845  13.255   6.119   9.310 -2.5038 -0.5182 -2.6282
  488MOL0     H65846  13.215   6.354   9.310 -3.1423  2.9282 -1.2533
  488MOL0     H65847  13.066   6.269   9.264 -0.0038 -0.8173 -0.2944
  488MOL0     H65848  13.060   6.313   9.542 -0.2921 -0.1754 -1.2782
  488MOL0     H65849  13.170   6.440   9.495 -0.3096  1.1553  0.2201
  488MOL0     H65850  13.008   6.558   9.356 -0.8937 -0.3122  0.5408
  488MOL0     H65851  12.955   6.539   9.521  0.6084  0.9273 -0.0074
  488MOL0     H65852  12.839   6.311   9.427  1.2361 -0.9695  0.0044
  488MOL0     H65853  12.872   6.382   9.259  0.9569  1.5367 -0.3504
  488MOL0     H65854  12.665   6.469   9.457  1.6095  2.6689  0.4081
  488MOL0     H65855  12.727   6.577   9.346 -1.2707  1.5341  5.3086
  488MOL0     H65856  12.653   6.294   9.237 -0.3812 -0.6260  0.1813
  488MOL0     H65857  12.642   6.448   9.144 -1.0477  1.8689  1.2005
  488MOL0     H65858  12.424   6.366   9.212  2.3843  0.5884 -1.4411
  488MOL0     H65859  12.466   6.355   9.383  1.1867 -2.6983 -1.3029
  488MOL0     H65860  13.061   5.828   9.318 -0.2184  1.1465  0.4646
  488MOL0     H65861  13.076   5.616   9.475 -1.7427  0.5903 -1.0954
  488MOL0     H65862  13.122   5.401   9.800  0.3939  1.7534  0.6704
  488MOL0     H65863  13.065   5.168   9.848 -0.1785 -0.8100  0.3394
  488MOL0     H65864  11.172   4.786   9.543 -0.9004  0.7013 -2.3775
  488MOL0     H65865  10.955   4.779   9.436 -3.6294 -0.7977  0.4806
  488MOL0     H65866  10.609   4.760   9.312  0.7417 -2.1969  1.5584
  488MOL0     H65867  10.404   4.796   9.181 -2.9716 -0.2363 -1.0068
  488MOL0     H65868  10.228   4.884   9.091 -0.7358  0.2887 -0.8443
  488MOL0     H65869  10.055   4.895   9.114  0.6580  0.7734  1.5357
  488MOL0     H65870  10.029   4.656   9.101 -0.3284  2.0601  1.2423
  488MOL0     H65871  10.211   4.638   9.118  0.8501  2.3879  0.7874
  488MOL0     H65872  10.241   4.740   8.891  0.4801  2.6256 -0.7222
  488MOL0     H65873  10.076   4.785   8.886 -0.9136 -1.6861  0.6208
  488MOL0     H65874  10.029   4.512   8.896 -1.0874  0.7450 -0.6643
  488MOL0     H65875  10.027   4.599   8.752  0.5009 -2.0798 -1.4606
  488MOL0     H65876  10.387   4.450   8.661  1.0223  0.8502  0.8970
  488MOL0     H65877  10.160   4.797   9.522  0.2237  1.8924  1.7383
  488MOL0     H65878  10.416   4.687   9.758  0.9760  2.0079  0.7990
  488MOL0     H65879  10.325   4.839   9.757 -0.8029 -0.4358  1.1753
  488MOL0     H65880  10.243   4.690   9.723 -3.7355  4.6043 -0.8801
  489MOL0     O65881   9.953   3.718   5.678  0.2329  0.4901  0.1797
  489MOL0     C65882   9.853   3.795   5.678  0.3838 -0.1124  0.2677
  489MOL0     O65883   9.861   3.928   5.688  0.4030  0.4221 -0.9073
  489MOL0     C65884   9.981   3.982   5.720  0.1371 -0.5699 -0.0680
  489MOL0     C65885  10.068   3.949   5.825  0.0585  0.1742 -0.1164
  489MOL0     C65886  10.195   4.005   5.836  0.2612 -0.3246  0.2385
  489MOL0     C65887  10.230   4.117   5.754  0.0246  0.5232  0.0175
  489MOL0     O65888  10.350   4.184   5.761  0.1217  0.0388  0.5103
  489MOL0     C65889  10.425   4.174   5.886 -0.2262  0.3034  0.0925
  489MOL0     C65890  10.548   4.261   5.891 -0.1914 -0.4667  0.1716
  489MOL0     C65891  10.511   4.403   5.942  0.8342 -1.2540  0.0896
  489MOL0     C65892  10.624   4.504   5.901  0.2877  0.1303 -0.2498
  489MOL0     C65893  10.592   4.651   5.900 -0.8585 -0.0946  0.2245
  489MOL0     C65894  10.544   4.722   6.028  0.5919  0.2271  0.3551
  489MOL0     C65895  10.528   4.870   6.015  0.7502 -0.4917  0.5636
  489MOL0     C65896  10.432   4.920   6.124  0.0165 -0.4700 -0.4065
  489MOL0     N65897  10.470   5.058   6.154 -0.0195 -0.1383 -0.2198
  489MOL0     C65898  10.433   5.166   6.088 -0.0809  0.2729  0.0336
  489MOL0     C65899  10.515   5.259   6.134  0.1078  0.0169 -0.3057
  489MOL0     C65900  10.503   5.397   6.074  0.4303  0.0849  0.3944
  489MOL0     C65901  10.568   5.415   5.938 -0.0893  0.0324  0.9254
  489MOL0     C65902  10.709   5.367   5.924  0.7645 -0.3965  0.0066
  489MOL0     C65903  10.719   5.223   5.877 -0.1404  0.5809  0.1938
  489MOL0     O65904  10.632   5.204   5.760  0.1055 -0.4351 -0.0163
  489MOL0     C65905  10.626   5.083   5.692 -0.0163  0.1020  0.2904
  489MOL0     C65906  10.515   5.050   5.609 -0.2159 -0.8079  0.2186
  489MOL0     C65907  10.523   4.928   5.535  0.0282  0.5093  0.7559
  489MOL0     C65908  10.633   4.835   5.553  0.6587  0.7184  0.2986
  489MOL0     C65909  10.628   4.691   5.501 -0.0765  0.5515 -0.1444
  489MOL0     O65910  10.518   4.664   5.435  0.6348 -0.2332 -0.8423
  489MOL0     C65911  10.486   4.534   5.405 -0.2079 -1.2992 -0.5361
  489MOL0     C65912  10.472   4.490   5.276 -0.1924  0.1573  0.1271
  489MOL0     C65913  10.458   4.347   5.248 -0.4906 -0.0803  0.0752
  489MOL0     C65914  10.463   4.251   5.342  0.4512  0.1697  0.6355
  489MOL0     O65915  10.447   4.120   5.312 -0.2416 -0.0297  0.2089
  489MOL0     C65916  10.343   4.043   5.371 -0.4217  0.1107 -0.8936
  489MOL0     C65917  10.285   3.925   5.286  0.9262  0.9084  0.4869
  489MOL0     C65918  10.184   3.961   5.174 -0.5331 -0.0296 -0.3765
  489MOL0     C65919  10.041   3.977   5.232 -0.1834  0.0030 -0.4334
  489MOL0     C65920   9.963   4.038   5.122 -0.1386 -0.7293 -0.0603
  489MOL0     C65921   9.816   4.005   5.152  0.2617 -0.0921  0.3528
  489MOL0     C65922   9.723   4.036   5.037  0.1206  0.2935 -1.0391
  489MOL0     C65923   9.574   4.043   5.085 -1.0344 -0.0138  0.0945
  489MOL0    Cl65924   9.459   4.083   4.951  0.0336  0.1649  0.3143
  489MOL0     C65925  10.471   4.294   5.475  0.3512 -0.0384 -0.2596
  489MOL0     C65926  10.488   4.433   5.504  0.0973  0.9635  0.1231
  489MOL0     O65927  10.727   4.618   5.523 -0.7238  0.0384 -0.1805
  489MOL0     C65928  10.732   4.866   5.638  0.3667 -0.0640  0.2125
  489MOL0     C65929  10.728   4.983   5.706  0.4656 -0.2215 -0.8316
  489MOL0     N65930  10.603   5.207   6.227 -0.5611 -0.0093  0.3913
  489MOL0     N65931  10.567   5.081   6.243  0.1395 -0.5313  0.0558
  489MOL0     C65932  10.141   4.157   5.650  0.3235 -0.9982  0.4014
  489MOL0     C65933  10.027   4.081   5.627  0.4032  0.7069  0.7380
  489MOL0     C65934   9.714   3.739   5.680  0.2293 -1.3753  0.4567
  489MOL0     C65935   9.618   3.806   5.609 -0.5019 -0.1170  0.2449
  489MOL0     C65936   9.488   3.766   5.614  0.0260 -0.8095 -0.6344
  489MOL0     C65937   9.450   3.646   5.679  0.6300  0.1383  0.2462
  489MOL0     O65938   9.313   3.625   5.684  0.2587  0.5762 -0.2769
  489MOL0     C65939   9.279   3.485   5.707 -0.2771 -0.1260  0.3776
  489MOL0     C65940   9.254   3.440   5.849  0.7002 -0.1586 -0.5623
  489MOL0     C65941   9.196   3.296   5.854  0.3203  0.0270  0.2206
  489MOL0     C65942   9.170   3.246   5.995 -0.9048 -0.4655  0.9976
  489MOL0     C65943   9.287   3.233   6.078  0.1122 -0.5791  0.1902
  489MOL0     C65944   9.386   3.233   6.155 -0.0003 -0.9384 -0.1801
  489MOL0     C65945   9.551   3.572   5.737 -0.4915 -0.4737 -0.2729
  489MOL0     C65946   9.680   3.621   5.744 -0.7364  0.4164 -0.7119
  489MOL0     C65947   9.780   3.524   5.813 -0.0042 -1.3127  0.3067
  489MOL0     H65948  10.051   3.864   5.890  5.0027 -1.6134 -0.7552
  489MOL0     H65949  10.260   3.956   5.908  0.2580  0.9461  1.1350
  489MOL0     H65950  10.356   4.209   5.963  0.3904 -0.7088  1.1346
  489MOL0     H65951  10.453   4.071   5.910 -3.3085 -0.3628  1.1844
  489MOL0     H65952  10.592   4.260   5.791 -0.2780  0.2208  0.1190
  489MOL0     H65953  10.621   4.212   5.956 -0.0891 -2.0508 -1.0763
  489MOL0     H65954  10.496   4.396   6.050 -3.5250 -2.2647 -0.3740
  489MOL0     H65955  10.418   4.447   5.903 -0.2858 -1.2672  2.5694
  489MOL0     H65956  10.707   4.471   5.964  0.4084  0.0144 -0.4641
  489MOL0     H65957  10.640   4.480   5.795 -0.2585  1.7332 -0.7311
  489MOL0     H65958  10.693   4.691   5.886 -0.3484 -0.0131  3.4672
  489MOL0     H65959  10.527   4.671   5.814  1.1092  3.1381 -0.6627
  489MOL0     H65960  10.444   4.682   6.046 -0.7000  1.1779 -3.6232
  489MOL0     H65961  10.609   4.697   6.112 -0.2627  0.8917  1.2387
  489MOL0     H65962  10.489   4.913   5.922  1.4097 -0.1684  0.4344
  489MOL0     H65963  10.625   4.918   6.032 -0.2277  1.6515  0.4979
  489MOL0     H65964  10.329   4.909   6.089 -0.2002 -1.8019  0.5959
  489MOL0     H65965  10.445   4.858   6.213  0.8904 -3.3810 -2.4106
  489MOL0     H65966  10.350   5.183   6.020  0.4088  2.6254 -0.0602
  489MOL0     H65967  10.397   5.422   6.063  0.6949  1.2317  0.2978
  489MOL0     H65968  10.549   5.472   6.139  0.4842  0.9894 -0.6557
  489MOL0     H65969  10.507   5.369   5.860 -0.9535  2.8782 -0.2048
  489MOL0     H65970  10.564   5.520   5.907 -2.2274 -0.7598 -1.8476
  489MOL0     H65971  10.766   5.385   6.017  1.2129  2.9880 -0.8126
  489MOL0     H65972  10.769   5.427   5.856  1.5138 -0.0195  0.9660
  489MOL0     H65973  10.677   5.164   5.959 -2.0761  1.0573 -0.4203
  489MOL0     H65974  10.825   5.199   5.864 -0.3557  0.2066 -0.9777
  489MOL0     H65975  10.440   5.127   5.598  1.5497  1.3016  1.9621
  489MOL0     H65976  10.433   4.894   5.484  0.3876  0.8898 -0.1563
  489MOL0     H65977  10.478   4.561   5.194 -0.3826  0.2131  0.1613
  489MOL0     H65978  10.437   4.324   5.144 -0.4696 -0.8402  0.2387
  489MOL0     H65979  10.387   3.988   5.455 -1.6410 -2.0442 -1.5756
  489MOL0     H65980  10.259   4.106   5.402 -1.0274 -0.0361 -2.1390
  489MOL0     H65981  10.370   3.866   5.251  0.1843  0.4802 -0.6333
  489MOL0     H65982  10.228   3.859   5.352 -0.1252 -0.8774 -2.0519
  489MOL0     H65983  10.224   4.050   5.126  0.6619 -0.4835 -0.2668
  489MOL0     H65984  10.181   3.878   5.103 -1.3631 -0.5255  0.2053
  489MOL0     H65985  10.043   4.040   5.322 -0.0042 -3.2563  2.0212
  489MOL0     H65986  10.001   3.879   5.258  0.0627  0.1591  0.5985
  489MOL0     H65987   9.992   3.990   5.028  0.7945 -0.8442  0.2777
  489MOL0     H65988   9.985   4.144   5.109  0.2269 -0.7700  0.2040
  489MOL0     H65989   9.805   3.901   5.184 -2.3166 -0.3347 -1.0855
  489MOL0     H65990   9.781   4.065   5.237  2.8572  0.6890  0.9764
  489MOL0     H65991   9.739   3.957   4.962 -0.4928 -2.1457  1.2744
  489MOL0     H65992   9.754   4.132   4.994  0.3204  1.9190  2.3978
  489MOL0     H65993   9.542   3.942   5.113  0.4090 -0.1866  1.2957
  489MOL0     H65994   9.567   4.104   5.175 -1.4555 -1.6168  1.2000
  489MOL0     H65995  10.477   4.215   5.549 -4.0702 -0.1669  0.2426
  489MOL0     H65996  10.507   4.452   5.609 -0.0687 -0.5366  0.4550
  489MOL0     H65997  10.817   4.807   5.671 -0.3763 -0.4425  1.5583
  489MOL0     H65998  10.805   5.022   5.772 -2.7746  2.4974  1.7717
  489MOL0     H65999  10.163   4.235   5.578 -0.8421  0.0720  1.1472
  489MOL0     H66000   9.950   4.115   5.558 -1.8064  0.9176  3.1674
  489MOL0     H66001   9.639   3.895   5.550  0.5981 -0.7552 -0.3577
  489MOL0     H66002   9.413   3.818   5.556 -1.0684 -2.4441 -0.7403
  489MOL0     H66003   9.350   3.414   5.663 -3.2364 -2.5872 -0.8430
  489MOL0     H66004   9.186   3.462   5.654 -0.0883  1.5555 -0.7393
  489MOL0     H66005   9.185   3.517   5.883  1.4925 -0.0727  0.9627
  489MOL0     H66006   9.338   3.454   5.917  0.3004 -0.2374 -0.0529
  489MOL0     H66007   9.257   3.221   5.804 -0.4239 -1.6432  1.6985
  489MOL0     H66008   9.101   3.291   5.800 -0.2433 -0.8669  1.2544
  489MOL0     H66009   9.099   3.309   6.050 -2.7216 -0.3585 -1.3011
  489MOL0     H66010   9.118   3.149   5.994  1.4932 -1.8291 -0.0468
  489MOL0     H66011   9.459   3.230   6.234  0.2105 -1.6568 -0.3900
  489MOL0     H66012   9.537   3.483   5.798 -0.4226  0.5201  1.2460
  489MOL0     H66013   9.861   3.498   5.744 -1.0447 -1.0055 -1.0873
  489MOL0     H66014   9.826   3.582   5.893 -2.1125  2.1331 -0.7460
  489MOL0     H66015   9.742   3.426   5.844  0.8230 -2.4347 -2.0381
  490MOL0     O66016   8.449   1.381   1.563 -0.7215  0.1932  0.0129
  490MOL0     C66017   8.418   1.399   1.672  0.3625  0.1914 -0.4032
  490MOL0     O66018   8.506   1.436   1.767 -0.0963 -0.1837  0.0906
  490MOL0     C66019   8.641   1.442   1.749  0.2839 -0.2099 -1.1335
  490MOL0     C66020   8.719   1.406   1.862  0.2252 -1.1290 -1.0819
  490MOL0     C66021   8.860   1.420   1.850  0.7743  0.0332 -0.8923
  490MOL0     C66022   8.921   1.462   1.735  0.5350 -0.8459  0.5019
  490MOL0     O66023   9.059   1.452   1.738 -0.1007 -0.0634  0.4017
  490MOL0     C66024   9.124   1.495   1.622 -0.5165 -0.3248  0.2717
  490MOL0     C66025   9.276   1.460   1.643  1.4414 -0.4673  0.4783
  490MOL0     C66026   9.342   1.501   1.784 -0.1747 -0.1135  0.3904
  490MOL0     C66027   9.300   1.637   1.831  0.4417  0.2968  0.8921
  490MOL0     C66028   9.391   1.701   1.935  0.0285 -0.2072  0.0250
  490MOL0     C66029   9.541   1.740   1.874  0.0684 -0.1986  0.2806
  490MOL0     C66030   9.611   1.836   1.970 -0.5632 -0.0634  0.4521
  490MOL0     C66031   9.752   1.866   1.912  0.0295  0.0788  0.3163
  490MOL0     N66032   9.826   1.945   2.014  0.3890  0.8525  0.3666
  490MOL0     C66033   9.809   2.079   2.043 -0.1205  0.0007  0.6675
  490MOL0     C66034   9.918   2.114   2.119 -0.0195  0.1911  0.5388
  490MOL0     C66035   9.963   2.243   2.195  0.5045 -0.6831 -0.4625
  490MOL0     C66036   9.927   2.376   2.133 -0.4811  0.1075 -0.0275
  490MOL0     C66037  10.002   2.491   2.205  0.0818  0.4764 -0.0628
  490MOL0     C66038   9.975   2.631   2.145  0.1173 -0.1118  0.0548
  490MOL0     O66039   9.995   2.625   2.004 -0.7279 -0.1588  0.2205
  490MOL0     C66040  10.125   2.636   1.955  0.6738  0.0048  0.6669
  490MOL0     C66041  10.141   2.608   1.818 -0.0899 -0.5208  0.4788
  490MOL0     C66042  10.265   2.595   1.758 -0.1133  0.3702  0.3282
  490MOL0     C66043  10.386   2.608   1.831 -0.0172 -0.2310 -0.5238
  490MOL0     C66044  10.522   2.605   1.767 -0.3965  0.5148  0.1939
  490MOL0     O66045  10.546   2.558   1.648 -0.5070 -0.0898  0.8862
  490MOL0     C66046  10.672   2.523   1.613  0.0523  1.1454  0.4945
  490MOL0     C66047  10.748   2.426   1.686 -0.9470  0.4011 -0.2464
  490MOL0     C66048  10.879   2.402   1.653  0.1387 -0.3964 -0.2334
  490MOL0     C66049  10.932   2.456   1.536 -0.0496  0.2377  0.4227
  490MOL0     O66050  11.065   2.427   1.515 -0.8130  0.3922  0.1750
  490MOL0     C66051  11.150   2.486   1.615 -1.2442 -0.3818  0.1434
  490MOL0     C66052  11.306   2.468   1.588  0.8132  0.3143  0.2868
  490MOL0     C66053  11.348   2.320   1.613 -0.7390  0.0250 -0.0131
  490MOL0     C66054  11.495   2.300   1.589 -0.9050 -1.2656 -0.0104
  490MOL0     C66055  11.539   2.279   1.441  0.7286  0.2784  0.0980
  490MOL0     C66056  11.689   2.251   1.437  0.4834  0.4598  0.6798
  490MOL0     C66057  11.751   2.277   1.301 -0.4804  0.2973  0.2736
  490MOL0     C66058  11.700   2.170   1.199  0.2057 -0.6503 -0.5384
  490MOL0    Cl66059  11.583   2.250   1.086 -0.1411 -0.8007  0.2871
  490MOL0     C66060  10.853   2.545   1.458 -0.3819  0.0482 -0.9330
  490MOL0     C66061  10.725   2.576   1.498 -0.6968  0.2396  0.5633
  490MOL0     O66062  10.610   2.632   1.849 -0.4587  0.3571  0.9089
  490MOL0     C66063  10.375   2.644   1.969  0.3285 -0.3662 -0.1212
  490MOL0     C66064  10.240   2.663   2.030  0.0563  0.1501  0.9644
  490MOL0     N66065   9.995   2.000   2.135  0.1721 -0.0785 -0.8464
  490MOL0     N66066   9.944   1.900   2.069 -0.2911 -0.2620 -0.1398
  490MOL0     C66067   8.845   1.510   1.623  0.8276 -0.2767 -0.7804
  490MOL0     C66068   8.700   1.500   1.630  0.2295  0.2374 -0.2808
  490MOL0     C66069   8.272   1.380   1.703 -0.7954 -0.4033  0.7404
  490MOL0     C66070   8.175   1.420   1.603 -0.7196 -0.2356  0.5118
  490MOL0     C66071   8.037   1.403   1.631 -0.4434  0.3285 -0.4162
  490MOL0     C66072   7.992   1.372   1.758 -0.0408  0.4162 -0.6109
  490MOL0     O66073   7.853   1.399   1.777 -0.2655  0.0910  0.4738
  490MOL0     C66074   7.798   1.369   1.905 -0.0683 -0.7082  0.1802
  490MOL0     C66075   7.707   1.241   1.899 -1.1657 -0.0263  0.6109
  490MOL0     C66076   7.667   1.189   2.034  0.2859  0.3146 -0.0592
  490MOL0     C66077   7.597   1.047   2.019  0.3309 -0.0939  0.5044
  490MOL0     C66078   7.452   1.055   2.017  0.0527 -0.0801 -0.9680
  490MOL0     C66079   7.330   1.059   2.028  1.3079  0.8481 -0.6907
  490MOL0     C66080   8.088   1.323   1.851  0.7517  0.5794 -0.5983
  490MOL0     C66081   8.225   1.328   1.827  0.5638 -0.0411  0.7862
  490MOL0     C66082   8.317   1.268   1.930  0.0210 -0.3254 -0.5918
  490MOL0     H66083   8.671   1.372   1.953  0.7320 -2.3481 -1.2579
  490MOL0     H66084   8.921   1.387   1.934 -1.0276 -1.8405 -0.2356
  490MOL0     H66085   9.092   1.428   1.541  0.1347 -1.9934  1.3717
  490MOL0     H66086   9.111   1.603   1.605  1.5073  0.5165  3.4052
  490MOL0     H66087   9.337   1.512   1.569  0.1332 -0.1000 -0.3752
  490MOL0     H66088   9.292   1.351   1.641 -1.3789 -0.9499 -1.3543
  490MOL0     H66089   9.451   1.492   1.782 -0.2359 -0.8546  0.0823
  490MOL0     H66090   9.304   1.420   1.848 -1.4396 -0.4341 -0.7175
  490MOL0     H66091   9.297   1.711   1.750  1.5462  0.1912  0.7341
  490MOL0     H66092   9.197   1.632   1.868 -0.1701  2.4142 -0.3571
  490MOL0     H66093   9.345   1.792   1.973  0.6091 -0.8700  2.4427
  490MOL0     H66094   9.406   1.639   2.023  0.5282  1.1762  0.9482
  490MOL0     H66095   9.592   1.644   1.869  0.3451 -0.6376  5.4532
  490MOL0     H66096   9.538   1.787   1.775 -1.1393  2.4737  1.4612
  490MOL0     H66097   9.607   1.794   2.071 -0.2125 -2.5105 -0.4751
  490MOL0     H66098   9.565   1.934   1.981  0.5922  0.5527 -0.0130
  490MOL0     H66099   9.810   1.776   1.890 -0.8695 -0.8322  1.5477
  490MOL0     H66100   9.732   1.923   1.820 -0.6951 -2.2551 -1.0751
  490MOL0     H66101   9.729   2.149   2.023 -0.7148 -0.4039  1.5881
  490MOL0     H66102   9.916   2.236   2.294 -1.0794 -0.2117 -1.1472
  490MOL0     H66103  10.072   2.248   2.199  0.4785  0.3793 -0.7997
  490MOL0     H66104   9.949   2.383   2.027 -2.1444  3.0669 -0.2724
  490MOL0     H66105   9.819   2.392   2.146 -0.9388 -1.1234 -1.9885
  490MOL0     H66106  10.108   2.467   2.193 -0.2875 -1.4090  0.1227
  490MOL0     H66107   9.980   2.495   2.312  0.6223  0.6828  0.0415
  490MOL0     H66108  10.039   2.704   2.195  1.6788 -1.6163  0.3539
  490MOL0     H66109   9.872   2.661   2.163 -0.0034 -1.4491  1.8913
  490MOL0     H66110  10.051   2.570   1.772  1.1351 -1.8375 -0.9420
  490MOL0     H66111  10.274   2.574   1.652 -0.8159 -0.2747  0.3905
  490MOL0     H66112  10.702   2.384   1.775 -0.0330  0.7763  0.4168
  490MOL0     H66113  10.936   2.341   1.722  0.6328  0.7293  0.3767
  490MOL0     H66114  11.132   2.594   1.617  2.3377  0.4733 -2.2082
  490MOL0     H66115  11.126   2.441   1.711 -1.2293  0.9139  0.7822
  490MOL0     H66116  11.316   2.496   1.483 -1.5989  1.6902  0.3479
  490MOL0     H66117  11.364   2.531   1.656 -1.1971 -0.2176  2.6654
  490MOL0     H66118  11.331   2.290   1.717  2.4917 -0.0709  0.6021
  490MOL0     H66119  11.286   2.256   1.549 -0.4874 -1.3995  1.1143
  490MOL0     H66120  11.524   2.216   1.653  1.1385  1.4047  2.8416
  490MOL0     H66121  11.546   2.391   1.623  1.1893 -2.9011  1.5039
  490MOL0     H66122  11.518   2.362   1.374  1.5551  0.5547  0.1617
  490MOL0     H66123  11.479   2.193   1.408  1.1988  0.0669 -0.2238
  490MOL0     H66124  11.745   2.313   1.508  0.4289 -0.8070  1.8812
  490MOL0     H66125  11.707   2.149   1.472 -2.3669 -0.5063 -0.4000
  490MOL0     H66126  11.860   2.269   1.304 -0.4032  1.5521  2.3173
  490MOL0     H66127  11.731   2.380   1.272  1.7318  0.4179 -1.0328
  490MOL0     H66128  11.776   2.130   1.132 -1.6690  0.6114 -3.6330
  490MOL0     H66129  11.649   2.088   1.252  1.4683 -0.6198  0.8007
  490MOL0     H66130  10.898   2.605   1.379 -2.2913  3.1171  0.1216
  490MOL0     H66131  10.677   2.656   1.442  2.2551  1.0821 -0.9804
  490MOL0     H66132  10.461   2.654   2.033  0.8029  1.1333 -0.9535
  490MOL0     H66133  10.236   2.704   2.130  0.8911 -2.5863  2.2141
  490MOL0     H66134   8.892   1.542   1.531 -1.3094 -2.1728 -2.6723
  490MOL0     H66135   8.629   1.532   1.554 -0.0127 -0.5140 -0.3750
  490MOL0     H66136   8.202   1.456   1.504 -0.8039  0.3110  0.6858
  490MOL0     H66137   7.972   1.450   1.558 -1.5956 -0.0371  0.3403
  490MOL0     H66138   7.732   1.452   1.930  0.1837 -0.3398 -0.3663
  490MOL0     H66139   7.865   1.360   1.992 -0.6229 -0.4073  0.6433
  490MOL0     H66140   7.771   1.170   1.846 -0.2904 -0.0928  1.7302
  490MOL0     H66141   7.621   1.263   1.834 -0.1919  0.7394 -0.4821
  490MOL0     H66142   7.600   1.265   2.074 -0.8176 -0.7679  0.1989
  490MOL0     H66143   7.751   1.185   2.105 -0.2045 -0.1109  0.5050
  490MOL0     H66144   7.630   0.978   1.941 -1.3130  0.4473 -0.7425
  490MOL0     H66145   7.617   1.001   2.116  0.0393 -1.3667 -0.0214
  490MOL0     H66146   7.224   1.073   2.033  1.3276  0.7646  0.1043
  490MOL0     H66147   8.049   1.278   1.941 -0.0695 -0.3960 -1.4104
  490MOL0     H66148   8.258   1.189   1.977  1.2574 -0.7427  0.3040
  490MOL0     H66149   8.409   1.225   1.889 -0.9906 -2.8557 -0.3890
  490MOL0     H66150   8.346   1.337   2.010  0.2888 -0.0691 -0.9029
  491MOL0     O66151   5.244   6.533   4.736 -0.1828 -0.0030  0.4680
  491MOL0     C66152   5.189   6.586   4.833  0.3045  0.4084  0.0438
  491MOL0     O66153   5.248   6.637   4.943 -0.5367 -0.6567  0.1504
  491MOL0     C66154   5.380   6.677   4.936 -0.0686  0.0130 -0.4999
  491MOL0     C66155   5.424   6.795   4.874  0.2503  0.0485 -0.3263
  491MOL0     C66156   5.560   6.811   4.847 -0.0230 -0.7975  0.2235
  491MOL0     C66157   5.653   6.722   4.892  0.1848  0.5463 -0.0439
  491MOL0     O66158   5.785   6.745   4.849 -0.0933 -0.2381  0.2046
  491MOL0     C66159   5.899   6.709   4.933  0.0322  0.2152 -0.2993
  491MOL0     C66160   6.028   6.776   4.894 -1.0554  0.5542 -0.0446
  491MOL0     C66161   6.142   6.755   4.991 -0.4059 -0.0480  0.7394
  491MOL0     C66162   6.246   6.869   4.977  0.2747 -0.2768  0.3419
  491MOL0     C66163   6.367   6.869   5.071  0.1876 -0.5087 -0.2228
  491MOL0     C66164   6.491   6.799   5.015  0.2315  0.4322 -0.2831
  491MOL0     C66165   6.447   6.658   4.980 -0.3790  0.7046 -0.2915
  491MOL0     C66166   6.578   6.566   4.950  0.0430 -0.1013 -0.4062
  491MOL0     N66167   6.681   6.635   4.868  0.2048 -0.3093  1.0813
  491MOL0     C66168   6.689   6.652   4.734 -0.6131 -0.4534  0.5174
  491MOL0     C66169   6.815   6.688   4.710  0.0096  0.1884 -0.2447
  491MOL0     C66170   6.883   6.717   4.574 -0.3041 -0.1500  0.9598
  491MOL0     C66171   6.975   6.835   4.575 -0.0891 -0.3868  1.0343
  491MOL0     C66172   7.021   6.861   4.435 -0.6306  0.4100 -0.2235
  491MOL0     C66173   7.144   6.956   4.446 -0.2083 -0.6061 -0.2695
  491MOL0     O66174   7.196   6.990   4.312 -0.1191 -0.6266 -0.7653
  491MOL0     C66175   7.311   7.065   4.298  0.4088 -0.0783 -0.8511
  491MOL0     C66176   7.323   7.132   4.175 -0.5762  0.0387 -0.4459
  491MOL0     C66177   7.437   7.212   4.150 -0.0534  0.2793 -0.2349
  491MOL0     C66178   7.543   7.219   4.250 -0.0405  0.6034 -0.1155
  491MOL0     C66179   7.658   7.295   4.220 -0.4511 -0.6065  0.7633
  491MOL0     O66180   7.769   7.259   4.293 -0.0175 -0.4247 -0.3766
  491MOL0     C66181   7.888   7.318   4.265 -0.4542 -0.8195  0.3548
  491MOL0     C66182   8.003   7.237   4.278 -0.1931  0.6911 -1.0462
  491MOL0     C66183   8.135   7.281   4.270  0.2903  0.1200 -0.1150
  491MOL0     C66184   8.153   7.416   4.252  0.3476 -0.3825  0.0093
  491MOL0     O66185   8.278   7.463   4.222 -0.2096  0.3337 -0.0537
  491MOL0     C66186   8.364   7.365   4.150  0.1868 -0.6761 -0.2064
  491MOL0     C66187   8.501   7.447   4.134  0.5050  1.2807 -0.0489
  491MOL0     C66188   8.623   7.352   4.131  0.2192 -0.4714  0.1022
  491MOL0     C66189   8.750   7.427   4.105 -0.4516  0.7299 -0.1542
  491MOL0     C66190   8.869   7.330   4.122 -0.7282 -0.6127  0.0409
  491MOL0     C66191   9.002   7.385   4.088 -0.3481 -0.1943  0.4428
  491MOL0     C66192   9.004   7.466   3.954  0.1538  0.3301  0.2890
  491MOL0     C66193   9.146   7.515   3.928  0.0839  0.1442  0.0486
  491MOL0    Cl66194   9.259   7.393   3.945  0.0019 -0.0912  0.3750
  491MOL0     C66195   8.044   7.505   4.238 -0.3942  0.3456 -0.5241
  491MOL0     C66196   7.915   7.461   4.253  0.5252  0.1591  0.6299
  491MOL0     O66197   7.651   7.400   4.155  0.5510  0.9360  0.3476
  491MOL0     C66198   7.529   7.160   4.374  0.2087 -0.0917  0.2279
  491MOL0     C66199   7.413   7.082   4.396 -0.6074  0.3843  1.4803
  491MOL0     N66200   6.875   6.695   4.830 -0.4623  0.7856  0.4742
  491MOL0     N66201   6.796   6.682   4.925  0.2324  0.7299 -0.2641
  491MOL0     C66202   5.611   6.604   4.955  0.3760 -0.0030  0.3891
  491MOL0     C66203   5.475   6.588   4.978  1.0840  0.2867 -0.0841
  491MOL0     C66204   5.040   6.591   4.848 -0.8813  1.6762  0.6608
  491MOL0     C66205   4.988   6.569   4.976  0.1214  0.1606  0.6427
  491MOL0     C66206   4.856   6.583   5.003 -0.6010  0.1167  0.1065
  491MOL0     C66207   4.767   6.604   4.907  0.2275  0.1586  0.0723
  491MOL0     O66208   4.631   6.605   4.930  0.3282  1.2222 -0.6445
  491MOL0     C66209   4.554   6.699   4.869 -0.2264  0.0027  0.4885
  491MOL0     C66210   4.419   6.700   4.936  0.0982  0.4799  0.6365
  491MOL0     C66211   4.355   6.566   4.939 -0.4889 -0.1630 -0.3608
  491MOL0     C66212   4.266   6.561   5.063  0.0515  0.1550 -0.6461
  491MOL0     C66213   4.198   6.434   5.079  0.0506 -0.0045 -0.2385
  491MOL0     C66214   4.143   6.324   5.076  0.3973 -0.1065  0.5781
  491MOL0     C66215   4.815   6.630   4.775 -0.3317  0.2325  0.1374
  491MOL0     C66216   4.951   6.625   4.740  0.3565 -0.5947 -0.1084
  491MOL0     C66217   4.988   6.646   4.595  0.6134 -0.5089 -0.3707
  491MOL0     H66218   5.355   6.876   4.854  1.0668  0.5004 -1.4179
  491MOL0     H66219   5.577   6.909   4.803  2.1582  0.3553  3.3320
  491MOL0     H66220   5.885   6.725   5.041  1.7996  1.6671 -0.2450
  491MOL0     H66221   5.901   6.600   4.924  0.2938  0.3041 -1.3775
  491MOL0     H66222   5.997   6.877   4.863 -0.4818  0.2261 -1.7989
  491MOL0     H66223   6.071   6.727   4.806  0.1161 -0.2535  0.9420
  491MOL0     H66224   6.179   6.653   4.977  0.3878  0.5939 -2.9277
  491MOL0     H66225   6.098   6.773   5.090 -0.3096  1.7165  0.4962
  491MOL0     H66226   6.274   6.860   4.872  0.4296 -0.9205  0.4289
  491MOL0     H66227   6.193   6.964   4.987  2.4842  1.0553  0.0798
  491MOL0     H66228   6.395   6.973   5.095 -2.1389  0.3332 -0.9628
  491MOL0     H66229   6.331   6.824   5.164 -2.5045 -2.2926 -2.0128
  491MOL0     H66230   6.521   6.853   4.925 -0.0277 -0.2523 -0.7841
  491MOL0     H66231   6.570   6.797   5.090  0.4000 -3.2474 -0.3920
  491MOL0     H66232   6.394   6.660   4.884  0.1325 -3.7390 -0.8983
  491MOL0     H66233   6.381   6.623   5.060  1.3679  1.2251  1.4739
  491MOL0     H66234   6.637   6.530   5.035  3.3269  1.1662 -1.9911
  491MOL0     H66235   6.555   6.473   4.898 -1.2151 -1.1709  1.8939
  491MOL0     H66236   6.599   6.637   4.674 -1.5185 -0.2731  1.7851
  491MOL0     H66237   6.949   6.636   4.544 -1.9551 -0.6335 -1.6858
  491MOL0     H66238   6.811   6.732   4.493  1.9593 -1.0642 -1.3502
  491MOL0     H66239   6.926   6.926   4.611 -0.3849 -0.5791  1.1269
  491MOL0     H66240   7.064   6.819   4.635  1.3897  1.3120 -0.5828
  491MOL0     H66241   6.940   6.911   4.382  0.8458  1.8051 -1.2852
  491MOL0     H66242   7.042   6.765   4.386 -0.9928 -0.6720  1.6555
  491MOL0     H66243   7.220   6.899   4.501 -1.2433  1.2130  3.3583
  491MOL0     H66244   7.119   7.046   4.502 -1.6082 -1.3110  0.3041
  491MOL0     H66245   7.255   7.124   4.091  2.4135 -0.3782 -3.0153
  491MOL0     H66246   7.454   7.267   4.059  1.3172  2.8636  1.4675
  491MOL0     H66247   7.991   7.134   4.309 -0.6295  1.4388  1.4858
  491MOL0     H66248   8.220   7.214   4.280 -1.1966 -1.8367 -0.0458
  491MOL0     H66249   8.387   7.277   4.212 -0.5750 -3.2641 -3.3385
  491MOL0     H66250   8.321   7.332   4.055  0.4407 -0.5909 -0.3518
  491MOL0     H66251   8.495   7.523   4.055  0.5106  1.4978  0.1572
  491MOL0     H66252   8.515   7.499   4.229 -0.3344  0.3643  0.5915
  491MOL0     H66253   8.631   7.300   4.227 -0.5057  0.5336  0.7167
  491MOL0     H66254   8.605   7.282   4.049 -1.0878 -1.1199  0.9209
  491MOL0     H66255   8.759   7.500   4.186  1.0899  1.0546 -0.5803
  491MOL0     H66256   8.756   7.484   4.012  3.1430  2.4593  0.9467
  491MOL0     H66257   8.841   7.251   4.051  0.6222 -0.4603 -0.6872
  491MOL0     H66258   8.869   7.292   4.224  2.2026 -1.0053 -0.0271
  491MOL0     H66259   9.034   7.452   4.167  1.1189 -1.0159  0.5768
  491MOL0     H66260   9.071   7.300   4.086  2.8539  2.1664 -3.2759
  491MOL0     H66261   8.943   7.557   3.963 -0.5507 -0.0838 -0.1908
  491MOL0     H66262   8.955   7.409   3.874 -0.3891 -1.6094  1.9452
  491MOL0     H66263   9.163   7.549   3.825 -1.1204 -4.1314 -1.8174
  491MOL0     H66264   9.182   7.591   3.998  0.0244 -2.2771  2.8851
  491MOL0     H66265   8.064   7.604   4.198  1.1805  0.9662  1.6441
  491MOL0     H66266   7.832   7.530   4.253 -1.6203 -2.2501 -0.9068
  491MOL0     H66267   7.613   7.158   4.443  1.1187 -0.7012 -0.8556
  491MOL0     H66268   7.398   7.042   4.496  3.8166 -1.5483  1.5728
  491MOL0     H66269   5.687   6.534   4.987  0.2109 -2.1226 -3.2752
  491MOL0     H66270   5.449   6.498   5.032 -1.1204  0.0158 -1.4470
  491MOL0     H66271   5.054   6.556   5.061  0.8538  0.2472  0.0963
  491MOL0     H66272   4.830   6.582   5.108  1.9809 -0.7571  0.8216
  491MOL0     H66273   4.537   6.696   4.760  1.1686  2.0460  0.1568
  491MOL0     H66274   4.592   6.801   4.879 -0.3510  0.2246 -0.9667
  491MOL0     H66275   4.360   6.766   4.871 -2.2589 -0.4434  1.7273
  491MOL0     H66276   4.420   6.742   5.037 -0.1444 -1.5054  1.5020
  491MOL0     H66277   4.435   6.490   4.938 -0.5687 -0.3983  2.4140
  491MOL0     H66278   4.304   6.551   4.844 -1.1862  0.4914 -0.1009
  491MOL0     H66279   4.338   6.578   5.144  1.1926 -0.5562 -1.4639
  491MOL0     H66280   4.192   6.640   5.063 -0.1241  0.1349  2.5250
  491MOL0     H66281   4.109   6.224   5.096  2.7283 -0.9239  0.8402
  491MOL0     H66282   4.744   6.661   4.698 -0.0565  0.8819  0.1341
  491MOL0     H66283   5.088   6.686   4.578  0.1949  0.7727  0.0498
  491MOL0     H66284   4.976   6.549   4.546 -1.8809 -0.4998  0.0817
  491MOL0     H66285   4.922   6.722   4.553 -2.5426 -1.7241  1.9719
  492MOL0     O66286   0.011   9.682   1.762  0.4809  0.0839 -0.5827
  492MOL0     C66287  -0.053   9.735   1.672  0.2713 -0.0388 -0.0222
  492MOL0     O66288  -0.000   9.760   1.546  0.1344 -0.3558  0.1887
  492MOL0     C66289   0.112   9.691   1.504  0.3563 -1.0711  0.3720
  492MOL0     C66290   0.230   9.767   1.497  0.1027  0.4922  0.5580
  492MOL0     C66291   0.354   9.709   1.459  0.7109  0.6565 -0.1160
  492MOL0     C66292   0.358   9.565   1.446 -0.2103 -0.5877 -0.2838
  492MOL0     O66293   0.476   9.497   1.430  0.4999 -0.3367  0.3863
  492MOL0     C66294   0.601   9.543   1.379 -0.0347  0.3841  0.4973
  492MOL0     C66295   0.674   9.587   1.498 -0.0095 -0.0673 -0.4019
  492MOL0     C66296   0.813   9.621   1.473  0.6416  0.2371 -0.3513
  492MOL0     C66297   0.911   9.504   1.454  0.5398  0.3717 -0.1870
  492MOL0     C66298   1.053   9.534   1.462 -0.2408 -1.1788  1.4708
  492MOL0     C66299   1.104   9.634   1.353 -0.2657 -0.3422  0.0820
  492MOL0     C66300   1.257   9.627   1.344  0.1572  0.0068 -0.4172
  492MOL0     C66301   1.324   9.711   1.243  0.3803  0.2606  0.0354
  492MOL0     N66302   1.466   9.666   1.225 -0.4297  0.1373 -0.2717
  492MOL0     C66303   1.509   9.548   1.161 -0.2330 -0.7651 -0.0048
  492MOL0     C66304   1.636   9.541   1.196 -0.9830 -1.1292  0.4809
  492MOL0     C66305   1.738   9.426   1.183  0.0106 -0.3910  0.8474
  492MOL0     C66306   1.765   9.378   1.036  0.2648 -0.4874 -0.0628
  492MOL0     C66307   1.652   9.286   0.981 -0.2114  0.3827  0.6967
  492MOL0     C66308   1.711   9.210   0.861  0.2972 -0.1971 -0.4728
  492MOL0     O66309   1.708   9.283   0.741 -0.3905  0.2929  0.3245
  492MOL0     C66310   1.832   9.309   0.684  0.0205 -0.1574 -0.2070
  492MOL0     C66311   1.915   9.201   0.641 -0.2145  0.5681  0.2388
  492MOL0     C66312   2.036   9.222   0.580  0.3128 -0.6294 -0.2774
  492MOL0     C66313   2.081   9.353   0.568  0.3412 -0.9139  0.2101
  492MOL0     C66314   2.227   9.379   0.513  1.0687 -1.1022  0.4562
  492MOL0     O66315   2.288   9.277   0.470  0.3292 -0.2482 -0.2280
  492MOL0     C66316   2.422   9.289   0.430 -0.3817  0.2926  0.5091
  492MOL0     C66317   2.530   9.267   0.516  1.1387  0.5691  0.4294
  492MOL0     C66318   2.657   9.277   0.473 -0.8660 -0.4627  0.5579
  492MOL0     C66319   2.682   9.320   0.339  0.6787 -0.5453 -0.3207
  492MOL0     O66320   2.820   9.346   0.322  0.2781 -0.1977  0.0048
  492MOL0     C66321   2.855   9.437   0.219  0.2945  0.2569 -0.7176
  492MOL0     C66322   2.998   9.493   0.241  0.2232 -0.2023 -0.8134
  492MOL0     C66323   3.017   9.558   0.381 -0.4096 -0.3331  0.0000
  492MOL0     C66324   3.152   9.612   0.399 -0.3698 -0.6444  0.0555
  492MOL0     C66325   3.173   9.745   0.321 -0.7381 -0.3407 -0.4303
  492MOL0     C66326   3.325   9.783   0.332 -0.0671  0.7474 -0.7556
  492MOL0     C66327   3.346   9.901   0.233  0.2739  0.3608 -1.1891
  492MOL0     C66328   3.468   9.980   0.247 -0.7134 -0.7090 -0.7407
  492MOL0    Cl66329   3.479  10.092   0.113  0.0970 -0.1772 -0.1594
  492MOL0     C66330   2.579   9.344   0.252 -0.1954  0.7962 -0.3753
  492MOL0     C66331   2.450   9.327   0.302 -0.6516  0.8153  1.5805
  492MOL0     O66332   2.266   9.493   0.522 -0.6337 -0.0228 -0.0754
  492MOL0     C66333   2.000   9.461   0.613  0.7092  0.5480 -0.1431
  492MOL0     C66334   1.876   9.438   0.670 -0.2157  1.2622 -0.1924
  492MOL0     N66335   1.676   9.661   1.250  0.0461 -0.2645  0.3219
  492MOL0     N66336   1.576   9.738   1.275 -0.0432 -0.0522 -0.0014
  492MOL0     C66337   0.242   9.493   1.459 -0.3455  0.5514 -0.4209
  492MOL0     C66338   0.123   9.555   1.486  0.6308 -0.1644  1.1398
  492MOL0     C66339  -0.204   9.754   1.686 -0.3226  0.1283 -0.1086
  492MOL0     C66340  -0.282   9.712   1.577  0.2272 -0.5637 -0.4334
  492MOL0     C66341  -0.416   9.715   1.571  0.0405 -0.7224  0.7230
  492MOL0     C66342  -0.494   9.758   1.686  0.7330 -0.3868 -0.3530
  492MOL0     O66343  -0.631   9.753   1.672  0.1313 -0.0483 -0.8941
  492MOL0     C66344  -0.710   9.746   1.799 -0.5725 -0.3039 -0.1945
  492MOL0     C66345  -0.857   9.745   1.763 -0.3565 -0.1918  0.2621
  492MOL0     C66346  -0.962   9.778   1.872 -0.0992  0.2355 -0.0639
  492MOL0     C66347  -1.106   9.818   1.827 -0.2030 -0.0014  0.3394
  492MOL0     C66348  -1.157   9.740   1.710 -0.0193 -0.6446 -0.0925
  492MOL0     C66349  -1.197   9.665   1.629 -0.5197  0.1995  0.1002
  492MOL0     C66350  -0.428   9.787   1.805 -0.2562  0.1151  0.6786
  492MOL0     C66351  -0.282   9.781   1.806  0.6055 -0.7821 -0.3927
  492MOL0     C66352  -0.219   9.816   1.936  0.0424 -0.2183 -0.5117
  492MOL0     H66353   0.219   9.872   1.522 -0.0176  0.8221 -0.8169
  492MOL0     H66354   0.438   9.773   1.434 -0.5563  2.2024 -0.5936
  492MOL0     H66355   0.651   9.458   1.332  1.3792 -0.2599  2.9898
  492MOL0     H66356   0.594   9.622   1.303  0.4495  0.8641  0.9448
  492MOL0     H66357   0.662   9.516   1.580 -2.0326  1.3560  0.6263
  492MOL0     H66358   0.632   9.680   1.538  3.9331  1.4907  0.6015
  492MOL0     H66359   0.844   9.676   1.562 -0.7716 -0.5078  0.6226
  492MOL0     H66360   0.821   9.683   1.382  3.3488 -1.2125 -1.2295
  492MOL0     H66361   0.883   9.427   1.527 -2.3716 -0.3502 -1.8969
  492MOL0     H66362   0.899   9.449   1.360 -0.5010  0.3529 -0.0547
  492MOL0     H66363   1.078   9.569   1.563 -1.3813  2.2618  0.7031
  492MOL0     H66364   1.110   9.443   1.444  2.1499  0.6867 -1.3017
  492MOL0     H66365   1.048   9.605   1.263 -1.6731  0.7807  0.5548
  492MOL0     H66366   1.083   9.742   1.352 -2.0775 -0.6166 -2.4338
  492MOL0     H66367   1.278   9.523   1.318  0.1384 -0.7295  2.2428
  492MOL0     H66368   1.292   9.645   1.446 -3.2651  1.6706  0.6254
  492MOL0     H66369   1.272   9.718   1.147 -0.0452 -1.5923  0.0830
  492MOL0     H66370   1.315   9.813   1.282 -1.7325  0.5347 -1.0134
  492MOL0     H66371   1.452   9.472   1.109 -0.5735  0.7297 -1.9377
  492MOL0     H66372   1.836   9.434   1.229  1.0863 -3.0121 -0.7564
  492MOL0     H66373   1.696   9.344   1.242 -1.6165 -1.1658 -1.2239
  492MOL0     H66374   1.768   9.466   0.971  2.2211 -2.0768 -2.2604
  492MOL0     H66375   1.866   9.338   1.043  0.4952 -0.5007 -2.5911
  492MOL0     H66376   1.562   9.342   0.954  0.7277  0.8024 -1.8479
  492MOL0     H66377   1.624   9.210   1.054 -1.8374  0.3941  0.1270
  492MOL0     H66378   1.661   9.113   0.849 -1.6491  0.8308 -1.0065
  492MOL0     H66379   1.816   9.189   0.886  0.1229 -0.0875  0.3718
  492MOL0     H66380   1.881   9.100   0.661 -0.0755  0.9294  2.5851
  492MOL0     H66381   2.104   9.140   0.561  2.2159  0.1712  2.4252
  492MOL0     H66382   2.511   9.240   0.619  0.0429  0.5083  0.2232
  492MOL0     H66383   2.736   9.258   0.545 -1.1425 -0.4698  0.8625
  492MOL0     H66384   2.851   9.394   0.118  2.2210 -3.9110  0.7797
  492MOL0     H66385   2.789   9.523   0.233  0.3506  0.3400 -0.9516
  492MOL0     H66386   3.066   9.408   0.241  1.0292  0.4080  0.6941
  492MOL0     H66387   3.033   9.562   0.163  0.6522  0.0177 -0.4278
  492MOL0     H66388   2.941   9.635   0.392 -1.4784 -1.0947 -1.6701
  492MOL0     H66389   2.980   9.489   0.458  0.4543 -0.1252  0.6140
  492MOL0     H66390   3.223   9.536   0.365 -0.2326 -0.4874 -0.0069
  492MOL0     H66391   3.147   9.637   0.506 -4.2837 -0.3480 -0.0253
  492MOL0     H66392   3.111   9.829   0.354 -0.0178  0.0286  0.0116
  492MOL0     H66393   3.154   9.736   0.214 -1.2848  3.2759 -0.7597
  492MOL0     H66394   3.367   9.809   0.429 -2.0309  2.0866 -0.1970
  492MOL0     H66395   3.386   9.701   0.293  2.8154  0.7425  3.1973
  492MOL0     H66396   3.254   9.961   0.238  0.6093  0.8097 -0.3209
  492MOL0     H66397   3.340   9.847   0.138 -0.7137  0.6025 -1.2747
  492MOL0     H66398   3.465  10.027   0.345  0.6250 -1.8420 -0.1135
  492MOL0     H66399   3.551   9.909   0.237  0.5952  0.6307  0.1662
  492MOL0     H66400   2.590   9.369   0.147 -2.4705  0.4415 -0.7429
  492MOL0     H66401   2.368   9.344   0.233  0.3611 -4.3887 -1.5303
  492MOL0     H66402   2.034   9.561   0.587 -2.3025  1.8995  0.5764
  492MOL0     H66403   1.812   9.518   0.707 -1.9877 -0.2577  0.1959
  492MOL0     H66404   0.257   9.386   1.466 -1.3003  0.4275 -0.1334
  492MOL0     H66405   0.035   9.491   1.490  0.5932 -0.3285 -1.1102
  492MOL0     H66406  -0.234   9.662   1.493  2.5228  0.6141  0.0995
  492MOL0     H66407  -0.450   9.673   1.477  3.8351  0.3767 -1.3812
  492MOL0     H66408  -0.691   9.836   1.858 -1.7646 -0.7462  0.9140
  492MOL0     H66409  -0.690   9.657   1.860 -1.4144 -0.0646  0.4507
  492MOL0     H66410  -0.880   9.649   1.717  0.5350 -1.0704  1.5893
  492MOL0     H66411  -0.870   9.830   1.694  0.0057 -0.8693 -0.6642
  492MOL0     H66412  -0.916   9.862   1.924 -0.7541  0.2253  0.5397
  492MOL0     H66413  -0.963   9.698   1.947  0.3378  1.0676  0.8451
  492MOL0     H66414  -1.173   9.818   1.913 -0.9824 -0.0582 -0.2488
  492MOL0     H66415  -1.102   9.925   1.803  0.8657 -0.0862  0.0829
  492MOL0     H66416  -1.232   9.602   1.549 -0.6557  0.8285 -0.3410
  492MOL0     H66417  -0.488   9.805   1.894 -0.2524 -0.5281  0.8172
  492MOL0     H66418  -0.132   9.756   1.964  1.0735  0.3931 -2.3138
  492MOL0     H66419  -0.191   9.921   1.935 -0.5530  0.0048  1.5544
  492MOL0     H66420  -0.289   9.801   2.019  2.5877 -0.7877  1.6620
  493MOL0     O66421  10.463   9.926   6.061 -0.0856 -0.1206 -0.5539
  493MOL0     C66422  10.493   9.818   6.120  0.8020 -0.1837  0.9301
  493MOL0     O66423  10.609   9.783   6.169  0.1209 -0.2602  0.1815
  493MOL0     C66424  10.720   9.859   6.183  0.4045 -0.5345  0.3591
  493MOL0     C66425  10.813   9.814   6.275  0.0049  1.2178  0.5329
  493MOL0     C66426  10.930   9.890   6.293 -0.0923  0.0936  0.2611
  493MOL0     C66427  10.949  10.017   6.244 -0.0766 -0.1757  0.7640
  493MOL0     O66428  11.059  10.096   6.263  0.0267 -0.5399  0.0488
  493MOL0     C66429  11.169  10.034   6.327 -0.5475  0.4871 -0.8115
  493MOL0     C66430  11.294  10.129   6.316  0.6323 -0.7638  0.3771
  493MOL0     C66431  11.271  10.263   6.384  0.2332 -0.7685 -0.2126
  493MOL0     C66432  11.405  10.351   6.385  0.2808 -0.9343 -0.3084
  493MOL0     C66433  11.379  10.488   6.433 -0.1381 -0.5089 -0.2605
  493MOL0     C66434  11.505  10.564   6.395  0.0613  0.9949 -0.7458
  493MOL0     C66435  11.491  10.713   6.408  0.1867  0.4873  0.1791
  493MOL0     C66436  11.621  10.785   6.384  0.5235  0.4287 -0.2487
  493MOL0     N66437  11.691  10.752   6.256  0.0949  0.1737 -0.6827
  493MOL0     C66438  11.804  10.685   6.249  0.3011  0.3758 -0.5931
  493MOL0     C66439  11.825  10.672   6.123  0.7116  0.2469  0.1863
  493MOL0     C66440  11.959  10.640   6.062  0.9677  0.3033 -0.1872
  493MOL0     C66441  12.009  10.496   6.099 -0.3883 -0.1184  0.4967
  493MOL0     C66442  12.144  10.470   6.045 -0.5948  0.9007 -0.6673
  493MOL0     C66443  12.179  10.322   6.057 -0.7771 -0.8460 -0.1214
  493MOL0     O66444  12.217  10.296   6.196 -0.0735  1.1400 -0.4166
  493MOL0     C66445  12.318  10.212   6.231 -0.0223  0.2803 -0.2278
  493MOL0     C66446  12.375  10.110   6.153  0.2171 -0.2630 -0.4330
  493MOL0     C66447  12.472  10.023   6.201 -0.3413 -0.0641 -0.4685
  493MOL0     C66448  12.531  10.042   6.334  0.0807  0.2153  0.1065
  493MOL0     C66449  12.647   9.960   6.383 -0.5606  0.0641  0.0493
  493MOL0     O66450  12.705  10.000   6.499  0.3004  0.0286 -0.5794
  493MOL0     C66451  12.820   9.932   6.542  0.2809  0.4886 -0.0114
  493MOL0     C66452  12.818   9.883   6.673  0.1686  0.3632  0.2160
  493MOL0     C66453  12.937   9.831   6.727 -0.0990  0.0808 -0.3481
  493MOL0     C66454  13.055   9.827   6.651  0.0827 -0.4678  0.4217
  493MOL0     O66455  13.156   9.762   6.718 -0.2117 -0.3405 -0.0466
  493MOL0     C66456  13.271   9.727   6.639  0.1967  0.3361  0.5797
  493MOL0     C66457  13.333   9.598   6.684  0.1807 -0.0973 -0.2412
  493MOL0     C66458  13.448   9.559   6.590  0.5505 -0.3800 -0.4756
  493MOL0     C66459  13.535   9.453   6.667  0.3553 -0.4009  0.1341
  493MOL0     C66460  13.655   9.415   6.577 -0.7402 -0.2615  0.7851
  493MOL0     C66461  13.777   9.373   6.663  0.8250 -0.4925  0.0414
  493MOL0     C66462  13.880   9.285   6.584 -0.5478  1.2160  0.3720
  493MOL0     C66463  14.013   9.261   6.655 -0.1963 -0.4588 -0.5831
  493MOL0    Cl66464  13.984   9.233   6.836 -0.0706 -0.0654 -0.1629
  493MOL0     C66465  13.053   9.875   6.521 -0.2334  1.1748  0.0773
  493MOL0     C66466  12.935   9.925   6.462 -0.1715  0.1732 -0.1146
  493MOL0     O66467  12.690   9.872   6.307 -0.1346 -0.0090 -0.2094
  493MOL0     C66468  12.465  10.136   6.411 -0.1842 -0.0038 -0.5692
  493MOL0     C66469  12.361  10.209   6.363  0.0730 -0.5881 -0.0270
  493MOL0     N66470  11.720  10.724   6.041 -0.6889  0.2947 -0.5341
  493MOL0     N66471  11.643  10.774   6.127  0.6100  0.1953  0.5209
  493MOL0     C66472  10.851  10.065   6.156 -0.4282 -0.9094  0.5528
  493MOL0     C66473  10.734   9.984   6.122 -0.6346  0.2552  0.6822
  493MOL0     C66474  10.378   9.729   6.162  0.4500  0.1943 -0.8526
  493MOL0     C66475  10.416   9.614   6.233  0.2137  0.0258  0.2149
  493MOL0     C66476  10.330   9.503   6.255  0.9192 -0.4047  0.6314
  493MOL0     C66477  10.197   9.503   6.213 -0.6500  0.7503  0.5691
  493MOL0     O66478  10.111   9.396   6.232 -0.1019  0.6675  0.2688
  493MOL0     C66479  10.029   9.401   6.349  0.2457  0.6110  0.8351
  493MOL0     C66480  10.077   9.289   6.435  0.8820 -0.5214 -0.3006
  493MOL0     C66481  10.006   9.298   6.569  0.3405  0.0027  0.5493
  493MOL0     C66482  10.009   9.160   6.642 -0.5081 -0.8284  0.2800
  493MOL0     C66483  10.117   9.161   6.747 -0.6320  0.1040 -0.7275
  493MOL0     C66484  10.195   9.157   6.835 -0.0055  0.6413  0.0377
  493MOL0     C66485  10.149   9.622   6.154  0.3576  0.3811 -0.2071
  493MOL0     C66486  10.238   9.731   6.123 -0.0831  0.3517 -0.2696
  493MOL0     C66487  10.179   9.847   6.052 -0.2327 -0.0985  0.1970
  493MOL0     H66488  10.782   9.721   6.322 -1.4237  0.3197 -2.0070
  493MOL0     H66489  11.006   9.852   6.361 -1.0008 -0.0421  1.2316
  493MOL0     H66490  11.143  10.007   6.430  1.5343 -3.0023 -1.0168
  493MOL0     H66491  11.202   9.938   6.287  0.5617 -0.8009  2.7526
  493MOL0     H66492  11.325  10.151   6.213  1.2521 -1.6621  0.3589
  493MOL0     H66493  11.364  10.079   6.383 -0.8575 -1.8542  1.1591
  493MOL0     H66494  11.234  10.258   6.487 -0.3047 -4.1106 -0.4714
  493MOL0     H66495  11.199  10.307   6.314 -2.3574 -4.6119 -0.2859
  493MOL0     H66496  11.478  10.292   6.443 -0.2890 -1.4156 -0.0704
  493MOL0     H66497  11.445  10.343   6.284 -0.8086 -0.9673 -0.7473
  493MOL0     H66498  11.294  10.543   6.390  0.6143  1.5651  0.7681
  493MOL0     H66499  11.374  10.484   6.542  1.2186 -0.7082 -0.1909
  493MOL0     H66500  11.593  10.532   6.451  2.4307  3.0415 -3.0192
  493MOL0     H66501  11.532  10.535   6.293  0.3702 -1.7383  0.0410
  493MOL0     H66502  11.468  10.733   6.513  1.7175  2.2570  0.2326
  493MOL0     H66503  11.418  10.753   6.337  0.8506 -1.1476 -1.5322
  493MOL0     H66504  11.610  10.893   6.386  3.4252  0.7865  0.8827
  493MOL0     H66505  11.684  10.756   6.469 -0.2782  3.4503  1.5292
  493MOL0     H66506  11.876  10.660   6.326 -1.3640  1.2964  1.3709
  493MOL0     H66507  11.953  10.649   5.953 -1.4261 -1.2274 -0.2615
  493MOL0     H66508  12.037  10.709   6.096  0.8390 -0.5498  1.9843
  493MOL0     H66509  11.999  10.488   6.207  0.2569  1.3325  0.6919
  493MOL0     H66510  11.945  10.419   6.056  1.6249 -0.7145 -1.6154
  493MOL0     H66511  12.224  10.520   6.100 -1.1603 -0.3617  1.4117
  493MOL0     H66512  12.145  10.482   5.936  1.4444  0.7155 -0.6937
  493MOL0     H66513  12.264  10.310   5.990 -0.0090 -1.4080  0.9322
  493MOL0     H66514  12.096  10.259   6.024 -0.7650 -1.6530  1.3428
  493MOL0     H66515  12.350  10.099   6.048 -0.6843 -1.6052 -0.1072
  493MOL0     H66516  12.518   9.947   6.139  1.9016 -0.6961  1.8228
  493MOL0     H66517  12.730   9.893   6.736 -1.5292 -3.6269 -1.1884
  493MOL0     H66518  12.946   9.807   6.833 -2.7334  2.2739  0.5067
  493MOL0     H66519  13.242   9.697   6.538  0.4418 -2.2020  1.1854
  493MOL0     H66520  13.336   9.814   6.654 -1.0466  1.1502  1.4988
  493MOL0     H66521  13.378   9.609   6.783 -0.2107  0.3669 -0.1141
  493MOL0     H66522  13.253   9.526   6.700 -2.5912  3.2998  2.6604
  493MOL0     H66523  13.402   9.515   6.501  0.0335  1.6898 -1.3006
  493MOL0     H66524  13.500   9.650   6.558 -2.0790  1.5031  0.1691
  493MOL0     H66525  13.480   9.362   6.692  2.7153 -1.7329  0.7528
  493MOL0     H66526  13.562   9.495   6.764 -1.2778 -3.4623  2.0803
  493MOL0     H66527  13.674   9.500   6.511 -2.4885  0.1816  0.8110
  493MOL0     H66528  13.618   9.339   6.508  0.1817  0.4590 -0.5403
  493MOL0     H66529  13.821   9.458   6.717 -3.2228  0.8542  1.6643
  493MOL0     H66530  13.747   9.301   6.740  2.1034 -4.2635 -2.7327
  493MOL0     H66531  13.904   9.342   6.494  0.7192  0.6990  0.3662
  493MOL0     H66532  13.834   9.188   6.561 -0.5773  1.5987 -1.3409
  493MOL0     H66533  14.059   9.166   6.626  1.3298 -0.6465  2.0671
  493MOL0     H66534  14.086   9.342   6.646  0.8066 -0.9613  2.0642
  493MOL0     H66535  13.148   9.870   6.469 -1.2230  0.1508 -1.7444
  493MOL0     H66536  12.923   9.958   6.360  4.9545  2.7444 -0.2489
  493MOL0     H66537  12.497  10.150   6.514 -2.0621  1.1752 -0.0827
  493MOL0     H66538  12.336  10.293   6.426 -1.1958 -1.8838  1.2752
  493MOL0     H66539  10.865  10.164   6.115  1.6501 -0.4455  2.2341
  493MOL0     H66540  10.671  10.027   6.045 -1.6514 -0.4105  1.1329
  493MOL0     H66541  10.510   9.611   6.287  0.4855  1.4888 -0.1418
  493MOL0     H66542  10.351   9.412   6.308 -0.1183 -0.8763  0.2711
  493MOL0     H66543   9.927   9.380   6.318  0.3747  0.5043  0.4756
  493MOL0     H66544  10.032   9.501   6.392  1.1272 -0.1217  2.5581
  493MOL0     H66545  10.186   9.294   6.446  0.9781 -1.4221 -0.8152
  493MOL0     H66546  10.048   9.196   6.385  2.6808  0.8139 -4.2561
  493MOL0     H66547   9.903   9.334   6.564  1.2328  3.1378  2.2457
  493MOL0     H66548  10.055   9.379   6.624  1.9472 -1.2019  0.9512
  493MOL0     H66549   9.911   9.126   6.676 -0.5033 -0.2626  0.8614
  493MOL0     H66550  10.043   9.083   6.571  2.1875 -2.5653  3.1715
  493MOL0     H66551  10.261   9.138   6.917 -1.7717 -0.3745  1.2925
  493MOL0     H66552  10.045   9.627   6.125  0.3935  0.6191 -0.2959
  493MOL0     H66553  10.073   9.836   6.028 -0.3741  1.2258  0.1210
  493MOL0     H66554  10.193   9.946   6.097  1.2966 -0.0545 -0.3110
  493MOL0     H66555  10.253   9.866   5.973  2.1974  0.1983  2.3976
  494MOL0     O66556   3.930   4.559   4.067  0.0632 -0.1476  0.2071
  494MOL0     C66557   4.004   4.528   4.164  0.5919  0.2215  0.0175
  494MOL0     O66558   4.017   4.406   4.218 -0.2864 -0.0621 -0.5976
  494MOL0     C66559   3.910   4.318   4.197  0.3937 -0.1459 -0.4129
  494MOL0     C66560   3.786   4.334   4.264 -0.1569 -0.1299 -0.1755
  494MOL0     C66561   3.681   4.239   4.234 -0.3900  0.6165 -0.3964
  494MOL0     C66562   3.693   4.145   4.132  0.3260 -0.0361  0.6798
  494MOL0     O66563   3.573   4.072   4.107 -0.1129  0.2835 -0.1668
  494MOL0     C66564   3.546   4.031   3.973  0.3847  0.1357  0.2466
  494MOL0     C66565   3.557   3.877   3.960 -0.9652  0.5334  0.0620
  494MOL0     C66566   3.437   3.799   4.023 -0.8635 -0.2547 -0.0318
  494MOL0     C66567   3.313   3.785   3.919 -0.4175  0.2440 -0.4391
  494MOL0     C66568   3.197   3.728   4.002  0.3417 -0.0766  0.3348
  494MOL0     C66569   3.059   3.728   3.917 -0.9644 -0.5648 -0.6133
  494MOL0     C66570   3.055   3.603   3.826 -0.4970 -0.4838 -0.2541
  494MOL0     C66571   2.925   3.607   3.732 -0.3364 -0.4041 -0.5355
  494MOL0     N66572   2.907   3.472   3.673 -0.4930  0.1204  0.1886
  494MOL0     C66573   2.985   3.402   3.581 -0.5744 -0.7206 -0.2356
  494MOL0     C66574   2.915   3.293   3.558  0.7960  0.2931  1.3813
  494MOL0     C66575   2.964   3.185   3.467 -0.0029 -0.2159 -0.3547
  494MOL0     C66576   2.951   3.039   3.511 -0.2802  1.2199 -0.5507
  494MOL0     C66577   2.990   2.941   3.404 -0.5638 -0.0939 -0.4997
  494MOL0     C66578   3.143   2.947   3.377 -1.0417  0.6527  0.5270
  494MOL0     O66579   3.208   2.912   3.500  0.2637 -0.0693 -0.1698
  494MOL0     C66580   3.335   2.977   3.496  0.2613  0.0389 -0.5908
  494MOL0     C66581   3.412   3.001   3.381  0.2360  0.7136 -0.6797
  494MOL0     C66582   3.540   3.056   3.391  0.1772  0.0222  0.1281
  494MOL0     C66583   3.599   3.080   3.514  0.1482 -0.9864 -0.2053
  494MOL0     C66584   3.742   3.125   3.525  0.2809  0.4950 -0.6540
  494MOL0     O66585   3.808   3.137   3.408 -0.5371  0.2625  0.4074
  494MOL0     C66586   3.938   3.187   3.399  0.5046  0.4197 -0.0451
  494MOL0     C66587   3.974   3.307   3.455 -0.2954  0.3471  0.0918
  494MOL0     C66588   4.113   3.345   3.455  0.0038 -0.1786 -0.3398
  494MOL0     C66589   4.207   3.267   3.397 -0.0318 -0.5642  0.0811
  494MOL0     O66590   4.336   3.305   3.379 -0.2224  0.7306 -0.1361
  494MOL0     C66591   4.359   3.433   3.318 -0.9342 -1.0817  0.2843
  494MOL0     C66592   4.503   3.483   3.360  0.1738  0.4808  0.1470
  494MOL0     C66593   4.614   3.394   3.297  0.2563  0.3507 -0.2572
  494MOL0     C66594   4.740   3.430   3.367  0.1080  0.2898  0.0538
  494MOL0     C66595   4.863   3.370   3.303 -0.2605  0.8450 -0.9634
  494MOL0     C66596   4.997   3.433   3.355  0.3960  0.1127 -0.5150
  494MOL0     C66597   5.124   3.345   3.324 -0.7344 -0.5322 -0.8922
  494MOL0     C66598   5.252   3.422   3.362 -0.4252 -0.3984 -0.3465
  494MOL0    Cl66599   5.248   3.449   3.543 -0.2184 -0.4101  0.0635
  494MOL0     C66600   4.168   3.153   3.331  0.2401  0.6807 -0.0382
  494MOL0     C66601   4.034   3.109   3.332  1.1258 -0.3691 -0.5375
  494MOL0     O66602   3.783   3.166   3.634 -0.0259  0.4393 -0.6067
  494MOL0     C66603   3.519   3.071   3.628 -0.2344 -0.1443  0.2250
  494MOL0     C66604   3.392   3.010   3.617 -0.1647  0.2004 -0.8067
  494MOL0     N66605   2.802   3.283   3.640  0.6231  0.6462 -0.2736
  494MOL0     N66606   2.800   3.393   3.712 -0.4576  0.3516  0.4578
  494MOL0     C66607   3.816   4.131   4.069 -0.5424 -0.4274 -0.0313
  494MOL0     C66608   3.921   4.224   4.092 -0.4947  0.8181  0.0332
  494MOL0     C66609   4.101   4.631   4.214 -0.1708  0.6041  0.7844
  494MOL0     C66610   4.219   4.587   4.280  0.3309  0.2385 -0.2961
  494MOL0     C66611   4.320   4.677   4.325 -0.6274  1.1500  0.1640
  494MOL0     C66612   4.310   4.812   4.293  0.1232  0.2994 -0.2856
  494MOL0     O66613   4.415   4.892   4.336  0.6457  0.9897 -0.5857
  494MOL0     C66614   4.447   5.015   4.273 -0.1654  0.3017  0.1535
  494MOL0     C66615   4.549   4.999   4.152  0.1923 -0.6807 -0.1453
  494MOL0     C66616   4.674   4.915   4.200  0.2540 -0.0948 -0.0433
  494MOL0     C66617   4.782   4.881   4.088 -0.1470 -0.1165  0.0146
  494MOL0     C66618   4.906   4.964   4.095 -1.6660 -0.5085 -0.1574
  494MOL0     C66619   5.003   5.034   4.114  0.4095  0.1283  0.1719
  494MOL0     C66620   4.189   4.853   4.231 -0.0152 -0.3138  0.4114
  494MOL0     C66621   4.085   4.765   4.200  0.6306  0.2986  0.2837
  494MOL0     C66622   3.951   4.821   4.168 -0.3212  0.6608 -0.9284
  494MOL0     H66623   3.780   4.417   4.334 -4.8133 -2.0115  2.1135
  494MOL0     H66624   3.583   4.258   4.276 -0.1907  0.8989 -0.0508
  494MOL0     H66625   3.446   4.063   3.942  0.2137 -0.8225 -0.2098
  494MOL0     H66626   3.619   4.068   3.900 -2.2219 -0.6967 -3.0146
  494MOL0     H66627   3.652   3.848   4.006 -0.2022  0.4112 -1.4933
  494MOL0     H66628   3.569   3.839   3.857  1.3065  0.0258  0.4466
  494MOL0     H66629   3.399   3.854   4.109 -1.0378 -0.2060 -0.1393
  494MOL0     H66630   3.470   3.702   4.061 -2.1865  0.1050  2.2094
  494MOL0     H66631   3.282   3.885   3.888  3.9649  2.0689  0.2984
  494MOL0     H66632   3.339   3.719   3.836  1.8156  0.4929  0.0021
  494MOL0     H66633   3.212   3.623   4.025 -1.0011 -0.5918 -0.9514
  494MOL0     H66634   3.178   3.786   4.093  0.5124 -1.0597  1.0086
  494MOL0     H66635   2.983   3.712   3.994  1.2510 -0.4303  1.7443
  494MOL0     H66636   3.045   3.822   3.863 -3.0116 -0.4098  0.1165
  494MOL0     H66637   3.064   3.512   3.885  0.8237 -0.3788 -0.2776
  494MOL0     H66638   3.143   3.604   3.761  0.1028 -0.6748  0.5459
  494MOL0     H66639   2.840   3.638   3.793  1.4852  1.7135  1.0752
  494MOL0     H66640   2.943   3.683   3.655 -2.1830 -0.3810 -0.9813
  494MOL0     H66641   3.073   3.442   3.531 -0.8271 -1.7697 -1.5835
  494MOL0     H66642   2.909   3.186   3.372  0.4427  4.0791 -0.7847
  494MOL0     H66643   3.070   3.205   3.450 -0.3701  1.7024 -0.6247
  494MOL0     H66644   3.005   3.030   3.605  0.7433  2.4640 -0.9988
  494MOL0     H66645   2.852   3.012   3.549  1.2332  0.4987  3.2949
  494MOL0     H66646   2.930   2.961   3.315 -0.2179  0.7024 -0.5649
  494MOL0     H66647   2.966   2.836   3.425 -1.4949  0.0872 -0.5795
  494MOL0     H66648   3.169   3.043   3.334  0.9855 -0.8953 -1.9883
  494MOL0     H66649   3.173   2.881   3.295 -0.6522 -0.1821  1.3272
  494MOL0     H66650   3.369   2.981   3.284 -2.5449  1.2288  0.3650
  494MOL0     H66651   3.583   3.070   3.293 -1.9795  0.7249 -0.7653
  494MOL0     H66652   3.903   3.369   3.508 -3.0229  1.1364 -4.0215
  494MOL0     H66653   4.140   3.443   3.492 -1.6773 -0.2317  1.1631
  494MOL0     H66654   4.359   3.420   3.209 -0.2872  1.2504 -0.0311
  494MOL0     H66655   4.287   3.512   3.340  2.2244  2.5011 -1.1814
  494MOL0     H66656   4.515   3.587   3.330  1.0224  0.5319  0.6222
  494MOL0     H66657   4.517   3.491   3.468 -0.2198 -0.9576  0.3256
  494MOL0     H66658   4.594   3.288   3.313 -0.0272  0.2138 -1.4356
  494MOL0     H66659   4.624   3.413   3.190 -1.4876 -1.8998 -0.9013
  494MOL0     H66660   4.728   3.396   3.471 -1.2177  1.4758  0.3170
  494MOL0     H66661   4.741   3.539   3.384 -0.7700  0.5196 -1.2614
  494MOL0     H66662   4.856   3.363   3.194 -1.4864  0.3409 -0.8614
  494MOL0     H66663   4.866   3.270   3.347 -1.5949  0.6485 -1.2923
  494MOL0     H66664   5.020   3.526   3.302  2.3693  0.4078  0.7374
  494MOL0     H66665   4.986   3.445   3.463  2.4683  1.0271 -0.3549
  494MOL0     H66666   5.114   3.331   3.216  1.5906 -0.4883 -1.1559
  494MOL0     H66667   5.119   3.245   3.369  1.1247 -0.6108 -0.7743
  494MOL0     H66668   5.343   3.367   3.335 -0.6723 -1.0214  0.0760
  494MOL0     H66669   5.267   3.516   3.309 -0.8847  0.3714  0.8564
  494MOL0     H66670   4.251   3.102   3.284  1.2467  0.7074  1.6165
  494MOL0     H66671   4.008   3.022   3.273 -0.4983  0.3291 -0.8849
  494MOL0     H66672   3.555   3.100   3.727  0.1681 -0.8873  0.3081
  494MOL0     H66673   3.327   3.003   3.704 -3.0607  0.4360 -2.7951
  494MOL0     H66674   3.835   4.051   3.998 -2.0765 -0.2902 -0.6407
  494MOL0     H66675   4.017   4.225   4.041 -1.1260  2.0410 -1.2016
  494MOL0     H66676   4.247   4.484   4.299 -1.4886 -0.4836 -1.2170
  494MOL0     H66677   4.404   4.654   4.390 -1.8570  1.5248  1.9423
  494MOL0     H66678   4.482   5.093   4.341 -0.6899  2.7793 -2.2621
  494MOL0     H66679   4.357   5.061   4.231  0.4740  0.2753 -1.2933
  494MOL0     H66680   4.581   5.095   4.110  0.6688 -0.7401  0.0642
  494MOL0     H66681   4.497   4.953   4.068 -1.2944  1.5103 -0.5101
  494MOL0     H66682   4.631   4.822   4.239  0.4004 -3.1256 -5.9353
  494MOL0     H66683   4.726   4.974   4.276  0.6373  4.6214 -3.5546
  494MOL0     H66684   4.808   4.775   4.096  0.7556  0.0981  0.0293
  494MOL0     H66685   4.735   4.904   3.992  2.0686  2.1390 -0.6389
  494MOL0     H66686   5.095   5.087   4.130  0.0996  0.6703  0.1893
  494MOL0     H66687   4.172   4.958   4.212 -1.9833 -0.5130  0.8934
  494MOL0     H66688   3.868   4.757   4.198  0.0936  1.4508  2.2544
  494MOL0     H66689   3.938   4.911   4.228 -2.7847 -0.6728  0.7135
  494MOL0     H66690   3.937   4.842   4.062 -0.5431  1.0986 -0.8139
  495MOL0     O66691   0.480   2.688   2.126  0.4741 -0.1027 -0.4191
  495MOL0     C66692   0.508   2.752   2.225 -0.6402  0.4602 -0.1965
  495MOL0     O66693   0.639   2.771   2.266  0.1928 -0.1912  0.5083
  495MOL0     C66694   0.742   2.718   2.191 -0.6568 -0.1726  1.1447
  495MOL0     C66695   0.748   2.584   2.155  0.0961  0.3467  0.0979
  495MOL0     C66696   0.848   2.547   2.059  1.0775  0.1599  0.0546
  495MOL0     C66697   0.947   2.632   2.018 -0.6335  0.1547  0.0967
  495MOL0     O66698   1.052   2.596   1.936 -0.0812  0.0982 -0.1409
  495MOL0     C66699   1.024   2.481   1.849  0.4015  0.6890  0.0733
  495MOL0     C66700   1.115   2.510   1.725 -0.2603  0.3158 -0.2259
  495MOL0     C66701   1.128   2.376   1.641  0.1997  0.2664 -0.4103
  495MOL0     C66702   1.195   2.414   1.508  0.3678  0.0468 -0.8826
  495MOL0     C66703   1.104   2.360   1.400 -0.4522  0.0745 -0.3128
  495MOL0     C66704   1.171   2.335   1.276  1.0678 -0.4251  1.6747
  495MOL0     C66705   1.074   2.256   1.183 -0.4888 -0.4641  1.0746
  495MOL0     C66706   1.141   2.231   1.050  0.0742  0.4518  1.0009
  495MOL0     N66707   1.230   2.112   1.044 -0.7736 -0.7567  0.4466
  495MOL0     C66708   1.187   1.984   1.030  0.4245 -0.2486 -0.0242
  495MOL0     C66709   1.297   1.910   1.049  0.2609 -0.2258 -0.2863
  495MOL0     C66710   1.290   1.762   1.057  0.2769  0.3480  0.1766
  495MOL0     C66711   1.410   1.692   1.121 -0.0893  0.1627  0.4672
  495MOL0     C66712   1.534   1.700   1.026 -1.1121 -0.0687 -0.2847
  495MOL0     C66713   1.659   1.670   1.112 -0.4595 -0.0041  0.4979
  495MOL0     O66714   1.663   1.725   1.245 -0.4146  0.6240 -0.2170
  495MOL0     C66715   1.755   1.681   1.330  0.4049 -0.4073 -0.4868
  495MOL0     C66716   1.832   1.569   1.316 -0.8604 -0.2702 -0.2687
  495MOL0     C66717   1.943   1.554   1.403  0.5964  0.1924  0.3609
  495MOL0     C66718   1.985   1.653   1.498  0.7166  0.3478  0.3999
  495MOL0     C66719   2.115   1.651   1.572 -0.0741 -0.0756 -0.0234
  495MOL0     O66720   2.199   1.544   1.546 -0.1391 -0.1638 -0.1648
  495MOL0     C66721   2.318   1.510   1.599  1.1272 -0.1280 -0.5416
  495MOL0     C66722   2.398   1.599   1.675  0.2744  0.5883 -0.3098
  495MOL0     C66723   2.517   1.539   1.725 -0.0716 -0.1866 -0.4152
  495MOL0     C66724   2.554   1.404   1.709 -0.2769  0.1800 -1.7507
  495MOL0     O66725   2.664   1.335   1.764  1.1664  0.6840 -0.4016
  495MOL0     C66726   2.770   1.411   1.823 -0.2735 -0.5818 -0.2337
  495MOL0     C66727   2.874   1.309   1.884 -0.9600 -0.1413  0.3557
  495MOL0     C66728   2.995   1.379   1.953  0.6942 -0.1113 -0.2313
  495MOL0     C66729   3.111   1.419   1.856 -0.3322  1.0927  0.3221
  495MOL0     C66730   3.231   1.481   1.939  0.1746 -0.0228 -0.1868
  495MOL0     C66731   3.344   1.525   1.852 -0.0086 -0.6309  0.0120
  495MOL0     C66732   3.387   1.424   1.742 -1.0975  0.0825 -0.4741
  495MOL0     C66733   3.530   1.446   1.692  0.4475  0.1480 -0.1419
  495MOL0    Cl66734   3.544   1.611   1.632 -0.1335 -0.0363 -0.1789
  495MOL0     C66735   2.466   1.317   1.648  0.0610  0.0674 -0.4251
  495MOL0     C66736   2.347   1.369   1.588 -0.3738  0.4130 -0.3820
  495MOL0     O66737   2.150   1.749   1.627  0.8869 -0.7641  0.1956
  495MOL0     C66738   1.899   1.757   1.510 -0.3641 -0.1390  0.6685
  495MOL0     C66739   1.786   1.772   1.427 -0.6538 -0.1384  0.0728
  495MOL0     N66740   1.398   1.987   1.089 -0.0044 -0.0209 -0.2681
  495MOL0     N66741   1.363   2.113   1.079  0.4276 -0.2333  0.6586
  495MOL0     C66742   0.948   2.759   2.065  0.3180  0.9529 -0.1433
  495MOL0     C66743   0.845   2.804   2.147  0.1557  0.2303 -0.2227
  495MOL0     C66744   0.408   2.808   2.315  0.4770 -0.5370  0.2707
  495MOL0     C66745   0.293   2.735   2.342  0.1339 -0.1935  0.0211
  495MOL0     C66746   0.207   2.772   2.437  0.5797 -0.5751  0.0628
  495MOL0     C66747   0.218   2.894   2.513 -0.2624  0.1005  0.4973
  495MOL0     O66748   0.127   2.953   2.600  0.4367  0.6535  0.1922
  495MOL0     C66749   0.024   2.858   2.633 -0.6630 -0.2776  0.3097
  495MOL0     C66750  -0.065   2.913   2.748  0.3807 -0.5711  0.4905
  495MOL0     C66751  -0.197   2.833   2.766 -0.8009  0.9026 -0.6555
  495MOL0     C66752  -0.306   2.936   2.807 -0.2881 -0.3376  0.0684
  495MOL0     C66753  -0.423   2.862   2.855 -0.1408 -0.1228 -0.4167
  495MOL0     C66754  -0.523   2.825   2.914 -0.0726  0.2725 -0.8588
  495MOL0     C66755   0.330   2.967   2.475 -0.2408  1.1749  0.1766
  495MOL0     C66756   0.436   2.927   2.389  0.5965 -0.0280  0.6360
  495MOL0     C66757   0.557   3.022   2.368  0.5557  0.0612 -0.4124
  495MOL0     H66758   0.675   2.514   2.196 -0.7754  2.4378  2.3731
  495MOL0     H66759   0.847   2.444   2.026 -2.5732  0.7397 -2.1694
  495MOL0     H66760   1.044   2.390   1.905 -0.5904  0.2917 -0.1984
  495MOL0     H66761   0.918   2.482   1.823  0.6943 -0.1905 -1.2518
  495MOL0     H66762   1.217   2.537   1.753 -0.2061  0.3718 -0.4814
  495MOL0     H66763   1.076   2.585   1.656  1.1202 -0.7014 -2.2109
  495MOL0     H66764   1.029   2.331   1.628  0.2880 -1.0840  2.6632
  495MOL0     H66765   1.186   2.312   1.708 -0.0995  2.2307  1.8780
  495MOL0     H66766   1.207   2.522   1.492 -1.3668  0.9117  2.6839
  495MOL0     H66767   1.297   2.373   1.504  0.1602 -0.6589  0.4007
  495MOL0     H66768   1.083   2.258   1.435  0.6033 -0.0047  0.1281
  495MOL0     H66769   1.009   2.413   1.402 -0.9372 -0.7816  1.2338
  495MOL0     H66770   1.190   2.430   1.225 -1.8662 -0.1063  0.9971
  495MOL0     H66771   1.258   2.270   1.296  0.5700 -0.2050  5.1731
  495MOL0     H66772   0.978   2.307   1.171 -1.2335 -1.8832  0.8337
  495MOL0     H66773   1.064   2.152   1.215  1.2893 -2.6708 -4.4244
  495MOL0     H66774   1.065   2.221   0.972  1.2079  0.0920 -0.0980
  495MOL0     H66775   1.198   2.319   1.020  3.6763 -1.9987 -0.1169
  495MOL0     H66776   1.095   1.926   1.020 -0.7543  1.5263  0.1030
  495MOL0     H66777   1.194   1.732   1.102  0.2330  2.8100  1.9243
  495MOL0     H66778   1.295   1.720   0.956 -0.2781  0.8282 -0.0586
  495MOL0     H66779   1.418   1.714   1.228 -1.3437 -1.6525  0.9876
  495MOL0     H66780   1.383   1.586   1.114  4.1895 -1.1886  1.3910
  495MOL0     H66781   1.552   1.795   0.976  0.3371  0.0776  0.4577
  495MOL0     H66782   1.526   1.618   0.954 -0.1264 -1.4995  1.1440
  495MOL0     H66783   1.739   1.705   1.046 -0.6733  0.4581  0.4767
  495MOL0     H66784   1.657   1.561   1.110 -1.2301  0.0025  0.6452
  495MOL0     H66785   1.818   1.489   1.244  3.3171 -0.6907 -0.8621
  495MOL0     H66786   2.008   1.467   1.399  0.0285 -0.3870  2.6128
  495MOL0     H66787   2.372   1.703   1.690 -1.6458  0.1048  0.1043
  495MOL0     H66788   2.575   1.610   1.784 -2.9704  0.1392  2.2706
  495MOL0     H66789   2.824   1.477   1.754 -2.4522 -0.1427 -1.6157
  495MOL0     H66790   2.727   1.468   1.905 -1.8527 -1.0035 -0.7354
  495MOL0     H66791   2.817   1.252   1.957 -0.6819  0.9097  1.4228
  495MOL0     H66792   2.918   1.245   1.807  1.7167  3.0746 -1.0294
  495MOL0     H66793   2.967   1.468   2.010  2.2117 -0.2374  0.7616
  495MOL0     H66794   3.036   1.312   2.029 -1.0117 -1.7520 -0.6908
  495MOL0     H66795   3.085   1.492   1.779  0.7709 -0.1847 -1.3395
  495MOL0     H66796   3.134   1.325   1.806 -0.9932  1.0009  0.1818
  495MOL0     H66797   3.277   1.411   2.011  0.9425 -0.2038 -0.8394
  495MOL0     H66798   3.194   1.572   1.987  0.8998  1.2461 -1.9306
  495MOL0     H66799   3.312   1.615   1.799 -2.1969 -1.4524 -0.1567
  495MOL0     H66800   3.430   1.559   1.911  0.2386  1.6504 -1.5416
  495MOL0     H66801   3.312   1.439   1.663 -0.8066 -3.0402 -1.4932
  495MOL0     H66802   3.386   1.321   1.778  5.2035 -0.1371  0.1071
  495MOL0     H66803   3.599   1.445   1.777 -0.7711  1.1789  0.9223
  495MOL0     H66804   3.561   1.373   1.618  3.1311  0.2163  0.8223
  495MOL0     H66805   2.486   1.211   1.656  3.4172  0.6444  0.2837
  495MOL0     H66806   2.272   1.304   1.544  1.0653 -0.6065 -1.4491
  495MOL0     H66807   1.915   1.836   1.584  0.9801 -1.6765  2.1000
  495MOL0     H66808   1.730   1.865   1.435 -0.4555 -0.0852  1.0095
  495MOL0     H66809   1.025   2.825   2.027  0.1413 -0.0815 -2.5078
  495MOL0     H66810   0.846   2.906   2.184  1.7620 -0.1489  0.9055
  495MOL0     H66811   0.285   2.636   2.297 -0.9044 -0.7011  1.2514
  495MOL0     H66812   0.130   2.698   2.458  1.2121 -0.8236  1.6861
  495MOL0     H66813   0.072   2.771   2.679  1.1059  1.3945  1.8061
  495MOL0     H66814  -0.034   2.816   2.551  0.8020 -1.2923 -0.2291
  495MOL0     H66815  -0.079   3.018   2.719 -0.8595 -0.7987  0.2215
  495MOL0     H66816  -0.003   2.923   2.838  0.6124  3.7329  0.0802
  495MOL0     H66817  -0.189   2.760   2.847 -1.5418  0.7561 -0.7121
  495MOL0     H66818  -0.224   2.771   2.680 -5.0242 -1.4130  2.0471
  495MOL0     H66819  -0.260   3.002   2.881  1.6285 -0.7257 -0.7284
  495MOL0     H66820  -0.335   2.996   2.721 -1.1352  0.8746  1.1497
  495MOL0     H66821  -0.619   2.799   2.954 -1.1274  2.8338 -1.5433
  495MOL0     H66822   0.320   3.069   2.511 -1.7674  1.1856 -0.2110
  495MOL0     H66823   0.643   2.990   2.427 -0.2368  2.0805  2.0388
  495MOL0     H66824   0.591   3.030   2.265  1.0119  1.7647 -0.1552
  495MOL0     H66825   0.529   3.125   2.390  1.9371  0.5488 -0.8359
  496MOL0     O66826  10.461   9.356  10.553  0.0228  0.4809 -0.5568
  496MOL0     C66827  10.460   9.474  10.548  0.1637 -1.0721  1.2820
  496MOL0     O66828  10.381   9.562  10.630 -0.6669  0.0544  0.2345
  496MOL0     C66829  10.290   9.509  10.714 -0.4624 -0.5082 -0.3553
  496MOL0     C66830  10.304   9.412  10.817 -0.2929  0.0664  0.1473
  496MOL0     C66831  10.197   9.369  10.899  0.2427  0.5099 -0.4454
  496MOL0     C66832  10.064   9.412  10.876 -0.5545 -0.6237  0.1032
  496MOL0     O66833   9.959   9.360  10.945  0.2717  0.2473  0.2799
  496MOL0     C66834   9.829   9.394  10.912  0.1693  0.0281 -0.0026
  496MOL0     C66835   9.726   9.304  10.989 -0.5729  1.1280  0.0813
  496MOL0     C66836   9.590   9.369  10.985 -0.7111 -0.0941  0.5591
  496MOL0     C66837   9.538   9.416  10.841  0.5764 -0.1285 -0.8019
  496MOL0     C66838   9.390   9.477  10.851 -0.0198 -0.0131 -0.0797
  496MOL0     C66839   9.290   9.396  10.933 -0.3503  1.1421  0.0730
  496MOL0     C66840   9.153   9.399  10.872  0.0181  0.4704 -0.8046
  496MOL0     C66841   9.060   9.327  10.972 -0.6398  0.6135  0.1726
  496MOL0     N66842   8.926   9.306  10.913 -0.3447 -0.8222 -0.1554
  496MOL0     C66843   8.870   9.185  10.867  0.0266 -0.6876  0.9888
  496MOL0     C66844   8.752   9.208  10.805  0.2774 -0.3721  0.1362
  496MOL0     C66845   8.679   9.108  10.723  0.0826 -0.5247  0.7049
  496MOL0     C66846   8.651   9.157  10.581  0.2074  0.4133 -0.1028
  496MOL0     C66847   8.760   9.114  10.477  0.3623 -0.2070  0.9045
  496MOL0     C66848   8.893   9.178  10.501 -0.3462  0.0821  0.5239
  496MOL0     O66849   8.982   9.145  10.393 -0.5826  0.0095 -0.7444
  496MOL0     C66850   9.117   9.122  10.414  0.0673  0.0509  0.3641
  496MOL0     C66851   9.190   9.026  10.336  0.6929 -0.0109  0.7782
  496MOL0     C66852   9.323   9.008  10.343 -0.4266  0.0557 -0.7592
  496MOL0     C66853   9.404   9.089  10.434 -0.5234  0.1381  0.8612
  496MOL0     C66854   9.545   9.073  10.446  0.5204 -0.4769  0.2105
  496MOL0     O66855   9.600   8.969  10.377  0.3071 -0.1330  1.2699
  496MOL0     C66856   9.738   8.943  10.388 -0.4936 -0.3251 -0.3745
  496MOL0     C66857   9.812   8.923  10.267  0.2486 -0.1115 -0.7153
  496MOL0     C66858   9.955   8.894  10.280 -0.0349 -0.1670 -0.1588
  496MOL0     C66859  10.012   8.874  10.403 -0.6914 -0.0967 -0.1159
  496MOL0     O66860  10.146   8.843  10.398  0.2487 -0.2323 -0.1893
  496MOL0     C66861  10.193   8.747  10.500 -0.0461 -0.4012 -0.1641
  496MOL0     C66862  10.321   8.673  10.454  0.5905 -0.2768  0.2075
  496MOL0     C66863  10.279   8.567  10.337  0.0179  0.5292 -0.7039
  496MOL0     C66864  10.403   8.562  10.244 -0.2376 -0.3388 -0.5284
  496MOL0     C66865  10.401   8.430  10.165 -0.2689 -0.3334  0.1686
  496MOL0     C66866  10.524   8.417  10.070 -0.1008 -0.1203 -0.2350
  496MOL0     C66867  10.541   8.277  10.006  0.2256  0.4590  0.3188
  496MOL0     C66868  10.603   8.177  10.106  0.2625 -0.3726  0.8354
  496MOL0    Cl66869  10.744   8.264  10.172 -0.7715 -0.2207 -0.0921
  496MOL0     C66870   9.936   8.887  10.521  0.4562  0.7095 -0.6783
  496MOL0     C66871   9.801   8.925  10.515 -0.9882 -0.0110  1.2253
  496MOL0     O66872   9.604   9.146  10.524  0.5541 -1.3179  1.1925
  496MOL0     C66873   9.336   9.187  10.508 -0.3127  1.0432  0.2794
  496MOL0     C66874   9.198   9.197  10.502 -0.3986 -0.8382  0.0189
  496MOL0     N66875   8.731   9.347  10.809 -0.2679 -0.0860  0.1008
  496MOL0     N66876   8.830   9.402  10.877 -0.3260  0.1322 -0.2627
  496MOL0     C66877  10.050   9.507  10.771  0.3739 -0.0481  0.5611
  496MOL0     C66878  10.164   9.559  10.704  1.0089 -0.5204 -0.6295
  496MOL0     C66879  10.548   9.535  10.443 -0.3942  0.3858  0.6433
  496MOL0     C66880  10.522   9.667  10.405 -0.3571 -0.7156  0.1538
  496MOL0     C66881  10.619   9.744  10.339 -0.1305 -0.4948  0.0856
  496MOL0     C66882  10.733   9.679  10.297 -1.0813 -0.1415 -0.3106
  496MOL0     O66883  10.839   9.736  10.241 -0.5549 -0.3979 -0.3024
  496MOL0     C66884  10.828   9.873  10.190 -0.2208 -0.3118 -0.7137
  496MOL0     C66885  10.954   9.922  10.121  0.1859 -0.2899  0.2190
  496MOL0     C66886  11.009   9.824  10.020 -0.3398  0.6286  0.1180
  496MOL0     C66887  10.914   9.813   9.893  0.4393 -0.2869 -0.4269
  496MOL0     C66888  10.987   9.738   9.794 -0.6208  0.2007  1.1960
  496MOL0     C66889  11.031   9.670   9.702 -0.0396  0.2490  0.5520
  496MOL0     C66890  10.758   9.542  10.323  0.4024  1.1297 -0.4334
  496MOL0     C66891  10.668   9.467  10.399 -0.3983  0.1732  0.3422
  496MOL0     C66892  10.717   9.328  10.431 -0.5198  1.5824 -0.6431
  496MOL0     H66893  10.406   9.384  10.837  0.6710  2.5063 -0.9182
  496MOL0     H66894  10.220   9.294  10.974  0.0883 -0.5070 -1.3816
  496MOL0     H66895   9.812   9.500  10.934 -3.8713 -0.7840  1.8313
  496MOL0     H66896   9.812   9.378  10.805 -0.2964  1.6004 -0.1960
  496MOL0     H66897   9.757   9.284  11.092  3.3464 -0.2683 -1.2202
  496MOL0     H66898   9.727   9.204  10.946 -1.1443  1.4554 -0.7171
  496MOL0     H66899   9.589   9.448  11.060 -1.0658  1.4847 -1.0526
  496MOL0     H66900   9.520   9.295  11.025 -1.1376 -0.1952 -0.3558
  496MOL0     H66901   9.612   9.484  10.796 -1.4898  1.3189 -2.2167
  496MOL0     H66902   9.543   9.333  10.771  1.8564 -1.0286  0.3125
  496MOL0     H66903   9.400   9.578  10.891 -3.9898 -0.3002  2.1704
  496MOL0     H66904   9.364   9.487  10.746 -0.4339  4.3852  0.2618
  496MOL0     H66905   9.321   9.291  10.928 -0.2169  1.1719  0.2873
  496MOL0     H66906   9.278   9.430  11.036 -0.7467  2.6565 -0.4502
  496MOL0     H66907   9.151   9.325  10.791  2.7957 -3.9379  2.6149
  496MOL0     H66908   9.126   9.502  10.847  1.4045  0.9048 -0.6346
  496MOL0     H66909   9.101   9.226  10.978 -0.9373  0.4725 -0.1239
  496MOL0     H66910   9.048   9.371  11.071  0.8303 -1.0005  1.0987
  496MOL0     H66911   8.898   9.082  10.887  0.6462 -0.1622  3.0334
  496MOL0     H66912   8.736   9.015  10.713  0.9680  0.2835 -3.8177
  496MOL0     H66913   8.588   9.083  10.779 -0.1545 -1.9743 -0.2839
  496MOL0     H66914   8.554   9.117  10.551  0.0920  2.5163 -2.9388
  496MOL0     H66915   8.638   9.266  10.586  2.9676  0.8331 -0.3880
  496MOL0     H66916   8.722   9.142  10.378  0.4823  1.4179  1.2959
  496MOL0     H66917   8.768   9.005  10.469 -0.6246 -0.1983 -0.7705
  496MOL0     H66918   8.926   9.149  10.601 -0.9723 -0.5876  0.5432
  496MOL0     H66919   8.888   9.288  10.507 -0.3646  0.0304  1.6547
  496MOL0     H66920   9.130   8.958  10.277 -0.9220  1.1528  1.0005
  496MOL0     H66921   9.368   8.939  10.272 -0.9535 -0.5189 -0.5436
  496MOL0     H66922   9.778   8.926  10.164  0.2644  1.8944 -0.6996
  496MOL0     H66923  10.029   8.893  10.200  1.1096  1.9756  0.8029
  496MOL0     H66924  10.213   8.793  10.597  1.4455  0.8254 -0.9917
  496MOL0     H66925  10.109   8.678  10.506 -0.3867  0.0237  0.0171
  496MOL0     H66926  10.400   8.740  10.419  0.6142 -0.3897  0.0417
  496MOL0     H66927  10.359   8.629  10.546  3.4446  0.5757 -0.4708
  496MOL0     H66928  10.264   8.469  10.383  0.5507  0.9065  0.3223
  496MOL0     H66929  10.183   8.579  10.288 -0.0858  0.9880 -0.3998
  496MOL0     H66930  10.489   8.561  10.312 -1.4023 -0.6718  1.0083
  496MOL0     H66931  10.413   8.653  10.184  0.8551 -0.5512 -0.6883
  496MOL0     H66932  10.311   8.412  10.105  0.7732 -3.6759 -0.5970
  496MOL0     H66933  10.410   8.345  10.233 -0.5968  1.0230  1.9820
  496MOL0     H66934  10.502   8.486   9.987  0.9613  1.2629  0.5975
  496MOL0     H66935  10.612   8.463  10.115 -0.0660  0.0274 -0.4515
  496MOL0     H66936  10.600   8.285   9.915 -0.7648  0.9512 -0.2892
  496MOL0     H66937  10.443   8.238   9.977  1.3460 -1.7126 -0.8252
  496MOL0     H66938  10.525   8.142  10.174 -2.8091 -1.0865 -2.7420
  496MOL0     H66939  10.638   8.084  10.060  2.4053  0.5233  0.5516
  496MOL0     H66940   9.984   8.868  10.616  0.2336 -1.7201 -0.9701
  496MOL0     H66941   9.760   8.945  10.614  4.2777 -1.9892  4.1981
  496MOL0     H66942   9.394   9.235  10.586  2.7219  0.0774 -1.2208
  496MOL0     H66943   9.148   9.282  10.546 -0.4741 -0.1424 -1.3401
  496MOL0     H66944   9.954   9.536  10.729  1.0086  1.5875  0.1893
  496MOL0     H66945  10.153   9.641  10.634  2.1827 -0.4918 -0.7919
  496MOL0     H66946  10.439   9.725  10.446  0.0679  0.5648 -0.7227
  496MOL0     H66947  10.596   9.847  10.317 -1.8091 -1.1673 -1.5736
  496MOL0     H66948  10.800   9.930  10.279  1.7903 -2.3790  1.4331
  496MOL0     H66949  10.747   9.868  10.117  0.7183  2.9950 -2.1559
  496MOL0     H66950  11.031   9.938  10.197 -0.6850 -1.8615  1.4848
  496MOL0     H66951  10.941  10.024  10.082  0.4385 -0.3920 -0.1360
  496MOL0     H66952  11.020   9.723  10.060  1.3156 -0.9750 -3.8261
  496MOL0     H66953  11.107   9.849   9.976 -0.3826 -2.7771 -2.3457
  496MOL0     H66954  10.813   9.777   9.913  0.5405 -0.4788 -0.2539
  496MOL0     H66955  10.914   9.910   9.843  2.2647  0.0669  0.1518
  496MOL0     H66956  11.071   9.609   9.623 -0.8506 -1.7524  1.5964
  496MOL0     H66957  10.849   9.494  10.291 -0.4172 -1.2259  0.5280
  496MOL0     H66958  10.768   9.333  10.528  3.5791 -1.2652 -2.3522
  496MOL0     H66959  10.650   9.242  10.439  0.1796  1.2016  2.9637
  496MOL0     H66960  10.803   9.302  10.368  3.8953 -0.9768  5.4265
  497MOL0     O66961   1.323   9.416  11.120 -0.0298  0.3525 -0.1695
  497MOL0     C66962   1.327   9.447  11.234 -0.2512 -0.4896  0.1272
  497MOL0     O66963   1.445   9.507  11.284 -0.5262  0.2631  0.3832
  497MOL0     C66964   1.556   9.492  11.209 -1.0897 -0.4752 -0.7318
  497MOL0     C66965   1.614   9.613  11.179 -0.4889  0.4722  0.4589
  497MOL0     C66966   1.735   9.612  11.109 -0.3608 -0.4845 -0.8097
  497MOL0     C66967   1.794   9.492  11.066 -0.2693 -0.4887  0.5074
  497MOL0     O66968   1.889   9.502  10.979 -0.5626 -0.2631 -0.4313
  497MOL0     C66969   2.017   9.478  11.036 -0.3070  0.5347  0.8609
  497MOL0     C66970   2.103   9.417  10.924 -1.6199 -0.6456  0.2897
  497MOL0     C66971   2.142   9.527  10.827 -0.3422 -0.1593  0.0483
  497MOL0     C66972   2.193   9.474  10.692 -0.5323 -0.5090 -0.7339
  497MOL0     C66973   2.332   9.410  10.709 -0.0895  0.4854  0.9487
  497MOL0     C66974   2.376   9.371  10.566  0.6068 -0.2553 -0.1530
  497MOL0     C66975   2.531   9.366  10.570  0.2127 -0.6184 -0.2535
  497MOL0     C66976   2.599   9.351  10.435 -0.0697 -0.8493 -0.2758
  497MOL0     N66977   2.749   9.357  10.473  0.6574 -0.0446 -0.2382
  497MOL0     C66978   2.824   9.253  10.529 -0.5520  0.0387 -0.0110
  497MOL0     C66979   2.942   9.299  10.565 -0.3755  0.0145 -0.3302
  497MOL0     C66980   3.047   9.218  10.615 -0.5970 -0.9627 -0.2695
  497MOL0     C66981   3.047   9.212  10.767 -0.0488  0.3047 -0.3334
  497MOL0     C66982   3.142   9.102  10.807 -0.7987  0.4897  0.5469
  497MOL0     C66983   3.299   9.133  10.790 -0.6515  0.6862 -0.1066
  497MOL0     O66984   3.346   9.227  10.886 -0.7989  0.0482  0.2509
  497MOL0     C66985   3.485   9.223  10.909  0.4577  0.4667 -0.0157
  497MOL0     C66986   3.553   9.320  10.835  0.5213 -0.2846  0.6396
  497MOL0     C66987   3.688   9.343  10.861 -0.2212 -0.5488 -0.0217
  497MOL0     C66988   3.759   9.265  10.956 -0.0662  0.0037  0.1023
  497MOL0     C66989   3.901   9.298  10.986  0.1212  0.5842  0.1850
  497MOL0     O66990   3.962   9.378  10.897  0.4072 -0.5942  0.0022
  497MOL0     C66991   4.092   9.406  10.928 -0.3349  0.2933  0.3343
  497MOL0     C66992   4.118   9.473  11.039 -0.2781  0.5866  0.0278
  497MOL0     C66993   4.252   9.487  11.078 -0.7875  0.0014  0.0894
  497MOL0     C66994   4.357   9.452  10.988  0.6110 -1.4859 -0.5085
  497MOL0     O66995   4.488   9.475  11.030  0.1126 -0.9549 -0.7592
  497MOL0     C66996   4.559   9.564  10.947 -0.4414  0.5215 -0.4971
  497MOL0     C66997   4.657   9.491  10.854 -0.0238 -0.5691 -0.5883
  497MOL0     C66998   4.778   9.420  10.918 -0.6290 -0.1394  0.3802
  497MOL0     C66999   4.906   9.503  10.905 -0.6411  0.9067 -0.0682
  497MOL0     C67000   5.034   9.418  10.927  0.0725  0.1002  0.2067
  497MOL0     C67001   5.162   9.513  10.909  0.5626 -0.2873  0.2909
  497MOL0     C67002   5.288   9.439  10.900 -0.0359  0.2797 -0.1254
  497MOL0     C67003   5.399   9.535  10.872  0.0813 -0.1158  0.3565
  497MOL0    Cl67004   5.561   9.458  10.867 -0.1982  0.2668 -0.0184
  497MOL0     C67005   4.314   9.402  10.859 -0.5682  0.0590 -0.1616
  497MOL0     C67006   4.181   9.373  10.835 -0.6891  0.0392 -0.1316
  497MOL0     O67007   3.954   9.245  11.076  0.0438  0.1739 -0.9713
  497MOL0     C67008   3.687   9.163  11.017 -0.2526  0.3853  0.2879
  497MOL0     C67009   3.549   9.132  10.994  0.6902 -0.3478 -0.4686
  497MOL0     N67010   2.950   9.431  10.521 -0.3553  0.8110  0.5941
  497MOL0     N67011   2.837   9.463  10.458  0.0256 -0.3396 -0.6253
  497MOL0     C67012   1.733   9.369  11.102  0.0834  0.3225  0.3454
  497MOL0     C67013   1.618   9.374  11.174 -0.5985 -0.2739  0.1147
  497MOL0     C67014   1.199   9.450  11.312 -0.1148  0.9073 -0.6407
  497MOL0     C67015   1.085   9.402  11.256  0.0496  0.0967 -0.8584
  497MOL0     C67016   0.967   9.397  11.327  0.7523  0.6956 -0.2484
  497MOL0     C67017   0.950   9.449  11.457 -0.4182  0.2840  0.2978
  497MOL0     O67018   0.837   9.453  11.537  0.2010  0.2062  0.0595
  497MOL0     C67019   0.716   9.385  11.490  0.6766  0.2757  0.0291
  497MOL0     C67020   0.609   9.377  11.592 -1.2105 -0.7365  0.3371
  497MOL0     C67021   0.482   9.334  11.532 -0.6248 -0.4128  0.3023
  497MOL0     C67022   0.370   9.335  11.636 -0.0273 -0.0216  0.3129
  497MOL0     C67023   0.318   9.467  11.665 -0.8224 -0.6547 -0.0593
  497MOL0     C67024   0.290   9.584  11.685 -0.6016 -0.1799  1.0590
  497MOL0     C67025   1.072   9.505  11.515  0.4044 -0.0742  0.8486
  497MOL0     C67026   1.190   9.505  11.446 -0.3958  0.1482 -0.1239
  497MOL0     C67027   1.300   9.584  11.507  0.1698 -0.0781 -0.4959
  497MOL0     H67028   1.561   9.703  11.208  0.4996  0.9213  0.9315
  497MOL0     H67029   1.785   9.703  11.079 -0.5871  0.9396  2.6859
  497MOL0     H67030   2.057   9.573  11.072  0.7749  0.6958 -0.6433
  497MOL0     H67031   2.009   9.403  11.114 -4.9072 -1.0027 -0.7768
  497MOL0     H67032   2.048   9.341  10.868 -2.5683  0.5566 -0.4471
  497MOL0     H67033   2.191   9.373  10.973  0.0818  1.3532 -0.7647
  497MOL0     H67034   2.210   9.596  10.878  0.0473  0.4841 -1.3049
  497MOL0     H67035   2.053   9.584  10.797  0.8543  2.5057  1.1910
  497MOL0     H67036   2.122   9.401  10.652 -3.5200 -0.5420  3.9246
  497MOL0     H67037   2.191   9.552  10.616 -2.7040 -1.9107 -2.2160
  497MOL0     H67038   2.394   9.492  10.746  0.3328  1.0838 -0.9342
  497MOL0     H67039   2.330   9.316  10.764 -1.7863 -1.9052 -2.7748
  497MOL0     H67040   2.335   9.276  10.531  0.4773 -0.0336 -0.6097
  497MOL0     H67041   2.349   9.445  10.490  1.1266 -1.6550 -1.7623
  497MOL0     H67042   2.560   9.277  10.626 -1.1893 -0.6021  0.5298
  497MOL0     H67043   2.570   9.456  10.617  3.4288 -1.2850 -1.3735
  497MOL0     H67044   2.576   9.253  10.393  2.8621 -1.9039  0.3501
  497MOL0     H67045   2.567   9.432  10.368  1.0609  0.5259  0.7823
  497MOL0     H67046   2.797   9.148  10.541  1.0253 -0.4208 -0.3401
  497MOL0     H67047   3.049   9.121  10.565 -0.9066 -0.4422 -1.3077
  497MOL0     H67048   3.133   9.272  10.576 -2.7587  3.6630  0.6636
  497MOL0     H67049   3.065   9.311  10.809  1.5428  0.8224 -2.1216
  497MOL0     H67050   2.946   9.176  10.791 -0.4758 -0.2273 -2.7016
  497MOL0     H67051   3.123   9.008  10.755  1.1212  0.0811  0.5306
  497MOL0     H67052   3.111   9.081  10.910 -2.1430 -2.4182 -0.3403
  497MOL0     H67053   3.313   9.158  10.684 -6.1819  1.8372 -0.8967
  497MOL0     H67054   3.344   9.035  10.811 -5.0316 -2.0349 -1.8507
  497MOL0     H67055   3.493   9.375  10.763  1.6023  0.3764  0.2177
  497MOL0     H67056   3.751   9.415  10.809  1.5898 -1.7865  0.3526
  497MOL0     H67057   4.029   9.498  11.095 -1.3373 -3.8816  0.6931
  497MOL0     H67058   4.286   9.508  11.179  2.6528 -1.2738 -0.6533
  497MOL0     H67059   4.482   9.617  10.890  0.3447  2.7457  0.3835
  497MOL0     H67060   4.609   9.642  11.005 -0.9335  0.7709 -0.3983
  497MOL0     H67061   4.608   9.418  10.788  2.6215 -2.2657 -0.8224
  497MOL0     H67062   4.695   9.559  10.777  1.1548  0.8974  1.2123
  497MOL0     H67063   4.758   9.404  11.024 -0.7166 -3.0261  0.0226
  497MOL0     H67064   4.794   9.321  10.874 -1.3530 -0.5817  1.1034
  497MOL0     H67065   4.909   9.588  10.974  2.4549  1.2170 -0.4433
  497MOL0     H67066   4.908   9.551  10.807 -1.2437 -2.3694 -1.8170
  497MOL0     H67067   5.045   9.338  10.854  0.2661  0.9257 -0.6817
  497MOL0     H67068   5.039   9.382  11.031 -1.0882 -0.4804  0.0798
  497MOL0     H67069   5.152   9.554  10.808  1.4892 -0.0155  0.2997
  497MOL0     H67070   5.160   9.597  10.979  0.8431  1.9017 -2.1880
  497MOL0     H67071   5.281   9.359  10.825 -2.1435  0.0915  0.2073
  497MOL0     H67072   5.304   9.388  10.995  0.7661  0.0713 -0.3658
  497MOL0     H67073   5.376   9.579  10.774 -0.4318 -0.4378  0.3324
  497MOL0     H67074   5.399   9.621  10.939 -0.5243  0.0497  0.1523
  497MOL0     H67075   4.385   9.360  10.790  0.2211  0.6492  0.2696
  497MOL0     H67076   4.139   9.315  10.753 -1.3771  1.6134 -0.9298
  497MOL0     H67077   3.740   9.111  11.096  2.0703 -0.2210 -1.5376
  497MOL0     H67078   3.506   9.047  11.046 -0.7244 -0.9415 -2.4796
  497MOL0     H67079   1.771   9.272  11.070  2.1761  2.1428 -3.3752
  497MOL0     H67080   1.589   9.274  11.205 -0.0731 -1.2541 -2.3210
  497MOL0     H67081   1.087   9.362  11.155  1.2329  0.0512 -0.8285
  497MOL0     H67082   0.877   9.354  11.284  1.1021 -0.8305  0.4762
  497MOL0     H67083   0.737   9.290  11.442  3.1195  2.0061 -2.6726
  497MOL0     H67084   0.679   9.447  11.408 -1.1886 -2.0537 -1.0140
  497MOL0     H67085   0.589   9.477  11.632  2.8977 -0.1249  1.3779
  497MOL0     H67086   0.636   9.305  11.670  1.7730  2.4744  2.5815
  497MOL0     H67087   0.497   9.233  11.493  0.3781  0.1733 -0.8965
  497MOL0     H67088   0.457   9.402  11.450 -0.0174 -2.2002 -1.4243
  497MOL0     H67089   0.280   9.289  11.592  0.6152 -0.0958 -0.9630
  497MOL0     H67090   0.387   9.269  11.721  0.2686 -0.6650 -0.2390
  497MOL0     H67091   0.262   9.687  11.686  1.6228  0.4697  1.5439
  497MOL0     H67092   1.054   9.567  11.602 -0.4955  0.2852  0.4294
  497MOL0     H67093   1.388   9.521  11.522  0.0172 -0.0862  0.4727
  497MOL0     H67094   1.308   9.683  11.462  0.6869  0.7357  1.2687
  497MOL0     H67095   1.273   9.607  11.611  0.0678 -0.3767 -0.4528
  498MOL0     O67096   0.280   5.489   7.120 -0.0801  0.3851  0.8580
  498MOL0     C67097   0.158   5.502   7.093 -0.6919 -0.0520  0.0020
  498MOL0     O67098   0.100   5.450   6.985 -0.1193 -0.0676  0.2439
  498MOL0     C67099   0.164   5.376   6.887 -1.0537 -0.4936  0.3410
  498MOL0     C67100   0.084   5.293   6.815 -0.6063  0.7781 -0.3147
  498MOL0     C67101   0.133   5.218   6.702 -0.2129 -0.1940 -0.0671
  498MOL0     C67102   0.266   5.211   6.667 -0.0474 -0.7627 -0.3553
  498MOL0     O67103   0.314   5.131   6.563  0.3341 -0.9480 -1.1285
  498MOL0     C67104   0.458   5.137   6.540 -0.1091 -0.3369  0.0988
  498MOL0     C67105   0.471   5.048   6.416 -0.1376 -0.0290 -0.4586
  498MOL0     C67106   0.622   5.032   6.373 -0.1082 -0.3976  0.9972
  498MOL0     C67107   0.619   5.009   6.219  0.7119  0.3968 -0.5640
  498MOL0     C67108   0.755   5.022   6.143 -0.2628  0.2883  0.2214
  498MOL0     C67109   0.851   4.909   6.188  0.6425 -0.6059 -0.5744
  498MOL0     C67110   0.978   4.927   6.106  0.3697  0.3453 -0.5661
  498MOL0     C67111   1.085   4.823   6.147  0.6996  0.4369  0.7421
  498MOL0     N67112   1.221   4.853   6.096 -0.3468 -0.0399 -0.4368
  498MOL0     C67113   1.299   4.957   6.124 -0.1721 -0.0927 -0.5664
  498MOL0     C67114   1.402   4.942   6.043  0.1856  0.6446  0.3740
  498MOL0     C67115   1.525   5.022   6.041 -0.0424  0.9755  0.0884
  498MOL0     C67116   1.619   4.974   6.148  0.2692  0.4009 -0.4485
  498MOL0     C67117   1.757   5.046   6.132  0.9824  0.2849  0.1722
  498MOL0     C67118   1.854   5.017   6.253 -0.4737  0.6804  0.4291
  498MOL0     O67119   1.781   5.010   6.377 -0.4672  0.6427 -0.3864
  498MOL0     C67120   1.840   4.921   6.459 -0.1995 -0.0215  0.0276
  498MOL0     C67121   1.964   4.945   6.510  0.1268  0.6717 -0.3507
  498MOL0     C67122   2.030   4.844   6.578  0.2435  0.6713 -0.3394
  498MOL0     C67123   1.983   4.713   6.586  0.0283 -1.0302 -0.4601
  498MOL0     C67124   2.063   4.599   6.643  0.2419 -0.0078 -0.1453
  498MOL0     O67125   2.180   4.637   6.705 -0.5198  0.2812  0.0315
  498MOL0     C67126   2.276   4.546   6.773 -0.2858 -0.8701 -0.2918
  498MOL0     C67127   2.243   4.429   6.842 -0.5310 -0.0986 -0.0393
  498MOL0     C67128   2.335   4.357   6.918 -0.1800 -0.5643  1.0742
  498MOL0     C67129   2.466   4.398   6.931 -0.3729 -0.2041 -0.1740
  498MOL0     O67130   2.555   4.310   6.983 -0.0732 -0.3479 -0.3931
  498MOL0     C67131   2.689   4.358   7.008  0.0936  0.2945  0.4036
  498MOL0     C67132   2.776   4.233   7.043  0.4902 -0.2773 -0.5320
  498MOL0     C67133   2.921   4.274   7.079 -0.9633  0.9982  0.8403
  498MOL0     C67134   3.005   4.149   7.116 -1.0697  0.4141  0.6241
  498MOL0     C67135   3.137   4.200   7.172  0.1292  0.5605  0.0450
  498MOL0     C67136   3.244   4.093   7.187 -0.0462  0.7099 -0.1481
  498MOL0     C67137   3.346   4.140   7.293  0.9290  0.3859 -0.8535
  498MOL0     C67138   3.431   4.259   7.239 -0.0844  0.6563  0.4525
  498MOL0    Cl67139   3.566   4.282   7.352  0.1271  0.1655  0.1667
  498MOL0     C67140   2.500   4.514   6.864  0.0229 -0.8485  0.4508
  498MOL0     C67141   2.409   4.586   6.789  0.2349 -0.7924  0.2421
  498MOL0     O67142   2.028   4.486   6.618  0.2758  0.1484  0.0914
  498MOL0     C67143   1.851   4.690   6.541  0.9180 -1.0024  0.0689
  498MOL0     C67144   1.782   4.790   6.472  0.2954  0.1396 -0.0376
  498MOL0     N67145   1.376   4.835   5.958 -0.5339  0.4826 -0.4869
  498MOL0     N67146   1.267   4.782   5.987 -0.0614  0.3396 -0.0128
  498MOL0     C67147   0.356   5.291   6.755  0.5115  0.5766  0.0774
  498MOL0     C67148   0.299   5.371   6.855 -0.2107  0.3308 -0.4654
  498MOL0     C67149   0.078   5.608   7.165 -0.4276 -0.4137 -1.1144
  498MOL0     C67150   0.125   5.647   7.294 -0.2990  0.3434  0.1434
  498MOL0     C67151   0.066   5.739   7.373 -0.6878  0.8293 -0.5884
  498MOL0     C67152  -0.044   5.803   7.335  0.6856 -1.3048  0.0323
  498MOL0     O67153  -0.110   5.886   7.431 -0.0855  0.5824 -0.3322
  498MOL0     C67154  -0.239   5.930   7.391 -0.6147  0.1651  0.1464
  498MOL0     C67155  -0.343   5.814   7.404  0.2641  0.1765  0.2169
  498MOL0     C67156  -0.466   5.859   7.485 -1.1357  0.0042  0.6961
  498MOL0     C67157  -0.537   5.969   7.404  0.5674 -0.4039  0.3905
  498MOL0     C67158  -0.678   5.984   7.457 -1.4390  0.0899  0.3150
  498MOL0     C67159  -0.792   6.010   7.492  0.7407  0.7838  0.1681
  498MOL0     C67160  -0.101   5.770   7.203 -0.1270  0.6995 -0.9608
  498MOL0     C67161  -0.043   5.669   7.127 -0.7153  0.6595  0.3479
  498MOL0     C67162  -0.127   5.615   7.012 -0.3346  1.3998 -0.4332
  498MOL0     H67163  -0.022   5.296   6.840  0.3049  1.7339  4.3669
  498MOL0     H67164   0.060   5.160   6.646 -1.5351  1.3349 -0.0089
  498MOL0     H67165   0.503   5.233   6.512  2.0388 -1.6113 -1.1154
  498MOL0     H67166   0.527   5.103   6.617  0.1537 -0.1228 -0.0403
  498MOL0     H67167   0.403   5.100   6.349 -2.2548  0.3443  1.8346
  498MOL0     H67168   0.426   4.951   6.436 -0.4793  0.4889  1.5631
  498MOL0     H67169   0.671   4.951   6.428 -0.7829  0.2408  2.5908
  498MOL0     H67170   0.670   5.128   6.394 -2.6143  0.5103  3.2348
  498MOL0     H67171   0.568   4.914   6.200  1.1213  0.3299 -1.3531
  498MOL0     H67172   0.553   5.087   6.181 -0.9591 -1.0599 -0.7815
  498MOL0     H67173   0.738   5.007   6.036  0.7758 -0.0219  0.0887
  498MOL0     H67174   0.801   5.121   6.150  1.2034 -0.3084 -0.6003
  498MOL0     H67175   0.881   4.909   6.293  0.8123  2.0678 -0.5374
  498MOL0     H67176   0.801   4.814   6.172 -3.6776  1.3266 -0.0698
  498MOL0     H67177   1.021   5.027   6.120  2.5117 -0.7693  1.3744
  498MOL0     H67178   0.955   4.908   6.001 -5.5932 -5.5968  1.1139
  498MOL0     H67179   1.097   4.796   6.252  2.1160 -1.0595  0.2302
  498MOL0     H67180   1.052   4.731   6.098 -1.4834 -0.2662  3.2964
  498MOL0     H67181   1.291   5.027   6.206 -0.0733  1.4210 -1.7950
  498MOL0     H67182   1.575   5.013   5.944  0.6877  2.2850  0.3203
  498MOL0     H67183   1.495   5.126   6.059 -0.9826  0.5941  0.8253
  498MOL0     H67184   1.575   4.988   6.247 -0.1760 -2.3258 -0.1765
  498MOL0     H67185   1.641   4.868   6.129 -2.4305 -0.2633 -0.2178
  498MOL0     H67186   1.743   5.154   6.128  2.0926  0.4532  0.5090
  498MOL0     H67187   1.810   5.017   6.041  1.0338  0.2406  0.2162
  498MOL0     H67188   1.932   5.094   6.249 -0.6642  0.8129 -2.0564
  498MOL0     H67189   1.900   4.922   6.227  0.5991  1.1475  0.5573
  498MOL0     H67190   2.007   5.045   6.503 -0.7328  1.3570  2.6827
  498MOL0     H67191   2.124   4.864   6.629 -0.8888 -0.8778  2.6056
  498MOL0     H67192   2.145   4.387   6.823 -0.0466  0.2664 -4.2565
  498MOL0     H67193   2.301   4.262   6.959 -1.3801 -0.4296  0.4310
  498MOL0     H67194   2.736   4.414   6.926  1.8388 -1.9724 -0.2483
  498MOL0     H67195   2.688   4.426   7.093  4.2077  1.7729 -0.5011
  498MOL0     H67196   2.731   4.178   7.126  2.0809 -1.0994 -0.1745
  498MOL0     H67197   2.780   4.161   6.961  1.8040  1.5867 -2.2050
  498MOL0     H67198   2.968   4.318   6.990 -1.4205  0.3266  0.2538
  498MOL0     H67199   2.935   4.350   7.156  1.5254  0.4187  1.0661
  498MOL0     H67200   3.015   4.085   7.028 -1.2242 -0.3289  1.1421
  498MOL0     H67201   2.947   4.085   7.183 -0.2991 -1.4994 -0.4820
  498MOL0     H67202   3.110   4.244   7.268 -0.1879 -0.7184  0.5637
  498MOL0     H67203   3.177   4.281   7.110 -2.3700  1.9282  0.0856
  498MOL0     H67204   3.192   4.008   7.231  0.6753 -0.6336 -1.8185
  498MOL0     H67205   3.292   4.067   7.093  0.6487 -0.2406  0.4554
  498MOL0     H67206   3.415   4.058   7.315 -1.4329 -1.4428  0.2413
  498MOL0     H67207   3.293   4.168   7.385  0.7834  0.9392 -1.1021
  498MOL0     H67208   3.473   4.229   7.143 -0.8221  1.0912 -0.0083
  498MOL0     H67209   3.376   4.352   7.227 -0.9328  0.1260  0.1627
  498MOL0     H67210   2.601   4.552   6.873 -1.1035  1.8200  4.7598
  498MOL0     H67211   2.433   4.677   6.736  1.7338 -1.4613 -0.2659
  498MOL0     H67212   1.799   4.595   6.538 -1.3370  0.1383  0.6946
  498MOL0     H67213   1.689   4.772   6.419  0.8280 -0.4226 -0.8117
  498MOL0     H67214   0.463   5.280   6.746  0.5252 -1.2878  1.7835
  498MOL0     H67215   0.369   5.431   6.912  0.0668  0.2545 -0.7279
  498MOL0     H67216   0.205   5.590   7.342 -1.8242 -2.0895 -0.0560
  498MOL0     H67217   0.087   5.742   7.479 -1.8514 -1.7751 -0.1957
  498MOL0     H67218  -0.224   5.982   7.296  2.9348 -1.0629 -0.1409
  498MOL0     H67219  -0.269   5.997   7.472 -1.4767 -1.4438  1.2384
  498MOL0     H67220  -0.290   5.723   7.436  1.2021  0.4197 -0.5839
  498MOL0     H67221  -0.377   5.792   7.302  0.8264  1.6481 -0.3130
  498MOL0     H67222  -0.447   5.903   7.583  0.4257  3.5638 -0.9997
  498MOL0     H67223  -0.532   5.774   7.502  1.0023 -1.7366  0.7183
  498MOL0     H67224  -0.483   6.064   7.409 -0.1140 -0.0014  0.1679
  498MOL0     H67225  -0.537   5.936   7.300  1.6639  0.4253  0.1087
  498MOL0     H67226  -0.886   6.030   7.538  0.3250  3.9012 -1.7334
  498MOL0     H67227  -0.196   5.816   7.183 -1.7311  0.3856  4.2644
  498MOL0     H67228  -0.159   5.512   7.033 -0.6415  1.8082  1.2696
  498MOL0     H67229  -0.221   5.669   7.000 -0.7844  0.2673 -2.6530
  498MOL0     H67230  -0.070   5.624   6.919  2.8964  2.0898  1.4238
  499MOL0     O67231   6.880   7.724   8.216 -0.1176  1.0408 -0.0351
  499MOL0     C67232   6.831   7.683   8.327 -0.1859 -0.1635  0.7766
  499MOL0     O67233   6.722   7.748   8.389  0.0943 -0.3520 -0.2729
  499MOL0     C67234   6.662   7.852   8.310 -0.4387 -0.0205 -0.0910
  499MOL0     C67235   6.718   7.977   8.299  0.0870 -0.0168 -0.7162
  499MOL0     C67236   6.649   8.075   8.226 -0.1065 -0.7252  0.7802
  499MOL0     C67237   6.525   8.051   8.161  0.2028 -0.6407  0.4251
  499MOL0     O67238   6.445   8.149   8.097 -0.6069  0.0003  0.5170
  499MOL0     C67239   6.502   8.281   8.081 -0.6999 -0.9915  0.8429
  499MOL0     C67240   6.489   8.372   8.197 -0.3853  0.4972  0.4393
  499MOL0     C67241   6.557   8.498   8.178 -0.4850 -0.2234  0.5787
  499MOL0     C67242   6.708   8.489   8.199 -0.5713  0.7466 -0.0595
  499MOL0     C67243   6.763   8.624   8.167 -0.0188 -0.3440  0.3627
  499MOL0     C67244   6.916   8.620   8.146 -0.5802  0.5239  0.8182
  499MOL0     C67245   7.000   8.562   8.260  0.1109  0.2542 -0.1556
  499MOL0     C67246   7.132   8.538   8.218 -0.8689 -0.1075  0.5596
  499MOL0     N67247   7.243   8.525   8.318 -0.7175  0.3357 -0.7501
  499MOL0     C67248   7.363   8.461   8.283  0.0680 -0.0785 -0.5022
  499MOL0     C67249   7.435   8.455   8.400  0.2608 -0.4164 -0.0288
  499MOL0     C67250   7.570   8.399   8.403 -0.1907 -0.6420 -0.8371
  499MOL0     C67251   7.673   8.482   8.338 -0.2619  0.4099 -0.0951
  499MOL0     C67252   7.809   8.411   8.319  0.0903 -0.0355 -1.0245
  499MOL0     C67253   7.868   8.360   8.454 -0.3824  0.3253 -0.2865
  499MOL0     O67254   8.014   8.350   8.457  0.5136  0.0031 -0.1196
  499MOL0     C67255   8.085   8.248   8.397  0.1466 -0.3994 -0.3346
  499MOL0     C67256   8.029   8.130   8.357  0.5019  0.4301  0.5870
  499MOL0     C67257   8.117   8.023   8.314 -0.2145 -0.2716 -0.5183
  499MOL0     C67258   8.256   8.036   8.310  0.1071 -0.9594 -0.2309
  499MOL0     C67259   8.350   7.924   8.266 -0.0785  0.7079 -0.5779
  499MOL0     O67260   8.291   7.793   8.234 -0.0104 -0.3170 -0.1008
  499MOL0     C67261   8.363   7.681   8.215 -1.0087 -0.2912 -0.8986
  499MOL0     C67262   8.435   7.621   8.323 -0.0103 -0.3335 -0.6152
  499MOL0     C67263   8.509   7.501   8.286  0.0092 -0.5402 -0.4749
  499MOL0     C67264   8.511   7.451   8.151 -0.6138  0.1627 -0.6918
  499MOL0     O67265   8.590   7.347   8.107 -0.8072 -0.5254 -0.0980
  499MOL0     C67266   8.613   7.242   8.206  0.2513  0.3790 -0.3504
  499MOL0     C67267   8.701   7.131   8.151 -0.0325  0.5829  0.1258
  499MOL0     C67268   8.847   7.157   8.189 -0.6972 -0.3019 -0.8336
  499MOL0     C67269   8.922   7.031   8.178 -0.1426  0.9246 -0.7995
  499MOL0     C67270   9.073   7.057   8.193 -0.6417 -0.7226 -0.7163
  499MOL0     C67271   9.167   6.939   8.165  0.0622 -1.0374  0.4817
  499MOL0     C67272   9.315   6.990   8.166  0.5483 -0.5307  0.2187
  499MOL0     C67273   9.416   6.908   8.084  0.6325  0.9262  0.8103
  499MOL0    Cl67274   9.576   6.975   8.108  0.0008 -0.4602  0.4538
  499MOL0     C67275   8.450   7.526   8.055  0.1793  0.2266  0.1065
  499MOL0     C67276   8.370   7.629   8.082 -0.2023  0.1489  0.6666
  499MOL0     O67277   8.469   7.941   8.273  0.5778  0.3234  0.0929
  499MOL0     C67278   8.306   8.166   8.329  0.4084 -0.2066  0.0892
  499MOL0     C67279   8.220   8.273   8.373 -0.4885 -0.0285 -0.1575
  499MOL0     N67280   7.351   8.496   8.503 -0.4016  0.1061  0.2847
  499MOL0     N67281   7.234   8.537   8.451 -0.0007 -0.0078 -1.0389
  499MOL0     C67282   6.468   7.929   8.169 -0.1500  0.3997  0.3882
  499MOL0     C67283   6.540   7.826   8.239 -0.4391 -0.0087  0.3552
  499MOL0     C67284   6.893   7.560   8.393 -0.1674 -1.2346 -0.3772
  499MOL0     C67285   6.865   7.547   8.535 -0.1465 -0.3800  0.4481
  499MOL0     C67286   6.899   7.428   8.607 -0.2165  1.1118 -0.4064
  499MOL0     C67287   6.972   7.323   8.543  0.4233 -0.3317 -0.1344
  499MOL0     O67288   7.000   7.198   8.592  0.0164 -0.4116  1.1927
  499MOL0     C67289   6.949   7.164   8.722 -0.0846  0.7485  0.0921
  499MOL0     C67290   7.007   7.029   8.762  0.3976 -0.4902  0.2377
  499MOL0     C67291   7.158   7.026   8.773  0.5284  0.0433 -0.0567
  499MOL0     C67292   7.223   6.990   8.646 -0.3428  0.5855  0.0572
  499MOL0     C67293   7.365   6.974   8.668 -0.2656  0.9469 -0.3661
  499MOL0     C67294   7.479   6.952   8.699 -0.3115  0.3570 -0.4517
  499MOL0     C67295   7.004   7.337   8.404  0.0390  0.2091  0.0347
  499MOL0     C67296   6.965   7.454   8.330 -0.5137  0.9151 -0.1277
  499MOL0     C67297   7.007   7.445   8.184 -0.0554  0.0953 -0.7826
  499MOL0     H67298   6.811   8.000   8.351 -0.0482  0.1997 -0.5668
  499MOL0     H67299   6.686   8.177   8.221 -2.3193  0.1109  0.0779
  499MOL0     H67300   6.605   8.269   8.047 -0.2526  0.9398  1.3837
  499MOL0     H67301   6.444   8.331   8.003 -1.5473  0.6919  2.4677
  499MOL0     H67302   6.524   8.314   8.283  0.7568 -0.7757 -0.8301
  499MOL0     H67303   6.381   8.389   8.199 -1.4379 -4.1022 -2.5717
  499MOL0     H67304   6.522   8.569   8.254  1.6300  1.7456 -0.1535
  499MOL0     H67305   6.525   8.534   8.080  1.6938 -2.2201 -0.9512
  499MOL0     H67306   6.738   8.447   8.295  0.5361 -3.1608 -1.9040
  499MOL0     H67307   6.741   8.416   8.124 -1.9876 -0.6690  0.6313
  499MOL0     H67308   6.711   8.671   8.083 -1.1561  1.4722  2.0187
  499MOL0     H67309   6.732   8.684   8.253 -2.7441 -2.0878  0.7235
  499MOL0     H67310   6.923   8.549   8.063  1.5207  0.6548  0.8287
  499MOL0     H67311   6.958   8.719   8.128  1.1011 -0.5351 -1.5972
  499MOL0     H67312   6.959   8.474   8.310 -0.2363 -0.0405 -0.9417
  499MOL0     H67313   6.998   8.646   8.329 -1.1809 -0.5813  0.8679
  499MOL0     H67314   7.134   8.446   8.157  0.6401 -0.5648  1.2573
  499MOL0     H67315   7.154   8.614   8.142 -2.0694 -0.3507 -0.0580
  499MOL0     H67316   7.395   8.414   8.190 -0.7240 -1.1473 -0.2546
  499MOL0     H67317   7.590   8.378   8.508 -3.5863  2.0588  0.5291
  499MOL0     H67318   7.553   8.304   8.351  0.2499 -3.0437  3.0294
  499MOL0     H67319   7.634   8.501   8.238  0.3994 -3.4377 -1.2553
  499MOL0     H67320   7.681   8.582   8.382 -1.6574  0.2131  0.6539
  499MOL0     H67321   7.884   8.479   8.279  1.1249 -0.3462  0.3120
  499MOL0     H67322   7.780   8.335   8.246 -4.0863  2.1915 -2.0315
  499MOL0     H67323   7.825   8.262   8.476 -4.2413  1.2727 -2.5635
  499MOL0     H67324   7.826   8.427   8.530 -0.4697 -0.4361  0.3428
  499MOL0     H67325   7.923   8.107   8.361  0.8762 -1.4288  0.7868
  499MOL0     H67326   8.079   7.924   8.290  1.8453 -1.4388  0.6841
  499MOL0     H67327   8.436   7.662   8.423  1.6463 -1.4012 -0.1445
  499MOL0     H67328   8.567   7.451   8.363  3.2173  1.7456 -1.2151
  499MOL0     H67329   8.654   7.269   8.304 -1.2620 -3.9530  1.7493
  499MOL0     H67330   8.512   7.203   8.217 -1.2743  3.8278 -1.0091
  499MOL0     H67331   8.665   7.035   8.191 -2.6312  1.8787  1.1370
  499MOL0     H67332   8.688   7.137   8.042 -1.0809 -2.0679  0.0173
  499MOL0     H67333   8.890   7.238   8.129  2.3387 -0.2400  1.1852
  499MOL0     H67334   8.850   7.179   8.296 -0.7070 -1.5395 -0.5736
  499MOL0     H67335   8.887   6.969   8.095  3.0953 -0.2079 -1.4543
  499MOL0     H67336   8.898   6.961   8.259  1.8898 -1.4852 -2.1521
  499MOL0     H67337   9.098   7.106   8.287 -2.0462 -1.1353 -0.1028
  499MOL0     H67338   9.093   7.133   8.118  2.8792  0.2700  1.0299
  499MOL0     H67339   9.154   6.861   8.240 -0.5642 -0.5928  0.8528
  499MOL0     H67340   9.135   6.901   8.068 -4.8333 -2.1593  2.2208
  499MOL0     H67341   9.361   7.004   8.264 -0.2560  2.1920  0.2943
  499MOL0     H67342   9.308   7.094   8.133 -1.1835 -0.4242  0.8301
  499MOL0     H67343   9.414   6.809   8.131 -2.1492  1.2032  1.4517
  499MOL0     H67344   9.380   6.906   7.981 -2.6597  1.0565  1.8455
  499MOL0     H67345   8.448   7.478   7.958 -3.8899 -0.2796  0.2431
  499MOL0     H67346   8.321   7.678   7.998  2.0480 -0.7059 -1.2482
  499MOL0     H67347   8.411   8.191   8.315  0.6844 -1.6307 -0.5708
  499MOL0     H67348   8.258   8.368   8.410  0.3815 -0.4413  0.0235
  499MOL0     H67349   6.377   7.897   8.120  0.3049 -1.4328  0.6327
  499MOL0     H67350   6.500   7.725   8.248 -2.2147  0.1541 -3.4464
  499MOL0     H67351   6.806   7.623   8.585 -1.9474  0.0816 -2.2374
  499MOL0     H67352   6.873   7.429   8.712  3.0494  1.1010  0.5295
  499MOL0     H67353   6.842   7.151   8.710  0.0470 -0.2259 -0.0779
  499MOL0     H67354   6.958   7.244   8.796 -3.7507  1.8889 -0.4962
  499MOL0     H67355   6.966   6.962   8.686 -0.5573  1.0043 -0.6153
  499MOL0     H67356   6.963   6.991   8.856 -1.8977 -0.1596 -0.6302
  499MOL0     H67357   7.179   6.950   8.849 -2.1909 -0.9266 -0.1803
  499MOL0     H67358   7.198   7.123   8.804  3.8866 -0.6567 -1.6918
  499MOL0     H67359   7.162   6.913   8.598  0.7608  0.2631 -0.8924
  499MOL0     H67360   7.221   7.071   8.572 -3.6082 -0.9639 -1.7600
  499MOL0     H67361   7.577   6.925   8.732 -1.4188 -0.7371  2.2656
  499MOL0     H67362   7.064   7.253   8.368  0.2163 -0.9934  2.8092
  499MOL0     H67363   6.923   7.470   8.119 -1.3288 -0.2592  0.6873
  499MOL0     H67364   7.090   7.515   8.171  1.6350 -1.8211 -0.7812
  499MOL0     H67365   7.035   7.342   8.162  1.9719  0.3065  0.5142
  500MOL0     O67366   3.897   4.908   2.539 -1.2181  0.6711 -0.2221
  500MOL0     C67367   3.899   4.906   2.419 -0.1819  0.1719  0.0220
  500MOL0     O67368   3.997   4.848   2.339  0.6918 -0.5040  1.1264
  500MOL0     C67369   4.119   4.798   2.382  0.4612 -0.2590 -0.1598
  500MOL0     C67370   4.195   4.730   2.279  0.9087 -0.1375 -0.7117
  500MOL0     C67371   4.314   4.671   2.313 -0.8384 -0.3718 -0.1510
  500MOL0     C67372   4.361   4.661   2.446 -0.3873  0.0107  0.1037
  500MOL0     O67373   4.471   4.588   2.489 -0.1923 -0.3203 -0.3134
  500MOL0     C67374   4.551   4.521   2.391  0.1901  0.1556 -0.6310
  500MOL0     C67375   4.650   4.422   2.459 -1.5132 -0.2139  0.3450
  500MOL0     C67376   4.745   4.362   2.352  0.6000  0.6154 -0.3899
  500MOL0     C67377   4.851   4.272   2.404  0.7604 -0.0134  0.2304
  500MOL0     C67378   4.931   4.197   2.300 -0.3993  0.3838  0.2476
  500MOL0     C67379   5.026   4.098   2.356  0.1259  0.0047 -0.0302
  500MOL0     C67380   5.118   4.021   2.263  0.3778 -0.3687  0.1515
  500MOL0     C67381   5.216   4.106   2.190 -0.6114  0.2983  0.3527
  500MOL0     N67382   5.354   4.042   2.192  0.7460  0.4838  0.1421
  500MOL0     C67383   5.403   3.976   2.087 -0.1174 -0.4484 -0.6384
  500MOL0     C67384   5.531   3.940   2.121 -0.1222 -1.6284  0.4590
  500MOL0     C67385   5.618   3.846   2.040 -0.9663  0.1959 -0.2414
  500MOL0     C67386   5.660   3.723   2.117  0.7742  0.5874  0.0327
  500MOL0     C67387   5.742   3.625   2.037 -0.2849  0.1328  0.5920
  500MOL0     C67388   5.736   3.478   2.086  0.0748  0.5138 -0.5905
  500MOL0     O67389   5.818   3.392   2.007 -0.2377 -0.3969 -0.1163
  500MOL0     C67390   5.952   3.385   2.045 -0.3139  0.2755  0.0757
  500MOL0     C67391   6.017   3.482   2.127  0.1285 -0.4531 -0.2116
  500MOL0     C67392   6.153   3.473   2.163 -0.0868  0.7134  0.1996
  500MOL0     C67393   6.233   3.367   2.115 -0.4252 -0.7065 -0.3736
  500MOL0     C67394   6.370   3.355   2.158  1.0003  0.1256 -0.2420
  500MOL0     O67395   6.437   3.469   2.169  0.4013  0.4139 -0.5043
  500MOL0     C67396   6.574   3.472   2.167 -0.5603  0.2085  0.2584
  500MOL0     C67397   6.644   3.539   2.067  0.4488 -0.8497 -1.0942
  500MOL0     C67398   6.784   3.549   2.065  0.4506  0.4296 -0.1826
  500MOL0     C67399   6.856   3.480   2.163  0.3291  0.4260  0.0669
  500MOL0     O67400   6.992   3.471   2.151  0.0768  0.5145  0.0066
  500MOL0     C67401   7.060   3.516   2.270 -0.3393  0.1804  0.2996
  500MOL0     C67402   7.207   3.458   2.278  0.2599 -0.1583 -0.0551
  500MOL0     C67403   7.195   3.303   2.310 -0.1445  0.4339  0.3764
  500MOL0     C67404   7.335   3.249   2.321  0.5079  0.0799 -0.3842
  500MOL0     C67405   7.318   3.108   2.371  0.0774 -0.0697  0.2689
  500MOL0     C67406   7.448   3.025   2.399  0.2008 -0.4589  0.8458
  500MOL0     C67407   7.529   2.988   2.266  0.0434 -0.3110  0.5949
  500MOL0     C67408   7.676   2.985   2.292  0.3592 -0.1405 -0.1780
  500MOL0    Cl67409   7.702   2.851   2.406  0.5133 -0.1730 -0.1492
  500MOL0     C67410   6.785   3.410   2.265 -0.0532 -0.1502 -0.5510
  500MOL0     C67411   6.649   3.402   2.268  0.7088 -0.0608  0.2524
  500MOL0     O67412   6.412   3.243   2.152  0.3757 -0.0771 -0.2147
  500MOL0     C67413   6.164   3.271   2.034 -0.2879  0.5197 -0.3559
  500MOL0     C67414   6.023   3.276   2.002 -0.1761 -0.1762  0.1227
  500MOL0     N67415   5.556   3.985   2.253  0.5185  0.0351 -0.7679
  500MOL0     N67416   5.450   4.053   2.290  0.1906 -0.2788 -0.3237
  500MOL0     C67417   4.281   4.726   2.545  0.1140 -1.5653 -0.6801
  500MOL0     C67418   4.166   4.796   2.511 -0.4595  0.3518 -0.3148
  500MOL0     C67419   3.768   4.956   2.351 -0.3531 -0.3699  0.8082
  500MOL0     C67420   3.743   4.911   2.212 -0.4250 -0.6711  0.5611
  500MOL0     C67421   3.639   4.958   2.143 -0.2771 -0.3245 -0.7730
  500MOL0     C67422   3.545   5.046   2.198 -0.0665  0.5167  0.8026
  500MOL0     O67423   3.434   5.074   2.119  0.1215 -0.2490  0.2348
  500MOL0     C67424   3.334   5.175   2.162  0.2307  0.3841  0.1690
  500MOL0     C67425   3.238   5.219   2.051  0.0144 -1.1595  0.0018
  500MOL0     C67426   3.134   5.102   2.031 -0.7557 -0.2634  0.5907
  500MOL0     C67427   3.044   5.133   1.912  0.0554  0.8140 -0.0769
  500MOL0     C67428   2.951   5.018   1.891 -1.0837  0.0678 -0.0754
  500MOL0     C67429   2.887   4.911   1.871  0.4353 -0.3715 -0.6799
  500MOL0     C67430   3.564   5.095   2.323 -0.1464 -0.1407 -0.9421
  500MOL0     C67431   3.678   5.056   2.402 -1.1148  0.3853  0.4089
  500MOL0     C67432   3.690   5.116   2.541  0.1067 -0.0532 -0.6078
  500MOL0     H67433   4.156   4.736   2.178 -3.1656  2.0863  0.7807
  500MOL0     H67434   4.374   4.611   2.244  1.8634  1.6540  0.2819
  500MOL0     H67435   4.475   4.465   2.336  0.2524 -0.4999 -0.0647
  500MOL0     H67436   4.589   4.590   2.315  1.1927 -0.5328 -0.7844
  500MOL0     H67437   4.592   4.346   2.512 -0.5312 -0.7054  0.7440
  500MOL0     H67438   4.715   4.477   2.528 -0.9160  0.5799 -0.8213
  500MOL0     H67439   4.796   4.446   2.304  1.1646 -0.2884 -1.3991
  500MOL0     H67440   4.697   4.305   2.272  2.8345  0.5532 -1.7493
  500MOL0     H67441   4.915   4.334   2.468  1.1757 -0.0190 -0.1726
  500MOL0     H67442   4.806   4.195   2.467  0.4937  0.3415  0.4803
  500MOL0     H67443   4.868   4.143   2.229 -2.0012  2.8723 -0.3817
  500MOL0     H67444   4.982   4.272   2.239 -1.4820  1.0932  0.1761
  500MOL0     H67445   5.089   4.144   2.433 -0.6507  0.0151  0.6125
  500MOL0     H67446   4.965   4.024   2.409  1.4483  1.0143  3.1453
  500MOL0     H67447   5.053   3.964   2.196  1.6451 -0.7024 -0.8442
  500MOL0     H67448   5.182   3.956   2.324  1.3012  0.3011 -0.0776
  500MOL0     H67449   5.181   4.127   2.089  0.5796  1.4680  0.1516
  500MOL0     H67450   5.222   4.200   2.246 -1.9788 -0.4414  1.8308
  500MOL0     H67451   5.359   3.969   1.988  2.1337  1.6592 -1.9037
  500MOL0     H67452   5.566   3.812   1.950  0.5327 -0.7988 -0.7828
  500MOL0     H67453   5.706   3.895   1.998 -0.9952  2.4862  2.1197
  500MOL0     H67454   5.718   3.759   2.202  1.2871  0.6604 -0.3440
  500MOL0     H67455   5.568   3.673   2.148  0.5484 -0.9786 -2.7903
  500MOL0     H67456   5.839   3.672   2.021 -0.4393  0.7468  1.4108
  500MOL0     H67457   5.704   3.624   1.934  2.3522 -1.1250 -0.4753
  500MOL0     H67458   5.631   3.446   2.081  0.1307  0.0431  0.7520
  500MOL0     H67459   5.761   3.475   2.193  0.2663 -0.3509 -0.6575
  500MOL0     H67460   5.972   3.576   2.157  1.1682 -0.0650  0.1690
  500MOL0     H67461   6.192   3.548   2.231  4.3798 -2.4821  1.6876
  500MOL0     H67462   6.591   3.577   1.980  0.0585 -1.4393 -1.1182
  500MOL0     H67463   6.839   3.596   1.985 -0.2154 -0.0545 -0.9396
  500MOL0     H67464   7.056   3.625   2.280  0.1250  0.4973 -2.2646
  500MOL0     H67465   7.010   3.483   2.361  1.4034 -0.9120  0.8990
  500MOL0     H67466   7.266   3.472   2.187  0.5086  2.1771  0.4144
  500MOL0     H67467   7.265   3.505   2.358  0.1879  1.4294 -0.8864
  500MOL0     H67468   7.132   3.298   2.400  0.0772 -2.0741  0.4641
  500MOL0     H67469   7.140   3.259   2.226  0.4768 -0.2301  0.3108
  500MOL0     H67470   7.379   3.322   2.389 -2.4367  2.2964 -0.6571
  500MOL0     H67471   7.386   3.250   2.224 -3.0623 -1.2323 -2.4499
  500MOL0     H67472   7.262   3.052   2.294  0.5187 -2.5261  1.6403
  500MOL0     H67473   7.246   3.105   2.453  1.2185  0.2531  1.3143
  500MOL0     H67474   7.509   3.080   2.472 -0.7164  1.5889  0.1202
  500MOL0     H67475   7.412   2.934   2.448  0.0877  0.4874  2.5734
  500MOL0     H67476   7.517   3.068   2.192 -1.4155  1.1521  2.3139
  500MOL0     H67477   7.493   2.897   2.215  1.1586 -0.4803  0.0793
  500MOL0     H67478   7.735   2.966   2.202  2.4013 -2.1618  1.5008
  500MOL0     H67479   7.718   3.076   2.336  2.4297 -1.7116  1.2624
  500MOL0     H67480   6.843   3.350   2.334 -1.3390 -0.2212  0.4994
  500MOL0     H67481   6.579   3.363   2.342 -1.9377 -0.0007 -2.0482
  500MOL0     H67482   6.215   3.182   1.999 -2.3385 -1.2406  0.9147
  500MOL0     H67483   5.972   3.196   1.948 -0.2654  1.2307 -2.0048
  500MOL0     H67484   4.314   4.719   2.648 -0.1536 -1.2587 -0.5726
  500MOL0     H67485   4.109   4.833   2.596 -0.3909 -1.0029  0.3378
  500MOL0     H67486   3.813   4.843   2.164  0.1108  0.8214 -0.9147
  500MOL0     H67487   3.622   4.924   2.041 -1.6146  1.0857 -1.0644
  500MOL0     H67488   3.396   5.254   2.204  1.7526 -1.7860  2.2992
  500MOL0     H67489   3.280   5.138   2.250  3.3104 -0.2966  1.8995
  500MOL0     H67490   3.294   5.238   1.959  0.9651  0.2719  0.8362
  500MOL0     H67491   3.189   5.309   2.089 -1.5943 -2.1385  0.3523
  500MOL0     H67492   3.071   5.109   2.121  0.2538  0.8372  1.2495
  500MOL0     H67493   3.177   5.003   2.020  1.1057  0.8085 -3.3964
  500MOL0     H67494   2.991   5.228   1.916  2.4361  2.2047  0.0882
  500MOL0     H67495   3.110   5.139   1.825  0.7645 -1.5076  0.2071
  500MOL0     H67496   2.835   4.824   1.836  1.4324 -0.4634 -2.0296
  500MOL0     H67497   3.490   5.156   2.373 -0.1809 -0.5959 -0.4315
  500MOL0     H67498   3.598   5.156   2.586 -0.2428 -1.6853  0.2160
  500MOL0     H67499   3.726   5.053   2.623  0.5082  0.7001 -0.2015
  500MOL0     H67500   3.751   5.206   2.530 -0.0128  0.1048 -0.0203
  501MOL0     O67501   7.317   9.520   5.998  0.2267  1.1642 -0.8092
  501MOL0     C67502   7.291   9.414   5.941  0.7823 -0.9670 -0.1851
  501MOL0     O67503   7.392   9.339   5.880  0.1203  0.5279  0.1776
  501MOL0     C67504   7.529   9.360   5.895  0.1930 -0.4619  0.1385
  501MOL0     C67505   7.601   9.247   5.899 -0.4729  0.5331 -0.2884
  501MOL0     C67506   7.741   9.255   5.914  0.5658  0.3463 -0.1064
  501MOL0     C67507   7.808   9.375   5.929  1.0336 -0.9646  0.2973
  501MOL0     O67508   7.939   9.377   5.953 -0.7429 -0.1553  0.3464
  501MOL0     C67509   8.016   9.419   5.847  0.0287  0.0114  0.1570
  501MOL0     C67510   8.046   9.570   5.855 -0.0290 -0.6088  0.6751
  501MOL0     C67511   8.117   9.611   5.983  0.2734  0.7707 -0.7707
  501MOL0     C67512   8.249   9.533   6.000 -0.0312  0.1961 -0.2373
  501MOL0     C67513   8.318   9.587   6.123 -0.1916  0.3382  0.3155
  501MOL0     C67514   8.464   9.534   6.137 -0.0784  0.4575  0.2430
  501MOL0     C67515   8.554   9.602   6.237  0.7046 -0.7854  0.0392
  501MOL0     C67516   8.703   9.582   6.206  0.2295  0.0756 -0.2617
  501MOL0     N67517   8.795   9.651   6.293 -0.3339  0.1066 -0.0754
  501MOL0     C67518   8.760   9.756   6.377 -0.1011  0.1862  0.0131
  501MOL0     C67519   8.865   9.756   6.471  0.5318 -0.0400  0.5922
  501MOL0     C67520   8.873   9.838   6.600  0.0945  0.6829 -0.1128
  501MOL0     C67521   9.009   9.915   6.607  0.2074  0.3829 -0.3098
  501MOL0     C67522   9.035   9.996   6.738 -0.1202 -0.2216 -0.0388
  501MOL0     C67523   9.179  10.008   6.769 -0.0356 -0.0012  0.0397
  501MOL0     O67524   9.250  10.088   6.679 -0.1770  0.4695 -0.5153
  501MOL0     C67525   9.384  10.093   6.695 -0.0266  0.1451  0.3601
  501MOL0     C67526   9.447  10.217   6.658  0.6475  0.6338 -0.3864
  501MOL0     C67527   9.585  10.242   6.660  0.2609  0.1982  0.3512
  501MOL0     C67528   9.671  10.146   6.717 -0.7569 -0.2289 -0.7706
  501MOL0     C67529   9.818  10.166   6.730 -0.4067 -0.4579 -1.4150
  501MOL0     O67530   9.874  10.107   6.839 -0.9142  0.1563 -0.0372
  501MOL0     C67531  10.015  10.114   6.863 -0.1575  0.1177 -0.5864
  501MOL0     C67532  10.090  10.001   6.904  1.6774  0.2458 -0.7895
  501MOL0     C67533  10.225  10.004   6.914  0.8679  0.4226 -0.5919
  501MOL0     C67534  10.300  10.120   6.905  0.9000 -0.0115 -0.0100
  501MOL0     O67535  10.432  10.120   6.935 -0.4182  0.6578  0.0484
  501MOL0     C67536  10.525  10.212   6.881  0.1237  1.0229  0.2061
  501MOL0     C67537  10.664  10.164   6.916 -0.1694  0.2135 -0.0523
  501MOL0     C67538  10.704  10.017   6.888 -0.4348 -0.0031  0.4633
  501MOL0     C67539  10.699   9.998   6.734 -0.6744 -0.7735 -0.7247
  501MOL0     C67540  10.737   9.860   6.688  0.5339 -0.1759  0.4294
  501MOL0     C67541  10.888   9.831   6.699 -0.7805  0.8082  0.1123
  501MOL0     C67542  10.916   9.687   6.641  1.0378 -0.2934 -0.9120
  501MOL0     C67543  11.058   9.633   6.662 -0.3641  0.0428  0.4230
  501MOL0    Cl67544  11.171   9.692   6.545  0.4904 -0.3486  0.1085
  501MOL0     C67545  10.230  10.239   6.877 -0.5792  0.6978 -0.0001
  501MOL0     C67546  10.088  10.234   6.859  0.3515 -0.7532 -0.1581
  501MOL0     O67547   9.881  10.229   6.648 -0.0883 -0.3945  0.2762
  501MOL0     C67548   9.613  10.023   6.763 -0.9988  0.0057  0.7627
  501MOL0     C67549   9.476   9.997   6.750  0.4637 -0.5251 -0.4813
  501MOL0     N67550   8.962   9.656   6.436 -0.3817 -0.0710  0.4150
  501MOL0     N67551   8.914   9.601   6.330 -0.3268  0.2645 -0.2997
  501MOL0     C67552   7.730   9.492   5.939  1.1256 -1.2267  0.0072
  501MOL0     C67553   7.585   9.487   5.917 -0.5906  0.0969 -1.2931
  501MOL0     C67554   7.151   9.356   5.940  0.0898  0.1801 -0.0955
  501MOL0     C67555   7.129   9.228   5.896  0.1217  0.1488 -0.2409
  501MOL0     C67556   7.003   9.177   5.884 -0.2053  0.2113  0.3083
  501MOL0     C67557   6.889   9.249   5.913  0.4402 -0.1690 -0.4817
  501MOL0     O67558   6.759   9.209   5.901  0.7735  0.2873 -0.2893
  501MOL0     C67559   6.737   9.068   5.894 -0.0519  0.2929 -0.2124
  501MOL0     C67560   6.588   9.025   5.912  0.0092 -0.0131  0.0350
  501MOL0     C67561   6.579   8.865   5.899  0.1138 -0.0722  0.1340
  501MOL0     C67562   6.590   8.804   5.761 -0.6093 -0.2297  0.2680
  501MOL0     C67563   6.574   8.662   5.769 -0.1038  0.2141  0.6358
  501MOL0     C67564   6.572   8.543   5.781 -0.0490  0.5272  0.2230
  501MOL0     C67565   6.912   9.380   5.956  0.4001 -0.5911 -1.6101
  501MOL0     C67566   7.035   9.436   5.968 -0.1587  0.5890 -0.1168
  501MOL0     C67567   7.048   9.577   6.021  0.5265  0.2384 -0.5311
  501MOL0     H67568   7.563   9.146   5.887  1.8831 -0.7889  2.2031
  501MOL0     H67569   7.805   9.168   5.905 -0.3778 -0.5197  1.1199
  501MOL0     H67570   8.105   9.355   5.850 -0.9705 -1.3892  1.5432
  501MOL0     H67571   7.969   9.406   5.749  1.1136 -0.9963 -0.2631
  501MOL0     H67572   7.951   9.619   5.832  1.1003  0.4824 -2.0984
  501MOL0     H67573   8.102   9.594   5.764 -1.7781 -0.3074 -0.3614
  501MOL0     H67574   8.049   9.600   6.067  0.9361 -0.3451 -0.3594
  501MOL0     H67575   8.142   9.717   5.970 -0.0407  0.8967 -0.3595
  501MOL0     H67576   8.227   9.427   6.020 -0.3880  0.3729  0.3564
  501MOL0     H67577   8.319   9.544   5.917  0.2464  0.8475  0.0778
  501MOL0     H67578   8.336   9.693   6.102  1.3873  0.0662  0.1687
  501MOL0     H67579   8.265   9.569   6.217 -0.3885 -1.3913 -0.0868
  501MOL0     H67580   8.461   9.427   6.159  2.6581  0.1524 -0.5850
  501MOL0     H67581   8.507   9.536   6.037 -1.4397  0.4577 -0.3722
  501MOL0     H67582   8.519   9.593   6.340  0.3171 -1.6347 -0.1619
  501MOL0     H67583   8.541   9.710   6.222 -0.8695 -0.1265  4.6558
  501MOL0     H67584   8.726   9.475   6.206 -0.3397 -0.0542 -1.1610
  501MOL0     H67585   8.705   9.623   6.105 -1.7376 -0.0381 -0.3729
  501MOL0     H67586   8.672   9.819   6.375  0.6031  1.1852 -0.8918
  501MOL0     H67587   8.785   9.901   6.611 -0.1574  0.2949  0.1207
  501MOL0     H67588   8.877   9.759   6.676 -0.0354  1.3993  0.6479
  501MOL0     H67589   9.094   9.849   6.586  1.9905  1.5425  2.6383
  501MOL0     H67590   9.015   9.994   6.531  0.5400  0.2245 -0.4534
  501MOL0     H67591   9.000   9.932   6.820 -0.0924 -1.4932 -1.0022
  501MOL0     H67592   8.983  10.093   6.736 -0.6653 -0.5201 -0.7257
  501MOL0     H67593   9.216   9.905   6.756  1.4653  0.4940  0.2506
  501MOL0     H67594   9.192  10.034   6.875  1.9058  1.9693 -0.6337
  501MOL0     H67595   9.383  10.296   6.622 -3.0552 -2.8172 -2.0845
  501MOL0     H67596   9.618  10.339   6.627 -1.2554  0.3632 -0.7822
  501MOL0     H67597  10.046   9.905   6.925  2.5493 -0.1424 -0.6725
  501MOL0     H67598  10.271   9.907   6.931 -1.9965 -1.2132 -1.4021
  501MOL0     H67599  10.516  10.208   6.772  0.9075  0.4956  0.1517
  501MOL0     H67600  10.516  10.309   6.929  2.0263 -0.3310  3.6617
  501MOL0     H67601  10.741  10.224   6.866  0.9067  0.2247  1.5467
  501MOL0     H67602  10.695  10.193   7.016  1.7740 -1.6688 -0.0207
  501MOL0     H67603  10.797   9.978   6.929 -0.3900  1.1134  1.4838
  501MOL0     H67604  10.620   9.954   6.920 -0.4328 -1.6305 -2.4343
  501MOL0     H67605  10.768  10.069   6.687 -0.4951 -1.0034 -0.8062
  501MOL0     H67606  10.598  10.021   6.699 -0.7838  0.6444  0.4112
  501MOL0     H67607  10.707   9.852   6.584  0.5876  2.5929  0.1379
  501MOL0     H67608  10.687   9.781   6.746  0.7293  0.0222  0.8762
  501MOL0     H67609  10.944   9.905   6.640  1.9042  0.6642  2.2472
  501MOL0     H67610  10.914   9.823   6.805  2.7063 -1.6533 -0.7170
  501MOL0     H67611  10.891   9.688   6.535  0.9840  1.4725 -0.9028
  501MOL0     H67612  10.849   9.622   6.698 -0.3224  1.6591 -0.2039
  501MOL0     H67613  11.095   9.650   6.764  0.9222  1.6771 -0.2616
  501MOL0     H67614  11.062   9.525   6.654  0.3673 -0.1973  3.0611
  501MOL0     H67615  10.283  10.333   6.871  0.4798  0.2591  1.7988
  501MOL0     H67616  10.048  10.333   6.839  1.9621 -0.1382 -0.4647
  501MOL0     H67617   9.680   9.943   6.793  0.5999  0.5092 -1.2275
  501MOL0     H67618   9.448   9.892   6.752  0.5902 -0.5632 -0.6438
  501MOL0     H67619   7.775   9.587   5.964 -1.4356  0.1153 -0.0787
  501MOL0     H67620   7.526   9.577   5.925 -3.1543 -1.4226 -2.0936
  501MOL0     H67621   7.209   9.158   5.874 -0.6531 -0.7345 -0.2982
  501MOL0     H67622   6.990   9.073   5.855 -1.6251  0.4692 -0.0757
  501MOL0     H67623   6.792   9.015   5.973  0.3268 -0.0116 -0.6757
  501MOL0     H67624   6.778   9.034   5.799 -0.4156 -0.0324 -0.2519
  501MOL0     H67625   6.515   9.077   5.849 -1.9617 -0.4721  1.8127
  501MOL0     H67626   6.551   9.053   6.011 -0.9751 -1.8681  0.2440
  501MOL0     H67627   6.482   8.847   5.945  0.6709  0.6963  1.6853
  501MOL0     H67628   6.655   8.815   5.960  0.1900 -1.5563 -1.1276
  501MOL0     H67629   6.520   8.856   5.695 -0.9500  1.0441  1.5928
  501MOL0     H67630   6.692   8.817   5.723 -0.9575 -0.0210 -0.6288
  501MOL0     H67631   6.567   8.436   5.791 -0.8312  0.6883  1.7868
  501MOL0     H67632   6.823   9.438   5.977  0.4632 -1.0086 -0.1186
  501MOL0     H67633   7.117   9.582   6.105  2.5209  2.9822 -2.1692
  501MOL0     H67634   7.096   9.638   5.944  1.7590 -1.0426 -0.8336
  501MOL0     H67635   6.951   9.607   6.062  1.1675  0.5399  0.7936
  502MOL0     O67636   5.195   5.281   7.849 -0.0709  0.1920 -0.9461
  502MOL0     C67637   5.119   5.367   7.883  0.7419  0.6120  0.2804
  502MOL0     O67638   5.145   5.497   7.893  0.3932 -0.4246  0.4874
  502MOL0     C67639   5.267   5.544   7.859 -0.2564 -0.5667 -0.2977
  502MOL0     C67640   5.340   5.503   7.748 -0.4737  0.2549 -0.5785
  502MOL0     C67641   5.468   5.567   7.720 -1.0252  1.5257  0.1245
  502MOL0     C67642   5.525   5.658   7.807  0.6550 -0.0177  0.0036
  502MOL0     O67643   5.648   5.702   7.769  0.6569 -0.8214  0.5590
  502MOL0     C67644   5.698   5.813   7.848 -0.0329  0.9765 -0.1407
  502MOL0     C67645   5.844   5.836   7.796 -0.1707 -0.1654 -0.1646
  502MOL0     C67646   5.918   5.923   7.894  0.0687 -0.7294  1.0712
  502MOL0     C67647   5.845   6.057   7.921  0.0441 -0.0760  0.1596
  502MOL0     C67648   5.942   6.135   8.011 -0.3062 -0.0571 -0.2713
  502MOL0     C67649   5.902   6.284   8.044  0.1230 -0.2622  0.6861
  502MOL0     C67650   6.011   6.361   8.125  0.5753 -0.2062  1.1967
  502MOL0     C67651   6.142   6.383   8.045 -0.5008  0.2446  0.4645
  502MOL0     N67652   6.119   6.468   7.931  0.1143 -0.3548 -0.0324
  502MOL0     C67653   6.056   6.597   7.929  0.0006  0.1244 -0.7976
  502MOL0     C67654   6.029   6.625   7.794 -0.8603  0.4606  0.7017
  502MOL0     C67655   5.963   6.747   7.745  0.6969  0.0147  0.5182
  502MOL0     C67656   5.835   6.720   7.657  0.1371 -0.0334 -0.2500
  502MOL0     C67657   5.864   6.651   7.517 -0.4007  0.4338  1.4014
  502MOL0     C67658   5.729   6.631   7.442 -1.2001  0.1887 -0.4944
  502MOL0     O67659   5.655   6.547   7.527 -0.7611 -0.9492 -0.0900
  502MOL0     C67660   5.539   6.502   7.471  0.2324 -0.3690 -0.0878
  502MOL0     C67661   5.467   6.428   7.557 -0.5065 -0.4838 -0.9228
  502MOL0     C67662   5.345   6.375   7.528 -0.1668  0.0792  0.4302
  502MOL0     C67663   5.295   6.385   7.395  0.4503 -0.4498 -0.8132
  502MOL0     C67664   5.165   6.314   7.363 -0.5346 -0.3482 -0.0026
  502MOL0     O67665   5.098   6.254   7.467  0.9524 -0.3183  0.0636
  502MOL0     C67666   4.977   6.199   7.440 -0.2999  0.3079  0.0774
  502MOL0     C67667   4.936   6.108   7.341 -0.6395  0.0692 -0.1309
  502MOL0     C67668   4.806   6.055   7.331  0.2823  0.4546  0.4898
  502MOL0     C67669   4.711   6.092   7.425 -0.7785  0.5821 -0.8233
  502MOL0     O67670   4.596   6.016   7.401  1.0422  0.0838 -0.6261
  502MOL0     C67671   4.480   6.036   7.482  0.2278 -0.3617  0.0392
  502MOL0     C67672   4.353   6.025   7.397 -0.0180 -0.3579  0.3591
  502MOL0     C67673   4.221   6.024   7.473  0.2225  0.0463 -0.4890
  502MOL0     C67674   4.207   5.969   7.611  0.8715  0.4710 -0.3025
  502MOL0     C67675   4.056   5.970   7.654 -0.4491  0.5231  0.4630
  502MOL0     C67676   4.038   5.890   7.790 -0.2481  0.0697 -0.1069
  502MOL0     C67677   4.028   5.740   7.781  0.5061  0.1582  0.4532
  502MOL0     C67678   3.919   5.664   7.856  0.1477 -0.0376 -0.4574
  502MOL0    Cl67679   3.925   5.712   8.036 -0.4527  0.0115  0.4981
  502MOL0     C67680   4.754   6.175   7.527 -1.1950  0.7497  0.0534
  502MOL0     C67681   4.879   6.229   7.535  0.0687  0.1639 -0.9324
  502MOL0     O67682   5.126   6.333   7.247  0.0329 -0.7750 -0.2349
  502MOL0     C67683   5.364   6.464   7.312  0.5019  0.1621 -0.3982
  502MOL0     C67684   5.483   6.531   7.353 -0.3152 -0.0823  0.5299
  502MOL0     N67685   6.070   6.516   7.722  0.2993  0.4253 -0.5757
  502MOL0     N67686   6.125   6.420   7.799 -0.6014 -0.3652  0.5782
  502MOL0     C67687   5.449   5.699   7.920  0.3358  0.7757 -0.5267
  502MOL0     C67688   5.325   5.641   7.946 -0.2136  0.1719 -0.3523
  502MOL0     C67689   4.977   5.319   7.929 -0.3518  0.8357  0.6812
  502MOL0     C67690   4.972   5.176   7.970 -0.3163 -0.6413  0.3356
  502MOL0     C67691   4.852   5.120   8.008  0.2701 -0.2927  0.0140
  502MOL0     C67692   4.729   5.189   8.009 -0.0160  0.6149  1.2173
  502MOL0     O67693   4.622   5.126   8.071  0.2710 -0.4965 -0.1048
  502MOL0     C67694   4.485   5.182   8.053  0.1921  0.0952  0.6486
  502MOL0     C67695   4.397   5.070   8.095  0.2702  0.2697  0.1513
  502MOL0     C67696   4.316   5.094   8.223  0.7341  0.8731  0.4253
  502MOL0     C67697   4.189   5.015   8.218  0.2639 -0.2282  0.3712
  502MOL0     C67698   4.129   5.002   8.352 -0.6703 -0.9273 -0.3861
  502MOL0     C67699   4.094   4.985   8.470  0.1571  0.2989 -0.5108
  502MOL0     C67700   4.731   5.317   7.959  0.1489 -0.1829  0.5124
  502MOL0     C67701   4.852   5.386   7.922 -0.0165 -0.1906  0.4693
  502MOL0     C67702   4.847   5.530   7.876  0.1090  0.9762  1.3507
  502MOL0     H67703   5.296   5.421   7.692 -3.6017 -0.3082  2.3538
  502MOL0     H67704   5.516   5.543   7.626 -1.8392 -2.2678  0.5156
  502MOL0     H67705   5.634   5.902   7.843 -0.5361  0.6439  0.2582
  502MOL0     H67706   5.708   5.790   7.954  2.3266 -1.6292 -0.8183
  502MOL0     H67707   5.851   5.871   7.693  2.0812  2.0545  0.6343
  502MOL0     H67708   5.896   5.739   7.791 -0.0241 -0.1589  0.9849
  502MOL0     H67709   6.011   5.945   7.841  0.3272  0.0974  1.8488
  502MOL0     H67710   5.941   5.874   7.989  2.1144 -0.6038  0.6836
  502MOL0     H67711   5.818   6.115   7.832 -0.4032  1.5232  1.2937
  502MOL0     H67712   5.750   6.034   7.969 -0.7573 -2.5533 -2.3288
  502MOL0     H67713   5.953   6.074   8.100  0.4129 -0.2977 -0.5119
  502MOL0     H67714   6.038   6.145   7.959 -0.6950  0.9958 -0.8192
  502MOL0     H67715   5.895   6.338   7.949 -3.1082  1.7473  1.8881
  502MOL0     H67716   5.806   6.285   8.096 -0.4993  0.1126 -0.4308
  502MOL0     H67717   6.020   6.304   8.218 -0.6620 -2.5473 -0.0032
  502MOL0     H67718   5.982   6.466   8.135  0.6968  0.2222 -1.8638
  502MOL0     H67719   6.221   6.434   8.101 -2.8802  3.2629  1.3876
  502MOL0     H67720   6.183   6.288   8.010 -0.3144 -0.2321  1.9208
  502MOL0     H67721   6.026   6.649   8.019  2.0758  1.0716 -0.6036
  502MOL0     H67722   5.934   6.787   7.842  0.3688  1.5267 -0.1711
  502MOL0     H67723   6.027   6.812   7.685 -0.2561  1.4309  0.9943
  502MOL0     H67724   5.768   6.661   7.720  0.9897  1.2139  1.9269
  502MOL0     H67725   5.785   6.816   7.643  0.1357  0.5544  3.0647
  502MOL0     H67726   5.900   6.549   7.530 -1.0072 -0.1802 -1.1669
  502MOL0     H67727   5.935   6.719   7.470 -2.2354  0.7484 -1.1332
  502MOL0     H67728   5.741   6.589   7.341 -1.3313 -2.1671  0.3993
  502MOL0     H67729   5.682   6.729   7.429  1.3955  1.5731  0.0080
  502MOL0     H67730   5.508   6.422   7.658 -2.9451  0.0394  0.1586
  502MOL0     H67731   5.289   6.327   7.608  3.3114 -0.0984  3.0224
  502MOL0     H67732   5.012   6.095   7.265  0.3217  1.1289  0.6263
  502MOL0     H67733   4.781   5.982   7.255  0.3844 -0.1407  1.0173
  502MOL0     H67734   4.480   5.960   7.560 -0.5773 -1.6945 -1.2051
  502MOL0     H67735   4.480   6.136   7.527 -0.0128 -1.0036  1.5243
  502MOL0     H67736   4.346   6.109   7.328 -0.3854  0.5493  1.4662
  502MOL0     H67737   4.354   5.929   7.345  0.2664 -1.6162  2.5394
  502MOL0     H67738   4.185   6.127   7.475  1.2344  0.3937  0.2083
  502MOL0     H67739   4.154   5.959   7.414  0.1680  0.2905 -0.6974
  502MOL0     H67740   4.274   6.024   7.679 -0.4906  1.4338  0.2976
  502MOL0     H67741   4.234   5.863   7.604  0.0909  0.2574 -0.1448
  502MOL0     H67742   3.989   5.920   7.583 -1.8409  2.6564  0.1611
  502MOL0     H67743   4.017   6.071   7.670  0.0541  1.0288 -1.3270
  502MOL0     H67744   4.109   5.924   7.866 -0.5950  3.6727 -1.2037
  502MOL0     H67745   3.935   5.917   7.816 -1.1039  0.2122 -3.2302
  502MOL0     H67746   4.120   5.700   7.825  2.1614 -0.7007 -3.3612
  502MOL0     H67747   4.030   5.707   7.676  0.0543  1.3000  0.0687
  502MOL0     H67748   3.817   5.689   7.825 -0.1896 -0.5787  0.2010
  502MOL0     H67749   3.941   5.557   7.842  1.2325  0.1976 -0.6088
  502MOL0     H67750   4.684   6.196   7.606  0.3274  1.8580  1.1713
  502MOL0     H67751   4.917   6.284   7.621 -0.7199 -0.9699  0.1714
  502MOL0     H67752   5.329   6.477   7.210  0.5962 -0.4388 -0.5135
  502MOL0     H67753   5.535   6.599   7.286 -1.7284  0.4925 -0.0245
  502MOL0     H67754   5.486   5.782   7.981  0.2463 -0.1136  0.7752
  502MOL0     H67755   5.273   5.674   8.035 -0.5146 -2.7599  0.6778
  502MOL0     H67756   5.062   5.116   7.985  1.6892  2.3223  1.1718
  502MOL0     H67757   4.856   5.019   8.045  1.8842  0.4980  2.2008
  502MOL0     H67758   4.469   5.207   7.948  4.3437  0.5113 -0.0342
  502MOL0     H67759   4.465   5.268   8.118 -2.6872 -0.3007  0.4458
  502MOL0     H67760   4.453   4.977   8.103  0.0497  0.0308 -0.8603
  502MOL0     H67761   4.316   5.075   8.021 -2.8461  3.5071  3.3504
  502MOL0     H67762   4.293   5.200   8.241  0.0990  0.5505  1.5595
  502MOL0     H67763   4.371   5.071   8.315 -0.5729 -1.1901  0.7533
  502MOL0     H67764   4.115   5.067   8.156 -1.3190  1.2414  3.2973
  502MOL0     H67765   4.203   4.912   8.183 -0.9151 -0.7541  1.3590
  502MOL0     H67766   4.054   4.959   8.567 -1.5405 -4.1193 -2.1197
  502MOL0     H67767   4.632   5.362   7.953 -0.0491 -0.5024  1.1815
  502MOL0     H67768   4.871   5.594   7.961 -2.3264  1.9868  1.3455
  502MOL0     H67769   4.921   5.547   7.797  3.1350 -0.6498  3.5862
  502MOL0     H67770   4.743   5.545   7.846  0.6232 -0.6815 -1.7628
  503MOL0     O67771   9.365   3.805   3.826 -0.1135 -0.1520  0.1461
  503MOL0     C67772   9.453   3.732   3.776 -0.3010 -0.4144  0.1721
  503MOL0     O67773   9.433   3.646   3.672  0.6043 -0.0491 -0.8034
  503MOL0     C67774   9.305   3.612   3.625  0.0157 -0.2366  0.1625
  503MOL0     C67775   9.314   3.553   3.507 -0.3968  0.2992 -0.4465
  503MOL0     C67776   9.190   3.527   3.445 -0.1115  1.0785 -0.6129
  503MOL0     C67777   9.069   3.547   3.515 -0.9034 -0.2556  0.6705
  503MOL0     O67778   8.949   3.508   3.460 -0.1198  0.2126 -0.1943
  503MOL0     C67779   8.895   3.397   3.514 -0.7845  0.5176 -0.2698
  503MOL0     C67780   8.903   3.284   3.410 -0.4585 -0.4172 -0.4947
  503MOL0     C67781   9.031   3.197   3.420 -0.1250  1.4553  0.6975
  503MOL0     C67782   9.089   3.149   3.290  0.5133 -0.3425 -0.0203
  503MOL0     C67783   9.239   3.097   3.294  0.3932 -0.8766  0.4500
  503MOL0     C67784   9.330   3.218   3.302  0.3299 -0.2701  0.0380
  503MOL0     C67785   9.477   3.192   3.265  0.8694 -0.0274  0.0647
  503MOL0     C67786   9.495   3.197   3.113  0.3800 -0.0337  0.0716
  503MOL0     N67787   9.635   3.163   3.064 -0.2802 -0.6611 -0.2098
  503MOL0     C67788   9.731   3.255   3.019  0.7775 -0.0515  0.0281
  503MOL0     C67789   9.839   3.188   2.987 -0.1050  0.4837 -0.0658
  503MOL0     C67790   9.968   3.235   2.939 -0.4416 -0.5883 -0.1795
  503MOL0     C67791   9.975   3.219   2.786 -0.4546  0.3854  0.2279
  503MOL0     C67792  10.114   3.278   2.747 -0.1259  0.1968 -0.5800
  503MOL0     C67793  10.174   3.240   2.608 -0.4914  0.2651  0.8379
  503MOL0     O67794  10.215   3.106   2.632 -0.0249  1.0361  0.6025
  503MOL0     C67795  10.329   3.073   2.572 -0.6937 -0.0915 -0.4287
  503MOL0     C67796  10.378   3.119   2.450  0.1218  0.6044  0.3227
  503MOL0     C67797  10.503   3.077   2.395  0.1110  0.3557  0.0949
  503MOL0     C67798  10.571   2.985   2.471  0.4212  0.5240 -0.9967
  503MOL0     C67799  10.698   2.931   2.418 -0.4823  0.3454  0.5414
  503MOL0     O67800  10.750   2.966   2.290  1.0663 -0.0425 -0.0160
  503MOL0     C67801  10.851   2.897   2.241 -0.4773 -0.3228  0.1523
  503MOL0     C67802  10.968   2.859   2.317  0.3328 -0.5997  0.4301
  503MOL0     C67803  11.062   2.788   2.248 -0.5204 -0.3037  0.9234
  503MOL0     C67804  11.050   2.752   2.113 -0.0020 -0.5815  1.0383
  503MOL0     O67805  11.139   2.684   2.030  1.1248 -0.2223 -0.0078
  503MOL0     C67806  11.251   2.621   2.085  0.3753  0.5575  0.0073
  503MOL0     C67807  11.340   2.583   1.968  0.4838 -0.2403  0.6346
  503MOL0     C67808  11.471   2.523   2.017  0.5027  0.2594 -0.1238
  503MOL0     C67809  11.562   2.476   1.910  0.9605 -0.1214 -0.0221
  503MOL0     C67810  11.675   2.388   1.960  0.1972  0.3482 -0.0067
  503MOL0     C67811  11.781   2.352   1.849 -0.9159 -0.5713 -0.5442
  503MOL0     C67812  11.839   2.212   1.878  0.2704 -0.0056  0.5389
  503MOL0     C67813  11.927   2.172   1.759 -0.4340 -0.3814 -0.5214
  503MOL0    Cl67814  12.067   2.272   1.708  0.0772  0.5256  0.0984
  503MOL0     C67815  10.927   2.783   2.052  0.1555  0.7590  0.0229
  503MOL0     C67816  10.832   2.858   2.109 -0.4186 -0.0028 -0.2302
  503MOL0     O67817  10.752   2.844   2.488  0.2177 -0.1912  0.1824
  503MOL0     C67818  10.517   2.930   2.590 -0.5940  0.0892 -0.4377
  503MOL0     C67819  10.397   2.975   2.639  0.5950 -0.1151 -0.2033
  503MOL0     N67820   9.813   3.058   3.023  0.7575  0.0789  0.3388
  503MOL0     N67821   9.699   3.046   3.084  0.5260 -0.5016 -0.5323
  503MOL0     C67822   9.073   3.592   3.646  0.0239 -0.0762 -0.7141
  503MOL0     C67823   9.191   3.617   3.705  0.7980  0.6368  0.6264
  503MOL0     C67824   9.600   3.754   3.821  0.4180 -0.2048  0.3233
  503MOL0     C67825   9.695   3.706   3.723 -0.3081 -0.0168 -0.1928
  503MOL0     C67826   9.823   3.729   3.746  0.1349 -0.0381 -0.2922
  503MOL0     C67827   9.871   3.784   3.865  0.4158  0.3902  0.0486
  503MOL0     O67828  10.003   3.806   3.861 -0.1014 -0.7863  0.0843
  503MOL0     C67829  10.068   3.873   3.971  0.1522 -0.0056 -0.0726
  503MOL0     C67830  10.217   3.905   3.946  0.4401 -0.4260 -0.4743
  503MOL0     C67831  10.285   3.979   4.062  0.1200  0.6631  0.5498
  503MOL0     C67832  10.384   4.083   4.019  0.1367 -0.6814 -0.1844
  503MOL0     C67833  10.461   4.129   4.134  0.2762  0.1329 -0.6890
  503MOL0     C67834  10.513   4.162   4.238  0.4290  0.0904 -0.8146
  503MOL0     C67835   9.780   3.839   3.954 -0.1675 -0.5394  0.4117
  503MOL0     C67836   9.648   3.817   3.942  0.1287 -0.3784  0.1718
  503MOL0     C67837   9.555   3.866   4.046  0.3125 -0.3849 -0.0739
  503MOL0     H67838   9.407   3.550   3.452 -0.9270  1.9666 -1.5123
  503MOL0     H67839   9.190   3.482   3.346  1.1040  0.8736 -0.5411
  503MOL0     H67840   8.952   3.365   3.602  0.8122 -0.8854 -1.7322
  503MOL0     H67841   8.793   3.434   3.526 -0.4171  1.2528  0.6988
  503MOL0     H67842   8.908   3.331   3.311  0.0059 -0.1932 -0.3653
  503MOL0     H67843   8.823   3.208   3.411  0.7463 -1.7314 -0.2862
  503MOL0     H67844   9.016   3.106   3.480 -0.8877  1.0447 -0.0827
  503MOL0     H67845   9.117   3.244   3.468  1.8433 -2.1799  1.1417
  503MOL0     H67846   9.045   3.058   3.248  2.2002 -1.3874  0.3534
  503MOL0     H67847   9.086   3.232   3.220  0.7948 -1.6827 -1.7004
  503MOL0     H67848   9.253   3.027   3.377 -1.1755  1.4494  2.8614
  503MOL0     H67849   9.245   3.056   3.193  0.7841 -1.4743  0.7125
  503MOL0     H67850   9.286   3.308   3.259  0.3924 -0.3420 -0.1802
  503MOL0     H67851   9.332   3.244   3.408  0.2270 -1.2506  0.2857
  503MOL0     H67852   9.514   3.104   3.317  1.5054  0.0534 -0.2400
  503MOL0     H67853   9.544   3.272   3.299  0.8204  1.0316 -2.1365
  503MOL0     H67854   9.420   3.138   3.060  2.2541 -0.2635 -2.4813
  503MOL0     H67855   9.483   3.304   3.090  1.1743  0.3871  1.4528
  503MOL0     H67856   9.744   3.362   3.008 -0.2191  0.4486  2.9706
  503MOL0     H67857   9.980   3.340   2.966 -0.7086 -0.3822 -0.8556
  503MOL0     H67858  10.050   3.174   2.979 -2.5067 -1.0703  3.8210
  503MOL0     H67859   9.971   3.112   2.766  1.2159  0.4593 -0.6321
  503MOL0     H67860   9.899   3.266   2.723  1.4810  1.2565 -1.5825
  503MOL0     H67861  10.194   3.247   2.815  0.5825  1.8034 -0.6407
  503MOL0     H67862  10.122   3.387   2.750  0.4102  0.3218 -3.3617
  503MOL0     H67863  10.260   3.301   2.580  0.7006 -3.0804 -4.1182
  503MOL0     H67864  10.098   3.249   2.529 -2.1563  0.4785  2.3970
  503MOL0     H67865  10.320   3.184   2.385  0.6770  0.2532 -0.5586
  503MOL0     H67866  10.553   3.110   2.305 -0.0950 -0.0601 -0.1744
  503MOL0     H67867  10.985   2.876   2.423  0.6902  2.3202 -0.0238
  503MOL0     H67868  11.142   2.754   2.313  0.1626 -0.7606 -0.1310
  503MOL0     H67869  11.307   2.695   2.143 -2.3030  1.0290  2.1864
  503MOL0     H67870  11.220   2.533   2.142 -0.5827  1.2174  0.5241
  503MOL0     H67871  11.297   2.518   1.892  0.7189 -2.9916  2.7001
  503MOL0     H67872  11.360   2.682   1.925  0.0045 -0.6585 -0.5768
  503MOL0     H67873  11.532   2.594   2.074  2.1323 -1.3512  0.2222
  503MOL0     H67874  11.453   2.436   2.081 -0.7327  1.4831  1.2555
  503MOL0     H67875  11.602   2.568   1.868  0.3790 -0.9848 -2.6967
  503MOL0     H67876  11.509   2.419   1.833  0.9646  0.2219 -0.2810
  503MOL0     H67877  11.643   2.291   1.998 -0.0920 -0.0748 -1.3105
  503MOL0     H67878  11.723   2.434   2.047  0.2015  2.0751 -0.8676
  503MOL0     H67879  11.738   2.353   1.748 -0.3339  1.2218 -0.8066
  503MOL0     H67880  11.861   2.426   1.857  1.2375 -2.6198 -1.8454
  503MOL0     H67881  11.760   2.139   1.896  0.4358 -0.1880  0.5206
  503MOL0     H67882  11.898   2.214   1.970  0.2981 -2.1562  0.5968
  503MOL0     H67883  11.958   2.068   1.771 -1.7501 -0.6392  1.0172
  503MOL0     H67884  11.860   2.183   1.673  0.4134 -0.7574 -1.2397
  503MOL0     H67885  10.908   2.741   1.954  0.6956 -1.2230  0.7188
  503MOL0     H67886  10.745   2.886   2.050 -1.0662 -0.1665  0.6295
  503MOL0     H67887  10.562   2.848   2.645 -0.9463  1.0457  1.3628
  503MOL0     H67888  10.359   2.932   2.731  1.9525  0.1461  0.4942
  503MOL0     H67889   8.981   3.591   3.704 -0.8520  1.0721 -1.9981
  503MOL0     H67890   9.204   3.616   3.812 -1.6170  0.2601  0.9745
  503MOL0     H67891   9.658   3.668   3.628 -1.0660 -1.1199  0.5162
  503MOL0     H67892   9.897   3.678   3.685  0.0507  1.9130 -2.1264
  503MOL0     H67893  10.052   3.812   4.061 -0.2898 -3.4725 -2.3095
  503MOL0     H67894  10.016   3.969   3.980 -2.8865 -1.4920 -0.5098
  503MOL0     H67895  10.220   3.959   3.852 -0.3086 -2.5956 -1.8264
  503MOL0     H67896  10.266   3.808   3.932  1.4263  0.0552 -0.4345
  503MOL0     H67897  10.340   3.916   4.133  1.8824  4.2654  2.7031
  503MOL0     H67898  10.209   4.034   4.118 -1.4921 -0.4991 -0.3892
  503MOL0     H67899  10.443   4.043   3.936  0.4952 -0.4733 -0.0286
  503MOL0     H67900  10.330   4.170   3.979  1.8452  0.8190  0.6493
  503MOL0     H67901  10.568   4.196   4.324  0.9377  1.7669 -1.7539
  503MOL0     H67902   9.815   3.899   4.037 -0.2749 -1.4853  1.1627
  503MOL0     H67903   9.474   3.923   3.999 -0.7163 -0.4375  1.5417
  503MOL0     H67904   9.512   3.781   4.100  0.1873 -0.5991 -0.5037
  503MOL0     H67905   9.601   3.936   4.116 -0.4825  0.1205 -0.0469
  504MOL0     O67906   4.249   6.816   7.954  0.3371  0.1006 -0.4828
  504MOL0     C67907   4.225   6.882   8.055  0.9331  0.1558 -0.5684
  504MOL0     O67908   4.293   6.882   8.174 -0.2842  0.3106  0.0724
  504MOL0     C67909   4.402   6.803   8.192 -0.6160  0.2385 -0.3984
  504MOL0     C67910   4.427   6.677   8.154 -0.6241  0.6484 -0.7099
  504MOL0     C67911   4.549   6.613   8.183  0.2885 -0.5038  0.7178
  504MOL0     C67912   4.651   6.685   8.249  0.8008  0.3665 -0.8118
  504MOL0     O67913   4.779   6.639   8.290 -0.3242 -0.6139  0.6242
  504MOL0     C67914   4.824   6.511   8.236  0.2515  0.1463 -0.2121
  504MOL0     C67915   4.949   6.463   8.293 -0.2076 -0.1546  0.9212
  504MOL0     C67916   4.939   6.464   8.445  0.2394  0.1035  0.4548
  504MOL0     C67917   5.037   6.366   8.514  0.2868 -0.0492  0.8724
  504MOL0     C67918   5.186   6.397   8.476 -0.5382 -0.7924 -0.7382
  504MOL0     C67919   5.274   6.267   8.495 -0.4280  0.0803 -0.6308
  504MOL0     C67920   5.428   6.302   8.516  0.3375 -0.3563  0.1627
  504MOL0     C67921   5.531   6.193   8.500 -0.2248  0.5009 -0.0643
  504MOL0     N67922   5.664   6.241   8.543 -0.4308  0.1414  0.0824
  504MOL0     C67923   5.772   6.285   8.468 -0.6584  0.3572 -0.9575
  504MOL0     C67924   5.867   6.310   8.562  0.0357 -0.1165 -0.6894
  504MOL0     C67925   5.997   6.356   8.534 -0.0064  0.7010 -0.4528
  504MOL0     C67926   6.078   6.393   8.659  1.8037  0.1061 -0.2845
  504MOL0     C67927   6.123   6.264   8.725 -0.1027  0.2035  0.2014
  504MOL0     C67928   6.212   6.289   8.848  0.1411  1.1140  0.0963
  504MOL0     O67929   6.336   6.333   8.795 -0.1078 -0.7170  0.4143
  504MOL0     C67930   6.445   6.338   8.878  0.7679  0.4212 -1.5577
  504MOL0     C67931   6.477   6.452   8.955  0.5884  0.2099 -0.2088
  504MOL0     C67932   6.582   6.450   9.052  0.3453  0.3422  0.1445
  504MOL0     C67933   6.660   6.326   9.061  0.0864 -0.0907  0.0246
  504MOL0     C67934   6.772   6.319   9.160 -0.8828  0.0204  0.4865
  504MOL0     O67935   6.878   6.231   9.122 -0.0894  0.5386 -0.5631
  504MOL0     C67936   6.986   6.242   9.207 -0.9408  0.6759  0.5636
  504MOL0     C67937   7.005   6.168   9.320 -0.0200  0.1787  0.0209
  504MOL0     C67938   7.119   6.183   9.403  0.5684  0.3351  0.0867
  504MOL0     C67939   7.223   6.282   9.373  0.2511 -0.2762  0.2715
  504MOL0     O67940   7.330   6.279   9.456 -0.6964  0.8057  0.2841
  504MOL0     C67941   7.446   6.346   9.414 -0.7912 -0.0176  0.3393
  504MOL0     C67942   7.556   6.275   9.494 -0.6384 -0.9078 -0.4709
  504MOL0     C67943   7.688   6.364   9.482  0.4268 -0.2535  0.7375
  504MOL0     C67944   7.810   6.276   9.502  0.1902 -0.0043  0.6060
  504MOL0     C67945   7.937   6.355   9.485 -0.4706 -0.2737  0.2143
  504MOL0     C67946   8.053   6.256   9.483  0.0112 -0.2209  0.8519
  504MOL0     C67947   8.176   6.338   9.505 -0.0166 -0.4370  0.1449
  504MOL0     C67948   8.291   6.246   9.534 -0.1238 -0.0698 -0.5549
  504MOL0    Cl67949   8.443   6.325   9.553 -0.2946  0.1236  0.1300
  504MOL0     C67950   7.203   6.359   9.254 -0.4213 -0.8488 -0.5458
  504MOL0     C67951   7.091   6.337   9.173 -0.2395 -0.1379 -0.5233
  504MOL0     O67952   6.783   6.413   9.232  0.4352  0.2436 -0.1898
  504MOL0     C67953   6.622   6.218   8.983  0.0768 -0.4628  0.3045
  504MOL0     C67954   6.515   6.215   8.891  0.2761 -0.1512  0.8469
  504MOL0     N67955   5.798   6.301   8.686 -0.9525 -0.1003 -0.4913
  504MOL0     N67956   5.685   6.252   8.672 -0.0545 -0.5540 -0.6273
  504MOL0     C67957   4.625   6.810   8.291 -0.0055 -0.2014 -0.3351
  504MOL0     C67958   4.504   6.871   8.264 -0.1738  1.1663 -0.1152
  504MOL0     C67959   4.099   6.966   8.045 -0.0171 -0.3337  1.4228
  504MOL0     C67960   3.996   6.951   7.945  0.7993 -0.5199  0.5084
  504MOL0     C67961   3.883   7.025   7.924 -0.1814 -0.3842 -0.0412
  504MOL0     C67962   3.860   7.126   8.016  0.4186  0.2807 -0.1989
  504MOL0     O67963   3.754   7.212   8.003 -0.5073 -0.0086 -0.0414
  504MOL0     C67964   3.654   7.203   7.904  0.1247  0.5974  0.1419
  504MOL0     C67965   3.539   7.282   7.952 -0.4522  0.9238  0.2056
  504MOL0     C67966   3.564   7.431   7.951 -0.3052 -0.4129  0.1461
  504MOL0     C67967   3.432   7.511   7.922 -0.9296  0.5866  0.1747
  504MOL0     C67968   3.464   7.653   7.934 -0.1892  0.4257 -0.0885
  504MOL0     C67969   3.486   7.774   7.944  1.0498 -0.8474  0.5135
  504MOL0     C67970   3.949   7.139   8.124 -0.5503  0.1742 -0.3192
  504MOL0     C67971   4.067   7.068   8.135 -0.5391 -0.9085  0.4342
  504MOL0     C67972   4.169   7.123   8.237 -0.6310  0.2019 -0.9207
  504MOL0     H67973   4.352   6.621   8.100 -0.3469  0.2128 -0.6510
  504MOL0     H67974   4.558   6.508   8.160 -0.6138 -0.7930  1.5940
  504MOL0     H67975   4.743   6.442   8.260 -0.2761  1.5150  2.2772
  504MOL0     H67976   4.845   6.503   8.128  2.8971 -2.1722  0.3587
  504MOL0     H67977   5.021   6.537   8.254  0.1422  0.5452  2.7955
  504MOL0     H67978   4.964   6.363   8.251 -2.8703 -0.8501  1.4831
  504MOL0     H67979   4.838   6.440   8.480  0.5234 -1.0517  0.5209
  504MOL0     H67980   4.957   6.569   8.473 -2.9306  0.9414 -0.2452
  504MOL0     H67981   5.030   6.393   8.620  1.3018  2.7906  0.2930
  504MOL0     H67982   5.003   6.263   8.496 -1.3482  0.4966  0.7060
  504MOL0     H67983   5.211   6.439   8.378  1.4759 -0.1579 -0.0089
  504MOL0     H67984   5.225   6.463   8.554 -1.0685 -0.3048 -0.8890
  504MOL0     H67985   5.236   6.209   8.580  0.4063 -1.3931 -1.2275
  504MOL0     H67986   5.264   6.210   8.402 -0.5786  1.2932 -1.3931
  504MOL0     H67987   5.428   6.347   8.615 -2.6276  0.7898 -0.2692
  504MOL0     H67988   5.450   6.384   8.447  1.4737  1.4711  2.5392
  504MOL0     H67989   5.495   6.109   8.561 -0.5568  0.0290 -0.8844
  504MOL0     H67990   5.539   6.158   8.397  1.5199  2.0416 -0.4946
  504MOL0     H67991   5.783   6.287   8.360  2.1124 -0.3503 -0.7583
  504MOL0     H67992   6.044   6.270   8.486 -2.7051 -0.9404 -0.3584
  504MOL0     H67993   5.989   6.434   8.459  0.8155  0.5213 -0.7421
  504MOL0     H67994   6.167   6.449   8.630  1.8080  1.1085  1.4790
  504MOL0     H67995   6.018   6.458   8.724 -2.4000 -2.3851 -1.3168
  504MOL0     H67996   6.181   6.201   8.657 -1.7571 -1.7185  0.4621
  504MOL0     H67997   6.038   6.199   8.751  0.1775 -0.0743  0.4288
  504MOL0     H67998   6.227   6.195   8.900  0.6378  0.7112 -0.7591
  504MOL0     H67999   6.166   6.358   8.920  0.0527  1.0032  0.1449
  504MOL0     H68000   6.405   6.533   8.964  1.5599  1.1028 -0.3475
  504MOL0     H68001   6.612   6.534   9.113 -0.1779 -0.4089  1.4787
  504MOL0     H68002   6.920   6.103   9.340 -0.5102  0.3350 -1.4146
  504MOL0     H68003   7.128   6.129   9.497  1.3548  4.1320  2.4239
  504MOL0     H68004   7.469   6.349   9.307  0.0045  1.9239  0.5160
  504MOL0     H68005   7.445   6.452   9.440 -3.0560  0.5113 -1.5586
  504MOL0     H68006   7.535   6.268   9.601  1.9791 -1.6707  0.0588
  504MOL0     H68007   7.578   6.173   9.463  1.3425 -0.4888 -0.5639
  504MOL0     H68008   7.692   6.411   9.383 -0.9078  0.5812  1.0660
  504MOL0     H68009   7.678   6.443   9.556  0.3218  0.1875  0.2603
  504MOL0     H68010   7.807   6.188   9.436 -1.4044 -0.2441  0.9541
  504MOL0     H68011   7.817   6.233   9.602 -2.7537  2.6514  2.1197
  504MOL0     H68012   7.946   6.418   9.574  1.4084  0.5120 -0.4797
  504MOL0     H68013   7.924   6.409   9.391 -1.0664  1.0395  1.0293
  504MOL0     H68014   8.046   6.195   9.573  1.5153 -0.5664  0.7600
  504MOL0     H68015   8.050   6.185   9.400  1.9536 -1.5710  1.8535
  504MOL0     H68016   8.157   6.404   9.590  1.0471 -2.2056  1.8307
  504MOL0     H68017   8.189   6.401   9.416 -0.1602  0.6461  0.8647
  504MOL0     H68018   8.263   6.179   9.616 -3.4251 -1.2672 -2.4580
  504MOL0     H68019   8.302   6.176   9.450 -2.0489 -0.2623 -0.6856
  504MOL0     H68020   7.272   6.437   9.223  0.2067 -1.2723 -0.2559
  504MOL0     H68021   7.071   6.397   9.085 -2.7892  0.5701  0.4449
  504MOL0     H68022   6.684   6.129   8.991 -0.5127 -0.7882  1.4918
  504MOL0     H68023   6.501   6.129   8.827 -1.8292  1.6808 -1.3446
  504MOL0     H68024   4.706   6.865   8.339  0.0805 -1.9040  1.6130
  504MOL0     H68025   4.492   6.974   8.297  1.5053  0.9034  1.4643
  504MOL0     H68026   4.015   6.864   7.883 -1.1042 -1.5880  1.3359
  504MOL0     H68027   3.805   7.012   7.850 -0.3920 -2.9801  0.5582
  504MOL0     H68028   3.618   7.100   7.913 -0.8544  0.9083 -0.0774
  504MOL0     H68029   3.688   7.228   7.803  0.0937  1.0458  0.2392
  504MOL0     H68030   3.504   7.247   8.050  0.5124 -0.3499  0.1191
  504MOL0     H68031   3.468   7.262   7.872 -0.0022  1.4466 -0.3348
  504MOL0     H68032   3.632   7.453   7.869 -0.6753  2.5135  0.5320
  504MOL0     H68033   3.602   7.464   8.048  0.5205 -0.2026 -0.2456
  504MOL0     H68034   3.387   7.490   7.824 -0.8113  0.6182  0.1126
  504MOL0     H68035   3.344   7.478   7.978 -2.4808  1.3741 -1.6793
  504MOL0     H68036   3.494   7.877   7.975 -2.3701  0.6176 -2.6291
  504MOL0     H68037   3.935   7.233   8.177 -2.6892 -1.1392  1.6020
  504MOL0     H68038   4.124   7.213   8.281  2.4050  2.6768 -2.4996
  504MOL0     H68039   4.184   7.049   8.315 -3.6402 -1.8550 -2.0954
  504MOL0     H68040   4.261   7.151   8.185  0.1379  0.1581  0.3725
  505MOL0     O68041   4.247  10.593   1.061  0.7086  0.3254  0.3064
  505MOL0     C68042   4.163  10.652   1.134  0.4944 -1.2772  0.0537
  505MOL0     O68043   4.196  10.705   1.252  0.2722  1.3356  0.0054
  505MOL0     C68044   4.272  10.635   1.336 -0.4984  0.0822 -0.7001
  505MOL0     C68045   4.251  10.508   1.390 -0.7686  0.1157  0.1292
  505MOL0     C68046   4.335  10.444   1.484 -0.8070  0.6998 -0.2165
  505MOL0     C68047   4.454  10.508   1.521  0.0757 -0.1799  0.6112
  505MOL0     O68048   4.545  10.464   1.614  0.3724 -0.1043 -0.0637
  505MOL0     C68049   4.600  10.338   1.562 -0.6343  0.1006  1.0236
  505MOL0     C68050   4.691  10.286   1.673 -0.2788  0.1261  0.6184
  505MOL0     C68051   4.797  10.394   1.709 -0.5762 -0.6000 -0.0942
  505MOL0     C68052   4.923  10.340   1.777 -0.2265 -0.6144 -0.1209
  505MOL0     C68053   4.896  10.266   1.907 -0.8263 -0.4145  0.0060
  505MOL0     C68054   5.042  10.213   1.960  0.3338  0.5250 -0.0600
  505MOL0     C68055   5.136  10.327   2.013 -0.3509 -0.2201  0.8769
  505MOL0     C68056   5.271  10.257   2.049 -0.7966  0.0081  0.3057
  505MOL0     N68057   5.365  10.349   2.109  0.9386 -0.4031  0.2946
  505MOL0     C68058   5.425  10.452   2.039  0.4413 -0.1586  0.0874
  505MOL0     C68059   5.494  10.507   2.138 -0.2327 -0.5488 -0.5442
  505MOL0     C68060   5.599  10.614   2.102 -0.1430  0.2293 -0.4189
  505MOL0     C68061   5.733  10.557   2.066 -0.4434  0.4443  0.0080
  505MOL0     C68062   5.745  10.446   1.954 -0.5082  0.4136  0.4372
  505MOL0     C68063   5.724  10.504   1.814  0.2126 -0.4577 -0.3808
  505MOL0     O68064   5.819  10.613   1.794 -0.0728 -0.2746  0.4813
  505MOL0     C68065   5.952  10.591   1.781 -0.0696 -0.5009  0.2801
  505MOL0     C68066   6.038  10.670   1.854  0.0277 -0.1698 -0.3180
  505MOL0     C68067   6.173  10.666   1.839 -0.3680 -0.2925  0.0228
  505MOL0     C68068   6.236  10.590   1.736  1.0375 -0.5506 -0.2521
  505MOL0     C68069   6.378  10.599   1.707 -0.2286 -0.6001 -0.7676
  505MOL0     O68070   6.444  10.693   1.791 -0.1712  0.1948 -0.1656
  505MOL0     C68071   6.578  10.704   1.779  0.0191 -0.1409 -0.1321
  505MOL0     C68072   6.616  10.839   1.787  0.6572 -0.4802 -0.4277
  505MOL0     C68073   6.751  10.877   1.803  0.1384  1.5899 -1.1790
  505MOL0     C68074   6.848  10.773   1.802 -0.1289 -0.5377  0.0942
  505MOL0     O68075   6.983  10.790   1.830 -0.1851 -0.2591 -0.1628
  505MOL0     C68076   7.057  10.836   1.720  0.1526  0.0313  0.1737
  505MOL0     C68077   7.202  10.803   1.768 -0.5114 -1.0819  0.3362
  505MOL0     C68078   7.307  10.873   1.681 -0.1205  0.8030  0.2666
  505MOL0     C68079   7.451  10.832   1.735  0.1627  0.1559 -0.5665
  505MOL0     C68080   7.551  10.851   1.624  0.6989  0.0756 -0.5493
  505MOL0     C68081   7.690  10.779   1.656 -0.8436  0.1261 -0.3316
  505MOL0     C68082   7.673  10.632   1.635  0.3635  0.3948 -0.6101
  505MOL0     C68083   7.812  10.556   1.637 -0.4538 -0.3310  0.0156
  505MOL0    Cl68084   7.903  10.613   1.781  0.0224 -0.0150  0.3374
  505MOL0     C68085   6.810  10.643   1.769 -0.8363 -0.3027  0.4065
  505MOL0     C68086   6.677  10.603   1.761  0.2273  0.6992 -0.1235
  505MOL0     O68087   6.426  10.536   1.617  0.2542 -0.1081  0.3972
  505MOL0     C68088   6.149  10.508   1.665 -0.4969 -0.2861  0.3857
  505MOL0     C68089   6.011  10.507   1.679  0.3922 -0.5453 -0.2873
  505MOL0     N68090   5.480  10.433   2.257  0.2561 -0.4375 -0.4826
  505MOL0     N68091   5.395  10.335   2.244 -0.1102  0.4578 -0.3925
  505MOL0     C68092   4.476  10.636   1.461 -0.0254  0.0819  0.0658
  505MOL0     C68093   4.392  10.700   1.367  0.5274 -0.0678  0.1276
  505MOL0     C68094   4.031  10.702   1.086 -0.4038  0.0081  0.1317
  505MOL0     C68095   3.997  10.649   0.957  0.2610 -0.8687  0.1648
  505MOL0     C68096   3.882  10.694   0.886 -0.7735  0.1028 -0.0126
  505MOL0     C68097   3.797  10.775   0.947  0.3090 -0.5717 -0.4770
  505MOL0     O68098   3.679  10.830   0.899 -0.3883 -0.4787  0.7518
  505MOL0     C68099   3.599  10.747   0.809  0.5798 -0.2609 -0.7544
  505MOL0     C68100   3.550  10.621   0.877 -0.4826  0.4205 -0.3535
  505MOL0     C68101   3.462  10.655   0.994  0.2796 -0.3525 -0.4255
  505MOL0     C68102   3.419  10.524   1.052 -0.6838  1.3099 -0.2202
  505MOL0     C68103   3.304  10.540   1.142  0.7732  0.2274  0.7166
  505MOL0     C68104   3.213  10.541   1.228 -0.3577 -0.3075  0.5947
  505MOL0     C68105   3.834  10.837   1.066 -0.6918  0.8408 -0.0591
  505MOL0     C68106   3.955  10.810   1.136  0.3592  0.6072  0.0377
  505MOL0     C68107   3.973  10.878   1.270 -0.0410  0.1338  0.5230
  505MOL0     H68108   4.157  10.458   1.369 -0.1719 -0.5354 -1.1199
  505MOL0     H68109   4.289  10.356   1.527 -2.5718 -0.2911 -3.7422
  505MOL0     H68110   4.522  10.263   1.545 -0.3634 -0.1067  0.7092
  505MOL0     H68111   4.662  10.352   1.474  1.9035 -1.4630  2.4476
  505MOL0     H68112   4.736  10.195   1.633  1.3106  0.9762  0.3882
  505MOL0     H68113   4.635  10.266   1.765  0.3765 -1.8184  0.6415
  505MOL0     H68114   4.756  10.463   1.782 -0.1140 -1.7028  1.2487
  505MOL0     H68115   4.824  10.451   1.619  2.7831 -0.1012  1.1003
  505MOL0     H68116   4.976  10.277   1.705 -0.3471 -0.1883 -0.5937
  505MOL0     H68117   4.980  10.432   1.791 -1.0060 -0.0261 -0.7284
  505MOL0     H68118   4.847  10.325   1.985 -1.3149 -3.4442  2.1725
  505MOL0     H68119   4.829  10.181   1.892  0.7423 -1.2959 -2.7300
  505MOL0     H68120   5.015  10.146   2.042  1.4380  1.7434  1.3646
  505MOL0     H68121   5.092  10.157   1.881  0.4912  0.0527  0.3640
  505MOL0     H68122   5.100  10.371   2.106 -2.3042 -2.0820  1.0886
  505MOL0     H68123   5.142  10.399   1.931 -0.7195 -2.3873 -1.1553
  505MOL0     H68124   5.258  10.177   2.122  0.1618 -0.1439  0.3260
  505MOL0     H68125   5.318  10.220   1.957 -1.4734  0.7291 -0.3504
  505MOL0     H68126   5.425  10.453   1.931  0.3877 -4.0630 -0.1054
  505MOL0     H68127   5.560  10.675   2.021 -0.0034  2.9068  1.4054
  505MOL0     H68128   5.621  10.680   2.187 -0.8277 -0.7428  0.5537
  505MOL0     H68129   5.807  10.633   2.040  0.0810 -0.1249 -0.1842
  505MOL0     H68130   5.774  10.512   2.157 -0.8201 -0.8384 -0.4318
  505MOL0     H68131   5.667  10.372   1.973  1.3635 -2.5911 -2.4254
  505MOL0     H68132   5.843  10.397   1.955  0.1825  1.6533 -0.9703
  505MOL0     H68133   5.631  10.561   1.813  2.0450  2.7647 -0.8590
  505MOL0     H68134   5.718  10.428   1.735  0.5969 -2.0891  1.0949
  505MOL0     H68135   5.996  10.744   1.921  0.1477  0.3793 -0.8417
  505MOL0     H68136   6.232  10.739   1.893 -0.1339  0.9003 -1.7954
  505MOL0     H68137   6.542  10.918   1.787 -1.2824 -2.2132 -0.3524
  505MOL0     H68138   6.775  10.983   1.802  1.0788  1.5038  1.7488
  505MOL0     H68139   7.038  10.781   1.627  0.5489 -0.7930  0.5661
  505MOL0     H68140   7.049  10.944   1.703  0.3263 -0.1394 -1.1049
  505MOL0     H68141   7.211  10.826   1.875 -3.8523  2.0941  0.1347
  505MOL0     H68142   7.209  10.695   1.754  1.3923 -0.6618 -2.7739
  505MOL0     H68143   7.296  10.828   1.582 -0.3833  2.9149 -0.7136
  505MOL0     H68144   7.294  10.982   1.682 -2.6946  0.5593  0.5686
  505MOL0     H68145   7.451  10.731   1.778 -3.2908  1.0808  1.9864
  505MOL0     H68146   7.493  10.892   1.816  2.9341 -1.6925 -0.4668
  505MOL0     H68147   7.556  10.960   1.615 -2.0490  0.0820 -4.2689
  505MOL0     H68148   7.505  10.812   1.533 -2.4633 -2.3753  1.8646
  505MOL0     H68149   7.764  10.828   1.593 -1.3429 -0.8428 -1.7063
  505MOL0     H68150   7.730  10.800   1.756  0.9802  1.8742 -1.3792
  505MOL0     H68151   7.617  10.607   1.545 -0.7010 -0.9956  0.3997
  505MOL0     H68152   7.618  10.593   1.721  2.1792 -1.0436 -0.0300
  505MOL0     H68153   7.812  10.446   1.636 -3.1119 -0.3926 -1.6088
  505MOL0     H68154   7.868  10.579   1.546 -0.2260 -0.1437  0.2023
  505MOL0     H68155   6.892  10.572   1.764 -3.1274 -3.4648  3.1911
  505MOL0     H68156   6.663  10.499   1.735  1.5955  0.9338 -1.9958
  505MOL0     H68157   6.173  10.442   1.582 -2.9381 -0.8268  0.0194
  505MOL0     H68158   5.943  10.454   1.613 -0.4523 -1.0041  0.9135
  505MOL0     H68159   4.565  10.695   1.479  0.2075 -0.5479  1.1029
  505MOL0     H68160   4.414  10.791   1.313 -0.6466 -0.6315 -1.3642
  505MOL0     H68161   4.053  10.568   0.913 -2.5223 -1.6657 -2.2141
  505MOL0     H68162   3.845  10.652   0.794 -1.9122 -1.0334  0.9254
  505MOL0     H68163   3.667  10.728   0.725  1.8875 -1.4058  0.5076
  505MOL0     H68164   3.507  10.789   0.768 -1.0934 -2.0380  0.9389
  505MOL0     H68165   3.638  10.571   0.918 -1.0938 -1.2336 -0.9768
  505MOL0     H68166   3.502  10.552   0.807 -0.7480  0.2587 -0.0131
  505MOL0     H68167   3.377  10.719   0.970 -0.1911 -1.2243 -1.1550
  505MOL0     H68168   3.516  10.717   1.066 -1.2783  0.0427  0.4574
  505MOL0     H68169   3.396  10.448   0.977  0.2631  0.2088  0.5685
  505MOL0     H68170   3.505  10.485   1.107 -1.4868 -1.5942 -0.8318
  505MOL0     H68171   3.159  10.542   1.320  0.7241  2.1117  1.2563
  505MOL0     H68172   3.762  10.910   1.102  0.2852  1.9453 -0.2922
  505MOL0     H68173   3.900  10.955   1.298  0.6731  0.9169  0.2454
  505MOL0     H68174   3.957  10.791   1.335 -3.2193  0.7198  0.7245
  505MOL0     H68175   4.072  10.916   1.295  0.6413 -1.7988  0.9499
  506MOL0     O68176   7.481   8.665   8.100  0.1329 -0.7790 -0.0616
  506MOL0     C68177   7.393   8.667   8.010 -0.3082  0.4750  0.5550
  506MOL0     O68178   7.328   8.555   7.957  0.0981 -0.0032  0.2613
  506MOL0     C68179   7.390   8.432   7.957  0.0110 -0.0829 -0.5345
  506MOL0     C68180   7.532   8.413   7.964  0.7037 -0.3246 -0.1703
  506MOL0     C68181   7.587   8.283   7.966  0.4628  0.6650 -0.0705
  506MOL0     C68182   7.500   8.174   7.978 -0.1825 -0.0499  0.1260
  506MOL0     O68183   7.542   8.052   7.978 -0.0077  0.4111  0.1402
  506MOL0     C68184   7.592   8.008   8.106  0.1489  0.0722  0.9583
  506MOL0     C68185   7.686   7.886   8.088  0.8853 -0.2047  0.5356
  506MOL0     C68186   7.708   7.821   8.226 -0.3610  0.2122  0.7214
  506MOL0     C68187   7.789   7.692   8.209  0.3383 -0.4695  1.1662
  506MOL0     C68188   7.824   7.646   8.352 -0.2128 -0.7234  0.0986
  506MOL0     C68189   7.920   7.531   8.348  0.3475  0.1813 -0.0919
  506MOL0     C68190   7.941   7.475   8.489  0.5959  0.4327  0.3412
  506MOL0     C68191   8.060   7.548   8.559  0.4601 -0.0621 -0.5877
  506MOL0     N68192   8.102   7.468   8.672  0.1016 -0.3922 -0.2181
  506MOL0     C68193   8.228   7.419   8.679 -0.2374 -0.2072  0.8592
  506MOL0     C68194   8.238   7.381   8.808 -0.2300  0.6284 -0.9790
  506MOL0     C68195   8.365   7.313   8.855  0.2805  0.8844 -0.1071
  506MOL0     C68196   8.334   7.175   8.917 -0.5771 -0.1137 -0.0545
  506MOL0     C68197   8.452   7.082   8.920 -0.6071  0.5300  0.1030
  506MOL0     C68198   8.555   7.112   9.029  1.1175 -0.5441  0.0069
  506MOL0     O68199   8.641   7.217   8.996  0.1822 -0.3725 -0.1740
  506MOL0     C68200   8.764   7.200   9.055 -0.2387 -0.0896 -0.5997
  506MOL0     C68201   8.782   7.250   9.184  0.4288  0.1296  0.6494
  506MOL0     C68202   8.907   7.258   9.242 -0.2741  0.4940 -0.0234
  506MOL0     C68203   9.019   7.233   9.171 -0.0970  0.7433  1.6435
  506MOL0     C68204   9.160   7.246   9.219 -0.3697 -0.4355  0.5300
  506MOL0     O68205   9.251   7.254   9.123  0.2279  0.9983  0.1313
  506MOL0     C68206   9.382   7.276   9.147 -0.6666  0.3342  0.9862
  506MOL0     C68207   9.474   7.196   9.079 -0.5359  1.1223 -0.2102
  506MOL0     C68208   9.612   7.218   9.098 -0.2502  0.3441  0.1135
  506MOL0     C68209   9.660   7.321   9.181 -0.4516 -0.0545 -0.2149
  506MOL0     O68210   9.790   7.355   9.179  0.8541 -0.3222 -0.0580
  506MOL0     C68211   9.823   7.486   9.127  0.0106 -0.1903 -0.5382
  506MOL0     C68212   9.871   7.462   8.993 -0.8113 -0.3591  0.4463
  506MOL0     C68213   9.868   7.595   8.909  0.4352 -0.5312  0.4129
  506MOL0     C68214   9.920   7.567   8.771 -0.3362  0.0063 -0.2120
  506MOL0     C68215   9.925   7.696   8.690  0.2862 -0.0833  1.2054
  506MOL0     C68216   9.992   7.676   8.556 -0.1361  0.9705 -0.2881
  506MOL0     C68217   9.932   7.558   8.472 -0.2659  0.4288  0.0807
  506MOL0     C68218   9.967   7.556   8.324  0.0930 -0.2899  0.0999
  506MOL0    Cl68219  10.131   7.526   8.290 -0.4240  0.0904  0.1577
  506MOL0     C68220   9.563   7.388   9.256  0.5711  0.2673  0.1814
  506MOL0     C68221   9.429   7.370   9.236  0.2445 -0.4874  0.4577
  506MOL0     O68222   9.182   7.256   9.340  0.2023  1.1429  0.3644
  506MOL0     C68223   9.004   7.178   9.040  0.5839  0.0939  0.1313
  506MOL0     C68224   8.876   7.170   8.984 -0.5601 -0.5913  0.9512
  506MOL0     N68225   8.125   7.410   8.874 -0.5034 -0.7258 -1.2724
  506MOL0     N68226   8.047   7.474   8.794  0.9105 -0.2693  0.5591
  506MOL0     C68227   7.362   8.190   7.962 -0.0389 -0.0050 -0.1567
  506MOL0     C68228   7.309   8.318   7.952  0.8379  0.7314  0.6991
  506MOL0     C68229   7.342   8.804   7.963  0.2600 -0.4394 -0.2191
  506MOL0     C68230   7.423   8.917   7.998 -0.3309 -0.1188  0.0986
  506MOL0     C68231   7.403   9.047   7.950  0.8917  0.3440  0.0405
  506MOL0     C68232   7.283   9.070   7.883  0.1080 -0.7849 -1.0164
  506MOL0     O68233   7.268   9.198   7.840 -0.1252  0.9759 -0.2328
  506MOL0     C68234   7.154   9.232   7.762  0.3570 -0.7379  0.0417
  506MOL0     C68235   7.161   9.366   7.689  0.1149 -0.4342  1.1491
  506MOL0     C68236   7.053   9.404   7.593  0.3408 -0.2809  0.6327
  506MOL0     C68237   6.976   9.533   7.608  0.1319  0.2547 -0.8631
  506MOL0     C68238   6.886   9.547   7.496 -0.2192  0.4293 -0.4812
  506MOL0     C68239   6.817   9.551   7.391  0.7763  0.7253 -0.2660
  506MOL0     C68240   7.200   8.963   7.857  0.1383 -0.4246  0.1409
  506MOL0     C68241   7.229   8.830   7.890 -0.7524  0.1315  0.1580
  506MOL0     C68242   7.118   8.718   7.851 -0.0196 -0.5565 -0.0627
  506MOL0     H68243   7.601   8.497   7.964 -0.8241  0.9961  0.7987
  506MOL0     H68244   7.695   8.277   7.975  0.3224 -0.2770  1.2348
  506MOL0     H68245   7.653   8.094   8.134  0.0993  0.9181 -1.3392
  506MOL0     H68246   7.508   7.992   8.175  0.4592 -1.8492  0.9622
  506MOL0     H68247   7.783   7.916   8.047  0.7763 -0.2545  0.2337
  506MOL0     H68248   7.644   7.807   8.025  1.3873 -1.9958  2.3319
  506MOL0     H68249   7.613   7.793   8.272  0.2718 -2.2905  0.6518
  506MOL0     H68250   7.757   7.894   8.291  0.0272  1.3133 -0.7452
  506MOL0     H68251   7.736   7.615   8.152  0.5877 -1.7422  2.5672
  506MOL0     H68252   7.883   7.714   8.157 -0.7287 -0.4789 -0.8691
  506MOL0     H68253   7.878   7.726   8.405  0.5658  0.0636 -1.8068
  506MOL0     H68254   7.733   7.627   8.409 -2.3190  3.8068 -1.2988
  506MOL0     H68255   7.879   7.444   8.296  0.3553 -1.0558  1.8909
  506MOL0     H68256   8.015   7.560   8.300  1.4146  0.7620  2.2030
  506MOL0     H68257   7.957   7.367   8.481 -1.6742 -0.1043  1.8477
  506MOL0     H68258   7.856   7.488   8.557  4.0647  0.5212  5.1861
  506MOL0     H68259   8.147   7.569   8.496 -0.0859 -2.2764 -2.2377
  506MOL0     H68260   8.019   7.640   8.601  2.2128 -0.7845  3.1382
  506MOL0     H68261   8.300   7.416   8.597  0.3147  0.5751  1.2993
  506MOL0     H68262   8.433   7.301   8.770  0.2560  0.5399 -0.0772
  506MOL0     H68263   8.425   7.367   8.929  1.1092 -2.1076  1.5307
  506MOL0     H68264   8.297   7.175   9.020  3.2173  1.5080  1.4919
  506MOL0     H68265   8.262   7.127   8.850  0.7231 -2.8456  0.3927
  506MOL0     H68266   8.513   7.083   8.829  2.5445 -1.1166  2.0154
  506MOL0     H68267   8.412   6.982   8.932 -2.2656  0.5998 -3.4950
  506MOL0     H68268   8.615   7.024   9.054  2.4167  0.1520 -0.5770
  506MOL0     H68269   8.499   7.148   9.116  1.1990  0.9557 -0.5335
  506MOL0     H68270   8.701   7.285   9.247  0.1086  1.2815 -0.3595
  506MOL0     H68271   8.912   7.293   9.345 -1.8028  1.6920 -0.3225
  506MOL0     H68272   9.444   7.110   9.020  1.1899  1.1256 -1.1811
  506MOL0     H68273   9.685   7.156   9.047 -1.4651 -1.1107  0.0763
  506MOL0     H68274   9.743   7.561   9.131 -0.5829 -0.8499  0.6993
  506MOL0     H68275   9.899   7.538   9.186 -0.2270 -0.6184  0.1662
  506MOL0     H68276   9.974   7.426   8.998 -0.6238  0.3338  2.6321
  506MOL0     H68277   9.824   7.374   8.948  1.5287 -1.8542  0.7495
  506MOL0     H68278   9.764   7.626   8.901  1.0110  1.1402 -1.8436
  506MOL0     H68279   9.917   7.679   8.958 -1.2629 -0.3032  1.7828
  506MOL0     H68280   9.855   7.490   8.726 -0.0331 -0.3469 -0.0517
  506MOL0     H68281  10.024   7.532   8.768 -0.9041 -2.1903  2.2449
  506MOL0     H68282   9.987   7.770   8.741  0.0580  1.4001 -0.5532
  506MOL0     H68283   9.827   7.741   8.670  1.1048  0.3837 -2.4742
  506MOL0     H68284   9.994   7.772   8.503  1.2210  1.1835  0.0896
  506MOL0     H68285  10.095   7.648   8.583  0.0225  2.7919  1.2421
  506MOL0     H68286   9.823   7.569   8.479 -0.3640  2.3272 -2.6858
  506MOL0     H68287   9.952   7.462   8.520  0.5584 -0.1896 -1.4211
  506MOL0     H68288   9.900   7.481   8.280 -0.9356  1.0594 -0.7235
  506MOL0     H68289   9.948   7.653   8.277  0.8031  0.4738  1.3348
  506MOL0     H68290   9.584   7.469   9.326 -4.1002 -0.1146  2.4064
  506MOL0     H68291   9.354   7.435   9.282  0.6255  2.7192 -2.9948
  506MOL0     H68292   9.092   7.162   8.979  1.7995  1.2904  1.4773
  506MOL0     H68293   8.859   7.132   8.884 -1.3108  0.4451  0.6612
  506MOL0     H68294   7.315   8.093   7.948  2.0412 -1.1907  0.6019
  506MOL0     H68295   7.203   8.335   7.934  0.9366  2.6477  1.6950
  506MOL0     H68296   7.517   8.904   8.049  0.1913  2.8264  0.0550
  506MOL0     H68297   7.479   9.122   7.968  3.1055 -1.9045  0.6581
  506MOL0     H68298   7.061   9.237   7.819  0.1369  0.4609 -0.4092
  506MOL0     H68299   7.138   9.151   7.689 -1.5195  0.0563 -0.4887
  506MOL0     H68300   7.254   9.357   7.631 -0.8420 -1.0714 -0.3269
  506MOL0     H68301   7.175   9.456   7.750  0.6500  1.3077 -1.3686
  506MOL0     H68302   6.981   9.322   7.582 -1.1179  1.0994 -0.7435
  506MOL0     H68303   7.105   9.413   7.497  0.7553 -0.0840  0.8735
  506MOL0     H68304   6.928   9.530   7.706  2.6744  1.1082  0.4989
  506MOL0     H68305   7.050   9.613   7.617  0.9634 -0.2268 -2.8825
  506MOL0     H68306   6.772   9.546   7.294 -0.6454  4.3270  0.0662
  506MOL0     H68307   7.104   8.979   7.807 -0.0005 -0.7383  0.3118
  506MOL0     H68308   7.086   8.648   7.928 -2.2391  0.5053  0.0879
  506MOL0     H68309   7.034   8.767   7.799  0.3080 -0.0073 -0.0764
  506MOL0     H68310   7.164   8.654   7.775 -0.6747  0.4448 -1.3644
  507MOL0     O68311   2.787   4.476   4.846  0.2998 -0.0366  0.2964
  507MOL0     C68312   2.699   4.395   4.881 -0.0923  0.0296  0.3804
  507MOL0     O68313   2.718   4.258   4.901  1.0071 -1.1222 -0.4997
  507MOL0     C68314   2.843   4.206   4.916 -0.9063 -0.4064 -0.2369
  507MOL0     C68315   2.878   4.098   4.835 -0.5177 -0.2076 -0.4779
  507MOL0     C68316   3.002   4.034   4.853  0.3867 -0.6298 -0.3352
  507MOL0     C68317   3.089   4.082   4.949 -0.2954 -0.1961  0.7294
  507MOL0     O68318   3.207   4.016   4.948 -0.3654 -0.0647 -0.8458
  507MOL0     C68319   3.333   4.092   4.965  0.3634 -0.8530  0.1839
  507MOL0     C68320   3.383   4.092   5.108  0.0272 -0.3152 -0.1445
  507MOL0     C68321   3.519   4.160   5.144 -0.5505  0.3303  0.3273
  507MOL0     C68322   3.642   4.096   5.066 -0.3578  0.1772  0.5615
  507MOL0     C68323   3.766   4.111   5.159 -0.2511 -0.4402  0.4331
  507MOL0     C68324   3.900   4.067   5.090 -0.5978 -0.2295  0.1373
  507MOL0     C68325   4.004   4.069   5.200 -0.1256  1.0373  0.5389
  507MOL0     C68326   4.008   3.934   5.271  0.8292  0.4163 -0.7577
  507MOL0     N68327   4.126   3.914   5.353 -0.8731 -0.5850 -0.3166
  507MOL0     C68328   4.129   3.833   5.464 -0.3844 -0.1136  0.3451
  507MOL0     C68329   4.250   3.864   5.517  0.4527 -0.1046 -0.1330
  507MOL0     C68330   4.312   3.779   5.631 -0.3202 -0.6599  0.3055
  507MOL0     C68331   4.317   3.844   5.766 -0.3872  0.2256  0.0778
  507MOL0     C68332   4.412   3.966   5.764 -0.2949  0.3477 -0.7943
  507MOL0     C68333   4.560   3.929   5.761  0.5155  0.7667  0.5748
  507MOL0     O68334   4.601   3.844   5.868 -0.4221 -0.1436  0.0311
  507MOL0     C68335   4.733   3.834   5.901  0.2831  1.0095  0.8606
  507MOL0     C68336   4.848   3.876   5.827 -0.7443  0.2124  0.0401
  507MOL0     C68337   4.974   3.863   5.889  0.2073 -0.8433 -0.3696
  507MOL0     C68338   4.981   3.810   6.026  0.6465 -0.3019 -0.3404
  507MOL0     C68339   5.117   3.773   6.088 -0.2138 -0.8118  0.6347
  507MOL0     O68340   5.118   3.733   6.223  0.1857  0.3151 -0.7258
  507MOL0     C68341   5.233   3.727   6.292  0.9025  0.7163  0.5249
  507MOL0     C68342   5.262   3.616   6.371  0.0099 -0.1623  0.6266
  507MOL0     C68343   5.379   3.617   6.443 -0.2132  0.2027  0.3643
  507MOL0     C68344   5.465   3.722   6.442  0.0332  0.0706  0.3818
  507MOL0     O68345   5.579   3.712   6.514  0.0260  0.5335 -0.5293
  507MOL0     C68346   5.675   3.819   6.513 -0.1974  0.2221 -0.6810
  507MOL0     C68347   5.808   3.778   6.587  0.4700 -0.6732  0.1414
  507MOL0     C68348   5.923   3.876   6.557 -0.6202  0.1281 -0.9228
  507MOL0     C68349   6.043   3.822   6.636 -0.4161 -0.3246  0.1560
  507MOL0     C68350   6.165   3.900   6.609 -0.0801 -0.4766  0.0773
  507MOL0     C68351   6.290   3.816   6.636 -0.6628 -0.6639  0.0078
  507MOL0     C68352   6.416   3.907   6.638  0.1035  0.5606  0.6934
  507MOL0     C68353   6.534   3.804   6.617  0.2925 -0.1337  0.4175
  507MOL0    Cl68354   6.562   3.711   6.766  0.3322  0.2311 -0.0775
  507MOL0     C68355   5.429   3.838   6.374  0.3237 -0.3257  0.1632
  507MOL0     C68356   5.315   3.841   6.296 -0.6265  0.1925  0.2346
  507MOL0     O68357   5.212   3.794   6.017 -0.9311  1.0384 -0.3556
  507MOL0     C68358   4.864   3.773   6.093  0.5879 -0.8631 -1.2325
  507MOL0     C68359   4.741   3.780   6.033  0.3815  0.2096 -0.2656
  507MOL0     N68360   4.311   3.962   5.449  0.5392  0.2960 -0.3486
  507MOL0     N68361   4.240   3.988   5.342 -0.1664 -0.3472  0.2886
  507MOL0     C68362   3.055   4.195   5.030  0.0883 -0.4337  0.2046
  507MOL0     C68363   2.934   4.264   5.012  0.0313 -0.1434  0.6397
  507MOL0     C68364   2.561   4.436   4.889 -0.1702  0.8910  0.3189
  507MOL0     C68365   2.525   4.543   4.803  0.1281  0.1279 -0.0505
  507MOL0     C68366   2.396   4.577   4.788 -0.1354 -0.2379 -0.8290
  507MOL0     C68367   2.294   4.529   4.864 -0.2511  1.1817 -0.4503
  507MOL0     O68368   2.172   4.587   4.852  0.0252  0.0751  0.2497
  507MOL0     C68369   2.053   4.507   4.856  0.0702  0.4936 -0.2655
  507MOL0     C68370   1.995   4.489   4.719  0.0395  0.6779  0.4296
  507MOL0     C68371   1.863   4.404   4.730  0.3988 -0.9782  0.0940
  507MOL0     C68372   1.797   4.371   4.601 -0.0964 -0.7656 -0.2857
  507MOL0     C68373   1.770   4.490   4.520 -0.0789  1.4382 -0.3425
  507MOL0     C68374   1.773   4.596   4.465  1.0620 -0.2019  0.0886
  507MOL0     C68375   2.332   4.430   4.962 -0.0771  0.1256  0.6217
  507MOL0     C68376   2.468   4.385   4.977  0.0673  0.6136 -0.6709
  507MOL0     C68377   2.501   4.295   5.100  0.8072 -1.5504  0.4315
  507MOL0     H68378   2.808   4.058   4.762 -0.9086  0.1770 -0.3160
  507MOL0     H68379   3.033   3.951   4.791 -2.2881 -1.6588 -0.4132
  507MOL0     H68380   3.409   4.055   4.896 -0.4193  1.8201 -2.2816
  507MOL0     H68381   3.312   4.194   4.933 -1.6873 -0.6025  2.0969
  507MOL0     H68382   3.395   3.986   5.130  4.4466 -0.4785 -2.2662
  507MOL0     H68383   3.302   4.129   5.171 -1.4908 -0.8402 -1.7121
  507MOL0     H68384   3.532   4.147   5.252 -1.2253  2.4741  0.7051
  507MOL0     H68385   3.516   4.268   5.128 -0.5863  0.1008 -1.4272
  507MOL0     H68386   3.625   3.993   5.035 -2.6335  0.8773 -0.7396
  507MOL0     H68387   3.663   4.157   4.977  1.7337  2.1273  2.2309
  507MOL0     H68388   3.778   4.214   5.194  3.8085 -0.4364 -0.5131
  507MOL0     H68389   3.742   4.051   5.247 -0.9038 -0.2060  0.4202
  507MOL0     H68390   3.887   3.966   5.049 -1.4341 -0.4026  0.7958
  507MOL0     H68391   3.935   4.137   5.013 -0.6634  0.2733  0.5545
  507MOL0     H68392   3.974   4.142   5.275 -1.9806 -0.7157  1.6093
  507MOL0     H68393   4.098   4.085   5.146  0.5084 -1.9256  0.5873
  507MOL0     H68394   3.927   3.932   5.345  0.6424  1.5990 -0.9187
  507MOL0     H68395   3.995   3.846   5.208  2.6655  0.3676 -1.1248
  507MOL0     H68396   4.066   3.748   5.488 -1.8550  0.8804  0.1658
  507MOL0     H68397   4.260   3.684   5.644  1.0506 -1.2777  1.6011
  507MOL0     H68398   4.411   3.741   5.603 -0.4899  0.8429 -2.7659
  507MOL0     H68399   4.218   3.889   5.781  0.2714  1.7997 -0.0998
  507MOL0     H68400   4.351   3.782   5.849  0.1737 -0.2478 -0.4910
  507MOL0     H68401   4.400   4.017   5.860  3.4674 -0.8578  0.5177
  507MOL0     H68402   4.391   4.035   5.682  0.4191  3.2118  1.2973
  507MOL0     H68403   4.611   4.024   5.774 -1.5064  2.2637 -1.5584
  507MOL0     H68404   4.575   3.891   5.659 -0.2450  1.7883  0.0596
  507MOL0     H68405   4.834   3.906   5.724 -0.4094  2.0102  0.4875
  507MOL0     H68406   5.058   3.895   5.828 -1.4084  2.1154 -1.2361
  507MOL0     H68407   5.201   3.527   6.374  0.2748 -0.3308  1.0726
  507MOL0     H68408   5.407   3.540   6.515 -0.2983  1.2204  1.5214
  507MOL0     H68409   5.701   3.848   6.411 -2.6680 -0.1159 -1.4889
  507MOL0     H68410   5.639   3.906   6.569 -2.1818  1.8964 -4.2006
  507MOL0     H68411   5.784   3.780   6.693  0.7838  0.8567  0.2074
  507MOL0     H68412   5.843   3.677   6.566  3.3819  0.3864 -0.5479
  507MOL0     H68413   5.957   3.880   6.454  1.8802 -0.3194 -0.1707
  507MOL0     H68414   5.903   3.974   6.602  3.9445  0.2463  1.3616
  507MOL0     H68415   6.064   3.726   6.588  2.6053  0.8723 -1.2602
  507MOL0     H68416   6.020   3.806   6.741  1.0382  4.6353  1.5147
  507MOL0     H68417   6.166   3.992   6.669  1.9514 -0.0601 -0.5342
  507MOL0     H68418   6.153   3.939   6.508 -2.4746 -1.8667 -0.2620
  507MOL0     H68419   6.279   3.777   6.738 -2.5450 -5.5325 -1.7741
  507MOL0     H68420   6.294   3.725   6.575  2.2022 -0.0472 -0.8892
  507MOL0     H68421   6.418   3.961   6.732 -0.4328 -1.1353  1.7276
  507MOL0     H68422   6.414   3.976   6.553  1.3295 -2.3273 -1.8995
  507MOL0     H68423   6.503   3.728   6.544  1.7915 -2.6199  2.1997
  507MOL0     H68424   6.626   3.857   6.593  0.2614 -0.1681  0.2236
  507MOL0     H68425   5.484   3.931   6.367  0.1420 -0.3453 -2.8663
  507MOL0     H68426   5.281   3.933   6.250 -2.2875  1.3270  3.4680
  507MOL0     H68427   4.871   3.730   6.193  1.5880 -1.6007 -1.5982
  507MOL0     H68428   4.649   3.754   6.085  0.7115  0.2622  0.3625
  507MOL0     H68429   3.129   4.247   5.090  2.0577  0.7565 -2.9695
  507MOL0     H68430   2.917   4.356   5.067  0.9699 -0.5795  1.7075
  507MOL0     H68431   2.596   4.593   4.738  2.0202  0.4026  2.1253
  507MOL0     H68432   2.368   4.661   4.725 -0.7018 -0.4628 -0.8799
  507MOL0     H68433   1.970   4.555   4.910  0.7259 -0.0161  1.2427
  507MOL0     H68434   2.068   4.407   4.898 -2.6453 -0.7231 -1.8651
  507MOL0     H68435   2.073   4.439   4.660 -1.1533 -1.5742  0.6593
  507MOL0     H68436   1.974   4.587   4.677  2.1519  0.6787 -0.8042
  507MOL0     H68437   1.793   4.461   4.790  0.8000 -0.9464  0.5382
  507MOL0     H68438   1.896   4.313   4.780  0.6780 -1.9072 -1.6783
  507MOL0     H68439   1.848   4.297   4.539 -0.1889  0.5142 -1.9775
  507MOL0     H68440   1.700   4.324   4.623 -0.3695 -0.5376 -0.9727
  507MOL0     H68441   1.800   4.697   4.439  3.3505 -0.5530  0.8396
  507MOL0     H68442   2.254   4.392   5.028  0.0309 -1.6946 -0.2295
  507MOL0     H68443   2.431   4.215   5.125  0.2692 -1.5109 -0.8614
  507MOL0     H68444   2.600   4.249   5.096  2.1100  1.0615  0.4225
  507MOL0     H68445   2.502   4.363   5.186  0.8196  1.1346 -1.5670
  508MOL0     O68446   2.359   4.471   5.661  0.1116  0.0982  0.3998
  508MOL0     C68447   2.361   4.533   5.554  0.6273 -0.1811 -0.0475
  508MOL0     O68448   2.470   4.587   5.497 -0.6749 -0.1781  0.3236
  508MOL0     C68449   2.598   4.567   5.538 -0.1415 -0.1929 -0.0819
  508MOL0     C68450   2.641   4.536   5.667 -0.4300  0.0675 -0.7394
  508MOL0     C68451   2.780   4.543   5.698 -0.2588  0.5398  0.3439
  508MOL0     C68452   2.883   4.560   5.592  0.9833 -0.7133 -0.4153
  508MOL0     O68453   3.012   4.557   5.634  0.8202 -0.1067  1.4227
  508MOL0     C68454   3.106   4.625   5.552  0.7852 -0.7197  0.5540
  508MOL0     C68455   3.250   4.616   5.613  0.0142 -0.0845  0.5287
  508MOL0     C68456   3.287   4.734   5.708  0.4938 -0.0774 -0.0848
  508MOL0     C68457   3.429   4.720   5.750  0.2876 -0.1776  0.2614
  508MOL0     C68458   3.523   4.838   5.711  0.3584 -0.0918 -0.1497
  508MOL0     C68459   3.574   4.844   5.564  0.3339 -0.4857  0.1788
  508MOL0     C68460   3.683   4.956   5.544  1.3435  0.2271  0.5687
  508MOL0     C68461   3.818   4.903   5.505 -0.3415  0.5073 -0.4611
  508MOL0     N68462   3.896   4.880   5.623 -0.8881 -0.1879  0.6355
  508MOL0     C68463   4.003   4.784   5.617  0.1399 -0.3460  0.1445
  508MOL0     C68464   4.080   4.813   5.730  0.3381  0.2299  0.2350
  508MOL0     C68465   4.214   4.751   5.761  0.3289 -0.2518 -0.7875
  508MOL0     C68466   4.330   4.840   5.720  0.5755 -0.6049  0.0283
  508MOL0     C68467   4.327   4.860   5.574 -0.4637 -0.8370  0.1194
  508MOL0     C68468   4.445   4.940   5.526 -0.2233  0.1414 -0.1393
  508MOL0     O68469   4.567   4.868   5.542 -0.2603 -0.9608 -0.2602
  508MOL0     C68470   4.686   4.941   5.532 -0.3420  0.9249  0.6123
  508MOL0     C68471   4.703   5.037   5.439  0.6046  0.0766  0.5643
  508MOL0     C68472   4.833   5.090   5.421 -0.1807 -0.2614  0.7264
  508MOL0     C68473   4.945   5.067   5.503  0.8471  0.0867  0.0956
  508MOL0     C68474   5.068   5.136   5.481 -0.3273  0.4204 -0.4888
  508MOL0     O68475   5.061   5.236   5.381  0.2894  0.1265 -0.3079
  508MOL0     C68476   5.164   5.319   5.340 -0.1257  0.0806 -0.0330
  508MOL0     C68477   5.135   5.419   5.246  0.8604 -0.8978  1.0805
  508MOL0     C68478   5.231   5.504   5.187  0.0807 -0.6247 -0.1429
  508MOL0     C68479   5.367   5.501   5.234  0.3203  0.1260  0.5310
  508MOL0     O68480   5.471   5.576   5.181 -0.4162  0.6134  0.4839
  508MOL0     C68481   5.450   5.640   5.054 -0.5837 -0.2660  0.6911
  508MOL0     C68482   5.580   5.682   4.990 -0.5885 -0.3929 -0.3211
  508MOL0     C68483   5.641   5.815   5.047 -0.1170 -0.3813 -0.7034
  508MOL0     C68484   5.694   5.809   5.195  0.8353 -0.0220  0.5631
  508MOL0     C68485   5.794   5.926   5.216 -0.4270  0.4267 -0.2986
  508MOL0     C68486   5.926   5.905   5.142  0.2889 -1.0485 -0.2359
  508MOL0     C68487   6.024   6.016   5.186  0.8151 -0.4225 -0.8284
  508MOL0     C68488   6.165   5.972   5.167  0.4698 -0.0518  0.4261
  508MOL0    Cl68489   6.215   5.878   5.320 -0.3133 -0.4439 -0.1219
  508MOL0     C68490   5.397   5.414   5.345  0.5090 -0.7202 -0.0939
  508MOL0     C68491   5.307   5.319   5.391  0.7827  0.3379 -0.0953
  508MOL0     O68492   5.168   5.101   5.545 -0.1655 -0.2974 -0.2288
  508MOL0     C68493   4.923   4.962   5.594 -0.1775 -0.3391 -0.5732
  508MOL0     C68494   4.796   4.900   5.608  0.0880 -0.3653 -1.1493
  508MOL0     N68495   4.029   4.919   5.795 -0.1266 -0.1556 -0.2958
  508MOL0     N68496   3.915   4.956   5.734 -0.3323 -0.8908  0.4912
  508MOL0     C68497   2.833   4.583   5.463 -0.0785  0.3152  0.8942
  508MOL0     C68498   2.692   4.583   5.439 -0.1691  0.1478  0.4969
  508MOL0     C68499   2.239   4.543   5.469 -0.2299 -0.2131  0.4037
  508MOL0     C68500   2.251   4.579   5.335 -0.1292  0.2428  0.1318
  508MOL0     C68501   2.139   4.572   5.251 -0.2553  0.2996 -0.3120
  508MOL0     C68502   2.015   4.531   5.290  0.0920 -0.6407 -0.1530
  508MOL0     O68503   1.905   4.538   5.205  0.4055  0.4438 -0.2162
  508MOL0     C68504   1.787   4.610   5.257 -0.0104 -0.9575  0.4035
  508MOL0     C68505   1.685   4.657   5.162  0.0701  0.4719  0.2081
  508MOL0     C68506   1.654   4.542   5.069  0.6243 -0.6159  0.0285
  508MOL0     C68507   1.562   4.595   4.956 -0.0579 -0.7798  0.0479
  508MOL0     C68508   1.506   4.483   4.891 -0.0328 -0.1175  0.0538
  508MOL0     C68509   1.435   4.390   4.856 -0.0342  0.4346  0.6206
  508MOL0     C68510   1.998   4.511   5.426  0.3820 -0.8805  0.2558
  508MOL0     C68511   2.106   4.518   5.519  0.9883  0.1834 -0.2694
  508MOL0     C68512   2.059   4.507   5.664 -1.2586 -0.1552 -0.1467
  508MOL0     H68513   2.574   4.505   5.746  2.6629 -2.6671  1.0607
  508MOL0     H68514   2.798   4.516   5.802 -3.4448 -0.4568  0.7409
  508MOL0     H68515   3.105   4.576   5.454  0.0696 -0.5362  0.4590
  508MOL0     H68516   3.074   4.728   5.540 -0.1591 -1.1071 -0.4469
  508MOL0     H68517   3.324   4.591   5.537 -2.0960 -1.6736 -1.1630
  508MOL0     H68518   3.249   4.524   5.673 -0.1340  0.2517  1.0510
  508MOL0     H68519   3.217   4.729   5.792 -0.7834 -1.0325 -1.1685
  508MOL0     H68520   3.275   4.829   5.656  0.4161  0.4761  0.9193
  508MOL0     H68521   3.430   4.704   5.858 -0.1494  2.1417  0.6580
  508MOL0     H68522   3.468   4.630   5.702 -0.2171 -1.3459  1.9378
  508MOL0     H68523   3.483   4.935   5.739 -0.4695  0.2477 -2.3166
  508MOL0     H68524   3.611   4.823   5.775 -0.0504  0.5882  0.5886
  508MOL0     H68525   3.613   4.750   5.524  0.6066  0.2753 -1.4136
  508MOL0     H68526   3.485   4.882   5.513 -0.5409  0.1505  2.0663
  508MOL0     H68527   3.681   5.023   5.630 -2.2339  2.2134 -0.8407
  508MOL0     H68528   3.649   5.023   5.465 -2.8401 -2.5429 -0.2873
  508MOL0     H68529   3.804   4.803   5.463 -0.7921  0.1252  0.5585
  508MOL0     H68530   3.865   4.971   5.433  0.1088  0.9822  0.2701
  508MOL0     H68531   4.024   4.707   5.544 -1.7277 -1.2020  0.4591
  508MOL0     H68532   4.230   4.733   5.868  0.8220  1.4025 -0.5571
  508MOL0     H68533   4.220   4.656   5.706 -0.4389 -0.5952 -0.3021
  508MOL0     H68534   4.325   4.940   5.763 -0.7085  0.3025 -2.0499
  508MOL0     H68535   4.424   4.799   5.757  0.0744  0.0320  2.1360
  508MOL0     H68536   4.238   4.919   5.550  0.6472  1.2944  0.9845
  508MOL0     H68537   4.323   4.761   5.528 -1.5328 -0.7170 -0.0764
  508MOL0     H68538   4.454   5.042   5.565  0.7504 -0.0968  0.2729
  508MOL0     H68539   4.428   4.951   5.418 -0.7819  0.5611 -0.0148
  508MOL0     H68540   4.626   5.059   5.366  1.8666 -0.7291 -1.0711
  508MOL0     H68541   4.846   5.153   5.333 -1.0178 -0.0160  0.7643
  508MOL0     H68542   5.038   5.441   5.204  1.7020  0.6353 -0.1806
  508MOL0     H68543   5.198   5.554   5.097  1.3998 -1.6828 -1.2622
  508MOL0     H68544   5.407   5.566   4.986 -1.1766 -0.7234  1.5404
  508MOL0     H68545   5.384   5.727   5.055  0.3111  0.7355 -4.0086
  508MOL0     H68546   5.650   5.597   4.994 -1.6569 -1.2793  3.7755
  508MOL0     H68547   5.559   5.693   4.883  2.8770  0.5524 -1.0530
  508MOL0     H68548   5.732   5.828   4.987 -0.8940  2.6781 -1.3937
  508MOL0     H68549   5.572   5.899   5.042  0.1329  0.0795  2.0084
  508MOL0     H68550   5.745   5.713   5.205  1.1335  0.2246  1.5027
  508MOL0     H68551   5.625   5.815   5.279  0.5117  2.4652  0.2113
  508MOL0     H68552   5.821   5.939   5.321  0.8787 -1.4437 -0.3567
  508MOL0     H68553   5.748   6.018   5.180  1.4278  1.3765 -0.3134
  508MOL0     H68554   5.976   5.808   5.153  1.3470 -0.5006 -0.1038
  508MOL0     H68555   5.906   5.930   5.038 -0.7291 -1.3214 -0.1148
  508MOL0     H68556   6.005   6.057   5.285  1.1792 -0.3685 -0.7780
  508MOL0     H68557   6.002   6.101   5.120  0.5208 -0.9466 -1.4214
  508MOL0     H68558   6.173   5.909   5.077  1.4066 -0.7892  1.0090
  508MOL0     H68559   6.227   6.059   5.143 -1.3768  0.4739 -3.1742
  508MOL0     H68560   5.492   5.419   5.398  0.2930 -1.7318  0.4148
  508MOL0     H68561   5.336   5.235   5.454 -3.0815 -2.4700 -1.6302
  508MOL0     H68562   5.003   4.935   5.662 -1.2249 -2.7670 -0.1727
  508MOL0     H68563   4.795   4.818   5.679  1.8960  3.2154  3.5739
  508MOL0     H68564   2.902   4.591   5.380 -2.9978 -2.1945 -2.0821
  508MOL0     H68565   2.660   4.595   5.337 -2.4708 -1.9356  0.8824
  508MOL0     H68566   2.349   4.598   5.293  0.5680 -0.4147  1.3904
  508MOL0     H68567   2.151   4.602   5.147 -0.0292  0.5618 -0.2101
  508MOL0     H68568   1.822   4.697   5.313 -1.4319 -0.3309  0.3677
  508MOL0     H68569   1.733   4.546   5.328 -3.2690  2.2848  1.1222
  508MOL0     H68570   1.728   4.728   5.091 -3.5959  0.9251 -1.8127
  508MOL0     H68571   1.597   4.690   5.219 -0.0918 -1.0697  0.9084
  508MOL0     H68572   1.594   4.467   5.123 -1.2002 -0.6104 -1.8555
  508MOL0     H68573   1.742   4.496   5.023  1.9963  3.0995 -1.4055
  508MOL0     H68574   1.490   4.666   4.996  0.7845  0.5542 -0.7318
  508MOL0     H68575   1.619   4.651   4.881 -2.4485  3.0267  0.8158
  508MOL0     H68576   1.379   4.305   4.824 -0.0036  0.6518 -0.0172
  508MOL0     H68577   1.900   4.484   5.465 -1.1491  1.7168 -1.4733
  508MOL0     H68578   2.112   4.579   5.726  1.5752 -0.8807 -1.5646
  508MOL0     H68579   1.952   4.524   5.677 -1.7026 -0.3310 -2.8826
  508MOL0     H68580   2.081   4.409   5.706 -0.3583  0.5744  1.1733
  509MOL0     O68581   4.666   0.143   3.123 -0.7455  0.4504  0.7664
  509MOL0     C68582   4.577   0.070   3.086  0.6118 -0.1036  0.1730
  509MOL0     O68583   4.593  -0.016   2.988  0.7109  0.2254 -0.1502
  509MOL0     C68584   4.712  -0.022   2.923 -0.1807 -0.7880  0.3918
  509MOL0     C68585   4.758   0.090   2.859  0.7238  0.3566 -0.0947
  509MOL0     C68586   4.866   0.079   2.771  0.7027 -0.3366 -0.6778
  509MOL0     C68587   4.930  -0.043   2.750  0.0892 -0.2151  0.0197
  509MOL0     O68588   5.049  -0.059   2.678  0.3374 -0.7847 -0.3661
  509MOL0     C68589   5.128   0.063   2.631 -0.2056 -0.4865 -0.8634
  509MOL0     C68590   5.250   0.023   2.545  0.0274 -0.0962  0.0511
  509MOL0     C68591   5.358  -0.050   2.619 -0.7420 -0.4727 -0.2005
  509MOL0     C68592   5.486  -0.066   2.542 -0.1171  0.2520 -0.6357
  509MOL0     C68593   5.614  -0.059   2.632  0.4035  1.3166  0.0888
  509MOL0     C68594   5.740  -0.113   2.569 -0.5316 -0.4785 -0.6134
  509MOL0     C68595   5.862  -0.107   2.669  0.1472 -0.9811 -0.3094
  509MOL0     C68596   5.999  -0.096   2.603 -0.1530  0.5894  0.2679
  509MOL0     N68597   6.103  -0.090   2.702  0.5912 -0.0977  0.4903
  509MOL0     C68598   6.221  -0.039   2.659 -0.6134  0.1675  0.7140
  509MOL0     C68599   6.318  -0.098   2.732  0.8378  0.4304  0.0682
  509MOL0     C68600   6.461  -0.060   2.711  0.4030  0.1693  0.0450
  509MOL0     C68601   6.558  -0.100   2.829  1.2694  0.6481  0.1522
  509MOL0     C68602   6.690  -0.041   2.783  0.7651 -0.7259  0.2541
  509MOL0     C68603   6.802  -0.032   2.889  0.7683 -0.0338 -0.4713
  509MOL0     O68604   6.925   0.010   2.841 -0.2536  0.2581  0.2015
  509MOL0     C68605   7.035   0.001   2.919 -0.3554  0.1669 -0.3438
  509MOL0     C68606   7.163   0.027   2.859 -0.6174 -0.2040 -0.2635
  509MOL0     C68607   7.281  -0.005   2.911  0.5157 -0.0240  0.6102
  509MOL0     C68608   7.287  -0.045   3.041  0.6273 -0.7636 -0.6147
  509MOL0     C68609   7.417  -0.081   3.096  0.9459  0.2027 -0.3267
  509MOL0     O68610   7.509  -0.137   3.013 -0.1431 -0.5354 -0.2365
  509MOL0     C68611   7.627  -0.201   3.041 -0.8448  0.6836  0.3425
  509MOL0     C68612   7.714  -0.164   3.143 -0.2494 -0.8404 -0.7442
  509MOL0     C68613   7.842  -0.213   3.162 -0.5203  0.6131  0.3403
  509MOL0     C68614   7.889  -0.311   3.073  0.1908  1.0839 -0.2868
  509MOL0     O68615   8.020  -0.352   3.088  0.6967  0.3598 -0.1063
  509MOL0     C68616   8.051  -0.435   3.205 -0.0872  0.2029  0.1724
  509MOL0     C68617   8.186  -0.515   3.183 -0.4574 -0.7822 -0.6364
  509MOL0     C68618   8.193  -0.605   3.054  1.1809 -0.1591  0.1242
  509MOL0     C68619   8.311  -0.704   3.060 -0.5098  0.5807 -0.3591
  509MOL0     C68620   8.326  -0.786   2.927  0.2315  0.9801  0.3281
  509MOL0     C68621   8.464  -0.862   2.925  0.5897 -0.9562  0.5595
  509MOL0     C68622   8.460  -0.978   3.031  0.0068 -0.6215 -0.1809
  509MOL0     C68623   8.583  -1.073   2.996 -0.0531  0.2333 -0.3827
  509MOL0    Cl68624   8.733  -0.986   3.043 -0.2768  0.1500 -0.5007
  509MOL0     C68625   7.802  -0.355   2.972 -0.0917 -0.4422  0.9394
  509MOL0     C68626   7.671  -0.301   2.946 -0.5820 -0.2547 -0.0817
  509MOL0     O68627   7.430  -0.069   3.210 -0.0311  0.0119 -0.2462
  509MOL0     C68628   7.165  -0.068   3.115  1.0383  0.1603 -0.7602
  509MOL0     C68629   7.041  -0.038   3.061  0.3846 -0.2547 -0.3067
  509MOL0     N68630   6.253  -0.192   2.822 -0.0038 -0.2350 -0.5650
  509MOL0     N68631   6.122  -0.185   2.803  0.1638 -0.0011  0.4233
  509MOL0     C68632   4.872  -0.161   2.805 -0.4706 -0.6338 -0.7101
  509MOL0     C68633   4.761  -0.147   2.887  0.7731  0.3806  0.5010
  509MOL0     C68634   4.446   0.070   3.144 -0.0862 -0.2756  1.5206
  509MOL0     C68635   4.331   0.100   3.074 -0.4726 -0.0024  0.3724
  509MOL0     C68636   4.203   0.096   3.132 -0.2004  0.2072  0.6602
  509MOL0     C68637   4.193   0.060   3.264  0.4668  0.2519 -0.5499
  509MOL0     O68638   4.067   0.070   3.312 -0.2338 -0.3883 -0.3996
  509MOL0     C68639   4.036  -0.035   3.406 -0.3458  0.0495 -0.0306
  509MOL0     C68640   3.910  -0.100   3.369  0.0603  0.5354  0.6152
  509MOL0     C68641   3.787  -0.016   3.374 -0.6977 -0.7449 -0.6477
  509MOL0     C68642   3.658  -0.097   3.361 -0.1580  0.5289  0.0783
  509MOL0     C68643   3.654  -0.189   3.241  0.3787 -0.0568 -0.2139
  509MOL0     C68644   3.663  -0.259   3.145  0.4606  0.6252 -0.0573
  509MOL0     C68645   4.308   0.030   3.342 -0.9249  0.0987  0.4666
  509MOL0     C68646   4.432   0.043   3.281 -0.7966  0.5254 -0.5981
  509MOL0     C68647   4.554   0.010   3.373  0.2204  0.4596  0.6751
  509MOL0     H68648   4.710   0.186   2.873  0.9159  0.8460 -2.3615
  509MOL0     H68649   4.888   0.177   2.729 -2.2464 -0.3758 -2.6491
  509MOL0     H68650   5.059   0.131   2.580 -0.6107 -0.6166 -0.4982
  509MOL0     H68651   5.159   0.127   2.714 -1.1307 -2.2227  0.9246
  509MOL0     H68652   5.283   0.108   2.484 -5.4009  0.8462 -2.1977
  509MOL0     H68653   5.205  -0.039   2.466 -1.5427  2.2418 -1.0219
  509MOL0     H68654   5.332  -0.151   2.652  0.5351 -0.2906  1.4945
  509MOL0     H68655   5.380   0.010   2.708 -3.1202  0.0100  0.1506
  509MOL0     H68656   5.494  -0.161   2.489  0.5193  0.4685 -0.9317
  509MOL0     H68657   5.489   0.013   2.466 -1.8127 -0.5880 -1.6433
  509MOL0     H68658   5.627   0.046   2.662 -2.0181  1.1268  2.1925
  509MOL0     H68659   5.598  -0.116   2.724 -0.5684 -0.4817 -1.1432
  509MOL0     H68660   5.728  -0.211   2.523 -0.5647  0.5740 -2.9990
  509MOL0     H68661   5.757  -0.051   2.479 -3.6669  0.1533 -0.8738
  509MOL0     H68662   5.857  -0.189   2.742  0.5950  0.4676  1.4063
  509MOL0     H68663   5.843  -0.014   2.723  1.7976 -0.9006  0.1911
  509MOL0     H68664   6.017  -0.181   2.536 -1.4267 -0.7353  1.5246
  509MOL0     H68665   6.004  -0.011   2.534  0.1965  0.5490  0.2376
  509MOL0     H68666   6.237   0.036   2.583  0.2942 -1.5243 -0.8372
  509MOL0     H68667   6.486  -0.112   2.618  0.9979 -0.2778  0.4499
  509MOL0     H68668   6.463   0.048   2.692  0.1947  0.3219  0.8385
  509MOL0     H68669   6.524  -0.063   2.926  0.8616  1.0118 -0.1296
  509MOL0     H68670   6.554  -0.210   2.829 -0.1598  0.6651 -1.4726
  509MOL0     H68671   6.678   0.065   2.758  2.3828 -0.4085  0.6989
  509MOL0     H68672   6.735  -0.095   2.699  0.2031  1.0473 -1.2711
  509MOL0     H68673   6.815  -0.128   2.940  3.1289  1.8825  2.9151
  509MOL0     H68674   6.776   0.046   2.961  3.9728  0.6324  0.1262
  509MOL0     H68675   7.162   0.063   2.756  0.2419  2.1185  0.4823
  509MOL0     H68676   7.366   0.003   2.844  1.2711  1.0708  1.6832
  509MOL0     H68677   7.681  -0.079   3.202  1.6740 -0.6306  0.1032
  509MOL0     H68678   7.927  -0.180   3.220  0.5621 -1.5512  0.0864
  509MOL0     H68679   8.067  -0.364   3.286  0.3429  0.0628  0.2123
  509MOL0     H68680   7.971  -0.507   3.225  0.0141 -0.8435 -2.6614
  509MOL0     H68681   8.261  -0.436   3.171 -3.0648  1.6429 -2.3823
  509MOL0     H68682   8.208  -0.574   3.272  1.0276 -1.5187 -1.4368
  509MOL0     H68683   8.101  -0.662   3.040  1.0875 -0.6000  2.1711
  509MOL0     H68684   8.205  -0.538   2.968 -2.7418  1.5357  0.6833
  509MOL0     H68685   8.308  -0.763   3.152  0.5279  0.1734 -0.5711
  509MOL0     H68686   8.397  -0.638   3.071 -0.3805  0.6749 -1.7604
  509MOL0     H68687   8.320  -0.716   2.843  0.6455  0.3508 -0.2328
  509MOL0     H68688   8.238  -0.850   2.921 -0.4648  2.0241 -1.0180
  509MOL0     H68689   8.491  -0.898   2.825 -1.9910  2.3934 -1.5310
  509MOL0     H68690   8.541  -0.787   2.946 -0.2888  0.0777  0.1624
  509MOL0     H68691   8.367  -1.036   3.030 -0.6228  0.2568  2.2081
  509MOL0     H68692   8.472  -0.945   3.134  0.8032  0.4608 -0.6038
  509MOL0     H68693   8.575  -1.169   3.048 -0.3105 -0.3488 -1.4798
  509MOL0     H68694   8.590  -1.097   2.890  1.3483 -0.1278 -0.2317
  509MOL0     H68695   7.830  -0.438   2.908 -2.3075 -2.5587  2.5234
  509MOL0     H68696   7.609  -0.324   2.860 -1.0836  2.9577 -0.7004
  509MOL0     H68697   7.181  -0.101   3.217  1.1933  0.6761 -0.6132
  509MOL0     H68698   6.956  -0.049   3.128 -0.5097 -2.8949 -1.7313
  509MOL0     H68699   4.912  -0.261   2.793  0.8659 -0.7259  3.0909
  509MOL0     H68700   4.710  -0.238   2.917 -0.6162  0.5760 -1.1186
  509MOL0     H68701   4.348   0.132   2.972  2.5102 -1.1082  0.4251
  509MOL0     H68702   4.112   0.112   3.075 -0.0559  1.8137  0.8518
  509MOL0     H68703   4.043  -0.008   3.512  2.7655  1.0527 -0.3842
  509MOL0     H68704   4.108  -0.117   3.396  0.3946  0.5658  0.8695
  509MOL0     H68705   3.896  -0.193   3.425 -0.8413  0.2395 -0.0730
  509MOL0     H68706   3.925  -0.126   3.264  0.0025  3.3001 -0.1382
  509MOL0     H68707   3.805   0.051   3.289  1.0186 -0.2348  0.0811
  509MOL0     H68708   3.784   0.044   3.465  2.2368 -2.5057  0.7478
  509MOL0     H68709   3.658  -0.152   3.455  4.5374 -0.8081 -0.4532
  509MOL0     H68710   3.575  -0.025   3.356  1.4185  2.4139 -3.9196
  509MOL0     H68711   3.676  -0.305   3.049  0.7225  0.0405  0.2553
  509MOL0     H68712   4.298   0.014   3.449  0.5814 -0.3575  0.5695
  509MOL0     H68713   4.575  -0.096   3.384  1.7780  0.8501  1.7490
  509MOL0     H68714   4.649   0.051   3.338 -0.5292  0.3196 -1.7521
  509MOL0     H68715   4.529   0.060   3.467 -0.6893 -1.8294  1.7225
  510MOL0     O68716   6.121  10.758   8.230  0.4489 -0.5760 -0.0252
  510MOL0     C68717   6.088  10.743   8.111  0.9043  0.4424 -0.2682
  510MOL0     O68718   6.170  10.767   8.005  0.3714  0.2253 -0.5389
  510MOL0     C68719   6.284  10.845   8.021  0.4734  0.6293  0.2715
  510MOL0     C68720   6.407  10.776   8.015  0.1401  0.7514  0.0936
  510MOL0     C68721   6.529  10.840   8.013  0.7921  0.0749  0.4240
  510MOL0     C68722   6.527  10.981   8.051  0.4161 -0.7288  0.3577
  510MOL0     O68723   6.640  11.051   8.080 -0.2793 -0.3158  0.0652
  510MOL0     C68724   6.758  10.978   8.060  0.6794  0.0649  0.9594
  510MOL0     C68725   6.864  11.032   8.148 -0.4041 -0.4871  0.3897
  510MOL0     C68726   6.995  10.949   8.136  0.5465  0.1003  0.3548
  510MOL0     C68727   7.054  10.950   7.986  0.3274 -0.5468  0.0379
  510MOL0     C68728   7.192  10.873   7.980  0.5355 -0.1562 -0.5774
  510MOL0     C68729   7.267  10.909   7.851  0.0526 -0.0742 -0.1695
  510MOL0     C68730   7.390  10.826   7.822  0.3786  0.8943  1.1594
  510MOL0     C68731   7.509  10.881   7.910  0.1965 -0.4522 -0.2404
  510MOL0     N68732   7.644  10.841   7.863  0.4158 -0.5865 -0.1101
  510MOL0     C68733   7.690  10.862   7.735 -0.0128 -0.0300 -0.6979
  510MOL0     C68734   7.827  10.837   7.734  0.6485 -0.3688  0.3231
  510MOL0     C68735   7.911  10.834   7.605 -1.1983  0.2693 -0.8674
  510MOL0     C68736   8.066  10.839   7.639  0.2686  0.4809  0.5457
  510MOL0     C68737   8.150  10.810   7.510 -0.4286  0.0500  0.1778
  510MOL0     C68738   8.140  10.927   7.418  0.8673  0.3194  0.2409
  510MOL0     O68739   8.207  10.883   7.296  0.5455 -0.0599  0.3473
  510MOL0     C68740   8.339  10.922   7.274  0.5237  0.5816  0.5481
  510MOL0     C68741   8.426  10.964   7.373  0.2772  0.2295 -0.5725
  510MOL0     C68742   8.553  11.001   7.336 -0.2217 -0.0011  0.0276
  510MOL0     C68743   8.598  10.997   7.204 -0.0943  0.5593  0.7640
  510MOL0     C68744   8.747  11.005   7.174  0.8789 -0.3393 -0.1331
  510MOL0     O68745   8.785  10.966   7.052  0.5050  0.1682  0.1860
  510MOL0     C68746   8.914  10.982   7.029 -0.6855  0.7085  0.6553
  510MOL0     C68747   8.994  11.095   7.053  0.0856  0.1339 -0.4348
  510MOL0     C68748   9.126  11.111   7.006 -0.1237  0.2824  0.3998
  510MOL0     C68749   9.183  11.008   6.928  0.5765  0.3254  0.0710
  510MOL0     O68750   9.304  11.029   6.875 -0.0168 -0.2359  0.0801
  510MOL0     C68751   9.379  10.916   6.824 -0.3092 -0.5031 -0.3915
  510MOL0     C68752   9.521  10.968   6.798  0.3959 -0.3951  0.3906
  510MOL0     C68753   9.594  10.997   6.930  0.3742  0.5845  0.0152
  510MOL0     C68754   9.735  11.054   6.897  0.2127 -0.3540 -0.6403
  510MOL0     C68755   9.856  10.955   6.917 -0.5092  0.1474 -0.5162
  510MOL0     C68756   9.980  11.036   6.898  0.4715 -1.3139  0.7058
  510MOL0     C68757  10.100  10.938   6.892  0.2202  0.3577 -0.3246
  510MOL0     C68758  10.228  11.022   6.899  1.2179  0.3781 -0.9206
  510MOL0    Cl68759  10.371  10.921   6.830  0.2323  0.5493 -0.0102
  510MOL0     C68760   9.106  10.892   6.906 -0.1869 -0.3087  0.8387
  510MOL0     C68761   8.974  10.881   6.953  0.1977  0.3966 -0.0816
  510MOL0     O68762   8.819  11.035   7.269 -0.3631 -0.1325 -0.2715
  510MOL0     C68763   8.507  10.954   7.104  0.0512  0.2662 -0.0466
  510MOL0     C68764   8.385  10.919   7.147  0.7298  0.3913 -0.3817
  510MOL0     N68765   7.856  10.810   7.865  0.0218  0.3494 -0.1411
  510MOL0     N68766   7.755  10.819   7.940  0.4779  0.4105  0.4658
  510MOL0     C68767   6.408  11.049   8.055  0.5677 -0.3920  1.2295
  510MOL0     C68768   6.284  10.983   8.040 -0.3094 -0.1941 -0.0590
  510MOL0     C68769   5.945  10.702   8.089 -0.8621 -0.5049  0.1065
  510MOL0     C68770   5.873  10.666   8.207 -0.1156  0.5454  0.2941
  510MOL0     C68771   5.740  10.640   8.197  0.4611 -0.3312 -0.7611
  510MOL0     C68772   5.668  10.639   8.078  0.0344 -0.1097 -0.4318
  510MOL0     O68773   5.539  10.594   8.084 -0.6663  0.7196 -0.1756
  510MOL0     C68774   5.460  10.612   7.966 -0.4817 -0.0170 -0.6495
  510MOL0     C68775   5.314  10.584   7.998  0.1571  0.5976 -0.0272
  510MOL0     C68776   5.281  10.438   8.041 -0.0846 -0.8534 -0.8832
  510MOL0     C68777   5.186  10.420   8.158 -0.3053  0.4632  0.1236
  510MOL0     C68778   5.053  10.464   8.116 -0.4175  0.1884  0.4487
  510MOL0     C68779   4.940  10.493   8.084  0.3959 -0.5061 -0.2224
  510MOL0     C68780   5.738  10.671   7.959  0.3463 -0.3304 -0.1673
  510MOL0     C68781   5.874  10.707   7.964  0.5553 -0.5743 -0.7196
  510MOL0     C68782   5.941  10.741   7.840  0.2692 -0.0713  0.0983
  510MOL0     H68783   6.415  10.669   8.006  1.7856  0.8698 -0.1777
  510MOL0     H68784   6.609  10.767   8.004  0.5142 -0.6231  2.9252
  510MOL0     H68785   6.746  10.876   8.098 -0.4450  0.3604  1.4451
  510MOL0     H68786   6.788  10.974   7.955 -0.3509  1.1341  0.6001
  510MOL0     H68787   6.844  11.012   8.254  0.1861 -0.4923  0.5020
  510MOL0     H68788   6.879  11.139   8.135  1.1741 -0.8497 -1.0941
  510MOL0     H68789   6.970  10.844   8.156 -2.5465  0.4857 -0.9612
  510MOL0     H68790   7.069  10.983   8.208 -0.1701 -1.9936  2.1837
  510MOL0     H68791   6.981  10.906   7.917 -2.0803  1.7106  0.9674
  510MOL0     H68792   7.064  11.056   7.962  0.1382 -0.6986 -0.7303
  510MOL0     H68793   7.245  10.911   8.068 -1.5431 -2.1975  1.7235
  510MOL0     H68794   7.180  10.765   7.981  0.3030 -0.1630 -1.9517
  510MOL0     H68795   7.196  10.881   7.773 -1.9647  0.7758  1.2640
  510MOL0     H68796   7.291  11.016   7.847 -2.1764  0.4522 -0.9280
  510MOL0     H68797   7.424  10.827   7.718  3.8911 -0.2047  2.1498
  510MOL0     H68798   7.380  10.722   7.854 -0.3256  1.4343  2.8300
  510MOL0     H68799   7.492  10.989   7.908  0.7247 -0.3722 -2.3168
  510MOL0     H68800   7.502  10.839   8.011 -0.6425 -2.1428 -0.9751
  510MOL0     H68801   7.630  10.889   7.649 -1.1727  1.6218  0.5609
  510MOL0     H68802   7.895  10.754   7.533  3.3285 -0.3090 -1.5252
  510MOL0     H68803   7.880  10.922   7.548 -0.1058 -0.4235 -2.6024
  510MOL0     H68804   8.107  10.930   7.683 -0.0898  1.0399 -0.2527
  510MOL0     H68805   8.089  10.766   7.716 -0.6907 -1.2407 -0.7319
  510MOL0     H68806   8.121  10.720   7.456  2.1028 -0.4308 -0.4902
  510MOL0     H68807   8.254  10.802   7.542 -0.6395 -1.2102  0.6066
  510MOL0     H68808   8.178  11.022   7.457  1.9369  0.9028 -2.0354
  510MOL0     H68809   8.036  10.936   7.388  0.4073 -1.7941  1.0936
  510MOL0     H68810   8.387  10.956   7.475  1.4192  1.0502 -0.0528
  510MOL0     H68811   8.625  11.034   7.410 -1.0318 -2.3611  1.9922
  510MOL0     H68812   8.955  11.177   7.113  2.4117  0.3892  0.8135
  510MOL0     H68813   9.193  11.194   7.026  0.2205  0.2833 -0.7063
  510MOL0     H68814   9.387  10.838   6.900  2.9862  0.7976  0.7693
  510MOL0     H68815   9.348  10.880   6.726  1.5039 -0.7009 -0.9276
  510MOL0     H68816   9.577  10.894   6.740 -0.0166  0.2250 -0.8166
  510MOL0     H68817   9.519  11.067   6.751  1.3210  0.0696  1.2686
  510MOL0     H68818   9.540  11.078   6.979 -1.3701  1.8111 -3.6192
  510MOL0     H68819   9.592  10.900   6.981 -1.7157  0.0364 -1.0274
  510MOL0     H68820   9.750  11.129   6.974 -3.2745 -1.7842  1.7020
  510MOL0     H68821   9.742  11.097   6.797  1.2605 -0.3774 -0.5855
  510MOL0     H68822   9.860  10.876   6.842  0.8027  0.6485 -1.0166
  510MOL0     H68823   9.860  10.916   7.019  2.5887  0.6124 -0.3547
  510MOL0     H68824   9.972  11.080   6.799 -0.0467 -4.0302 -0.5529
  510MOL0     H68825   9.992  11.111   6.977 -1.9362 -2.9575  2.8126
  510MOL0     H68826  10.104  10.877   6.801 -1.2368 -1.3624  0.6857
  510MOL0     H68827  10.103  10.863   6.972  2.1267  0.9870  0.2327
  510MOL0     H68828  10.219  11.106   6.830 -1.0582 -1.6197 -3.2894
  510MOL0     H68829  10.255  11.052   7.001  1.0253  1.9159 -1.2990
  510MOL0     H68830   9.149  10.802   6.864 -0.9214 -0.6318  0.7755
  510MOL0     H68831   8.918  10.789   6.937  3.1988 -1.7821  1.0153
  510MOL0     H68832   8.535  10.937   7.001  0.4918 -1.0466  0.2721
  510MOL0     H68833   8.321  10.900   7.062  2.6749  2.2655 -2.4047
  510MOL0     H68834   6.414  11.155   8.078 -2.1535  0.1575 -0.1973
  510MOL0     H68835   6.188  11.033   8.048  0.2965  0.8320  1.0757
  510MOL0     H68836   5.919  10.654   8.304 -1.2835 -0.0202  0.7918
  510MOL0     H68837   5.690  10.616   8.290 -2.3657  1.2876 -1.7299
  510MOL0     H68838   5.498  10.537   7.896  0.7165 -1.3341  1.3339
  510MOL0     H68839   5.472  10.713   7.926  1.9842 -0.1216 -0.3615
  510MOL0     H68840   5.249  10.616   7.916  1.0990  1.9571 -0.2800
  510MOL0     H68841   5.281  10.646   8.083 -0.4495  1.1099 -0.6279
  510MOL0     H68842   5.371  10.384   8.074 -0.1385 -1.4137 -1.6181
  510MOL0     H68843   5.242  10.385   7.953 -3.3540 -2.7204  1.4614
  510MOL0     H68844   5.196  10.316   8.192  0.2164  1.1094  2.1242
  510MOL0     H68845   5.224  10.475   8.245  0.1736 -2.0339  1.6243
  510MOL0     H68846   4.839  10.525   8.065  0.8679  1.4862  0.3833
  510MOL0     H68847   5.683  10.669   7.865 -0.6026 -0.6873  0.3853
  510MOL0     H68848   5.981  10.843   7.840  1.8993 -0.6584 -1.3097
  510MOL0     H68849   6.025  10.673   7.822  0.3321 -0.2302  0.9775
  510MOL0     H68850   5.884  10.730   7.747 -0.0053  1.3506  0.0825
  511MOL0     O68851   0.775   9.451   7.295  0.5058 -0.3737 -0.4515
  511MOL0     C68852   0.865   9.530   7.337 -0.4715 -0.2791  0.6215
  511MOL0     O68853   1.001   9.519   7.323  0.7242 -0.1647  0.0936
  511MOL0     C68854   1.062   9.407   7.279  0.3991  0.3580 -0.1542
  511MOL0     C68855   0.995   9.301   7.206  0.2139 -0.6402 -0.2394
  511MOL0     C68856   1.074   9.186   7.183 -0.2911 -0.3442 -0.0360
  511MOL0     C68857   1.208   9.175   7.209 -0.2884 -0.3185 -0.3255
  511MOL0     O68858   1.282   9.064   7.184 -0.2930 -0.0085 -0.0651
  511MOL0     C68859   1.421   9.051   7.199  0.6580 -0.8213 -0.7700
  511MOL0     C68860   1.440   8.903   7.171  0.3142  0.0726 -0.4697
  511MOL0     C68861   1.584   8.865   7.192 -0.1389 -0.9614  0.1492
  511MOL0     C68862   1.625   8.738   7.124 -0.2614 -0.3627  0.2527
  511MOL0     C68863   1.777   8.719   7.138  0.1787  0.3234 -0.1222
  511MOL0     C68864   1.814   8.568   7.120 -0.0173 -1.4774 -0.1193
  511MOL0     C68865   1.955   8.532   7.154 -0.8547 -0.0836  0.5371
  511MOL0     C68866   1.983   8.539   7.298  0.4150 -0.0767 -0.8800
  511MOL0     N68867   2.129   8.515   7.311  0.2409  0.3395 -0.3911
  511MOL0     C68868   2.187   8.393   7.291 -0.4064 -0.2730 -0.9287
  511MOL0     C68869   2.314   8.430   7.308  0.3350  0.5383  0.9315
  511MOL0     C68870   2.430   8.337   7.293  0.0188 -0.1703 -0.0776
  511MOL0     C68871   2.521   8.358   7.418 -0.3795 -0.4755 -0.3475
  511MOL0     C68872   2.640   8.263   7.392 -0.8382 -0.1335  0.1619
  511MOL0     C68873   2.756   8.276   7.501 -0.3446 -0.9800 -0.2178
  511MOL0     O68874   2.808   8.413   7.515 -0.4326 -0.6394  0.5268
  511MOL0     C68875   2.919   8.436   7.596  0.5471  0.5297  0.2077
  511MOL0     C68876   2.995   8.556   7.584  0.3400  0.2569 -0.3108
  511MOL0     C68877   3.113   8.581   7.669  0.2494  0.0604 -0.6882
  511MOL0     C68878   3.162   8.479   7.751  0.3127 -0.7672  0.4910
  511MOL0     C68879   3.293   8.490   7.814 -0.6787 -0.8952 -0.7503
  511MOL0     O68880   3.360   8.612   7.804  0.0635  0.9111 -0.6774
  511MOL0     C68881   3.496   8.605   7.824 -0.2149 -0.6975  0.3872
  511MOL0     C68882   3.538   8.588   7.950 -0.3784  0.0834 -0.8568
  511MOL0     C68883   3.678   8.595   7.979 -0.8083  0.8166 -0.5113
  511MOL0     C68884   3.773   8.610   7.871  0.5955  0.0404 -0.0777
  511MOL0     O68885   3.908   8.596   7.911 -0.4916 -0.3966  0.0546
  511MOL0     C68886   4.003   8.527   7.827  0.1595  0.4909 -0.2460
  511MOL0     C68887   4.136   8.497   7.897  0.0426 -0.5922 -0.4083
  511MOL0     C68888   4.209   8.634   7.931  1.4053  0.2274  0.1963
  511MOL0     C68889   4.360   8.623   7.952 -0.2628  0.3916  0.6163
  511MOL0     C68890   4.436   8.747   7.998  1.0211 -0.2492  0.1883
  511MOL0     C68891   4.579   8.719   8.047  0.5035 -0.7821 -0.3467
  511MOL0     C68892   4.655   8.845   8.075  0.1365  0.4574  0.8269
  511MOL0     C68893   4.807   8.812   8.083  0.2968  0.0507  0.0874
  511MOL0    Cl68894   4.849   8.776   8.238 -0.2396 -0.0451  0.1072
  511MOL0     C68895   3.729   8.623   7.742 -0.3645  0.7036  0.2239
  511MOL0     C68896   3.591   8.634   7.722 -1.1261  0.7079 -0.7168
  511MOL0     O68897   3.341   8.388   7.875 -0.5402 -0.2612 -0.2897
  511MOL0     C68898   3.077   8.367   7.773 -0.2500  0.0950 -0.1644
  511MOL0     C68899   2.965   8.345   7.696  0.5441  0.4286 -0.1306
  511MOL0     N68900   2.328   8.566   7.311  0.7285 -0.0883 -0.0778
  511MOL0     N68901   2.208   8.616   7.317 -0.0554  0.4124  1.2274
  511MOL0     C68902   1.267   9.279   7.279 -0.5840  0.1677 -0.6545
  511MOL0     C68903   1.197   9.393   7.311  0.7637  0.3371 -1.2414
  511MOL0     C68904   0.820   9.656   7.388  0.3614  0.0868 -0.4012
  511MOL0     C68905   0.900   9.772   7.375  0.3978 -1.0505  0.6318
  511MOL0     C68906   0.855   9.897   7.402  0.2200 -0.5439 -0.2764
  511MOL0     C68907   0.726   9.909   7.447  0.7596 -1.3231 -0.1851
  511MOL0     O68908   0.672  10.033   7.477 -1.0755 -0.0427  0.3063
  511MOL0     C68909   0.742  10.151   7.478 -0.1766 -0.0545 -0.1467
  511MOL0     C68910   0.735  10.214   7.343  0.2048  0.2826 -0.3331
  511MOL0     C68911   0.735  10.364   7.369 -0.5596  0.4936  0.1713
  511MOL0     C68912   0.854  10.428   7.446 -0.5729 -0.7730  0.3802
  511MOL0     C68913   0.986  10.402   7.386  0.0582 -0.3886  0.3737
  511MOL0     C68914   1.094  10.373   7.346 -0.2361  0.6771 -0.4212
  511MOL0     C68915   0.648   9.802   7.488  0.3551 -0.4273 -0.1161
  511MOL0     C68916   0.690   9.674   7.452 -0.0857 -0.1916 -0.5511
  511MOL0     C68917   0.611   9.561   7.505 -0.1190  0.3567 -0.1682
  511MOL0     H68918   0.895   9.288   7.165 -0.4652 -0.8361  1.4020
  511MOL0     H68919   1.042   9.112   7.110  0.2138  0.8011 -1.4910
  511MOL0     H68920   1.477   9.115   7.130  1.2286  3.6309  3.2698
  511MOL0     H68921   1.458   9.077   7.299 -0.0483 -3.2747  0.1967
  511MOL0     H68922   1.419   8.886   7.064  0.7258  1.7120 -0.8359
  511MOL0     H68923   1.375   8.841   7.233  1.3241  1.3379  1.9689
  511MOL0     H68924   1.594   8.849   7.300 -0.8734 -2.5582 -0.0017
  511MOL0     H68925   1.641   8.951   7.154 -1.5460 -0.8070 -1.7338
  511MOL0     H68926   1.564   8.648   7.141 -0.0748 -0.5708 -0.1683
  511MOL0     H68927   1.607   8.758   7.018 -0.5091  0.2990  0.4187
  511MOL0     H68928   1.849   8.780   7.082  0.5596  2.3610  2.3672
  511MOL0     H68929   1.802   8.751   7.240 -1.1362  0.4856  0.1731
  511MOL0     H68930   1.749   8.502   7.179 -2.9168 -0.1997 -1.6871
  511MOL0     H68931   1.791   8.538   7.018 -0.6171  0.6719 -0.6661
  511MOL0     H68932   2.016   8.605   7.100  0.9910 -2.2003 -0.4143
  511MOL0     H68933   1.965   8.431   7.113 -2.5563 -1.4069  3.1353
  511MOL0     H68934   1.953   8.631   7.348  1.3792 -2.2419  4.3731
  511MOL0     H68935   1.938   8.462   7.361 -0.1183  0.8712 -0.0840
  511MOL0     H68936   2.150   8.294   7.267  2.3243 -1.2876 -1.2984
  511MOL0     H68937   2.409   8.229   7.288  1.2510 -0.5148  1.3987
  511MOL0     H68938   2.487   8.371   7.205 -0.3666  0.5737 -0.0438
  511MOL0     H68939   2.547   8.464   7.427  0.5122 -0.5016 -2.0710
  511MOL0     H68940   2.465   8.318   7.503  0.3331 -1.7546 -0.4465
  511MOL0     H68941   2.691   8.282   7.297  0.4988 -0.1021  0.8558
  511MOL0     H68942   2.611   8.158   7.382 -0.5220 -0.1950 -0.1688
  511MOL0     H68943   2.848   8.223   7.473  1.3371  2.3226 -1.5591
  511MOL0     H68944   2.724   8.237   7.598 -2.7331  2.0047  0.3312
  511MOL0     H68945   2.941   8.618   7.513 -1.5955 -1.6824 -0.6076
  511MOL0     H68946   3.182   8.663   7.650  1.3154 -0.1045  1.9703
  511MOL0     H68947   3.470   8.559   8.029 -0.5734 -0.5300 -1.2413
  511MOL0     H68948   3.718   8.579   8.079 -2.3263 -1.1054 -0.1586
  511MOL0     H68949   3.960   8.439   7.779 -2.8804  2.8267 -2.1858
  511MOL0     H68950   4.021   8.594   7.742  1.3011 -0.1481 -0.5362
  511MOL0     H68951   4.111   8.454   7.995  0.1948  0.5891  0.1612
  511MOL0     H68952   4.196   8.428   7.836  1.6087 -2.0385  2.5085
  511MOL0     H68953   4.184   8.692   7.842  1.4473  1.3809  0.9175
  511MOL0     H68954   4.167   8.672   8.024  2.8250 -1.1443  1.4742
  511MOL0     H68955   4.400   8.587   7.857 -2.3893  0.2659 -0.2811
  511MOL0     H68956   4.372   8.548   8.031 -1.1970 -0.1436  0.2547
  511MOL0     H68957   4.381   8.808   8.071  1.7015  0.5790  0.0316
  511MOL0     H68958   4.446   8.808   7.908 -0.5831  1.3682  1.0414
  511MOL0     H68959   4.570   8.671   8.145  1.5664 -0.4129 -0.0511
  511MOL0     H68960   4.630   8.660   7.971 -0.8357 -0.2068 -1.7631
  511MOL0     H68961   4.623   8.894   8.168  0.5054 -4.4096  3.8841
  511MOL0     H68962   4.640   8.914   7.992 -0.3351 -2.3188 -1.5620
  511MOL0     H68963   4.823   8.721   8.024 -0.7875  0.7498 -1.3441
  511MOL0     H68964   4.871   8.896   8.051 -2.0218  1.6439 -0.6381
  511MOL0     H68965   3.802   8.633   7.663  1.0574 -0.4395  1.3295
  511MOL0     H68966   3.548   8.652   7.624 -3.1048  0.8505  0.1299
  511MOL0     H68967   3.094   8.292   7.850  1.1740 -1.0894 -1.5815
  511MOL0     H68968   2.913   8.251   7.714 -1.4797  1.3011 -1.1575
  511MOL0     H68969   1.369   9.277   7.316  0.3694 -2.3645 -3.0634
  511MOL0     H68970   1.242   9.479   7.361  2.8407  0.4479 -3.1345
  511MOL0     H68971   1.002   9.758   7.340 -0.1840 -3.3619 -0.2807
  511MOL0     H68972   0.914   9.984   7.374 -0.7450  0.8072  1.6168
  511MOL0     H68973   0.844  10.138   7.516 -0.0567 -0.8439 -0.7108
  511MOL0     H68974   0.694  10.216   7.552 -0.3071 -0.1245 -0.1716
  511MOL0     H68975   0.649  10.180   7.285  0.2600 -0.5356  0.0626
  511MOL0     H68976   0.826  10.186   7.289 -0.1619  2.1570 -2.0670
  511MOL0     H68977   0.644  10.402   7.416  1.2135  1.5125  2.9967
  511MOL0     H68978   0.737  10.410   7.270  0.2584 -0.8471 -0.4657
  511MOL0     H68979   0.835  10.535   7.452 -0.8025 -0.6304 -1.8335
  511MOL0     H68980   0.859  10.386   7.547  1.4073 -0.9597  0.2453
  511MOL0     H68981   1.176  10.327   7.296 -1.3887 -2.9311  0.7074
  511MOL0     H68982   0.551   9.796   7.535  0.8519  1.2426  1.2457
  511MOL0     H68983   0.551   9.582   7.594 -1.4940 -1.4905 -0.5854
  511MOL0     H68984   0.536   9.541   7.428  1.1536  0.7515 -1.5565
  511MOL0     H68985   0.677   9.476   7.526 -1.9371 -0.7997  1.1854
  512MOL0     O68986   9.627   5.205  10.710  0.1686  0.0381  0.0891
  512MOL0     C68987   9.608   5.150  10.816 -0.1595  0.4042 -0.7853
  512MOL0     O68988   9.705   5.114  10.907 -0.3502  0.1382 -0.2762
  512MOL0     C68989   9.840   5.156  10.899 -0.0593  0.2380  0.5407
  512MOL0     C68990   9.903   5.242  10.809 -0.3707  0.7852 -0.8749
  512MOL0     C68991  10.041   5.259  10.804 -0.5538 -0.4666 -0.2134
  512MOL0     C68992  10.128   5.207  10.899 -0.2470 -0.6587 -0.0571
  512MOL0     O68993  10.263   5.244  10.896  0.4836  0.0242  0.2266
  512MOL0     C68994  10.369   5.184  10.978 -0.1183  0.1464  1.5270
  512MOL0     C68995  10.496   5.247  10.942  0.4552  0.5794  0.7201
  512MOL0     C68996  10.620   5.187  11.005 -0.1068  0.2587  0.5742
  512MOL0     C68997  10.743   5.230  10.921 -0.1381  0.5149 -0.3143
  512MOL0     C68998  10.865   5.182  10.996 -0.1726 -0.6136 -0.0795
  512MOL0     C68999  10.992   5.250  10.949 -0.3364  0.2066  0.2396
  512MOL0     C69000  11.017   5.209  10.801 -0.1339 -0.7608 -0.5237
  512MOL0     C69001  11.157   5.262  10.750 -0.7502 -0.0542 -0.4068
  512MOL0     N69002  11.258   5.170  10.808  0.5797 -0.3999  0.3015
  512MOL0     C69003  11.273   5.044  10.757  0.6718  0.4588  0.5126
  512MOL0     C69004  11.378   4.998  10.826  0.8338  0.4666 -0.8205
  512MOL0     C69005  11.436   4.862  10.822 -0.0712  0.0291 -0.1258
  512MOL0     C69006  11.570   4.859  10.753 -0.3916  1.0127 -0.2617
  512MOL0     C69007  11.692   4.898  10.842 -0.0680 -0.1470 -0.3940
  512MOL0     C69008  11.815   4.917  10.750 -0.9059  0.1829  0.2912
  512MOL0     O69009  11.925   4.853  10.817  0.1677  0.0532 -0.6956
  512MOL0     C69010  12.044   4.854  10.757 -0.0266  0.4182  0.5613
  512MOL0     C69011  12.069   4.913  10.632  0.6675 -0.1498  0.0139
  512MOL0     C69012  12.194   4.935  10.580  0.8583  0.7065  0.9055
  512MOL0     C69013  12.312   4.885  10.652  0.5316 -0.5757 -0.6469
  512MOL0     C69014  12.453   4.909  10.606  0.8284 -0.0292 -0.3873
  512MOL0     O69015  12.468   5.013  10.521 -0.5851  0.5141  0.1480
  512MOL0     C69016  12.592   5.047  10.468  0.3810 -0.4329  0.2834
  512MOL0     C69017  12.717   5.027  10.536 -0.2011 -0.1310  1.0764
  512MOL0     C69018  12.840   5.059  10.466  0.4609 -0.5413 -0.0519
  512MOL0     C69019  12.837   5.140  10.342  0.5241  0.1632 -1.2008
  512MOL0     O69020  12.951   5.192  10.300  0.0229 -0.8676 -0.2525
  512MOL0     C69021  13.061   5.110  10.303  0.2603 -0.0839 -0.5720
  512MOL0     C69022  13.178   5.165  10.222 -1.0519 -0.5013 -0.1294
  512MOL0     C69023  13.284   5.058  10.211 -0.3928  0.4201  0.3518
  512MOL0     C69024  13.417   5.120  10.163  0.4675 -0.0663  0.3057
  512MOL0     C69025  13.533   5.021  10.142  0.5757  1.0861  0.1389
  512MOL0     C69026  13.529   4.909  10.038  0.5651  0.1598 -0.3193
  512MOL0     C69027  13.665   4.840  10.030 -0.3211  0.9361  1.2345
  512MOL0     C69028  13.652   4.714   9.943  0.5299 -0.0871 -0.5953
  512MOL0    Cl69029  13.575   4.729   9.782 -0.1696 -0.3518  0.1045
  512MOL0     C69030  12.714   5.174  10.286  0.8861 -0.2353 -0.0086
  512MOL0     C69031  12.596   5.119  10.347  0.5723 -0.6014 -0.3871
  512MOL0     O69032  12.540   4.837  10.647  0.5036  0.7213  0.2829
  512MOL0     C69033  12.280   4.822  10.776  0.2810 -0.7099 -0.2800
  512MOL0     C69034  12.150   4.805  10.828 -0.2339  0.8705 -0.6929
  512MOL0     N69035  11.408   5.092  10.925 -0.7877 -0.2134 -0.3110
  512MOL0     N69036  11.345   5.195  10.909  0.2866 -0.5930 -0.2671
  512MOL0     C69037  10.073   5.127  10.996 -0.0847 -0.2378  0.3808
  512MOL0     C69038   9.932   5.097  10.991  0.3336  0.4629 -0.1339
  512MOL0     C69039   9.469   5.148  10.870  0.3095  0.8763 -0.1220
  512MOL0     C69040   9.448   5.189  11.004 -1.0309  0.1480 -0.1793
  512MOL0     C69041   9.315   5.184  11.055  0.7813  0.7847  0.0841
  512MOL0     C69042   9.209   5.143  10.973 -0.0723 -1.1404 -0.0780
  512MOL0     O69043   9.077   5.160  11.009 -0.1095  0.0693  0.1844
  512MOL0     C69044   9.050   5.231  11.129  0.8668  0.2062  0.2533
  512MOL0     C69045   8.899   5.270  11.131  1.0085 -0.3623  0.1784
  512MOL0     C69046   8.809   5.154  11.183 -0.8443 -0.3337  0.4168
  512MOL0     C69047   8.659   5.159  11.138  0.0527  0.5853 -0.1627
  512MOL0     C69048   8.579   5.259  11.204 -0.4903 -1.0704 -0.8056
  512MOL0     C69049   8.505   5.339  11.263  0.0669 -0.3389 -0.1164
  512MOL0     C69050   9.237   5.097  10.841 -0.2666 -0.6085  0.4790
  512MOL0     C69051   9.365   5.097  10.784  0.4886 -0.3062  0.0062
  512MOL0     C69052   9.381   5.041  10.644  0.1878  0.2038 -0.7462
  512MOL0     H69053   9.849   5.302  10.737  0.0157  1.2608 -0.7816
  512MOL0     H69054  10.086   5.323  10.728  2.3184 -0.2169  1.5635
  512MOL0     H69055  10.350   5.204  11.084 -0.8849  1.0015  1.2367
  512MOL0     H69056  10.382   5.079  10.949 -0.8172  0.7752 -1.3833
  512MOL0     H69057  10.504   5.353  10.970  3.8115  0.7918 -0.5829
  512MOL0     H69058  10.520   5.246  10.835 -0.3601  1.6052  0.5111
  512MOL0     H69059  10.622   5.078  10.998 -1.7360  0.1923  0.8985
  512MOL0     H69060  10.626   5.203  11.113 -1.6419  2.2299  0.4281
  512MOL0     H69061  10.748   5.183  10.822  0.5076  0.1921 -0.1333
  512MOL0     H69062  10.742   5.340  10.912  0.0319  0.8789  2.9919
  512MOL0     H69063  10.859   5.206  11.102  0.1982 -0.5256 -0.0769
  512MOL0     H69064  10.887   5.075  10.994 -0.2355 -0.6518  0.8069
  512MOL0     H69065  10.982   5.357  10.965 -0.3951  0.0810  1.0605
  512MOL0     H69066  11.080   5.227  11.010  0.1847  2.0768  0.2596
  512MOL0     H69067  10.944   5.269  10.746  0.8124 -0.9132 -2.0002
  512MOL0     H69068  11.006   5.104  10.773  0.0428 -1.9140  3.1078
  512MOL0     H69069  11.162   5.258  10.641  0.1122 -2.8160 -0.3498
  512MOL0     H69070  11.175   5.361  10.791  1.1452 -1.5718  2.8251
  512MOL0     H69071  11.216   4.995  10.679  2.5051 -0.3641 -0.3913
  512MOL0     H69072  11.461   4.832  10.924 -2.4721 -2.6893 -0.2265
  512MOL0     H69073  11.363   4.795  10.775  1.8753 -2.7391  0.5686
  512MOL0     H69074  11.599   4.762  10.712  0.2271  1.2548 -0.4052
  512MOL0     H69075  11.576   4.925  10.666  1.3756  0.8256 -0.3120
  512MOL0     H69076  11.701   4.825  10.922 -0.3213 -2.8097 -2.6718
  512MOL0     H69077  11.651   4.986  10.893 -2.9607 -1.6012  0.0144
  512MOL0     H69078  11.836   5.025  10.758 -3.1086  0.7063 -0.4141
  512MOL0     H69079  11.794   4.891  10.646 -1.0348  1.0506  0.0876
  512MOL0     H69080  11.990   4.944  10.565  1.6817  0.6239 -0.8740
  512MOL0     H69081  12.208   4.991  10.488 -3.7212 -0.7644 -0.9503
  512MOL0     H69082  12.725   4.988  10.637  0.8547 -1.2558  0.5844
  512MOL0     H69083  12.934   5.043  10.518  0.5461 -0.3788 -0.1562
  512MOL0     H69084  13.106   5.090  10.401 -0.2253 -3.8121 -0.9543
  512MOL0     H69085  13.041   5.011  10.261  0.7023 -0.1639 -0.5996
  512MOL0     H69086  13.142   5.208  10.128  3.3806 -0.1542 -1.9452
  512MOL0     H69087  13.221   5.244  10.284 -0.4519 -2.2730  1.8079
  512MOL0     H69088  13.302   5.014  10.310  0.2299  2.9008  1.4547
  512MOL0     H69089  13.243   4.974  10.155  0.0384 -0.1396  0.8550
  512MOL0     H69090  13.435   5.193  10.243 -1.5867 -0.8382  1.5476
  512MOL0     H69091  13.401   5.166  10.065  1.6515  1.2253  0.6873
  512MOL0     H69092  13.560   4.980  10.239 -0.1017 -0.2379 -0.1990
  512MOL0     H69093  13.616   5.084  10.107  2.3740 -1.9933 -1.7002
  512MOL0     H69094  13.450   4.836  10.060 -1.6251  1.0151 -4.3155
  512MOL0     H69095  13.492   4.953   9.945  1.7002 -0.5661 -1.1405
  512MOL0     H69096  13.699   4.805  10.128 -1.9792 -2.0875  0.8371
  512MOL0     H69097  13.747   4.899   9.987  2.7713 -4.2022 -0.9103
  512MOL0     H69098  13.753   4.676   9.922  0.9091  1.1686 -1.1095
  512MOL0     H69099  13.604   4.639  10.007 -3.5368  0.2204 -2.9667
  512MOL0     H69100  12.693   5.230  10.194 -0.8594  0.0044  0.4878
  512MOL0     H69101  12.499   5.133  10.300 -0.0095 -2.1699  0.2682
  512MOL0     H69102  12.367   4.795  10.835  0.4655  1.1815  0.3864
  512MOL0     H69103  12.123   4.749  10.917 -1.4981  0.1184 -1.5129
  512MOL0     H69104  10.139   5.091  11.074  1.4476  1.4286 -0.0875
  512MOL0     H69105   9.892   5.028  11.065 -2.3327  1.4872 -0.4919
  512MOL0     H69106   9.519   5.229  11.075  1.4782  2.0219 -3.4540
  512MOL0     H69107   9.310   5.220  11.157  2.8338  0.3915  0.3749
  512MOL0     H69108   9.117   5.318  11.126  3.8095 -1.9148 -2.0110
  512MOL0     H69109   9.069   5.174  11.221  1.6734  3.5443  2.3437
  512MOL0     H69110   8.858   5.293  11.033  1.1069 -0.3650  0.1366
  512MOL0     H69111   8.897   5.365  11.185  1.4338 -1.3358  1.9987
  512MOL0     H69112   8.806   5.162  11.292  0.2825  2.6215  0.3358
  512MOL0     H69113   8.843   5.053  11.157  3.2078  1.3334 -1.8483
  512MOL0     H69114   8.659   5.183  11.032 -0.4323 -3.2161 -1.1633
  512MOL0     H69115   8.611   5.062  11.155  0.7278  0.1540 -0.6801
  512MOL0     H69116   8.445   5.415  11.309  0.5490  1.6532 -2.5578
  512MOL0     H69117   9.154   5.071  10.776  0.2507 -0.4603 -0.2557
  512MOL0     H69118   9.286   5.011  10.599 -1.3118  3.2819  0.0814
  512MOL0     H69119   9.421   5.116  10.576 -1.0403  0.4488 -1.2150
  512MOL0     H69120   9.454   4.959  10.637  0.4769  0.2425  1.2162
  513MOL0     O69121   9.260   4.667   9.175  0.1738  0.3490  0.3729
  513MOL0     C69122   9.161   4.731   9.202  0.5536 -0.4368 -0.8084
  513MOL0     O69123   9.154   4.821   9.304  0.3210  0.3477 -0.2512
  513MOL0     C69124   9.236   4.809   9.410 -0.3002  1.1028 -0.5778
  513MOL0     C69125   9.368   4.857   9.414 -0.1992 -0.9532  0.3199
  513MOL0     C69126   9.455   4.831   9.515 -0.3809  0.1877 -0.7359
  513MOL0     C69127   9.414   4.758   9.618  0.6159 -0.3242 -0.7646
  513MOL0     O69128   9.491   4.732   9.727  0.1176  0.7546  0.9313
  513MOL0     C69129   9.521   4.599   9.760 -0.2849  0.3422 -0.8510
  513MOL0     C69130   9.654   4.590   9.834 -0.2039  0.4723  0.5911
  513MOL0     C69131   9.660   4.703   9.942 -0.4947  0.5121 -1.3245
  513MOL0     C69132   9.761   4.678  10.058 -0.1540  0.7024 -0.7104
  513MOL0     C69133   9.886   4.759  10.037  0.1182 -0.7449 -0.1749
  513MOL0     C69134   9.994   4.706  10.138  0.6334 -0.3929 -0.5803
  513MOL0     C69135  10.133   4.757  10.110 -0.3925 -0.3640  0.1699
  513MOL0     C69136  10.225   4.643  10.146  0.5945 -0.2497 -0.8900
  513MOL0     N69137  10.362   4.688  10.154 -0.2860  0.0536  1.0190
  513MOL0     C69138  10.452   4.640  10.066  0.8416  0.2719 -0.5956
  513MOL0     C69139  10.572   4.680  10.120 -0.1651  1.0862  0.2951
  513MOL0     C69140  10.702   4.656  10.043  0.1884  0.4273 -0.2140
  513MOL0     C69141  10.791   4.572  10.137 -0.6849 -0.1399 -0.2301
  513MOL0     C69142  10.728   4.450  10.198 -0.2060 -1.3588 -0.6424
  513MOL0     C69143  10.838   4.371  10.263  1.1205 -0.4928 -0.9371
  513MOL0     O69144  10.905   4.302  10.154  0.0735 -0.0762  0.1426
  513MOL0     C69145  11.038   4.294  10.185 -1.0355  0.1956  0.0463
  513MOL0     C69146  11.120   4.320  10.071 -0.3884  0.0287 -0.4113
  513MOL0     C69147  11.256   4.314  10.085  0.4203  0.4036  0.0266
  513MOL0     C69148  11.315   4.271  10.205 -0.8279  0.3851  0.2144
  513MOL0     C69149  11.463   4.230  10.210  0.8797  0.4933  0.3871
  513MOL0     O69150  11.496   4.162  10.325 -0.5029 -0.2522  0.2003
  513MOL0     C69151  11.628   4.142  10.360 -0.1100 -0.4590 -0.4115
  513MOL0     C69152  11.654   4.028  10.429 -0.7401 -0.1174  0.0527
  513MOL0     C69153  11.786   4.001  10.472 -0.2177 -0.9003  0.1114
  513MOL0     C69154  11.898   4.075  10.442  0.3289  1.0389 -0.2972
  513MOL0     O69155  12.021   4.033  10.489 -0.5927 -0.2899 -0.3318
  513MOL0     C69156  12.148   4.085  10.436  0.1749 -0.1260  0.3790
  513MOL0     C69157  12.252   3.982  10.467  0.2163 -0.3748  0.1601
  513MOL0     C69158  12.393   4.036  10.415  0.8494 -0.2096  0.2157
  513MOL0     C69159  12.497   3.932  10.463  0.0824 -0.5942  0.0277
  513MOL0     C69160  12.638   3.982  10.411 -0.1812  0.3666  0.5664
  513MOL0     C69161  12.677   4.099  10.492 -0.0155 -0.3770  0.5632
  513MOL0     C69162  12.823   4.128  10.473 -0.5684  0.3483  0.2526
  513MOL0     C69163  12.871   4.244  10.555  0.0017  0.7412  0.1867
  513MOL0    Cl69164  12.856   4.206  10.727  0.0209  0.4209  0.3354
  513MOL0     C69165  11.870   4.197  10.385 -0.0909  0.4072  0.0545
  513MOL0     C69166  11.739   4.228  10.336 -0.3079 -0.5083 -0.1277
  513MOL0     O69167  11.544   4.270  10.128 -0.0528 -0.5444 -0.1560
  513MOL0     C69168  11.233   4.252  10.316  0.0944 -0.1898  0.6142
  513MOL0     C69169  11.095   4.259  10.310 -0.0129 -0.0267  0.0636
  513MOL0     N69170  10.548   4.743  10.237  0.2283 -0.4386 -0.3833
  513MOL0     N69171  10.421   4.747  10.264  0.5768 -0.0197 -0.1745
  513MOL0     C69172   9.283   4.708   9.623 -0.2178  0.4776 -0.3578
  513MOL0     C69173   9.199   4.727   9.513 -0.5049  0.4976 -0.1346
  513MOL0     C69174   9.036   4.742   9.116 -0.0225 -0.0610  0.1635
  513MOL0     C69175   8.949   4.845   9.135 -0.7811 -0.5929  0.0733
  513MOL0     C69176   8.845   4.874   9.044 -0.0616 -0.2753  0.0449
  513MOL0     C69177   8.814   4.771   8.951 -0.0161 -0.3721 -0.1353
  513MOL0     O69178   8.699   4.768   8.875  0.1903 -0.1871  0.0663
  513MOL0     C69179   8.613   4.885   8.896 -0.5387 -0.1775 -0.1024
  513MOL0     C69180   8.656   5.018   8.829 -0.2574 -0.3475  0.2232
  513MOL0     C69181   8.653   5.015   8.672 -0.8474  0.1699  0.4766
  513MOL0     C69182   8.682   5.150   8.606  0.6569  0.1929 -0.5688
  513MOL0     C69183   8.684   5.136   8.463  0.2140 -0.0255  0.4181
  513MOL0     C69184   8.687   5.119   8.344 -1.0617 -0.2827  0.5447
  513MOL0     C69185   8.900   4.661   8.931 -0.7226 -0.8083  0.0214
  513MOL0     C69186   9.015   4.650   9.008  0.2436 -0.5229  0.7609
  513MOL0     C69187   9.113   4.539   8.977 -0.4806 -0.7310  0.0364
  513MOL0     H69188   9.403   4.924   9.336 -0.1435 -0.8792  0.4096
  513MOL0     H69189   9.553   4.878   9.507  0.7786 -1.5863  1.6394
  513MOL0     H69190   9.446   4.558   9.829  1.0173  0.0274  0.4347
  513MOL0     H69191   9.518   4.539   9.668 -1.3436 -0.1519 -0.5156
  513MOL0     H69192   9.736   4.581   9.762 -1.4554 -2.0255 -0.6543
  513MOL0     H69193   9.647   4.498   9.894 -3.3628  0.1574 -0.1297
  513MOL0     H69194   9.567   4.692   9.998  1.3203 -0.0963  1.7997
  513MOL0     H69195   9.666   4.800   9.891 -0.8222  1.6817  0.7547
  513MOL0     H69196   9.720   4.712  10.153  1.4874 -3.0256  1.5434
  513MOL0     H69197   9.781   4.571  10.073  0.3667  0.8125 -0.5699
  513MOL0     H69198   9.922   4.741   9.935  1.6032 -0.2416  0.2336
  513MOL0     H69199   9.865   4.866  10.051 -0.5549 -0.7143 -1.2765
  513MOL0     H69200   9.961   4.742  10.236  1.9659  2.5838 -1.1004
  513MOL0     H69201   9.991   4.597  10.141 -1.2121 -0.4002 -1.3890
  513MOL0     H69202  10.155   4.852  10.159  1.7259 -1.9764  2.5510
  513MOL0     H69203  10.145   4.762  10.001 -0.6794  2.2893  0.1774
  513MOL0     H69204  10.202   4.599  10.244 -0.2784 -0.0310 -0.9815
  513MOL0     H69205  10.213   4.570  10.065 -0.7631  1.4320 -2.2893
  513MOL0     H69206  10.437   4.592   9.970  0.2485  0.7460 -0.7449
  513MOL0     H69207  10.688   4.605   9.947  0.5284  1.4134 -0.7967
  513MOL0     H69208  10.752   4.749  10.016 -0.0200  0.4028 -0.6852
  513MOL0     H69209  10.870   4.531  10.073 -0.3099  1.3577 -0.7705
  513MOL0     H69210  10.830   4.635  10.217 -1.0186 -2.1603  1.6182
  513MOL0     H69211  10.661   4.394  10.132 -2.8510 -0.0197  0.7235
  513MOL0     H69212  10.664   4.486  10.280 -1.8833 -1.6116 -1.8157
  513MOL0     H69213  10.794   4.305  10.339 -2.5210  2.2546 -0.4212
  513MOL0     H69214  10.897   4.446  10.317 -2.4488  0.7706  1.5453
  513MOL0     H69215  11.076   4.356   9.979  0.1835 -1.0052 -1.1027
  513MOL0     H69216  11.322   4.326   9.999 -0.8602 -0.0672 -1.0603
  513MOL0     H69217  11.568   3.967  10.454  0.4841 -1.3388  1.4088
  513MOL0     H69218  11.801   3.923  10.546 -0.0194 -0.8131  0.1634
  513MOL0     H69219  12.127   4.096  10.329  1.1016 -0.1911  0.1794
  513MOL0     H69220  12.173   4.181  10.481  0.0263  0.9289 -1.6671
  513MOL0     H69221  12.261   3.967  10.575 -1.0225 -0.7424  0.2223
  513MOL0     H69222  12.235   3.888  10.415 -0.3509  0.5318 -1.3738
  513MOL0     H69223  12.389   4.043  10.306 -0.8638  0.0789  0.2596
  513MOL0     H69224  12.405   4.135  10.459 -0.9595 -0.1803  0.7413
  513MOL0     H69225  12.477   3.833  10.420 -1.6403 -1.0160  1.6434
  513MOL0     H69226  12.497   3.922  10.572  0.7024  0.8084  0.1624
  513MOL0     H69227  12.645   4.005  10.305  0.8987  1.3849  0.8381
  513MOL0     H69228  12.706   3.897  10.423 -0.5790 -0.4684 -2.4347
  513MOL0     H69229  12.615   4.185  10.466  2.2086  1.1090 -0.1386
  513MOL0     H69230  12.675   4.085  10.601 -0.9060  3.0168  1.0987
  513MOL0     H69231  12.834   4.157  10.368  1.1479 -1.3440 -0.1018
  513MOL0     H69232  12.890   4.044  10.492  0.4490  1.1340  0.1855
  513MOL0     H69233  12.975   4.264  10.529  0.3912 -0.1070  1.0057
  513MOL0     H69234  12.811   4.332  10.533 -0.4885  0.7904  1.6132
  513MOL0     H69235  11.950   4.269  10.367  0.7154 -0.0893  1.5155
  513MOL0     H69236  11.725   4.329  10.299  2.2255  0.7442  2.0322
  513MOL0     H69237  11.269   4.198  10.403 -0.2657 -2.3569 -0.5110
  513MOL0     H69238  11.043   4.206  10.389  0.2903 -1.3566 -0.6030
  513MOL0     H69239   9.249   4.651   9.709  3.2591 -1.8649 -0.3447
  513MOL0     H69240   9.099   4.685   9.522  0.1547 -0.7697  2.0552
  513MOL0     H69241   8.958   4.924   9.209 -1.1038 -1.0046  0.5627
  513MOL0     H69242   8.793   4.957   9.090  1.9077  0.5670  0.8766
  513MOL0     H69243   8.609   4.899   9.004  0.0989 -1.4748  0.1063
  513MOL0     H69244   8.510   4.867   8.864 -1.0089 -0.2449  1.3897
  513MOL0     H69245   8.755   5.058   8.851 -1.4693  3.2991 -0.2081
  513MOL0     H69246   8.589   5.097   8.864  2.9768  3.3358 -1.2208
  513MOL0     H69247   8.555   4.981   8.637  0.1019  0.1090 -2.4555
  513MOL0     H69248   8.727   4.948   8.626 -0.4486  1.1394 -0.3466
  513MOL0     H69249   8.602   5.224   8.618  0.5848  0.5103 -2.5644
  513MOL0     H69250   8.773   5.201   8.639 -1.4230  4.6246 -0.9881
  513MOL0     H69251   8.691   5.118   8.237 -1.4348  3.2707  0.3667
  513MOL0     H69252   8.878   4.607   8.840 -1.2103  1.0081 -0.9835
  513MOL0     H69253   9.078   4.475   8.895  1.1995  1.1843 -2.3323
  513MOL0     H69254   9.210   4.577   8.946  0.0986 -0.9368  1.5398
  513MOL0     H69255   9.119   4.491   9.075  1.0247 -0.6204  0.0109
  514MOL0     O69256   8.177   3.282   1.870  0.8059 -1.2234  0.9566
  514MOL0     C69257   8.154   3.176   1.823  0.4865  0.8549  0.0467
  514MOL0     O69258   8.249   3.086   1.774 -0.5750  0.0181 -0.0464
  514MOL0     C69259   8.387   3.119   1.788  0.0756  0.1607  0.0664
  514MOL0     C69260   8.434   3.217   1.700 -0.2035 -0.6668  0.2050
  514MOL0     C69261   8.572   3.247   1.701 -0.1721  0.3612 -1.2599
  514MOL0     C69262   8.661   3.171   1.783  0.1665  0.6246  0.3504
  514MOL0     O69263   8.796   3.192   1.793 -0.0098  0.3001 -0.2710
  514MOL0     C69264   8.856   3.300   1.716 -0.6329 -0.2180  0.2678
  514MOL0     C69265   9.004   3.280   1.740 -0.0283 -0.2827 -0.2383
  514MOL0     C69266   9.050   3.254   1.887  0.7510  0.1128  0.3210
  514MOL0     C69267   9.195   3.261   1.902  0.1849  0.0861 -1.1664
  514MOL0     C69268   9.243   3.409   1.890 -0.4557  0.5935 -0.3570
  514MOL0     C69269   9.388   3.402   1.945  0.5905 -0.3472 -0.8075
  514MOL0     C69270   9.478   3.523   1.916 -0.4790 -0.6010  0.4559
  514MOL0     C69271   9.436   3.652   2.001 -0.4753  0.3218 -0.3497
  514MOL0     N69272   9.518   3.651   2.122  0.4169 -0.4892  0.2314
  514MOL0     C69273   9.635   3.725   2.133  0.0528  0.1790  0.3411
  514MOL0     C69274   9.685   3.688   2.256 -0.6016 -0.2971  0.1567
  514MOL0     C69275   9.813   3.730   2.325 -0.6841  0.8541 -0.2296
  514MOL0     C69276   9.932   3.651   2.271 -0.1732  0.5168 -0.2797
  514MOL0     C69277   9.948   3.511   2.323 -0.6269 -0.4180  0.1141
  514MOL0     C69278  10.076   3.439   2.262 -0.1488  0.1028  0.2601
  514MOL0     O69279  10.196   3.495   2.308 -0.5246  0.7478 -0.1902
  514MOL0     C69280  10.316   3.441   2.270 -0.1495  0.5690  0.6987
  514MOL0     C69281  10.333   3.359   2.159 -0.1444 -0.1526  0.2776
  514MOL0     C69282  10.458   3.314   2.116  0.1699 -0.3726  0.1806
  514MOL0     C69283  10.580   3.352   2.180  0.0096  0.0128 -0.0698
  514MOL0     C69284  10.710   3.322   2.117  0.4662 -0.2463 -0.2016
  514MOL0     O69285  10.829   3.344   2.187  0.8653  0.3301 -0.7550
  514MOL0     C69286  10.937   3.338   2.102  0.1348 -0.4711 -0.1380
  514MOL0     C69287  10.995   3.218   2.064 -0.5615 -0.6307 -0.6747
  514MOL0     C69288  11.106   3.219   1.985 -0.7940  0.7496 -0.4775
  514MOL0     C69289  11.172   3.331   1.945  0.1137 -0.1876  0.0190
  514MOL0     O69290  11.281   3.313   1.862 -0.1391  0.2129  0.0003
  514MOL0     C69291  11.368   3.431   1.856 -1.1377 -0.1215  0.2210
  514MOL0     C69292  11.483   3.386   1.761  0.5014  0.3858  0.1170
  514MOL0     C69293  11.592   3.495   1.752 -0.2952  0.7925 -1.0871
  514MOL0     C69294  11.699   3.472   1.864 -0.1682 -0.6177 -0.3499
  514MOL0     C69295  11.761   3.614   1.888  0.0156  0.1464  0.5717
  514MOL0     C69296  11.884   3.625   1.976 -0.3214 -0.3873 -0.9221
  514MOL0     C69297  12.011   3.579   1.903 -0.5240 -0.2331 -0.9002
  514MOL0     C69298  12.137   3.582   1.993  0.1723  1.0515  0.3813
  514MOL0    Cl69299  12.170   3.743   2.057 -0.0407  0.1973  0.0725
  514MOL0     C69300  11.109   3.456   1.979  0.8852 -0.2158  0.8377
  514MOL0     C69301  10.993   3.455   2.057  0.3021  0.3200  0.1314
  514MOL0     O69302  10.695   3.275   2.006 -0.3563  0.4850 -0.2947
  514MOL0     C69303  10.567   3.425   2.302  0.1455 -0.5037  0.1936
  514MOL0     C69304  10.443   3.473   2.344  0.4140  0.1104  0.5311
  514MOL0     N69305   9.592   3.598   2.312 -0.4297  0.3719  0.0457
  514MOL0     N69306   9.495   3.578   2.228 -0.4933  0.1849 -0.7714
  514MOL0     C69307   8.603   3.078   1.875  0.3290  0.7139  0.9207
  514MOL0     C69308   8.463   3.046   1.869 -1.0121 -0.9730 -0.1643
  514MOL0     C69309   8.017   3.122   1.825  0.1983 -0.5675  0.3139
  514MOL0     C69310   7.995   2.985   1.844  0.4508  0.1905 -0.1029
  514MOL0     C69311   7.869   2.931   1.876 -0.9291  1.0466  0.4575
  514MOL0     C69312   7.756   3.021   1.877 -1.0843  0.5682  0.6058
  514MOL0     O69313   7.636   2.960   1.916  0.7171 -0.2089  0.8075
  514MOL0     C69314   7.518   3.037   1.922  0.3948 -0.0044  0.3755
  514MOL0     C69315   7.454   3.066   1.783 -0.0669  0.0048 -0.3515
  514MOL0     C69316   7.321   3.138   1.778 -0.2331 -0.1594  0.1822
  514MOL0     C69317   7.279   3.217   1.905 -0.5618 -0.3813  0.3344
  514MOL0     C69318   7.376   3.331   1.928 -0.0682 -0.2989  0.0839
  514MOL0     C69319   7.441   3.422   1.981 -0.8680  1.1491  0.5698
  514MOL0     C69320   7.777   3.159   1.853 -0.0065 -0.0043  0.3608
  514MOL0     C69321   7.905   3.214   1.836  0.8587 -0.5162 -0.1841
  514MOL0     C69322   7.913   3.363   1.818 -0.6177  0.0174 -0.2181
  514MOL0     H69323   8.362   3.260   1.631 -0.4910 -0.3473  0.7017
  514MOL0     H69324   8.612   3.322   1.635 -0.3314  1.2029 -0.4316
  514MOL0     H69325   8.825   3.302   1.611 -0.1076  4.3051  0.0325
  514MOL0     H69326   8.819   3.390   1.765 -0.2122 -0.8056  1.7336
  514MOL0     H69327   9.057   3.372   1.711  1.4053 -1.5418 -1.7938
  514MOL0     H69328   9.042   3.197   1.680 -0.6385 -0.7474  0.0151
  514MOL0     H69329   9.024   3.148   1.902  1.4278 -0.2744 -1.0448
  514MOL0     H69330   9.005   3.320   1.961  2.6976 -0.0689  1.7498
  514MOL0     H69331   9.210   3.225   2.004 -1.2720 -2.8951 -1.8869
  514MOL0     H69332   9.240   3.190   1.832  1.3235  1.0356 -1.4310
  514MOL0     H69333   9.237   3.437   1.785  0.3758 -0.4190 -0.6939
  514MOL0     H69334   9.193   3.482   1.954  0.2358  2.4446 -1.8632
  514MOL0     H69335   9.384   3.385   2.053 -2.0460  2.5558 -0.2965
  514MOL0     H69336   9.440   3.319   1.897  1.8680  0.2800 -0.5638
  514MOL0     H69337   9.468   3.557   1.813 -0.8930 -2.2149 -0.0725
  514MOL0     H69338   9.585   3.501   1.925 -0.5665 -1.4625 -0.4412
  514MOL0     H69339   9.468   3.744   1.952  1.4714  1.5928  2.9059
  514MOL0     H69340   9.329   3.663   2.021 -1.0755 -1.1551 -2.4120
  514MOL0     H69341   9.695   3.773   2.057  1.4625 -0.8832  0.7298
  514MOL0     H69342   9.840   3.834   2.304  2.0797  0.5085  1.1430
  514MOL0     H69343   9.801   3.701   2.430  0.5113 -2.2327 -0.8661
  514MOL0     H69344   9.944   3.646   2.162  3.4667 -0.4988  0.0148
  514MOL0     H69345  10.020   3.703   2.312  1.6822 -1.0903 -1.9972
  514MOL0     H69346   9.866   3.440   2.310 -1.6845  0.4934  1.6407
  514MOL0     H69347   9.965   3.526   2.430 -1.2828  1.2365  0.0029
  514MOL0     H69348  10.071   3.465   2.156  1.5248  5.4148  1.1748
  514MOL0     H69349  10.077   3.330   2.268 -1.3823  0.1239  1.1549
  514MOL0     H69350  10.248   3.319   2.106  1.3645 -2.7300 -0.3738
  514MOL0     H69351  10.456   3.245   2.032 -1.9693 -1.2693  0.8997
  514MOL0     H69352  10.954   3.128   2.109  2.3690 -1.4218  0.6547
  514MOL0     H69353  11.147   3.124   1.953 -0.8941  0.3812  0.4658
  514MOL0     H69354  11.321   3.522   1.818 -2.6784 -1.6077 -1.5699
  514MOL0     H69355  11.414   3.459   1.952 -1.3562  0.9396  0.0319
  514MOL0     H69356  11.536   3.298   1.799  2.3156  1.3820  0.0076
  514MOL0     H69357  11.451   3.364   1.659 -0.7257 -1.7190  0.8963
  514MOL0     H69358  11.644   3.494   1.656  2.1902 -0.8437  0.1721
  514MOL0     H69359  11.543   3.591   1.769 -1.8804 -0.3332  1.2588
  514MOL0     H69360  11.776   3.402   1.833  0.4490 -0.1611  0.1098
  514MOL0     H69361  11.663   3.429   1.958  1.4186 -1.1868  0.0302
  514MOL0     H69362  11.687   3.680   1.935 -0.2569  0.5374 -0.3646
  514MOL0     H69363  11.776   3.656   1.788 -2.5127  0.9222  0.4247
  514MOL0     H69364  11.899   3.728   2.012 -1.7134  0.1959 -1.9363
  514MOL0     H69365  11.875   3.555   2.059  1.1394 -0.8781 -1.1517
  514MOL0     H69366  12.029   3.642   1.816 -2.1966  0.0799 -1.0445
  514MOL0     H69367  11.998   3.474   1.875 -1.8982 -1.3417  3.2147
  514MOL0     H69368  12.136   3.509   2.074 -0.5281  0.6288  0.0056
  514MOL0     H69369  12.222   3.554   1.930 -0.7572 -2.8012  0.6173
  514MOL0     H69370  11.147   3.552   1.946  0.8410  0.0803  1.6286
  514MOL0     H69371  10.937   3.542   2.092  1.1514 -0.0921  2.7518
  514MOL0     H69372  10.656   3.454   2.356  0.2879  0.7670 -0.6760
  514MOL0     H69373  10.443   3.538   2.431 -0.6268  1.2424 -0.2741
  514MOL0     H69374   8.679   3.031   1.936  1.8712  1.1563 -0.5542
  514MOL0     H69375   8.420   2.966   1.928 -0.1429 -1.8462 -0.6855
  514MOL0     H69376   8.081   2.920   1.847  0.7684  0.5201 -1.3405
  514MOL0     H69377   7.859   2.827   1.906  1.2465 -0.8523 -4.4591
  514MOL0     H69378   7.540   3.125   1.983  1.7788 -0.4474  0.5480
  514MOL0     H69379   7.439   2.977   1.967  0.4138  1.5157  2.6213
  514MOL0     H69380   7.447   2.968   1.735 -2.0355 -0.7658  1.3986
  514MOL0     H69381   7.534   3.111   1.722  1.0968 -1.4580  0.0329
  514MOL0     H69382   7.237   3.071   1.753 -0.0680  0.0159 -0.8954
  514MOL0     H69383   7.335   3.209   1.696 -1.0426 -1.7620 -1.4114
  514MOL0     H69384   7.185   3.269   1.886 -1.1102 -1.4725  0.0216
  514MOL0     H69385   7.273   3.147   1.988  0.0770 -1.4885 -0.5117
  514MOL0     H69386   7.488   3.500   2.037  0.5202  0.9608 -0.2881
  514MOL0     H69387   7.692   3.227   1.856  0.4801  0.6762 -0.6549
  514MOL0     H69388   7.808   3.393   1.806 -1.0301 -0.0685  2.5315
  514MOL0     H69389   7.943   3.410   1.911  0.1236  1.3601 -1.1016
  514MOL0     H69390   7.983   3.397   1.741  0.0704 -2.2388 -0.6791
  515MOL0     O69391   8.987   9.698   4.317  0.0301  0.7027 -0.4296
  515MOL0     C69392   8.896   9.760   4.377  0.7085 -0.2636  1.3137
  515MOL0     O69393   8.871   9.761   4.512  0.6019  0.4806 -0.9900
  515MOL0     C69394   8.960   9.689   4.588 -0.2509 -0.2637  0.4365
  515MOL0     C69395   8.951   9.549   4.610 -0.1285 -0.4801  0.3656
  515MOL0     C69396   9.049   9.483   4.678  1.2731 -0.2913 -0.3403
  515MOL0     C69397   9.168   9.540   4.721  0.4170 -0.5623  0.6011
  515MOL0     O69398   9.253   9.450   4.792  0.6252 -0.0504  0.5444
  515MOL0     C69399   9.369   9.512   4.854  0.2625  0.0744 -0.3421
  515MOL0     C69400   9.429   9.400   4.931 -0.5573 -0.3566 -0.1160
  515MOL0     C69401   9.544   9.453   5.029 -0.2400 -0.5294  0.5495
  515MOL0     C69402   9.618   9.329   5.091 -0.0917 -0.6824  0.1104
  515MOL0     C69403   9.725   9.376   5.187  0.5777  0.0755  0.5383
  515MOL0     C69404   9.859   9.414   5.101  0.5974  0.3278 -0.9767
  515MOL0     C69405   9.976   9.450   5.192 -0.0593  0.0920 -0.7118
  515MOL0     C69406  10.071   9.538   5.109  0.0834 -0.1049  0.9148
  515MOL0     N69407  10.146   9.455   5.005 -0.1566  0.6011 -0.2470
  515MOL0     C69408  10.112   9.439   4.875  0.1547 -0.5035  0.0657
  515MOL0     C69409  10.227   9.391   4.814 -0.0913 -0.6222 -0.1167
  515MOL0     C69410  10.245   9.359   4.670  0.3755 -0.2606 -0.3283
  515MOL0     C69411  10.384   9.381   4.617 -0.7206 -0.8050  0.7316
  515MOL0     C69412  10.407   9.307   4.488 -0.1855 -0.9849 -0.1728
  515MOL0     C69413  10.529   9.361   4.416  1.1842  0.5466  0.0975
  515MOL0     O69414  10.635   9.355   4.513  0.4096 -0.0572  0.7797
  515MOL0     C69415  10.756   9.417   4.489  0.6449  0.3638 -0.7755
  515MOL0     C69416  10.873   9.365   4.547 -0.6618  0.2505  0.0917
  515MOL0     C69417  10.995   9.426   4.544 -0.5780 -0.1097 -0.5345
  515MOL0     C69418  11.015   9.543   4.473 -0.1187  0.7709  0.7560
  515MOL0     C69419  11.149   9.614   4.473  0.2536  0.0919 -0.3745
  515MOL0     O69420  11.237   9.558   4.563  0.9159  0.3515 -0.3785
  515MOL0     C69421  11.360   9.606   4.559  0.1935  0.2359 -0.2588
  515MOL0     C69422  11.393   9.724   4.624  0.0489 -0.4812  0.0105
  515MOL0     C69423  11.519   9.777   4.606  0.0587  0.4391 -0.7354
  515MOL0     C69424  11.618   9.699   4.547 -0.3054 -0.5456 -0.0065
  515MOL0     O69425  11.736   9.759   4.542  0.1140 -0.2060 -0.0892
  515MOL0     C69426  11.856   9.679   4.518 -0.1291 -0.6113 -0.9277
  515MOL0     C69427  11.975   9.769   4.575  0.4499  0.2021  0.3151
  515MOL0     C69428  12.107   9.741   4.498  0.7312  0.4083 -0.4983
  515MOL0     C69429  12.211   9.844   4.552  0.9204  0.1688  0.2212
  515MOL0     C69430  12.353   9.814   4.486  0.4643  0.3991  0.2457
  515MOL0     C69431  12.458   9.907   4.534 -1.4150  0.0315 -0.6289
  515MOL0     C69432  12.598   9.848   4.518 -0.1666  0.5893 -0.2886
  515MOL0     C69433  12.707   9.934   4.585 -0.3444 -0.2378 -0.1962
  515MOL0    Cl69434  12.711   9.915   4.756  0.1637  0.1379 -0.1843
  515MOL0     C69435  11.584   9.584   4.480  0.0780 -0.6825 -0.3999
  515MOL0     C69436  11.452   9.532   4.492 -0.2178 -0.5075  1.0431
  515MOL0     O69437  11.175   9.693   4.386  0.7146 -0.3264  0.6709
  515MOL0     C69438  10.901   9.591   4.401  0.7014 -0.0766 -0.3207
  515MOL0     C69439  10.777   9.522   4.404  0.9624 -0.1128 -0.2237
  515MOL0     N69440  10.327   9.380   4.909  0.1827 -0.2547  0.6253
  515MOL0     N69441  10.279   9.427   5.016  0.7015  0.2762 -0.1400
  515MOL0     C69442   9.176   9.684   4.713  0.5711 -0.0271 -0.4509
  515MOL0     C69443   9.072   9.759   4.644 -0.1922 -0.2167 -0.2114
  515MOL0     C69444   8.814   9.860   4.302 -0.7574  0.6336  1.0264
  515MOL0     C69445   8.696   9.816   4.244  0.3139  0.1996  0.7448
  515MOL0     C69446   8.609   9.902   4.178  0.2550 -0.3750 -0.3806
  515MOL0     C69447   8.644  10.043   4.177  0.3748  0.6790 -0.3340
  515MOL0     O69448   8.579  10.140   4.107 -0.2639  0.5244  0.1805
  515MOL0     C69449   8.451  10.105   4.056  0.6521  0.3342  0.2057
  515MOL0     C69450   8.412  10.205   3.949 -0.0307  0.6638  0.3987
  515MOL0     C69451   8.294  10.148   3.856 -0.5534  0.1396  0.7885
  515MOL0     C69452   8.244  10.273   3.782  1.4053 -0.0003 -0.6267
  515MOL0     C69453   8.155  10.224   3.680  0.3857 -0.4514  0.2463
  515MOL0     C69454   8.074  10.167   3.611 -0.2629  0.3467  0.9241
  515MOL0     C69455   8.766  10.085   4.233  0.6997 -0.2399 -0.2257
  515MOL0     C69456   8.848   9.996   4.296 -0.2636 -0.8444 -0.2556
  515MOL0     C69457   8.978  10.045   4.370  0.3220  0.1092  0.6534
  515MOL0     H69458   8.868   9.497   4.562 -0.5446  0.3975  0.1032
  515MOL0     H69459   9.035   9.375   4.679 -0.9245 -0.1550  3.8201
  515MOL0     H69460   9.444   9.545   4.781  1.4684 -0.4755  0.6139
  515MOL0     H69461   9.337   9.588   4.926 -0.3275 -0.4898  0.0020
  515MOL0     H69462   9.482   9.338   4.857  2.1175  2.0144 -0.3545
  515MOL0     H69463   9.348   9.348   4.984 -2.0408  2.2302  0.2883
  515MOL0     H69464   9.499   9.514   5.107 -3.4850 -0.3561 -1.2353
  515MOL0     H69465   9.619   9.507   4.971  1.8779 -2.8284  0.9660
  515MOL0     H69466   9.554   9.280   5.165 -1.8170  2.3793  0.8176
  515MOL0     H69467   9.659   9.280   5.002  0.5037  0.9449 -0.5506
  515MOL0     H69468   9.691   9.465   5.241 -0.3391  1.1822 -1.7517
  515MOL0     H69469   9.755   9.306   5.266  1.9218  0.5284  0.4537
  515MOL0     H69470   9.882   9.328   5.037  0.2420 -0.1836 -0.4221
  515MOL0     H69471   9.825   9.497   5.038 -0.1967  0.0569 -0.9151
  515MOL0     H69472  10.030   9.361   5.225  0.5038  0.5686 -0.3225
  515MOL0     H69473   9.930   9.499   5.278 -0.7830 -2.0916  0.2037
  515MOL0     H69474  10.023   9.623   5.061 -2.3084 -2.2419 -0.7758
  515MOL0     H69475  10.154   9.577   5.170  0.7592  1.5348 -0.9662
  515MOL0     H69476  10.013   9.448   4.833 -0.9279 -2.8386  1.8304
  515MOL0     H69477  10.223   9.255   4.643 -3.1021  0.6668 -1.5663
  515MOL0     H69478  10.177   9.422   4.613  0.5032 -1.5089 -1.9312
  515MOL0     H69479  10.402   9.487   4.602  0.4622 -1.1006 -0.0644
  515MOL0     H69480  10.464   9.349   4.684  0.4981  1.0640  0.2274
  515MOL0     H69481  10.323   9.323   4.419  0.0240  1.2866  0.0273
  515MOL0     H69482  10.419   9.203   4.520 -0.0678 -0.8883  0.0959
  515MOL0     H69483  10.515   9.467   4.392 -0.2303  0.3353 -0.1534
  515MOL0     H69484  10.548   9.290   4.335  1.8415 -0.4417  1.0854
  515MOL0     H69485  10.864   9.279   4.613  0.9728  0.8558  1.1559
  515MOL0     H69486  11.084   9.386   4.590  0.0584  2.8423  1.0310
  515MOL0     H69487  11.319   9.784   4.675 -0.8971 -2.0175  0.5014
  515MOL0     H69488  11.549   9.872   4.650  1.1540 -0.2995  0.1493
  515MOL0     H69489  11.852   9.579   4.564 -2.3164 -0.6077 -1.0235
  515MOL0     H69490  11.873   9.668   4.410  3.0756  0.9484 -0.6898
  515MOL0     H69491  11.954   9.876   4.560  2.5247  0.7230  0.7509
  515MOL0     H69492  11.983   9.747   4.682  4.1194 -1.4790 -0.1413
  515MOL0     H69493  12.135   9.635   4.506 -2.0687 -0.2585  2.4268
  515MOL0     H69494  12.092   9.757   4.391 -1.4709  0.2894 -0.2634
  515MOL0     H69495  12.219   9.846   4.661  0.0564  1.6323  0.2935
  515MOL0     H69496  12.180   9.945   4.523 -0.3964 -0.8417 -2.0627
  515MOL0     H69497  12.349   9.810   4.377 -4.8492 -0.6332  0.2189
  515MOL0     H69498  12.382   9.717   4.526 -2.7206  0.8382  4.2876
  515MOL0     H69499  12.461   9.999   4.476  1.9029 -0.4143 -1.3756
  515MOL0     H69500  12.436   9.921   4.640  0.2865  1.4660 -0.4219
  515MOL0     H69501  12.631   9.849   4.413 -0.5933  1.8614 -0.4284
  515MOL0     H69502  12.602   9.750   4.567  0.5020  0.1862 -1.1142
  515MOL0     H69503  12.804   9.911   4.541 -0.1423  1.1574 -0.5338
  515MOL0     H69504  12.704  10.043   4.570  2.4136  0.3719  2.5516
  515MOL0     H69505  11.644   9.538   4.402 -0.2561 -3.1114  0.6648
  515MOL0     H69506  11.416   9.439   4.449 -2.1072 -1.4752  4.3456
  515MOL0     H69507  10.908   9.681   4.342  0.0926  0.2278  0.0671
  515MOL0     H69508  10.693   9.576   4.360  1.2325  0.9696  0.5416
  515MOL0     H69509   9.261   9.740   4.751  2.5278 -2.9238 -0.2416
  515MOL0     H69510   9.087   9.866   4.638 -1.6152  0.0616  0.7890
  515MOL0     H69511   8.667   9.712   4.257 -1.7446  0.3433 -1.8550
  515MOL0     H69512   8.511   9.868   4.146  0.1773 -0.1939 -0.3421
  515MOL0     H69513   8.372  10.095   4.132 -0.6703 -1.3669 -1.2937
  515MOL0     H69514   8.457  10.008   4.006  2.1139  0.4084  0.1924
  515MOL0     H69515   8.503  10.210   3.888  1.5418  0.7851  2.6485
  515MOL0     H69516   8.392  10.307   3.983 -3.2366 -0.6689  3.0393
  515MOL0     H69517   8.216  10.094   3.910 -0.0857 -0.8901  0.4753
  515MOL0     H69518   8.350  10.076   3.795 -0.0128  0.1781  1.2299
  515MOL0     H69519   8.182  10.334   3.848  0.3577 -1.6408 -0.0294
  515MOL0     H69520   8.320  10.339   3.740  0.4119  1.1802 -0.6140
  515MOL0     H69521   8.011  10.112   3.545 -0.1694 -0.7147  1.6950
  515MOL0     H69522   8.787  10.191   4.238  0.2201 -0.2196  1.9540
  515MOL0     H69523   9.066   9.990   4.336  0.3491  0.6734 -0.2270
  515MOL0     H69524   8.979  10.148   4.332 -2.0239 -0.0250  0.0805
  515MOL0     H69525   8.965  10.039   4.479  0.2587  0.9748  0.6989
  516MOL0     O69526   9.421   6.941   3.880 -0.5157 -0.0223 -0.2023
  516MOL0     C69527   9.383   6.909   3.986  0.0321 -0.3311  0.0643
  516MOL0     O69528   9.454   6.915   4.100  0.2056 -0.3749  0.9673
  516MOL0     C69529   9.574   6.979   4.084 -0.5555  0.4723 -0.1108
  516MOL0     C69530   9.690   6.909   4.093  0.3256  0.0380 -0.2364
  516MOL0     C69531   9.815   6.974   4.100  0.2868 -0.3843  0.2439
  516MOL0     C69532   9.822   7.112   4.082  0.4010 -0.7527  0.0616
  516MOL0     O69533   9.937   7.173   4.107  0.5916 -0.3495  0.1366
  516MOL0     C69534   9.953   7.309   4.069  0.7081  0.2456  0.0091
  516MOL0     C69535  10.102   7.343   4.077 -0.2246 -0.0260 -0.2808
  516MOL0     C69536  10.130   7.488   4.070 -0.6707 -0.1114 -0.5674
  516MOL0     C69537  10.119   7.544   3.921  0.0657  1.0126 -1.2040
  516MOL0     C69538  10.148   7.692   3.899  0.7045 -0.1200 -0.5870
  516MOL0     C69539  10.105   7.734   3.758 -0.0265  0.1531 -0.0784
  516MOL0     C69540  10.210   7.698   3.646 -0.4546 -0.7145 -0.7869
  516MOL0     C69541  10.160   7.754   3.512  0.2971  0.6665 -0.3741
  516MOL0     N69542  10.243   7.708   3.400 -0.0344  0.2155  0.0976
  516MOL0     C69543  10.267   7.577   3.374  0.1759 -0.6112  0.0785
  516MOL0     C69544  10.345   7.585   3.261  0.0760 -0.5711 -0.0152
  516MOL0     C69545  10.399   7.466   3.187 -0.5134  0.4032  0.2323
  516MOL0     C69546  10.512   7.500   3.087 -0.3864  0.2568  0.0403
  516MOL0     C69547  10.643   7.537   3.157 -0.2113  0.4736 -0.1496
  516MOL0     C69548  10.767   7.501   3.076 -0.0983  0.1087 -0.0047
  516MOL0     O69549  10.804   7.622   3.001 -0.3648  1.2124 -0.1075
  516MOL0     C69550  10.936   7.655   2.973 -0.5145 -0.3532  0.7083
  516MOL0     C69551  11.021   7.548   2.932  0.5991 -0.4621  0.0574
  516MOL0     C69552  11.159   7.575   2.903 -0.7750  0.4347  0.2786
  516MOL0     C69553  11.216   7.704   2.927 -0.0220 -0.5946 -0.7906
  516MOL0     C69554  11.361   7.731   2.931  0.0047 -0.7952  0.1228
  516MOL0     O69555  11.442   7.629   2.916 -0.3795  0.3097 -0.8283
  516MOL0     C69556  11.575   7.627   2.919 -0.2833  0.9442 -0.0499
  516MOL0     C69557  11.653   7.735   2.959 -0.6447 -0.7849  0.6277
  516MOL0     C69558  11.798   7.721   2.967 -0.1435  0.6213  0.0660
  516MOL0     C69559  11.868   7.607   2.927  0.8019  0.0427  0.0274
  516MOL0     O69560  12.005   7.608   2.921  0.4574  0.1266 -0.6486
  516MOL0     C69561  12.069   7.483   2.943  0.5115 -0.5869 -0.0772
  516MOL0     C69562  12.216   7.508   2.950 -0.6773  0.1821 -0.3628
  516MOL0     C69563  12.271   7.568   2.817  0.0862 -0.7571  0.5403
  516MOL0     C69564  12.419   7.600   2.822  0.2543 -1.2663 -0.6860
  516MOL0     C69565  12.462   7.666   2.689 -0.7000  0.4615 -0.5439
  516MOL0     C69566  12.616   7.686   2.693  0.2315  0.2827  0.6196
  516MOL0     C69567  12.663   7.762   2.567 -1.1076 -0.4231  0.0395
  516MOL0     C69568  12.824   7.772   2.559 -0.4421  1.1619  0.8188
  516MOL0    Cl69569  12.874   7.624   2.468  0.0977  0.0592 -0.0343
  516MOL0     C69570  11.788   7.499   2.883  0.2968  0.6413 -0.8252
  516MOL0     C69571  11.643   7.510   2.882 -0.5514  0.4390  0.2532
  516MOL0     O69572  11.391   7.854   2.926 -0.6634  1.0877 -0.2316
  516MOL0     C69573  11.121   7.806   2.960  0.5192  0.0045 -1.1177
  516MOL0     C69574  10.985   7.780   2.984 -0.2304  0.0536 -0.1342
  516MOL0     N69575  10.373   7.722   3.239  0.2216  0.1623  0.1684
  516MOL0     N69576  10.311   7.792   3.323 -0.4150  0.2740  1.0466
  516MOL0     C69577   9.701   7.185   4.057  0.4649 -1.1850 -0.3434
  516MOL0     C69578   9.577   7.115   4.066  0.2360  1.1404  0.6269
  516MOL0     C69579   9.252   6.839   3.979 -0.9007 -0.5663 -0.2445
  516MOL0     C69580   9.245   6.706   4.029 -0.4987 -0.5387  0.3272
  516MOL0     C69581   9.118   6.643   4.037 -0.1829 -1.2356  0.6009
  516MOL0     C69582   9.007   6.702   3.973 -0.2802  0.2158 -0.3941
  516MOL0     O69583   8.883   6.653   3.982 -0.1106 -0.2929  0.2012
  516MOL0     C69584   8.852   6.514   4.015  0.2339 -0.0506  0.2495
  516MOL0     C69585   8.710   6.490   3.979 -0.2896 -0.4143 -0.8943
  516MOL0     C69586   8.616   6.532   4.091 -0.2208 -0.2714 -0.0127
  516MOL0     C69587   8.494   6.443   4.115  0.5845 -0.4101 -0.1293
  516MOL0     C69588   8.542   6.318   4.175  0.3648 -0.2268 -0.6915
  516MOL0     C69589   8.594   6.218   4.211 -0.4923 -0.0094 -0.0120
  516MOL0     C69590   9.018   6.833   3.923 -0.8507  0.1728 -0.5375
  516MOL0     C69591   9.139   6.905   3.936 -0.4869 -0.1229 -0.0869
  516MOL0     C69592   9.126   7.052   3.915  0.4866  0.1042 -0.3805
  516MOL0     H69593   9.701   6.804   4.116  0.9399 -0.2563 -1.7945
  516MOL0     H69594   9.908   6.924   4.127 -0.4536 -2.1648 -0.3824
  516MOL0     H69595   9.933   7.330   3.964  1.7354 -0.0824 -0.2710
  516MOL0     H69596   9.895   7.368   4.141 -0.1466 -0.5791  0.0219
  516MOL0     H69597  10.149   7.291   3.993 -1.0171 -1.1319 -0.0742
  516MOL0     H69598  10.135   7.312   4.177 -0.8676  3.0336  0.9925
  516MOL0     H69599  10.228   7.498   4.117  0.1562 -0.8565 -2.0785
  516MOL0     H69600  10.057   7.549   4.124  1.7584  0.5821  2.1524
  516MOL0     H69601  10.190   7.482   3.865 -0.5107 -1.7482  0.8876
  516MOL0     H69602  10.018   7.524   3.884 -0.2707 -2.1073  0.9866
  516MOL0     H69603  10.078   7.744   3.964  0.0334 -0.5293 -0.9747
  516MOL0     H69604  10.250   7.714   3.934 -0.1253  1.2822  1.0768
  516MOL0     H69605  10.003   7.697   3.744 -0.4976  2.0063 -1.9257
  516MOL0     H69606  10.088   7.842   3.754  2.3210  0.5618 -0.2609
  516MOL0     H69607  10.240   7.593   3.645  2.0321 -0.0625 -0.9957
  516MOL0     H69608  10.293   7.764   3.670  0.0448 -0.4665 -3.0166
  516MOL0     H69609  10.055   7.728   3.494  1.0135 -1.1201 -2.3746
  516MOL0     H69610  10.168   7.863   3.521  0.1649  0.5774  0.9573
  516MOL0     H69611  10.225   7.490   3.423  0.0368  0.4002  1.8382
  516MOL0     H69612  10.448   7.401   3.260 -0.0087  0.5691  0.0470
  516MOL0     H69613  10.318   7.415   3.133 -0.6380  1.3332 -0.4844
  516MOL0     H69614  10.518   7.424   3.009 -1.8463  1.4407 -1.3148
  516MOL0     H69615  10.482   7.588   3.029 -0.9926  1.2535  1.7970
  516MOL0     H69616  10.642   7.481   3.251 -0.8952 -0.6496 -0.7979
  516MOL0     H69617  10.648   7.642   3.187  0.9683  2.1495 -5.2255
  516MOL0     H69618  10.746   7.411   3.016 -1.0528 -0.6190  1.3541
  516MOL0     H69619  10.843   7.474   3.150 -1.1033  2.1817  1.9106
  516MOL0     H69620  10.989   7.445   2.921  0.9849 -0.6052  0.3040
  516MOL0     H69621  11.222   7.489   2.881  0.8035  1.0387  2.1404
  516MOL0     H69622  11.608   7.823   3.003 -0.6630 -1.7263  2.6004
  516MOL0     H69623  11.869   7.786   3.017 -1.3363  1.2151  1.0654
  516MOL0     H69624  12.037   7.435   3.036 -0.4339 -0.8539 -0.5268
  516MOL0     H69625  12.051   7.416   2.858 -1.3831 -3.0218  2.0748
  516MOL0     H69626  12.231   7.578   3.033  1.6749 -0.1108 -0.4802
  516MOL0     H69627  12.258   7.414   2.988  0.6808  1.1831  0.6990
  516MOL0     H69628  12.256   7.505   2.730 -0.2978  0.4079 -0.2557
  516MOL0     H69629  12.220   7.664   2.805  1.1000 -0.1743  0.7300
  516MOL0     H69630  12.477   7.509   2.836 -0.4979 -1.6500  0.0697
  516MOL0     H69631  12.436   7.671   2.903 -1.1521  1.2601 -2.4622
  516MOL0     H69632  12.412   7.763   2.689 -0.8246  0.4355 -2.4248
  516MOL0     H69633  12.430   7.605   2.604 -0.8279  2.1806 -1.7555
  516MOL0     H69634  12.660   7.740   2.777 -0.9405  0.8522  0.8842
  516MOL0     H69635  12.664   7.588   2.692 -2.5708 -1.2320 -1.7993
  516MOL0     H69636  12.633   7.868   2.567  3.1083  0.9990 -2.0716
  516MOL0     H69637  12.629   7.713   2.476  0.4472 -1.5753  0.0473
  516MOL0     H69638  12.849   7.847   2.484  1.3986 -1.1500 -1.0428
  516MOL0     H69639  12.871   7.780   2.658  1.2157  0.0462  0.1588
  516MOL0     H69640  11.834   7.401   2.876  0.3797  0.5209  0.9088
  516MOL0     H69641  11.578   7.428   2.853  1.8477 -1.7729  0.7302
  516MOL0     H69642  11.141   7.911   2.979 -1.1792  0.0315  0.7310
  516MOL0     H69643  10.920   7.859   3.021  2.1595  1.7570  0.6946
  516MOL0     H69644   9.688   7.292   4.046  2.3519 -0.6735  1.6495
  516MOL0     H69645   9.484   7.171   4.069 -0.6432 -0.1397 -1.0937
  516MOL0     H69646   9.332   6.647   4.058 -0.5567 -2.0246 -2.2390
  516MOL0     H69647   9.108   6.549   4.088  0.8051 -1.9641 -0.4906
  516MOL0     H69648   8.871   6.490   4.120 -0.1500 -1.2063  0.0689
  516MOL0     H69649   8.908   6.443   3.953 -1.4969  0.6810 -2.3203
  516MOL0     H69650   8.715   6.382   3.962  3.1143 -0.5663  0.4352
  516MOL0     H69651   8.692   6.519   3.875 -0.7186 -2.3267 -1.3979
  516MOL0     H69652   8.572   6.630   4.072 -1.6639  0.1270  4.3926
  516MOL0     H69653   8.667   6.540   4.188 -0.1674  1.1524 -0.1381
  516MOL0     H69654   8.415   6.497   4.169  0.1082 -0.7370 -0.4978
  516MOL0     H69655   8.438   6.426   4.023  0.2903  1.2491 -0.2856
  516MOL0     H69656   8.649   6.129   4.234  1.3722  0.8667 -0.9371
  516MOL0     H69657   8.928   6.886   3.894 -0.1005  1.8037  0.0107
  516MOL0     H69658   9.216   7.109   3.937 -0.3231  0.5656  2.0163
  516MOL0     H69659   9.097   7.059   3.809 -3.6493 -2.4188  0.3616
  516MOL0     H69660   9.049   7.093   3.981 -0.1839  0.2261 -1.2201
  517MOL0     O69661   1.956   4.759   9.467 -0.0573  0.1639  0.0824
  517MOL0     C69662   1.843   4.753   9.520 -0.1270 -0.5673 -0.2988
  517MOL0     O69663   1.798   4.851   9.609 -0.0227  0.2300  0.3379
  517MOL0     C69664   1.860   4.967   9.611  0.0112  0.7150  0.2853
  517MOL0     C69665   1.963   4.983   9.701 -0.6976 -0.6500  0.6233
  517MOL0     C69666   2.036   5.102   9.709  0.2619 -0.7704  0.4310
  517MOL0     C69667   2.007   5.209   9.620  0.3398 -0.7600  0.8385
  517MOL0     O69668   2.069   5.335   9.624 -0.4447  0.3895 -0.0445
  517MOL0     C69669   2.048   5.430   9.518  0.7252 -0.1587  0.2498
  517MOL0     C69670   2.140   5.546   9.511 -0.3751  0.7984  0.1873
  517MOL0     C69671   2.292   5.502   9.522  0.3145  0.0099  0.3448
  517MOL0     C69672   2.377   5.614   9.579  0.1009 -0.8481  0.0618
  517MOL0     C69673   2.525   5.585   9.554 -0.5630  0.2686  0.3759
  517MOL0     C69674   2.609   5.690   9.625  0.6314  0.1854  0.3547
  517MOL0     C69675   2.756   5.655   9.618 -0.2152  0.5910 -0.1329
  517MOL0     C69676   2.837   5.746   9.701 -0.3012 -0.1321 -1.1075
  517MOL0     N69677   2.984   5.722   9.709 -0.6585 -0.7781 -0.0697
  517MOL0     C69678   3.060   5.694   9.592  0.1179 -0.2198  0.2160
  517MOL0     C69679   3.188   5.679   9.633 -0.2822  0.1183 -0.2576
  517MOL0     C69680   3.295   5.640   9.541  0.3911 -0.0004 -0.8838
  517MOL0     C69681   3.350   5.758   9.467 -0.2715  0.0504 -1.3069
  517MOL0     C69682   3.435   5.725   9.344  0.1698 -0.3397  0.0724
  517MOL0     C69683   3.564   5.658   9.383  0.0302 -0.2590 -0.4822
  517MOL0     O69684   3.649   5.767   9.425  0.0211  0.0532 -0.2594
  517MOL0     C69685   3.756   5.745   9.501 -0.7644 -0.1684 -0.9440
  517MOL0     C69686   3.828   5.858   9.533  0.2833  0.4357 -0.2515
  517MOL0     C69687   3.955   5.846   9.599  0.8532 -0.4219 -0.2725
  517MOL0     C69688   4.000   5.721   9.646  0.4621  0.5635  0.8269
  517MOL0     C69689   4.126   5.704   9.720  0.5279 -0.4028  0.0323
  517MOL0     O69690   4.160   5.579   9.775 -0.0603 -0.9784 -0.6132
  517MOL0     C69691   4.288   5.566   9.828  0.1859 -0.2503  0.2935
  517MOL0     C69692   4.312   5.540   9.964  0.1960 -0.6941  0.2476
  517MOL0     C69693   4.437   5.489  10.009  0.3969 -0.3893 -0.0913
  517MOL0     C69694   4.541   5.482   9.918 -0.3311 -0.7080 -0.2364
  517MOL0     O69695   4.660   5.436   9.969  0.6351 -0.6374 -0.1212
  517MOL0     C69696   4.770   5.512   9.916  0.3215  0.0258  0.2309
  517MOL0     C69697   4.883   5.499  10.013 -0.9189  0.0547  0.7164
  517MOL0     C69698   5.016   5.551   9.940  0.4392 -0.0345  0.2086
  517MOL0     C69699   5.131   5.535  10.034 -0.2886  0.7219 -0.5901
  517MOL0     C69700   5.249   5.613   9.969  0.5028  0.4909  0.2555
  517MOL0     C69701   5.370   5.607  10.070 -0.3977 -1.3494 -0.3550
  517MOL0     C69702   5.344   5.656  10.218 -0.4939  0.0541 -0.1365
  517MOL0     C69703   5.480   5.677  10.280  0.1594 -0.4574 -0.0014
  517MOL0    Cl69704   5.577   5.527  10.271  0.2006 -0.2613 -0.0974
  517MOL0     C69705   4.524   5.505   9.788  0.1119 -0.4194  0.9982
  517MOL0     C69706   4.405   5.553   9.747  0.2054 -0.3169 -0.0741
  517MOL0     O69707   4.209   5.792   9.715 -0.2118 -0.4446  0.5613
  517MOL0     C69708   3.916   5.612   9.625 -0.4477 -0.3848 -0.0031
  517MOL0     C69709   3.800   5.622   9.547 -0.1053 -0.0366  0.1117
  517MOL0     N69710   3.187   5.677   9.773  0.0151 -0.0055  0.6731
  517MOL0     N69711   3.061   5.704   9.823  0.4375 -0.2523  0.4561
  517MOL0     C69712   1.900   5.185   9.525  0.4649  0.3477 -0.7909
  517MOL0     C69713   1.815   5.072   9.525  1.5903 -0.4345 -0.2603
  517MOL0     C69714   1.760   4.629   9.511 -0.7547  0.2662  1.2878
  517MOL0     C69715   1.625   4.644   9.559  0.3819  0.1741 -0.4429
  517MOL0     C69716   1.529   4.540   9.557  0.4945 -0.1832  0.9641
  517MOL0     C69717   1.569   4.410   9.510  0.0929  0.7968 -0.4006
  517MOL0     O69718   1.507   4.291   9.534  0.0105 -0.0601 -0.4053
  517MOL0     C69719   1.364   4.288   9.560 -0.4805 -0.3273 -0.0990
  517MOL0     C69720   1.298   4.154   9.525  0.7475  0.8320 -0.5115
  517MOL0     C69721   1.156   4.139   9.591  0.4620  0.0201 -0.3087
  517MOL0     C69722   1.070   4.257   9.543  0.2829 -1.0970  1.0892
  517MOL0     C69723   0.931   4.235   9.573  0.2405 -0.3435  0.2329
  517MOL0     C69724   0.823   4.210   9.593  0.2718  1.2698 -0.0992
  517MOL0     C69725   1.699   4.395   9.461  0.0814  0.2057 -0.5915
  517MOL0     C69726   1.789   4.502   9.456 -0.2693 -0.4995 -0.3064
  517MOL0     C69727   1.934   4.476   9.410  0.1361 -0.1424  0.7665
  517MOL0     H69728   1.996   4.905   9.769  2.5277 -0.0483 -0.1127
  517MOL0     H69729   2.128   5.102   9.766  2.2060  0.0890 -2.4438
  517MOL0     H69730   2.049   5.367   9.428  0.5141 -0.8986  0.7542
  517MOL0     H69731   1.947   5.472   9.521  0.1231 -1.3411 -1.5904
  517MOL0     H69732   2.124   5.616   9.593  0.5284  0.7466  0.4258
  517MOL0     H69733   2.114   5.592   9.415 -1.8813 -0.2106  0.0844
  517MOL0     H69734   2.337   5.475   9.426 -0.4483  0.1380 -0.0606
  517MOL0     H69735   2.300   5.412   9.584  0.6923 -0.8294 -0.8790
  517MOL0     H69736   2.346   5.711   9.538  4.2720  0.5575 -0.2284
  517MOL0     H69737   2.357   5.610   9.686  0.1543  0.7490  0.1638
  517MOL0     H69738   2.559   5.488   9.591  1.7375  1.1655  0.7617
  517MOL0     H69739   2.528   5.582   9.445 -3.8790  0.6312  0.1717
  517MOL0     H69740   2.591   5.791   9.586 -0.3494  0.5726  1.7651
  517MOL0     H69741   2.589   5.696   9.732  2.9275 -0.5761  0.8953
  517MOL0     H69742   2.793   5.672   9.516 -0.5461  1.6619 -0.0795
  517MOL0     H69743   2.784   5.556   9.655  3.0095  0.9484 -1.3455
  517MOL0     H69744   2.827   5.852   9.675  0.7876 -0.1113 -1.4614
  517MOL0     H69745   2.803   5.739   9.805  2.8435 -0.5521 -0.0133
  517MOL0     H69746   3.025   5.687   9.489 -0.9358 -3.4660  0.6676
  517MOL0     H69747   3.377   5.604   9.604  1.2238  0.7945 -1.4966
  517MOL0     H69748   3.258   5.562   9.474 -1.0538 -0.1949  0.0948
  517MOL0     H69749   3.273   5.820   9.420 -0.4925 -0.5359 -1.7158
  517MOL0     H69750   3.399   5.824   9.539 -3.0186  0.6268  0.1697
  517MOL0     H69751   3.458   5.813   9.282 -0.9571  0.4743  0.7808
  517MOL0     H69752   3.379   5.664   9.273  2.3203  0.0214 -2.0785
  517MOL0     H69753   3.608   5.618   9.291 -0.4960 -2.2879  0.0746
  517MOL0     H69754   3.551   5.579   9.458 -1.3264  2.7322  2.7293
  517MOL0     H69755   3.793   5.955   9.501 -2.0632 -0.3684 -0.2836
  517MOL0     H69756   4.004   5.940   9.623 -1.2512  0.6348  0.1116
  517MOL0     H69757   4.236   5.537  10.041 -0.3018 -0.4376 -0.2305
  517MOL0     H69758   4.448   5.456  10.112  0.0452  2.4442  0.9443
  517MOL0     H69759   4.795   5.466   9.820 -2.4101  0.4746 -0.7871
  517MOL0     H69760   4.740   5.615   9.894  0.1653 -0.6086 -2.9280
  517MOL0     H69761   4.863   5.571  10.093  0.2925  0.8234  0.3610
  517MOL0     H69762   4.892   5.401  10.061  3.0318  0.8795  2.0530
  517MOL0     H69763   5.042   5.488   9.855  1.0206  0.8353 -0.2623
  517MOL0     H69764   4.999   5.651   9.899  0.3137 -0.9775 -2.1878
  517MOL0     H69765   5.149   5.427  10.028  1.2902  0.8576  0.8453
  517MOL0     H69766   5.121   5.544  10.143  0.3055 -0.4718 -0.4110
  517MOL0     H69767   5.233   5.720   9.959  0.6611  0.9652  3.7256
  517MOL0     H69768   5.286   5.579   9.872 -1.7121  0.9428 -0.7985
  517MOL0     H69769   5.412   5.506  10.062  0.7778 -0.7802 -1.8550
  517MOL0     H69770   5.449   5.674  10.035 -1.5154  0.2763  0.1083
  517MOL0     H69771   5.288   5.578  10.270 -0.1105 -0.0710  0.0971
  517MOL0     H69772   5.287   5.749  10.227  2.0438  2.0032 -2.4802
  517MOL0     H69773   5.531   5.748  10.214 -2.2310  2.1041  0.6971
  517MOL0     H69774   5.476   5.713  10.384  0.0568 -1.7787  0.4709
  517MOL0     H69775   4.593   5.474   9.709 -1.2636 -2.3706  0.4881
  517MOL0     H69776   4.389   5.574   9.641 -0.5174 -1.4943 -0.2236
  517MOL0     H69777   3.942   5.519   9.674 -4.6170 -1.5790  0.2816
  517MOL0     H69778   3.745   5.530   9.533  0.1878 -0.3445  0.8943
  517MOL0     H69779   1.860   5.267   9.465 -0.6973  1.8684  1.8825
  517MOL0     H69780   1.733   5.053   9.457  0.9420  0.0985  0.3640
  517MOL0     H69781   1.588   4.737   9.600 -2.9921 -1.3285  0.2904
  517MOL0     H69782   1.428   4.560   9.591  0.6637 -1.0808  2.0551
  517MOL0     H69783   1.317   4.358   9.490 -1.0350 -1.1264 -0.5392
  517MOL0     H69784   1.340   4.318   9.663  1.0075  3.3867 -0.6427
  517MOL0     H69785   1.363   4.071   9.553  0.8574  0.2876 -2.2280
  517MOL0     H69786   1.296   4.147   9.416  1.9198  2.1540 -0.6477
  517MOL0     H69787   1.182   4.134   9.697  3.7030 -0.4083 -1.0080
  517MOL0     H69788   1.117   4.045   9.550  0.1118 -0.2449  0.6191
  517MOL0     H69789   1.097   4.353   9.588  1.1005 -1.1276  0.6919
  517MOL0     H69790   1.082   4.255   9.434  1.6884  2.4967  1.0244
  517MOL0     H69791   0.721   4.184   9.613 -0.7455  4.1764 -0.9864
  517MOL0     H69792   1.742   4.298   9.436 -0.0762  0.3476 -1.4543
  517MOL0     H69793   2.009   4.510   9.483 -0.1159  1.5633  0.2669
  517MOL0     H69794   1.954   4.373   9.379 -0.0434  0.5399 -1.8124
  517MOL0     H69795   1.956   4.528   9.317  0.5456  3.0221  2.5077
  518MOL0     O69796   4.514   3.651  11.211  1.0197 -0.1937 -0.5156
  518MOL0     C69797   4.463   3.616  11.105  0.5170  0.1694 -0.9476
  518MOL0     O69798   4.526   3.584  10.983 -0.2467 -0.3201  0.4552
  518MOL0     C69799   4.665   3.593  10.970 -0.6954 -0.4384 -0.7373
  518MOL0     C69800   4.731   3.716  10.994  0.1577 -0.1927 -0.7041
  518MOL0     C69801   4.872   3.720  10.989  1.1495 -0.5541 -0.8501
  518MOL0     C69802   4.939   3.605  10.949  0.3739  0.2626  0.2885
  518MOL0     O69803   5.069   3.621  10.927 -0.1497 -0.0467  0.1646
  518MOL0     C69804   5.104   3.634  10.788 -0.0555  0.5225 -0.9621
  518MOL0     C69805   5.085   3.785  10.756  0.8483 -0.2187 -0.1523
  518MOL0     C69806   5.124   3.809  10.610  0.0498 -0.7824 -0.1373
  518MOL0     C69807   5.130   3.963  10.587  0.5787 -0.5353  0.6917
  518MOL0     C69808   5.217   3.993  10.466  0.5905  1.1577  0.1528
  518MOL0     C69809   5.143   3.949  10.343  0.6443  0.2481  0.9186
  518MOL0     C69810   5.012   4.029  10.312 -0.0886  0.7545 -0.2629
  518MOL0     C69811   4.890   3.945  10.349 -0.6102 -0.7417  0.4669
  518MOL0     N69812   4.874   3.837  10.249  0.5146 -0.7169 -0.8477
  518MOL0     C69813   4.842   3.856  10.126 -0.4873 -0.5410  1.2671
  518MOL0     C69814   4.848   3.737  10.065  0.1656 -0.3510  0.5249
  518MOL0     C69815   4.842   3.706   9.913 -0.3338 -0.7181 -0.1676
  518MOL0     C69816   4.982   3.677   9.872  0.0301 -0.1943 -1.1968
  518MOL0     C69817   4.997   3.641   9.718  1.2052 -0.0791  0.6264
  518MOL0     C69818   4.933   3.756   9.627 -0.5508  0.7690  0.7156
  518MOL0     O69819   5.011   3.777   9.503  0.2991  0.1599  0.7624
  518MOL0     C69820   5.118   3.857   9.503 -0.5826 -0.6316 -0.3495
  518MOL0     C69821   5.201   3.884   9.611 -0.0504  0.4477 -0.0191
  518MOL0     C69822   5.302   3.971   9.603  0.1166  0.3461  0.1360
  518MOL0     C69823   5.331   4.036   9.482 -0.2753  0.9685  0.5823
  518MOL0     C69824   5.448   4.124   9.483  1.0100  1.0343 -0.5168
  518MOL0     O69825   5.505   4.148   9.602  0.2600  0.4291 -0.8611
  518MOL0     C69826   5.607   4.245   9.608  0.5789 -0.5028 -0.6580
  518MOL0     C69827   5.563   4.373   9.641  0.1557 -0.6268  0.5169
  518MOL0     C69828   5.660   4.476   9.663  0.1152 -0.4022  0.3472
  518MOL0     C69829   5.796   4.450   9.648  0.3685 -0.5376  0.2616
  518MOL0     O69830   5.901   4.537   9.647  0.2992  0.3142  0.2627
  518MOL0     C69831   5.864   4.669   9.701  0.3982  0.7651  0.2978
  518MOL0     C69832   5.972   4.771   9.662  0.2350  0.4747  0.1994
  518MOL0     C69833   6.100   4.752   9.743 -0.4301 -0.9329 -1.2230
  518MOL0     C69834   6.076   4.823   9.882  0.0481 -0.0436  0.5236
  518MOL0     C69835   6.189   4.788   9.981  0.3210  0.3420 -0.1853
  518MOL0     C69836   6.313   4.879   9.966 -0.0223  0.4758  0.4496
  518MOL0     C69837   6.397   4.856   9.842 -0.6782  0.0117 -0.9001
  518MOL0     C69838   6.529   4.941   9.848  0.1956  0.7943 -0.6472
  518MOL0    Cl69839   6.509   5.113   9.879  0.6489 -0.2340 -0.0736
  518MOL0     C69840   5.835   4.324   9.603  0.1723  0.8011  0.5043
  518MOL0     C69841   5.743   4.222   9.576  0.0063 -0.0690  0.3288
  518MOL0     O69842   5.485   4.160   9.373  0.3612  0.4979 -0.4048
  518MOL0     C69843   5.248   4.014   9.369  1.2950 -0.4407  0.0725
  518MOL0     C69844   5.145   3.920   9.384  0.0199 -0.3335 -0.2213
  518MOL0     N69845   4.887   3.644  10.161 -0.1523  0.3793 -0.3964
  518MOL0     N69846   4.893   3.708  10.270 -0.2990 -0.3886 -1.4227
  518MOL0     C69847   4.872   3.489  10.911  0.6710  0.4380  1.0746
  518MOL0     C69848   4.735   3.479  10.922  1.0168 -0.5635  0.4429
  518MOL0     C69849   4.315   3.604  11.082 -0.8372 -0.1047 -0.2933
  518MOL0     C69850   4.265   3.612  10.950 -1.4558  0.5972 -0.1765
  518MOL0     C69851   4.130   3.601  10.930  0.3380  0.3057  0.0959
  518MOL0     C69852   4.032   3.611  11.030  0.0826  0.5283  0.0063
  518MOL0     O69853   3.900   3.603  10.982 -0.0823  0.4001 -0.0498
  518MOL0     C69854   3.792   3.614  11.074  0.0625  0.3967 -0.6323
  518MOL0     C69855   3.676   3.544  10.999  0.2613 -0.0492  0.0450
  518MOL0     C69856   3.578   3.490  11.096 -0.4563  0.2965 -0.9787
  518MOL0     C69857   3.445   3.445  11.030  0.1761  0.3842  0.5771
  518MOL0     C69858   3.337   3.430  11.128  0.2623  0.3331  0.1054
  518MOL0     C69859   3.247   3.398  11.196 -0.0381 -0.2699 -0.2187
  518MOL0     C69860   4.077   3.612  11.160  0.0336 -1.4069  0.8229
  518MOL0     C69861   4.218   3.603  11.186 -0.3933  0.1948 -0.1528
  518MOL0     C69862   4.250   3.620  11.338 -0.1961  0.3156  0.2691
  518MOL0     H69863   4.662   3.795  11.024 -0.9097 -0.5228 -2.1782
  518MOL0     H69864   4.923   3.814  11.007 -1.3933  0.7935 -0.1712
  518MOL0     H69865   5.208   3.605  10.771  0.5122  0.7344  1.6853
  518MOL0     H69866   5.039   3.570  10.728 -1.5511 -0.0444  1.1427
  518MOL0     H69867   5.155   3.837  10.821  0.7410 -1.9742  1.4905
  518MOL0     H69868   4.981   3.819  10.762  0.5353 -1.1089 -0.3328
  518MOL0     H69869   5.056   3.756  10.543  3.1020 -1.9683 -2.5690
  518MOL0     H69870   5.223   3.763  10.595  0.5456  0.5536 -1.2455
  518MOL0     H69871   5.037   4.019  10.575  1.8830  1.6373  0.0793
  518MOL0     H69872   5.187   4.012  10.666 -1.6512  1.4131  1.2231
  518MOL0     H69873   5.220   4.103  10.469 -0.7443  1.1905  2.6670
  518MOL0     H69874   5.310   3.936  10.479 -0.4833 -0.0840  3.3480
  518MOL0     H69875   5.217   3.963  10.264 -0.8583 -0.2037 -0.6223
  518MOL0     H69876   5.134   3.840  10.336  1.9790  0.2148 -1.4612
  518MOL0     H69877   5.012   4.050  10.205  0.8688  0.9187 -0.2412
  518MOL0     H69878   5.028   4.128  10.355 -0.3662  0.1335  1.3435
  518MOL0     H69879   4.896   3.914  10.454  0.4767 -0.6212  0.4553
  518MOL0     H69880   4.795   3.997  10.337  0.2800  0.4149 -2.3054
  518MOL0     H69881   4.816   3.949  10.077 -0.6256 -1.7908 -1.1672
  518MOL0     H69882   4.777   3.621   9.889  0.1369 -1.1553  0.0810
  518MOL0     H69883   4.803   3.798   9.867  0.3971  0.8516  2.1902
  518MOL0     H69884   5.044   3.766   9.884 -0.7121  0.1503  0.2782
  518MOL0     H69885   5.024   3.599   9.935 -3.0435 -0.6913  0.4496
  518MOL0     H69886   4.942   3.550   9.693 -1.1850  1.2811  0.5733
  518MOL0     H69887   5.102   3.632   9.687  0.6951 -1.2870 -0.8636
  518MOL0     H69888   4.920   3.858   9.665  1.4363  1.5087 -0.4426
  518MOL0     H69889   4.835   3.710   9.614  0.7128 -2.6650  2.1708
  518MOL0     H69890   5.193   3.846   9.713 -0.3208  1.8985  0.5184
  518MOL0     H69891   5.348   3.983   9.700 -1.2385 -2.3823  1.2057
  518MOL0     H69892   5.458   4.393   9.658  0.0479 -0.7415  0.0054
  518MOL0     H69893   5.612   4.571   9.683 -0.1958  0.3240 -3.2610
  518MOL0     H69894   5.770   4.710   9.664  0.8950  0.2648 -1.6377
  518MOL0     H69895   5.845   4.667   9.809 -0.3197  0.1585  0.1655
  518MOL0     H69896   6.012   4.762   9.561 -1.5260 -0.8681 -0.4331
  518MOL0     H69897   5.929   4.871   9.672 -1.0457  0.3051 -2.6418
  518MOL0     H69898   6.127   4.646   9.751  3.5728  0.0054  0.2047
  518MOL0     H69899   6.186   4.801   9.697  3.2210 -1.3366  4.1897
  518MOL0     H69900   5.992   4.768   9.924 -0.6238  1.3344  1.0217
  518MOL0     H69901   6.045   4.928   9.878 -0.6523 -0.2747 -1.2842
  518MOL0     H69902   6.211   4.681   9.972 -2.1560 -0.0538 -3.8334
  518MOL0     H69903   6.150   4.804  10.082  3.7481 -2.0495  1.7309
  518MOL0     H69904   6.288   4.985   9.957  0.4326  0.5297 -0.2649
  518MOL0     H69905   6.383   4.852  10.045  2.4865  0.5444 -1.6155
  518MOL0     H69906   6.347   4.892   9.752 -2.3609 -0.9339 -0.3978
  518MOL0     H69907   6.419   4.749   9.835  2.0127  0.4366 -0.1749
  518MOL0     H69908   6.600   4.912   9.926  0.6202  1.3496 -0.8231
  518MOL0     H69909   6.579   4.934   9.751  0.2007  2.7038 -0.8164
  518MOL0     H69910   5.941   4.307   9.586  0.3578  1.4193  0.9859
  518MOL0     H69911   5.766   4.130   9.522 -0.5202 -0.3829  0.6328
  518MOL0     H69912   5.259   4.072   9.278  0.8613  0.5097  0.6054
  518MOL0     H69913   5.079   3.893   9.302 -0.4832  1.0046 -0.2833
  518MOL0     H69914   4.931   3.407  10.871  0.3016  1.6640 -2.2552
  518MOL0     H69915   4.672   3.394  10.898  0.5403 -1.0576  3.0535
  518MOL0     H69916   4.321   3.625  10.859 -0.1809 -2.6206  0.0245
  518MOL0     H69917   4.070   3.592  10.841  1.6983  0.1377 -0.8333
  518MOL0     H69918   3.770   3.714  11.114  2.5412  0.4241  0.8664
  518MOL0     H69919   3.824   3.555  11.161  0.6341  2.2599  0.4818
  518MOL0     H69920   3.714   3.454  10.948 -1.6805 -0.7806 -0.2023
  518MOL0     H69921   3.638   3.603  10.915 -0.9688  0.2192  0.7729
  518MOL0     H69922   3.553   3.557  11.179 -0.1990  0.2411 -0.8572
  518MOL0     H69923   3.614   3.399  11.145 -1.1329 -0.1695 -1.3286
  518MOL0     H69924   3.415   3.524  10.961  1.3199 -1.8260 -2.6819
  518MOL0     H69925   3.470   3.353  10.976  0.6151 -0.1316  1.6248
  518MOL0     H69926   3.161   3.362  11.247 -1.1843 -0.4225 -2.1611
  518MOL0     H69927   3.997   3.615  11.233  1.6398 -0.4054  2.6575
  518MOL0     H69928   4.346   3.571  11.358  0.4269  0.7174 -1.5850
  518MOL0     H69929   4.265   3.726  11.361  1.5736  1.0727 -3.5653
  518MOL0     H69930   4.174   3.562  11.392 -0.2535  0.0056 -0.1425
  519MOL0     O69931   6.943   3.120   7.051  0.2800 -0.6176  0.4006
  519MOL0     C69932   6.870   3.134   6.954 -0.2418 -0.2583 -0.6353
  519MOL0     O69933   6.894   3.087   6.833  0.6797  0.3870 -0.4126
  519MOL0     C69934   7.017   3.058   6.799 -0.5020 -0.0038  0.6828
  519MOL0     C69935   7.050   2.920   6.770  0.2300 -1.4956  0.4436
  519MOL0     C69936   7.183   2.880   6.738  0.0890 -0.5559 -0.6280
  519MOL0     C69937   7.280   2.983   6.728 -0.6134 -0.1285  0.1136
  519MOL0     O69938   7.411   2.952   6.705  0.0954 -0.5823 -0.1715
  519MOL0     C69939   7.455   2.829   6.776 -0.5875 -0.8704 -0.3827
  519MOL0     C69940   7.605   2.817   6.779 -0.3445  0.0272  0.8143
  519MOL0     C69941   7.673   2.813   6.644  0.2827  0.6568 -0.6140
  519MOL0     C69942   7.823   2.820   6.655  0.0051  0.4795  0.9542
  519MOL0     C69943   7.884   2.684   6.700 -0.3792 -0.0115  0.2862
  519MOL0     C69944   8.023   2.698   6.743 -0.1788  0.8847  1.1093
  519MOL0     C69945   8.113   2.709   6.618 -0.2603 -1.1804  0.4650
  519MOL0     C69946   8.262   2.731   6.664 -0.6068  0.8506 -0.0010
  519MOL0     N69947   8.295   2.875   6.693 -0.6950 -0.2132  0.3972
  519MOL0     C69948   8.395   2.950   6.635 -0.0055  0.3476  0.5760
  519MOL0     C69949   8.395   3.055   6.711 -0.1822  0.1093 -0.0213
  519MOL0     C69950   8.506   3.163   6.708  0.8649  0.1510  0.3702
  519MOL0     C69951   8.629   3.110   6.781  0.5106  0.5954  0.4136
  519MOL0     C69952   8.749   3.205   6.751 -0.1308  0.1114  0.6168
  519MOL0     C69953   8.882   3.170   6.822 -0.4062 -0.5191  0.4164
  519MOL0     O69954   8.986   3.259   6.778  0.4593  0.5800 -0.0251
  519MOL0     C69955   9.108   3.245   6.841 -0.1143  0.4650  0.1856
  519MOL0     C69956   9.179   3.120   6.841  0.1032  0.0231 -0.8999
  519MOL0     C69957   9.302   3.110   6.908  0.1918  0.5945 -0.9684
  519MOL0     C69958   9.360   3.221   6.973  0.7346 -0.7764  0.1204
  519MOL0     C69959   9.481   3.211   7.060  0.4493  0.0157 -0.0367
  519MOL0     O69960   9.524   3.323   7.116  0.0430 -0.5277 -0.7195
  519MOL0     C69961   9.661   3.344   7.116  0.5421  0.4165 -0.1964
  519MOL0     C69962   9.710   3.439   7.022  0.5758  0.0641 -0.4995
  519MOL0     C69963   9.849   3.471   7.012  0.1481  1.0844  0.5952
  519MOL0     C69964   9.938   3.415   7.098  0.1768  0.8175  0.8947
  519MOL0     O69965  10.073   3.430   7.083 -0.3511 -0.7184 -0.3665
  519MOL0     C69966  10.177   3.382   7.178 -0.5702  0.9587  0.0609
  519MOL0     C69967  10.194   3.473   7.299 -0.2558  0.4539  0.1158
  519MOL0     C69968  10.288   3.405   7.405 -0.1795 -0.1132  1.2587
  519MOL0     C69969  10.312   3.495   7.522 -0.1326  0.3200  0.9676
  519MOL0     C69970  10.411   3.428   7.618 -0.1918  0.0955  0.2994
  519MOL0     C69971  10.378   3.289   7.666 -0.1627  0.0913 -0.8391
  519MOL0     C69972  10.262   3.278   7.775 -0.0359 -0.2554  0.2480
  519MOL0     C69973  10.277   3.360   7.904 -0.7725  0.1040  0.1763
  519MOL0    Cl69974  10.401   3.272   7.996  0.1175  0.1965  0.0680
  519MOL0     C69975   9.890   3.324   7.196 -0.7248  0.2231 -0.0987
  519MOL0     C69976   9.754   3.283   7.195  0.3377 -0.0729 -0.0660
  519MOL0     O69977   9.532   3.103   7.075  0.5843 -0.4886 -0.2233
  519MOL0     C69978   9.295   3.342   6.954 -0.5997  0.3400 -0.0003
  519MOL0     C69979   9.167   3.354   6.902  0.1992 -0.7881 -0.1545
  519MOL0     N69980   8.293   3.058   6.801  0.0621 -0.4855 -0.7932
  519MOL0     N69981   8.234   2.945   6.791 -0.0408  0.1084  0.1941
  519MOL0     C69982   7.248   3.113   6.755 -0.6321  0.1713 -0.1017
  519MOL0     C69983   7.123   3.151   6.787  0.1425 -1.2803  0.8322
  519MOL0     C69984   6.730   3.186   6.965  0.3461  0.1246 -0.6215
  519MOL0     C69985   6.679   3.254   6.853  0.4265 -0.4504  0.2624
  519MOL0     C69986   6.549   3.311   6.856  0.5126 -0.5139 -1.1473
  519MOL0     C69987   6.476   3.309   6.974 -0.1245 -0.2577  0.2907
  519MOL0     O69988   6.351   3.369   6.986 -0.7557 -0.0908 -0.6185
  519MOL0     C69989   6.271   3.391   6.869 -0.4748  0.5928 -0.0444
  519MOL0     C69990   6.134   3.434   6.914 -0.0851  0.7393  0.4904
  519MOL0     C69991   6.054   3.478   6.791 -0.5964  0.0207 -0.7389
  519MOL0     C69992   5.906   3.493   6.821  0.6138  0.0970  0.1026
  519MOL0     C69993   5.871   3.602   6.912  0.3029 -0.2406  0.5730
  519MOL0     C69994   5.806   3.676   6.980 -0.2701 -0.2813 -0.3279
  519MOL0     C69995   6.530   3.245   7.090 -0.7402 -0.2208 -0.7405
  519MOL0     C69996   6.654   3.181   7.086  0.5478  0.1674 -0.6065
  519MOL0     C69997   6.685   3.109   7.208 -0.4776  0.0524  0.2953
  519MOL0     H69998   6.972   2.843   6.772  0.7907 -2.2226 -2.2134
  519MOL0     H69999   7.203   2.773   6.736 -0.1160 -0.5890 -1.0791
  519MOL0     H70000   7.430   2.844   6.882  0.8697  1.0944 -0.2518
  519MOL0     H70001   7.412   2.737   6.736  0.3735 -0.0744 -3.4972
  519MOL0     H70002   7.630   2.726   6.835 -1.4037 -1.5693 -1.1609
  519MOL0     H70003   7.637   2.904   6.837 -2.1878  0.7363  0.8254
  519MOL0     H70004   7.641   2.895   6.579 -0.9491 -1.0832 -2.3099
  519MOL0     H70005   7.645   2.714   6.608  2.3319 -1.7834  3.6523
  519MOL0     H70006   7.871   2.847   6.561  0.2330  0.3005  1.0179
  519MOL0     H70007   7.864   2.896   6.722  1.7317  0.4886 -0.0750
  519MOL0     H70008   7.820   2.647   6.781  0.5218  2.5233  2.2849
  519MOL0     H70009   7.881   2.606   6.623  1.7862 -1.0584  1.1932
  519MOL0     H70010   8.031   2.779   6.816  0.7177  0.2237  1.7593
  519MOL0     H70011   8.056   2.609   6.797  1.4571  1.3359  0.9047
  519MOL0     H70012   8.066   2.787   6.557 -1.2952 -1.3000  1.0712
  519MOL0     H70013   8.111   2.616   6.559 -2.1192 -1.2488  0.5587
  519MOL0     H70014   8.295   2.666   6.746 -2.0348 -0.9527 -0.7645
  519MOL0     H70015   8.317   2.684   6.582 -0.0262  1.6236 -0.0664
  519MOL0     H70016   8.466   2.925   6.557 -2.3936 -0.5806 -1.4528
  519MOL0     H70017   8.539   3.182   6.605 -0.7989  0.2471 -0.1788
  519MOL0     H70018   8.464   3.256   6.749 -0.6939 -0.4179  0.1261
  519MOL0     H70019   8.609   3.097   6.888  0.4358  0.1599  0.3512
  519MOL0     H70020   8.655   3.016   6.731 -2.4860  0.8822 -1.9612
  519MOL0     H70021   8.721   3.305   6.786 -1.0083 -0.3105  1.1701
  519MOL0     H70022   8.766   3.213   6.643 -1.2633  2.2112  0.5333
  519MOL0     H70023   8.916   3.067   6.803 -0.7706 -0.5266 -0.2279
  519MOL0     H70024   8.877   3.171   6.931 -0.7015 -1.3235  0.4199
  519MOL0     H70025   9.137   3.034   6.790 -1.5636  1.2104 -1.6443
  519MOL0     H70026   9.352   3.014   6.912  1.0879  1.0913  1.0084
  519MOL0     H70027   9.637   3.493   6.963 -1.5986 -2.1614 -0.0346
  519MOL0     H70028   9.893   3.541   6.942  1.7881 -0.5309 -0.0847
  519MOL0     H70029  10.166   3.279   7.213  0.3761  0.8383  0.0309
  519MOL0     H70030  10.269   3.377   7.119  0.5359 -0.6336  1.8109
  519MOL0     H70031  10.241   3.567   7.269  1.6937  0.0366  1.6539
  519MOL0     H70032  10.090   3.486   7.331 -0.9132 -0.3659 -1.5246
  519MOL0     H70033  10.240   3.315   7.445  0.8757 -0.3769  1.9847
  519MOL0     H70034  10.377   3.374   7.349 -0.7628  1.4627 -0.6722
  519MOL0     H70035  10.213   3.511   7.567 -0.4383 -0.4842  0.6033
  519MOL0     H70036  10.363   3.586   7.489 -0.7054  0.5158  0.6065
  519MOL0     H70037  10.418   3.495   7.704 -0.9609  2.5118 -1.4065
  519MOL0     H70038  10.511   3.418   7.575  0.6506  0.2833  2.1204
  519MOL0     H70039  10.354   3.219   7.585  1.9360 -4.0927  1.8081
  519MOL0     H70040  10.467   3.253   7.718 -0.0313  1.1378 -0.3243
  519MOL0     H70041  10.262   3.172   7.801  1.7795 -0.2922  0.2439
  519MOL0     H70042  10.170   3.300   7.722  0.4918 -0.5028 -0.8032
  519MOL0     H70043  10.306   3.464   7.890  1.3020 -0.1602  2.0381
  519MOL0     H70044  10.186   3.364   7.965  1.2781  3.0039  3.4255
  519MOL0     H70045   9.952   3.274   7.270 -1.2341  1.1022  0.9576
  519MOL0     H70046   9.721   3.194   7.249  2.7667 -1.8475 -1.2912
  519MOL0     H70047   9.347   3.428   6.992 -0.2288  1.0228 -1.9662
  519MOL0     H70048   9.106   3.443   6.895 -0.1543 -1.0052  0.1396
  519MOL0     H70049   7.325   3.188   6.743 -0.3450 -0.1243 -0.1206
  519MOL0     H70050   7.111   3.257   6.806  0.2166 -0.8587 -1.2564
  519MOL0     H70051   6.734   3.262   6.759  0.3987  0.2979  0.3045
  519MOL0     H70052   6.515   3.344   6.758 -1.0928 -2.2312 -1.2229
  519MOL0     H70053   6.263   3.304   6.803 -0.7957  0.8710 -0.3819
  519MOL0     H70054   6.317   3.466   6.804  1.7842 -1.5105 -1.0204
  519MOL0     H70055   6.147   3.502   6.999 -0.4442  1.0645  0.2883
  519MOL0     H70056   6.089   3.346   6.960  0.4449  0.0887 -0.2044
  519MOL0     H70057   6.069   3.406   6.710  3.1946 -0.2228 -0.0267
  519MOL0     H70058   6.086   3.572   6.745  0.1268  0.4249  0.5253
  519MOL0     H70059   5.862   3.509   6.722 -0.3198 -1.7090  0.1938
  519MOL0     H70060   5.858   3.401   6.854  1.4950 -0.1453  0.7262
  519MOL0     H70061   5.734   3.745   7.019  0.8288  1.0265 -0.5300
  519MOL0     H70062   6.466   3.226   7.175  1.5920 -2.4974  0.6612
  519MOL0     H70063   6.661   3.174   7.292 -2.4814  0.6274 -0.6610
  519MOL0     H70064   6.623   3.020   7.204  1.9694 -1.7248 -1.4193
  519MOL0     H70065   6.793   3.091   7.218 -0.0319  1.3405 -1.5613
  520MOL0     O70066   4.037   6.022   8.423 -0.4456 -0.6073 -0.1184
  520MOL0     C70067   3.989   6.015   8.312  0.8723 -0.4823 -0.0190
  520MOL0     O70068   4.049   6.014   8.184 -0.3263 -0.0248  0.1241
  520MOL0     C70069   4.182   6.020   8.193 -0.2082 -0.2521 -0.6350
  520MOL0     C70070   4.237   5.892   8.184 -0.5095 -0.2993 -0.0204
  520MOL0     C70071   4.372   5.882   8.197  0.5315  0.2807  0.2204
  520MOL0     C70072   4.456   5.996   8.223 -0.7450  0.2442  0.7365
  520MOL0     O70073   4.591   5.978   8.247 -0.4504  0.4773 -0.1392
  520MOL0     C70074   4.663   6.068   8.166 -0.7441  0.4118 -0.2216
  520MOL0     C70075   4.813   6.020   8.168  0.0054  1.1181 -0.0779
  520MOL0     C70076   4.862   6.000   8.317 -0.3194  0.2101  1.7408
  520MOL0     C70077   5.008   5.968   8.322  0.8118  0.1469  0.1414
  520MOL0     C70078   5.058   5.909   8.454 -0.3867 -0.3110  0.3522
  520MOL0     C70079   5.210   5.883   8.476 -0.8901 -0.2165  0.1759
  520MOL0     C70080   5.269   5.747   8.432  1.1713  0.0536  0.2819
  520MOL0     C70081   5.414   5.731   8.484 -0.7060 -0.1420  0.3836
  520MOL0     N70082   5.509   5.804   8.408 -0.1594 -0.0510  0.1760
  520MOL0     C70083   5.616   5.857   8.462  0.6197  0.2651  0.2282
  520MOL0     C70084   5.680   5.904   8.354  0.6388  0.9497 -0.4961
  520MOL0     C70085   5.820   5.960   8.363 -0.0542 -0.7472  0.2685
  520MOL0     C70086   5.918   5.849   8.339  0.7146 -0.0973  0.2214
  520MOL0     C70087   6.060   5.897   8.346  0.2815 -0.8931 -0.4598
  520MOL0     C70088   6.121   5.933   8.484  0.7279 -0.0481  0.2014
  520MOL0     O70089   6.259   5.950   8.456 -0.3699  0.2676  0.3864
  520MOL0     C70090   6.352   5.927   8.549 -0.5775  1.0252 -0.9298
  520MOL0     C70091   6.330   5.880   8.679 -0.1820 -0.2652  0.8712
  520MOL0     C70092   6.436   5.849   8.763 -0.6068  0.1580  0.6465
  520MOL0     C70093   6.569   5.855   8.710  0.5706 -0.1880 -0.2700
  520MOL0     C70094   6.678   5.840   8.800  0.6106  0.5713 -0.1901
  520MOL0     O70095   6.801   5.836   8.747  0.3276  0.3341 -0.4012
  520MOL0     C70096   6.906   5.846   8.832 -0.3862 -0.0822 -0.1269
  520MOL0     C70097   6.951   5.972   8.871 -0.0471 -1.2064 -0.5265
  520MOL0     C70098   7.065   5.979   8.947  0.0025  0.3763 -0.2063
  520MOL0     C70099   7.145   5.863   8.985  0.2372 -0.1227  0.1533
  520MOL0     O70100   7.261   5.857   9.051 -0.4620  0.0445 -0.0736
  520MOL0     C70101   7.296   5.982   9.116  0.5983 -0.2855  0.7672
  520MOL0     C70102   7.424   5.973   9.185 -0.2259  0.3003  0.5486
  520MOL0     C70103   7.543   5.975   9.096  0.4355 -0.4487  0.1679
  520MOL0     C70104   7.676   5.960   9.165  0.2935 -0.2662 -0.0850
  520MOL0     C70105   7.780   5.953   9.054 -0.8042  0.5609  0.7046
  520MOL0     C70106   7.930   5.975   9.095  0.7847  0.8138 -0.2561
  520MOL0     C70107   7.997   5.848   9.135 -0.6618  0.1356  1.3678
  520MOL0     C70108   7.966   5.805   9.277 -0.0788 -0.3681  0.2038
  520MOL0    Cl70109   8.014   5.926   9.393  0.1247 -0.4508 -0.0488
  520MOL0     C70110   7.096   5.736   8.947  0.6243  1.2603 -0.7909
  520MOL0     C70111   6.982   5.726   8.866 -0.2065  0.2620  0.5414
  520MOL0     O70112   6.651   5.804   8.918  0.2424 -0.3895 -0.4606
  520MOL0     C70113   6.590   5.899   8.584  0.0578 -0.3905 -0.4495
  520MOL0     C70114   6.489   5.954   8.509  0.5086  0.8293 -0.3088
  520MOL0     N70115   5.611   5.871   8.241  0.3790  0.3381  0.1785
  520MOL0     N70116   5.505   5.811   8.274 -0.1456  0.2570  0.2767
  520MOL0     C70117   4.393   6.118   8.240  0.2266  0.3887 -0.6255
  520MOL0     C70118   4.257   6.133   8.221 -1.1027  0.5755  0.2423
  520MOL0     C70119   3.842   5.990   8.295  0.3916  0.5830 -0.4390
  520MOL0     C70120   3.786   5.993   8.166  0.6128  0.8300  1.7290
  520MOL0     C70121   3.650   5.985   8.137  0.1383 -0.2166 -0.0516
  520MOL0     C70122   3.566   5.998   8.241  0.2197  1.0263 -0.1000
  520MOL0     O70123   3.436   5.991   8.207  0.3719 -0.2420  0.0764
  520MOL0     C70124   3.329   6.048   8.295  0.0989  0.9927 -0.6113
  520MOL0     C70125   3.204   6.074   8.211 -0.1318 -0.2020  0.6578
  520MOL0     C70126   3.164   5.942   8.130  0.5518  0.2388 -0.6292
  520MOL0     C70127   3.157   5.817   8.230 -0.5485  0.7037 -0.0026
  520MOL0     C70128   3.120   5.702   8.145  0.2471 -0.2259 -0.0537
  520MOL0     C70129   3.095   5.593   8.106  0.2103 -1.4825  0.1628
  520MOL0     C70130   3.611   5.996   8.373 -1.0510 -0.8875 -0.6388
  520MOL0     C70131   3.748   5.991   8.402 -0.4441  0.0480 -0.5512
  520MOL0     C70132   3.778   6.012   8.550  0.2146 -0.0409  1.0042
  520MOL0     H70133   4.165   5.813   8.164 -2.9848  1.4574  1.3990
  520MOL0     H70134   4.409   5.784   8.170 -2.3052 -0.1181 -2.8464
  520MOL0     H70135   4.622   6.059   8.065 -0.7434 -0.8533 -0.1264
  520MOL0     H70136   4.649   6.168   8.207  0.8434  0.4937  0.1847
  520MOL0     H70137   4.878   6.093   8.119  0.1945  0.6509 -0.5338
  520MOL0     H70138   4.819   5.921   8.122  2.2067  0.9922  0.4024
  520MOL0     H70139   4.818   5.914   8.369  1.7557 -0.1831  2.9416
  520MOL0     H70140   4.832   6.089   8.373 -3.1001 -1.2163  2.7671
  520MOL0     H70141   5.038   5.897   8.245  2.1105  0.0938  0.6681
  520MOL0     H70142   5.063   6.063   8.315  1.4623 -0.2858 -0.7096
  520MOL0     H70143   5.016   5.964   8.539  3.2774  0.9659  1.5171
  520MOL0     H70144   5.011   5.811   8.460  2.1424 -1.5999  0.0151
  520MOL0     H70145   5.263   5.962   8.421  1.6204 -0.1804  2.4797
  520MOL0     H70146   5.218   5.893   8.584 -2.5404  0.2752  0.2904
  520MOL0     H70147   5.270   5.742   8.323  3.3905  0.2995  0.2375
  520MOL0     H70148   5.215   5.665   8.480  1.2336  0.9779  1.9917
  520MOL0     H70149   5.429   5.754   8.590 -1.0425  2.1307  0.0001
  520MOL0     H70150   5.453   5.629   8.478 -1.5114 -0.4149 -0.6638
  520MOL0     H70151   5.660   5.859   8.561 -0.6981 -0.2400  0.8424
  520MOL0     H70152   5.829   6.030   8.279  1.3183 -1.1317  0.0860
  520MOL0     H70153   5.838   6.018   8.454 -0.9608 -2.9237  1.9213
  520MOL0     H70154   5.896   5.775   8.416 -1.4862  1.5971  1.3447
  520MOL0     H70155   5.901   5.810   8.238  2.7756 -0.2991 -0.0818
  520MOL0     H70156   6.085   5.987   8.287  1.0113  0.5210  1.8766
  520MOL0     H70157   6.115   5.809   8.310  0.7889 -0.8918  0.3054
  520MOL0     H70158   6.106   5.849   8.553 -0.6577  0.5503  0.6808
  520MOL0     H70159   6.071   6.024   8.519 -0.0012 -0.5820  0.5866
  520MOL0     H70160   6.230   5.877   8.721 -0.9385  0.7651 -0.7679
  520MOL0     H70161   6.413   5.802   8.858  1.1932 -0.6605  0.7150
  520MOL0     H70162   6.906   6.061   8.828  2.3578  0.2780 -0.1716
  520MOL0     H70163   7.091   6.076   8.989 -1.2428 -0.0152  1.5926
  520MOL0     H70164   7.299   6.063   9.043 -2.0224 -1.5676 -0.9439
  520MOL0     H70165   7.219   6.012   9.188 -2.1127  0.3823 -2.1706
  520MOL0     H70166   7.439   6.066   9.240  3.8234  0.8514 -1.1291
  520MOL0     H70167   7.439   5.890   9.255  2.4038 -0.5039 -0.8609
  520MOL0     H70168   7.537   5.899   9.017  1.3963  1.6496 -2.0506
  520MOL0     H70169   7.536   6.067   9.037 -1.3915  0.0233  1.0326
  520MOL0     H70170   7.671   5.869   9.226 -0.9687 -1.0493 -1.2729
  520MOL0     H70171   7.701   6.052   9.218  0.8447 -1.6808  2.2238
  520MOL0     H70172   7.767   6.036   8.984  3.8275  1.9628  1.1572
  520MOL0     H70173   7.768   5.857   9.003  1.3629  0.1509  0.8487
  520MOL0     H70174   7.977   6.019   9.006  0.4490 -1.0737 -1.4411
  520MOL0     H70175   7.931   6.047   9.177 -3.8246  1.0399 -0.1356
  520MOL0     H70176   8.105   5.865   9.135 -0.4195 -1.1203 -0.5220
  520MOL0     H70177   7.973   5.763   9.071 -1.4895  1.3139  0.0528
  520MOL0     H70178   7.859   5.788   9.292 -1.1586  1.4276 -3.8737
  520MOL0     H70179   8.015   5.709   9.294 -0.7022 -1.3079 -2.7166
  520MOL0     H70180   7.157   5.653   8.980  3.1459  2.3678 -2.3141
  520MOL0     H70181   6.946   5.625   8.851  0.8390 -0.2988  1.6472
  520MOL0     H70182   6.690   5.931   8.557  0.8975 -1.7952  0.8437
  520MOL0     H70183   6.513   5.995   8.412  1.5156 -2.2877 -1.5070
  520MOL0     H70184   4.442   6.210   8.271  0.7652 -0.0965 -0.0158
  520MOL0     H70185   4.205   6.222   8.253 -0.3736 -0.0574  3.4578
  520MOL0     H70186   3.844   6.008   8.075  0.3051  1.1883  1.5901
  520MOL0     H70187   3.619   5.987   8.033 -0.3109 -2.6195 -0.0235
  520MOL0     H70188   3.360   6.140   8.345 -1.0324  1.6328 -1.0315
  520MOL0     H70189   3.305   5.978   8.375 -3.8477  0.0068 -2.3654
  520MOL0     H70190   3.215   6.157   8.140 -1.0945 -1.7012 -1.3308
  520MOL0     H70191   3.121   6.099   8.276  0.6216 -0.9185  1.9359
  520MOL0     H70192   3.242   5.920   8.055  0.5809 -1.5331 -0.1262
  520MOL0     H70193   3.067   5.945   8.080  0.4075 -1.3935 -0.5105
  520MOL0     H70194   3.255   5.791   8.271  0.1441  2.4085 -0.4655
  520MOL0     H70195   3.093   5.840   8.315 -0.3314  1.3087  0.0029
  520MOL0     H70196   3.085   5.498   8.058 -3.5199 -0.4150 -1.5977
  520MOL0     H70197   3.540   6.012   8.453 -1.0037 -1.6963 -0.4289
  520MOL0     H70198   3.842   5.935   8.594 -0.2265  0.1275  1.9521
  520MOL0     H70199   3.841   6.101   8.558  1.7631 -0.9981  0.0876
  520MOL0     H70200   3.692   6.039   8.611  0.8741  1.8323  1.1837
  521MOL0     O70201   5.256   8.985   4.657 -0.2053  0.3161  0.1349
  521MOL0     C70202   5.196   9.009   4.763 -0.6459 -0.2047 -0.6594
  521MOL0     O70203   5.258   9.009   4.887  0.5197  0.7164  0.9912
  521MOL0     C70204   5.397   9.010   4.897 -0.3187  0.2515 -1.0512
  521MOL0     C70205   5.497   9.061   4.810 -0.5740 -0.3456 -0.3767
  521MOL0     C70206   5.629   9.038   4.844 -0.6948  0.2655  0.2764
  521MOL0     C70207   5.663   8.976   4.967 -0.8952 -0.3466 -0.8514
  521MOL0     O70208   5.784   8.932   5.007 -0.0443  0.3802  0.2653
  521MOL0     C70209   5.902   8.973   4.932 -0.0581  0.0885  0.0902
  521MOL0     C70210   6.016   8.877   4.981  0.1357 -0.2276 -0.4214
  521MOL0     C70211   6.150   8.938   4.943 -0.1617  0.0734  0.1296
  521MOL0     C70212   6.257   8.818   4.941  0.4440 -0.4932 -0.3010
  521MOL0     C70213   6.400   8.874   4.929 -0.6151 -0.6363  0.4669
  521MOL0     C70214   6.484   8.754   4.907 -0.2353 -0.7975 -0.7128
  521MOL0     C70215   6.636   8.773   4.937  0.5526  0.4400  0.5383
  521MOL0     C70216   6.713   8.635   4.927 -1.1490 -0.2507  0.2275
  521MOL0     N70217   6.836   8.656   4.994 -0.4882 -0.2140 -0.3192
  521MOL0     C70218   6.885   8.573   5.093 -0.3961 -0.3833  0.7154
  521MOL0     C70219   7.008   8.623   5.136 -0.2439  0.3200  0.2620
  521MOL0     C70220   7.073   8.558   5.252 -0.2074 -0.1187 -0.0866
  521MOL0     C70221   7.229   8.581   5.252  0.7894 -0.1136  0.0511
  521MOL0     C70222   7.267   8.720   5.295  0.0700  0.2881  0.5684
  521MOL0     C70223   7.421   8.735   5.310  0.1143  0.2362  0.1161
  521MOL0     O70224   7.462   8.662   5.423  0.3230 -0.0708 -0.9505
  521MOL0     C70225   7.599   8.627   5.449  0.8600 -1.1871 -0.0401
  521MOL0     C70226   7.707   8.630   5.361  0.1584  0.0591 -0.3519
  521MOL0     C70227   7.837   8.610   5.416 -0.0215 -0.0470  0.1583
  521MOL0     C70228   7.858   8.573   5.550 -0.1519 -0.0645 -0.1915
  521MOL0     C70229   7.995   8.571   5.602  0.8578 -0.4385 -0.1436
  521MOL0     O70230   8.016   8.569   5.740  0.2960  0.3599 -0.1310
  521MOL0     C70231   8.133   8.511   5.781 -0.2909  0.4151  0.1583
  521MOL0     C70232   8.188   8.558   5.899 -0.0467  0.5064  0.1616
  521MOL0     C70233   8.297   8.502   5.962 -0.3520  0.5442  0.6580
  521MOL0     C70234   8.350   8.384   5.905  0.0213 -0.0997 -1.1009
  521MOL0     O70235   8.464   8.325   5.955 -0.5332  0.3668  0.4160
  521MOL0     C70236   8.516   8.371   6.084 -0.0342 -0.0185  0.0601
  521MOL0     C70237   8.638   8.293   6.117 -0.1495  0.2958 -0.3335
  521MOL0     C70238   8.687   8.348   6.251  0.2206 -0.5780 -0.2757
  521MOL0     C70239   8.838   8.315   6.259 -1.1906 -0.7588  0.6571
  521MOL0     C70240   8.893   8.357   6.396 -0.0052  0.4179 -0.1910
  521MOL0     C70241   8.878   8.506   6.422  0.4945  0.3442  0.0374
  521MOL0     C70242   8.960   8.542   6.553  0.3564 -0.0943  0.3760
  521MOL0     C70243   8.921   8.694   6.583  0.4649  0.3673  0.2972
  521MOL0    Cl70244   9.065   8.763   6.669  0.0317  0.0496 -0.2218
  521MOL0     C70245   8.307   8.344   5.784 -0.0752 -0.0913 -0.3650
  521MOL0     C70246   8.196   8.401   5.726 -0.5754  0.2494  0.3242
  521MOL0     O70247   8.082   8.562   5.518 -0.1791  1.1040 -0.0713
  521MOL0     C70248   7.739   8.551   5.630 -0.1483  1.2605  0.1496
  521MOL0     C70249   7.613   8.575   5.581  0.8111 -0.3897  0.9371
  521MOL0     N70250   7.032   8.737   5.058  0.3012  0.5525  0.3838
  521MOL0     N70251   6.935   8.745   4.969 -0.1698 -0.0848 -0.4314
  521MOL0     C70252   5.564   8.956   5.059  0.1038  0.7343 -0.8666
  521MOL0     C70253   5.429   8.963   5.023  0.2095  0.2916  0.2805
  521MOL0     C70254   5.059   9.076   4.747  0.1101  0.1388 -0.8254
  521MOL0     C70255   5.016   9.131   4.617 -0.4093 -0.2712 -0.2771
  521MOL0     C70256   4.890   9.178   4.596 -0.0761  0.1553  0.1278
  521MOL0     C70257   4.788   9.174   4.698  0.6609  1.0808  0.7874
  521MOL0     O70258   4.662   9.221   4.651  0.0969 -0.0617 -0.6317
  521MOL0     C70259   4.545   9.184   4.717  0.2125 -0.2138 -0.6384
  521MOL0     C70260   4.435   9.274   4.672  0.3903  0.0056 -0.1377
  521MOL0     C70261   4.396   9.243   4.543  0.4785  0.8374  1.2395
  521MOL0     C70262   4.287   9.337   4.485 -0.2605  0.6317 -0.1902
  521MOL0     C70263   4.153   9.305   4.541 -0.0467  0.1034 -0.0873
  521MOL0     C70264   4.040   9.278   4.588 -0.1203 -0.5502  0.1702
  521MOL0     C70265   4.820   9.106   4.813 -0.6092  0.0297  0.3298
  521MOL0     C70266   4.953   9.070   4.843  0.0055  0.0988  0.7726
  521MOL0     C70267   4.962   8.991   4.976  0.2320  0.5204  1.0783
  521MOL0     H70268   5.471   9.117   4.721  0.4857  5.0394  2.2521
  521MOL0     H70269   5.703   9.064   4.769 -1.2699 -1.6498 -1.0485
  521MOL0     H70270   5.885   8.961   4.825 -1.0764  0.0551  0.2439
  521MOL0     H70271   5.933   9.077   4.950  1.9328 -0.2613 -1.0346
  521MOL0     H70272   5.998   8.780   4.934 -0.0698 -1.7645  2.6398
  521MOL0     H70273   6.014   8.869   5.090  0.5915 -0.2475 -0.4101
  521MOL0     H70274   6.189   9.009   5.017 -0.9136 -0.6287  1.2302
  521MOL0     H70275   6.147   8.988   4.846 -1.5054 -1.2971 -0.5866
  521MOL0     H70276   6.250   8.756   5.030 -2.6312  0.0942 -0.0260
  521MOL0     H70277   6.243   8.755   4.852 -1.2423 -0.5503 -0.0296
  521MOL0     H70278   6.416   8.954   4.856  1.1267 -1.0802  0.3028
  521MOL0     H70279   6.419   8.920   5.027  0.8454  0.1397 -0.1461
  521MOL0     H70280   6.436   8.671   4.960  1.1645 -1.3478 -0.2519
  521MOL0     H70281   6.473   8.722   4.803 -2.8348 -2.3886 -0.0379
  521MOL0     H70282   6.641   8.799   5.043  1.9030  3.4347 -0.1608
  521MOL0     H70283   6.687   8.853   4.882 -1.7232 -0.0293 -2.4769
  521MOL0     H70284   6.657   8.557   4.979 -0.3125 -0.3345  1.0333
  521MOL0     H70285   6.723   8.604   4.822 -3.4514 -0.0940 -0.0727
  521MOL0     H70286   6.846   8.485   5.143 -1.1946  0.1756  1.0879
  521MOL0     H70287   7.034   8.617   5.336  1.3535 -0.2580  0.7680
  521MOL0     H70288   7.041   8.455   5.271 -1.2528  0.2888  0.4589
  521MOL0     H70289   7.268   8.503   5.319 -0.9798  1.1645  2.7252
  521MOL0     H70290   7.262   8.569   5.149 -2.3441 -1.1536 -0.9197
  521MOL0     H70291   7.222   8.730   5.394 -4.3484 -0.2409 -1.1669
  521MOL0     H70292   7.218   8.792   5.229 -0.8188  0.2165  1.1425
  521MOL0     H70293   7.437   8.843   5.316  1.5883  0.2071 -2.1499
  521MOL0     H70294   7.462   8.699   5.215 -2.9065 -0.0529 -1.2284
  521MOL0     H70295   7.706   8.650   5.255  1.8604 -1.1897 -0.6527
  521MOL0     H70296   7.923   8.636   5.356  1.5323 -3.3714  0.7098
  521MOL0     H70297   8.145   8.647   5.944  2.6473  0.2562  3.6476
  521MOL0     H70298   8.324   8.548   6.057  1.5188  1.0092 -0.0642
  521MOL0     H70299   8.532   8.479   6.081  1.3620 -0.0866  2.4579
  521MOL0     H70300   8.452   8.364   6.172  1.1122  1.7669  1.0967
  521MOL0     H70301   8.612   8.187   6.127  0.6270  0.1156 -0.1233
  521MOL0     H70302   8.721   8.307   6.046 -0.0793 -1.1707 -0.5796
  521MOL0     H70303   8.662   8.454   6.260 -0.1793 -0.7291  0.4638
  521MOL0     H70304   8.636   8.290   6.328  1.6709 -0.9080  0.4610
  521MOL0     H70305   8.888   8.378   6.185 -2.2735  0.1667  0.6998
  521MOL0     H70306   8.861   8.209   6.243 -0.4025 -0.2575 -1.9557
  521MOL0     H70307   8.998   8.326   6.397 -0.5929 -2.1127 -2.5226
  521MOL0     H70308   8.839   8.304   6.475 -0.9988  1.2356 -0.3062
  521MOL0     H70309   8.911   8.567   6.338  1.8601 -2.2883 -1.4845
  521MOL0     H70310   8.775   8.540   6.435 -0.3636 -1.7600 -0.7811
  521MOL0     H70311   9.067   8.537   6.529  0.0606  0.6112 -1.2300
  521MOL0     H70312   8.926   8.474   6.632 -1.4632  1.0671  0.6515
  521MOL0     H70313   8.908   8.749   6.489  1.5063  1.9986  1.0582
  521MOL0     H70314   8.836   8.693   6.651  0.2376  0.6412  0.0184
  521MOL0     H70315   8.353   8.256   5.740  0.8261  1.4242 -2.6626
  521MOL0     H70316   8.153   8.364   5.633  2.0869  0.9178 -1.2810
  521MOL0     H70317   7.752   8.497   5.724 -1.7126 -2.6841 -1.6582
  521MOL0     H70318   7.522   8.565   5.639 -1.2789  0.8643 -1.8766
  521MOL0     H70319   5.604   8.929   5.156  2.7060  0.3379 -1.9729
  521MOL0     H70320   5.352   8.933   5.093 -1.7639  0.7829 -1.5508
  521MOL0     H70321   5.087   9.141   4.536  0.6219 -0.8347  0.5259
  521MOL0     H70322   4.853   9.209   4.499  0.6611 -1.3985 -0.6793
  521MOL0     H70323   4.561   9.191   4.825 -1.5843  3.1136 -0.4610
  521MOL0     H70324   4.523   9.079   4.697  0.2203 -0.0628 -1.4896
  521MOL0     H70325   4.462   9.379   4.683 -3.9766  1.3259 -0.1012
  521MOL0     H70326   4.345   9.262   4.732  0.0885  2.5386 -0.0106
  521MOL0     H70327   4.361   9.140   4.534 -0.8364  1.2687  1.2937
  521MOL0     H70328   4.484   9.246   4.478 -0.1625  1.6596  0.3887
  521MOL0     H70329   4.320   9.439   4.505  0.6387 -0.0520  2.0062
  521MOL0     H70330   4.283   9.321   4.377 -1.3551 -0.2674 -0.0290
  521MOL0     H70331   3.948   9.244   4.633  0.8494 -0.9841  1.9163
  521MOL0     H70332   4.744   9.063   4.878 -3.0649  0.2822 -2.1773
  521MOL0     H70333   4.870   8.984   5.035 -0.3746  1.5015  0.2799
  521MOL0     H70334   5.000   8.890   4.955  1.2178  0.8190  1.3521
  521MOL0     H70335   5.028   9.045   5.044 -1.0579  1.9488  1.2437
  522MOL0     O70336   7.645   2.478   8.682 -0.8119  0.5827  0.3660
  522MOL0     C70337   7.569   2.561   8.632  0.0567  0.4927  0.2812
  522MOL0     O70338   7.570   2.691   8.660  0.5916  0.2967 -0.0106
  522MOL0     C70339   7.688   2.757   8.693 -0.4123  0.4007  0.0597
  522MOL0     C70340   7.824   2.710   8.704 -0.1148 -0.2955  0.8857
  522MOL0     C70341   7.921   2.805   8.735  0.6181  0.6360 -0.8552
  522MOL0     C70342   7.888   2.939   8.768 -0.0038  0.9371 -0.4596
  522MOL0     O70343   7.980   3.039   8.788 -0.1991  0.4322 -0.1596
  522MOL0     C70344   8.117   3.003   8.803  0.1401  0.2768 -1.2900
  522MOL0     C70345   8.196   3.129   8.849 -0.3217 -0.0179 -0.1137
  522MOL0     C70346   8.340   3.086   8.882  0.6016  0.6912 -0.1630
  522MOL0     C70347   8.411   3.202   8.958  0.0769 -0.1605 -0.1778
  522MOL0     C70348   8.565   3.169   8.960 -0.0276  0.3885  0.3573
  522MOL0     C70349   8.656   3.277   9.028  0.5043  0.4238  0.3322
  522MOL0     C70350   8.798   3.222   9.017  0.5123  0.8155 -0.0456
  522MOL0     C70351   8.829   3.094   9.100 -0.2854  0.1388  0.5244
  522MOL0     N70352   8.963   3.091   9.150 -0.3066 -0.0742 -0.5417
  522MOL0     C70353   9.082   3.068   9.088  0.4187 -0.0550  0.5520
  522MOL0     C70354   9.181   3.082   9.178  0.6687  0.0752 -0.2463
  522MOL0     C70355   9.321   3.044   9.144 -0.5241  0.1318 -0.0469
  522MOL0     C70356   9.406   3.023   9.270  0.2467 -1.2931 -0.1192
  522MOL0     C70357   9.534   2.957   9.232  0.1730 -0.0500 -0.6219
  522MOL0     C70358   9.642   2.964   9.340  0.7276  0.2833 -0.2404
  522MOL0     O70359   9.734   2.851   9.311  0.2080 -0.6262 -0.5324
  522MOL0     C70360   9.866   2.868   9.307  0.6917 -0.1080  0.1285
  522MOL0     C70361   9.926   2.758   9.243 -0.2421  0.0206 -0.4146
  522MOL0     C70362  10.066   2.747   9.244 -0.0326 -0.4299 -0.1942
  522MOL0     C70363  10.145   2.848   9.307  0.5148 -0.0440  0.0910
  522MOL0     C70364  10.291   2.827   9.322  0.0173 -0.3705 -0.2384
  522MOL0     O70365  10.376   2.935   9.306  0.5094 -0.8139 -0.4409
  522MOL0     C70366  10.503   2.904   9.300  0.8390 -0.2827  0.0612
  522MOL0     C70367  10.554   2.870   9.175  1.0590 -0.5082  1.2777
  522MOL0     C70368  10.690   2.838   9.160  1.0500  0.5588  0.3730
  522MOL0     C70369  10.777   2.833   9.268 -0.1719  0.2970  0.2725
  522MOL0     O70370  10.909   2.807   9.271  0.1057  0.0056 -0.3492
  522MOL0     C70371  10.968   2.811   9.144 -0.9350 -0.5021  0.5445
  522MOL0     C70372  11.115   2.852   9.156  1.0868  0.6771 -0.4227
  522MOL0     C70373  11.188   2.848   9.017  0.0710  0.5169 -0.8132
  522MOL0     C70374  11.341   2.864   9.030  0.4941 -0.3374 -0.1930
  522MOL0     C70375  11.416   2.845   8.896  0.5374 -0.6462  0.5766
  522MOL0     C70376  11.544   2.923   8.899 -0.6281 -1.1967 -0.2186
  522MOL0     C70377  11.633   2.883   8.780  0.1982  0.5160  0.7946
  522MOL0     C70378  11.725   2.767   8.809  0.0339  0.5910 -0.0617
  522MOL0    Cl70379  11.801   2.729   8.655  0.2539 -0.1511 -0.1874
  522MOL0     C70380  10.725   2.874   9.388 -0.5631 -0.3378  0.4329
  522MOL0     C70381  10.588   2.912   9.409 -0.3884 -0.1199  0.0091
  522MOL0     O70382  10.325   2.711   9.334 -0.2030 -0.7458 -1.3994
  522MOL0     C70383  10.089   2.955   9.368  0.1838  0.0439  0.1473
  522MOL0     C70384   9.950   2.972   9.358  0.0031 -0.4761  1.0023
  522MOL0     N70385   9.118   3.107   9.300  0.4001 -0.4460  0.2327
  522MOL0     N70386   8.985   3.111   9.287  0.4967 -0.1152 -0.0757
  522MOL0     C70387   7.751   2.979   8.775  0.2233 -0.0038  0.4876
  522MOL0     C70388   7.656   2.882   8.732  0.3950 -0.0784 -1.7306
  522MOL0     C70389   7.468   2.506   8.529 -0.5706 -0.0989 -0.1959
  522MOL0     C70390   7.363   2.596   8.494  0.6912 -0.4179  0.1932
  522MOL0     C70391   7.266   2.566   8.396 -0.1348 -0.3924 -0.0423
  522MOL0     C70392   7.266   2.440   8.337 -1.7488 -0.2787 -1.0463
  522MOL0     O70393   7.189   2.404   8.234 -0.0913  0.3450  0.5597
  522MOL0     C70394   7.111   2.497   8.165 -0.3363 -0.2359  0.1208
  522MOL0     C70395   7.023   2.427   8.064 -0.5872 -0.1289 -0.0688
  522MOL0     C70396   6.934   2.525   7.989 -0.6876 -0.0777 -0.2779
  522MOL0     C70397   6.844   2.454   7.891 -0.4029 -0.2303 -0.4081
  522MOL0     C70398   6.762   2.551   7.823 -0.4416  0.4397 -0.2554
  522MOL0     C70399   6.687   2.621   7.752 -0.5362  0.0818  0.0071
  522MOL0     C70400   7.370   2.348   8.377  0.0042  0.5678 -0.3640
  522MOL0     C70401   7.476   2.377   8.465 -0.3804  0.5104 -0.1991
  522MOL0     C70402   7.586   2.271   8.475 -0.5836  0.0852 -0.4641
  522MOL0     H70403   7.850   2.605   8.698 -1.5315 -0.6368  0.5497
  522MOL0     H70404   8.022   2.763   8.740 -0.1457 -1.1653  3.0602
  522MOL0     H70405   8.127   2.923   8.877 -2.4621 -0.3981 -1.5645
  522MOL0     H70406   8.155   2.966   8.707  1.7893 -3.0963  0.4696
  522MOL0     H70407   8.157   3.176   8.940  1.0557  1.0229 -0.0159
  522MOL0     H70408   8.201   3.203   8.769 -1.6985 -1.1252 -1.2556
  522MOL0     H70409   8.398   3.066   8.791 -1.1238  0.5907 -1.2837
  522MOL0     H70410   8.329   2.998   8.946 -2.7596  1.4018  0.4031
  522MOL0     H70411   8.397   3.297   8.905  0.0146  0.7315  1.3837
  522MOL0     H70412   8.369   3.210   9.058  1.1799  0.8486  0.2240
  522MOL0     H70413   8.583   3.075   9.012 -0.4059 -0.8890 -1.6810
  522MOL0     H70414   8.602   3.164   8.857 -3.0180  0.3103 -0.8289
  522MOL0     H70415   8.650   3.370   8.971 -0.7868  0.4804  0.5327
  522MOL0     H70416   8.625   3.288   9.132 -0.5312 -0.8886  0.1941
  522MOL0     H70417   8.872   3.296   9.050  1.9419 -1.5762  2.5628
  522MOL0     H70418   8.822   3.203   8.912 -0.2803  2.8507 -0.6366
  522MOL0     H70419   8.750   3.083   9.175  0.1224  2.3301  1.3700
  522MOL0     H70420   8.817   3.014   9.027 -0.2852  0.9344 -0.3748
  522MOL0     H70421   9.115   3.049   8.987  1.9449  2.7221  0.4344
  522MOL0     H70422   9.319   2.949   9.090  1.1842  1.1045 -1.9464
  522MOL0     H70423   9.360   3.123   9.078  1.1916  0.9145  1.7869
  522MOL0     H70424   9.430   3.115   9.324  1.2617 -1.6991  0.1547
  522MOL0     H70425   9.346   2.956   9.333  1.6203 -1.0985  1.4535
  522MOL0     H70426   9.572   3.023   9.154  2.1685  0.0622  0.3712
  522MOL0     H70427   9.522   2.850   9.210 -3.1424 -0.7763  3.3301
  522MOL0     H70428   9.594   2.964   9.438  1.1030 -0.7929 -0.0381
  522MOL0     H70429   9.694   3.060   9.346  0.1294  0.5245  1.7380
  522MOL0     H70430   9.872   2.674   9.201 -0.2650 -1.5560  2.4871
  522MOL0     H70431  10.118   2.665   9.197 -3.1082 -1.1726 -2.6722
  522MOL0     H70432  10.492   2.872   9.086  3.0400  0.1034 -0.1338
  522MOL0     H70433  10.714   2.809   9.058 -1.8471  0.2244 -0.3077
  522MOL0     H70434  10.962   2.708   9.108 -4.8022 -0.0958 -0.4867
  522MOL0     H70435  10.917   2.871   9.068 -0.9649  0.3338  1.2124
  522MOL0     H70436  11.125   2.946   9.212 -1.2072  0.0996  1.1289
  522MOL0     H70437  11.162   2.779   9.223 -0.4070  0.7053  0.7295
  522MOL0     H70438  11.161   2.749   8.979  0.7953 -0.4403  1.0722
  522MOL0     H70439  11.151   2.931   8.956  1.4917  1.1161 -0.8917
  522MOL0     H70440  11.385   2.793   9.101 -1.8863  0.0969  1.8786
  522MOL0     H70441  11.354   2.962   9.079  0.0193  0.8369 -2.3028
  522MOL0     H70442  11.355   2.877   8.812  0.3937 -1.2707  0.4424
  522MOL0     H70443  11.429   2.737   8.884  0.3964 -0.3889 -2.4467
  522MOL0     H70444  11.525   3.030   8.889  0.5919 -1.1144 -2.0394
  522MOL0     H70445  11.587   2.905   8.999 -0.7699  0.0793  0.0879
  522MOL0     H70446  11.693   2.971   8.753  0.0314  0.7743  1.2359
  522MOL0     H70447  11.568   2.852   8.698 -0.7429  2.0618  0.9155
  522MOL0     H70448  11.794   2.786   8.892  1.7943 -1.7934 -0.8784
  522MOL0     H70449  11.656   2.686   8.835 -0.5472  1.2153  0.3953
  522MOL0     H70450  10.789   2.890   9.474  0.6115 -3.0893  0.1783
  522MOL0     H70451  10.558   2.944   9.508 -2.2087  1.3005 -0.9546
  522MOL0     H70452  10.155   3.019   9.426  1.7619  0.0892 -1.6062
  522MOL0     H70453   9.902   3.052   9.414  1.1971  0.6539  0.4648
  522MOL0     H70454   7.710   3.078   8.792 -0.5590 -0.2286 -0.0551
  522MOL0     H70455   7.550   2.908   8.730 -0.1032 -1.7207  0.3230
  522MOL0     H70456   7.367   2.690   8.547 -0.8622 -0.0281 -0.3230
  522MOL0     H70457   7.185   2.634   8.370  2.0866  1.2788 -3.3953
  522MOL0     H70458   7.180   2.567   8.118 -0.9979 -0.3554 -1.0518
  522MOL0     H70459   7.049   2.561   8.228  1.4717  1.2485  0.4827
  522MOL0     H70460   6.958   2.347   8.102  2.0890 -3.6044 -2.1728
  522MOL0     H70461   7.088   2.378   7.990 -0.3641 -2.7754  1.7204
  522MOL0     H70462   6.993   2.599   7.934  1.8723  0.0674  2.3761
  522MOL0     H70463   6.867   2.573   8.060 -0.7345  1.3848 -1.2686
  522MOL0     H70464   6.898   2.392   7.819 -2.2307 -3.6312  0.9360
  522MOL0     H70465   6.781   2.384   7.945 -0.1660 -1.4590 -1.6764
  522MOL0     H70466   6.604   2.659   7.697  0.6627 -2.1814 -3.6864
  522MOL0     H70467   7.361   2.249   8.333  0.0142  0.1943  0.4689
  522MOL0     H70468   7.582   2.213   8.568 -0.7842 -0.5891 -0.8801
  522MOL0     H70469   7.572   2.200   8.393 -1.9660  0.8803 -0.9501
  522MOL0     H70470   7.686   2.313   8.465  0.4428 -2.3787 -1.5214
  523MOL0     O70471   4.256   3.811   3.311 -0.1994  0.2614 -0.6479
  523MOL0     C70472   4.260   3.790   3.432  0.1113  0.4647 -0.1619
  523MOL0     O70473   4.155   3.745   3.507  0.4105  0.6612  0.0304
  523MOL0     C70474   4.024   3.706   3.464 -0.0817 -0.1399  0.2577
  523MOL0     C70475   3.992   3.658   3.340 -0.6452  0.1756  0.2681
  523MOL0     C70476   3.872   3.604   3.302  0.5052  0.5896  0.5450
  523MOL0     C70477   3.768   3.606   3.393 -0.1860 -0.5009 -0.2107
  523MOL0     O70478   3.642   3.539   3.373 -0.1166 -0.4652 -0.1370
  523MOL0     C70479   3.632   3.461   3.254  0.4803  0.2968  0.4299
  523MOL0     C70480   3.492   3.407   3.249  1.0882  0.5916 -0.0782
  523MOL0     C70481   3.485   3.317   3.127  0.2469 -0.1501  1.1218
  523MOL0     C70482   3.348   3.288   3.092 -0.5676  0.7175  0.3778
  523MOL0     C70483   3.334   3.157   3.017  0.2023 -0.3460 -0.5533
  523MOL0     C70484   3.405   3.174   2.876 -0.7769 -0.5470 -0.1730
  523MOL0     C70485   3.382   3.055   2.781  0.3589  0.2957  0.1792
  523MOL0     C70486   3.432   2.922   2.838 -0.4161  0.8374 -0.2958
  523MOL0     N70487   3.566   2.937   2.897 -0.5255 -0.0255 -0.2128
  523MOL0     C70488   3.682   2.979   2.834 -0.0350  0.0498  0.6769
  523MOL0     C70489   3.781   2.994   2.925  0.3329  0.1733  0.8414
  523MOL0     C70490   3.929   3.016   2.898 -0.5760  0.2435 -0.0665
  523MOL0     C70491   3.956   3.163   2.856 -0.0814  0.3073 -0.0781
  523MOL0     C70492   4.000   3.257   2.971  0.6682  0.6173  0.1028
  523MOL0     C70493   4.027   3.402   2.949 -0.5769 -0.3473 -0.0485
  523MOL0     O70494   4.136   3.417   2.856 -1.0165  0.4034 -0.2519
  523MOL0     C70495   4.247   3.473   2.904 -0.5088  0.5663 -0.2786
  523MOL0     C70496   4.363   3.434   2.840 -0.5946 -0.2957 -0.6296
  523MOL0     C70497   4.493   3.476   2.880  0.0830  0.0094  0.4829
  523MOL0     C70498   4.503   3.578   2.978 -0.5565 -0.4769  0.0597
  523MOL0     C70499   4.635   3.628   3.021 -0.8531  0.5923  0.2529
  523MOL0     O70500   4.633   3.712   3.122 -0.3089 -0.2241 -0.5583
  523MOL0     C70501   4.754   3.772   3.153 -0.4725  0.7138 -0.5665
  523MOL0     C70502   4.856   3.811   3.068  0.3215  0.1246 -0.3828
  523MOL0     C70503   4.974   3.864   3.128  0.1466 -1.0318 -0.2824
  523MOL0     C70504   4.990   3.877   3.268  0.2073 -0.6113  0.2480
  523MOL0     O70505   5.097   3.914   3.339 -0.3246 -0.0354  0.4569
  523MOL0     C70506   5.223   3.885   3.275  0.7895 -0.1763 -0.8956
  523MOL0     C70507   5.326   3.915   3.375  1.1858 -0.9070 -0.2400
  523MOL0     C70508   5.466   3.900   3.321  0.4470 -0.0451  0.0105
  523MOL0     C70509   5.522   3.762   3.303 -1.5697 -0.2789  0.2571
  523MOL0     C70510   5.538   3.697   3.449 -0.4969 -0.5200  0.5290
  523MOL0     C70511   5.589   3.553   3.447  0.9496  0.6381 -0.4282
  523MOL0     C70512   5.611   3.502   3.589  0.6460 -0.3727  0.1119
  523MOL0     C70513   5.727   3.556   3.667 -0.5608 -0.2928  0.3824
  523MOL0    Cl70514   5.896   3.535   3.599 -0.1239  0.0944 -0.3565
  523MOL0     C70515   4.882   3.837   3.343 -0.5524  0.1525  0.0853
  523MOL0     C70516   4.764   3.799   3.285 -0.6602  0.1458  0.3017
  523MOL0     O70517   4.737   3.569   2.972  0.0672 -0.0051  0.3452
  523MOL0     C70518   4.381   3.623   3.035  0.1229 -0.2704  0.2274
  523MOL0     C70519   4.259   3.576   2.997 -0.5990 -0.2027 -0.0109
  523MOL0     N70520   3.723   2.971   3.049  0.2891 -0.2605 -0.6554
  523MOL0     N70521   3.601   2.934   3.025 -1.1549 -0.3572 -0.2084
  523MOL0     C70522   3.791   3.668   3.523 -0.0697 -0.0140 -0.4079
  523MOL0     C70523   3.920   3.709   3.557 -0.8066 -0.6891 -0.3463
  523MOL0     C70524   4.386   3.810   3.499  0.6551 -0.5762  0.2683
  523MOL0     C70525   4.467   3.914   3.452  0.6926 -0.3417 -0.5936
  523MOL0     C70526   4.587   3.951   3.515  0.3068 -0.1404 -0.1114
  523MOL0     C70527   4.632   3.880   3.628  0.2737  0.4939 -0.9227
  523MOL0     O70528   4.749   3.933   3.683 -0.5368  0.2726 -0.9861
  523MOL0     C70529   4.809   3.850   3.779  0.5884 -0.5298 -0.7979
  523MOL0     C70530   4.946   3.903   3.804  0.3918 -0.5730 -1.1652
  523MOL0     C70531   5.048   3.860   3.700 -0.0013 -0.4467 -0.2064
  523MOL0     C70532   5.198   3.889   3.738 -0.2271  0.2811  0.4398
  523MOL0     C70533   5.207   4.033   3.760 -1.0813 -0.1009  0.0410
  523MOL0     C70534   5.217   4.147   3.784 -0.7356  0.2039  0.2373
  523MOL0     C70535   4.548   3.775   3.680  0.1898  0.3307  0.4966
  523MOL0     C70536   4.433   3.742   3.612 -0.1563 -0.5382 -0.7075
  523MOL0     C70537   4.361   3.620   3.672  0.3514 -0.1172  0.5039
  523MOL0     H70538   4.071   3.641   3.267  0.0031  3.2803  0.1244
  523MOL0     H70539   3.860   3.562   3.202 -2.3083  1.5034  0.3877
  523MOL0     H70540   3.646   3.522   3.165 -2.2424  1.7677  0.9190
  523MOL0     H70541   3.710   3.384   3.259  0.2157  0.0968  3.7760
  523MOL0     H70542   3.419   3.489   3.246  0.1419 -0.2526 -2.2809
  523MOL0     H70543   3.464   3.358   3.343  0.6751  0.8851 -0.0426
  523MOL0     H70544   3.550   3.231   3.143  2.2639  1.5509  2.5831
  523MOL0     H70545   3.536   3.368   3.045 -1.6394  2.3617  1.3919
  523MOL0     H70546   3.297   3.277   3.188 -1.6557  0.1468 -0.2418
  523MOL0     H70547   3.304   3.366   3.029  1.3895  0.9782 -0.7561
  523MOL0     H70548   3.373   3.073   3.075 -1.1850 -0.8154 -0.2633
  523MOL0     H70549   3.235   3.124   2.983  1.6086 -3.5273 -2.0240
  523MOL0     H70550   3.371   3.268   2.831  2.0322  0.0958 -1.1828
  523MOL0     H70551   3.512   3.192   2.890 -0.7657  1.9905 -2.5943
  523MOL0     H70552   3.440   3.078   2.690 -0.9052  0.3817 -0.6329
  523MOL0     H70553   3.274   3.058   2.763  0.3337 -0.8457  0.0657
  523MOL0     H70554   3.365   2.880   2.912 -2.0420  2.3323 -0.8574
  523MOL0     H70555   3.433   2.859   2.749 -0.5440 -1.7738  1.4585
  523MOL0     H70556   3.707   3.001   2.731  0.7081  2.3785  1.2888
  523MOL0     H70557   3.993   3.000   2.985 -0.2972 -1.5931 -0.5620
  523MOL0     H70558   3.960   2.947   2.818 -2.3785  0.8420 -1.3655
  523MOL0     H70559   4.033   3.158   2.779  1.0974  1.7814  0.9471
  523MOL0     H70560   3.866   3.212   2.819  0.1689  0.3368 -0.6618
  523MOL0     H70561   4.094   3.223   3.015  1.9526  2.7092 -0.9034
  523MOL0     H70562   3.932   3.252   3.057  1.9569  1.3411  1.1967
  523MOL0     H70563   4.033   3.454   3.046 -1.5130  1.2671 -0.8083
  523MOL0     H70564   3.941   3.449   2.900 -0.0725  1.2381  0.5062
  523MOL0     H70565   4.349   3.351   2.772 -2.6088  1.8572 -3.0302
  523MOL0     H70566   4.581   3.446   2.824 -0.8642  0.2569 -1.2055
  523MOL0     H70567   4.845   3.812   2.960  0.0467 -0.6117 -0.3682
  523MOL0     H70568   5.055   3.887   3.059 -0.3593  0.9005 -0.3038
  523MOL0     H70569   5.217   3.778   3.253 -2.9610 -1.2783  3.7218
  523MOL0     H70570   5.236   3.949   3.188  2.2377  2.6568  1.2316
  523MOL0     H70571   5.325   4.018   3.412  0.9107 -0.6992 -0.8036
  523MOL0     H70572   5.313   3.846   3.458  1.0364 -0.1169  0.4039
  523MOL0     H70573   5.482   3.938   3.220  2.1839  0.1391  0.3211
  523MOL0     H70574   5.532   3.944   3.396  2.0504 -4.9490  1.8952
  523MOL0     H70575   5.620   3.778   3.257 -1.3085 -0.9186  0.5728
  523MOL0     H70576   5.464   3.700   3.235  2.0000 -3.8276  0.0735
  523MOL0     H70577   5.439   3.683   3.494 -0.7326 -1.2873 -0.2032
  523MOL0     H70578   5.604   3.760   3.509  0.6087 -1.5549  0.4313
  523MOL0     H70579   5.523   3.484   3.393 -1.1330  2.2820 -0.1119
  523MOL0     H70580   5.687   3.543   3.398  0.2847 -1.9239 -1.4083
  523MOL0     H70581   5.645   3.398   3.579  0.6508 -0.1705 -3.9601
  523MOL0     H70582   5.520   3.522   3.646  0.7861 -0.9326  0.5481
  523MOL0     H70583   5.707   3.662   3.687 -1.2072 -0.6877  2.0433
  523MOL0     H70584   5.721   3.514   3.768  0.2749 -0.3255  0.4182
  523MOL0     H70585   4.892   3.851   3.450  3.1788  0.9530 -0.2250
  523MOL0     H70586   4.684   3.768   3.351 -0.9905  0.0806 -0.1243
  523MOL0     H70587   4.380   3.688   3.122 -1.1196  2.4982 -1.7149
  523MOL0     H70588   4.178   3.628   3.047  1.3451  0.3860  2.7641
  523MOL0     H70589   3.713   3.663   3.599 -0.7759 -0.4082 -1.1433
  523MOL0     H70590   3.943   3.747   3.656 -0.4766  0.1478 -0.7411
  523MOL0     H70591   4.443   3.964   3.358  0.8364 -1.1669 -1.0811
  523MOL0     H70592   4.658   4.027   3.484  1.7683 -1.3397  0.1833
  523MOL0     H70593   4.807   3.743   3.753  0.9026 -1.2493  1.7758
  523MOL0     H70594   4.754   3.870   3.872  0.9108  0.9558 -0.9044
  523MOL0     H70595   4.996   3.871   3.896  3.6311  3.2953 -1.2889
  523MOL0     H70596   4.946   4.011   3.823  1.7375 -0.8257  0.5388
  523MOL0     H70597   5.026   3.910   3.605  3.4766  3.0895  0.6142
  523MOL0     H70598   5.036   3.753   3.684  2.5160 -0.9007  0.5706
  523MOL0     H70599   5.251   3.833   3.815  1.9947  0.9545 -0.5076
  523MOL0     H70600   5.258   3.849   3.656  0.9780  0.2979  1.2881
  523MOL0     H70601   5.249   4.244   3.816 -0.5650  0.5747 -1.0351
  523MOL0     H70602   4.576   3.714   3.764  1.2843 -0.4593 -0.4117
  523MOL0     H70603   4.339   3.540   3.601  3.1595 -0.7983  0.2775
  523MOL0     H70604   4.421   3.577   3.752 -0.3446  1.5881  2.0046
  523MOL0     H70605   4.270   3.660   3.717  1.8595  0.9875  2.7401
  524MOL0     O70606  10.366   2.674   5.449 -0.2404 -0.3471  0.0135
  524MOL0     C70607  10.260   2.743   5.439 -0.1958  0.0835 -0.9496
  524MOL0     O70608  10.245   2.854   5.359  0.4042 -0.6729 -0.6020
  524MOL0     C70609  10.355   2.930   5.320 -0.7125  0.3565  0.2156
  524MOL0     C70610  10.393   3.044   5.401  0.0147 -0.5455  0.4679
  524MOL0     C70611  10.509   3.113   5.387 -1.0096 -0.2721  0.5351
  524MOL0     C70612  10.599   3.071   5.294 -0.2463  0.3557 -0.5446
  524MOL0     O70613  10.724   3.129   5.294 -0.2340  0.0964  0.8194
  524MOL0     C70614  10.729   3.217   5.185  0.5656  0.6065 -0.4398
  524MOL0     C70615  10.810   3.342   5.220  0.6965  0.7584  0.6059
  524MOL0     C70616  10.951   3.305   5.238 -0.3577 -0.1738 -0.3785
  524MOL0     C70617  11.043   3.420   5.275  0.3889  0.3377  0.2367
  524MOL0     C70618  11.193   3.402   5.271  0.2364 -0.3593 -0.0242
  524MOL0     C70619  11.273   3.530   5.307 -0.6598  0.5544 -0.2353
  524MOL0     C70620  11.418   3.508   5.267 -0.0182 -0.2845  0.0412
  524MOL0     C70621  11.506   3.621   5.314 -0.0332  0.7863 -0.5277
  524MOL0     N70622  11.643   3.606   5.267  0.3822 -0.6188  0.4520
  524MOL0     C70623  11.746   3.687   5.308 -0.5782  1.1841  0.3250
  524MOL0     C70624  11.857   3.634   5.247  1.0995  0.3753 -0.9793
  524MOL0     C70625  11.994   3.678   5.269 -0.7498  1.0947 -0.4464
  524MOL0     C70626  12.012   3.821   5.222 -0.7924 -0.0612 -0.0316
  524MOL0     C70627  12.157   3.878   5.261  0.3504 -0.0275  0.3963
  524MOL0     C70628  12.280   3.801   5.217  0.3599  0.1878  0.3363
  524MOL0     O70629  12.392   3.886   5.264  0.6095  0.4339  0.6668
  524MOL0     C70630  12.520   3.840   5.223 -0.0671 -0.1186 -0.0759
  524MOL0     C70631  12.549   3.780   5.095 -0.1454 -0.1298 -0.1521
  524MOL0     C70632  12.677   3.745   5.054 -0.5261 -1.3174  0.1737
  524MOL0     C70633  12.778   3.768   5.140 -0.8609 -0.4999 -0.3738
  524MOL0     C70634  12.920   3.734   5.110  0.5454  0.0056 -0.0946
  524MOL0     O70635  13.018   3.784   5.192 -0.0458 -0.5694  0.2218
  524MOL0     C70636  13.143   3.734   5.194 -0.5328 -0.7273  0.1407
  524MOL0     C70637  13.242   3.826   5.231  0.7418  0.4878 -0.2709
  524MOL0     C70638  13.375   3.790   5.254  0.1433  0.5083  0.5116
  524MOL0     C70639  13.402   3.644   5.238  1.0897  0.3549  0.1806
  524MOL0     O70640  13.516   3.573   5.254 -0.0543  0.7794  0.4981
  524MOL0     C70641  13.619   3.636   5.323 -0.8835 -0.0324  0.4730
  524MOL0     C70642  13.735   3.545   5.353 -0.0006  1.0987  0.1783
  524MOL0     C70643  13.851   3.616   5.423  0.5159 -0.2312  0.3995
  524MOL0     C70644  13.953   3.507   5.457 -0.1567 -0.0377  0.8550
  524MOL0     C70645  14.078   3.574   5.520 -0.9406  0.6421  0.8337
  524MOL0     C70646  14.060   3.634   5.666  0.2736  0.4637 -0.1924
  524MOL0     C70647  14.198   3.684   5.719 -0.3543 -0.4939  0.7808
  524MOL0     C70648  14.163   3.756   5.848 -0.0697 -0.4569  0.1622
  524MOL0    Cl70649  14.313   3.793   5.936 -0.4820 -0.4489  0.1728
  524MOL0     C70650  13.302   3.550   5.198  0.4462  0.6355 -0.2762
  524MOL0     C70651  13.174   3.599   5.176  0.6113  0.0476  0.0033
  524MOL0     O70652  12.936   3.665   5.014  0.4178  0.4706 -0.4424
  524MOL0     C70653  12.758   3.835   5.266  0.4560  0.1136 -1.3206
  524MOL0     C70654  12.625   3.866   5.311  0.0356 -0.7462 -0.6818
  524MOL0     N70655  11.813   3.530   5.169  0.0431  0.4532  0.6814
  524MOL0     N70656  11.689   3.516   5.179 -0.5407 -0.0593  0.2697
  524MOL0     C70657  10.568   2.955   5.219 -0.0985 -0.5739  0.0964
  524MOL0     C70658  10.448   2.881   5.227  0.1407 -0.6813 -0.0824
  524MOL0     C70659  10.141   2.704   5.504 -0.9052  0.7433 -0.2432
  524MOL0     C70660  10.149   2.584   5.577 -0.0726  0.3817  0.2597
  524MOL0     C70661  10.035   2.521   5.639  0.1182 -0.0843 -0.2653
  524MOL0     C70662   9.911   2.580   5.630 -0.3552  0.4505 -0.7557
  524MOL0     O70663   9.794   2.533   5.680 -0.1385  0.3655 -0.5025
  524MOL0     C70664   9.783   2.390   5.706 -0.2746  0.1166 -0.1373
  524MOL0     C70665   9.637   2.348   5.732 -0.1016 -0.0016 -0.3358
  524MOL0     C70666   9.560   2.440   5.835 -0.1253  0.1775 -0.3470
  524MOL0     C70667   9.454   2.358   5.918 -0.1346 -0.1475 -0.5714
  524MOL0     C70668   9.338   2.330   5.833  0.2189 -0.1290  0.5003
  524MOL0     C70669   9.235   2.304   5.780  0.5050 -0.4162 -0.4214
  524MOL0     C70670   9.903   2.708   5.573 -0.0477  0.6048 -0.6803
  524MOL0     C70671  10.012   2.772   5.513  0.2992 -0.4777 -0.2863
  524MOL0     C70672   9.980   2.917   5.460 -0.2939  0.6390 -0.9143
  524MOL0     H70673  10.323   3.085   5.473 -1.2534  0.7710 -1.3924
  524MOL0     H70674  10.534   3.199   5.448 -1.4355  0.2570 -0.0186
  524MOL0     H70675  10.763   3.153   5.103  0.6625 -0.2826  0.2694
  524MOL0     H70676  10.638   3.265   5.148  0.9516  0.5485 -1.4752
  524MOL0     H70677  10.774   3.399   5.307 -2.1345  0.3714 -0.2145
  524MOL0     H70678  10.803   3.405   5.132  0.1021 -1.8128 -1.3094
  524MOL0     H70679  10.973   3.265   5.139  3.8172  2.2236 -0.6478
  524MOL0     H70680  10.963   3.228   5.315  7.9154 -0.2605 -0.9339
  524MOL0     H70681  11.014   3.508   5.217 -2.6021  0.1455  1.2811
  524MOL0     H70682  11.026   3.450   5.379 -1.7444 -0.0161  0.0203
  524MOL0     H70683  11.231   3.324   5.338  0.7377  1.1874  1.5699
  524MOL0     H70684  11.223   3.372   5.170  1.7974 -3.1326  1.1460
  524MOL0     H70685  11.239   3.621   5.257  2.3258  0.2362 -3.1985
  524MOL0     H70686  11.263   3.539   5.415  0.7537 -2.8127  0.2935
  524MOL0     H70687  11.430   3.498   5.159  1.2809  4.0879 -0.4361
  524MOL0     H70688  11.451   3.417   5.318 -0.6773 -1.2373 -1.1904
  524MOL0     H70689  11.468   3.718   5.279 -0.9548  1.0128  1.0058
  524MOL0     H70690  11.501   3.634   5.422  2.0887  3.7388 -0.6653
  524MOL0     H70691  11.746   3.766   5.382  0.5945  0.5331  1.0500
  524MOL0     H70692  12.004   3.675   5.378 -0.5556 -2.1034 -0.4766
  524MOL0     H70693  12.075   3.624   5.219  0.2325  3.0346 -1.0685
  524MOL0     H70694  12.010   3.826   5.113  4.0080  2.2440 -0.2632
  524MOL0     H70695  11.940   3.888   5.269  0.6305 -0.4254  2.9057
  524MOL0     H70696  12.164   3.893   5.369  0.8638 -1.9927  0.6719
  524MOL0     H70697  12.174   3.981   5.230  0.7788  0.3837  1.9538
  524MOL0     H70698  12.269   3.784   5.110 -2.0730 -0.1812  0.5819
  524MOL0     H70699  12.286   3.698   5.253  0.0729 -0.8219 -2.3020
  524MOL0     H70700  12.467   3.780   5.024 -2.1257 -0.2235  2.0109
  524MOL0     H70701  12.696   3.708   4.954  3.1159  2.3448 -0.7994
  524MOL0     H70702  13.216   3.929   5.250 -0.6272 -0.4569  4.0608
  524MOL0     H70703  13.455   3.860   5.278  1.8037 -0.7163 -1.1365
  524MOL0     H70704  13.658   3.718   5.262  0.2817 -1.2974 -0.5393
  524MOL0     H70705  13.583   3.677   5.418 -0.0690  2.0619 -0.0680
  524MOL0     H70706  13.684   3.467   5.411  0.8150 -0.8471 -1.5719
  524MOL0     H70707  13.763   3.491   5.261 -0.1218 -0.5647  1.0798
  524MOL0     H70708  13.898   3.690   5.357  0.5976  1.2208  2.0111
  524MOL0     H70709  13.813   3.667   5.512 -0.6198  2.0181 -1.2750
  524MOL0     H70710  13.975   3.444   5.371  1.2515 -0.3790  1.4216
  524MOL0     H70711  13.907   3.434   5.525  0.0778 -0.2840  0.7500
  524MOL0     H70712  14.124   3.655   5.462  1.8199 -1.3524 -0.0033
  524MOL0     H70713  14.154   3.495   5.519 -1.1227  0.4674  0.7782
  524MOL0     H70714  13.999   3.725   5.667  2.5208  2.0735 -0.7557
  524MOL0     H70715  14.018   3.555   5.729 -0.2354  0.1985 -0.8613
  524MOL0     H70716  14.253   3.739   5.642 -0.9331 -0.6346  0.2634
  524MOL0     H70717  14.261   3.596   5.732 -2.2418 -2.4082 -1.9659
  524MOL0     H70718  14.097   3.842   5.833 -0.3477 -0.6921  0.0205
  524MOL0     H70719  14.103   3.687   5.908 -1.4387  0.0857 -0.5525
  524MOL0     H70720  13.317   3.443   5.191 -1.1590  0.4705 -1.8589
  524MOL0     H70721  13.097   3.530   5.144 -0.8613  2.7353 -2.6915
  524MOL0     H70722  12.843   3.859   5.330 -1.7007 -3.3642  3.4620
  524MOL0     H70723  12.611   3.908   5.410 -0.5288 -0.6578 -0.7944
  524MOL0     H70724  10.637   2.918   5.144  0.7079 -1.9368  1.4414
  524MOL0     H70725  10.437   2.802   5.153  2.0123 -0.1020 -1.0433
  524MOL0     H70726  10.233   2.517   5.590 -0.6938 -0.5060 -0.1629
  524MOL0     H70727  10.055   2.428   5.692  1.3881  1.2583  1.7536
  524MOL0     H70728   9.839   2.375   5.799 -0.3674  0.4058 -0.0329
  524MOL0     H70729   9.823   2.324   5.628 -1.8837 -0.4604 -0.5054
  524MOL0     H70730   9.646   2.242   5.758  1.3000  0.0079 -0.7150
  524MOL0     H70731   9.591   2.342   5.632 -1.8121  1.0397  0.3468
  524MOL0     H70732   9.526   2.527   5.779 -2.2419 -0.5227 -0.2531
  524MOL0     H70733   9.632   2.481   5.906 -0.2535  3.2531 -1.8221
  524MOL0     H70734   9.504   2.268   5.955 -0.8687  0.4358  2.0476
  524MOL0     H70735   9.436   2.426   6.001  0.5469 -0.2036 -0.3656
  524MOL0     H70736   9.137   2.283   5.743 -2.1666  0.8607  4.9407
  524MOL0     H70737   9.807   2.759   5.567 -0.2530  0.2620 -0.3434
  524MOL0     H70738  10.068   2.977   5.485  0.9217 -1.0058 -1.0520
  524MOL0     H70739   9.957   2.926   5.354 -1.3251  1.4099 -0.6448
  524MOL0     H70740   9.897   2.954   5.521  1.0594  0.1322  1.3716
  525MOL0     O70741   2.587   4.595  11.229 -0.1772 -0.2735 -0.5855
  525MOL0     C70742   2.496   4.673  11.222 -0.2844 -0.1475  0.8012
  525MOL0     O70743   2.511   4.813  11.231  0.3607  0.5045 -0.1440
  525MOL0     C70744   2.623   4.891  11.260 -0.1706 -0.9865 -0.3982
  525MOL0     C70745   2.631   5.021  11.213  0.0478  0.3208  0.8216
  525MOL0     C70746   2.733   5.110  11.238  0.2249 -0.0865 -0.1228
  525MOL0     C70747   2.828   5.073  11.333 -0.1092 -0.2470 -0.6446
  525MOL0     O70748   2.916   5.170  11.369 -0.1540  0.2945 -0.6210
  525MOL0     C70749   3.042   5.126  11.427  0.1900 -0.0745 -0.1884
  525MOL0     C70750   3.138   5.252  11.427 -0.2257  0.3844  0.3064
  525MOL0     C70751   3.293   5.208  11.416 -0.1331 -0.0502  0.2714
  525MOL0     C70752   3.385   5.331  11.415  0.8848  0.0463  0.0339
  525MOL0     C70753   3.521   5.293  11.475 -0.0899  0.6325 -0.2643
  525MOL0     C70754   3.618   5.413  11.479  0.2935  0.7598 -0.1083
  525MOL0     C70755   3.751   5.375  11.550  0.8552 -1.5712  0.2346
  525MOL0     C70756   3.838   5.502  11.558  0.0874 -0.3445 -0.0213
  525MOL0     N70757   3.949   5.454  11.643  0.3614  0.8088  0.9859
  525MOL0     C70758   4.045   5.361  11.611 -0.3086 -0.1111 -0.3337
  525MOL0     C70759   4.136   5.368  11.714  0.6910 -0.3243  0.0724
  525MOL0     C70760   4.253   5.266  11.724 -0.3363 -0.4775  0.0179
  525MOL0     C70761   4.330   5.265  11.857 -0.3097 -0.8529  0.3011
  525MOL0     C70762   4.469   5.214  11.846  0.1825  0.2760 -0.0853
  525MOL0     C70763   4.522   5.186  11.990 -0.0444 -0.1268 -0.2986
  525MOL0     O70764   4.574   5.304  12.047  0.6098 -0.3987 -0.0957
  525MOL0     C70765   4.694   5.362  12.017  0.0252  0.2648 -0.6758
  525MOL0     C70766   4.801   5.298  11.957  1.1964 -0.1309 -0.6787
  525MOL0     C70767   4.925   5.358  11.924  0.6815 -0.6926  0.6335
  525MOL0     C70768   4.939   5.489  11.976 -0.0916 -0.8315  0.8871
  525MOL0     C70769   5.069   5.567  11.960 -0.3300  0.8563  0.3957
  525MOL0     O70770   5.173   5.495  11.906  0.0810 -0.0614 -0.0266
  525MOL0     C70771   5.286   5.566  11.888 -0.4114  0.4987  0.4509
  525MOL0     C70772   5.384   5.559  11.982  0.4805 -0.2457  0.1492
  525MOL0     C70773   5.510   5.596  11.950 -0.0599 -0.0234 -0.1409
  525MOL0     C70774   5.543   5.642  11.829 -0.0558  0.9163 -0.1145
  525MOL0     O70775   5.672   5.657  11.800  0.0792  0.0683 -0.3043
  525MOL0     C70776   5.702   5.794  11.772 -0.0811  0.2333  0.3161
  525MOL0     C70777   5.852   5.821  11.787 -0.5764  0.2451  0.2604
  525MOL0     C70778   5.888   5.852  11.933  0.6208  0.1026 -0.0182
  525MOL0     C70779   6.038   5.899  11.937 -0.6629  0.0530  0.6650
  525MOL0     C70780   6.068   5.956  12.074  0.0311 -0.0592  0.9273
  525MOL0     C70781   6.219   5.986  12.094 -0.2035 -0.0842 -0.0062
  525MOL0     C70782   6.288   5.849  12.121  0.6959 -0.4151  0.1217
  525MOL0     C70783   6.429   5.858  12.180  0.5147  0.2401 -0.4573
  525MOL0    Cl70784   6.528   5.950  12.062  0.1896 -0.5875  0.2763
  525MOL0     C70785   5.447   5.668  11.734  0.2420 -0.9161 -0.5694
  525MOL0     C70786   5.313   5.617  11.758  0.6241 -0.0359 -0.0483
  525MOL0     O70787   5.075   5.685  11.982 -0.0092 -0.3488  0.0771
  525MOL0     C70788   4.831   5.561  12.042  0.6040  0.4523 -0.6417
  525MOL0     C70789   4.708   5.492  12.064 -0.0692  0.6254 -0.4294
  525MOL0     N70790   4.108   5.477  11.795  0.6319 -0.3870  0.4934
  525MOL0     N70791   3.985   5.523  11.755  0.0378 -0.2736  0.0635
  525MOL0     C70792   2.826   4.941  11.380  0.3293  0.2408 -0.0627
  525MOL0     C70793   2.727   4.851  11.341  0.8312 -0.0901  0.6639
  525MOL0     C70794   2.359   4.620  11.196  0.4579  0.4415 -0.1466
  525MOL0     C70795   2.331   4.487  11.249  0.3798 -0.7759 -0.4188
  525MOL0     C70796   2.206   4.442  11.264 -0.3419  0.2617 -0.8285
  525MOL0     C70797   2.106   4.491  11.185  0.8254 -0.7841  0.1911
  525MOL0     O70798   1.977   4.433  11.188 -0.1335  0.2808 -0.3363
  525MOL0     C70799   1.880   4.494  11.110  0.7766  0.0790 -0.0141
  525MOL0     C70800   1.741   4.419  11.121  0.0525 -0.6084  0.5941
  525MOL0     C70801   1.639   4.448  11.005 -0.7288 -1.2691  0.2017
  525MOL0     C70802   1.613   4.600  10.982  0.2297 -0.3357  0.3229
  525MOL0     C70803   1.545   4.618  10.855 -0.0009 -0.4283 -0.6659
  525MOL0     C70804   1.492   4.626  10.746 -0.0366 -0.4627  0.1392
  525MOL0     C70805   2.130   4.616  11.113  0.2034  0.4080  0.7466
  525MOL0     C70806   2.260   4.685  11.115 -0.2488  0.7068 -0.4250
  525MOL0     C70807   2.274   4.814  11.042 -0.2783  0.2436  0.1296
  525MOL0     H70808   2.552   5.056  11.147  0.4773  1.7214  1.0221
  525MOL0     H70809   2.736   5.205  11.187 -1.9951 -0.4149 -0.9597
  525MOL0     H70810   3.028   5.075  11.523  2.0938 -1.6019 -0.6491
  525MOL0     H70811   3.077   5.045  11.362 -1.5869 -0.9114 -0.1539
  525MOL0     H70812   3.107   5.304  11.518 -1.5345 -1.1994  0.8216
  525MOL0     H70813   3.113   5.314  11.340 -2.1983  0.2541  0.7292
  525MOL0     H70814   3.308   5.138  11.334 -1.6912  0.3915 -0.4295
  525MOL0     H70815   3.319   5.144  11.501  3.8398  0.5078 -0.3466
  525MOL0     H70816   3.396   5.373  11.315  2.2524 -0.3169  0.0114
  525MOL0     H70817   3.345   5.411  11.478  1.4106  2.0176 -2.0098
  525MOL0     H70818   3.492   5.255  11.574 -0.8329 -1.7548 -1.3317
  525MOL0     H70819   3.561   5.203  11.429  0.0307  0.5203  0.0524
  525MOL0     H70820   3.630   5.458  11.380 -2.4049 -2.9870 -2.3937
  525MOL0     H70821   3.573   5.494  11.538 -1.4075 -1.2021  1.4600
  525MOL0     H70822   3.811   5.305  11.491  0.4927 -0.9781 -0.8572
  525MOL0     H70823   3.726   5.331  11.647 -1.9933 -1.7331 -0.4885
  525MOL0     H70824   3.865   5.531  11.456 -1.0462 -2.3038 -0.9591
  525MOL0     H70825   3.777   5.580  11.605 -1.3243 -0.4189 -1.6473
  525MOL0     H70826   4.059   5.293  11.527  1.0511 -0.0847 -0.1530
  525MOL0     H70827   4.218   5.165  11.702 -1.0813 -0.5459  1.4105
  525MOL0     H70828   4.325   5.293  11.646 -1.6396 -0.6498 -1.2973
  525MOL0     H70829   4.352   5.367  11.890  1.8617 -0.8107 -1.0758
  525MOL0     H70830   4.276   5.212  11.937  1.4563  0.4561  2.4562
  525MOL0     H70831   4.524   5.289  11.789 -1.1084  0.7274 -0.7920
  525MOL0     H70832   4.477   5.119  11.791 -1.4718 -0.9729  1.6618
  525MOL0     H70833   4.591   5.101  11.993  0.1105 -0.1490 -2.5969
  525MOL0     H70834   4.446   5.156  12.063 -0.5232 -1.6077 -1.3493
  525MOL0     H70835   4.785   5.194  11.930 -2.6023 -0.0382  0.5946
  525MOL0     H70836   5.010   5.308  11.880  1.2339  0.4670  0.3631
  525MOL0     H70837   5.360   5.506  12.075 -1.7763  0.2564 -0.0818
  525MOL0     H70838   5.591   5.572  12.018  0.3529 -1.3168 -1.0319
  525MOL0     H70839   5.672   5.805  11.667 -0.6699 -1.2081  0.2956
  525MOL0     H70840   5.640   5.866  11.824  1.3313  1.3239  0.5379
  525MOL0     H70841   5.908   5.732  11.756 -0.9468 -0.0635  0.4662
  525MOL0     H70842   5.875   5.902  11.718  0.1125 -0.5627 -0.4818
  525MOL0     H70843   5.817   5.928  11.967 -2.1405 -1.7234 -1.3508
  525MOL0     H70844   5.882   5.763  11.997 -1.1015  1.1302  1.3342
  525MOL0     H70845   6.059   5.969  11.856 -1.3764  0.9880  1.2766
  525MOL0     H70846   6.105   5.813  11.925  1.5879  1.8843 -0.8935
  525MOL0     H70847   6.037   5.888  12.153 -0.6169 -0.4055  0.3938
  525MOL0     H70848   6.010   6.047  12.094  3.5029  2.6108 -0.1517
  525MOL0     H70849   6.262   6.032  12.006 -2.1174 -0.3439 -1.1451
  525MOL0     H70850   6.248   6.058  12.171  4.8527 -0.6756 -1.0279
  525MOL0     H70851   6.292   5.787  12.031  2.2822  1.8791 -1.5120
  525MOL0     H70852   6.217   5.800  12.188 -1.5511 -0.0802 -1.8610
  525MOL0     H70853   6.434   5.907  12.278  0.0485 -1.8454  0.6677
  525MOL0     H70854   6.468   5.756  12.187  0.0959 -0.0967 -2.5275
  525MOL0     H70855   5.485   5.699  11.638 -2.6644 -0.2679 -1.6117
  525MOL0     H70856   5.242   5.603  11.677  0.5684  1.1522 -0.2165
  525MOL0     H70857   4.837   5.659  12.087 -2.6236 -0.6043  2.5796
  525MOL0     H70858   4.624   5.537  12.115  1.3232  1.6779  1.0464
  525MOL0     H70859   2.902   4.919  11.454  2.3400 -3.0826 -2.7896
  525MOL0     H70860   2.739   4.752  11.384  0.1996  0.1185  1.3239
  525MOL0     H70861   2.408   4.429  11.298 -0.5856 -0.6466  1.3170
  525MOL0     H70862   2.190   4.356  11.329  0.5118 -0.0828 -1.0663
  525MOL0     H70863   1.926   4.479  11.012  3.5800  2.7608  0.7528
  525MOL0     H70864   1.877   4.602  11.127  4.8827  0.1534  1.3794
  525MOL0     H70865   1.682   4.446  11.209 -2.2790 -1.2996 -0.6463
  525MOL0     H70866   1.753   4.311  11.135  0.1388 -0.3364  3.0550
  525MOL0     H70867   1.544   4.406  11.038 -0.2477 -1.9912  0.6795
  525MOL0     H70868   1.652   4.394  10.910 -1.1869  0.2593 -0.7694
  525MOL0     H70869   1.542   4.642  11.054  0.7220  0.6534  0.2411
  525MOL0     H70870   1.700   4.664  10.966  0.3717 -0.5592  0.1776
  525MOL0     H70871   1.449   4.636  10.649  3.2233 -0.7039 -1.4754
  525MOL0     H70872   2.057   4.662  11.047 -0.0274 -3.5591 -2.1111
  525MOL0     H70873   2.203   4.817  10.959  1.3539  0.6983 -1.3130
  525MOL0     H70874   2.251   4.895  11.111  0.8507  2.0969 -1.5332
  525MOL0     H70875   2.375   4.818  10.999 -0.6802 -1.3430 -1.0552
  526MOL0     O70876   2.866   7.120  10.096 -0.4451  0.2115  0.5869
  526MOL0     C70877   2.839   7.041  10.004 -0.2926 -0.1019  0.5457
  526MOL0     O70878   2.927   6.962   9.938  0.0351  0.9989 -0.1224
  526MOL0     C70879   3.057   6.949   9.977  0.1089 -0.0155  0.4220
  526MOL0     C70880   3.111   6.822   9.953  1.1149 -1.0300  0.5246
  526MOL0     C70881   3.243   6.799   9.973 -0.2749  0.2700 -0.2586
  526MOL0     C70882   3.330   6.900   9.997  0.1448 -0.9964  0.4648
  526MOL0     O70883   3.465   6.888   9.981  0.5110  0.4644  0.2651
  526MOL0     C70884   3.560   7.003   9.994 -0.2628 -0.1199  0.2109
  526MOL0     C70885   3.710   6.957   9.989  0.2270  0.2079  0.2002
  526MOL0     C70886   3.750   6.881   9.864  0.3051  0.2377  1.2265
  526MOL0     C70887   3.889   6.820   9.875  0.8247  0.2691  0.4957
  526MOL0     C70888   3.929   6.752   9.740  0.1379  0.4935 -0.7245
  526MOL0     C70889   4.066   6.674   9.745  0.5929 -0.3783  0.5765
  526MOL0     C70890   4.096   6.597   9.616 -0.7146  0.6140  0.1288
  526MOL0     C70891   4.195   6.488   9.630  0.0919  0.3302  0.3510
  526MOL0     N70892   4.338   6.535   9.636  0.5910  0.1213  0.3631
  526MOL0     C70893   4.418   6.523   9.746 -0.7476  1.0765  0.7351
  526MOL0     C70894   4.536   6.586   9.715 -0.7579 -0.6539 -0.4336
  526MOL0     C70895   4.648   6.607   9.813 -0.4435  0.2748 -0.5222
  526MOL0     C70896   4.714   6.748   9.787  0.4608 -0.1621  0.1948
  526MOL0     C70897   4.846   6.751   9.856 -0.2654 -0.3540 -0.2946
  526MOL0     C70898   4.961   6.690   9.775  0.0508 -0.8700 -0.5387
  526MOL0     O70899   5.038   6.777   9.694  0.1977 -0.0641 -0.7997
  526MOL0     C70900   5.156   6.828   9.743  0.0032 -0.3241 -0.8365
  526MOL0     C70901   5.247   6.893   9.655 -0.1023  0.6761 -0.3148
  526MOL0     C70902   5.358   6.968   9.697 -0.2849  0.3999 -0.6271
  526MOL0     C70903   5.389   6.987   9.835 -0.3372  0.3648  0.1397
  526MOL0     C70904   5.517   7.054   9.881  0.1295 -0.2324 -0.2909
  526MOL0     O70905   5.535   7.059  10.016 -0.6558  0.1378  0.4781
  526MOL0     C70906   5.653   7.118  10.054 -0.4746 -0.4980 -0.6000
  526MOL0     C70907   5.773   7.078  10.009 -0.7982  0.7380 -0.4339
  526MOL0     C70908   5.893   7.140  10.057  0.8566  1.0248 -0.4912
  526MOL0     C70909   5.876   7.248  10.137 -0.2708  0.3912  0.3608
  526MOL0     O70910   5.994   7.310  10.172  0.4214  0.2289 -0.0082
  526MOL0     C70911   6.003   7.390  10.282  0.2130  0.1507  0.2773
  526MOL0     C70912   6.153   7.428  10.303 -0.2702 -0.0188  0.6154
  526MOL0     C70913   6.241   7.299  10.322 -0.2811 -0.4997 -0.0933
  526MOL0     C70914   6.360   7.319  10.412 -0.4037  0.1211  0.2924
  526MOL0     C70915   6.453   7.423  10.357 -0.8380 -0.2864 -0.5409
  526MOL0     C70916   6.513   7.411  10.211  0.6442  0.1909  0.1879
  526MOL0     C70917   6.639   7.497  10.197  0.4442 -0.1920 -0.1956
  526MOL0     C70918   6.603   7.640  10.186  0.3693  0.4838  0.1100
  526MOL0    Cl70919   6.757   7.738  10.205 -0.1498 -0.2733  0.2387
  526MOL0     C70920   5.755   7.301  10.167  0.1036 -0.2560 -0.1787
  526MOL0     C70921   5.643   7.228  10.135 -0.0516 -0.1315 -0.4293
  526MOL0     O70922   5.585   7.119   9.798 -0.0601  0.1287 -0.3508
  526MOL0     C70923   5.307   6.917   9.923  0.3615 -0.3247 -0.1453
  526MOL0     C70924   5.192   6.843   9.881  0.4007  0.9178  0.6708
  526MOL0     N70925   4.529   6.611   9.580  0.1566 -0.3805 -0.1347
  526MOL0     N70926   4.412   6.579   9.534  0.0306  0.5300  0.5163
  526MOL0     C70927   3.283   7.031  10.023  0.8004 -0.0672 -0.4297
  526MOL0     C70928   3.136   7.054  10.024  0.3580  0.4845  0.3102
  526MOL0     C70929   2.698   7.067   9.951 -0.4924 -0.0321  0.1146
  526MOL0     C70930   2.630   7.189   9.978 -0.2629  1.0205  0.5778
  526MOL0     C70931   2.500   7.209   9.933 -0.5921  0.7275 -0.5074
  526MOL0     C70932   2.440   7.107   9.852  0.6220 -0.7239 -0.8880
  526MOL0     O70933   2.307   7.120   9.820 -0.3249 -0.0198 -0.2858
  526MOL0     C70934   2.207   7.179   9.910 -0.4120  0.8813  0.0027
  526MOL0     C70935   2.083   7.181   9.806  0.8972  0.4708  0.0286
  526MOL0     C70936   2.084   7.294   9.702 -0.2883 -0.1072  0.0603
  526MOL0     C70937   2.017   7.430   9.748  0.3413 -0.3051 -0.2556
  526MOL0     C70938   1.874   7.431   9.732  0.0455  0.6755 -0.3302
  526MOL0     C70939   1.758   7.458   9.722 -0.4587  0.0198 -0.5593
  526MOL0     C70940   2.506   6.998   9.813  0.2738  0.2615  0.3150
  526MOL0     C70941   2.632   6.972   9.861 -0.4578  0.2725 -0.7228
  526MOL0     C70942   2.687   6.835   9.830 -0.2779 -0.5265 -0.4489
  526MOL0     H70943   3.048   6.735   9.938  1.5016 -1.2558  0.1813
  526MOL0     H70944   3.266   6.697   9.945 -2.5004 -0.6826  1.1306
  526MOL0     H70945   3.549   7.068   9.907  2.0651 -1.0729 -0.8793
  526MOL0     H70946   3.535   7.065  10.080 -0.2132  0.3749 -0.1275
  526MOL0     H70947   3.714   6.884  10.071 -1.6697 -1.5328 -1.1530
  526MOL0     H70948   3.776   7.044   9.994  1.7913 -0.8117 -1.5133
  526MOL0     H70949   3.748   6.960   9.788  0.5817 -0.6390  0.2864
  526MOL0     H70950   3.675   6.813   9.824  2.0762 -1.0770 -0.0364
  526MOL0     H70951   3.963   6.898   9.891  0.5862  0.5654  0.1689
  526MOL0     H70952   3.891   6.745   9.955 -0.6650  0.4738  0.7627
  526MOL0     H70953   3.855   6.680   9.704  1.6135 -1.1256 -0.6931
  526MOL0     H70954   3.942   6.820   9.655 -1.3184  1.3867 -0.2547
  526MOL0     H70955   4.143   6.748   9.768 -1.0381  0.9953  1.9543
  526MOL0     H70956   4.062   6.610   9.833 -0.6664 -2.1065 -0.6672
  526MOL0     H70957   4.126   6.665   9.536 -0.3255  2.0701  1.4837
  526MOL0     H70958   4.008   6.545   9.578  0.2032  1.4319 -3.5334
  526MOL0     H70959   4.184   6.426   9.719  0.4079 -0.6766 -0.2901
  526MOL0     H70960   4.182   6.422   9.544  1.2197 -1.0424  1.1907
  526MOL0     H70961   4.379   6.495   9.844  1.0686  0.3658  1.2945
  526MOL0     H70962   4.605   6.614   9.913  0.3992  0.4616 -0.1705
  526MOL0     H70963   4.721   6.526   9.810 -1.1348 -0.5893  2.5533
  526MOL0     H70964   4.713   6.771   9.680  0.7793  0.7587  0.3800
  526MOL0     H70965   4.653   6.830   9.826  2.9200  1.3757  0.9881
  526MOL0     H70966   4.827   6.713   9.957  0.9171  0.7734  0.3773
  526MOL0     H70967   4.872   6.855   9.877  1.1112 -0.9576  1.1879
  526MOL0     H70968   4.924   6.611   9.708  1.6502 -1.9108 -0.2552
  526MOL0     H70969   5.026   6.627   9.837 -0.8833 -2.0486 -0.7061
  526MOL0     H70970   5.224   6.888   9.549 -1.0901  0.8094 -0.1180
  526MOL0     H70971   5.422   7.017   9.624  2.9284 -2.8016 -0.2320
  526MOL0     H70972   5.784   6.980   9.962  3.7501  1.0504 -0.4240
  526MOL0     H70973   5.992   7.098  10.044 -0.2080 -1.9007  0.1507
  526MOL0     H70974   5.947   7.483  10.270 -0.0278 -0.1749 -1.4582
  526MOL0     H70975   5.957   7.332  10.362  2.9146 -2.2688  0.2355
  526MOL0     H70976   6.184   7.486  10.215 -2.2238  2.0897  1.2356
  526MOL0     H70977   6.160   7.489  10.393 -2.0197  2.9185 -1.0457
  526MOL0     H70978   6.184   7.219  10.370 -0.0502 -0.7978 -0.3161
  526MOL0     H70979   6.275   7.269  10.223 -2.2222 -0.3015 -0.8499
  526MOL0     H70980   6.419   7.227  10.407 -1.0705 -0.2619 -1.2039
  526MOL0     H70981   6.336   7.339  10.517 -0.5407  1.6506  0.0031
  526MOL0     H70982   6.529   7.441  10.433 -1.3616  1.4627 -0.4072
  526MOL0     H70983   6.396   7.516  10.366  1.3398  1.2172 -1.5544
  526MOL0     H70984   6.544   7.309  10.184  0.5427  0.6675 -1.9027
  526MOL0     H70985   6.435   7.434  10.139  1.6743 -3.3276 -2.3199
  526MOL0     H70986   6.705   7.482  10.111  1.4767  1.2741  0.2883
  526MOL0     H70987   6.702   7.480  10.285  1.3371  1.0548 -0.5587
  526MOL0     H70988   6.562   7.657  10.086  0.9421  0.6801 -0.0949
  526MOL0     H70989   6.528   7.663  10.262  0.9105  1.8170  0.2631
  526MOL0     H70990   5.746   7.393  10.225  1.0036  0.7551 -1.5750
  526MOL0     H70991   5.550   7.247  10.188 -0.0747 -0.4875 -0.3389
  526MOL0     H70992   5.330   6.936  10.028  0.5566 -2.3357  0.2205
  526MOL0     H70993   5.110   6.817   9.947 -0.0903  0.9376  0.0822
  526MOL0     H70994   3.348   7.117  10.029  0.1641  0.3411  1.2778
  526MOL0     H70995   3.098   7.155  10.035  0.9259  1.0860 -2.4986
  526MOL0     H70996   2.680   7.267  10.036 -0.5600  1.9470 -0.3810
  526MOL0     H70997   2.444   7.295   9.968  0.8974  1.0324  1.2651
  526MOL0     H70998   2.240   7.278   9.940 -1.2563  1.5878 -1.3129
  526MOL0     H70999   2.189   7.110   9.993 -0.6713  2.3077  1.1472
  526MOL0     H71000   1.995   7.197   9.869  0.1484  1.5118 -1.2322
  526MOL0     H71001   2.065   7.089   9.749  2.6048  0.6709 -0.8924
  526MOL0     H71002   2.044   7.262   9.606 -1.0543  1.5432 -0.2191
  526MOL0     H71003   2.192   7.309   9.696  0.5436 -4.4269  1.2181
  526MOL0     H71004   2.048   7.454   9.850  0.0291 -0.4543 -0.1250
  526MOL0     H71005   2.051   7.510   9.681  1.2134 -0.7017 -0.2972
  526MOL0     H71006   1.661   7.503   9.724 -0.1117  1.1601  4.7790
  526MOL0     H71007   2.457   6.930   9.744 -1.2123  0.9342  0.6530
  526MOL0     H71008   2.612   6.772   9.780  0.5422 -0.8048 -1.3721
  526MOL0     H71009   2.765   6.851   9.754 -1.2273  2.1228 -0.9835
  526MOL0     H71010   2.722   6.785   9.920  3.4839  0.6581 -1.0665
  527MOL0     O71011   7.039   0.686   4.940  0.0059  0.1645  0.5349
  527MOL0     C71012   7.007   0.692   4.823 -1.2608 -0.3685  0.2238
  527MOL0     O71013   7.090   0.700   4.720  0.2019  0.0188  0.1638
  527MOL0     C71014   7.224   0.683   4.744 -0.0680  0.7532  0.2243
  527MOL0     C71015   7.285   0.570   4.705 -0.1177 -0.3060  0.4703
  527MOL0     C71016   7.412   0.527   4.737  0.4038  0.2783  0.9477
  527MOL0     C71017   7.485   0.613   4.820  0.2808 -0.0828 -0.6447
  527MOL0     O71018   7.603   0.561   4.866 -0.0906 -0.4439  0.4138
  527MOL0     C71019   7.720   0.648   4.874 -0.7314  1.6210  0.2615
  527MOL0     C71020   7.809   0.585   4.977  0.5760  0.3640  0.2054
  527MOL0     C71021   7.946   0.646   4.988  0.5065 -0.7220  0.3547
  527MOL0     C71022   8.022   0.588   5.106 -0.4662 -0.3408  0.2025
  527MOL0     C71023   8.178   0.593   5.079 -0.1062  0.4924 -1.2484
  527MOL0     C71024   8.251   0.495   5.178 -0.3495  0.7266  0.4961
  527MOL0     C71025   8.396   0.521   5.181  0.6667 -0.5652 -0.5292
  527MOL0     C71026   8.454   0.523   5.044 -0.4681  0.4538  0.5750
  527MOL0     N71027   8.602   0.546   5.048  0.0193 -0.3925 -0.2242
  527MOL0     C71028   8.673   0.648   5.107 -0.1607  0.6026 -0.9025
  527MOL0     C71029   8.802   0.601   5.116  0.5124 -0.2280 -0.3021
  527MOL0     C71030   8.911   0.668   5.192  0.3489 -0.1794  0.7628
  527MOL0     C71031   9.036   0.674   5.104 -0.1825 -0.7988 -0.5955
  527MOL0     C71032   9.161   0.608   5.167  0.1313  0.2702  0.6008
  527MOL0     C71033   9.177   0.464   5.133 -0.3489  0.5217  0.2053
  527MOL0     O71034   9.270   0.413   5.231 -0.0898 -0.5772  0.6509
  527MOL0     C71035   9.405   0.413   5.185 -0.5132 -1.1621  0.6986
  527MOL0     C71036   9.490   0.459   5.282 -0.1627  0.0674  0.2533
  527MOL0     C71037   9.621   0.497   5.253  0.1181 -1.2624  0.1193
  527MOL0     C71038   9.673   0.467   5.125  0.4424 -0.4495 -0.2151
  527MOL0     C71039   9.818   0.495   5.094 -0.0244  1.0272  1.1217
  527MOL0     O71040   9.870   0.420   4.986  0.8369  0.1414 -0.4287
  527MOL0     C71041  10.002   0.398   4.960 -0.8406  0.0245 -0.3997
  527MOL0     C71042  10.112   0.466   5.008  0.1016  0.4986  0.1687
  527MOL0     C71043  10.244   0.446   4.977  0.1427  0.6970  0.0901
  527MOL0     C71044  10.268   0.345   4.883 -0.2281 -0.6848 -0.5189
  527MOL0     O71045  10.396   0.308   4.839 -0.5713  0.0978 -0.5287
  527MOL0     C71046  10.498   0.411   4.822 -0.4592  0.2108  0.1729
  527MOL0     C71047  10.631   0.347   4.795 -0.7805 -0.0216  0.3887
  527MOL0     C71048  10.672   0.272   4.919  0.1572  0.3512 -1.0716
  527MOL0     C71049  10.791   0.316   5.004 -0.3344  0.0152 -0.6275
  527MOL0     C71050  10.753   0.431   5.108  1.1901  0.2785  0.0446
  527MOL0     C71051  10.852   0.532   5.152 -0.3746 -0.1946  0.5005
  527MOL0     C71052  10.893   0.623   5.039 -0.0150  0.4042  0.2446
  527MOL0     C71053  10.984   0.734   5.094  0.2302 -0.2675  0.4921
  527MOL0    Cl71054  11.150   0.667   5.126 -0.2088 -0.3292 -0.0891
  527MOL0     C71055  10.170   0.259   4.842 -0.5483 -1.0083  0.4093
  527MOL0     C71056  10.037   0.291   4.880 -0.1513 -1.1947 -0.1072
  527MOL0     O71057   9.884   0.556   5.178  0.1280  0.5792  0.5517
  527MOL0     C71058   9.582   0.416   5.026  0.0568 -0.1997 -0.2277
  527MOL0     C71059   9.448   0.394   5.057 -0.6306 -0.8988 -0.2565
  527MOL0     N71060   8.812   0.482   5.052  0.4349 -0.1460 -0.7167
  527MOL0     N71061   8.687   0.445   5.017 -0.1233 -0.3066 -0.1218
  527MOL0     C71062   7.431   0.738   4.869 -0.5480  0.6424 -1.0105
  527MOL0     C71063   7.301   0.765   4.829 -0.1065  0.2627  0.1938
  527MOL0     C71064   6.868   0.669   4.774 -0.3974 -0.5786 -0.2580
  527MOL0     C71065   6.833   0.671   4.638  0.5921 -0.1062 -0.1009
  527MOL0     C71066   6.707   0.678   4.590 -0.1065 -0.4320  0.5134
  527MOL0     C71067   6.601   0.645   4.671  0.1398 -0.2905  0.3040
  527MOL0     O71068   6.471   0.639   4.636  0.1096  0.1732 -0.2675
  527MOL0     C71069   6.449   0.639   4.497 -0.2603  0.0920 -0.0918
  527MOL0     C71070   6.298   0.595   4.477 -0.1754  0.3222 -0.2685
  527MOL0     C71071   6.254   0.577   4.338  0.7425  0.0051 -0.0901
  527MOL0     C71072   6.105   0.566   4.346 -0.7389 -0.5816  0.1430
  527MOL0     C71073   6.068   0.553   4.204 -0.1972  0.1839 -0.1256
  527MOL0     C71074   6.013   0.544   4.090 -0.5725 -0.4469  0.3411
  527MOL0     C71075   6.630   0.626   4.807 -0.4487  0.3314  0.2046
  527MOL0     C71076   6.753   0.645   4.863  0.0887 -0.1626 -0.3269
  527MOL0     C71077   6.766   0.630   5.006  1.1189  0.6387 -0.0406
  527MOL0     H71078   7.227   0.499   4.646 -0.5624 -0.3842  1.0001
  527MOL0     H71079   7.455   0.437   4.696  3.4527  1.9913  0.0474
  527MOL0     H71080   7.770   0.660   4.778  1.0870 -0.4309  0.8873
  527MOL0     H71081   7.686   0.749   4.901  1.8969  1.9969  2.6294
  527MOL0     H71082   7.816   0.480   4.948 -1.6330  0.1585  0.2994
  527MOL0     H71083   7.764   0.594   5.076  0.1427  0.0548  0.0382
  527MOL0     H71084   7.938   0.751   5.018  1.0003 -0.0801 -1.6172
  527MOL0     H71085   7.997   0.643   4.891  0.2682 -0.2238  0.2133
  527MOL0     H71086   8.002   0.643   5.197  1.1354 -1.3496  1.2272
  527MOL0     H71087   7.989   0.486   5.126 -2.7523 -0.0478 -1.6446
  527MOL0     H71088   8.195   0.562   4.976  3.5494  0.8683 -0.9030
  527MOL0     H71089   8.220   0.694   5.084  0.9246  0.0350 -0.0413
  527MOL0     H71090   8.213   0.513   5.279  0.8953  1.2706  0.8857
  527MOL0     H71091   8.236   0.389   5.153  1.0335  0.7365 -0.4912
  527MOL0     H71092   8.454   0.456   5.247  2.4152  2.9370  1.6644
  527MOL0     H71093   8.412   0.619   5.228  1.6501 -1.8413  1.9898
  527MOL0     H71094   8.431   0.430   4.991  2.8078 -0.1624 -0.0096
  527MOL0     H71095   8.409   0.605   4.987  0.4960  0.7027  0.1539
  527MOL0     H71096   8.644   0.747   5.142  1.3271  0.9222 -0.4643
  527MOL0     H71097   8.877   0.768   5.220 -1.0652 -1.1415  2.7420
  527MOL0     H71098   8.931   0.625   5.291  1.5730  1.2018  1.1610
  527MOL0     H71099   9.017   0.630   5.005 -2.3406 -0.2930 -0.4560
  527MOL0     H71100   9.056   0.781   5.097 -0.1764 -0.5310  2.3231
  527MOL0     H71101   9.173   0.626   5.274  0.7318 -0.1661  0.6112
  527MOL0     H71102   9.242   0.665   5.121 -1.7222  0.8652 -2.1972
  527MOL0     H71103   9.208   0.461   5.028 -4.9670 -1.2871 -1.3623
  527MOL0     H71104   9.084   0.406   5.131  0.5626 -1.0647 -2.8870
  527MOL0     H71105   9.454   0.476   5.383 -1.2727  1.6465 -0.3628
  527MOL0     H71106   9.686   0.533   5.332  1.0587 -1.9530 -0.3351
  527MOL0     H71107  10.102   0.557   5.066 -0.0286  1.2296 -0.9587
  527MOL0     H71108  10.326   0.505   5.017  2.8149 -0.8517 -2.7019
  527MOL0     H71109  10.462   0.473   4.739  0.2357  0.1528 -0.1804
  527MOL0     H71110  10.492   0.486   4.902 -4.3825  0.0832  0.2243
  527MOL0     H71111  10.626   0.279   4.710  0.7805  0.2527  0.0424
  527MOL0     H71112  10.708   0.423   4.784 -1.0751  0.8243  3.2477
  527MOL0     H71113  10.599   0.247   4.997  0.3422 -0.8440 -1.2631
  527MOL0     H71114  10.706   0.175   4.882  0.4726 -0.9557  2.2608
  527MOL0     H71115  10.870   0.358   4.941 -1.1811  1.8809 -0.5109
  527MOL0     H71116  10.830   0.224   5.048 -1.2307  0.4601  1.1759
  527MOL0     H71117  10.701   0.388   5.194 -2.1710  3.0292 -0.4158
  527MOL0     H71118  10.675   0.499   5.074  1.1836  2.5854  4.0080
  527MOL0     H71119  10.806   0.577   5.241 -3.4718  1.6378 -1.8209
  527MOL0     H71120  10.946   0.489   5.187 -0.0682 -0.8427 -1.0427
  527MOL0     H71121  10.807   0.668   4.990 -1.8178 -3.1701 -0.2413
  527MOL0     H71122  10.955   0.570   4.966 -2.0779 -2.7882  0.6098
  527MOL0     H71123  10.987   0.808   5.014  0.2736  0.2287  0.9446
  527MOL0     H71124  10.945   0.787   5.182  0.6777 -0.2119  0.6620
  527MOL0     H71125  10.201   0.188   4.766 -0.1269 -0.6653  0.2560
  527MOL0     H71126   9.961   0.233   4.829 -0.3537  0.3731 -1.6958
  527MOL0     H71127   9.603   0.382   4.925 -3.7163 -2.2609 -0.4904
  527MOL0     H71128   9.382   0.368   4.975  1.5094 -0.7056 -2.1543
  527MOL0     H71129   7.485   0.799   4.941 -1.2578 -1.3079  1.3027
  527MOL0     H71130   7.249   0.855   4.860  1.6907  1.6051 -0.5290
  527MOL0     H71131   6.904   0.699   4.561 -0.7474  2.3328 -0.5297
  527MOL0     H71132   6.709   0.710   4.486  1.6750 -2.7977 -0.2982
  527MOL0     H71133   6.500   0.550   4.459  0.1268 -1.4153  3.5437
  527MOL0     H71134   6.474   0.727   4.436  1.4323  0.5377  1.1563
  527MOL0     H71135   6.229   0.663   4.528  1.3258  0.7958  1.2082
  527MOL0     H71136   6.288   0.498   4.528  1.6202  0.8231  1.1074
  527MOL0     H71137   6.303   0.488   4.299  1.5329 -0.2706  1.4826
  527MOL0     H71138   6.294   0.664   4.284  0.4112  1.3190  1.6877
  527MOL0     H71139   6.076   0.483   4.411  1.8018 -0.0666  2.0580
  527MOL0     H71140   6.051   0.655   4.378 -1.2065 -0.0648 -1.9110
  527MOL0     H71141   5.956   0.530   4.000  0.1876  0.1443 -0.2507
  527MOL0     H71142   6.545   0.613   4.873  0.8424 -0.1092  1.8315
  527MOL0     H71143   6.817   0.719   5.042  2.3048  0.1738 -0.5293
  527MOL0     H71144   6.668   0.620   5.054  2.2864 -2.2681  2.0694
  527MOL0     H71145   6.831   0.545   5.031  0.9071  0.4408 -0.1526
  528MOL0     O71146   0.915   4.042   0.393 -0.5930 -0.1847  0.1905
  528MOL0     C71147   0.888   3.953   0.478 -0.4724  0.2289  0.3281
  528MOL0     O71148   0.769   3.904   0.516 -0.0348 -0.4331 -1.1585
  528MOL0     C71149   0.656   3.982   0.487  0.1373  0.4270  0.1949
  528MOL0     C71150   0.646   4.120   0.505 -0.7732  0.7259 -0.3227
  528MOL0     C71151   0.520   4.179   0.480  1.1742  0.0124  0.6207
  528MOL0     C71152   0.409   4.113   0.444  0.1687  0.5490 -0.7631
  528MOL0     O71153   0.292   4.187   0.430  0.1765  0.6353  0.4551
  528MOL0     C71154   0.173   4.109   0.421 -0.1113 -0.1530  0.0494
  528MOL0     C71155   0.052   4.206   0.440 -0.0841  0.0327 -0.3720
  528MOL0     C71156  -0.088   4.147   0.398  0.3452 -0.5468  0.4120
  528MOL0     C71157  -0.128   4.036   0.485 -0.0085 -0.1566 -0.9987
  528MOL0     C71158  -0.278   4.007   0.467 -0.6624 -0.4709  0.5698
  528MOL0     C71159  -0.324   3.968   0.321 -0.3698  0.5051 -0.0001
  528MOL0     C71160  -0.471   3.936   0.310 -0.3175 -0.2679  0.2116
  528MOL0     C71161  -0.559   4.054   0.362  0.2402 -0.1878  0.0302
  528MOL0     N71162  -0.517   4.173   0.294 -0.6834 -0.0421 -1.3964
  528MOL0     C71163  -0.495   4.285   0.377 -0.1338  0.6314  0.3285
  528MOL0     C71164  -0.487   4.386   0.285 -0.0274  0.5306 -0.7441
  528MOL0     C71165  -0.473   4.530   0.321  0.0942 -0.9378 -0.4094
  528MOL0     C71166  -0.334   4.578   0.356 -0.4024 -0.5625 -0.7833
  528MOL0     C71167  -0.234   4.555   0.240  0.6055 -0.3215 -0.5239
  528MOL0     C71168  -0.130   4.663   0.256  0.6096 -0.5033  0.7624
  528MOL0     O71169  -0.083   4.650   0.390 -0.0535 -0.2868 -0.4817
  528MOL0     C71170   0.035   4.599   0.429 -0.5313  0.0850  0.3295
  528MOL0     C71171   0.165   4.601   0.370 -0.1949 -0.3241  0.4680
  528MOL0     C71172   0.287   4.568   0.440 -0.2233  0.4430  0.1253
  528MOL0     C71173   0.278   4.537   0.581 -0.5693  0.4049 -0.3964
  528MOL0     C71174   0.403   4.500   0.650 -0.2869 -0.2558 -0.5382
  528MOL0     O71175   0.512   4.582   0.622 -0.3657 -0.4160 -0.0778
  528MOL0     C71176   0.646   4.549   0.635  0.4486 -0.2406 -0.4312
  528MOL0     C71177   0.696   4.428   0.676 -0.7661  0.3261  0.1608
  528MOL0     C71178   0.832   4.415   0.708 -0.5577 -0.2403  0.5592
  528MOL0     C71179   0.926   4.513   0.665  0.7201 -0.3570  0.2911
  528MOL0     O71180   1.050   4.481   0.696 -0.6345 -0.6163 -0.9118
  528MOL0     C71181   1.162   4.564   0.665  0.0077  0.2715 -0.1766
  528MOL0     C71182   1.294   4.492   0.694  0.2110 -0.0412  0.0080
  528MOL0     C71183   1.411   4.570   0.619  0.5505  0.2432 -0.3227
  528MOL0     C71184   1.536   4.483   0.648 -0.2004  0.0912  0.5395
  528MOL0     C71185   1.663   4.563   0.602  0.0593  0.3770 -0.7331
  528MOL0     C71186   1.788   4.513   0.677  0.4925 -0.0066  0.6333
  528MOL0     C71187   1.837   4.379   0.630  0.1577  0.0589 -0.1503
  528MOL0     C71188   1.989   4.359   0.662 -0.0797  0.5547  0.1196
  528MOL0    Cl71189   2.091   4.480   0.580  0.0616  0.0754  0.1420
  528MOL0     C71190   0.879   4.629   0.611 -0.6969 -0.3916  0.0059
  528MOL0     C71191   0.736   4.646   0.595  0.3633  0.4376 -0.3347
  528MOL0     O71192   0.402   4.402   0.728  0.2707  0.0545 -0.3702
  528MOL0     C71193   0.153   4.532   0.646  0.2034 -0.5912  0.1270
  528MOL0     C71194   0.037   4.562   0.567  0.2375 -0.3000  0.3759
  528MOL0     N71195  -0.517   4.340   0.155  0.1712 -0.6921 -0.1672
  528MOL0     N71196  -0.533   4.210   0.167 -0.7027  0.7265 -0.0606
  528MOL0     C71197   0.418   3.975   0.425 -0.4099 -0.4053 -0.1477
  528MOL0     C71198   0.542   3.912   0.444 -0.9317  0.6310 -0.3953
  528MOL0     C71199   1.006   3.875   0.517  0.3511  0.2816 -0.4989
  528MOL0     C71200   0.995   3.735   0.525 -0.0392  0.7034 -0.0315
  528MOL0     C71201   1.100   3.667   0.589 -0.6867  1.0690  0.7630
  528MOL0     C71202   1.209   3.722   0.648 -0.1841 -0.9726 -0.7230
  528MOL0     O71203   1.293   3.635   0.713 -0.2593 -0.2673 -0.5325
  528MOL0     C71204   1.409   3.707   0.765  0.2617  1.5583 -0.1559
  528MOL0     C71205   1.499   3.610   0.846 -0.3697  0.0978  0.2577
  528MOL0     C71206   1.614   3.690   0.913  0.5656 -0.2377 -0.3142
  528MOL0     C71207   1.563   3.790   1.029 -0.5726  0.0717  1.0256
  528MOL0     C71208   1.684   3.836   1.097  0.0927  0.3998  0.1984
  528MOL0     C71209   1.787   3.883   1.145  0.2993 -0.1007 -0.0736
  528MOL0     C71210   1.211   3.862   0.642  0.3791 -0.5872 -0.0977
  528MOL0     C71211   1.114   3.942   0.574 -0.3055  0.4013 -0.3677
  528MOL0     C71212   1.116   4.095   0.595 -0.4357  0.1097  0.4294
  528MOL0     H71213   0.723   4.190   0.535  1.6584 -1.7010 -0.4886
  528MOL0     H71214   0.510   4.287   0.492 -0.5294 -0.0634  0.1909
  528MOL0     H71215   0.173   4.058   0.324  1.4861 -1.2983  0.6133
  528MOL0     H71216   0.160   4.046   0.510  1.7496  0.9209  1.1432
  528MOL0     H71217   0.068   4.301   0.389  3.7353  0.9925  2.1345
  528MOL0     H71218   0.044   4.240   0.544 -0.1207 -0.7509 -0.1100
  528MOL0     H71219  -0.091   4.127   0.290 -2.2288  0.5486  0.1990
  528MOL0     H71220  -0.154   4.230   0.424  0.3772 -0.1157 -0.8271
  528MOL0     H71221  -0.064   3.951   0.461 -0.3487 -0.6181 -0.3093
  528MOL0     H71222  -0.117   4.068   0.589 -0.6238  3.7392 -1.9658
  528MOL0     H71223  -0.305   3.929   0.539  0.0424  0.7598  2.2296
  528MOL0     H71224  -0.334   4.099   0.486  0.8660  1.1911 -2.2055
  528MOL0     H71225  -0.305   4.050   0.251 -1.3863  0.9655  0.2446
  528MOL0     H71226  -0.258   3.892   0.280 -0.2739  2.4828 -4.0132
  528MOL0     H71227  -0.484   3.848   0.373 -0.6068 -1.0910 -0.9479
  528MOL0     H71228  -0.504   3.921   0.206 -0.8465  1.0008  0.1712
  528MOL0     H71229  -0.662   4.024   0.342 -0.7408  3.4722 -1.1328
  528MOL0     H71230  -0.547   4.051   0.471  1.4294  1.9288  0.0118
  528MOL0     H71231  -0.480   4.287   0.485 -1.8221 -2.5280  0.7495
  528MOL0     H71232  -0.504   4.582   0.229  2.3707 -0.6857 -1.0903
  528MOL0     H71233  -0.546   4.549   0.400  0.2429  0.1767 -0.5141
  528MOL0     H71234  -0.342   4.686   0.370 -0.7126 -0.3962 -2.1428
  528MOL0     H71235  -0.294   4.533   0.448  2.3201  0.0014 -1.6017
  528MOL0     H71236  -0.295   4.563   0.150 -1.7725  0.8730  1.0876
  528MOL0     H71237  -0.178   4.462   0.249  2.6182  0.9411  0.7163
  528MOL0     H71238  -0.172   4.763   0.241  1.1554 -0.1907  1.2801
  528MOL0     H71239  -0.050   4.647   0.183  1.2609  1.0737  1.0889
  528MOL0     H71240   0.171   4.648   0.273 -0.1090  0.5305  0.8789
  528MOL0     H71241   0.385   4.570   0.392 -0.1586  3.0087  0.2302
  528MOL0     H71242   0.634   4.345   0.709  0.9039 -0.8397  0.5297
  528MOL0     H71243   0.870   4.324   0.753  1.4514 -0.3929 -1.2933
  528MOL0     H71244   1.159   4.577   0.556 -3.3272 -2.7075 -0.6488
  528MOL0     H71245   1.158   4.658   0.720  1.0816  0.8088 -0.9791
  528MOL0     H71246   1.312   4.514   0.800  1.8246  2.0551 -0.6440
  528MOL0     H71247   1.284   4.388   0.662  0.8234  0.1460 -0.8356
  528MOL0     H71248   1.394   4.597   0.515 -1.2520  0.6189  0.0416
  528MOL0     H71249   1.423   4.662   0.677  0.2640 -1.5918  2.9261
  528MOL0     H71250   1.539   4.389   0.592  0.9101  0.5498 -0.2277
  528MOL0     H71251   1.549   4.462   0.754  2.4835  0.6551  0.4188
  528MOL0     H71252   1.631   4.662   0.633  1.1147 -0.0549  2.0282
  528MOL0     H71253   1.674   4.562   0.493  1.3191  1.7070 -0.6508
  528MOL0     H71254   1.865   4.591   0.669 -1.0743  1.4601 -1.9209
  528MOL0     H71255   1.762   4.492   0.781  1.3862  1.2090  1.1214
  528MOL0     H71256   1.818   4.379   0.522 -0.3262  2.0339 -0.1005
  528MOL0     H71257   1.773   4.304   0.677 -1.5017  2.1312  1.0746
  528MOL0     H71258   2.000   4.374   0.769 -1.2495  0.8449  0.2139
  528MOL0     H71259   2.026   4.258   0.639  0.4210  0.2571  2.0764
  528MOL0     H71260   0.947   4.710   0.588 -2.4143  0.7797 -1.2309
  528MOL0     H71261   0.708   4.745   0.561 -0.5854  0.1795 -0.3080
  528MOL0     H71262   0.139   4.523   0.754 -1.4641  0.8934  0.0953
  528MOL0     H71263  -0.059   4.566   0.618  0.4457  0.4031  0.7223
  528MOL0     H71264   0.333   3.914   0.394 -1.3528  1.4286 -1.4056
  528MOL0     H71265   0.545   3.804   0.447  0.7468  0.6227 -1.4625
  528MOL0     H71266   0.902   3.683   0.501 -0.0222 -1.2427  3.5111
  528MOL0     H71267   1.092   3.559   0.596  1.6533  0.5822 -2.0852
  528MOL0     H71268   1.384   3.796   0.823 -1.1531  1.0791  0.0090
  528MOL0     H71269   1.473   3.746   0.685 -0.0620  2.4439  0.0068
  528MOL0     H71270   1.542   3.541   0.773  0.7757  1.6602 -0.6266
  528MOL0     H71271   1.440   3.562   0.924  1.8690 -0.8016  1.4769
  528MOL0     H71272   1.666   3.749   0.837  2.5504 -1.7008 -0.1732
  528MOL0     H71273   1.686   3.621   0.958  1.6718  2.0444  1.6098
  528MOL0     H71274   1.516   3.879   0.987  1.6631 -0.5429 -3.4123
  528MOL0     H71275   1.499   3.729   1.092 -0.3540  0.3861  1.5615
  528MOL0     H71276   1.875   3.931   1.184  0.1224 -1.1869  1.8299
  528MOL0     H71277   1.282   3.919   0.700  0.2866  0.7080 -1.1917
  528MOL0     H71278   1.195   4.126   0.664 -0.6915  2.9048 -0.3956
  528MOL0     H71279   1.142   4.157   0.509  0.0178  1.5380  1.5527
  528MOL0     H71280   1.020   4.134   0.632 -0.1450  0.1120  1.1994
  529MOL0     O71281   2.614   4.523   3.972  0.9863  0.1510  0.2557
  529MOL0     C71282   2.495   4.524   3.979  0.4257 -0.0838  0.2647
  529MOL0     O71283   2.416   4.462   4.085  0.4191  0.5252  0.3565
  529MOL0     C71284   2.488   4.398   4.179  1.2819  0.8626 -0.1204
  529MOL0     C71285   2.559   4.482   4.271 -0.3381  0.2808 -0.3672
  529MOL0     C71286   2.631   4.417   4.368 -0.1100 -0.6851  0.7630
  529MOL0     C71287   2.646   4.274   4.373  0.5426  0.2888  0.5396
  529MOL0     O71288   2.735   4.212   4.460 -1.3898  0.3052  0.0096
  529MOL0     C71289   2.829   4.285   4.538 -0.0577  0.1471  0.4023
  529MOL0     C71290   2.945   4.335   4.446  0.8634 -0.2383  0.6509
  529MOL0     C71291   3.061   4.403   4.518 -0.1483 -0.5209  0.2002
  529MOL0     C71292   3.179   4.436   4.425  0.0992 -0.1437  0.8448
  529MOL0     C71293   3.293   4.500   4.495  0.2671  0.5459 -0.6244
  529MOL0     C71294   3.404   4.554   4.399 -0.0225 -0.3194  0.2657
  529MOL0     C71295   3.527   4.582   4.481  0.2669  0.2957  0.6834
  529MOL0     C71296   3.623   4.674   4.390  0.9506 -0.1326 -0.2003
  529MOL0     N71297   3.729   4.729   4.465  0.1922 -0.6135 -0.9773
  529MOL0     C71298   3.825   4.654   4.527 -0.5373 -0.2278  0.7436
  529MOL0     C71299   3.904   4.749   4.585  0.0049 -0.1433  0.1162
  529MOL0     C71300   4.020   4.723   4.681 -0.0022  0.0421 -1.3644
  529MOL0     C71301   4.167   4.741   4.630 -0.6649 -0.3839  0.3555
  529MOL0     C71302   4.266   4.775   4.742 -0.0765  0.8563  0.0572
  529MOL0     C71303   4.410   4.789   4.678 -0.2464  0.1470 -0.8410
  529MOL0     O71304   4.515   4.766   4.767 -0.6682 -0.5931 -0.6173
  529MOL0     C71305   4.641   4.811   4.727  0.4993 -0.3420 -0.1022
  529MOL0     C71306   4.728   4.834   4.832  0.1916 -0.1694  0.7472
  529MOL0     C71307   4.861   4.854   4.802 -0.8097 -1.0925  0.5545
  529MOL0     C71308   4.907   4.872   4.668  0.2977 -0.2854  0.3950
  529MOL0     C71309   5.049   4.909   4.640 -0.0560  0.2569 -0.2003
  529MOL0     O71310   5.079   4.928   4.511 -0.2843 -0.4015 -0.7282
  529MOL0     C71311   5.192   4.996   4.470 -0.7720 -0.1858 -0.2567
  529MOL0     C71312   5.241   4.957   4.343 -0.4767  0.0675  1.0701
  529MOL0     C71313   5.373   5.001   4.304  0.1890 -1.1004  0.5380
  529MOL0     C71314   5.447   5.096   4.370  0.2352 -0.1049 -0.2887
  529MOL0     O71315   5.570   5.129   4.316  0.0330  0.2069  0.2708
  529MOL0     C71316   5.674   5.182   4.394  0.0197 -0.9532 -1.1933
  529MOL0     C71317   5.820   5.131   4.359  0.2249 -0.5056  0.9848
  529MOL0     C71318   5.836   4.994   4.406 -0.2721  0.6283  1.0845
  529MOL0     C71319   5.839   4.888   4.293  0.0963 -0.1600  0.2309
  529MOL0     C71320   5.716   4.875   4.207  0.2170  0.0506 -0.2602
  529MOL0     C71321   5.743   4.779   4.089 -0.0325  0.2925  0.3406
  529MOL0     C71322   5.615   4.737   4.008 -0.5850 -0.3386  0.6670
  529MOL0     C71323   5.548   4.856   3.942 -0.1420  0.6295 -0.7078
  529MOL0    Cl71324   5.653   4.929   3.814  0.2677 -0.2091 -0.0820
  529MOL0     C71325   5.395   5.134   4.494 -0.2341  0.0085 -0.4985
  529MOL0     C71326   5.271   5.087   4.539  0.5624 -0.6341 -0.6028
  529MOL0     O71327   5.126   4.916   4.739  0.0801  0.0869 -0.0235
  529MOL0     C71328   4.812   4.844   4.563 -0.0977  0.9272  0.2013
  529MOL0     C71329   4.675   4.817   4.589 -0.2861 -0.0324 -0.0193
  529MOL0     N71330   3.856   4.872   4.553  0.1156  0.4667 -0.0779
  529MOL0     N71331   3.743   4.862   4.488  0.6494 -0.6154 -0.1335
  529MOL0     C71332   2.568   4.193   4.286  0.0031  0.3210 -0.3936
  529MOL0     C71333   2.487   4.255   4.189 -0.7079  0.4347 -0.0845
  529MOL0     C71334   2.437   4.608   3.865  0.2381  0.1863 -0.0005
  529MOL0     C71335   2.304   4.655   3.880 -0.0289  0.0242  0.0063
  529MOL0     C71336   2.235   4.724   3.775 -0.0150  0.1600  0.0946
  529MOL0     C71337   2.298   4.755   3.660  0.2233  0.3509  0.5503
  529MOL0     O71338   2.229   4.806   3.560 -0.5726 -0.0645  0.2566
  529MOL0     C71339   2.298   4.856   3.446 -0.1763  0.0733 -0.0283
  529MOL0     C71340   2.190   4.892   3.342 -0.6527  0.3719 -0.1906
  529MOL0     C71341   2.095   5.004   3.384 -0.2692 -0.0835 -0.9840
  529MOL0     C71342   1.983   5.018   3.281 -0.3924 -0.4218  0.6217
  529MOL0     C71343   1.874   5.100   3.334 -0.5133 -0.1445 -0.3555
  529MOL0     C71344   1.774   5.146   3.375 -0.3517  0.0408  0.2365
  529MOL0     C71345   2.439   4.728   3.654 -0.2936 -0.1323 -0.7885
  529MOL0     C71346   2.506   4.650   3.748 -0.5898 -0.6125  0.4234
  529MOL0     C71347   2.647   4.617   3.713  0.1462  0.2789 -0.1824
  529MOL0     H71348   2.553   4.590   4.274  0.2965  0.3081  0.2285
  529MOL0     H71349   2.667   4.481   4.448 -0.8834 -0.9710  1.3487
  529MOL0     H71350   2.781   4.370   4.587 -1.6315 -0.4597 -0.0472
  529MOL0     H71351   2.871   4.221   4.617  0.5126  0.4353  0.3393
  529MOL0     H71352   2.902   4.403   4.372 -1.6860 -1.3489  1.0087
  529MOL0     H71353   2.980   4.248   4.388  2.7498  0.4299  0.7168
  529MOL0     H71354   3.099   4.333   4.593  2.5037 -0.4730 -0.9907
  529MOL0     H71355   3.023   4.492   4.569  1.9019 -0.3603  1.5390
  529MOL0     H71356   3.214   4.339   4.389 -2.3509  0.5028 -4.2867
  529MOL0     H71357   3.145   4.497   4.341 -2.6983 -0.8634  1.3451
  529MOL0     H71358   3.245   4.584   4.545 -2.3470 -0.5849 -1.1036
  529MOL0     H71359   3.330   4.430   4.571 -1.0337  1.0588  0.5085
  529MOL0     H71360   3.430   4.491   4.314  1.8057  3.0416 -1.8878
  529MOL0     H71361   3.359   4.640   4.349 -4.6646 -0.8827  2.8941
  529MOL0     H71362   3.579   4.489   4.504 -1.1770 -1.7586 -3.3641
  529MOL0     H71363   3.499   4.629   4.576  1.3783 -2.4981  2.5129
  529MOL0     H71364   3.675   4.634   4.303  2.1523  0.8689  0.0264
  529MOL0     H71365   3.571   4.763   4.353  1.0221 -0.5921 -1.4518
  529MOL0     H71366   3.823   4.546   4.532  1.5528 -0.3631 -0.1319
  529MOL0     H71367   4.012   4.779   4.775 -1.5129 -1.0098 -0.8336
  529MOL0     H71368   4.014   4.622   4.724 -1.8368  1.3288  1.7334
  529MOL0     H71369   4.202   4.656   4.571  1.4827 -0.0205  1.0209
  529MOL0     H71370   4.170   4.829   4.564  1.9498 -0.1451  0.7088
  529MOL0     H71371   4.271   4.688   4.808 -1.3717 -0.2974 -1.3011
  529MOL0     H71372   4.254   4.864   4.805 -0.1645  0.2351  0.9340
  529MOL0     H71373   4.424   4.889   4.637  0.7016 -0.1228 -1.1983
  529MOL0     H71374   4.425   4.718   4.596 -1.5302 -0.7484 -0.3356
  529MOL0     H71375   4.676   4.837   4.927 -1.8883 -1.8051 -0.2462
  529MOL0     H71376   4.931   4.874   4.883  0.4940 -2.4787 -0.1804
  529MOL0     H71377   5.191   4.883   4.282 -1.1299  1.9017 -0.7358
  529MOL0     H71378   5.415   4.945   4.221 -1.9835 -0.8397 -0.8260
  529MOL0     H71379   5.677   5.291   4.389  0.4969 -0.8177  0.9001
  529MOL0     H71380   5.659   5.168   4.502 -1.5685 -1.3769 -1.4542
  529MOL0     H71381   5.839   5.146   4.253  1.3907  3.3282  1.5660
  529MOL0     H71382   5.892   5.192   4.415  0.8743 -1.4398  1.1882
  529MOL0     H71383   5.934   4.991   4.456  1.1708 -0.8908 -1.5771
  529MOL0     H71384   5.758   4.962   4.475  0.0585  3.3074  2.8262
  529MOL0     H71385   5.849   4.792   4.343 -3.3383  0.1758  1.8505
  529MOL0     H71386   5.919   4.904   4.221  0.2815 -1.3013  0.1682
  529MOL0     H71387   5.679   4.971   4.169 -0.6954 -0.1804  0.0313
  529MOL0     H71388   5.632   4.843   4.269  0.4408 -0.4216 -0.2011
  529MOL0     H71389   5.818   4.822   4.022 -1.2936  1.4672 -0.3719
  529MOL0     H71390   5.780   4.683   4.128 -1.8543 -2.3041 -3.6291
  529MOL0     H71391   5.548   4.675   4.069 -0.2105  1.2807  2.8011
  529MOL0     H71392   5.639   4.671   3.924 -0.5434  1.0362 -0.4417
  529MOL0     H71393   5.462   4.819   3.887  0.1294 -0.6590 -0.2989
  529MOL0     H71394   5.527   4.933   4.017 -0.5847  1.0197 -1.2252
  529MOL0     H71395   5.453   5.203   4.554 -1.7895  0.0058  1.0822
  529MOL0     H71396   5.248   5.114   4.642  0.9507 -0.7974 -0.4710
  529MOL0     H71397   4.847   4.846   4.460 -0.9072  2.5091 -0.0779
  529MOL0     H71398   4.607   4.790   4.510  0.7688 -1.2361 -0.5628
  529MOL0     H71399   2.578   4.085   4.286  2.2682  0.4785 -0.0147
  529MOL0     H71400   2.437   4.187   4.120 -1.9888 -2.6083  3.5099
  529MOL0     H71401   2.256   4.631   3.974  2.0211 -1.4945  0.7533
  529MOL0     H71402   2.129   4.746   3.787  0.1175 -0.5562  3.5426
  529MOL0     H71403   2.364   4.785   3.397  1.7385  0.6652  1.5845
  529MOL0     H71404   2.358   4.942   3.477 -0.2680 -0.6254  2.2602
  529MOL0     H71405   2.128   4.806   3.316 -1.0481  0.2515  1.0769
  529MOL0     H71406   2.251   4.934   3.261 -1.2785  1.0543 -0.3243
  529MOL0     H71407   2.158   5.093   3.388  0.5698 -0.6501  3.6329
  529MOL0     H71408   2.061   4.975   3.484 -1.1662  2.1019 -0.5983
  529MOL0     H71409   2.039   5.065   3.199  1.5408 -0.1152  2.0509
  529MOL0     H71410   1.945   4.917   3.263  0.6404 -0.7801  0.3766
  529MOL0     H71411   1.678   5.182   3.408  0.0970 -0.0864  1.7177
  529MOL0     H71412   2.493   4.751   3.562 -0.5474 -0.1373 -0.9399
  529MOL0     H71413   2.720   4.689   3.750 -1.1502  1.9313 -0.7485
  529MOL0     H71414   2.674   4.514   3.738 -0.2612  0.0147 -0.8157
  529MOL0     H71415   2.663   4.621   3.605  1.8769  1.7604  0.0780
  530MOL0     O71416   5.124   5.398   2.617  0.7029 -0.6126 -0.3988
  530MOL0     C71417   5.078   5.397   2.733  0.0258 -0.0550 -0.0961
  530MOL0     O71418   5.157   5.373   2.849 -0.0187  0.5079  0.1762
  530MOL0     C71419   5.268   5.288   2.817 -0.3698 -0.5240 -0.5814
  530MOL0     C71420   5.260   5.150   2.851 -0.0351 -0.3193 -0.5504
  530MOL0     C71421   5.372   5.067   2.836 -0.3092 -0.0527  0.0199
  530MOL0     C71422   5.487   5.115   2.767 -0.5950 -0.1959 -0.0978
  530MOL0     O71423   5.590   5.028   2.725  0.2158 -0.2356 -0.1362
  530MOL0     C71424   5.570   4.887   2.719  0.9006 -0.1251 -0.3184
  530MOL0     C71425   5.696   4.830   2.654 -0.4112 -0.2847 -0.6839
  530MOL0     C71426   5.721   4.882   2.514 -0.0103 -0.2849 -0.6645
  530MOL0     C71427   5.819   4.801   2.434 -0.0550 -0.2942  0.0422
  530MOL0     C71428   5.964   4.816   2.486  0.3932 -0.1759 -0.8327
  530MOL0     C71429   6.051   4.748   2.387  0.0108 -0.0495  0.2388
  530MOL0     C71430   6.199   4.735   2.423  0.2810 -0.1559 -0.4307
  530MOL0     C71431   6.279   4.679   2.306  0.0324  0.3274 -0.3725
  530MOL0     N71432   6.266   4.539   2.299  0.4060 -0.0812  0.7123
  530MOL0     C71433   6.296   4.450   2.399  0.0613  0.3782  0.2979
  530MOL0     C71434   6.295   4.330   2.338 -0.5616  0.8374 -0.0680
  530MOL0     C71435   6.335   4.204   2.404 -0.0522  0.1369 -0.3492
  530MOL0     C71436   6.490   4.217   2.430 -0.6082 -0.1888 -0.1909
  530MOL0     C71437   6.538   4.086   2.489 -0.7365 -0.2113  1.0599
  530MOL0     C71438   6.673   4.097   2.549  0.1710 -0.4970  0.2649
  530MOL0     O71439   6.763   4.130   2.453  0.0167 -0.4665 -0.1258
  530MOL0     C71440   6.906   4.135   2.475 -0.9802  0.0649 -0.2623
  530MOL0     C71441   6.960   4.116   2.603 -0.0546  0.7316  0.2017
  530MOL0     C71442   7.100   4.124   2.629  0.1891 -0.0088 -0.1313
  530MOL0     C71443   7.186   4.164   2.526 -1.1031 -0.4499 -0.0040
  530MOL0     C71444   7.335   4.152   2.557 -0.3101  0.0757 -0.6563
  530MOL0     O71445   7.408   4.195   2.459 -0.1301  0.2377  0.9653
  530MOL0     C71446   7.542   4.177   2.455 -0.2308  0.9849  0.8975
  530MOL0     C71447   7.595   4.094   2.360  0.2400 -0.3405 -0.2893
  530MOL0     C71448   7.736   4.051   2.372  0.3866  1.6959 -0.0592
  530MOL0     C71449   7.813   4.106   2.478  0.1205 -0.1995 -0.4253
  530MOL0     O71450   7.934   4.052   2.512  0.3062 -0.2063 -0.3024
  530MOL0     C71451   8.030   4.062   2.408 -0.0926  0.0040 -0.6244
  530MOL0     C71452   8.109   3.927   2.400  0.8515 -0.1786 -0.0724
  530MOL0     C71453   8.254   3.952   2.349  0.2444  0.3546  0.4731
  530MOL0     C71454   8.337   3.825   2.379 -0.3004 -0.6243  0.5064
  530MOL0     C71455   8.486   3.824   2.349 -0.6812 -0.2158 -0.5867
  530MOL0     C71456   8.577   3.890   2.453 -0.1936 -0.7026  0.4820
  530MOL0     C71457   8.718   3.916   2.393 -1.0861  0.1431 -0.8275
  530MOL0     C71458   8.835   3.916   2.495  0.7006 -0.1205 -0.1346
  530MOL0    Cl71459   8.982   3.921   2.409 -0.4807 -0.0456  0.2818
  530MOL0     C71460   7.762   4.193   2.564  0.0093 -0.5932 -0.2563
  530MOL0     C71461   7.627   4.223   2.553  0.5373  0.1604 -0.0354
  530MOL0     O71462   7.372   4.080   2.651 -0.6060 -0.1977  0.3034
  530MOL0     C71463   7.129   4.201   2.401  0.3594 -0.8075 -1.1310
  530MOL0     C71464   6.991   4.191   2.381 -0.2466  0.5319 -0.0855
  530MOL0     N71465   6.259   4.347   2.200 -0.1719 -0.2142 -0.5898
  530MOL0     N71466   6.250   4.475   2.183 -0.5372 -0.7835  0.4200
  530MOL0     C71467   5.493   5.249   2.744  0.8067  0.1528  1.0457
  530MOL0     C71468   5.392   5.344   2.770 -0.2529 -0.4627  0.6170
  530MOL0     C71469   4.939   5.426   2.753  0.0351 -0.6125  0.1647
  530MOL0     C71470   4.896   5.434   2.882  0.2931  0.6638 -0.1536
  530MOL0     C71471   4.758   5.449   2.918 -0.3688  0.0442  0.5350
  530MOL0     C71472   4.657   5.441   2.817  0.2929  0.0005 -0.5603
  530MOL0     O71473   4.524   5.436   2.838 -0.1182 -0.0685 -0.6099
  530MOL0     C71474   4.466   5.445   2.968 -0.0317 -0.2516  0.5681
  530MOL0     C71475   4.318   5.449   2.972  0.4566 -0.2785  0.2671
  530MOL0     C71476   4.251   5.580   2.920 -0.7111  0.0843 -0.4419
  530MOL0     C71477   4.100   5.568   2.924 -0.0817 -0.1216 -0.2416
  530MOL0     C71478   4.041   5.469   2.829  0.3695 -0.2304 -0.8921
  530MOL0     C71479   4.006   5.400   2.737  0.2789 -0.4681  0.0799
  530MOL0     C71480   4.706   5.448   2.686  0.0975 -0.7478  0.3139
  530MOL0     C71481   4.836   5.443   2.651  0.6129 -0.4152  0.0202
  530MOL0     C71482   4.871   5.447   2.513  1.0256 -0.0390  0.6671
  530MOL0     H71483   5.179   5.102   2.905 -1.2982  2.8742  0.6221
  530MOL0     H71484   5.353   4.963   2.858 -1.6440  0.0606 -0.4880
  530MOL0     H71485   5.539   4.852   2.818  2.6313 -0.9854 -0.0558
  530MOL0     H71486   5.480   4.874   2.657  0.3375  0.8402  0.2732
  530MOL0     H71487   5.696   4.721   2.645  0.5987 -0.2204 -1.8772
  530MOL0     H71488   5.784   4.854   2.716 -0.5960 -0.9146 -0.1703
  530MOL0     H71489   5.748   4.988   2.513 -1.1126  0.0104 -0.8563
  530MOL0     H71490   5.635   4.864   2.448  0.7541 -3.1825 -1.0143
  530MOL0     H71491   5.780   4.698   2.439 -1.7560  0.2829 -0.7018
  530MOL0     H71492   5.820   4.826   2.328  0.9403 -1.7988 -0.3501
  530MOL0     H71493   6.000   4.918   2.498 -0.0739  0.2765 -2.9897
  530MOL0     H71494   5.973   4.766   2.584 -1.8041  1.4502  0.2769
  530MOL0     H71495   6.004   4.650   2.374 -1.1910  0.5057  0.2523
  530MOL0     H71496   6.055   4.800   2.291  2.0223 -0.2020  0.2031
  530MOL0     H71497   6.196   4.669   2.510 -0.4712 -2.3123 -1.9959
  530MOL0     H71498   6.258   4.823   2.447  0.8630 -0.4350 -0.8119
  530MOL0     H71499   6.256   4.725   2.209 -3.8112 -1.8394 -0.6829
  530MOL0     H71500   6.386   4.693   2.326  1.0915 -4.4198 -1.4658
  530MOL0     H71501   6.327   4.465   2.502  2.6155 -0.1890 -0.3093
  530MOL0     H71502   6.285   4.198   2.502 -0.6401 -2.8634 -0.7578
  530MOL0     H71503   6.319   4.115   2.343  1.1655  0.3019 -0.9389
  530MOL0     H71504   6.530   4.243   2.331  0.3628 -1.8710 -0.2727
  530MOL0     H71505   6.512   4.298   2.500 -0.6198 -1.7238  1.6812
  530MOL0     H71506   6.543   4.013   2.408  2.2639 -0.5680  1.4532
  530MOL0     H71507   6.467   4.051   2.564 -2.6664 -0.6687 -0.8644
  530MOL0     H71508   6.702   4.001   2.593  3.2020  1.4057  2.7978
  530MOL0     H71509   6.668   4.176   2.624  2.0359 -0.0343 -0.0649
  530MOL0     H71510   6.894   4.089   2.685 -0.4710 -0.6341 -0.5530
  530MOL0     H71511   7.136   4.105   2.729  0.0191  1.1768  0.1653
  530MOL0     H71512   7.525   4.043   2.295  0.0878  1.4399 -1.5951
  530MOL0     H71513   7.778   3.970   2.313 -1.2677  1.0170 -0.3850
  530MOL0     H71514   7.990   4.089   2.310 -0.4707  3.1819  0.2696
  530MOL0     H71515   8.095   4.148   2.427 -1.4104  0.9660 -0.3111
  530MOL0     H71516   8.104   3.879   2.499  1.1717 -1.9106 -0.8573
  530MOL0     H71517   8.065   3.864   2.322 -1.1413  0.5857  0.3693
  530MOL0     H71518   8.235   3.975   2.244 -4.0576 -1.8587  0.5724
  530MOL0     H71519   8.292   4.042   2.398 -0.3591  0.7113  0.2967
  530MOL0     H71520   8.295   3.755   2.306 -0.5583 -0.8530  0.8761
  530MOL0     H71521   8.311   3.788   2.478 -2.9285  1.1626  0.5848
  530MOL0     H71522   8.503   3.879   2.255  0.1198 -0.5363 -0.6380
  530MOL0     H71523   8.518   3.721   2.330 -2.2410 -0.7669 -0.3418
  530MOL0     H71524   8.546   3.983   2.501  2.9717  0.1646  1.0945
  530MOL0     H71525   8.598   3.819   2.534  2.6249 -1.1442 -0.5063
  530MOL0     H71526   8.717   4.009   2.334  1.4981  0.6677 -0.1699
  530MOL0     H71527   8.741   3.833   2.325 -1.3006  0.3637 -1.1716
  530MOL0     H71528   8.817   4.002   2.560 -3.2052  0.2822 -1.4671
  530MOL0     H71529   8.823   3.824   2.552 -0.4227  0.5252  0.7347
  530MOL0     H71530   7.828   4.227   2.644 -1.1468 -0.1572  0.5526
  530MOL0     H71531   7.585   4.292   2.627  1.6276 -0.6596  1.3994
  530MOL0     H71532   7.197   4.235   2.324  2.0951 -1.9831 -0.1874
  530MOL0     H71533   6.948   4.238   2.293  0.9440  1.3824 -0.2511
  530MOL0     H71534   5.578   5.288   2.689 -0.1630  0.1796 -0.5196
  530MOL0     H71535   5.400   5.451   2.753 -3.0556 -0.0505  1.3640
  530MOL0     H71536   4.959   5.421   2.970 -0.7291 -0.8049  0.4021
  530MOL0     H71537   4.738   5.443   3.024  1.5396 -1.7731  0.8654
  530MOL0     H71538   4.495   5.544   3.006 -1.3661 -0.4238  2.1632
  530MOL0     H71539   4.505   5.365   3.030  0.8171 -0.3282 -0.0525
  530MOL0     H71540   4.288   5.430   3.075  0.8423 -1.0174  0.2480
  530MOL0     H71541   4.282   5.359   2.920 -0.5001 -0.2664  0.8764
  530MOL0     H71542   4.277   5.605   2.817 -1.1493 -0.0486 -0.5896
  530MOL0     H71543   4.267   5.662   2.990 -6.2298  0.6564  0.6499
  530MOL0     H71544   4.071   5.549   3.028 -1.7253  0.3594 -0.5708
  530MOL0     H71545   4.048   5.661   2.898 -1.2096 -0.7466 -0.2955
  530MOL0     H71546   3.959   5.348   2.656 -2.7613  0.8955  0.8304
  530MOL0     H71547   4.632   5.483   2.614  2.6432  2.4399 -0.9937
  530MOL0     H71548   4.903   5.348   2.479 -1.2544 -0.7138  0.3079
  530MOL0     H71549   4.785   5.467   2.449  0.8857 -1.5118  0.3529
  530MOL0     H71550   4.939   5.531   2.495 -0.3076  0.9953  0.3724
  531MOL0     O71551   5.154   7.583   9.431  0.1463 -0.3742 -0.3575
  531MOL0     C71552   5.135   7.531   9.325 -0.7091  0.8818  0.6866
  531MOL0     O71553   5.229   7.449   9.261 -0.6978 -0.5452 -0.1885
  531MOL0     C71554   5.354   7.446   9.323 -0.3531  0.3386 -0.3721
  531MOL0     C71555   5.470   7.497   9.257 -0.1395 -0.7546 -0.0815
  531MOL0     C71556   5.591   7.481   9.320  0.2089 -0.5365 -0.7760
  531MOL0     C71557   5.601   7.432   9.455 -0.4869  0.2353  0.5107
  531MOL0     O71558   5.737   7.420   9.497  0.1858 -0.1197 -0.7681
  531MOL0     C71559   5.758   7.355   9.621  0.2012  0.2955  0.6660
  531MOL0     C71560   5.916   7.349   9.643  0.3728  0.4336  0.1096
  531MOL0     C71561   5.949   7.292   9.780 -0.4752  0.1295  0.0015
  531MOL0     C71562   6.090   7.245   9.771 -0.1048 -0.9520  0.5303
  531MOL0     C71563   6.178   7.367   9.788  0.5968  0.1223 -0.4388
  531MOL0     C71564   6.326   7.333   9.825 -0.5842 -0.9188 -0.1003
  531MOL0     C71565   6.398   7.472   9.788 -0.2228  0.0792 -0.0663
  531MOL0     C71566   6.545   7.475   9.824  0.2407  0.3289  0.2780
  531MOL0     N71567   6.639   7.396   9.737 -0.3975 -0.2485 -0.3160
  531MOL0     C71568   6.745   7.434   9.665  0.7430 -0.2041  0.1309
  531MOL0     C71569   6.810   7.326   9.617  0.6560  0.4846  0.0033
  531MOL0     C71570   6.927   7.323   9.523 -0.5269  0.2185 -0.7772
  531MOL0     C71571   7.056   7.287   9.602  0.0897  0.6152 -0.2007
  531MOL0     C71572   7.168   7.247   9.506 -0.1235  0.2320 -0.1444
  531MOL0     C71573   7.293   7.220   9.586  0.0889 -0.1533 -0.0732
  531MOL0     O71574   7.395   7.193   9.499 -0.0871 -0.0663  0.0468
  531MOL0     C71575   7.525   7.183   9.548  1.3409 -0.7250  0.2014
  531MOL0     C71576   7.627   7.210   9.460  0.0089 -0.1685  0.8351
  531MOL0     C71577   7.765   7.211   9.506 -0.1815 -0.4692  0.4670
  531MOL0     C71578   7.794   7.192   9.643  1.3402  0.2170  0.0281
  531MOL0     C71579   7.934   7.196   9.701 -0.2760  0.3527 -0.2797
  531MOL0     O71580   7.967   7.123   9.805 -0.1585  0.4827 -0.6359
  531MOL0     C71581   8.100   7.107   9.844 -0.6434  0.5767  0.8532
  531MOL0     C71582   8.145   6.979   9.844 -0.6604  1.1035 -0.3131
  531MOL0     C71583   8.279   6.943   9.863  0.0469 -0.4000  0.0888
  531MOL0     C71584   8.373   7.044   9.895 -0.3625  0.5894 -0.6460
  531MOL0     O71585   8.502   7.005   9.910 -0.3164 -0.3336 -0.1134
  531MOL0     C71586   8.579   7.070  10.009  0.7362 -1.3071  0.3852
  531MOL0     C71587   8.718   7.007  10.003  0.2666 -0.1777  0.1945
  531MOL0     C71588   8.810   7.083  10.080  0.1423  0.5986  0.5822
  531MOL0     C71589   8.951   7.032  10.059 -0.1182 -0.1744  0.6440
  531MOL0     C71590   8.981   6.908  10.142 -0.8510 -0.3117 -0.6095
  531MOL0     C71591   8.965   6.941  10.291 -0.6162  0.9134 -0.3833
  531MOL0     C71592   9.014   6.826  10.377  0.3748  0.1773  0.2789
  531MOL0     C71593   8.936   6.838  10.505 -0.6149  0.3967  0.2001
  531MOL0    Cl71594   8.972   6.699  10.604  0.3583 -0.2225 -0.5166
  531MOL0     C71595   8.323   7.174   9.910  0.6581 -0.2776 -0.4200
  531MOL0     C71596   8.193   7.206   9.881  0.3336  0.5367 -0.0813
  531MOL0     O71597   8.012   7.277   9.652 -0.1057  0.1295 -0.5580
  531MOL0     C71598   7.685   7.173   9.734 -0.2475  0.2755 -0.4051
  531MOL0     C71599   7.555   7.170   9.686 -0.6382  0.3306  0.5960
  531MOL0     N71600   6.736   7.216   9.658 -0.1570  0.1847 -0.0372
  531MOL0     N71601   6.641   7.255   9.736 -0.0315  0.3224 -0.4097
  531MOL0     C71602   5.486   7.386   9.510  0.2346 -0.4226 -1.2317
  531MOL0     C71603   5.363   7.388   9.443  0.7491 -0.9849 -0.6538
  531MOL0     C71604   5.013   7.552   9.239  0.4291  0.1900  0.9413
  531MOL0     C71605   5.009   7.512   9.101 -0.5019 -0.2032 -0.4785
  531MOL0     C71606   4.890   7.514   9.020  0.3361 -0.9253  0.0345
  531MOL0     C71607   4.774   7.579   9.073 -0.2698 -0.0407 -0.2334
  531MOL0     O71608   4.658   7.613   8.999  0.3920  0.3730 -0.5207
  531MOL0     C71609   4.645   7.540   8.873 -0.8623  0.6411 -0.7185
  531MOL0     C71610   4.508   7.558   8.811 -0.3545 -0.5030  0.2460
  531MOL0     C71611   4.472   7.698   8.755 -0.0873 -1.1513  0.1247
  531MOL0     C71612   4.360   7.688   8.636 -0.8260 -0.8582  0.0415
  531MOL0     C71613   4.327   7.821   8.592  0.1083 -0.5045  0.5433
  531MOL0     C71614   4.303   7.934   8.558  0.3125 -0.3775  0.0935
  531MOL0     C71615   4.778   7.619   9.212 -0.4565  0.2188 -0.1921
  531MOL0     C71616   4.896   7.603   9.292 -0.1956 -0.8217 -0.1153
  531MOL0     C71617   4.878   7.642   9.436  0.0505  0.7111  0.6034
  531MOL0     H71618   5.470   7.541   9.158 -0.2315  0.2466  0.3463
  531MOL0     H71619   5.686   7.512   9.278  0.7796 -0.6015  0.4262
  531MOL0     H71620   5.705   7.409   9.700 -1.1652 -0.2655  0.1608
  531MOL0     H71621   5.719   7.253   9.616 -2.4650  1.2972 -0.9063
  531MOL0     H71622   5.956   7.450   9.629 -2.0568  1.4250 -0.3052
  531MOL0     H71623   5.961   7.291   9.562  0.5329 -0.9575  1.1578
  531MOL0     H71624   5.898   7.197   9.798  0.7849 -0.3540  1.1659
  531MOL0     H71625   5.935   7.368   9.857 -0.2816 -0.6652  0.8320
  531MOL0     H71626   6.114   7.164   9.841 -0.6684  0.1322  2.0220
  531MOL0     H71627   6.103   7.198   9.673 -1.0331 -1.4644  0.6358
  531MOL0     H71628   6.167   7.420   9.693 -2.9658 -1.0288 -0.8386
  531MOL0     H71629   6.138   7.428   9.870  1.4477  0.0642  0.0242
  531MOL0     H71630   6.333   7.316   9.933  0.9617  1.7309  0.3025
  531MOL0     H71631   6.363   7.245   9.772 -0.4985 -2.2886  2.0966
  531MOL0     H71632   6.341   7.545   9.846 -0.7729 -0.1141 -0.3532
  531MOL0     H71633   6.396   7.510   9.686 -1.1067  1.5712  0.4816
  531MOL0     H71634   6.575   7.580   9.826 -1.1648  0.7431  0.8909
  531MOL0     H71635   6.555   7.442   9.928  0.6029 -1.9107 -0.4143
  531MOL0     H71636   6.765   7.538   9.643 -2.1580  0.4155  0.0681
  531MOL0     H71637   6.909   7.251   9.442  1.1201  1.8756 -2.7008
  531MOL0     H71638   6.944   7.418   9.472 -1.5438  1.2117  0.6569
  531MOL0     H71639   7.086   7.375   9.661  1.4866 -0.1854  0.3341
  531MOL0     H71640   7.034   7.210   9.676 -1.7416  0.9397 -0.3796
  531MOL0     H71641   7.187   7.332   9.440  1.5276  0.3159  0.4040
  531MOL0     H71642   7.136   7.161   9.447 -1.7487 -0.0733  1.1059
  531MOL0     H71643   7.279   7.136   9.655 -0.9196 -0.0511 -0.1324
  531MOL0     H71644   7.325   7.310   9.641 -0.9498 -0.8285  1.7175
  531MOL0     H71645   7.600   7.236   9.358 -3.9206 -0.0071  1.7466
  531MOL0     H71646   7.838   7.228   9.427 -1.4873  1.6107 -0.3868
  531MOL0     H71647   8.077   6.898   9.820 -0.7844  0.9852  0.4037
  531MOL0     H71648   8.315   6.846   9.829 -1.1992 -0.0216 -2.5945
  531MOL0     H71649   8.585   7.178   9.993  0.4731 -1.5732 -1.7408
  531MOL0     H71650   8.529   7.046  10.104 -1.5545 -0.2165 -0.4796
  531MOL0     H71651   8.723   6.901  10.031 -1.9391 -1.2270 -2.8571
  531MOL0     H71652   8.737   6.999   9.896 -0.8954  0.9463 -0.1123
  531MOL0     H71653   8.806   7.181  10.029  3.0382  1.2190  1.3346
  531MOL0     H71654   8.778   7.107  10.182 -1.0247 -1.0426  0.6325
  531MOL0     H71655   9.024   7.107  10.090  1.0255 -1.6883  1.7939
  531MOL0     H71656   8.971   6.999   9.957  2.2266 -0.5037  1.1454
  531MOL0     H71657   9.089   6.891  10.134 -0.3093  2.5223 -0.3265
  531MOL0     H71658   8.914   6.827  10.111 -2.2270  0.8168 -0.6456
  531MOL0     H71659   9.023   7.028  10.323  1.0358 -0.7911  1.5453
  531MOL0     H71660   8.859   6.961  10.309 -0.7719  2.4279 -2.4965
  531MOL0     H71661   9.121   6.822  10.400 -0.3245 -0.0587  4.2786
  531MOL0     H71662   8.985   6.737  10.322 -1.5688  1.7068 -1.3016
  531MOL0     H71663   8.957   6.930  10.559 -1.6008  0.0396  1.2355
  531MOL0     H71664   8.830   6.851  10.479 -0.4530 -0.5682 -1.0161
  531MOL0     H71665   8.387   7.255   9.942  0.7553 -1.0140  1.3744
  531MOL0     H71666   8.159   7.309   9.878 -0.4719  0.2725 -0.3831
  531MOL0     H71667   7.709   7.173   9.839 -1.3138  3.1690 -0.0724
  531MOL0     H71668   7.473   7.161   9.757 -0.5424 -1.0682  0.5518
  531MOL0     H71669   5.490   7.342   9.609 -0.3944  1.2217 -0.4448
  531MOL0     H71670   5.274   7.346   9.488  0.2218 -0.6622 -1.3657
  531MOL0     H71671   5.102   7.481   9.054  0.9734  2.6746  0.2840
  531MOL0     H71672   4.885   7.474   8.919  1.1939 -2.7418  0.6564
  531MOL0     H71673   4.662   7.434   8.895  0.5628  1.1755  0.9823
  531MOL0     H71674   4.720   7.583   8.806 -2.1286  1.8130 -1.4275
  531MOL0     H71675   4.435   7.537   8.889 -0.3328  0.7417  0.6313
  531MOL0     H71676   4.501   7.478   8.737  2.2949 -3.0442  2.5103
  531MOL0     H71677   4.565   7.742   8.716 -1.5948 -0.0931 -2.5849
  531MOL0     H71678   4.432   7.761   8.835  1.3895  0.6402 -0.4755
  531MOL0     H71679   4.393   7.623   8.555  0.7571  1.3269 -1.1622
  531MOL0     H71680   4.271   7.639   8.677 -2.4444  1.6062 -0.3305
  531MOL0     H71681   4.272   8.031   8.525 -3.3720 -1.1014  0.9111
  531MOL0     H71682   4.687   7.652   9.261  0.1725  0.1636  1.0510
  531MOL0     H71683   4.862   7.551   9.494  0.8126 -0.0766 -0.4054
  531MOL0     H71684   4.952   7.708   9.483  0.0897  0.8813  0.3028
  531MOL0     H71685   4.781   7.693   9.443  0.3376  1.6362 -1.5414
  532MOL0     O71686   0.514   8.461   0.813 -0.5257  0.1551  0.2286
  532MOL0     C71687   0.475   8.578   0.824 -0.4251  0.2798 -0.4813
  532MOL0     O71688   0.544   8.683   0.778 -0.0399  0.9040  0.1151
  532MOL0     C71689   0.653   8.666   0.700  1.2440 -0.6112  0.0818
  532MOL0     C71690   0.777   8.661   0.756  0.7942 -0.1306  0.5197
  532MOL0     C71691   0.885   8.679   0.677 -1.2590  0.4879 -0.1199
  532MOL0     C71692   0.873   8.691   0.538  0.4057 -0.1640  0.6002
  532MOL0     O71693   0.972   8.715   0.448 -0.1688 -0.0074 -0.5505
  532MOL0     C71694   1.062   8.825   0.485 -0.1892 -0.3307  0.0243
  532MOL0     C71695   1.186   8.792   0.574 -0.3909  0.3311 -0.5510
  532MOL0     C71696   1.221   8.646   0.587  0.5623 -0.1967 -0.1231
  532MOL0     C71697   1.256   8.570   0.460 -0.2022 -1.0937 -0.0664
  532MOL0     C71698   1.385   8.633   0.389  0.1921 -0.2721  0.5000
  532MOL0     C71699   1.505   8.613   0.483 -0.4624  0.0591 -0.0092
  532MOL0     C71700   1.635   8.631   0.406  0.7522 -0.2420 -0.2417
  532MOL0     C71701   1.650   8.768   0.360  0.5857 -0.2563  0.0304
  532MOL0     N71702   1.789   8.799   0.345 -0.3951  0.3588 -0.2740
  532MOL0     C71703   1.884   8.756   0.251 -0.1959 -0.0703 -0.3646
  532MOL0     C71704   1.999   8.819   0.277  1.2356 -0.9471 -0.3696
  532MOL0     C71705   2.117   8.800   0.187 -1.0637 -0.3007 -0.9068
  532MOL0     C71706   2.241   8.868   0.246  1.0105 -0.5652  0.6618
  532MOL0     C71707   2.363   8.846   0.156 -0.8512  0.4763  0.2703
  532MOL0     C71708   2.500   8.899   0.218  0.5734 -0.1769 -0.2988
  532MOL0     O71709   2.602   8.894   0.116 -0.0904  0.7151  0.3735
  532MOL0     C71710   2.727   8.937   0.156 -0.0013  0.0799 -0.3266
  532MOL0     C71711   2.757   8.999   0.283  0.7589  0.2740  0.4790
  532MOL0     C71712   2.889   9.040   0.308  1.2859  0.0576  0.1623
  532MOL0     C71713   2.990   9.002   0.213 -0.3285 -1.2057 -0.3721
  532MOL0     C71714   3.133   9.041   0.249  0.2635  0.8257  0.0254
  532MOL0     O71715   3.223   9.023   0.143  0.4319  0.3784 -0.0911
  532MOL0     C71716   3.355   9.069   0.151  0.5308  0.3230  0.4972
  532MOL0     C71717   3.392   9.173   0.231 -0.6532  0.7077 -0.1092
  532MOL0     C71718   3.523   9.208   0.234 -0.6210 -0.2001 -0.0495
  532MOL0     C71719   3.625   9.134   0.171 -0.3761 -0.0195  0.1239
  532MOL0     O71720   3.753   9.172   0.193 -0.4566  0.1627 -0.6292
  532MOL0     C71721   3.843   9.155   0.087  0.6983 -0.0924  0.8753
  532MOL0     C71722   3.973   9.202   0.145 -0.4924  0.1600 -0.1021
  532MOL0     C71723   4.098   9.193   0.051 -0.2083 -0.2013 -0.2974
  532MOL0     C71724   4.237   9.227   0.114 -0.3747  0.0247 -0.2470
  532MOL0     C71725   4.352   9.181   0.022 -0.1356  0.6343 -0.2288
  532MOL0     C71726   4.492   9.242   0.053  0.4456 -0.1665  0.6457
  532MOL0     C71727   4.579   9.205  -0.065 -0.2670 -0.1522 -0.7004
  532MOL0     C71728   4.722   9.199  -0.019  0.1042  0.8952  0.8149
  532MOL0    Cl71729   4.755   9.365   0.035  0.0873 -0.0433 -0.0402
  532MOL0     C71730   3.586   9.030   0.082 -0.0432  0.7217 -0.4025
  532MOL0     C71731   3.454   8.999   0.075  0.6696  1.1729 -0.5170
  532MOL0     O71732   3.157   9.085   0.362 -0.3504  0.0426 -0.2834
  532MOL0     C71733   2.961   8.928   0.102 -0.3055 -0.1181 -0.9854
  532MOL0     C71734   2.830   8.902   0.078  1.1512  0.2991  0.6474
  532MOL0     N71735   1.967   8.912   0.377  0.1918 -0.0586  0.4245
  532MOL0     N71736   1.846   8.897   0.417 -0.3224 -0.1428  0.0668
  532MOL0     C71737   0.748   8.684   0.478 -0.2859 -0.0861 -0.3043
  532MOL0     C71738   0.633   8.661   0.562  0.0161  0.1233  0.3701
  532MOL0     C71739   0.351   8.595   0.901 -0.2129  0.5344 -0.2534
  532MOL0     C71740   0.282   8.477   0.943  0.7865  0.2188  0.5899
  532MOL0     C71741   0.159   8.495   1.009  0.3244  0.1605  0.3292
  532MOL0     C71742   0.103   8.621   1.043 -0.9979 -0.4583  0.1279
  532MOL0     O71743  -0.021   8.636   1.094  0.0585 -0.5729  1.3175
  532MOL0     C71744  -0.067   8.532   1.177 -0.4374  0.4103 -0.0438
  532MOL0     C71745  -0.163   8.608   1.269 -1.3168  0.4050 -1.1347
  532MOL0     C71746  -0.288   8.639   1.194  0.1322 -0.3066 -1.1852
  532MOL0     C71747  -0.379   8.737   1.268  0.4951 -0.1038 -0.6662
  532MOL0     C71748  -0.504   8.731   1.190  0.2554  0.1650 -0.6946
  532MOL0     C71749  -0.615   8.740   1.143  0.1774 -0.5640  0.5027
  532MOL0     C71750   0.172   8.737   1.009 -0.9262 -0.3504  0.0581
  532MOL0     C71751   0.299   8.727   0.938 -0.4164 -0.2648  0.5829
  532MOL0     C71752   0.367   8.863   0.908 -0.1538 -0.0326  0.2556
  532MOL0     H71753   0.796   8.673   0.863 -0.0232  0.7294  0.5859
  532MOL0     H71754   0.981   8.688   0.728 -0.8809 -1.1066 -0.5091
  532MOL0     H71755   1.099   8.883   0.400  0.2298  0.4200  0.7108
  532MOL0     H71756   1.012   8.907   0.536  1.0936  1.1157 -0.9745
  532MOL0     H71757   1.166   8.825   0.677 -2.8878 -0.9094 -0.5617
  532MOL0     H71758   1.268   8.851   0.532  0.7835 -0.9440 -0.0899
  532MOL0     H71759   1.140   8.591   0.636 -0.7088  2.2036  0.6240
  532MOL0     H71760   1.308   8.639   0.653 -1.3316  3.6920  3.2479
  532MOL0     H71761   1.275   8.464   0.478  0.7478 -1.2157 -1.5361
  532MOL0     H71762   1.177   8.585   0.386  1.5282  1.1349 -1.6271
  532MOL0     H71763   1.399   8.586   0.292  2.8099  3.0492 -0.9256
  532MOL0     H71764   1.373   8.741   0.379  0.6389 -0.1921  0.7878
  532MOL0     H71765   1.495   8.677   0.571  0.3867 -1.8191  1.5181
  532MOL0     H71766   1.507   8.513   0.527  2.9934 -0.6936 -1.5627
  532MOL0     H71767   1.631   8.557   0.325  0.2224 -1.1308  0.5647
  532MOL0     H71768   1.717   8.600   0.472  0.1273 -1.0195  0.1979
  532MOL0     H71769   1.592   8.788   0.270 -1.1605 -0.0976  1.1382
  532MOL0     H71770   1.604   8.834   0.435 -0.9461 -0.3586 -0.7907
  532MOL0     H71771   1.866   8.676   0.179 -1.3693 -0.6893  0.5712
  532MOL0     H71772   2.128   8.692   0.177 -4.9664 -0.8732 -0.5305
  532MOL0     H71773   2.104   8.849   0.090 -0.8304  1.4222 -0.1172
  532MOL0     H71774   2.221   8.972   0.274  1.2272  0.2436 -1.9004
  532MOL0     H71775   2.260   8.814   0.339 -0.9386 -0.9280  0.8885
  532MOL0     H71776   2.341   8.892   0.060 -2.0357 -1.5193 -0.4841
  532MOL0     H71777   2.380   8.739   0.139  1.6793  0.8803 -0.1916
  532MOL0     H71778   2.523   8.834   0.303  1.1989  1.9914  1.2775
  532MOL0     H71779   2.493   9.002   0.254  1.4797  0.2293 -1.2257
  532MOL0     H71780   2.674   9.016   0.352 -0.7798 -0.0062 -1.2266
  532MOL0     H71781   2.906   9.098   0.398 -2.2897  1.8957 -0.1702
  532MOL0     H71782   3.322   9.234   0.287 -0.0342 -1.0560  2.7864
  532MOL0     H71783   3.561   9.284   0.302 -0.5835 -1.2466  1.1313
  532MOL0     H71784   3.864   9.055   0.050 -0.8016  0.1526 -0.7485
  532MOL0     H71785   3.820   9.216  -0.001  2.2548 -1.4728 -0.5623
  532MOL0     H71786   3.955   9.298   0.194 -2.4745 -1.4065  2.5433
  532MOL0     H71787   4.001   9.135   0.227 -2.7420  0.1972  0.7619
  532MOL0     H71788   4.093   9.091   0.013  0.7166 -0.6388  0.7191
  532MOL0     H71789   4.069   9.262  -0.029  0.2812 -2.8295 -2.9425
  532MOL0     H71790   4.243   9.171   0.208 -0.9051  3.3714  1.9358
  532MOL0     H71791   4.244   9.336   0.120 -0.6124  0.0089  0.3180
  532MOL0     H71792   4.321   9.217  -0.077 -0.2107  5.7317  1.3667
  532MOL0     H71793   4.357   9.073   0.007 -0.6301  0.6389 -0.4517
  532MOL0     H71794   4.480   9.351   0.057  0.6632 -0.1373  0.5364
  532MOL0     H71795   4.533   9.210   0.150  0.2849 -1.8378  0.2018
  532MOL0     H71796   4.569   9.279  -0.144  0.4182 -0.5053 -1.1281
  532MOL0     H71797   4.557   9.106  -0.106  2.4238  0.0080 -2.7579
  532MOL0     H71798   4.730   9.119   0.056  1.5197 -1.5626 -1.7441
  532MOL0     H71799   4.794   9.169  -0.096  0.1911  0.2774  1.1241
  532MOL0     H71800   3.667   8.992   0.022  1.3537 -0.5105  2.0989
  532MOL0     H71801   3.424   8.919   0.007 -2.6885 -0.5329  2.6317
  532MOL0     H71802   3.044   8.896   0.039 -0.9793 -3.0683 -0.4966
  532MOL0     H71803   2.815   8.852  -0.017 -0.4636  1.1721  0.4017
  532MOL0     H71804   0.737   8.705   0.372  1.3525  3.6109  0.1033
  532MOL0     H71805   0.533   8.664   0.520 -0.9198  1.1235  2.5371
  532MOL0     H71806   0.320   8.376   0.930  1.2694  0.6396 -1.6016
  532MOL0     H71807   0.102   8.406   1.033  1.2440 -0.0510  1.8912
  532MOL0     H71808   0.014   8.483   1.232  0.2353 -1.5301 -2.5655
  532MOL0     H71809  -0.121   8.456   1.120  1.0701  0.9134 -2.2679
  532MOL0     H71810  -0.125   8.700   1.313  1.4818 -0.9354 -0.5706
  532MOL0     H71811  -0.184   8.548   1.357 -1.7785  1.8166 -0.2410
  532MOL0     H71812  -0.338   8.542   1.180 -1.5910  0.4598 -0.6637
  532MOL0     H71813  -0.261   8.681   1.097  2.0330  0.2768 -0.4319
  532MOL0     H71814  -0.385   8.705   1.372 -1.1199 -0.6258 -0.8909
  532MOL0     H71815  -0.341   8.838   1.285 -1.6619  0.3433  2.2179
  532MOL0     H71816  -0.712   8.754   1.099  1.0530  0.8004 -1.0962
  532MOL0     H71817   0.131   8.834   1.036 -1.2092 -0.1798 -0.9616
  532MOL0     H71818   0.356   8.879   0.801 -0.7701 -4.9252 -0.6243
  532MOL0     H71819   0.322   8.946   0.965  1.7510  0.0806  1.6857
  532MOL0     H71820   0.471   8.867   0.942 -0.2758  0.7841  0.5851
  533MOL0     O71821   5.101   9.970   8.100  0.2890 -0.4036  0.1502
  533MOL0     C71822   5.153  10.027   8.201 -0.4227  0.1587  0.4653
  533MOL0     O71823   5.078  10.068   8.307  0.5284  0.3120 -0.1111
  533MOL0     C71824   4.942  10.063   8.293 -0.0453  0.4711 -0.3191
  533MOL0     C71825   4.866   9.941   8.315  0.3170 -0.7062  0.3864
  533MOL0     C71826   4.724   9.940   8.303 -1.5841 -0.1950 -0.8197
  533MOL0     C71827   4.657  10.058   8.274 -0.7103  0.5271  0.3442
  533MOL0     O71828   4.516  10.052   8.280 -0.0684 -1.1767 -0.1981
  533MOL0     C71829   4.474  10.161   8.362  0.3531  0.0311 -0.1859
  533MOL0     C71830   4.326  10.145   8.385 -0.6073 -0.7229  0.6558
  533MOL0     C71831   4.284  10.022   8.461 -0.9788 -0.1558 -0.3850
  533MOL0     C71832   4.132  10.030   8.497 -0.4036 -0.0128 -1.1534
  533MOL0     C71833   4.039  10.057   8.378  0.1066  0.5553  0.1259
  533MOL0     C71834   3.898  10.071   8.421  0.6750 -0.9546 -0.2063
  533MOL0     C71835   3.793  10.099   8.316 -0.8976  1.0535 -0.4793
  533MOL0     C71836   3.655  10.107   8.383  0.2830 -0.4141  0.0234
  533MOL0     N71837   3.636  10.247   8.433 -0.3651 -1.0936  0.3586
  533MOL0     C71838   3.628  10.352   8.341 -1.4004 -0.1816 -1.0694
  533MOL0     C71839   3.629  10.466   8.418 -0.1014  0.2200 -0.3988
  533MOL0     C71840   3.649  10.594   8.358  0.3103  0.0820  0.6958
  533MOL0     C71841   3.782  10.662   8.401  0.0808 -0.2802  0.0996
  533MOL0     C71842   3.803  10.795   8.333 -0.6091  0.0448 -0.6435
  533MOL0     C71843   3.846  10.779   8.188 -0.1168  0.3682 -0.0545
  533MOL0     O71844   3.915  10.891   8.127 -0.3115  0.1866 -0.0591
  533MOL0     C71845   4.040  10.920   8.171 -0.0771  0.0094 -0.8644
  533MOL0     C71846   4.108  11.010   8.093 -0.9889  0.2272  0.3960
  533MOL0     C71847   4.244  11.040   8.097  0.2893  0.0214  0.1006
  533MOL0     C71848   4.322  10.974   8.194  0.2098  0.5663  0.3987
  533MOL0     C71849   4.470  10.984   8.185 -0.0452 -0.6118  0.0719
  533MOL0     O71850   4.551  10.873   8.185 -0.6251  0.3669 -0.5208
  533MOL0     C71851   4.685  10.896   8.177 -0.9361  0.0874  0.0509
  533MOL0     C71852   4.753  10.954   8.066  0.1974  0.1510  0.7506
  533MOL0     C71853   4.892  10.974   8.073 -0.7252  0.5187  0.5262
  533MOL0     C71854   4.966  10.953   8.197  1.6479  0.2250  0.1094
  533MOL0     O71855   5.097  10.984   8.188 -0.4260 -0.5791  0.3491
  533MOL0     C71856   5.180  10.972   8.306 -0.8346  0.3089 -0.5110
  533MOL0     C71857   5.329  10.952   8.268  0.5207 -0.0850 -0.7131
  533MOL0     C71858   5.413  10.950   8.398  0.2013  0.0379  0.0177
  533MOL0     C71859   5.565  10.965   8.384 -0.3667 -0.3593  0.4063
  533MOL0     C71860   5.643  10.968   8.516  0.1419  0.0002  0.1433
  533MOL0     C71861   5.788  10.959   8.473  0.0856 -0.0883  0.5314
  533MOL0     C71862   5.875  10.979   8.600 -0.7085  0.0635 -0.5463
  533MOL0     C71863   6.024  10.987   8.576  0.1927  0.1400 -0.5104
  533MOL0    Cl71864   6.122  11.018   8.726 -0.2966 -0.4315  0.0587
  533MOL0     C71865   4.901  10.907   8.310 -0.2392  0.3366  0.5274
  533MOL0     C71866   4.764  10.876   8.303  0.1797  0.3061 -0.3587
  533MOL0     O71867   4.514  11.100   8.185  0.9384  0.2771 -0.6356
  533MOL0     C71868   4.257  10.892   8.282  0.2653  0.5153 -0.1528
  533MOL0     C71869   4.121  10.860   8.276 -0.5563  0.0379  0.0318
  533MOL0     N71870   3.623  10.427   8.556 -0.7108  0.4844 -0.2747
  533MOL0     N71871   3.632  10.298   8.561 -0.1210  0.6191  0.4557
  533MOL0     C71872   4.728  10.177   8.241 -0.3590  0.3407 -1.3377
  533MOL0     C71873   4.875  10.176   8.251  0.0329 -0.7781  0.5564
  533MOL0     C71874   5.297  10.062   8.201  0.9379  0.5549 -0.0629
  533MOL0     C71875   5.364  10.102   8.315 -0.0699  0.3799 -0.2077
  533MOL0     C71876   5.491  10.136   8.315 -0.1235 -0.1940 -0.4183
  533MOL0     C71877   5.568  10.139   8.202 -0.8837 -0.8658  0.9941
  533MOL0     O71878   5.700  10.184   8.215  0.2412  0.2641  0.3290
  533MOL0     C71879   5.795  10.188   8.113 -0.0527 -0.1049 -0.0220
  533MOL0     C71880   5.914  10.274   8.155 -0.1800 -0.2826 -0.2331
  533MOL0     C71881   6.011  10.279   8.034 -0.0177  0.6844 -0.8248
  533MOL0     C71882   6.125  10.369   8.052 -0.5662 -0.0973 -0.3691
  533MOL0     C71883   6.183  10.412   7.927 -0.5970 -0.4801  0.0567
  533MOL0     C71884   6.233  10.447   7.828  0.1304 -0.1430 -0.2039
  533MOL0     C71885   5.515  10.096   8.084 -0.1933 -0.3112  0.2407
  533MOL0     C71886   5.376  10.057   8.083  0.4251  0.4241 -0.4814
  533MOL0     C71887   5.317  10.025   7.950  0.6329  0.3952 -0.2126
  533MOL0     H71888   4.910   9.847   8.345 -0.3347 -0.9675  0.5332
  533MOL0     H71889   4.675   9.845   8.320 -0.7115 -1.1045 -2.9548
  533MOL0     H71890   4.528  10.188   8.454  0.0586  0.5176 -0.1510
  533MOL0     H71891   4.484  10.250   8.298 -1.0495  0.6186  0.3638
  533MOL0     H71892   4.295  10.143   8.279 -0.4993  0.6278  0.5775
  533MOL0     H71893   4.286  10.239   8.426  1.8831  0.6475  0.1257
  533MOL0     H71894   4.340  10.012   8.555 -2.4529  0.5971  0.6185
  533MOL0     H71895   4.309   9.933   8.404  0.4893  1.2785 -2.0980
  533MOL0     H71896   4.107   9.939   8.552 -0.8549  1.5729  1.4461
  533MOL0     H71897   4.108  10.114   8.563  0.4419 -0.3999 -0.3336
  533MOL0     H71898   4.070  10.147   8.324  1.7896 -1.6207 -2.8740
  533MOL0     H71899   4.065   9.972   8.314  0.4812 -0.2827  1.3571
  533MOL0     H71900   3.880   9.972   8.463 -0.2991 -0.7119 -0.0275
  533MOL0     H71901   3.888  10.150   8.496 -0.1309 -0.9601 -0.2909
  533MOL0     H71902   3.784  10.012   8.250  0.8739 -0.6969  1.4304
  533MOL0     H71903   3.833  10.182   8.257  1.1786  0.8316  0.4917
  533MOL0     H71904   3.574  10.082   8.314  0.0839 -2.8282  1.0396
  533MOL0     H71905   3.650  10.035   8.466  0.3833  0.0524  0.4405
  533MOL0     H71906   3.647  10.345   8.235 -1.1954 -3.7164 -0.9429
  533MOL0     H71907   3.659  10.575   8.250  0.0508 -0.1179  0.7083
  533MOL0     H71908   3.569  10.668   8.367  1.3585  1.7061 -1.9638
  533MOL0     H71909   3.776  10.674   8.510 -0.8928  1.4877 -0.1199
  533MOL0     H71910   3.868  10.602   8.369 -1.9111 -3.0174 -0.5480
  533MOL0     H71911   3.883  10.839   8.393  0.7973  0.1610 -2.4984
  533MOL0     H71912   3.711  10.853   8.339  0.5400  1.7827  1.6034
  533MOL0     H71913   3.760  10.755   8.125  1.1770  1.0373 -2.1809
  533MOL0     H71914   3.909  10.690   8.186 -1.3269 -0.5478  0.6479
  533MOL0     H71915   4.049  11.052   8.012  0.1669  1.7149  0.2736
  533MOL0     H71916   4.268  11.105   8.014  3.2071  1.1611  1.6926
  533MOL0     H71917   4.694  10.978   7.978 -1.1516  2.7078  2.2482
  533MOL0     H71918   4.946  11.016   7.988 -2.2254  0.1066 -0.6856
  533MOL0     H71919   5.182  11.064   8.364  0.6865 -0.3775  0.5867
  533MOL0     H71920   5.142  10.892   8.371 -0.1151  0.9820  0.7671
  533MOL0     H71921   5.343  10.858   8.213  3.0439 -0.0213 -0.2837
  533MOL0     H71922   5.361  11.033   8.201 -2.2609  0.7224 -1.2158
  533MOL0     H71923   5.385  11.032   8.464 -3.4442 -0.8828 -0.1907
  533MOL0     H71924   5.400  10.860   8.460 -3.1560  1.4110  1.5710
  533MOL0     H71925   5.591  11.054   8.326  0.1813  0.6954  2.2049
  533MOL0     H71926   5.609  10.884   8.325  2.7074  1.7031 -0.3703
  533MOL0     H71927   5.605  10.898   8.592 -2.5083  2.4879  1.3485
  533MOL0     H71928   5.631  11.070   8.555 -2.0979  1.2926 -3.4230
  533MOL0     H71929   5.800  10.858   8.433  0.2933 -0.0911  0.5991
  533MOL0     H71930   5.815  11.030   8.395 -0.5913  0.2281  0.5786
  533MOL0     H71931   5.853  10.898   8.671  1.4379  0.2194  0.3813
  533MOL0     H71932   5.859  11.073   8.654 -0.1919 -1.1954  1.9510
  533MOL0     H71933   6.061  10.891   8.538 -0.4214 -0.2130 -0.2380
  533MOL0     H71934   6.052  11.060   8.499  2.0641 -2.5421 -2.6051
  533MOL0     H71935   4.944  10.892   8.409 -1.8029 -2.9152  0.8621
  533MOL0     H71936   4.716  10.841   8.394 -0.3528 -1.2333 -1.2044
  533MOL0     H71937   4.321  10.834   8.349 -0.8251 -0.7461 -0.1596
  533MOL0     H71938   4.085  10.783   8.344  2.3262 -1.4192  0.0340
  533MOL0     H71939   4.684  10.272   8.216  1.8339  1.1272 -2.5438
  533MOL0     H71940   4.942  10.260   8.243  1.0386 -1.5774  0.3441
  533MOL0     H71941   5.304  10.103   8.405  0.3490 -1.4623  0.1223
  533MOL0     H71942   5.541  10.164   8.407 -1.1008  1.7381 -0.4326
  533MOL0     H71943   5.746  10.238   8.029 -1.6024 -3.3092 -1.1951
  533MOL0     H71944   5.815  10.087   8.074 -0.1454 -0.5171  0.9648
  533MOL0     H71945   5.955  10.225   8.244  0.7911  0.3103 -0.3407
  533MOL0     H71946   5.885  10.377   8.177 -5.2967 -1.0333 -2.2239
  533MOL0     H71947   5.954  10.324   7.952 -0.3582 -0.0897 -1.0211
  533MOL0     H71948   6.061  10.184   8.015  1.3789  0.9688  1.1153
  533MOL0     H71949   6.095  10.452   8.117 -0.4964  0.1965 -0.7067
  533MOL0     H71950   6.199  10.314   8.112 -2.6846 -3.6834 -0.8037
  533MOL0     H71951   6.289  10.481   7.743  1.3135 -0.7504  0.3050
  533MOL0     H71952   5.571  10.088   7.991 -1.5450 -0.4929 -0.5824
  533MOL0     H71953   5.242  10.098   7.919  1.9547  1.9540  0.1225
  533MOL0     H71954   5.390  10.035   7.869  0.1650  0.9494 -0.5700
  533MOL0     H71955   5.285   9.920   7.947  1.9472 -0.0209 -2.9119
  534MOL0     O71956   1.152   2.729   3.106 -0.6972  0.4026 -0.5744
  534MOL0     C71957   1.118   2.613   3.072  0.5508 -0.8539  0.1112
  534MOL0     O71958   1.176   2.550   2.968 -0.0752 -0.1821  0.0658
  534MOL0     C71959   1.285   2.610   2.905 -0.6141 -0.9281  0.7633
  534MOL0     C71960   1.408   2.581   2.951  0.2117  0.0957 -0.5024
  534MOL0     C71961   1.521   2.617   2.889  0.1502 -1.1794  0.3799
  534MOL0     C71962   1.510   2.692   2.768 -1.0886  0.1323  0.6736
  534MOL0     O71963   1.626   2.748   2.712  0.1960 -0.2598  0.1827
  534MOL0     C71964   1.639   2.728   2.567  0.3613  0.1906  1.1067
  534MOL0     C71965   1.695   2.589   2.548 -0.2225  1.0230  0.1026
  534MOL0     C71966   1.730   2.581   2.396  0.3253 -0.0627 -0.2484
  534MOL0     C71967   1.758   2.437   2.367 -0.1590  0.1795 -0.2368
  534MOL0     C71968   1.854   2.423   2.250 -0.5026 -0.0372 -0.6236
  534MOL0     C71969   1.879   2.284   2.202  0.8172  0.3291 -0.0807
  534MOL0     C71970   2.002   2.270   2.104  0.1308  0.3910 -0.5122
  534MOL0     C71971   2.136   2.314   2.163  0.2219  0.2015 -0.1674
  534MOL0     N71972   2.176   2.233   2.279  0.3095 -0.0861  0.8283
  534MOL0     C71973   2.200   2.102   2.282  0.0476  0.3581 -0.1866
  534MOL0     C71974   2.220   2.068   2.409  0.8701  1.1859  0.1248
  534MOL0     C71975   2.249   1.917   2.447  0.7562 -0.8330  0.0186
  534MOL0     C71976   2.114   1.862   2.496 -0.0903  0.7063 -0.7318
  534MOL0     C71977   2.130   1.710   2.537  0.1938  0.1880  0.1525
  534MOL0     C71978   1.991   1.654   2.565  0.5955  0.3958 -0.5327
  534MOL0     O71979   1.921   1.654   2.442 -0.0001  0.1970 -0.4423
  534MOL0     C71980   1.784   1.643   2.451 -0.2715  1.0808  0.2116
  534MOL0     C71981   1.718   1.656   2.324 -0.8358 -0.2928  0.3227
  534MOL0     C71982   1.582   1.640   2.318 -0.8435  0.9348 -0.3707
  534MOL0     C71983   1.499   1.612   2.434 -0.7466 -0.6608  0.6088
  534MOL0     C71984   1.353   1.608   2.423 -0.3857 -0.2654 -0.7259
  534MOL0     O71985   1.300   1.561   2.541  0.0337  0.0329  0.0801
  534MOL0     C71986   1.168   1.587   2.561  0.5117  0.2533  0.4059
  534MOL0     C71987   1.127   1.717   2.561  0.3034  0.3615  0.2072
  534MOL0     C71988   0.993   1.744   2.586  0.9875 -0.2460 -1.2604
  534MOL0     C71989   0.890   1.653   2.604 -0.4130 -0.2033 -0.4083
  534MOL0     O71990   0.770   1.708   2.652 -0.7649 -0.1384 -0.4356
  534MOL0     C71991   0.647   1.637   2.632 -0.6729 -0.0018  0.4522
  534MOL0     C71992   0.533   1.729   2.664 -0.5235 -0.2571  0.7791
  534MOL0     C71993   0.393   1.665   2.657  0.3959  0.3245  1.2024
  534MOL0     C71994   0.276   1.766   2.663 -0.1494 -0.3588  0.1507
  534MOL0     C71995   0.142   1.702   2.667  1.0085  0.9010 -0.1917
  534MOL0     C71996   0.081   1.652   2.530 -0.0784  0.2147 -0.0181
  534MOL0     C71997  -0.054   1.710   2.504  0.1623  0.2722 -0.3084
  534MOL0     C71998  -0.169   1.663   2.602  0.1529 -0.4362  0.2690
  534MOL0    Cl71999  -0.327   1.732   2.559  0.3852  0.1449 -0.1686
  534MOL0     C72000   0.927   1.518   2.593 -0.0016 -0.4322  0.6465
  534MOL0     C72001   1.065   1.488   2.569  0.0393 -0.1919 -0.3914
  534MOL0     O72002   1.290   1.644   2.327  0.3609 -0.0244 -0.2795
  534MOL0     C72003   1.571   1.587   2.555 -0.5239 -0.1389 -0.0353
  534MOL0     C72004   1.704   1.602   2.566 -0.3532 -0.4691  0.1444
  534MOL0     N72005   2.221   2.180   2.487  0.2682 -0.3980 -1.0319
  534MOL0     N72006   2.181   2.272   2.407 -0.5032 -0.6065 -0.3715
  534MOL0     C72007   1.383   2.734   2.722  0.0863  0.6063  0.1451
  534MOL0     C72008   1.273   2.693   2.797  0.7952  0.1436 -0.5915
  534MOL0     C72009   0.999   2.545   3.117  0.2916  1.0234  0.3294
  534MOL0     C72010   0.935   2.441   3.044  0.2039 -1.3828 -0.7839
  534MOL0     C72011   0.824   2.373   3.095 -0.3003 -0.1836 -0.3192
  534MOL0     C72012   0.782   2.388   3.231 -0.7690 -0.6261  0.2771
  534MOL0     O72013   0.671   2.310   3.262 -0.4765  0.2129  0.3659
  534MOL0     C72014   0.608   2.352   3.386 -0.6092 -0.1133  0.1099
  534MOL0     C72015   0.536   2.485   3.379 -0.7819  0.4121  0.6910
  534MOL0     C72016   0.468   2.498   3.516 -0.2578  0.0012  0.4105
  534MOL0     C72017   0.355   2.601   3.512 -0.6243 -0.1211 -0.0300
  534MOL0     C72018   0.219   2.536   3.510 -0.1992 -0.2889  0.5412
  534MOL0     C72019   0.108   2.491   3.517 -0.2195 -0.2845  0.4167
  534MOL0     C72020   0.847   2.487   3.306  0.2528  0.0282 -0.2220
  534MOL0     C72021   0.955   2.558   3.250 -0.1026  0.1909 -0.2477
  534MOL0     C72022   1.015   2.650   3.348 -0.0471 -0.7890 -0.2958
  534MOL0     H72023   1.413   2.532   3.048  0.5043 -2.8929 -1.9350
  534MOL0     H72024   1.620   2.588   2.923 -0.8876 -2.5651  2.4497
  534MOL0     H72025   1.541   2.752   2.523 -0.5229 -1.3223  2.1545
  534MOL0     H72026   1.707   2.808   2.538 -0.8465 -0.0038 -2.7723
  534MOL0     H72027   1.631   2.510   2.586  3.2731 -1.0509  2.2456
  534MOL0     H72028   1.781   2.590   2.615 -1.5130  2.9805  1.8566
  534MOL0     H72029   1.812   2.650   2.377 -0.5162  1.2840  0.8450
  534MOL0     H72030   1.651   2.603   2.324  1.4196  1.7680 -0.9330
  534MOL0     H72031   1.801   2.393   2.457  1.5970  2.0602 -0.0978
  534MOL0     H72032   1.664   2.384   2.348 -0.6934  0.4415  1.4849
  534MOL0     H72033   1.812   2.484   2.170  1.2384  1.0319 -0.7791
  534MOL0     H72034   1.947   2.464   2.290 -0.7404  1.4585 -1.5531
  534MOL0     H72035   1.892   2.212   2.283  0.7088  1.7886  1.2802
  534MOL0     H72036   1.793   2.249   2.144 -0.6192  0.3973  1.8673
  534MOL0     H72037   1.982   2.314   2.006 -2.0238 -0.2456 -0.4241
  534MOL0     H72038   2.012   2.163   2.085  0.5542  0.2365  0.5292
  534MOL0     H72039   2.209   2.300   2.082 -0.7971 -1.3246 -0.8687
  534MOL0     H72040   2.137   2.418   2.195  2.8089  0.2099 -0.0562
  534MOL0     H72041   2.186   2.030   2.202 -0.9813 -3.7448  3.3142
  534MOL0     H72042   2.287   1.858   2.364 -0.6230 -1.9060  0.1061
  534MOL0     H72043   2.327   1.911   2.523 -0.1189  2.1642  1.2888
  534MOL0     H72044   2.073   1.917   2.582  0.3323  0.7118 -0.5336
  534MOL0     H72045   2.036   1.868   2.419 -3.1801 -3.2170  1.7024
  534MOL0     H72046   2.190   1.697   2.628  0.4358  1.1074  0.1298
  534MOL0     H72047   2.182   1.662   2.453  0.8682  3.8414 -1.7391
  534MOL0     H72048   1.940   1.712   2.644  1.1478 -0.2271  0.2987
  534MOL0     H72049   2.005   1.554   2.605 -0.8866  0.6876  0.8601
  534MOL0     H72050   1.768   1.696   2.236 -0.9849 -1.2377 -0.1982
  534MOL0     H72051   1.537   1.659   2.221  0.9345  0.3448 -1.3576
  534MOL0     H72052   1.204   1.793   2.552 -0.1594  0.8970  0.7290
  534MOL0     H72053   0.970   1.847   2.608  1.2825 -0.3162 -0.6089
  534MOL0     H72054   0.641   1.601   2.529  0.0455 -1.2789  0.8309
  534MOL0     H72055   0.657   1.547   2.694  4.2766 -0.5833 -0.7019
  534MOL0     H72056   0.549   1.790   2.753 -0.4506  1.9036 -0.6422
  534MOL0     H72057   0.531   1.803   2.584 -1.8336  0.0726  1.1020
  534MOL0     H72058   0.388   1.621   2.557 -3.9541  1.5111  0.6835
  534MOL0     H72059   0.375   1.587   2.732 -0.0922 -0.0625  0.6894
  534MOL0     H72060   0.281   1.835   2.579 -1.5838 -0.2268  0.1385
  534MOL0     H72061   0.286   1.797   2.767  1.4273 -1.4237  0.3470
  534MOL0     H72062   0.081   1.781   2.713  3.4327  1.8587  1.5927
  534MOL0     H72063   0.140   1.618   2.737 -0.2517  0.6365 -0.5291
  534MOL0     H72064   0.143   1.677   2.444 -0.6225 -1.6505 -1.0046
  534MOL0     H72065   0.074   1.543   2.528 -0.7688  0.2673 -1.2552
  534MOL0     H72066  -0.080   1.670   2.405 -1.6394  1.4807 -0.3752
  534MOL0     H72067  -0.040   1.818   2.501  2.3028  0.0299 -1.2102
  534MOL0     H72068  -0.182   1.555   2.605 -1.8098 -0.3694 -2.1584
  534MOL0     H72069  -0.152   1.687   2.707  0.0513  0.4551  0.0956
  534MOL0     H72070   0.849   1.443   2.592  0.4539 -0.9677  2.5091
  534MOL0     H72071   1.081   1.382   2.552 -2.0254 -0.4849 -0.8434
  534MOL0     H72072   1.527   1.564   2.651 -0.0739  1.3421  0.5381
  534MOL0     H72073   1.751   1.588   2.662  0.6304  1.1074 -0.0688
  534MOL0     H72074   1.374   2.815   2.650  0.0206  0.2800 -0.2225
  534MOL0     H72075   1.172   2.722   2.769 -0.2465 -0.9013  1.8202
  534MOL0     H72076   0.972   2.429   2.943  3.3855  0.9093 -0.0563
  534MOL0     H72077   0.772   2.301   3.033  0.2662 -0.0497 -0.9600
  534MOL0     H72078   0.684   2.355   3.465  0.0911  0.4960 -0.5747
  534MOL0     H72079   0.544   2.269   3.417 -1.1934 -0.0454 -0.9086
  534MOL0     H72080   0.468   2.484   3.294 -0.1016 -0.5008  0.1302
  534MOL0     H72081   0.605   2.568   3.364  0.6394 -1.0642 -1.5417
  534MOL0     H72082   0.539   2.547   3.584 -1.3622 -0.3013  1.8224
  534MOL0     H72083   0.442   2.398   3.553 -1.3977 -0.1726 -0.7852
  534MOL0     H72084   0.350   2.652   3.609 -2.5006 -2.4095  1.1743
  534MOL0     H72085   0.378   2.677   3.437 -1.3803 -0.7916 -0.9604
  534MOL0     H72086   0.013   2.447   3.495  0.0166 -0.4600 -0.2961
  534MOL0     H72087   0.816   2.515   3.406 -0.2305  1.2360 -0.6879
  534MOL0     H72088   0.981   2.639   3.451 -2.3327 -0.4577 -0.9735
  534MOL0     H72089   1.124   2.638   3.358 -0.0218  0.7003  2.2129
  534MOL0     H72090   0.988   2.755   3.332  0.2237 -0.7797 -0.7113
  535MOL0     O72091   5.260   8.026   1.166  0.0100 -0.1540  0.2652
  535MOL0     C72092   5.217   8.052   1.278 -0.2863 -0.1896 -0.3325
  535MOL0     O72093   5.282   8.024   1.394  0.0156  0.0790 -0.3033
  535MOL0     C72094   5.418   7.998   1.388  0.0631  0.3474 -0.6010
  535MOL0     C72095   5.511   8.093   1.418  0.0677  0.3556  0.1544
  535MOL0     C72096   5.640   8.063   1.430 -0.1050 -0.1003  0.4161
  535MOL0     C72097   5.692   7.936   1.419  0.5033 -0.2672 -0.1961
  535MOL0     O72098   5.821   7.896   1.442  0.3200 -0.5887  0.4421
  535MOL0     C72099   5.909   8.004   1.464 -0.0443  0.2845  0.0912
  535MOL0     C72100   6.043   7.937   1.466  0.0934 -0.6378  0.1717
  535MOL0     C72101   6.102   7.895   1.605  0.1997 -0.0107  0.2061
  535MOL0     C72102   6.245   7.859   1.587 -0.2849  0.1986 -0.3145
  535MOL0     C72103   6.305   7.772   1.701  0.2111  0.2328  0.0899
  535MOL0     C72104   6.458   7.787   1.702  0.7459  0.2459 -0.0611
  535MOL0     C72105   6.543   7.714   1.810  0.4192 -0.0518 -0.1918
  535MOL0     C72106   6.695   7.729   1.795 -0.0728 -0.0941 -0.8442
  535MOL0     N72107   6.756   7.643   1.901 -0.6850 -0.1728  0.2100
  535MOL0     C72108   6.791   7.512   1.874 -0.4856 -0.1308  0.1379
  535MOL0     C72109   6.870   7.483   1.977  0.7183  0.9991 -0.5052
  535MOL0     C72110   6.948   7.350   1.980 -0.2858 -1.1966  0.1320
  535MOL0     C72111   7.085   7.379   1.923  0.0951  0.7795 -0.4199
  535MOL0     C72112   7.187   7.401   2.028 -0.2081 -0.3167 -0.4597
  535MOL0     C72113   7.308   7.476   1.979  0.5600  0.5887  0.1629
  535MOL0     O72114   7.388   7.401   1.887  0.2962 -0.2548 -0.2679
  535MOL0     C72115   7.519   7.445   1.879 -0.1610 -0.5532  0.6978
  535MOL0     C72116   7.604   7.369   1.798 -0.6104 -0.3029  1.4025
  535MOL0     C72117   7.742   7.400   1.780 -0.0412 -0.2689  0.6050
  535MOL0     C72118   7.796   7.511   1.848 -0.5181  0.0184  0.1652
  535MOL0     C72119   7.943   7.545   1.832  0.8065  0.4106 -0.1459
  535MOL0     O72120   8.006   7.647   1.892  0.5473 -0.5859 -0.6156
  535MOL0     C72121   8.142   7.648   1.899  0.5761  0.0668  0.3729
  535MOL0     C72122   8.228   7.652   1.785 -0.0204 -0.5673  0.7210
  535MOL0     C72123   8.366   7.635   1.799 -0.0755  0.0162  0.0119
  535MOL0     C72124   8.423   7.613   1.925  0.8558  0.2462  0.1610
  535MOL0     O72125   8.554   7.591   1.953 -0.3207 -0.6285  0.2075
  535MOL0     C72126   8.654   7.607   1.851 -0.0129  0.8391  0.4457
  535MOL0     C72127   8.698   7.756   1.840  1.0303  0.2990 -0.1144
  535MOL0     C72128   8.827   7.764   1.764 -0.9479  0.2479  0.0734
  535MOL0     C72129   8.815   7.701   1.624 -0.0075 -0.2095 -0.2947
  535MOL0     C72130   8.950   7.736   1.559  0.5012  0.1580 -0.5718
  535MOL0     C72131   9.056   7.625   1.584  0.8317  0.5145  0.2005
  535MOL0     C72132   9.192   7.658   1.522 -0.8192 -0.3517 -0.5827
  535MOL0     C72133   9.305   7.610   1.609 -0.4097 -0.2766 -0.0670
  535MOL0    Cl72134   9.445   7.617   1.498  0.1184 -0.4711  0.4034
  535MOL0     C72135   8.336   7.608   2.034 -0.0123 -0.0664 -0.2422
  535MOL0     C72136   8.195   7.625   2.030 -0.3826 -0.9419  0.0885
  535MOL0     O72137   8.006   7.462   1.764  0.4144 -0.0067  0.0846
  535MOL0     C72138   7.710   7.588   1.928 -0.5533  0.2410  0.7783
  535MOL0     C72139   7.572   7.558   1.945 -0.6439 -0.2433 -0.2132
  535MOL0     N72140   6.855   7.577   2.078 -0.3535 -0.0269  0.5910
  535MOL0     N72141   6.798   7.683   2.029  0.1215 -0.1827 -0.9706
  535MOL0     C72142   5.594   7.835   1.380 -0.2871  0.2722  0.7428
  535MOL0     C72143   5.462   7.870   1.360  0.0786 -0.4396 -0.1986
  535MOL0     C72144   5.081   8.107   1.289  0.1662  0.5857  0.3303
  535MOL0     C72145   5.061   8.212   1.376 -0.0765  0.1003 -0.7191
  535MOL0     C72146   4.928   8.257   1.404 -0.2114 -0.2362 -0.6157
  535MOL0     C72147   4.816   8.204   1.351  0.8342  0.2328  0.1361
  535MOL0     O72148   4.694   8.252   1.395 -0.1354 -0.3873 -0.2258
  535MOL0     C72149   4.568   8.230   1.321 -0.6244  0.4141 -0.4925
  535MOL0     C72150   4.467   8.319   1.403  0.0567 -0.0438 -0.8316
  535MOL0     C72151   4.335   8.329   1.324  0.2452  0.6082  0.0341
  535MOL0     C72152   4.220   8.395   1.393 -0.5595  0.0495 -0.1640
  535MOL0     C72153   4.101   8.399   1.303  0.2292 -1.0650 -0.3197
  535MOL0     C72154   4.010   8.394   1.220  0.2686  0.5607 -1.0879
  535MOL0     C72155   4.836   8.099   1.263 -1.0941  0.1433 -0.0188
  535MOL0     C72156   4.961   8.055   1.223  0.3835  0.2702  0.2556
  535MOL0     C72157   4.975   7.937   1.122 -0.6470  0.9152 -0.3994
  535MOL0     H72158   5.490   8.200   1.419  2.3557  0.8653  1.2632
  535MOL0     H72159   5.703   8.148   1.454 -0.8301  0.3747  0.6750
  535MOL0     H72160   5.910   8.083   1.388  1.9308  0.7856  0.5778
  535MOL0     H72161   5.886   8.052   1.560  1.4584 -1.1951  1.2576
  535MOL0     H72162   6.119   8.005   1.427 -0.9988  0.2281 -0.5001
  535MOL0     H72163   6.037   7.845   1.408  0.9293 -0.2940 -0.4903
  535MOL0     H72164   6.031   7.827   1.653 -1.8299  1.9427  0.1496
  535MOL0     H72165   6.096   7.984   1.668  1.4647  0.1038  0.1782
  535MOL0     H72166   6.266   7.801   1.497 -0.3185  0.6846 -0.6355
  535MOL0     H72167   6.304   7.951   1.588 -2.6586  1.8023  1.1555
  535MOL0     H72168   6.275   7.821   1.794  0.7833 -0.8989  0.8896
  535MOL0     H72169   6.270   7.668   1.695 -3.8018  1.4884 -1.8307
  535MOL0     H72170   6.497   7.758   1.603 -2.4485  4.1872 -2.8029
  535MOL0     H72171   6.479   7.894   1.697  0.9003  0.2030 -0.4160
  535MOL0     H72172   6.509   7.611   1.797 -1.9193  0.8681 -2.0372
  535MOL0     H72173   6.511   7.746   1.910  0.5341  0.6062 -0.3621
  535MOL0     H72174   6.727   7.702   1.694  0.6910  0.5304 -0.7804
  535MOL0     H72175   6.716   7.835   1.812  2.1832 -0.4517 -0.9914
  535MOL0     H72176   6.768   7.455   1.785 -0.0412  0.5477 -0.4154
  535MOL0     H72177   6.961   7.308   2.080  1.9026  2.0547  1.3836
  535MOL0     H72178   6.898   7.275   1.918 -2.3736  0.0965  0.1292
  535MOL0     H72179   7.110   7.297   1.856 -1.1500  1.4104 -1.7158
  535MOL0     H72180   7.076   7.464   1.854  0.2718  0.5660 -0.7087
  535MOL0     H72181   7.222   7.310   2.077  0.3590  1.1665  2.0439
  535MOL0     H72182   7.147   7.468   2.105 -0.1238 -0.4667 -0.2843
  535MOL0     H72183   7.370   7.485   2.068  1.7655 -0.1551 -0.5692
  535MOL0     H72184   7.277   7.574   1.943  1.0411  1.1765  1.3136
  535MOL0     H72185   7.553   7.298   1.733  0.4550 -1.9573  2.3133
  535MOL0     H72186   7.791   7.330   1.714  1.0173 -0.0422  1.1400
  535MOL0     H72187   8.173   7.654   1.692  0.3251  0.6046  0.5219
  535MOL0     H72188   8.418   7.637   1.704  2.4203 -1.4176  1.2629
  535MOL0     H72189   8.736   7.545   1.889 -0.1148  0.8739  0.7265
  535MOL0     H72190   8.620   7.566   1.756  1.3118  2.6539 -0.8741
  535MOL0     H72191   8.621   7.820   1.796  0.7036  0.5856  0.8409
  535MOL0     H72192   8.710   7.790   1.943 -2.4928  2.2422 -0.1886
  535MOL0     H72193   8.847   7.870   1.744 -0.7310  0.5158  1.5890
  535MOL0     H72194   8.914   7.744   1.827  0.9118  3.5087 -1.2242
  535MOL0     H72195   8.725   7.743   1.579 -1.0913 -2.3227 -0.2425
  535MOL0     H72196   8.802   7.592   1.632  1.2075 -0.5542 -2.4727
  535MOL0     H72197   8.992   7.830   1.597  2.5091 -0.9821  0.2360
  535MOL0     H72198   8.923   7.743   1.454 -1.2462  0.1546 -0.1482
  535MOL0     H72199   9.066   7.613   1.692 -0.2753  1.3400  0.4218
  535MOL0     H72200   9.026   7.524   1.553 -0.0797  0.2604  1.8064
  535MOL0     H72201   9.197   7.767   1.515 -0.3074 -0.3956 -0.9230
  535MOL0     H72202   9.194   7.616   1.422  0.4589 -1.1045 -0.2579
  535MOL0     H72203   9.306   7.675   1.697 -3.4354 -1.9472  1.3249
  535MOL0     H72204   9.296   7.507   1.644  1.9600 -0.3006  0.6882
  535MOL0     H72205   8.367   7.596   2.138 -0.0210  1.1499 -0.0839
  535MOL0     H72206   8.135   7.642   2.119 -0.9522 -0.0293 -0.4540
  535MOL0     H72207   7.758   7.660   1.993 -0.8532 -0.2243  1.5252
  535MOL0     H72208   7.516   7.619   2.016 -1.2749 -2.0093  0.8772
  535MOL0     H72209   5.613   7.730   1.363  1.6332  0.9570 -2.0026
  535MOL0     H72210   5.400   7.787   1.325  1.8398 -1.5646 -0.8281
  535MOL0     H72211   5.143   8.272   1.415 -0.4175  0.5723 -0.7128
  535MOL0     H72212   4.902   8.342   1.468 -1.1579 -0.5697 -0.5360
  535MOL0     H72213   4.536   8.125   1.312 -0.5337  0.5024 -2.2592
  535MOL0     H72214   4.569   8.269   1.219 -0.1350 -0.2317 -0.7454
  535MOL0     H72215   4.518   8.412   1.427  0.0752 -0.5878  1.4688
  535MOL0     H72216   4.445   8.278   1.502  1.4797  1.0356 -0.0403
  535MOL0     H72217   4.289   8.241   1.278 -2.3546  2.7779 -1.8422
  535MOL0     H72218   4.371   8.394   1.244 -0.9973  1.2475 -0.0265
  535MOL0     H72219   4.194   8.334   1.480 -1.1841 -0.3053 -0.5908
  535MOL0     H72220   4.246   8.493   1.434  0.0825 -0.4177  0.5933
  535MOL0     H72221   3.930   8.384   1.150  0.6006 -1.9145 -1.2189
  535MOL0     H72222   4.746   8.054   1.221 -0.6332 -0.6538 -0.1497
  535MOL0     H72223   5.035   7.861   1.171 -1.9971 -1.8830 -2.7901
  535MOL0     H72224   4.878   7.896   1.093  0.3935 -0.8412 -1.5976
  535MOL0     H72225   5.022   7.956   1.025 -0.6652 -0.3084 -0.6621
  536MOL0     O72226   3.088   8.454   3.793 -0.2937  0.4243  0.8220
  536MOL0     C72227   3.043   8.382   3.704  0.1473  0.6356  0.2437
  536MOL0     O72228   3.117   8.326   3.606  0.5693 -0.8186  0.1726
  536MOL0     C72229   3.255   8.334   3.623  0.2466  0.3071 -0.6697
  536MOL0     C72230   3.329   8.238   3.698 -0.1001  0.0762 -0.2429
  536MOL0     C72231   3.473   8.241   3.705  0.1068  0.0759  0.2412
  536MOL0     C72232   3.546   8.326   3.620  0.7586 -1.1108 -0.4422
  536MOL0     O72233   3.676   8.312   3.609  0.0390 -0.2574 -0.5215
  536MOL0     C72234   3.750   8.423   3.666 -0.6372  0.2216 -1.1938
  536MOL0     C72235   3.863   8.367   3.749  0.0936  1.3094 -0.0987
  536MOL0     C72236   3.956   8.472   3.804  0.4288 -0.1644 -0.4491
  536MOL0     C72237   4.057   8.424   3.913  0.4523 -0.1316  0.1643
  536MOL0     C72238   4.105   8.526   4.016 -0.4248 -0.5250  0.7290
  536MOL0     C72239   4.214   8.466   4.097  0.5800  0.5375  0.1093
  536MOL0     C72240   4.237   8.548   4.215 -0.2819  0.6900 -0.8287
  536MOL0     C72241   4.316   8.676   4.178 -0.2295 -0.7357 -0.4617
  536MOL0     N72242   4.376   8.734   4.300  0.2036 -0.4453 -1.2812
  536MOL0     C72243   4.508   8.751   4.324  0.0776  0.8542  0.0968
  536MOL0     C72244   4.518   8.815   4.446  0.2964  0.3389  0.1029
  536MOL0     C72245   4.643   8.866   4.516 -0.1977  0.2228 -0.5346
  536MOL0     C72246   4.735   8.747   4.538 -0.4607  0.8628 -0.4979
  536MOL0     C72247   4.869   8.800   4.600  1.2037 -0.1653  0.7034
  536MOL0     C72248   4.968   8.679   4.626  0.4770 -0.8438  0.4675
  536MOL0     O72249   5.082   8.716   4.705  0.1847  0.4096 -0.2162
  536MOL0     C72250   5.206   8.659   4.694 -0.7679  0.4327 -0.3886
  536MOL0     C72251   5.236   8.546   4.610  0.6410 -0.1346  0.1271
  536MOL0     C72252   5.362   8.494   4.596 -0.2858  0.1694  0.0800
  536MOL0     C72253   5.465   8.541   4.676 -0.3425 -0.1992  0.1987
  536MOL0     C72254   5.606   8.481   4.668 -0.6459 -0.9378 -0.1202
  536MOL0     O72255   5.691   8.515   4.762  0.4488 -1.1036 -1.0370
  536MOL0     C72256   5.821   8.474   4.746 -0.4102  0.7194 -0.0958
  536MOL0     C72257   5.857   8.337   4.751  0.1184 -0.4328 -0.9000
  536MOL0     C72258   5.999   8.315   4.744  0.6972  0.8052  0.3430
  536MOL0     C72259   6.090   8.418   4.742 -0.1512  0.1932  0.5306
  536MOL0     O72260   6.224   8.399   4.763  0.0022  0.4410 -0.0328
  536MOL0     C72261   6.315   8.442   4.673  1.1388  0.4620  0.3743
  536MOL0     C72262   6.459   8.408   4.721  0.4113 -0.1999  0.0732
  536MOL0     C72263   6.491   8.260   4.699 -0.0362  0.3532 -0.7205
  536MOL0     C72264   6.423   8.171   4.803 -0.2343  0.7558 -0.6923
  536MOL0     C72265   6.490   8.027   4.802  0.3998  0.6254  0.2505
  536MOL0     C72266   6.427   7.943   4.913  0.0160 -0.1309  0.5281
  536MOL0     C72267   6.490   7.806   4.914 -0.1440 -0.3477  0.2191
  536MOL0     C72268   6.460   7.730   4.787  0.2709 -0.2208 -0.2780
  536MOL0    Cl72269   6.504   7.558   4.828 -0.3001 -0.0949  0.9300
  536MOL0     C72270   6.045   8.550   4.724  0.1173  0.1037 -0.0546
  536MOL0     C72271   5.913   8.580   4.733  0.5099  0.3706  0.2567
  536MOL0     O72272   5.634   8.409   4.575  0.4599 -0.0438 -0.3077
  536MOL0     C72273   5.429   8.633   4.779  0.1793 -0.2701  0.2253
  536MOL0     C72274   5.306   8.687   4.790  0.4534 -0.2085  0.0882
  536MOL0     N72275   4.389   8.842   4.494  0.0863  0.3198 -0.0451
  536MOL0     N72276   4.306   8.798   4.401  0.8845  0.3470  0.0163
  536MOL0     C72277   3.468   8.434   3.553 -0.4228  1.1021 -0.0068
  536MOL0     C72278   3.328   8.437   3.555 -0.2410  0.5509  0.6195
  536MOL0     C72279   2.901   8.370   3.686 -1.2140 -0.3508  0.7230
  536MOL0     C72280   2.853   8.258   3.621 -0.2103  0.7363  0.5679
  536MOL0     C72281   2.721   8.226   3.607 -0.1459  0.3616 -0.8419
  536MOL0     C72282   2.622   8.307   3.665  0.3769 -0.7101  0.9048
  536MOL0     O72283   2.490   8.271   3.659 -0.5771  0.1301 -0.2401
  536MOL0     C72284   2.399   8.331   3.750 -0.3311  0.0120 -0.0849
  536MOL0     C72285   2.256   8.284   3.703 -0.2136 -1.1641 -0.5488
  536MOL0     C72286   2.142   8.342   3.790 -0.0588  0.6690 -0.2152
  536MOL0     C72287   2.140   8.282   3.934  0.1430  0.1668 -0.0464
  536MOL0     C72288   2.068   8.369   4.021  0.6328  0.9584  0.2035
  536MOL0     C72289   2.002   8.447   4.092 -0.1714 -0.0062  0.4178
  536MOL0     C72290   2.666   8.421   3.736  0.4553 -0.7654 -0.1677
  536MOL0     C72291   2.801   8.448   3.750 -0.0052  0.4173  0.7651
  536MOL0     C72292   2.830   8.567   3.841  0.3164 -0.6445  0.2696
  536MOL0     H72293   3.276   8.164   3.757  0.4692  0.1292  0.3425
  536MOL0     H72294   3.532   8.175   3.769 -0.9428 -1.3220 -0.1957
  536MOL0     H72295   3.783   8.483   3.581 -0.0446 -1.4012 -2.1488
  536MOL0     H72296   3.697   8.489   3.736  1.6161  0.9844 -0.0728
  536MOL0     H72297   3.916   8.304   3.677  0.5140  2.0064 -0.4020
  536MOL0     H72298   3.819   8.318   3.836 -1.0065  0.3126 -1.1635
  536MOL0     H72299   3.901   8.559   3.841  1.7042  1.8867 -3.0290
  536MOL0     H72300   4.017   8.509   3.721 -0.5056 -0.6387 -1.3812
  536MOL0     H72301   4.006   8.349   3.973  1.3590 -0.6843  0.2647
  536MOL0     H72302   4.143   8.382   3.859  0.2934  0.0061 -0.2044
  536MOL0     H72303   4.153   8.599   3.950 -2.3483  0.0029 -0.1375
  536MOL0     H72304   4.026   8.561   4.083 -2.4009 -1.4820 -1.0189
  536MOL0     H72305   4.181   8.366   4.126 -0.8652  1.9125  3.7442
  536MOL0     H72306   4.310   8.451   4.047  1.4351 -0.1351  1.8769
  536MOL0     H72307   4.286   8.483   4.288 -1.4165  1.9499  1.1603
  536MOL0     H72308   4.139   8.578   4.255 -0.4044  0.7859 -1.1995
  536MOL0     H72309   4.393   8.649   4.106  0.9488  1.8343 -0.2850
  536MOL0     H72310   4.264   8.758   4.128 -0.0101  0.9080  1.8622
  536MOL0     H72311   4.586   8.715   4.257 -0.5154  1.1994 -0.7976
  536MOL0     H72312   4.687   8.941   4.449  0.9098 -0.6333 -0.7990
  536MOL0     H72313   4.618   8.925   4.604  0.7808 -1.8994  1.2697
  536MOL0     H72314   4.690   8.680   4.613 -1.6685  2.0950 -0.0950
  536MOL0     H72315   4.754   8.698   4.442 -1.0745  2.7354 -1.6262
  536MOL0     H72316   4.846   8.854   4.693  0.3798  0.7929 -0.0410
  536MOL0     H72317   4.919   8.872   4.535  0.2947  1.5679  1.8556
  536MOL0     H72318   4.992   8.633   4.530  0.4990  0.0545  0.0338
  536MOL0     H72319   4.909   8.607   4.683  1.5237 -0.8219  1.6113
  536MOL0     H72320   5.158   8.507   4.546  1.6487 -5.1202  1.5429
  536MOL0     H72321   5.374   8.423   4.514 -0.3507 -2.2172  2.0156
  536MOL0     H72322   5.780   8.261   4.749  0.8741 -1.5323  3.0752
  536MOL0     H72323   6.049   8.219   4.730  1.5566  0.9518  2.1094
  536MOL0     H72324   6.297   8.398   4.574  0.3688 -0.2770  0.8328
  536MOL0     H72325   6.318   8.551   4.665 -0.3354  0.3867 -2.5940
  536MOL0     H72326   6.530   8.469   4.665 -0.5055 -0.8658 -1.8879
  536MOL0     H72327   6.458   8.434   4.828 -3.2950 -2.5475  0.7716
  536MOL0     H72328   6.463   8.229   4.598  0.5334 -0.9791 -0.4926
  536MOL0     H72329   6.599   8.242   4.707 -0.0337  0.7468  0.4084
  536MOL0     H72330   6.315   8.168   4.786 -0.9716  0.4364  3.1528
  536MOL0     H72331   6.428   8.216   4.902 -1.4284 -0.4997 -0.0301
  536MOL0     H72332   6.596   8.036   4.830  0.2341  0.1699  1.0714
  536MOL0     H72333   6.472   7.976   4.707  2.5769 -1.5567  0.8976
  536MOL0     H72334   6.450   7.991   5.009 -1.4459 -0.3007  0.9884
  536MOL0     H72335   6.318   7.942   4.918 -0.0577  2.3356  0.6833
  536MOL0     H72336   6.442   7.764   5.003 -3.4725  2.7308  0.1193
  536MOL0     H72337   6.598   7.813   4.924 -0.0890 -1.1213  0.2079
  536MOL0     H72338   6.352   7.740   4.768 -0.1636 -2.4238  0.7706
  536MOL0     H72339   6.525   7.769   4.708  2.4692 -1.7852  0.6635
  536MOL0     H72340   6.112   8.636   4.722  0.4777 -0.1461  0.6911
  536MOL0     H72341   5.882   8.685   4.732  3.0377  1.1808 -1.0086
  536MOL0     H72342   5.503   8.661   4.854 -1.9094  2.1068  1.5357
  536MOL0     H72343   5.287   8.746   4.880  4.5085  2.5738 -0.6069
  536MOL0     H72344   3.536   8.511   3.518  1.2265  0.3744  1.4098
  536MOL0     H72345   3.276   8.514   3.499  3.9521  3.3054  0.1349
  536MOL0     H72346   2.919   8.181   3.583 -1.6826 -0.2103 -0.1938
  536MOL0     H72347   2.688   8.135   3.560 -1.3880 -0.0543  0.7355
  536MOL0     H72348   2.398   8.440   3.744  2.2681  0.3755  3.1788
  536MOL0     H72349   2.421   8.298   3.852 -1.7962  2.7076  1.2147
  536MOL0     H72350   2.247   8.176   3.691  0.1515 -1.1376 -1.0944
  536MOL0     H72351   2.246   8.327   3.603 -1.6788 -2.1336 -0.8600
  536MOL0     H72352   2.058   8.320   3.724  0.8771 -1.0073 -0.9270
  536MOL0     H72353   2.159   8.450   3.791 -0.2199  0.7006 -0.7222
  536MOL0     H72354   2.094   8.184   3.927  1.4979 -0.6000  1.0663
  536MOL0     H72355   2.242   8.262   3.971 -0.2349 -1.6567  0.0783
  536MOL0     H72356   1.936   8.522   4.131 -2.1426 -0.7157 -1.3922
  536MOL0     H72357   2.595   8.480   3.794  1.8849  0.5386  0.3162
  536MOL0     H72358   2.738   8.622   3.865 -1.8908 -3.4295 -1.1112
  536MOL0     H72359   2.877   8.537   3.935 -0.1181 -2.8840 -0.1711
  536MOL0     H72360   2.905   8.631   3.794 -1.1867  1.3420  0.4858
  537MOL0     O72361   5.953   5.059   5.693 -0.5634 -0.4336  0.2376
  537MOL0     C72362   5.843   5.115   5.696 -0.2505  0.2142  0.7648
  537MOL0     O72363   5.821   5.248   5.671  0.7783 -0.6910 -0.6842
  537MOL0     C72364   5.910   5.341   5.709  0.2279 -1.0500  0.1171
  537MOL0     C72365   5.888   5.476   5.664 -0.0358 -0.8753 -0.4436
  537MOL0     C72366   5.962   5.587   5.715 -0.7427 -0.8585  0.1713
  537MOL0     C72367   6.075   5.570   5.791  0.1840  0.2210 -0.6401
  537MOL0     O72368   6.153   5.681   5.809  0.9615  0.2748 -0.0350
  537MOL0     C72369   6.289   5.663   5.756 -0.1190  0.2094  0.8842
  537MOL0     C72370   6.376   5.748   5.851  0.0993  1.2732 -0.2069
  537MOL0     C72371   6.518   5.765   5.798  0.7210  0.4763  0.3883
  537MOL0     C72372   6.613   5.644   5.832 -1.1016  0.6690 -0.3076
  537MOL0     C72373   6.759   5.668   5.796  0.5646  0.5082  0.2854
  537MOL0     C72374   6.815   5.806   5.845 -0.2742 -0.0107  0.2536
  537MOL0     C72375   6.968   5.807   5.861 -0.1997  0.3148  1.5623
  537MOL0     C72376   7.025   5.731   5.978 -0.7869  0.0750  0.3794
  537MOL0     N72377   7.167   5.725   5.997 -0.6728  0.1278  0.2400
  537MOL0     C72378   7.263   5.661   5.916  0.2654 -0.0487 -0.9119
  537MOL0     C72379   7.379   5.695   5.970  0.3161  1.3533 -0.3438
  537MOL0     C72380   7.513   5.663   5.924 -0.0099  0.0854 -0.3552
  537MOL0     C72381   7.516   5.672   5.770 -0.3760  0.3198 -0.3630
  537MOL0     C72382   7.506   5.819   5.716  0.0800  0.5258  0.3285
  537MOL0     C72383   7.593   5.926   5.796 -0.2804 -0.7840  0.8473
  537MOL0     O72384   7.731   5.888   5.823 -0.0589  0.2477  0.4619
  537MOL0     C72385   7.809   5.969   5.908  0.9602  0.1724  0.5431
  537MOL0     C72386   7.766   6.088   5.971  0.4491 -0.1622 -0.4559
  537MOL0     C72387   7.858   6.164   6.050 -0.5283  0.1474  0.2768
  537MOL0     C72388   7.993   6.117   6.058 -0.0108 -0.5134  0.3887
  537MOL0     C72389   8.108   6.195   6.114 -0.0964 -0.5255 -0.3087
  537MOL0     O72390   8.228   6.131   6.145  0.3059  0.1107 -0.0266
  537MOL0     C72391   8.341   6.198   6.183 -0.6930 -0.5048 -0.4027
  537MOL0     C72392   8.451   6.199   6.096  0.2901 -0.0308 -0.5114
  537MOL0     C72393   8.563   6.276   6.130 -0.4809  0.8520  0.5341
  537MOL0     C72394   8.566   6.355   6.242  0.2239  0.2792 -0.4495
  537MOL0     O72395   8.667   6.440   6.281 -0.2907  0.4793 -0.4421
  537MOL0     C72396   8.755   6.489   6.179  0.2924  0.3647  0.8618
  537MOL0     C72397   8.822   6.612   6.231 -0.5953  0.1277  0.0305
  537MOL0     C72398   8.879   6.692   6.108 -0.4692  0.1310 -0.5752
  537MOL0     C72399   8.976   6.800   6.160  0.6896  0.7384  0.1582
  537MOL0     C72400   9.121   6.761   6.153  0.0672 -0.6388 -0.4712
  537MOL0     C72401   9.204   6.851   6.240 -0.3753  0.1832  0.2009
  537MOL0     C72402   9.198   6.827   6.391  0.4359 -0.0278 -0.9024
  537MOL0     C72403   9.246   6.949   6.480 -0.7861 -0.3661  0.4629
  537MOL0    Cl72404   9.419   6.923   6.540  0.2122 -0.3337  0.3495
  537MOL0     C72405   8.465   6.354   6.337  0.1510 -0.8437  0.2787
  537MOL0     C72406   8.349   6.286   6.303  1.0189  0.8697 -0.3649
  537MOL0     O72407   8.093   6.316   6.126  0.5167 -0.3306  0.4620
  537MOL0     C72408   8.024   5.997   6.003  0.5333 -0.8613  0.3767
  537MOL0     C72409   7.934   5.923   5.926  0.2025 -0.4499  0.8591
  537MOL0     N72410   7.357   5.782   6.078 -0.1415  0.5892  1.2606
  537MOL0     N72411   7.228   5.798   6.092  0.1661  0.1438  1.1406
  537MOL0     C72412   6.104   5.435   5.831 -0.2682 -0.5421  0.1102
  537MOL0     C72413   6.028   5.329   5.789  0.1063 -0.2150 -0.4995
  537MOL0     C72414   5.726   5.022   5.678 -0.3584  0.2361 -0.2432
  537MOL0     C72415   5.618   5.068   5.599  0.4571  0.4147  0.4909
  537MOL0     C72416   5.512   4.983   5.560  0.2426 -1.0727  0.6731
  537MOL0     C72417   5.500   4.856   5.604 -1.4178  0.7015  0.4497
  537MOL0     O72418   5.390   4.780   5.565 -0.4007  0.2892 -0.0504
  537MOL0     C72419   5.373   4.645   5.621  0.0868 -0.4966 -0.4476
  537MOL0     C72420   5.236   4.580   5.578  0.6024  0.2396 -0.7035
  537MOL0     C72421   5.120   4.645   5.653 -0.2227  0.0686 -0.8650
  537MOL0     C72422   5.001   4.551   5.677  0.0408 -0.1479 -0.3102
  537MOL0     C72423   4.906   4.576   5.566 -0.8738 -0.1076 -0.1680
  537MOL0     C72424   4.830   4.602   5.475  0.7272  0.4583  0.5429
  537MOL0     C72425   5.605   4.805   5.689 -0.2516  0.0705  0.8453
  537MOL0     C72426   5.720   4.887   5.725  0.3380 -0.4385  0.8634
  537MOL0     C72427   5.830   4.831   5.814 -0.2726  0.2717  0.1893
  537MOL0     H72428   5.809   5.492   5.591 -1.6622 -1.1681  1.1672
  537MOL0     H72429   5.947   5.688   5.678  0.6875  0.3759  2.6691
  537MOL0     H72430   6.325   5.560   5.760  0.1838  0.3228  1.1016
  537MOL0     H72431   6.304   5.692   5.652  3.1430 -0.9149  0.9263
  537MOL0     H72432   6.386   5.687   5.941  1.4849  1.4305 -0.2360
  537MOL0     H72433   6.322   5.841   5.874 -2.2949  0.4495 -2.0761
  537MOL0     H72434   6.551   5.857   5.848  2.0971 -0.4746  1.2916
  537MOL0     H72435   6.515   5.777   5.689 -1.5405 -2.0968  0.0765
  537MOL0     H72436   6.591   5.622   5.937 -1.9957 -0.4686 -0.7120
  537MOL0     H72437   6.582   5.555   5.777 -2.2652  1.3773 -0.8208
  537MOL0     H72438   6.820   5.588   5.839  0.3479 -0.4771 -1.1678
  537MOL0     H72439   6.773   5.653   5.689  2.3327 -0.4058  0.6010
  537MOL0     H72440   6.797   5.870   5.758 -0.4741 -0.3807  0.0162
  537MOL0     H72441   6.761   5.847   5.930 -0.0948  1.1529 -0.1836
  537MOL0     H72442   7.005   5.910   5.865 -1.0552  0.5967  3.0773
  537MOL0     H72443   7.013   5.769   5.770 -2.5390  0.3336  0.3147
  537MOL0     H72444   6.979   5.777   6.066  0.7111  2.2063  0.1279
  537MOL0     H72445   6.994   5.626   5.974 -0.3061 -0.0318 -1.2255
  537MOL0     H72446   7.250   5.609   5.821  0.2388 -1.8909  0.0581
  537MOL0     H72447   7.590   5.724   5.972  0.0760 -1.3836  1.4530
  537MOL0     H72448   7.545   5.562   5.950  3.9989  0.7785 -1.8453
  537MOL0     H72449   7.610   5.630   5.730  0.8959  1.7540  1.0137
  537MOL0     H72450   7.433   5.613   5.729 -0.6582  0.9817 -0.7575
  537MOL0     H72451   7.405   5.861   5.719  0.1090  0.5594  0.8695
  537MOL0     H72452   7.537   5.828   5.612 -1.6895 -0.5283 -0.3377
  537MOL0     H72453   7.546   5.940   5.894  3.3947  2.4311  2.3976
  537MOL0     H72454   7.592   6.027   5.753 -0.2341 -1.8764 -1.9560
  537MOL0     H72455   7.661   6.115   5.966 -0.4711 -3.2368  0.4262
  537MOL0     H72456   7.828   6.255   6.101 -0.4804  1.8886 -2.5576
  537MOL0     H72457   8.441   6.133   6.010 -0.4083 -1.6555  0.7595
  537MOL0     H72458   8.651   6.269   6.067 -0.5977  0.3931  0.4186
  537MOL0     H72459   8.823   6.418   6.131 -2.7814 -1.6130 -0.8739
  537MOL0     H72460   8.692   6.509   6.092 -0.0173 -0.8541  0.7928
  537MOL0     H72461   8.761   6.687   6.282  1.1158  0.9884  0.9166
  537MOL0     H72462   8.902   6.571   6.294 -0.7936 -0.8487 -0.3286
  537MOL0     H72463   8.925   6.629   6.031  0.8955 -1.1197  1.1791
  537MOL0     H72464   8.795   6.740   6.057 -0.7898 -0.6892 -0.8398
  537MOL0     H72465   8.946   6.831   6.261 -0.9064 -0.0911 -0.0317
  537MOL0     H72466   8.964   6.887   6.095  3.3461  0.7396 -0.4367
  537MOL0     H72467   9.156   6.767   6.050  0.4215 -3.0998 -0.5510
  537MOL0     H72468   9.127   6.662   6.199  0.2755  0.4001  1.9060
  537MOL0     H72469   9.309   6.833   6.214 -0.3563  1.7085 -0.9271
  537MOL0     H72470   9.172   6.954   6.220  1.6572  0.4756 -2.0444
  537MOL0     H72471   9.244   6.731   6.413 -1.4273 -0.5930  0.7935
  537MOL0     H72472   9.093   6.808   6.416  1.1253 -4.7996 -0.6747
  537MOL0     H72473   9.238   7.044   6.427  4.3375  0.6878  1.0341
  537MOL0     H72474   9.196   6.956   6.577  1.2673  1.1499  1.4841
  537MOL0     H72475   8.468   6.419   6.424 -2.3118  1.7159 -1.3669
  537MOL0     H72476   8.254   6.298   6.354  1.3615  0.3228  0.4358
  537MOL0     H72477   8.127   5.963   5.997  1.2400  1.2129 -0.2133
  537MOL0     H72478   7.971   5.828   5.888 -0.6097 -0.4836  0.1214
  537MOL0     H72479   6.196   5.422   5.889  1.8114  0.4334 -2.7560
  537MOL0     H72480   6.059   5.232   5.826 -0.0516 -0.5002 -1.0969
  537MOL0     H72481   5.619   5.162   5.545 -1.2620 -0.3649 -1.0277
  537MOL0     H72482   5.431   5.012   5.493  0.1845 -0.1681  1.1213
  537MOL0     H72483   5.376   4.646   5.730  2.4254 -0.9049 -0.4518
  537MOL0     H72484   5.448   4.574   5.584  0.4652 -0.9749  1.1685
  537MOL0     H72485   5.241   4.477   5.612 -0.6385 -0.1862 -1.7055
  537MOL0     H72486   5.209   4.592   5.472 -1.9823 -0.3529 -0.1838
  537MOL0     H72487   5.096   4.743   5.611  0.3073  0.0735 -1.1579
  537MOL0     H72488   5.158   4.663   5.754  0.3139 -0.3484 -0.9882
  537MOL0     H72489   5.028   4.445   5.677  0.3331 -0.0747 -0.1498
  537MOL0     H72490   4.959   4.561   5.777 -2.9296  1.1293 -1.5577
  537MOL0     H72491   4.776   4.611   5.382 -2.0205 -0.9137  1.8645
  537MOL0     H72492   5.606   4.700   5.715  2.4779 -1.3711 -3.8287
  537MOL0     H72493   5.908   4.775   5.760 -1.8691 -1.1795 -0.7048
  537MOL0     H72494   5.880   4.906   5.876  2.7159 -1.8370  0.5728
  537MOL0     H72495   5.786   4.761   5.885  0.2536 -0.5443 -0.2681
  538MOL0     O72496   9.471   3.174   9.556  0.1752  0.1499  0.1629
  538MOL0     C72497   9.457   3.227   9.662  0.1566 -0.2012 -0.3668
  538MOL0     O72498   9.547   3.230   9.764 -0.0877 -0.1789  0.3761
  538MOL0     C72499   9.661   3.150   9.747 -0.3265  0.5901 -0.0221
  538MOL0     C72500   9.652   3.010   9.776  0.7446  0.1541  0.7580
  538MOL0     C72501   9.764   2.928   9.784 -0.0452  0.7874 -0.3963
  538MOL0     C72502   9.895   2.983   9.769  0.4334  0.5483  0.4551
  538MOL0     O72503   9.998   2.894   9.774 -0.4925 -0.1587 -0.0964
  538MOL0     C72504  10.130   2.948   9.795 -0.2906  0.1176  0.1146
  538MOL0     C72505  10.228   2.839   9.767  0.9373  0.7406  0.6208
  538MOL0     C72506  10.370   2.879   9.744 -0.1205  0.3185  0.4336
  538MOL0     C72507  10.442   2.952   9.859 -0.1489  0.5405 -0.6357
  538MOL0     C72508  10.593   2.968   9.850 -0.6093  0.4479  1.3007
  538MOL0     C72509  10.653   3.077   9.949  0.5534  0.6638 -0.4404
  538MOL0     C72510  10.801   3.074   9.924 -0.5624 -0.1073  0.0299
  538MOL0     C72511  10.880   3.163  10.028  0.4889 -0.0613  0.2909
  538MOL0     N72512  11.028   3.146  10.012 -0.0451 -0.1749  0.8995
  538MOL0     C72513  11.105   3.230   9.936 -0.2877  0.8714 -0.5772
  538MOL0     C72514  11.224   3.169   9.932 -0.4568 -0.0906  0.2514
  538MOL0     C72515  11.339   3.219   9.849 -0.2042 -0.5035 -0.2670
  538MOL0     C72516  11.387   3.108   9.756 -0.3994 -0.2756  0.6076
  538MOL0     C72517  11.503   3.144   9.670 -0.7121  0.3548 -0.5953
  538MOL0     C72518  11.642   3.138   9.733  0.1856 -0.4604  0.0507
  538MOL0     O72519  11.658   3.246   9.831 -0.1076  0.1844 -0.1094
  538MOL0     C72520  11.783   3.265   9.880  0.2724 -0.1186 -0.2041
  538MOL0     C72521  11.790   3.298  10.014  0.0927 -0.3854 -0.5918
  538MOL0     C72522  11.911   3.325  10.072 -0.2558  0.1990  0.4812
  538MOL0     C72523  12.034   3.324   9.996  0.1174 -0.1236  0.0590
  538MOL0     C72524  12.154   3.343  10.063 -0.0071  0.9070 -0.2029
  538MOL0     O72525  12.157   3.348  10.201  0.3802  0.1852 -0.1946
  538MOL0     C72526  12.263   3.380  10.287 -0.0255  0.1085 -0.4103
  538MOL0     C72527  12.239   3.365  10.425  0.4508 -0.7601 -0.1252
  538MOL0     C72528  12.331   3.404  10.521  0.0802  0.0045  1.0638
  538MOL0     C72529  12.449   3.466  10.483 -0.1979  0.2935 -0.2354
  538MOL0     O72530  12.541   3.513  10.570  0.2056  0.1829 -0.4576
  538MOL0     C72531  12.524   3.503  10.704 -0.1319 -1.4087 -0.5535
  538MOL0     C72532  12.648   3.552  10.777  0.7470 -0.1346 -0.0216
  538MOL0     C72533  12.767   3.451  10.750 -0.1010 -0.1985  0.2288
  538MOL0     C72534  12.884   3.501  10.830  0.1375 -0.7239 -0.0195
  538MOL0     C72535  13.006   3.411  10.819 -0.0651 -0.6935 -0.3713
  538MOL0     C72536  13.108   3.457  10.926 -0.1474  0.4969 -0.0793
  538MOL0     C72537  13.171   3.329  10.987 -0.5423 -0.2174 -0.5820
  538MOL0     C72538  13.271   3.366  11.104 -0.1387  0.8370  0.3234
  538MOL0    Cl72539  13.417   3.444  11.038  0.2355 -0.2137  0.0963
  538MOL0     C72540  12.481   3.469  10.345 -0.4896 -0.8702  0.0306
  538MOL0     C72541  12.386   3.430  10.249  0.1466  0.5529  0.4223
  538MOL0     O72542  12.251   3.367   9.990  0.3089 -0.1465 -0.7715
  538MOL0     C72543  12.028   3.303   9.858  1.2418  0.8987  0.3109
  538MOL0     C72544  11.902   3.271   9.803  0.0602 -0.2621  0.2829
  538MOL0     N72545  11.220   3.058  10.007  0.1587 -0.1321 -0.8585
  538MOL0     N72546  11.103   3.044  10.052  0.1608 -0.1119  1.1187
  538MOL0     C72547   9.907   3.125   9.757  0.4644 -0.4377  0.2024
  538MOL0     C72548   9.793   3.205   9.746 -0.6181  0.7718 -0.8580
  538MOL0     C72549   9.328   3.311   9.675 -0.5377  0.3072 -0.0131
  538MOL0     C72550   9.227   3.292   9.586  0.3524  0.2466 -0.2935
  538MOL0     C72551   9.101   3.364   9.594 -0.2037 -0.4652  0.5744
  538MOL0     C72552   9.092   3.467   9.689 -0.4236  0.7809  0.6943
  538MOL0     O72553   8.981   3.545   9.709  0.0739  0.5910 -0.2459
  538MOL0     C72554   8.902   3.576   9.591 -0.2340 -0.4415 -0.5053
  538MOL0     C72555   8.804   3.696   9.617 -0.5912  0.8205  0.4277
  538MOL0     C72556   8.711   3.669   9.731  0.6000 -0.4272  0.4262
  538MOL0     C72557   8.614   3.551   9.724 -0.6213 -0.7505 -0.0827
  538MOL0     C72558   8.517   3.558   9.617  0.6525  0.3463  0.5777
  538MOL0     C72559   8.449   3.555   9.518  0.5527 -0.2430 -0.6035
  538MOL0     C72560   9.196   3.487   9.779 -0.4206 -0.7525 -0.3578
  538MOL0     C72561   9.320   3.412   9.774 -0.2968 -0.0592  0.2439
  538MOL0     C72562   9.418   3.445   9.876  0.0812 -0.4235  0.3728
  538MOL0     H72563   9.554   2.966   9.762 -0.0473  2.3679 -1.2377
  538MOL0     H72564   9.753   2.820   9.784 -0.4753  0.7489  2.9514
  538MOL0     H72565  10.148   3.020   9.715 -0.5603 -1.8072 -1.7688
  538MOL0     H72566  10.145   2.977   9.900  1.1683 -0.3594  0.0591
  538MOL0     H72567  10.197   2.788   9.675  3.7091  0.0534 -0.0176
  538MOL0     H72568  10.220   2.769   9.851  0.5751 -0.4161 -0.3489
  538MOL0     H72569  10.364   2.941   9.655  2.4947  0.1120  0.0329
  538MOL0     H72570  10.426   2.793   9.706 -0.3182  0.6503 -0.6245
  538MOL0     H72571  10.400   3.052   9.877  1.9230  1.3075  0.2506
  538MOL0     H72572  10.438   2.893   9.952  2.0503 -1.5335 -1.7408
  538MOL0     H72573  10.632   2.868   9.870 -1.2474  0.1469  1.0960
  538MOL0     H72574  10.631   2.988   9.750  1.8707 -0.6022  1.9705
  538MOL0     H72575  10.626   3.182   9.937  0.3842  0.8478  1.3246
  538MOL0     H72576  10.653   3.040  10.052  0.8530 -2.5640 -1.4954
  538MOL0     H72577  10.815   3.096   9.817  0.0224 -0.7610 -0.0424
  538MOL0     H72578  10.845   2.974   9.937  0.8689  0.4331 -0.4334
  538MOL0     H72579  10.848   3.267  10.019  1.5492  0.2673  0.1888
  538MOL0     H72580  10.848   3.138  10.130 -2.4894 -1.3256 -0.8318
  538MOL0     H72581  11.083   3.323   9.884 -0.1790  2.5670  2.1962
  538MOL0     H72582  11.325   3.316   9.801 -1.5491  1.2669  3.2849
  538MOL0     H72583  11.419   3.238   9.920 -1.9597 -0.0931  1.7046
  538MOL0     H72584  11.406   3.011   9.803  0.8654 -0.4199 -0.1478
  538MOL0     H72585  11.310   3.098   9.679  2.3932  0.9500 -2.5379
  538MOL0     H72586  11.492   3.248   9.636  2.6440  1.0146 -0.0003
  538MOL0     H72587  11.512   3.068   9.592  1.0671 -0.9909  0.8392
  538MOL0     H72588  11.725   3.142   9.661 -2.2076 -1.3009 -2.9540
  538MOL0     H72589  11.647   3.039   9.779 -0.7558 -1.1536 -1.2777
  538MOL0     H72590  11.708   3.311  10.084  0.1379 -1.6007 -0.2833
  538MOL0     H72591  11.913   3.348  10.178  0.2986  0.6064  0.3876
  538MOL0     H72592  12.144   3.319  10.450  0.6054 -0.8548  0.3034
  538MOL0     H72593  12.306   3.402  10.626 -1.3084 -0.8988  0.7520
  538MOL0     H72594  12.444   3.571  10.735  1.7312  0.6762 -0.0747
  538MOL0     H72595  12.497   3.400  10.732 -0.1898 -2.0016 -2.6462
  538MOL0     H72596  12.673   3.655  10.752 -0.1042 -0.1560 -0.9819
  538MOL0     H72597  12.627   3.553  10.885 -1.4602 -1.4063 -0.3850
  538MOL0     H72598  12.744   3.347  10.774  2.2369 -0.8649 -0.1488
  538MOL0     H72599  12.796   3.457  10.645 -0.9202 -2.5692 -0.1935
  538MOL0     H72600  12.859   3.526  10.933  2.4046  3.4807 -0.2834
  538MOL0     H72601  12.920   3.592  10.781 -0.1225 -0.4179  0.3614
  538MOL0     H72602  13.050   3.408  10.719 -1.9617  2.0907 -1.4208
  538MOL0     H72603  12.972   3.308  10.834 -0.3144 -0.3271  1.8683
  538MOL0     H72604  13.173   3.523  10.867 -0.4729  1.2382  0.3892
  538MOL0     H72605  13.064   3.515  11.007  2.8230  4.1543 -0.8139
  538MOL0     H72606  13.227   3.279  10.907  0.2532  1.5865 -1.1989
  538MOL0     H72607  13.088   3.283  11.040 -0.6425  4.2133  3.8485
  538MOL0     H72608  13.218   3.422  11.181 -1.7969 -0.1870 -0.0198
  538MOL0     H72609  13.295   3.262  11.131 -1.2006  0.4261 -0.2231
  538MOL0     H72610  12.576   3.511  10.315 -0.7595  0.4952  0.9790
  538MOL0     H72611  12.419   3.439  10.146  3.3697  0.9540  1.3833
  538MOL0     H72612  12.119   3.300   9.800  1.4915  1.6010  0.6611
  538MOL0     H72613  11.884   3.262   9.696  2.1198  0.3812 -0.1667
  538MOL0     H72614  10.006   3.169   9.757  0.0559  0.5625  1.8599
  538MOL0     H72615   9.794   3.313   9.743 -1.1161  0.9052  1.4030
  538MOL0     H72616   9.220   3.209   9.516 -2.8378  2.3712 -2.8081
  538MOL0     H72617   9.019   3.336   9.529 -1.0544 -0.3138  1.5478
  538MOL0     H72618   8.846   3.488   9.556  0.9410 -0.6877 -1.8512
  538MOL0     H72619   8.977   3.604   9.517  1.2701  1.6921  1.6781
  538MOL0     H72620   8.763   3.726   9.520 -0.7459  0.5212  0.4009
  538MOL0     H72621   8.860   3.788   9.638 -1.0362  1.9197 -2.7727
  538MOL0     H72622   8.660   3.761   9.761 -0.1539 -1.0120  0.9973
  538MOL0     H72623   8.778   3.640   9.813  0.6343 -0.4856  0.3772
  538MOL0     H72624   8.662   3.452   9.726 -1.0287 -1.0000  3.2610
  538MOL0     H72625   8.554   3.557   9.816  0.3063 -1.4673  0.5932
  538MOL0     H72626   8.388   3.553   9.430  1.7177 -2.1806 -1.4519
  538MOL0     H72627   9.184   3.569   9.849 -3.2380  1.1725 -2.8719
  538MOL0     H72628   9.516   3.458   9.830  0.3140  0.7724  1.1754
  538MOL0     H72629   9.394   3.540   9.924 -0.2667  0.3786 -1.3309
  538MOL0     H72630   9.424   3.373   9.958 -1.7132 -1.2506 -0.1575
  539MOL0     O72631   5.358   1.287   2.788  0.0177 -0.8872  0.3157
  539MOL0     C72632   5.288   1.370   2.844  0.0354 -0.8687 -0.5113
  539MOL0     O72633   5.319   1.460   2.943 -0.0761  0.0930 -0.3802
  539MOL0     C72634   5.440   1.487   2.992  0.0852  0.0554  0.0260
  539MOL0     C72635   5.449   1.525   3.123  0.3868  0.2187  1.0586
  539MOL0     C72636   5.567   1.553   3.183 -0.9421  0.1877 -0.1585
  539MOL0     C72637   5.688   1.552   3.108 -0.0505 -0.2004 -1.7696
  539MOL0     O72638   5.801   1.574   3.187 -1.2443 -0.4537  0.4262
  539MOL0     C72639   5.926   1.535   3.128 -0.0085  0.0871 -0.5003
  539MOL0     C72640   6.037   1.570   3.225 -0.9712  0.5922 -0.8114
  539MOL0     C72641   6.169   1.518   3.167 -0.1471  0.1343  0.1101
  539MOL0     C72642   6.291   1.538   3.257  0.4673 -0.3398 -0.1904
  539MOL0     C72643   6.423   1.478   3.208 -0.8728 -1.0773  0.1382
  539MOL0     C72644   6.507   1.449   3.334  0.4423  0.0061  1.4372
  539MOL0     C72645   6.598   1.572   3.363 -0.4366  0.5143  0.4426
  539MOL0     C72646   6.678   1.565   3.492 -0.0576  0.3497  0.4840
  539MOL0     N72647   6.772   1.454   3.506  0.0290  0.3701 -0.2551
  539MOL0     C72648   6.755   1.327   3.559 -0.4179 -0.2048  0.2843
  539MOL0     C72649   6.885   1.274   3.565  0.1507 -0.4561  0.5291
  539MOL0     C72650   6.914   1.131   3.600  0.5323 -0.1333  0.1014
  539MOL0     C72651   6.890   1.113   3.754  0.0187 -0.1708 -0.5917
  539MOL0     C72652   6.890   0.963   3.804 -0.1215 -0.0880 -0.1195
  539MOL0     C72653   7.019   0.892   3.804  0.1793 -0.6534  0.7206
  539MOL0     O72654   7.006   0.754   3.851 -0.2005 -0.0435  0.3265
  539MOL0     C72655   7.115   0.678   3.856 -0.5117 -0.3950  0.1024
  539MOL0     C72656   7.095   0.538   3.864  0.9028  0.6377 -0.3541
  539MOL0     C72657   7.204   0.446   3.868 -0.1707  0.9755  1.2151
  539MOL0     C72658   7.337   0.498   3.868 -0.3010 -0.1249 -0.6396
  539MOL0     C72659   7.454   0.412   3.882  0.1169 -0.6277 -0.4050
  539MOL0     O72660   7.571   0.485   3.893  0.4607 -0.1010 -0.3589
  539MOL0     C72661   7.686   0.416   3.927 -0.1925 -0.2461 -0.0002
  539MOL0     C72662   7.724   0.296   3.865 -0.5193 -0.1372 -0.6281
  539MOL0     C72663   7.850   0.235   3.881 -0.8276  0.0046 -0.0216
  539MOL0     C72664   7.945   0.301   3.957 -0.5318 -0.5797 -0.1451
  539MOL0     O72665   8.071   0.259   3.980 -0.4180  0.9209 -0.0536
  539MOL0     C72666   8.136   0.203   3.862 -0.0888  0.3600 -0.8571
  539MOL0     C72667   8.273   0.168   3.910 -0.1536  0.2735  0.0828
  539MOL0     C72668   8.375   0.141   3.798  0.3305 -0.4893 -0.0395
  539MOL0     C72669   8.511   0.087   3.857  0.4497 -0.7315  0.5045
  539MOL0     C72670   8.585   0.000   3.750 -0.9362  0.1108 -1.0615
  539MOL0     C72671   8.732   0.003   3.777 -1.3064  0.9396 -0.4959
  539MOL0     C72672   8.809  -0.069   3.670 -0.0027  0.4913 -0.5383
  539MOL0     C72673   8.958  -0.070   3.709 -0.6340  0.3581  0.5080
  539MOL0    Cl72674   9.038   0.078   3.670  0.3026 -0.0204 -0.2175
  539MOL0     C72675   7.902   0.417   4.034 -0.2312  0.1584 -0.2677
  539MOL0     C72676   7.773   0.473   4.011  0.4224 -0.3500  0.4395
  539MOL0     O72677   7.441   0.289   3.896 -0.0309  0.3733 -0.1723
  539MOL0     C72678   7.359   0.638   3.870  0.1944  0.0704  0.4065
  539MOL0     C72679   7.246   0.724   3.865 -0.0994  0.8419  0.1079
  539MOL0     N72680   6.968   1.362   3.502 -0.4450  0.4857  0.0062
  539MOL0     N72681   6.904   1.467   3.466 -0.6447 -0.3616  0.6196
  539MOL0     C72682   5.678   1.532   2.973  0.2300 -1.2311  0.3438
  539MOL0     C72683   5.556   1.489   2.912  0.1981 -0.7418 -0.3317
  539MOL0     C72684   5.150   1.359   2.827  0.4540 -0.8171 -0.6802
  539MOL0     C72685   5.104   1.334   2.691 -0.0098  0.5613 -0.8904
  539MOL0     C72686   4.973   1.344   2.656 -0.2229  0.0612  0.9817
  539MOL0     C72687   4.874   1.367   2.752 -0.0215  0.3929  0.0151
  539MOL0     O72688   4.742   1.368   2.718  0.8991 -0.5179 -0.2707
  539MOL0     C72689   4.696   1.403   2.593 -0.4010 -0.3611 -0.5774
  539MOL0     C72690   4.653   1.281   2.516  0.0537 -0.6996 -0.2370
  539MOL0     C72691   4.526   1.210   2.566 -0.9426  0.4541 -0.2715
  539MOL0     C72692   4.402   1.285   2.548 -0.9346  0.0323  0.2955
  539MOL0     C72693   4.304   1.231   2.650 -0.0826 -0.2533 -1.0148
  539MOL0     C72694   4.216   1.191   2.727  0.2309 -0.6476 -0.1632
  539MOL0     C72695   4.918   1.377   2.883 -0.0573 -0.8003 -0.6800
  539MOL0     C72696   5.051   1.376   2.928 -0.5085 -0.4347  1.0284
  539MOL0     C72697   5.075   1.383   3.075  0.0383  0.5829  0.3619
  539MOL0     H72698   5.351   1.520   3.169  0.3256  0.6624  0.9810
  539MOL0     H72699   5.590   1.577   3.286 -1.6538  0.2140 -0.0058
  539MOL0     H72700   5.919   1.427   3.112 -1.8586 -0.0153  0.7069
  539MOL0     H72701   5.949   1.584   3.033  0.5231  0.2721 -0.2784
  539MOL0     H72702   6.017   1.516   3.318 -2.4906 -0.7054 -1.8304
  539MOL0     H72703   6.040   1.678   3.245 -0.7319  0.6815 -1.3195
  539MOL0     H72704   6.193   1.579   3.080  1.5142  1.6344  1.5367
  539MOL0     H72705   6.163   1.411   3.143 -0.9629  0.6012 -1.9078
  539MOL0     H72706   6.295   1.642   3.291  0.6449 -0.0775 -1.0125
  539MOL0     H72707   6.261   1.493   3.352  0.3210  1.2555  0.5551
  539MOL0     H72708   6.407   1.390   3.145  0.6523 -1.0349 -0.3320
  539MOL0     H72709   6.475   1.547   3.142  0.0031 -2.8574 -1.1225
  539MOL0     H72710   6.445   1.440   3.424  0.5087  0.4486  1.5309
  539MOL0     H72711   6.570   1.360   3.322  0.5480  0.3619 -1.1598
  539MOL0     H72712   6.540   1.664   3.373  0.5567  0.9326  3.2689
  539MOL0     H72713   6.682   1.583   3.294  0.1537  0.7039  1.1713
  539MOL0     H72714   6.726   1.663   3.502  2.9497 -0.6740 -2.1439
  539MOL0     H72715   6.610   1.550   3.576 -1.4510  1.0367 -0.4989
  539MOL0     H72716   6.666   1.278   3.597 -1.3289 -2.3060 -3.9869
  539MOL0     H72717   6.844   1.062   3.552 -0.4214  1.2029 -0.4967
  539MOL0     H72718   7.013   1.109   3.560 -1.2104 -0.6550 -4.4776
  539MOL0     H72719   6.954   1.179   3.813  0.2401  1.0660 -2.1478
  539MOL0     H72720   6.794   1.157   3.780  0.4083 -1.9588  5.1896
  539MOL0     H72721   6.830   0.900   3.737  1.0984 -2.3243  0.7967
  539MOL0     H72722   6.858   0.955   3.908 -2.2577 -1.0098 -0.7941
  539MOL0     H72723   7.089   0.951   3.864  1.2004 -1.8816  0.7801
  539MOL0     H72724   7.066   0.890   3.705 -0.6478  1.3785  0.2538
  539MOL0     H72725   6.990   0.509   3.867  0.6637  1.4333 -0.6556
  539MOL0     H72726   7.170   0.343   3.860  1.0701  0.6354 -0.3576
  539MOL0     H72727   7.653   0.240   3.805 -0.3026 -2.6582  1.3165
  539MOL0     H72728   7.851   0.135   3.839 -0.4338 -0.2715  0.6238
  539MOL0     H72729   8.084   0.116   3.820 -0.2953  0.6059 -1.1171
  539MOL0     H72730   8.150   0.271   3.777  4.4344  0.8585  0.0718
  539MOL0     H72731   8.307   0.250   3.973  1.9166 -0.4525 -0.0107
  539MOL0     H72732   8.260   0.077   3.969 -2.0615  0.5785  0.2170
  539MOL0     H72733   8.329   0.065   3.735  2.8854 -1.3494 -0.9694
  539MOL0     H72734   8.391   0.228   3.734  0.0960 -2.1528 -2.4757
  539MOL0     H72735   8.491   0.020   3.942  0.3276  0.4082  1.3981
  539MOL0     H72736   8.571   0.166   3.903 -0.7351 -1.2599  3.2001
  539MOL0     H72737   8.570   0.034   3.647 -0.2559  0.9416 -0.8935
  539MOL0     H72738   8.546  -0.101   3.762  0.0371 -0.2197 -0.6505
  539MOL0     H72739   8.769   0.106   3.776  4.0678 -0.6556 -1.9214
  539MOL0     H72740   8.756  -0.041   3.874 -0.5507  0.8340 -0.7221
  539MOL0     H72741   8.805  -0.016   3.574 -3.1278  1.1915 -0.1326
  539MOL0     H72742   8.772  -0.172   3.662  1.8154 -0.6740  3.3736
  539MOL0     H72743   8.960  -0.094   3.816  1.0803 -1.0251  0.2114
  539MOL0     H72744   9.010  -0.151   3.657 -1.9020  1.3298 -2.4665
  539MOL0     H72745   7.970   0.476   4.095 -0.5936  3.2801 -2.6039
  539MOL0     H72746   7.734   0.568   4.049 -2.6657 -1.3376  0.0466
  539MOL0     H72747   7.454   0.689   3.884  0.9146 -0.3054 -2.4615
  539MOL0     H72748   7.271   0.829   3.864 -0.7699  1.0920  2.6515
  539MOL0     H72749   5.763   1.548   2.907 -1.4425  0.3320 -1.5365
  539MOL0     H72750   5.549   1.477   2.804 -3.0255  2.4259 -0.6624
  539MOL0     H72751   5.172   1.319   2.608  0.9720 -0.5177  0.0734
  539MOL0     H72752   4.944   1.342   2.552 -0.7704 -1.0519  1.1340
  539MOL0     H72753   4.771   1.463   2.540 -2.3715  1.3600 -1.5506
  539MOL0     H72754   4.608   1.463   2.619  0.1350 -0.9883  3.3148
  539MOL0     H72755   4.737   1.211   2.519  1.1806  0.6250  2.4523
  539MOL0     H72756   4.641   1.321   2.415 -0.4835  2.5145  0.9764
  539MOL0     H72757   4.552   1.191   2.670 -0.9698 -0.7069 -0.4708
  539MOL0     H72758   4.520   1.115   2.512 -0.1853 -1.3304  2.6062
  539MOL0     H72759   4.409   1.392   2.568  1.7764 -0.0344  0.0476
  539MOL0     H72760   4.362   1.265   2.448  0.3570  0.2142 -0.2717
  539MOL0     H72761   4.150   1.160   2.805  0.4574 -1.2063 -0.1885
  539MOL0     H72762   4.842   1.393   2.960 -0.1575  2.5228 -1.3044
  539MOL0     H72763   5.142   1.299   3.098  0.1240 -0.0439 -1.9263
  539MOL0     H72764   5.128   1.474   3.104  1.0243  0.4886 -1.0233
  539MOL0     H72765   4.983   1.361   3.130 -0.9118 -0.2081 -1.4595
  540MOL0     O72766  11.272  10.966   9.722 -0.1316  0.6143 -0.6559
  540MOL0     C72767  11.189  11.051   9.693  0.0905 -0.6419 -0.2690
  540MOL0     O72768  11.222  11.171   9.633 -0.1984 -0.0408  0.3765
  540MOL0     C72769  11.353  11.193   9.643  0.6591  0.3574  0.4299
  540MOL0     C72770  11.421  11.154   9.521  1.0228 -0.6517  0.3197
  540MOL0     C72771  11.560  11.175   9.527  0.1793  0.5502  0.2536
  540MOL0     C72772  11.625  11.235   9.635  0.1085  0.3865 -0.7740
  540MOL0     O72773  11.760  11.260   9.632  0.0341  0.0611  0.1176
  540MOL0     C72774  11.845  11.206   9.735 -0.2525  1.0362  0.5796
  540MOL0     C72775  11.993  11.238   9.723  0.1424 -0.0785  0.4382
  540MOL0     C72776  12.030  11.353   9.815 -0.7018 -0.3808  0.7914
  540MOL0     C72777  12.183  11.367   9.822 -0.6014 -0.1361  0.6693
  540MOL0     C72778  12.209  11.512   9.869 -0.5024 -1.0759 -0.2458
  540MOL0     C72779  12.358  11.544   9.879 -0.2358 -0.7829 -0.1840
  540MOL0     C72780  12.392  11.691   9.909  0.8274  0.0813 -1.0667
  540MOL0     C72781  12.400  11.782   9.784 -1.4266 -0.0976  0.0329
  540MOL0     N72782  12.453  11.920   9.815  1.0117 -0.3417 -0.4373
  540MOL0     C72783  12.583  11.944   9.847 -0.1918 -1.5948 -0.3723
  540MOL0     C72784  12.595  12.073   9.867  0.3029  0.6596  1.0977
  540MOL0     C72785  12.717  12.155   9.895 -0.0205 -0.2140 -0.1068
  540MOL0     C72786  12.809  12.173   9.782 -0.5101 -0.3884 -0.1698
  540MOL0     C72787  12.943  12.236   9.830  0.3873 -0.5278 -0.0964
  540MOL0     C72788  13.007  12.314   9.721 -0.1033 -0.0288  0.5525
  540MOL0     O72789  13.101  12.404   9.776 -0.4424  0.0346  0.3991
  540MOL0     C72790  13.234  12.375   9.789 -0.5570 -0.5551 -0.3292
  540MOL0     C72791  13.315  12.486   9.806  0.0092  0.3596 -0.8535
  540MOL0     C72792  13.448  12.467   9.836  0.2172 -0.9065  0.2175
  540MOL0     C72793  13.508  12.342   9.839 -0.6050 -0.0515  1.6520
  540MOL0     C72794  13.656  12.327   9.871  0.2217 -0.0765 -0.1382
  540MOL0     O72795  13.711  12.434   9.931  0.3466 -0.1030  0.7057
  540MOL0     C72796  13.847  12.440   9.949  0.7003  0.5188  0.7292
  540MOL0     C72797  13.950  12.383   9.869 -0.2569  0.0578 -0.4367
  540MOL0     C72798  14.086  12.402   9.900  0.4586  0.9931 -0.0590
  540MOL0     C72799  14.128  12.484  10.001  0.0095  0.5572  0.3206
  540MOL0     O72800  14.256  12.512  10.042 -0.1829  0.0372  0.8415
  540MOL0     C72801  14.360  12.446   9.975  0.7652 -0.3103  0.4813
  540MOL0     C72802  14.502  12.450  10.035  0.3692 -0.1257 -0.1511
  540MOL0     C72803  14.566  12.595  10.047 -0.1297 -0.0415  0.6922
  540MOL0     C72804  14.672  12.601  10.152 -0.9793 -0.2355 -0.7118
  540MOL0     C72805  14.794  12.511  10.140  0.4507  0.3297 -0.0664
  540MOL0     C72806  14.865  12.534  10.006  0.2453  0.7351 -0.1789
  540MOL0     C72807  14.978  12.430   9.982  0.1459  0.5925  1.0091
  540MOL0     C72808  15.105  12.465  10.048  0.1369 -0.8666  0.6679
  540MOL0    Cl72809  15.221  12.332  10.015  0.2726  0.0789 -0.2023
  540MOL0     C72810  14.030  12.558  10.071  0.1789  0.6390 -0.7810
  540MOL0     C72811  13.893  12.535  10.040  0.3817  0.3755 -0.9966
  540MOL0     O72812  13.717  12.225   9.853 -0.8516  0.7552  0.4433
  540MOL0     C72813  13.434  12.232   9.803  0.7959 -0.7045  0.7402
  540MOL0     C72814  13.293  12.246   9.779 -0.1865  0.1270  0.0759
  540MOL0     N72815  12.468  12.125   9.849 -0.1997  0.3220 -0.0741
  540MOL0     N72816  12.378  12.033   9.827 -0.1589  0.5417 -0.3540
  540MOL0     C72817  11.554  11.283   9.744 -0.1741  0.0509 -0.5387
  540MOL0     C72818  11.418  11.261   9.746  0.1481  0.3633  0.0875
  540MOL0     C72819  11.054  11.030   9.691  0.0866 -0.6788  0.6311
  540MOL0     C72820  10.970  11.118   9.763 -0.2386 -0.0311 -0.3509
  540MOL0     C72821  10.832  11.099   9.776 -0.8479  0.5166  0.2413
  540MOL0     C72822  10.773  10.988   9.700 -0.8129  0.5338 -0.4388
  540MOL0     O72823  10.639  10.980   9.714 -0.2050  0.2194 -0.1037
  540MOL0     C72824  10.578  10.855   9.684 -0.0043  0.0143 -0.2074
  540MOL0     C72825  10.632  10.741   9.776  0.1271 -0.3022 -0.0314
  540MOL0     C72826  10.543  10.614   9.774 -0.3926  0.4747 -0.1917
  540MOL0     C72827  10.553  10.544   9.642  0.0633 -0.1365  0.9097
  540MOL0     C72828  10.450  10.444   9.630 -0.3118  0.8435 -0.7557
  540MOL0     C72829  10.356  10.363   9.640 -0.9165 -0.3349  1.0410
  540MOL0     C72830  10.859  10.909   9.616  0.3243  0.1843  1.2479
  540MOL0     C72831  10.996  10.924   9.619  0.2361 -0.0972 -0.4895
  540MOL0     C72832  11.076  10.819   9.544 -0.3259  0.2767  0.6672
  540MOL0     H72833  11.364  11.120   9.435  1.0818 -1.2356  0.5107
  540MOL0     H72834  11.620  11.148   9.441  0.2671 -3.4547  1.3706
  540MOL0     H72835  11.809  11.232   9.835 -3.8068 -0.2592 -0.2023
  540MOL0     H72836  11.838  11.097   9.727 -0.0008  0.9447  1.4528
  540MOL0     H72837  12.027  11.254   9.621 -1.0721 -0.8320 -0.0976
  540MOL0     H72838  12.043  11.150   9.763  1.1996  0.9231  1.4200
  540MOL0     H72839  11.996  11.333   9.917  0.0934 -0.3368  1.0715
  540MOL0     H72840  11.984  11.447   9.785 -1.4337 -0.8627  0.3613
  540MOL0     H72841  12.224  11.282   9.878 -0.3939 -0.7015 -0.3091
  540MOL0     H72842  12.224  11.361   9.721 -0.9634 -0.2807  0.5276
  540MOL0     H72843  12.176  11.589   9.798  3.2611  2.4326  1.4084
  540MOL0     H72844  12.157  11.526   9.964 -0.8814 -3.7427 -0.0030
  540MOL0     H72845  12.402  11.493   9.965  2.1731 -0.3122 -1.0517
  540MOL0     H72846  12.414  11.505   9.794 -0.3731 -0.6781 -0.3234
  540MOL0     H72847  12.491  11.691   9.955  1.1079 -1.5359 -1.5868
  540MOL0     H72848  12.312  11.725   9.975  0.5401  0.0574 -1.3954
  540MOL0     H72849  12.462  11.734   9.708 -1.1323  0.0572  0.1735
  540MOL0     H72850  12.303  11.789   9.733 -1.7328 -3.7929 -0.1470
  540MOL0     H72851  12.657  11.864   9.849  0.1624 -1.3805 -2.3682
  540MOL0     H72852  12.680  12.257   9.911  2.1843  0.6392 -0.0997
  540MOL0     H72853  12.766  12.129   9.989 -3.8689 -2.3241  1.5629
  540MOL0     H72854  12.827  12.078   9.729  0.1257  0.8428 -2.2681
  540MOL0     H72855  12.773  12.245   9.708  1.2462  2.1966  1.3676
  540MOL0     H72856  13.003  12.154   9.869 -0.9254 -0.7987  1.4603
  540MOL0     H72857  12.934  12.305   9.914  2.0107  0.9698 -1.0867
  540MOL0     H72858  12.929  12.370   9.668 -1.3132 -0.0577  2.2390
  540MOL0     H72859  13.049  12.245   9.648 -1.0630  0.7116 -0.7510
  540MOL0     H72860  13.270  12.584   9.804 -2.8548 -0.7102  1.7656
  540MOL0     H72861  13.506  12.558   9.840  1.4225 -1.6408 -0.1100
  540MOL0     H72862  13.946  12.312   9.787 -1.0634  0.3935 -0.7047
  540MOL0     H72863  14.154  12.343   9.838 -1.8304  0.1334 -1.9130
  540MOL0     H72864  14.331  12.341   9.965  1.0336 -0.3662  0.2613
  540MOL0     H72865  14.369  12.486   9.874 -0.5957 -2.2070 -0.4480
  540MOL0     H72866  14.491  12.409  10.136 -3.0913 -0.4605 -0.5555
  540MOL0     H72867  14.561  12.382   9.973 -0.9165  1.4733 -3.3447
  540MOL0     H72868  14.592  12.630   9.947 -1.0839  1.8940  1.0693
  540MOL0     H72869  14.489  12.664  10.083  0.2644  1.1273 -0.6261
  540MOL0     H72870  14.635  12.577  10.253  2.5129 -0.0032  0.7521
  540MOL0     H72871  14.713  12.702  10.148  1.8461 -1.0228  2.8927
  540MOL0     H72872  14.765  12.405  10.147 -0.8486  0.5866 -1.2119
  540MOL0     H72873  14.864  12.529  10.223  0.1525 -1.6103  0.6829
  540MOL0     H72874  14.799  12.526   9.919  1.6533  1.9589 -1.4291
  540MOL0     H72875  14.899  12.638  10.001  1.8098  0.2768  0.2921
  540MOL0     H72876  15.001  12.435   9.875 -0.5678  2.2434  0.8977
  540MOL0     H72877  14.951  12.330  10.015 -0.3827  0.9496  1.6878
  540MOL0     H72878  15.134  12.563  10.009  0.4420 -1.6480 -1.1575
  540MOL0     H72879  15.086  12.476  10.155  0.8359 -0.3037  0.7407
  540MOL0     H72880  14.061  12.616  10.157  1.1866  0.3176 -0.9180
  540MOL0     H72881  13.812  12.587  10.091  1.4983  2.4448 -1.2254
  540MOL0     H72882  13.486  12.137   9.801  3.0879  0.4725 -1.1245
  540MOL0     H72883  13.227  12.167   9.744 -0.4902  1.0808 -1.6445
  540MOL0     H72884  11.613  11.333   9.820  0.4513 -1.5353  0.0543
  540MOL0     H72885  11.359  11.301   9.828 -0.5024 -1.5113  0.5899
  540MOL0     H72886  11.011  11.208   9.806 -1.6023  2.9042 -4.5447
  540MOL0     H72887  10.766  11.165   9.831 -0.1218  0.6000  1.0296
  540MOL0     H72888  10.592  10.818   9.583 -0.4556 -0.0611 -0.2444
  540MOL0     H72889  10.471  10.870   9.699  0.2801 -0.0977  2.5201
  540MOL0     H72890  10.655  10.778   9.877 -2.2942  1.1429  0.0549
  540MOL0     H72891  10.735  10.718   9.746  0.4830  0.1579  0.7920
  540MOL0     H72892  10.441  10.640   9.803 -0.9537 -2.9642  1.3265
  540MOL0     H72893  10.582  10.548   9.851  1.6493  0.7343 -0.9151
  540MOL0     H72894  10.528  10.621   9.569 -1.8709  1.4779  3.1233
  540MOL0     H72895  10.650  10.501   9.614 -0.7615  0.2652 -3.1864
  540MOL0     H72896  10.283  10.288   9.663  1.4306 -3.9952 -2.2287
  540MOL0     H72897  10.806  10.847   9.544 -0.3408  1.1281  0.8920
  540MOL0     H72898  11.049  10.713   9.558  1.1529 -0.4150 -1.3027
  540MOL0     H72899  11.056  10.845   9.440  1.3934 -1.5264 -0.1843
  540MOL0     H72900  11.183  10.838   9.553  0.1233 -0.8034 -1.6104
  541MOL0     O72901  11.143   8.227  10.750 -0.1069  0.4886 -0.5793
  541MOL0     C72902  11.152   8.348  10.761  0.2665  0.1303  0.2642
  541MOL0     O72903  11.264   8.412  10.717 -0.6171 -0.9070  0.2965
  541MOL0     C72904  11.362   8.366  10.627 -0.1376 -0.2455 -0.5532
  541MOL0     C72905  11.359   8.250  10.540 -0.2881 -0.6339 -0.0907
  541MOL0     C72906  11.474   8.226  10.457  0.5788 -0.1922  0.2642
  541MOL0     C72907  11.585   8.311  10.462  0.1167 -0.2437  0.6472
  541MOL0     O72908  11.679   8.290  10.361  0.5575  0.4012 -0.5428
  541MOL0     C72909  11.817   8.284  10.387 -0.9057 -0.8551  0.1842
  541MOL0     C72910  11.903   8.421  10.389 -0.1111 -0.8588  0.3228
  541MOL0     C72911  12.042   8.386  10.420 -0.6430 -0.5827 -0.1221
  541MOL0     C72912  12.138   8.466  10.330  0.4731 -0.2734  0.6107
  541MOL0     C72913  12.291   8.421  10.347  1.0161 -0.3078  0.9129
  541MOL0     C72914  12.372   8.476  10.233  0.4265  0.8081  0.0380
  541MOL0     C72915  12.506   8.400  10.234  0.0042  0.0472  0.7673
  541MOL0     C72916  12.610   8.481  10.162  0.2925 -0.7000 -0.0589
  541MOL0     N72917  12.749   8.441  10.179  0.2292  1.3773  0.2832
  541MOL0     C72918  12.827   8.492  10.277 -0.4999  0.1324  0.1433
  541MOL0     C72919  12.942   8.421  10.268  0.0718 -0.5193 -0.0934
  541MOL0     C72920  13.069   8.452  10.357  0.2024  0.3308  0.9091
  541MOL0     C72921  13.176   8.515  10.266  1.6240 -0.2531 -0.0200
  541MOL0     C72922  13.240   8.422  10.159  0.3008 -0.3154  0.1858
  541MOL0     C72923  13.333   8.317  10.222 -1.0484 -0.7758  0.0277
  541MOL0     O72924  13.427   8.374  10.320  0.0516 -0.0915  0.4330
  541MOL0     C72925  13.545   8.305  10.324  0.1491  0.1643 -0.2060
  541MOL0     C72926  13.647   8.374  10.261 -0.2013  0.3115 -1.3632
  541MOL0     C72927  13.773   8.327  10.274  0.5441 -0.1842  0.4394
  541MOL0     C72928  13.801   8.208  10.346  0.0352 -0.6192 -0.6703
  541MOL0     C72929  13.940   8.153  10.358 -0.1275  0.0993  0.1280
  541MOL0     O72930  14.031   8.243  10.303 -0.0308  0.5743  0.3943
  541MOL0     C72931  14.164   8.214  10.334  0.3790 -1.2661 -0.3069
  541MOL0     C72932  14.267   8.232  10.242 -0.6930  0.2142 -0.7312
  541MOL0     C72933  14.404   8.218  10.284  0.1047 -0.1286  0.2316
  541MOL0     C72934  14.438   8.192  10.418 -1.2009 -0.2898  0.3173
  541MOL0     O72935  14.556   8.149  10.476  0.6103  0.0430 -0.5230
  541MOL0     C72936  14.676   8.175  10.404 -0.7804  0.1444  0.5650
  541MOL0     C72937  14.785   8.108  10.483  0.1887 -0.7463 -0.1266
  541MOL0     C72938  14.934   8.137  10.438  1.5016 -0.2887 -0.4738
  541MOL0     C72939  15.031   8.082  10.546  0.1722  0.0555 -0.0888
  541MOL0     C72940  15.175   8.103  10.515 -0.3468  0.0860 -0.0897
  541MOL0     C72941  15.265   8.030  10.624 -0.2601  0.2469  0.3154
  541MOL0     C72942  15.415   8.076  10.622  0.2004  1.0083 -1.5722
  541MOL0     C72943  15.515   8.016  10.720 -0.4527  1.4176 -0.3965
  541MOL0    Cl72944  15.667   8.112  10.728 -0.1970 -0.0533  0.2066
  541MOL0     C72945  14.341   8.186  10.511 -0.2198  0.3081 -0.4099
  541MOL0     C72946  14.203   8.190  10.470 -0.0696  0.6355 -0.5114
  541MOL0     O72947  13.965   8.050  10.427 -0.0648 -0.4834 -0.5687
  541MOL0     C72948  13.697   8.138  10.401  0.3136 -0.1987  0.1473
  541MOL0     C72949  13.564   8.187  10.394  0.3936  0.6238 -0.0487
  541MOL0     N72950  12.930   8.328  10.163  0.7840  0.2875  0.5877
  541MOL0     N72951  12.803   8.338  10.115  0.2609 -0.4164  0.2335
  541MOL0     C72952  11.588   8.415  10.556  0.5963  0.6319  0.9393
  541MOL0     C72953  11.483   8.440  10.634 -0.0570 -0.4157 -0.2826
  541MOL0     C72954  11.047   8.432  10.844 -0.1928  0.3147  0.3758
  541MOL0     C72955  11.083   8.565  10.886  0.2462 -0.6849 -0.2741
  541MOL0     C72956  10.993   8.651  10.957  0.2963  0.4193 -0.5415
  541MOL0     C72957  10.868   8.598  10.991  0.6208 -0.5847  0.5517
  541MOL0     O72958  10.767   8.667  11.055  0.7859  0.0790 -0.1945
  541MOL0     C72959  10.750   8.811  11.044 -0.1541  0.7679  0.2117
  541MOL0     C72960  10.772   8.858  11.186  0.3009  0.2761 -0.4808
  541MOL0     C72961  10.646   8.835  11.268 -0.2496  0.7362 -0.1213
  541MOL0     C72962  10.630   8.688  11.323 -0.1214 -0.1034  0.2766
  541MOL0     C72963  10.520   8.675  11.424 -0.3199  0.2087 -0.1504
  541MOL0     C72964  10.450   8.678  11.528  0.3430  0.2179 -0.0056
  541MOL0     C72965  10.829   8.467  10.944  0.6877  0.1111 -0.0553
  541MOL0     C72966  10.919   8.387  10.872 -0.8258 -0.2449 -0.2553
  541MOL0     C72967  10.861   8.256  10.825  0.0260  0.1779  0.1603
  541MOL0     H72968  11.279   8.178  10.528 -1.9540  1.4112 -2.1802
  541MOL0     H72969  11.471   8.140  10.391 -2.2273  1.7300 -2.3929
  541MOL0     H72970  11.836   8.233  10.482  0.5806  0.6226  0.7278
  541MOL0     H72971  11.854   8.222  10.306 -0.8466 -0.1345 -0.3520
  541MOL0     H72972  11.862   8.491  10.462  2.5435 -0.1633  1.2343
  541MOL0     H72973  11.898   8.451  10.284 -0.8471 -1.2894  0.2288
  541MOL0     H72974  12.068   8.280  10.411  0.3686 -0.3295 -0.3181
  541MOL0     H72975  12.071   8.412  10.522 -1.0970  0.3232 -0.2142
  541MOL0     H72976  12.116   8.446  10.225  1.7210 -2.0947  0.6401
  541MOL0     H72977  12.125   8.573  10.347 -0.1729 -0.1324 -0.7341
  541MOL0     H72978  12.324   8.443  10.449 -2.6560  1.5908  1.8900
  541MOL0     H72979  12.303   8.314  10.328 -0.6094 -0.4109  0.2445
  541MOL0     H72980  12.313   8.451  10.144  0.0385  0.9165  0.2595
  541MOL0     H72981  12.392   8.584  10.232  3.2745  0.3410  0.3577
  541MOL0     H72982  12.501   8.310  10.171 -0.7705  1.3538 -1.1259
  541MOL0     H72983  12.531   8.369  10.336 -1.8085 -4.8977  0.0081
  541MOL0     H72984  12.595   8.480  10.054  1.4115 -0.3149 -0.2296
  541MOL0     H72985  12.594   8.587  10.187 -1.5418 -0.7016 -1.0654
  541MOL0     H72986  12.817   8.579  10.341 -0.9808 -0.2883  0.6466
  541MOL0     H72987  13.059   8.525  10.437  1.4147  0.1701  1.2287
  541MOL0     H72988  13.115   8.360  10.396  1.6906  0.2105 -0.9674
  541MOL0     H72989  13.134   8.602  10.215  2.8098  1.5982  1.9996
  541MOL0     H72990  13.249   8.561  10.333 -0.6127  0.7724  1.8498
  541MOL0     H72991  13.296   8.493  10.097  1.0701  0.1773  1.4128
  541MOL0     H72992  13.170   8.379  10.087  2.3983  1.5190 -3.1909
  541MOL0     H72993  13.381   8.276  10.133  0.9204 -0.9904  1.1436
  541MOL0     H72994  13.274   8.239  10.270  0.1226 -0.8218  1.4539
  541MOL0     H72995  13.619   8.464  10.208 -2.9729  0.1280 -0.3698
  541MOL0     H72996  13.853   8.391  10.238  0.6093  0.8961  2.3776
  541MOL0     H72997  14.235   8.259  10.142 -1.1004  1.5261 -0.2647
  541MOL0     H72998  14.481   8.211  10.208 -0.6464 -0.8719 -0.4784
  541MOL0     H72999  14.675   8.121  10.309  0.0011 -3.0108  2.2256
  541MOL0     H73000  14.694   8.280  10.380 -1.9794  0.3657  0.5726
  541MOL0     H73001  14.774   8.144  10.586 -1.0340 -0.8190 -0.2195
  541MOL0     H73002  14.763   8.001  10.485  1.4344 -1.0200  1.2857
  541MOL0     H73003  14.955   8.086  10.344  1.4976 -0.4302 -0.3976
  541MOL0     H73004  14.942   8.246  10.430 -0.2912 -0.0003  0.8552
  541MOL0     H73005  15.009   7.975  10.558 -2.7703  0.6681  0.6291
  541MOL0     H73006  15.001   8.126  10.641 -0.9112 -1.1628  0.1686
  541MOL0     H73007  15.190   8.211  10.525  0.1039  0.2120 -1.7783
  541MOL0     H73008  15.200   8.071  10.413 -1.5283 -1.4608  0.0776
  541MOL0     H73009  15.225   8.041  10.725 -1.2356  2.0600 -0.2368
  541MOL0     H73010  15.268   7.924  10.595 -0.6393  0.6423 -1.2653
  541MOL0     H73011  15.416   8.185  10.637 -0.2254  0.7529  0.6159
  541MOL0     H73012  15.456   8.055  10.522  1.6406  1.0410 -1.0107
  541MOL0     H73013  15.473   8.017  10.822 -0.9932 -1.4022 -0.5201
  541MOL0     H73014  15.543   7.913  10.700  1.4820  2.1325 -1.5712
  541MOL0     H73015  14.372   8.174  10.614  2.4789 -2.5180 -1.3911
  541MOL0     H73016  14.124   8.189  10.544  0.0543 -0.6742 -0.3614
  541MOL0     H73017  13.710   8.050  10.463  1.7558  0.6722  1.1180
  541MOL0     H73018  13.481   8.125  10.425  0.1910  1.4105  1.0605
  541MOL0     H73019  11.681   8.471  10.561  1.4603 -0.4885 -1.0933
  541MOL0     H73020  11.488   8.532  10.692  2.2283  0.3048 -1.5092
  541MOL0     H73021  11.186   8.592  10.870  0.8704 -1.9855  1.2503
  541MOL0     H73022  11.032   8.748  10.987  1.2773 -0.1684  0.1141
  541MOL0     H73023  10.651   8.839  11.007  1.2815  1.4147 -3.6092
  541MOL0     H73024  10.812   8.869  10.975 -1.1665 -0.5490 -1.9015
  541MOL0     H73025  10.774   8.967  11.182 -3.6247  0.4676 -1.0157
  541MOL0     H73026  10.866   8.823  11.230  0.8069 -1.0609 -2.4563
  541MOL0     H73027  10.557   8.873  11.215  0.1859 -0.3311 -1.6729
  541MOL0     H73028  10.647   8.888  11.364 -0.0979 -0.6289  0.6577
  541MOL0     H73029  10.609   8.618  11.242 -0.9309  0.9467 -0.4487
  541MOL0     H73030  10.721   8.663  11.379 -0.3911  2.3971  2.0047
  541MOL0     H73031  10.398   8.677  11.622 -2.2520 -0.5286 -1.3301
  541MOL0     H73032  10.729   8.437  10.973  1.3341 -1.0584  1.0357
  541MOL0     H73033  10.907   8.184  10.892 -1.2741 -0.9825 -0.1484
  541MOL0     H73034  10.751   8.253  10.832 -0.0146  1.0285  0.0483
  541MOL0     H73035  10.884   8.241  10.719 -0.7389 -2.5086  0.3010
  542MOL0     O73036   2.990   0.509   9.995 -0.0408  0.4243 -0.2083
  542MOL0     C73037   2.920   0.603   9.983 -0.0357 -0.2959 -1.3464
  542MOL0     O73038   2.964   0.726   9.951 -0.7356 -0.2600 -0.2655
  542MOL0     C73039   3.102   0.739   9.925  0.4532 -0.7519 -0.5591
  542MOL0     C73040   3.188   0.732  10.032 -0.2370 -0.1009 -0.5124
  542MOL0     C73041   3.320   0.765  10.027 -1.3428  0.3779  0.4858
  542MOL0     C73042   3.374   0.824   9.908 -0.2501  0.1388 -0.4345
  542MOL0     O73043   3.507   0.859   9.905  1.3755 -0.7361  0.3319
  542MOL0     C73044   3.581   0.814   9.788  0.6113 -0.2575  0.6759
  542MOL0     C73045   3.727   0.867   9.785  0.1308  0.2779 -0.0098
  542MOL0     C73046   3.808   0.797   9.674 -0.0611  0.8948  0.6179
  542MOL0     C73047   3.957   0.835   9.665  0.2067  0.7531  0.6828
  542MOL0     C73048   4.037   0.710   9.610  0.0558  0.4805 -0.3895
  542MOL0     C73049   4.044   0.727   9.457 -0.3002  0.1562 -0.6807
  542MOL0     C73050   4.143   0.620   9.403 -0.6712  0.1848 -0.1467
  542MOL0     C73051   4.160   0.619   9.250 -0.6476 -0.2775  0.1587
  542MOL0     N73052   4.300   0.579   9.212  1.5200 -0.6134  0.0778
  542MOL0     C73053   4.324   0.475   9.135  0.2348  0.2967  0.1366
  542MOL0     C73054   4.458   0.480   9.108  0.4349  0.7928  0.1618
  542MOL0     C73055   4.533   0.394   9.016  0.3346  0.7463  0.3696
  542MOL0     C73056   4.684   0.398   9.024 -0.2272  0.5993 -0.0070
  542MOL0     C73057   4.750   0.343   9.150  0.8341  0.6886  0.0203
  542MOL0     C73058   4.897   0.374   9.141  0.7233 -0.0083 -0.4367
  542MOL0     O73059   4.948   0.296   9.033  0.2633  0.8340 -0.5219
  542MOL0     C73060   5.078   0.315   8.988 -0.6086 -0.6663  0.3241
  542MOL0     C73061   5.123   0.292   8.855 -0.1262  0.3119 -0.7918
  542MOL0     C73062   5.255   0.319   8.818  0.4782  0.5568 -0.0739
  542MOL0     C73063   5.349   0.370   8.905  0.0498  0.4140 -0.0359
  542MOL0     C73064   5.479   0.416   8.855  0.2639  0.4738  0.1751
  542MOL0     O73065   5.547   0.493   8.946 -0.1548  0.3739  0.3755
  542MOL0     C73066   5.678   0.525   8.928  0.4500  0.0091 -0.7128
  542MOL0     C73067   5.777   0.434   8.901  0.1028  0.3050  0.0398
  542MOL0     C73068   5.910   0.484   8.883 -0.1396  0.0403 -0.2825
  542MOL0     C73069   5.945   0.622   8.889 -0.1632 -0.4313  0.2511
  542MOL0     O73070   6.075   0.674   8.868  0.6342 -0.0731 -0.2099
  542MOL0     C73071   6.182   0.584   8.833 -0.3599  0.6589 -0.2116
  542MOL0     C73072   6.301   0.669   8.819 -0.0782 -0.8483  0.1566
  542MOL0     C73073   6.433   0.600   8.790  0.2904  0.5609 -0.6622
  542MOL0     C73074   6.538   0.706   8.779  0.5265 -0.0754 -0.3581
  542MOL0     C73075   6.682   0.651   8.745  0.4893  0.3226  0.4006
  542MOL0     C73076   6.739   0.576   8.871  0.9384  0.5345 -0.0746
  542MOL0     C73077   6.802   0.436   8.849  0.2167 -0.6507  0.9577
  542MOL0     C73078   6.932   0.440   8.778 -0.3631  0.9248  0.9963
  542MOL0    Cl73079   7.054   0.515   8.877 -0.1342  0.2436 -0.0114
  542MOL0     C73080   5.837   0.709   8.915  0.1124  0.2209  0.0682
  542MOL0     C73081   5.709   0.661   8.937 -0.2470 -0.5710  0.1234
  542MOL0     O73082   5.517   0.377   8.742 -0.1018 -0.5211  0.4487
  542MOL0     C73083   5.300   0.402   9.036 -0.0904  0.4175  0.1964
  542MOL0     C73084   5.174   0.363   9.081 -1.2358  0.1874 -0.3746
  542MOL0     N73085   4.503   0.598   9.163  0.0773  0.2080 -0.4065
  542MOL0     N73086   4.411   0.655   9.234  0.9296 -0.1137 -0.1511
  542MOL0     C73087   3.290   0.831   9.801 -0.2225 -0.9714  1.0035
  542MOL0     C73088   3.154   0.784   9.806 -0.2002 -0.0723 -0.4353
  542MOL0     C73089   2.770   0.565   9.973 -0.4440 -0.5421 -0.4841
  542MOL0     C73090   2.672   0.667   9.941  0.0707  0.4398 -0.8687
  542MOL0     C73091   2.546   0.631   9.926  0.4212 -0.2028  0.8902
  542MOL0     C73092   2.491   0.500   9.912 -0.0674 -0.2818  0.4857
  542MOL0     O73093   2.365   0.471   9.873  0.5145  0.0561 -0.3795
  542MOL0     C73094   2.268   0.554   9.934  0.1358 -0.1441  0.5396
  542MOL0     C73095   2.136   0.492   9.909 -0.2399  0.7481  0.4025
  542MOL0     C73096   2.119   0.356   9.974  0.1143  0.1672 -0.7775
  542MOL0     C73097   1.972   0.319   9.971 -0.2929 -0.0192  0.0409
  542MOL0     C73098   1.904   0.254   9.853  0.2573 -0.1873 -0.1340
  542MOL0     C73099   1.828   0.206   9.770  0.7098  0.7499 -0.1090
  542MOL0     C73100   2.575   0.398   9.945 -0.7813 -0.0923  0.0960
  542MOL0     C73101   2.711   0.429   9.979 -0.3677  0.2863  0.5366
  542MOL0     C73102   2.798   0.305   9.991 -1.0259 -0.0510 -0.6552
  542MOL0     H73103   3.149   0.693  10.125 -1.0748 -1.6793 -1.4781
  542MOL0     H73104   3.391   0.743  10.106 -3.6840 -2.8143  1.9430
  542MOL0     H73105   3.577   0.705   9.793 -4.1533 -0.4596 -2.2329
  542MOL0     H73106   3.538   0.858   9.698  0.5487  1.0943  1.3484
  542MOL0     H73107   3.763   0.828   9.880  2.7181  0.1697 -0.9633
  542MOL0     H73108   3.730   0.975   9.768 -2.2023  0.7433  2.0090
  542MOL0     H73109   3.771   0.818   9.574  2.5466 -0.8237 -0.8057
  542MOL0     H73110   3.795   0.690   9.693 -0.5476  0.9887  0.8282
  542MOL0     H73111   3.993   0.920   9.607  0.8444 -0.4728 -0.7825
  542MOL0     H73112   3.991   0.852   9.768 -1.3434 -0.2910  1.3892
  542MOL0     H73113   4.133   0.701   9.662  1.4184 -1.0507 -2.9787
  542MOL0     H73114   3.984   0.615   9.623  0.7989  0.0327 -0.5638
  542MOL0     H73115   3.946   0.711   9.411  0.4952 -2.8894 -1.5614
  542MOL0     H73116   4.086   0.828   9.454  0.1321 -0.0262 -0.9491
  542MOL0     H73117   4.092   0.528   9.431  0.3575 -0.6668 -0.9761
  542MOL0     H73118   4.241   0.621   9.452 -0.6128 -0.1777 -0.2517
  542MOL0     H73119   4.090   0.553   9.198 -0.4418  0.7763 -1.5095
  542MOL0     H73120   4.141   0.721   9.218 -2.0067 -1.5737 -3.6581
  542MOL0     H73121   4.244   0.409   9.103 -1.1959  1.9436  0.1705
  542MOL0     H73122   4.501   0.289   9.013 -0.8519  1.0938  0.3285
  542MOL0     H73123   4.510   0.441   8.920  0.1454  3.1166  1.5154
  542MOL0     H73124   4.712   0.332   8.942 -1.5834  0.4931 -0.4177
  542MOL0     H73125   4.723   0.497   8.999  1.5575  0.0614  0.4936
  542MOL0     H73126   4.731   0.236   9.166 -1.5108  1.1076  0.4628
  542MOL0     H73127   4.703   0.395   9.234 -0.6295  2.0896 -1.5805
  542MOL0     H73128   4.943   0.348   9.237  1.8383 -0.0566 -0.9758
  542MOL0     H73129   4.899   0.482   9.129 -1.5620  0.0249 -1.0281
  542MOL0     H73130   5.051   0.248   8.786 -1.2006 -0.7241  0.9125
  542MOL0     H73131   5.281   0.317   8.712  3.1604 -1.3048  0.5386
  542MOL0     H73132   5.750   0.330   8.885 -1.4618  0.6218  0.5168
  542MOL0     H73133   5.987   0.411   8.863 -1.1055 -0.9307 -0.5579
  542MOL0     H73134   6.198   0.519   8.919 -4.3209 -0.9049 -0.4556
  542MOL0     H73135   6.159   0.518   8.749 -0.9084  0.6813 -0.0847
  542MOL0     H73136   6.290   0.730   8.729 -1.1082  0.0704  0.8841
  542MOL0     H73137   6.304   0.737   8.905 -1.3956  0.1073 -0.5225
  542MOL0     H73138   6.463   0.540   8.877  0.8804 -0.0192 -1.2576
  542MOL0     H73139   6.419   0.526   8.710 -2.0156 -0.9749  1.0414
  542MOL0     H73140   6.543   0.755   8.877 -2.2994 -1.3237  0.5030
  542MOL0     H73141   6.513   0.788   8.711  1.9674 -0.5467 -1.4864
  542MOL0     H73142   6.748   0.734   8.717 -1.2638  0.8731 -2.4499
  542MOL0     H73143   6.678   0.590   8.654  0.4444 -0.8797  1.1857
  542MOL0     H73144   6.809   0.637   8.929  0.9084  1.4633 -0.9780
  542MOL0     H73145   6.661   0.558   8.945 -1.1875 -0.7133 -2.4643
  542MOL0     H73146   6.727   0.363   8.817 -0.3009  0.3322 -0.1244
  542MOL0     H73147   6.822   0.401   8.951 -2.5656 -2.4296  0.9969
  542MOL0     H73148   6.959   0.338   8.749 -0.5570  1.1561 -0.0448
  542MOL0     H73149   6.914   0.491   8.683 -1.6530 -1.0180  0.1455
  542MOL0     H73150   5.857   0.816   8.924  0.2274  0.2454 -0.4721
  542MOL0     H73151   5.624   0.723   8.962 -1.4305 -2.9847  2.6194
  542MOL0     H73152   5.366   0.447   9.109  1.6561  2.2583 -2.3576
  542MOL0     H73153   5.146   0.390   9.182 -2.2663  1.2517 -0.9203
  542MOL0     H73154   3.311   0.873   9.703 -0.5887 -2.2653  0.3453
  542MOL0     H73155   3.078   0.777   9.729  0.6312 -0.0310 -1.2650
  542MOL0     H73156   2.697   0.773   9.944  0.4944  0.4107  3.2401
  542MOL0     H73157   2.486   0.720   9.911  2.0516  0.6083 -1.3286
  542MOL0     H73158   2.261   0.652   9.887  3.2673  0.5416  1.2958
  542MOL0     H73159   2.285   0.577  10.039 -0.9864  1.4012  0.4082
  542MOL0     H73160   2.105   0.492   9.804 -0.1647 -0.4642  0.3626
  542MOL0     H73161   2.062   0.558   9.955 -2.1645 -1.7153  1.0306
  542MOL0     H73162   2.148   0.371  10.078 -2.2082  1.7430 -0.2646
  542MOL0     H73163   2.182   0.280   9.928  0.6603  1.4013 -2.1296
  542MOL0     H73164   1.959   0.256  10.060 -1.7954 -1.5303 -1.1740
  542MOL0     H73165   1.913   0.409   9.993 -0.9327 -0.0036 -1.5925
  542MOL0     H73166   1.758   0.153   9.708  2.4171 -1.9352  0.1384
  542MOL0     H73167   2.553   0.292   9.941  0.1543 -0.3051  0.4521
  542MOL0     H73168   2.854   0.294   9.898 -1.0200  1.0596 -0.7929
  542MOL0     H73169   2.871   0.309  10.073  1.2834 -2.8062 -2.3546
  542MOL0     H73170   2.746   0.213  10.019  0.2424 -0.8571 -0.8637
  543MOL0     O73171   4.929   5.284   6.876 -0.1886  0.2223  0.2385
  543MOL0     C73172   4.891   5.293   6.997  1.2520  0.2574  0.3819
  543MOL0     O73173   4.959   5.362   7.093  0.0039  0.0933 -0.3398
  543MOL0     C73174   5.072   5.426   7.069 -0.4081 -0.3377 -0.3052
  543MOL0     C73175   5.066   5.558   7.112 -0.6916  1.1649 -0.4296
  543MOL0     C73176   5.183   5.645   7.090 -0.0965  0.3236  1.0086
  543MOL0     C73177   5.299   5.583   7.040 -0.3216 -0.5230  0.5598
  543MOL0     O73178   5.426   5.648   7.030 -0.3150 -0.0322 -0.0683
  543MOL0     C73179   5.431   5.780   7.077  0.2937 -0.2057  0.1503
  543MOL0     C73180   5.563   5.843   7.063  0.0314  0.1527  0.1299
  543MOL0     C73181   5.671   5.772   7.156  0.5339  0.9607 -0.0039
  543MOL0     C73182   5.813   5.831   7.130  0.7285  0.7479  0.1491
  543MOL0     C73183   5.919   5.772   7.229  0.2786 -0.6207  0.2609
  543MOL0     C73184   6.064   5.803   7.178 -0.0973  0.0475 -0.6120
  543MOL0     C73185   6.180   5.733   7.250 -0.9263 -0.5170  0.2895
  543MOL0     C73186   6.177   5.589   7.278 -0.5156 -0.4817 -0.8705
  543MOL0     N73187   6.172   5.562   7.421 -0.8300  0.3580 -0.0983
  543MOL0     C73188   6.063   5.567   7.509  0.2795  1.6023 -0.4005
  543MOL0     C73189   6.106   5.514   7.623 -0.2225  0.8166  0.4273
  543MOL0     C73190   6.041   5.491   7.752 -0.3539  0.2483 -0.4165
  543MOL0     C73191   5.891   5.450   7.754  0.1330  0.2346 -0.0118
  543MOL0     C73192   5.861   5.300   7.745  0.0971  0.2937 -0.8565
  543MOL0     C73193   5.712   5.271   7.762  0.8575 -0.3896  0.6050
  543MOL0     O73194   5.705   5.128   7.762 -0.3820 -0.2624 -0.0726
  543MOL0     C73195   5.588   5.059   7.754  1.1167  0.6184 -0.2810
  543MOL0     C73196   5.468   5.117   7.713  0.1224 -0.3109 -0.7895
  543MOL0     C73197   5.348   5.051   7.698 -0.8309  0.2143  0.4241
  543MOL0     C73198   5.344   4.909   7.718  0.4761  0.3623  0.7903
  543MOL0     C73199   5.224   4.827   7.714  0.6755  0.2496  0.5038
  543MOL0     O73200   5.110   4.900   7.703  0.5529 -0.1193  0.1026
  543MOL0     C73201   4.986   4.838   7.723 -0.1748  0.0976  0.8961
  543MOL0     C73202   4.953   4.703   7.705  0.2073  0.2481 -0.4453
  543MOL0     C73203   4.821   4.649   7.736  0.1849 -0.9020  0.2058
  543MOL0     C73204   4.715   4.735   7.759 -0.2034  0.1231 -0.5376
  543MOL0     O73205   4.604   4.668   7.790  1.0939 -0.6903 -0.1293
  543MOL0     C73206   4.484   4.749   7.829  0.4943 -0.5869  0.1386
  543MOL0     C73207   4.348   4.679   7.835  0.1767 -0.0225  0.5258
  543MOL0     C73208   4.248   4.751   7.929 -1.1131 -0.4034 -0.1616
  543MOL0     C73209   4.112   4.678   7.936 -0.0388 -0.3860 -0.2675
  543MOL0     C73210   3.995   4.783   7.969  0.4748  0.1890  0.0823
  543MOL0     C73211   3.873   4.697   7.999  0.1800  0.1496  0.1985
  543MOL0     C73212   3.755   4.786   8.024  0.1503  0.3068 -0.0344
  543MOL0     C73213   3.620   4.713   8.065  1.2638  0.3979  0.0952
  543MOL0    Cl73214   3.635   4.611   8.215  0.3710 -0.0788 -0.1052
  543MOL0     C73215   4.742   4.871   7.764 -0.0195 -0.3569 -0.0879
  543MOL0     C73216   4.875   4.925   7.745 -0.2589 -0.0543 -0.2554
  543MOL0     O73217   5.233   4.704   7.724  1.0265  0.7572 -0.4589
  543MOL0     C73218   5.465   4.850   7.769  0.1392  0.1571  0.0055
  543MOL0     C73219   5.589   4.916   7.769  0.3072 -0.4285 -0.1100
  543MOL0     N73220   6.244   5.485   7.619 -0.5052 -0.5457  0.9047
  543MOL0     N73221   6.286   5.517   7.499 -0.2634  0.7800  0.4852
  543MOL0     C73222   5.301   5.452   7.005 -0.0241 -0.3053 -0.1825
  543MOL0     C73223   5.189   5.362   7.017 -0.2592  0.2117  0.4010
  543MOL0     C73224   4.759   5.231   7.042 -0.2534 -0.6729  0.6612
  543MOL0     C73225   4.679   5.301   7.142 -0.2763  0.5070 -0.2815
  543MOL0     C73226   4.548   5.257   7.172 -0.6715  0.0893 -0.3492
  543MOL0     C73227   4.495   5.142   7.107  0.2067  0.4474  0.0514
  543MOL0     O73228   4.368   5.085   7.122 -0.8801 -0.2064 -0.0731
  543MOL0     C73229   4.264   5.157   7.202 -0.2297 -0.4075 -0.0091
  543MOL0     C73230   4.170   5.248   7.129 -0.3523  0.2784 -0.2230
  543MOL0     C73231   4.052   5.182   7.060 -0.2413  0.1621  0.2827
  543MOL0     C73232   3.913   5.169   7.137 -0.5349  0.0154 -0.0671
  543MOL0     C73233   3.807   5.104   7.059 -1.0809  0.1484 -0.5426
  543MOL0     C73234   3.719   5.054   6.998 -0.7306  0.1762  0.7547
  543MOL0     C73235   4.572   5.087   7.005 -0.0348 -0.1543 -0.6511
  543MOL0     C73236   4.700   5.123   6.975 -0.1644  0.1756  0.5063
  543MOL0     C73237   4.763   5.050   6.857  0.2895 -0.5970  0.1034
  543MOL0     H73238   4.974   5.592   7.159  0.6725  2.0380  1.7528
  543MOL0     H73239   5.179   5.747   7.126 -0.0401  0.8515 -0.4205
  543MOL0     H73240   5.356   5.831   7.015 -0.9407 -0.5966  1.2716
  543MOL0     H73241   5.403   5.776   7.182  0.1562 -2.3857  0.0823
  543MOL0     H73242   5.557   5.949   7.087  2.0261  0.4693 -0.5682
  543MOL0     H73243   5.598   5.834   6.960  2.6511  1.0248  0.8637
  543MOL0     H73244   5.677   5.667   7.126 -1.4602  0.4665  1.1337
  543MOL0     H73245   5.643   5.775   7.262  0.9844 -0.6402  0.1893
  543MOL0     H73246   5.835   5.811   7.024  0.0827  1.2778 -0.0912
  543MOL0     H73247   5.807   5.940   7.139 -0.1964  0.7777 -0.6459
  543MOL0     H73248   5.903   5.814   7.329  2.5110 -1.2241  0.9413
  543MOL0     H73249   5.907   5.663   7.237 -0.3546 -0.5172  0.7959
  543MOL0     H73250   6.060   5.765   7.076 -3.3046 -1.3421 -0.0920
  543MOL0     H73251   6.077   5.911   7.165 -2.5225  0.4443 -0.3824
  543MOL0     H73252   6.210   5.786   7.340  2.0010 -0.3798 -0.6769
  543MOL0     H73253   6.264   5.739   7.180 -2.4028 -0.3242 -1.5618
  543MOL0     H73254   6.089   5.554   7.223  0.8039 -1.2061 -2.6241
  543MOL0     H73255   6.267   5.544   7.234  1.8671  2.4157  0.6575
  543MOL0     H73256   5.963   5.602   7.485 -1.2621 -2.7411 -1.3138
  543MOL0     H73257   6.095   5.416   7.812  1.4025  2.6455  1.1824
  543MOL0     H73258   6.043   5.589   7.801  2.9373 -0.4369  1.0502
  543MOL0     H73259   5.844   5.495   7.842 -2.8187 -0.1713 -1.2540
  543MOL0     H73260   5.837   5.500   7.673 -1.7210  0.0869  1.0771
  543MOL0     H73261   5.919   5.244   7.819 -1.4201 -0.1797  0.0145
  543MOL0     H73262   5.896   5.261   7.648  1.0515  2.8696 -1.6156
  543MOL0     H73263   5.658   5.314   7.677  4.0033  1.0061 -0.8314
  543MOL0     H73264   5.665   5.313   7.851  0.9821 -0.9588  0.9469
  543MOL0     H73265   5.459   5.223   7.695  0.0108 -0.3325 -0.8614
  543MOL0     H73266   5.254   5.102   7.680 -0.7707 -0.0217 -0.6409
  543MOL0     H73267   5.024   4.626   7.677 -0.2097 -1.1326  1.8994
  543MOL0     H73268   4.806   4.543   7.720  1.2834 -0.6988 -2.9606
  543MOL0     H73269   4.494   4.791   7.930 -3.3717  0.1274  0.3684
  543MOL0     H73270   4.473   4.842   7.774 -3.0783 -1.4565 -0.8782
  543MOL0     H73271   4.292   4.683   7.741 -0.3391  0.6131  0.8498
  543MOL0     H73272   4.359   4.573   7.857  0.6848 -0.5781 -2.0862
  543MOL0     H73273   4.298   4.756   8.026 -1.6299 -1.7158  0.2042
  543MOL0     H73274   4.243   4.851   7.887 -0.7826 -0.3330 -0.0354
  543MOL0     H73275   4.113   4.599   8.012  0.2313 -0.4204 -0.3080
  543MOL0     H73276   4.083   4.630   7.842  0.6177  1.2056 -1.3334
  543MOL0     H73277   3.973   4.842   7.879  0.2784 -0.6280 -0.4168
  543MOL0     H73278   4.018   4.856   8.048 -0.4240 -0.3142  0.8273
  543MOL0     H73279   3.850   4.625   7.920 -1.2091  1.7342 -0.9107
  543MOL0     H73280   3.884   4.629   8.084  0.8868  0.0173  0.0044
  543MOL0     H73281   3.749   4.866   7.950  0.9264  0.7493  0.3605
  543MOL0     H73282   3.774   4.841   8.117  1.0751 -0.9755  0.5566
  543MOL0     H73283   3.539   4.786   8.068 -0.5965 -1.3288 -2.8301
  543MOL0     H73284   3.588   4.645   7.985 -0.5425  1.8035 -0.4426
  543MOL0     H73285   4.665   4.943   7.789  0.1924  0.3989 -1.5256
  543MOL0     H73286   4.899   5.031   7.742  0.6137 -0.2273  0.3141
  543MOL0     H73287   5.461   4.746   7.799  0.4645  1.0650  3.7134
  543MOL0     H73288   5.682   4.866   7.792  2.2256  2.3481 -1.3543
  543MOL0     H73289   5.400   5.417   6.976  2.1722  4.3914  0.7842
  543MOL0     H73290   5.200   5.258   6.991 -1.1043 -0.0389  1.0218
  543MOL0     H73291   4.732   5.387   7.181  0.9877  0.5817 -2.0214
  543MOL0     H73292   4.504   5.310   7.256 -2.0473  1.6583 -1.9630
  543MOL0     H73293   4.317   5.205   7.286  0.1536 -3.5538  1.6721
  543MOL0     H73294   4.203   5.084   7.255 -2.3766  1.9681  1.0536
  543MOL0     H73295   4.226   5.295   7.048  1.2904 -1.9926 -0.5200
  543MOL0     H73296   4.132   5.320   7.201 -0.2396  0.4920 -0.3770
  543MOL0     H73297   4.090   5.084   7.029 -0.7255  0.3831 -1.1172
  543MOL0     H73298   4.042   5.226   6.960  0.5364 -0.5244 -0.1093
  543MOL0     H73299   3.921   5.105   7.226  1.6287 -1.6478 -1.3571
  543MOL0     H73300   3.892   5.267   7.181  2.2708  0.2548  0.9676
  543MOL0     H73301   3.643   4.998   6.947  0.7168  1.3073 -2.9555
  543MOL0     H73302   4.527   5.002   6.955  0.0816 -0.1037 -0.8415
  543MOL0     H73303   4.729   5.090   6.761  0.2834 -0.7596  0.0365
  543MOL0     H73304   4.872   5.059   6.857  0.1536  1.4047 -0.8453
  543MOL0     H73305   4.736   4.944   6.855 -2.2074 -0.0118 -2.2813
  544MOL0     O73306   7.317   5.257   2.185 -0.4600 -0.6471 -0.4629
  544MOL0     C73307   7.268   5.284   2.078 -0.6127 -0.2487  0.4153
  544MOL0     O73308   7.340   5.328   1.975 -0.0895  0.3667 -0.0154
  544MOL0     C73309   7.480   5.346   1.979  1.0076 -0.2985 -0.4532
  544MOL0     C73310   7.531   5.458   1.913 -0.4566 -0.3870 -0.0681
  544MOL0     C73311   7.665   5.497   1.931  0.5112  0.6784 -1.0247
  544MOL0     C73312   7.760   5.418   1.995 -0.2574  0.0560 -0.4689
  544MOL0     O73313   7.886   5.463   2.016  0.0260 -0.5274 -0.2750
  544MOL0     C73314   7.953   5.411   2.131  0.2280 -0.2272  0.2983
  544MOL0     C73315   8.104   5.446   2.144 -0.1276  0.8000 -0.0989
  544MOL0     C73316   8.180   5.372   2.256 -0.3431 -0.7143 -0.4429
  544MOL0     C73317   8.331   5.395   2.247 -0.1157 -0.1691 -0.1197
  544MOL0     C73318   8.408   5.347   2.375  0.3452 -0.7902  0.1788
  544MOL0     C73319   8.553   5.394   2.362 -0.5561 -0.1248  0.0863
  544MOL0     C73320   8.650   5.379   2.487  0.0350 -1.0410  0.3066
  544MOL0     C73321   8.594   5.454   2.613 -0.6001  0.4258 -0.3284
  544MOL0     N73322   8.694   5.457   2.712  0.4578 -0.5690  0.0105
  544MOL0     C73323   8.784   5.560   2.719 -0.2785 -0.0813  0.1109
  544MOL0     C73324   8.872   5.516   2.815  0.1752  0.1887  0.6674
  544MOL0     C73325   8.999   5.587   2.852 -0.5870 -0.1207  0.4122
  544MOL0     C73326   9.101   5.500   2.928 -0.0397  0.3026  0.2246
  544MOL0     C73327   9.243   5.550   2.928  0.7960  0.1068  0.3328
  544MOL0     C73328   9.341   5.453   2.998  0.3788 -0.9370 -0.4605
  544MOL0     O73329   9.470   5.521   3.003  0.3241 -0.1293  0.0348
  544MOL0     C73330   9.575   5.454   3.066 -0.3389  0.7264 -0.3506
  544MOL0     C73331   9.702   5.495   3.034  0.1789 -0.2245 -1.0900
  544MOL0     C73332   9.804   5.440   3.105  0.4677  0.2717 -0.1233
  544MOL0     C73333   9.789   5.342   3.211 -0.7589  0.5089 -0.5041
  544MOL0     C73334   9.906   5.289   3.281 -0.2737 -0.0591  0.1244
  544MOL0     O73335  10.028   5.353   3.267  0.0984 -0.4791  0.4188
  544MOL0     C73336  10.148   5.304   3.318  1.2055  1.0725 -0.3405
  544MOL0     C73337  10.268   5.322   3.251 -0.8172  0.1115  0.7444
  544MOL0     C73338  10.393   5.282   3.303  0.0203  0.0965  0.0728
  544MOL0     C73339  10.392   5.239   3.436 -0.5746  0.3495 -0.4455
  544MOL0     O73340  10.503   5.192   3.508 -0.6314  0.4224 -0.0150
  544MOL0     C73341  10.615   5.133   3.442  0.3898 -0.1289  0.1770
  544MOL0     C73342  10.720   5.116   3.556  0.2347 -0.2331  0.3097
  544MOL0     C73343  10.752   5.251   3.611  0.2090  0.4559 -0.8528
  544MOL0     C73344  10.890   5.241   3.678  0.5519  0.8152 -0.1609
  544MOL0     C73345  10.991   5.309   3.602 -0.5534  0.3945  1.1672
  544MOL0     C73346  11.132   5.249   3.635 -0.3761  0.4889  0.3724
  544MOL0     C73347  11.250   5.321   3.559 -0.0149  0.7300 -0.1663
  544MOL0     C73348  11.267   5.471   3.589 -0.2744 -0.0587  0.1385
  544MOL0    Cl73349  11.427   5.516   3.539 -0.0609  0.0133  0.1343
  544MOL0     C73350  10.271   5.222   3.499 -0.8688  1.0099  0.3924
  544MOL0     C73351  10.147   5.245   3.442  0.3757  0.3903 -0.0980
  544MOL0     O73352   9.891   5.179   3.341  0.4050  0.1968  0.3438
  544MOL0     C73353   9.662   5.292   3.228 -0.3164 -0.4778  1.0438
  544MOL0     C73354   9.551   5.352   3.160 -0.4313 -0.0736  0.2388
  544MOL0     N73355   8.836   5.395   2.865  0.5683 -0.2455  0.2483
  544MOL0     N73356   8.721   5.361   2.805 -0.7022 -0.6289  0.0302
  544MOL0     C73357   7.716   5.290   2.042  0.1543 -0.6098  0.0469
  544MOL0     C73358   7.574   5.258   2.038  0.6381 -0.7375  0.0439
  544MOL0     C73359   7.123   5.270   2.057  0.3480  0.1574  0.8011
  544MOL0     C73360   7.054   5.382   1.997  0.3051  0.5153  0.8051
  544MOL0     C73361   6.916   5.365   1.970  0.4069  0.0439 -0.3634
  544MOL0     C73362   6.854   5.242   2.004 -0.3186  0.0020 -0.2344
  544MOL0     O73363   6.721   5.215   1.967 -0.3919  0.0843  0.4117
  544MOL0     C73364   6.700   5.236   1.826 -0.5476  0.0365  0.5226
  544MOL0     C73365   6.569   5.167   1.797  0.8641 -0.1699  0.7795
  544MOL0     C73366   6.536   5.189   1.650  0.1601  0.0538  0.2918
  544MOL0     C73367   6.408   5.118   1.612  0.9351  0.1991  0.8746
  544MOL0     C73368   6.299   5.147   1.708 -0.1363  0.5351  0.6643
  544MOL0     C73369   6.208   5.175   1.780  0.0131  0.1072 -0.4146
  544MOL0     C73370   6.923   5.136   2.057  0.5902 -0.6040  0.6198
  544MOL0     C73371   7.053   5.149   2.082 -0.6239  0.9831  0.0569
  544MOL0     C73372   7.128   5.023   2.127 -1.7187 -0.1110 -0.3200
  544MOL0     H73373   7.465   5.532   1.869 -0.1705  0.9221  1.5936
  544MOL0     H73374   7.693   5.593   1.888 -1.1874  0.9004 -1.7220
  544MOL0     H73375   7.906   5.441   2.224  2.8004  0.6953  1.4092
  544MOL0     H73376   7.947   5.302   2.138  1.1916 -0.1914  2.2197
  544MOL0     H73377   8.110   5.554   2.159  1.0627  0.6594  0.5887
  544MOL0     H73378   8.147   5.427   2.045 -1.2919  4.0939 -1.3677
  544MOL0     H73379   8.160   5.264   2.251 -1.7646 -0.5311  0.5672
  544MOL0     H73380   8.143   5.404   2.354  1.0050  0.8792 -0.4136
  544MOL0     H73381   8.367   5.346   2.156  1.0034 -0.7584  0.6146
  544MOL0     H73382   8.351   5.503   2.237 -0.8936  0.1832  1.6603
  544MOL0     H73383   8.370   5.396   2.465  3.3596  2.8066 -0.2321
  544MOL0     H73384   8.411   5.239   2.394  3.4047 -0.7334  0.5514
  544MOL0     H73385   8.591   5.349   2.270  1.2636 -1.7599  1.5502
  544MOL0     H73386   8.547   5.503   2.350 -1.6770 -0.3348 -1.4586
  544MOL0     H73387   8.751   5.407   2.455  0.2888 -2.3916 -0.1272
  544MOL0     H73388   8.667   5.274   2.512  0.7177 -1.0318 -0.0981
  544MOL0     H73389   8.561   5.554   2.580  0.2224  1.6822  2.4030
  544MOL0     H73390   8.509   5.406   2.662 -2.5745  3.2587 -0.7272
  544MOL0     H73391   8.796   5.652   2.664 -0.9672 -0.9780 -1.6157
  544MOL0     H73392   9.055   5.618   2.763  1.9968 -1.2293  1.5342
  544MOL0     H73393   8.976   5.679   2.906 -0.7593  0.0799  0.0005
  544MOL0     H73394   9.068   5.489   3.031 -2.6067 -0.3071 -0.5977
  544MOL0     H73395   9.102   5.403   2.878  1.7002  0.6888 -0.5739
  544MOL0     H73396   9.241   5.647   2.979  0.0007  0.4779 -0.3958
  544MOL0     H73397   9.276   5.577   2.828  0.1635 -1.9738 -0.4836
  544MOL0     H73398   9.361   5.359   2.947  2.3275 -0.0197 -1.4908
  544MOL0     H73399   9.299   5.423   3.095  1.0543 -1.2402 -0.2485
  544MOL0     H73400   9.722   5.563   2.952 -0.8718  1.8355  0.2798
  544MOL0     H73401   9.903   5.483   3.093  1.5051 -1.8491  0.3605
  544MOL0     H73402  10.259   5.356   3.149 -0.4522  0.5526  0.8500
  544MOL0     H73403  10.471   5.285   3.227 -2.7180  0.6915 -2.9438
  544MOL0     H73404  10.593   5.043   3.384 -1.5129  0.8997 -0.7707
  544MOL0     H73405  10.665   5.195   3.367  1.3910 -1.3445 -0.2051
  544MOL0     H73406  10.684   5.051   3.636  3.0921 -1.0471  1.0409
  544MOL0     H73407  10.803   5.062   3.510 -1.2580 -1.4015 -1.1617
  544MOL0     H73408  10.751   5.331   3.537  1.8011 -0.2970 -1.7471
  544MOL0     H73409  10.680   5.272   3.690 -0.2735 -3.5609 -0.0197
  544MOL0     H73410  10.912   5.141   3.716 -0.4065  0.3732 -0.7170
  544MOL0     H73411  10.881   5.305   3.766  3.2027  1.4815 -0.3063
  544MOL0     H73412  10.975   5.417   3.596 -0.9164  0.3050  0.1317
  544MOL0     H73413  10.976   5.291   3.495 -4.7975  0.9703  1.4888
  544MOL0     H73414  11.158   5.250   3.741 -0.1583  2.1923  0.3352
  544MOL0     H73415  11.128   5.145   3.600 -1.3616  1.2932 -2.0670
  544MOL0     H73416  11.235   5.306   3.452  1.1357 -0.1181 -0.2393
  544MOL0     H73417  11.335   5.256   3.586 -2.9490 -2.4352  2.3849
  544MOL0     H73418  11.198   5.541   3.540 -0.5900  0.0141  0.6791
  544MOL0     H73419  11.263   5.497   3.695  0.0109  0.4469  0.0315
  544MOL0     H73420  10.283   5.179   3.598  1.4435  2.3252  0.7473
  544MOL0     H73421  10.061   5.234   3.506 -0.5368  0.0617 -1.3506
  544MOL0     H73422   9.641   5.212   3.298  1.0498 -0.8361  1.0595
  544MOL0     H73423   9.451   5.316   3.181 -0.0742 -2.6782 -1.9566
  544MOL0     H73424   7.778   5.219   2.095 -0.0254 -1.2707 -0.6163
  544MOL0     H73425   7.540   5.161   2.073  0.7137 -2.2882 -3.6909
  544MOL0     H73426   7.108   5.472   1.971 -1.4529  1.3290 -0.1763
  544MOL0     H73427   6.850   5.441   1.931  0.1952  1.3120  2.2656
  544MOL0     H73428   6.774   5.192   1.759 -0.7790 -0.7602  0.7691
  544MOL0     H73429   6.686   5.343   1.809  0.3346  0.4852  2.3263
  544MOL0     H73430   6.497   5.213   1.865  1.1067  0.0648  0.8790
  544MOL0     H73431   6.584   5.060   1.817  0.3823 -0.2026  0.9585
  544MOL0     H73432   6.611   5.146   1.583  0.7746  1.6754 -0.1184
  544MOL0     H73433   6.539   5.295   1.624 -2.5787  0.4508  1.2657
  544MOL0     H73434   6.384   5.156   1.512  0.4005  1.7448  1.5686
  544MOL0     H73435   6.423   5.010   1.597 -0.3794  0.2544 -1.2845
  544MOL0     H73436   6.127   5.216   1.837  0.2190 -0.4755  0.3122
  544MOL0     H73437   6.879   5.038   2.072  2.8019 -1.4913  1.7811
  544MOL0     H73438   7.059   4.942   2.150 -0.9768 -1.4040 -2.3725
  544MOL0     H73439   7.196   4.994   2.047  0.0116 -2.8085  1.9472
  544MOL0     H73440   7.184   5.050   2.217 -1.0841  0.8948 -0.9830
  545MOL0     O73441   2.772   2.055   0.846  0.2925 -0.3498 -0.1392
  545MOL0     C73442   2.664   2.038   0.905 -0.5617 -0.7886 -0.2560
  545MOL0     O73443   2.659   2.000   1.040  0.7377 -0.1994 -0.7296
  545MOL0     C73444   2.777   2.018   1.113 -0.7837  0.3310 -0.0259
  545MOL0     C73445   2.800   1.925   1.216 -0.4259 -0.3312 -0.7003
  545MOL0     C73446   2.899   1.958   1.312  0.0770 -0.4960 -0.6351
  545MOL0     C73447   2.971   2.079   1.306  0.5677  0.4470  0.4031
  545MOL0     O73448   3.063   2.097   1.401  0.1220  0.0847  0.6683
  545MOL0     C73449   3.187   2.130   1.348  0.1234 -0.1531 -0.3794
  545MOL0     C73450   3.283   2.113   1.467  0.0429  0.0536  0.0742
  545MOL0     C73451   3.425   2.148   1.410 -0.6591 -0.0966 -0.0576
  545MOL0     C73452   3.533   2.113   1.517  0.0444  0.9807  0.3589
  545MOL0     C73453   3.661   2.185   1.491  0.5041  0.8976 -0.7460
  545MOL0     C73454   3.771   2.137   1.601 -0.1216  0.5624 -0.4253
  545MOL0     C73455   3.912   2.182   1.557  0.3512 -0.5883  0.0786
  545MOL0     C73456   3.954   2.125   1.423 -0.4607  0.2104  0.2911
  545MOL0     N73457   4.102   2.119   1.399  0.1315 -0.7461  0.4263
  545MOL0     C73458   4.182   2.030   1.461  0.4370 -0.0469 -0.3606
  545MOL0     C73459   4.288   2.017   1.370 -0.3376 -0.3971  0.1518
  545MOL0     C73460   4.405   1.926   1.387 -0.6124  0.5645  0.4002
  545MOL0     C73461   4.539   1.988   1.416  1.1075 -0.7132  0.2736
  545MOL0     C73462   4.641   1.961   1.308  0.3457 -0.5582 -0.2081
  545MOL0     C73463   4.771   2.034   1.338 -0.3442 -0.2512  0.1194
  545MOL0     O73464   4.843   1.989   1.456  0.4094  0.2102  0.1138
  545MOL0     C73465   4.969   2.034   1.482 -0.1140  0.0066  0.7056
  545MOL0     C73466   5.044   2.113   1.399 -0.2671  0.3982 -0.4505
  545MOL0     C73467   5.165   2.156   1.448  0.1188 -0.0467  0.0780
  545MOL0     C73468   5.221   2.111   1.566  0.2656 -0.8570 -0.0963
  545MOL0     C73469   5.356   2.148   1.606 -0.2062  0.0003  0.2065
  545MOL0     O73470   5.394   2.111   1.735 -0.2129 -0.8504  0.2700
  545MOL0     C73471   5.527   2.135   1.792  0.2161  0.3402  0.1864
  545MOL0     C73472   5.622   2.227   1.749  0.5218 -0.0875 -0.2259
  545MOL0     C73473   5.739   2.241   1.819  0.6036 -0.7309 -0.1076
  545MOL0     C73474   5.774   2.166   1.933  0.0928 -0.5941  0.6776
  545MOL0     O73475   5.882   2.203   2.015  0.6493 -0.0082  0.1372
  545MOL0     C73476   5.992   2.255   1.934  0.3978 -0.3485 -0.2678
  545MOL0     C73477   6.102   2.297   2.032 -0.7135  0.1177  0.3296
  545MOL0     C73478   6.166   2.167   2.093  0.3938  0.2908  0.6673
  545MOL0     C73479   6.230   2.216   2.223 -0.2674  0.0576 -0.6598
  545MOL0     C73480   6.277   2.107   2.317  0.0749  0.2398 -0.1442
  545MOL0     C73481   6.407   2.041   2.274 -0.6257  0.6352 -0.0418
  545MOL0     C73482   6.525   2.144   2.280 -0.5184 -0.3353 -0.0319
  545MOL0     C73483   6.664   2.081   2.303 -0.2478 -0.7158  0.0000
  545MOL0    Cl73484   6.739   2.004   2.168 -0.1103 -0.1005  0.0314
  545MOL0     C73485   5.678   2.076   1.974 -0.8203 -0.1003  0.0507
  545MOL0     C73486   5.559   2.060   1.908 -0.6558  0.4952 -0.0571
  545MOL0     O73487   5.434   2.186   1.520  0.0855  0.2705  0.1293
  545MOL0     C73488   5.149   2.017   1.639  0.8456  0.7472  0.1856
  545MOL0     C73489   5.016   1.988   1.603 -0.2876 -0.1405 -0.2534
  545MOL0     N73490   4.263   2.098   1.259  0.1405  0.2273 -0.1942
  545MOL0     N73491   4.155   2.161   1.283  0.2746  0.1232  0.5584
  545MOL0     C73492   2.936   2.167   1.202  1.1060  1.0107 -0.0721
  545MOL0     C73493   2.836   2.138   1.112 -0.1954 -0.9646  0.0264
  545MOL0     C73494   2.541   2.044   0.822 -0.5454 -0.4789  0.7872
  545MOL0     C73495   2.550   2.027   0.682 -0.0689  0.4208  0.6458
  545MOL0     C73496   2.436   2.038   0.600  0.1136 -1.2695  0.3339
  545MOL0     C73497   2.312   2.074   0.652  0.4665  0.1816  0.2873
  545MOL0     O73498   2.206   2.085   0.561  0.0920  0.3734  0.8918
  545MOL0     C73499   2.080   2.131   0.617  1.0851 -0.6869  0.0824
  545MOL0     C73500   1.994   2.202   0.513 -0.5591 -0.2952  0.2522
  545MOL0     C73501   2.076   2.303   0.418 -0.5142 -0.3865  0.2517
  545MOL0     C73502   1.983   2.359   0.309 -0.1345  0.6279 -0.9490
  545MOL0     C73503   2.069   2.450   0.234 -0.3277 -0.3444  0.2526
  545MOL0     C73504   2.165   2.515   0.188  0.5663 -0.1221  0.3058
  545MOL0     C73505   2.306   2.090   0.796 -0.0451 -0.3795  0.2925
  545MOL0     C73506   2.417   2.083   0.872 -0.2454 -0.5501  0.1540
  545MOL0     C73507   2.387   2.092   1.017 -0.4668 -0.0701  0.0277
  545MOL0     H73508   2.725   1.848   1.232 -1.6003  0.5523 -1.6988
  545MOL0     H73509   2.929   1.893   1.394 -1.5846 -2.3201 -1.3905
  545MOL0     H73510   3.213   2.054   1.274  1.1976 -0.1810  0.0121
  545MOL0     H73511   3.193   2.224   1.292 -2.8231  0.0404 -0.4999
  545MOL0     H73512   3.281   2.011   1.507  2.9961  0.8055  2.5402
  545MOL0     H73513   3.266   2.171   1.558 -0.6761 -3.7809  2.5897
  545MOL0     H73514   3.434   2.254   1.387  1.3403 -0.1233  0.3655
  545MOL0     H73515   3.447   2.087   1.322  0.4166  0.6239 -0.3043
  545MOL0     H73516   3.505   2.145   1.618  0.4388  0.8343  0.5172
  545MOL0     H73517   3.548   2.005   1.526  0.0167  1.0738  1.6624
  545MOL0     H73518   3.688   2.159   1.388 -2.7146 -0.9626 -1.2745
  545MOL0     H73519   3.644   2.292   1.498 -2.2622  0.4183  2.9844
  545MOL0     H73520   3.744   2.182   1.697 -2.3873  0.7031 -1.0527
  545MOL0     H73521   3.772   2.028   1.607  2.6627  0.4753 -1.3042
  545MOL0     H73522   3.991   2.149   1.625 -0.1291 -0.0681  0.9076
  545MOL0     H73523   3.916   2.291   1.565  2.0245 -0.6341  0.0702
  545MOL0     H73524   3.924   2.020   1.412 -1.6884  0.8064 -3.4560
  545MOL0     H73525   3.908   2.186   1.345 -2.2830 -1.3091  0.1080
  545MOL0     H73526   4.162   1.977   1.553 -0.8653  2.0858  0.6600
  545MOL0     H73527   4.383   1.851   1.463 -1.0869  2.5007  2.2866
  545MOL0     H73528   4.409   1.867   1.295 -2.1547 -0.7632  1.1578
  545MOL0     H73529   4.528   2.097   1.415 -2.3990 -0.9427 -1.0973
  545MOL0     H73530   4.580   1.955   1.512 -1.1749 -3.0929  0.5288
  545MOL0     H73531   4.594   1.980   1.211 -3.3486  2.7879  1.9351
  545MOL0     H73532   4.671   1.857   1.320 -0.3251 -0.5930  1.5681
  545MOL0     H73533   4.754   2.142   1.337 -0.4396 -0.2676  0.0301
  545MOL0     H73534   4.846   2.005   1.264  0.8171 -2.7884  2.1042
  545MOL0     H73535   4.999   2.150   1.307  0.0620  1.0703 -0.3497
  545MOL0     H73536   5.217   2.232   1.392 -4.0176  2.8387 -0.3311
  545MOL0     H73537   5.595   2.284   1.660 -2.1974  0.6210  0.9616
  545MOL0     H73538   5.807   2.318   1.781 -0.4076 -0.1392 -0.7617
  545MOL0     H73539   6.035   2.175   1.874 -1.7954  0.4764 -3.1342
  545MOL0     H73540   5.966   2.348   1.883 -1.7541  1.0516  3.0058
  545MOL0     H73541   6.188   2.341   1.981  0.0998  0.8313  2.2137
  545MOL0     H73542   6.055   2.368   2.102  3.0471  0.3016  2.9613
  545MOL0     H73543   6.087   2.093   2.107  2.3793 -1.5973  2.8780
  545MOL0     H73544   6.236   2.120   2.023 -2.1501 -0.1562 -1.7350
  545MOL0     H73545   6.157   2.275   2.279 -0.9844 -1.5935  0.1884
  545MOL0     H73546   6.311   2.286   2.198 -0.6242  0.8991  0.4720
  545MOL0     H73547   6.206   2.026   2.334 -2.6590  2.5903  0.4947
  545MOL0     H73548   6.297   2.150   2.415 -1.4558  0.6086  0.0413
  545MOL0     H73549   6.431   1.958   2.340 -0.0473  0.4535 -0.4677
  545MOL0     H73550   6.395   2.002   2.172  1.0482  0.3502 -0.1511
  545MOL0     H73551   6.511   2.210   2.366 -1.0432 -1.1308  0.5075
  545MOL0     H73552   6.519   2.201   2.187  0.0235 -1.2458 -0.6384
  545MOL0     H73553   6.733   2.157   2.342 -0.4432  0.1827 -1.3389
  545MOL0     H73554   6.641   1.999   2.371  1.3348  1.3965  3.3225
  545MOL0     H73555   5.702   2.023   2.066 -0.9981 -2.6601 -1.2762
  545MOL0     H73556   5.493   1.988   1.953  1.1198 -1.6542 -0.7354
  545MOL0     H73557   5.196   1.975   1.728 -0.6620 -1.2708  0.0998
  545MOL0     H73558   4.953   1.929   1.669  1.8951 -4.5321 -1.6765
  545MOL0     H73559   2.993   2.257   1.181  1.3954  0.1705 -3.3884
  545MOL0     H73560   2.804   2.223   1.052 -3.2555 -1.7767  0.3268
  545MOL0     H73561   2.645   2.004   0.636 -0.7442 -0.7899 -0.2247
  545MOL0     H73562   2.445   2.033   0.492 -0.4363  0.9927  0.1348
  545MOL0     H73563   2.096   2.212   0.689  2.1069  0.5160 -1.4095
  545MOL0     H73564   2.011   2.056   0.654 -2.3651  2.1199 -0.1237
  545MOL0     H73565   1.914   2.256   0.565  1.4344  1.8225  1.3014
  545MOL0     H73566   1.958   2.118   0.453  1.6637 -1.8038  0.8901
  545MOL0     H73567   2.171   2.264   0.378 -0.0223  1.8552 -0.8849
  545MOL0     H73568   2.117   2.383   0.480 -1.1142  0.6160 -0.6312
  545MOL0     H73569   1.946   2.289   0.234 -1.9872  1.7398 -1.1336
  545MOL0     H73570   1.901   2.422   0.345 -0.1676  1.1666 -1.9149
  545MOL0     H73571   2.237   2.586   0.153  0.5468 -1.3143 -2.4139
  545MOL0     H73572   2.210   2.114   0.842  0.0510  1.0636 -0.2083
  545MOL0     H73573   2.306   2.164   1.029  0.3027  1.2548 -2.1527
  545MOL0     H73574   2.357   1.997   1.063  0.5414 -0.5062 -0.1858
  545MOL0     H73575   2.468   2.140   1.072 -0.3381  0.6649 -0.7802
  546MOL0     O73576   9.614   8.956   1.274 -0.1578  0.1507  1.1140
  546MOL0     C73577   9.583   8.856   1.338  0.4877 -0.2907 -0.9245
  546MOL0     O73578   9.673   8.772   1.395 -0.3839  0.0382 -0.4049
  546MOL0     C73579   9.808   8.805   1.400 -0.8098 -0.3090  0.2201
  546MOL0     C73580   9.866   8.840   1.522 -0.0137 -0.2566 -0.2870
  546MOL0     C73581   9.999   8.869   1.529 -0.2395 -0.4647  0.4968
  546MOL0     C73582  10.079   8.875   1.415 -0.2861 -0.2575  0.7352
  546MOL0     O73583  10.209   8.915   1.418 -0.1635 -0.6536 -0.5220
  546MOL0     C73584  10.302   8.805   1.431 -1.0222  0.2925  0.2108
  546MOL0     C73585  10.438   8.845   1.475 -1.1105 -0.2491 -0.0442
  546MOL0     C73586  10.497   8.970   1.401  0.0051  0.6534  0.1609
  546MOL0     C73587  10.629   9.009   1.454  0.8850 -0.6758 -0.0061
  546MOL0     C73588  10.677   9.132   1.377  0.5102  0.6456  0.1430
  546MOL0     C73589  10.798   9.191   1.446 -0.6477  0.4736 -0.0932
  546MOL0     C73590  10.836   9.330   1.396  0.2773 -0.1912  0.5354
  546MOL0     C73591  10.885   9.333   1.251 -0.3628  0.1491  0.7789
  546MOL0     N73592  10.992   9.238   1.221 -0.1072 -0.1826 -0.0626
  546MOL0     C73593  11.106   9.214   1.292  0.4929  0.5295 -0.0565
  546MOL0     C73594  11.169   9.108   1.236 -1.0505  0.7656  0.3569
  546MOL0     C73595  11.283   9.022   1.296  0.9886 -0.3050  0.0529
  546MOL0     C73596  11.423   9.088   1.299 -0.8433 -0.2315  0.0061
  546MOL0     C73597  11.530   9.001   1.367 -0.4036 -1.0369 -0.5010
  546MOL0     C73598  11.645   9.085   1.420 -0.8849  0.6424 -0.1881
  546MOL0     O73599  11.739   8.993   1.484 -0.2311  0.0830 -0.2024
  546MOL0     C73600  11.877   9.011   1.488  0.0710  0.2720 -0.0460
  546MOL0     C73601  11.944   9.128   1.438 -0.1931 -0.3887 -0.0377
  546MOL0     C73602  12.084   9.135   1.451  0.0769 -0.1887  1.0067
  546MOL0     C73603  12.165   9.035   1.507 -0.1681 -0.0962  0.1987
  546MOL0     C73604  12.313   9.042   1.532  0.3968  0.7971  0.8199
  546MOL0     O73605  12.373   9.148   1.461 -0.7307 -0.2103  0.9113
  546MOL0     C73606  12.510   9.147   1.438  0.3595  0.2537  0.0305
  546MOL0     C73607  12.554   9.164   1.311 -0.1552  0.6016  0.1311
  546MOL0     C73608  12.691   9.161   1.276  0.2526 -0.1257 -0.3831
  546MOL0     C73609  12.788   9.133   1.379 -0.5612 -0.5969 -0.8723
  546MOL0     O73610  12.922   9.133   1.353 -0.3471  0.4984  0.1289
  546MOL0     C73611  12.967   9.026   1.265  0.9475 -0.5370 -0.2632
  546MOL0     C73612  13.112   9.058   1.227 -0.1403  0.2447  0.6706
  546MOL0     C73613  13.211   9.062   1.343  0.3153 -0.8635 -0.4371
  546MOL0     C73614  13.348   9.123   1.298  0.1195 -0.8406 -0.6093
  546MOL0     C73615  13.448   9.146   1.415 -0.4249  0.3366 -0.8569
  546MOL0     C73616  13.573   9.222   1.377 -0.4814  0.2964  1.0614
  546MOL0     C73617  13.658   9.272   1.495 -1.0768  0.2262 -0.6496
  546MOL0     C73618  13.797   9.326   1.442  0.9728  0.6532 -0.7442
  546MOL0    Cl73619  13.772   9.494   1.401 -0.2440  0.2533  0.4596
  546MOL0     C73620  12.741   9.124   1.514 -0.8728 -0.2116 -0.5870
  546MOL0     C73621  12.603   9.145   1.540 -0.8369  0.4035 -0.4918
  546MOL0     O73622  12.368   8.952   1.600 -0.6496  0.3862 -0.0588
  546MOL0     C73623  12.096   8.916   1.537 -0.9300 -0.5887 -0.5082
  546MOL0     C73624  11.959   8.905   1.532  0.8464 -0.3931 -0.0450
  546MOL0     N73625  11.091   9.065   1.136 -0.1934  0.0754 -0.2346
  546MOL0     N73626  10.982   9.138   1.121  0.0300 -0.2888 -0.0162
  546MOL0     C73627  10.021   8.837   1.296  0.3914 -0.1859 -0.4128
  546MOL0     C73628   9.892   8.799   1.287  0.5931 -0.0792 -0.1246
  546MOL0     C73629   9.444   8.814   1.357  0.8930 -0.1846 -0.8885
  546MOL0     C73630   9.416   8.688   1.414  0.3582  1.0489  0.2688
  546MOL0     C73631   9.282   8.644   1.429 -0.5638  0.5604 -0.2717
  546MOL0     C73632   9.178   8.719   1.385  0.4877 -1.0878  0.3286
  546MOL0     O73633   9.043   8.696   1.397  1.9790  0.3903 -0.2130
  546MOL0     C73634   9.006   8.558   1.421 -0.6067  0.2620 -0.0597
  546MOL0     C73635   8.859   8.538   1.445 -0.4011 -0.5538  0.5237
  546MOL0     C73636   8.775   8.593   1.324  0.0285  1.2909 -0.2443
  546MOL0     C73637   8.698   8.484   1.243  0.8647  0.4273 -0.4955
  546MOL0     C73638   8.600   8.431   1.340  0.0751  0.6531 -0.6063
  546MOL0     C73639   8.513   8.391   1.416  0.0715 -0.1642 -0.3947
  546MOL0     C73640   9.198   8.844   1.324  0.3622  0.2540  0.5278
  546MOL0     C73641   9.327   8.890   1.306  0.1947 -0.1067  0.0593
  546MOL0     C73642   9.341   9.031   1.254  0.7830  0.4415  0.5926
  546MOL0     H73643   9.801   8.841   1.609  0.4275 -0.3522  0.0529
  546MOL0     H73644  10.050   8.901   1.619  0.1439  2.6424 -0.6973
  546MOL0     H73645  10.272   8.728   1.502  1.3084  0.0760  1.0223
  546MOL0     H73646  10.300   8.764   1.330  3.1908 -1.3526  0.6128
  546MOL0     H73647  10.506   8.760   1.460  0.1095  0.1924  2.5641
  546MOL0     H73648  10.437   8.877   1.579 -1.4760  1.0835 -0.4446
  546MOL0     H73649  10.434   9.059   1.402  1.7363  2.1264 -3.2710
  546MOL0     H73650  10.509   8.954   1.293  2.4478  1.5169  0.2477
  546MOL0     H73651  10.632   9.038   1.560  0.7170  1.9652 -0.6493
  546MOL0     H73652  10.695   8.925   1.433  2.4845  0.0360  1.8609
  546MOL0     H73653  10.707   9.098   1.278 -2.2045  1.1319 -0.9436
  546MOL0     H73654  10.605   9.213   1.366 -1.3671 -1.0219 -0.4578
  546MOL0     H73655  10.793   9.193   1.555  2.1075  0.5362  0.1135
  546MOL0     H73656  10.881   9.122   1.424 -0.3896  1.1752 -1.3941
  546MOL0     H73657  10.912   9.370   1.463 -0.6791  0.3846  1.2925
  546MOL0     H73658  10.758   9.406   1.401 -0.0635 -0.4436 -0.5402
  546MOL0     H73659  10.819   9.307   1.168  1.2337  2.9355 -1.5975
  546MOL0     H73660  10.925   9.432   1.227  2.4460 -1.2626 -0.9326
  546MOL0     H73661  11.143   9.263   1.381  0.4655 -0.5187  0.5466
  546MOL0     H73662  11.260   8.991   1.398  0.6950  1.8131  0.6714
  546MOL0     H73663  11.290   8.936   1.229  0.0401  0.6274 -1.2849
  546MOL0     H73664  11.449   9.102   1.193  4.1334 -1.4105  0.8226
  546MOL0     H73665  11.423   9.185   1.350 -0.4939 -0.5911  0.6885
  546MOL0     H73666  11.581   8.928   1.304 -0.4314 -1.6768  0.2070
  546MOL0     H73667  11.481   8.941   1.444  1.0679 -4.0553 -1.7521
  546MOL0     H73668  11.601   9.163   1.484  0.6621  0.3820  1.2566
  546MOL0     H73669  11.697   9.141   1.342  1.0129 -0.0993  0.4920
  546MOL0     H73670  11.887   9.208   1.391 -2.4294 -1.0879  1.3377
  546MOL0     H73671  12.142   9.216   1.408 -0.3415 -0.8050 -0.8064
  546MOL0     H73672  12.481   9.184   1.233  0.0601  1.8909  0.2382
  546MOL0     H73673  12.716   9.169   1.171  0.4515 -0.8471 -0.3957
  546MOL0     H73674  12.962   8.928   1.313  1.7139 -0.2411  0.4514
  546MOL0     H73675  12.908   9.017   1.174  0.7141  0.3145 -0.2016
  546MOL0     H73676  13.156   8.981   1.163 -1.6805 -0.9824  1.0348
  546MOL0     H73677  13.119   9.151   1.169  2.3051 -1.0836 -1.3835
  546MOL0     H73678  13.166   9.113   1.428  0.5792  2.6389 -2.1946
  546MOL0     H73679  13.239   8.963   1.379  2.1091 -0.0219  0.5873
  546MOL0     H73680  13.337   9.225   1.259  2.4162 -0.2137  0.2384
  546MOL0     H73681  13.399   9.058   1.227  1.7167 -1.6001  1.1582
  546MOL0     H73682  13.474   9.053   1.467  1.5036  1.6710  0.7198
  546MOL0     H73683  13.389   9.198   1.490 -0.5885  0.0123 -0.7563
  546MOL0     H73684  13.629   9.148   1.318 -2.4981 -0.3218 -0.1710
  546MOL0     H73685  13.537   9.305   1.315 -0.2966  0.7223  1.5192
  546MOL0     H73686  13.668   9.194   1.571  2.8752 -0.2047 -1.3981
  546MOL0     H73687  13.612   9.358   1.544 -2.0115  0.5219 -2.0106
  546MOL0     H73688  13.880   9.309   1.511  0.9227 -2.1543 -1.2588
  546MOL0     H73689  13.834   9.276   1.352  0.9543  0.0258 -0.4073
  546MOL0     H73690  12.809   9.123   1.598 -1.4087  3.0901  0.0262
  546MOL0     H73691  12.573   9.137   1.644  2.5866  0.4387  0.6318
  546MOL0     H73692  12.141   8.833   1.591  0.9738  1.5182  1.3288
  546MOL0     H73693  11.905   8.814   1.555  1.5477 -1.6099 -2.7971
  546MOL0     H73694  10.082   8.844   1.206  0.1771 -0.4394 -0.5798
  546MOL0     H73695   9.842   8.759   1.199  0.0670  0.8108 -0.2441
  546MOL0     H73696   9.489   8.618   1.456 -0.6286  1.0166  2.0480
  546MOL0     H73697   9.260   8.558   1.491 -1.1444 -0.0600 -1.3163
  546MOL0     H73698   9.060   8.519   1.508 -0.4736  0.9833  0.1815
  546MOL0     H73699   9.043   8.517   1.327  0.4796  1.9481 -0.4096
  546MOL0     H73700   8.840   8.591   1.539  0.2801 -1.1651  1.0205
  546MOL0     H73701   8.848   8.429   1.445  3.0116 -1.0041 -0.3914
  546MOL0     H73702   8.845   8.639   1.253  1.0202 -0.7082 -0.6396
  546MOL0     H73703   8.694   8.655   1.363 -3.5370 -3.3377  0.5279
  546MOL0     H73704   8.642   8.530   1.162 -0.1710  0.9208  0.4748
  546MOL0     H73705   8.772   8.411   1.210  2.0419  0.9564  0.8193
  546MOL0     H73706   8.445   8.348   1.487  0.1610  2.0516  1.1268
  546MOL0     H73707   9.107   8.898   1.301 -0.5395 -1.2090  0.4990
  546MOL0     H73708   9.404   9.094   1.318 -0.3305  0.3663  1.8031
  546MOL0     H73709   9.383   9.014   1.154 -0.5011 -2.4052  0.4261
  546MOL0     H73710   9.247   9.086   1.246  1.0154  0.6137 -1.3911
  547MOL0     O73711   8.089   0.902   3.163 -0.2721  0.3700 -0.0391
  547MOL0     C73712   8.005   0.869   3.082  0.1802 -0.2959 -0.2805
  547MOL0     O73713   8.004   0.761   2.997  0.1041 -0.5232 -0.8148
  547MOL0     C73714   8.115   0.695   2.950  0.8085 -0.0733  0.6796
  547MOL0     C73715   8.243   0.747   2.955 -1.0705 -0.6156  0.1815
  547MOL0     C73716   8.359   0.676   2.909 -0.1386 -0.3353 -0.0613
  547MOL0     C73717   8.348   0.536   2.883  0.5222 -0.8858 -0.2294
  547MOL0     O73718   8.456   0.458   2.845  0.1416  0.1511 -0.6774
  547MOL0     C73719   8.586   0.488   2.917  0.3504 -0.5419  0.9542
  547MOL0     C73720   8.684   0.374   2.905 -0.3722  0.0246  0.5284
  547MOL0     C73721   8.804   0.366   3.003 -0.2517 -0.4203  0.3222
  547MOL0     C73722   8.864   0.224   2.980  0.9420  0.7019 -0.7407
  547MOL0     C73723   9.012   0.224   2.928  0.1485 -0.2703 -0.4889
  547MOL0     C73724   9.100   0.327   3.001  0.5730  0.5942 -0.1377
  547MOL0     C73725   9.247   0.296   2.972  0.8636  0.3869  1.0015
  547MOL0     C73726   9.274   0.311   2.821  0.0616 -0.5857  0.5354
  547MOL0     N73727   9.413   0.287   2.814 -1.1423  0.5145  0.3501
  547MOL0     C73728   9.517   0.375   2.786  0.2416 -0.2474 -0.2087
  547MOL0     C73729   9.623   0.307   2.736 -0.0207 -0.1012 -0.5076
  547MOL0     C73730   9.744   0.373   2.672 -0.3494 -0.0892 -0.7680
  547MOL0     C73731   9.861   0.351   2.772 -0.1993 -0.3793 -0.2289
  547MOL0     C73732   9.918   0.204   2.757  0.7269 -0.1515 -0.1652
  547MOL0     C73733   9.989   0.138   2.877 -0.9786 -1.2605  0.1816
  547MOL0     O73734  10.110   0.071   2.834  0.1974 -0.5391 -0.1928
  547MOL0     C73735  10.217   0.150   2.804  0.1876  1.0814 -0.0132
  547MOL0     C73736  10.340   0.091   2.762 -0.2972  0.4488  0.4385
  547MOL0     C73737  10.451   0.167   2.748 -0.0093  0.2026  0.3264
  547MOL0     C73738  10.459   0.307   2.782 -0.4061  0.8117 -0.0401
  547MOL0     C73739  10.587   0.370   2.785 -0.6213 -0.5307  0.7164
  547MOL0     O73740  10.588   0.508   2.808  0.4034  0.1389  0.4054
  547MOL0     C73741  10.705   0.579   2.818  0.9262  0.2257  0.1175
  547MOL0     C73742  10.732   0.674   2.925  0.9601  0.3364  0.4834
  547MOL0     C73743  10.834   0.765   2.910 -0.4587 -0.0335  0.1984
  547MOL0     C73744  10.912   0.768   2.789 -0.7004  0.5296 -0.1380
  547MOL0     O73745  11.008   0.877   2.771 -0.2381  0.2501 -1.0753
  547MOL0     C73746  11.120   0.837   2.707 -0.6417 -0.1583  0.0366
  547MOL0     C73747  11.236   0.935   2.737  0.4863 -0.5760  0.7875
  547MOL0     C73748  11.311   0.899   2.868 -0.0951  0.1321  0.5997
  547MOL0     C73749  11.423   0.992   2.906 -0.2377  0.3902 -0.0365
  547MOL0     C73750  11.490   0.960   3.036  0.1010 -0.1372  0.3837
  547MOL0     C73751  11.407   0.972   3.162 -0.2438  0.3430  0.3352
  547MOL0     C73752  11.483   0.932   3.289 -0.1354 -0.1709 -0.0117
  547MOL0     C73753  11.504   0.784   3.304  1.1707 -0.2270 -0.0555
  547MOL0    Cl73754  11.372   0.687   3.376  0.0374 -0.3509  0.0880
  547MOL0     C73755  10.890   0.666   2.696 -0.1001 -1.2902 -0.3865
  547MOL0     C73756  10.789   0.574   2.710 -0.5817  0.3373 -0.6795
  547MOL0     O73757  10.680   0.301   2.752  0.0823  0.4570  0.1264
  547MOL0     C73758  10.340   0.370   2.822 -0.1529 -1.0951  0.1922
  547MOL0     C73759  10.223   0.291   2.839 -0.5864  0.6292  0.1256
  547MOL0     N73760   9.580   0.170   2.728 -0.2003 -0.8493  0.2883
  547MOL0     N73761   9.463   0.163   2.775  0.0759  1.3050 -0.5267
  547MOL0     C73762   8.217   0.485   2.897 -0.5616  0.5203 -0.5594
  547MOL0     C73763   8.103   0.560   2.919  0.0827 -0.3703  0.2961
  547MOL0     C73764   7.877   0.948   3.058 -0.1247 -0.7639 -0.2565
  547MOL0     C73765   7.763   0.883   3.013  0.0129  0.1377 -0.1629
  547MOL0     C73766   7.650   0.948   2.986  0.5135  0.2603 -0.0109
  547MOL0     C73767   7.643   1.088   3.004  0.2376 -0.5818 -0.2513
  547MOL0     O73768   7.521   1.146   2.987  0.3399  0.1426 -0.4599
  547MOL0     C73769   7.474   1.266   3.049 -1.0923  0.0569 -0.3004
  547MOL0     C73770   7.317   1.282   3.052  0.2125  0.5765 -0.2895
  547MOL0     C73771   7.285   1.413   3.120 -0.2564  0.1025  0.4750
  547MOL0     C73772   7.266   1.393   3.271  0.7687  0.5670  0.0471
  547MOL0     C73773   7.275   1.516   3.345  0.4606 -0.0204 -0.3406
  547MOL0     C73774   7.292   1.613   3.413  0.1739  0.3076  0.0772
  547MOL0     C73775   7.753   1.154   3.064 -0.1686 -0.4516  0.6866
  547MOL0     C73776   7.872   1.088   3.077 -0.0728  0.0348  0.4445
  547MOL0     C73777   7.989   1.171   3.111 -0.3682  0.0009 -0.4407
  547MOL0     H73778   8.262   0.846   2.996  0.9167 -0.2370 -1.4554
  547MOL0     H73779   8.458   0.721   2.915 -0.5152  0.3448  1.7571
  547MOL0     H73780   8.625   0.586   2.888 -1.6704  0.0385  0.0519
  547MOL0     H73781   8.569   0.503   3.024 -0.0017  1.0236  0.7000
  547MOL0     H73782   8.710   0.366   2.799  2.6114 -3.2393  1.3150
  547MOL0     H73783   8.621   0.285   2.921  1.0802 -1.0249  0.5962
  547MOL0     H73784   8.778   0.369   3.109  3.2813 -0.2387  1.3083
  547MOL0     H73785   8.868   0.453   2.986 -0.4774  0.1270  2.0416
  547MOL0     H73786   8.864   0.171   3.075  3.6076  0.8768 -0.5643
  547MOL0     H73787   8.807   0.166   2.907  0.9857 -0.3015  0.0042
  547MOL0     H73788   9.048   0.121   2.936 -4.1355 -1.8801  0.5053
  547MOL0     H73789   9.009   0.258   2.824 -0.3262  0.2781 -0.2975
  547MOL0     H73790   9.083   0.433   2.981 -1.6295  0.1959 -0.6369
  547MOL0     H73791   9.090   0.307   3.108 -1.0232  1.9315 -0.0005
  547MOL0     H73792   9.267   0.193   3.002  3.5201  0.5366  0.0382
  547MOL0     H73793   9.321   0.358   3.023  0.1322  1.5063  0.7359
  547MOL0     H73794   9.218   0.243   2.757 -0.9042 -0.3031  1.0602
  547MOL0     H73795   9.249   0.411   2.783  2.3490 -0.6320 -1.3378
  547MOL0     H73796   9.508   0.483   2.795 -1.6659 -0.5469  2.7709
  547MOL0     H73797   9.771   0.343   2.570  1.6418  3.3624 -1.4433
  547MOL0     H73798   9.723   0.480   2.663 -0.5797 -0.1591 -1.0871
  547MOL0     H73799   9.937   0.427   2.752 -0.5490 -0.1066 -0.5242
  547MOL0     H73800   9.830   0.350   2.877  1.8828 -0.9434  0.4476
  547MOL0     H73801   9.987   0.196   2.673  2.1852 -1.9765  1.0989
  547MOL0     H73802   9.839   0.134   2.730  3.4746 -2.7856 -2.0622
  547MOL0     H73803   9.920   0.065   2.920  1.4127 -2.4297  2.3254
  547MOL0     H73804  10.005   0.206   2.961  0.8538 -1.1535 -0.2096
  547MOL0     H73805  10.345  -0.015   2.744  5.2922  0.6892 -1.2064
  547MOL0     H73806  10.548   0.127   2.721  0.3671  3.3434 -4.1478
  547MOL0     H73807  10.670   0.684   3.013  3.5921 -1.0366  2.6381
  547MOL0     H73808  10.858   0.844   2.981 -1.3593  0.0893  0.3716
  547MOL0     H73809  11.155   0.739   2.741  0.1422 -0.1675 -0.7440
  547MOL0     H73810  11.112   0.820   2.599 -0.1612 -0.3607  0.0299
  547MOL0     H73811  11.307   0.916   2.656 -1.5368 -2.6562 -0.6422
  547MOL0     H73812  11.207   1.040   2.726 -0.1884 -1.0006 -2.9550
  547MOL0     H73813  11.236   0.907   2.948 -3.6766 -0.5855 -2.4031
  547MOL0     H73814  11.360   0.802   2.866 -2.4716 -1.1483  0.4551
  547MOL0     H73815  11.387   1.095   2.898 -1.9936 -0.0705  1.3452
  547MOL0     H73816  11.495   0.988   2.823 -1.2168  2.0667 -1.0151
  547MOL0     H73817  11.578   1.022   3.056  1.3902 -2.1342  1.2033
  547MOL0     H73818  11.532   0.860   3.019  0.3484  0.2542 -1.5834
  547MOL0     H73819  11.388   1.079   3.169  1.8690  0.7072  1.1935
  547MOL0     H73820  11.314   0.914   3.156  0.3173 -0.5915  0.3835
  547MOL0     H73821  11.432   0.974   3.376  0.9901  0.3626  0.4083
  547MOL0     H73822  11.581   0.981   3.291  0.5794 -1.4379 -1.7431
  547MOL0     H73823  11.528   0.741   3.206  0.2923 -1.1003  0.0966
  547MOL0     H73824  11.596   0.766   3.359  1.9007 -1.6253 -1.6339
  547MOL0     H73825  10.950   0.671   2.605  0.2011  2.5003 -0.1478
  547MOL0     H73826  10.785   0.501   2.629  0.2012  0.6436 -1.0079
  547MOL0     H73827  10.336   0.475   2.849  0.5656 -1.2200  0.8183
  547MOL0     H73828  10.140   0.350   2.877  0.2561  1.4337  0.7712
  547MOL0     H73829   8.206   0.380   2.871  2.0290  0.0186  0.1222
  547MOL0     H73830   8.001   0.524   2.924  0.4634 -1.4083  0.8127
  547MOL0     H73831   7.767   0.777   2.989  0.9505  0.6355 -2.4411
  547MOL0     H73832   7.565   0.894   2.947 -1.9553  2.6937  1.6128
  547MOL0     H73833   7.512   1.347   2.985 -0.5171  3.2071  3.6115
  547MOL0     H73834   7.504   1.278   3.153  1.6496 -0.5521 -0.9452
  547MOL0     H73835   7.274   1.200   3.111 -0.3527  0.2290 -1.1693
  547MOL0     H73836   7.280   1.272   2.950 -0.8067  0.2597  0.0963
  547MOL0     H73837   7.193   1.449   3.074 -0.4260 -1.4269 -0.4935
  547MOL0     H73838   7.364   1.480   3.085  1.4328 -0.8517  2.2472
  547MOL0     H73839   7.167   1.351   3.289  0.8340  1.0552  1.6151
  547MOL0     H73840   7.347   1.331   3.310 -0.3832 -0.3026  1.1060
  547MOL0     H73841   7.295   1.700   3.476 -0.7893 -0.4571  1.2290
  547MOL0     H73842   7.750   1.260   3.084  2.0169  0.1970 -1.8851
  547MOL0     H73843   8.083   1.139   3.065  0.7658 -0.1032  1.7720
  547MOL0     H73844   7.979   1.271   3.069  1.1419  0.3853  0.0510
  547MOL0     H73845   7.995   1.173   3.221 -2.6262  0.5171 -0.2724
  548MOL0     O73846   3.294   1.248   2.922 -0.2610 -0.5183  0.2800
  548MOL0     C73847   3.349   1.334   2.855  1.0076  0.3093  0.0687
  548MOL0     O73848   3.470   1.330   2.800 -0.1019  0.5726 -0.3432
  548MOL0     C73849   3.548   1.215   2.818  0.1504 -0.5306 -0.1460
  548MOL0     C73850   3.508   1.083   2.851 -0.2148  0.2888 -0.5936
  548MOL0     C73851   3.598   0.982   2.852 -0.7681  0.2146 -0.2653
  548MOL0     C73852   3.733   1.005   2.835 -0.3849 -0.5128 -0.3642
  548MOL0     O73853   3.820   0.898   2.860  1.1465 -0.6130  0.2154
  548MOL0     C73854   3.962   0.923   2.847  0.6426  0.1693  0.4957
  548MOL0     C73855   4.045   0.802   2.896 -0.7796  0.1595  0.1694
  548MOL0     C73856   4.205   0.812   2.871  0.2396 -0.8506  0.4039
  548MOL0     C73857   4.265   0.885   2.990  0.0893  0.9629  0.4861
  548MOL0     C73858   4.417   0.893   2.991  0.1236 -0.0515  0.1045
  548MOL0     C73859   4.475   0.983   2.885  0.6572  0.1729 -0.7262
  548MOL0     C73860   4.625   0.949   2.848  0.3388 -0.0713  0.0241
  548MOL0     C73861   4.723   1.023   2.942  0.3015  0.3001 -0.6412
  548MOL0     N73862   4.856   0.961   2.945 -0.1740  0.3076 -0.5978
  548MOL0     C73863   4.947   0.945   2.841  0.7457  0.2750  0.0995
  548MOL0     C73864   5.059   0.900   2.903  0.3178  0.4627  0.2689
  548MOL0     C73865   5.190   0.854   2.846  0.2470  0.5992 -0.3322
  548MOL0     C73866   5.270   0.947   2.765  0.7673 -0.4794 -0.9247
  548MOL0     C73867   5.375   0.874   2.675  0.0597  0.5470 -0.7847
  548MOL0     C73868   5.505   0.863   2.745  0.0741 -0.0487  0.2180
  548MOL0     O73869   5.617   0.846   2.649  0.5253 -0.3357  0.1854
  548MOL0     C73870   5.752   0.855   2.690 -0.1816 -0.0961  0.1871
  548MOL0     C73871   5.787   0.843   2.822 -0.1036  0.0975 -0.6790
  548MOL0     C73872   5.922   0.850   2.865 -0.5307  0.2470 -0.7113
  548MOL0     C73873   6.028   0.855   2.767 -0.5349 -0.5355  0.1285
  548MOL0     C73874   6.168   0.843   2.801 -0.6481 -0.1032 -0.4094
  548MOL0     O73875   6.262   0.902   2.732  0.0249 -0.2213  0.3423
  548MOL0     C73876   6.397   0.887   2.766  0.7961 -1.0328  0.0819
  548MOL0     C73877   6.457   0.921   2.888  0.7857  0.0647  0.4931
  548MOL0     C73878   6.590   0.908   2.909 -0.2182 -0.1798 -0.3716
  548MOL0     C73879   6.676   0.870   2.807  0.2113 -0.1055  0.7765
  548MOL0     O73880   6.811   0.852   2.820 -0.5007  0.3157 -0.1272
  548MOL0     C73881   6.879   0.875   2.940  0.7346 -0.0137 -0.0544
  548MOL0     C73882   7.028   0.837   2.940 -0.0779 -0.3105  0.4679
  548MOL0     C73883   7.103   0.915   2.832  0.4218  0.0695 -0.1807
  548MOL0     C73884   7.251   0.869   2.832 -0.5413 -0.4182 -0.2569
  548MOL0     C73885   7.335   0.939   2.727  1.0879  1.0025  0.0678
  548MOL0     C73886   7.327   0.852   2.598  0.1104 -0.7320 -0.5886
  548MOL0     C73887   7.374   0.935   2.468 -0.0967 -0.5050 -0.5436
  548MOL0     C73888   7.525   0.914   2.445 -0.4321  0.2710 -1.3325
  548MOL0    Cl73889   7.553   0.739   2.417 -0.0222  0.3272  0.1344
  548MOL0     C73890   6.611   0.850   2.685  0.2640 -0.0423  0.3238
  548MOL0     C73891   6.472   0.844   2.660  0.0891  0.4542 -0.1537
  548MOL0     O73892   6.193   0.795   2.915 -0.1400  0.8770 -0.3686
  548MOL0     C73893   5.988   0.866   2.634  0.9008 -0.3369  0.7849
  548MOL0     C73894   5.852   0.855   2.593  0.5303 -0.3535 -1.2356
  548MOL0     N73895   5.041   0.894   3.044 -0.4637  0.6750  0.1500
  548MOL0     N73896   4.914   0.918   3.071 -0.1423  0.0382  0.6493
  548MOL0     C73897   3.778   1.135   2.809 -0.5485 -0.3828 -0.9069
  548MOL0     C73898   3.682   1.241   2.791 -0.8663  0.0068 -0.1490
  548MOL0     C73899   3.267   1.456   2.828 -1.0207  0.8010 -0.4907
  548MOL0     C73900   3.167   1.473   2.926  0.2269  0.3890  0.1546
  548MOL0     C73901   3.084   1.587   2.923  0.7785 -0.3823 -0.3710
  548MOL0     C73902   3.081   1.673   2.807  0.7152 -0.2734  0.1891
  548MOL0     O73903   2.998   1.784   2.805 -0.0735 -0.1908 -0.0699
  548MOL0     C73904   3.009   1.882   2.704 -0.2669 -0.3392 -0.7228
  548MOL0     C73905   2.900   1.984   2.733  0.6312  0.5352 -0.2553
  548MOL0     C73906   2.766   1.915   2.748 -0.4561  0.8081  0.1664
  548MOL0     C73907   2.650   2.011   2.793 -1.4054 -0.1137 -0.2366
  548MOL0     C73908   2.526   1.945   2.790 -0.0119  0.8047  0.6385
  548MOL0     C73909   2.424   1.877   2.803 -0.2015  0.0029  1.3708
  548MOL0     C73910   3.179   1.653   2.711  0.2304  0.4552 -0.1544
  548MOL0     C73911   3.276   1.549   2.721 -0.0106 -0.1983  0.5342
  548MOL0     C73912   3.375   1.543   2.615  0.2465  0.4809 -0.2246
  548MOL0     H73913   3.406   1.056   2.874  0.3093 -1.9420 -0.5890
  548MOL0     H73914   3.564   0.886   2.891 -1.2123  0.1974 -0.6869
  548MOL0     H73915   3.982   0.942   2.741 -0.3559 -3.1163 -0.4223
  548MOL0     H73916   3.988   1.011   2.906 -1.8969  2.8829 -2.0252
  548MOL0     H73917   4.020   0.714   2.836  2.6980  0.1495 -1.4792
  548MOL0     H73918   4.025   0.790   3.003  0.4783  1.0843  0.5231
  548MOL0     H73919   4.214   0.872   2.780 -3.4170 -0.8323 -0.0933
  548MOL0     H73920   4.244   0.712   2.851  2.4176  0.1601 -0.7424
  548MOL0     H73921   4.213   0.979   3.009 -0.7855  0.4539  0.6397
  548MOL0     H73922   4.243   0.821   3.076  2.8333 -1.2088 -0.2560
  548MOL0     H73923   4.447   0.931   3.090 -1.3013 -2.2803  1.4866
  548MOL0     H73924   4.444   0.789   2.973 -1.9256 -0.6833  0.4015
  548MOL0     H73925   4.419   0.970   2.791  0.4991  1.2319 -0.7872
  548MOL0     H73926   4.460   1.090   2.897  0.9870  0.0316  1.2031
  548MOL0     H73927   4.636   0.996   2.750 -1.7239  0.1197 -0.1584
  548MOL0     H73928   4.640   0.841   2.840  1.0626  0.0690 -0.6815
  548MOL0     H73929   4.731   1.125   2.904 -2.8852  1.0101  0.2851
  548MOL0     H73930   4.694   1.022   3.047 -0.5931  1.5468 -0.8556
  548MOL0     H73931   4.935   0.972   2.736 -0.3573  0.9302  0.3787
  548MOL0     H73932   5.254   0.830   2.931 -0.6952  4.5696  1.6971
  548MOL0     H73933   5.162   0.763   2.790  1.4437 -1.1576  1.7660
  548MOL0     H73934   5.200   1.005   2.704 -0.3747 -1.2620 -0.3850
  548MOL0     H73935   5.324   1.012   2.834  0.3803 -0.0705 -0.9943
  548MOL0     H73936   5.385   0.930   2.582 -1.3458  3.6000  0.7536
  548MOL0     H73937   5.347   0.769   2.660  2.5319  0.0222 -2.3257
  548MOL0     H73938   5.499   0.781   2.819  0.1633 -0.3458 -0.1014
  548MOL0     H73939   5.521   0.954   2.803  0.6215  0.7597 -1.1685
  548MOL0     H73940   5.714   0.830   2.901 -0.7098 -0.8496 -1.3792
  548MOL0     H73941   5.943   0.860   2.971  0.0555 -1.6315 -0.6264
  548MOL0     H73942   6.385   0.965   2.956 -2.3213 -3.1506 -0.4018
  548MOL0     H73943   6.616   0.929   3.013 -2.2283  1.3502 -0.1242
  548MOL0     H73944   6.866   0.978   2.974  0.2328 -0.1582  0.2045
  548MOL0     H73945   6.834   0.798   3.003  1.8705 -2.2917 -1.8865
  548MOL0     H73946   7.080   0.857   3.034  2.3203 -1.1987 -0.5846
  548MOL0     H73947   7.025   0.729   2.919  1.4278 -0.1088 -1.0104
  548MOL0     H73948   7.073   0.894   2.729 -2.4477 -0.8227  0.7392
  548MOL0     H73949   7.094   1.020   2.859  1.3375 -0.4167  2.2086
  548MOL0     H73950   7.268   0.761   2.827  0.4429 -0.3380  0.7971
  548MOL0     H73951   7.292   0.896   2.930 -2.1153 -0.4429  0.4373
  548MOL0     H73952   7.439   0.935   2.763  0.8796 -0.1841  0.5633
  548MOL0     H73953   7.319   1.047   2.718  1.7222  1.2038  1.1604
  548MOL0     H73954   7.379   0.760   2.624 -0.4849 -0.5862  1.2995
  548MOL0     H73955   7.223   0.818   2.586 -0.0091 -0.0372 -1.6778
  548MOL0     H73956   7.346   1.036   2.501  0.9407 -1.3889  3.5445
  548MOL0     H73957   7.320   0.907   2.377 -1.6481  2.4017 -0.6457
  548MOL0     H73958   7.572   0.978   2.370  3.6164 -1.9413 -0.9498
  548MOL0     H73959   7.574   0.940   2.539  0.9351 -1.6988 -1.4287
  548MOL0     H73960   6.673   0.838   2.597  1.0389  2.4496  0.4679
  548MOL0     H73961   6.427   0.833   2.562  1.8935 -1.5386 -0.8311
  548MOL0     H73962   6.066   0.885   2.561 -1.0081  3.3179 -0.5703
  548MOL0     H73963   5.826   0.854   2.488  2.2575  2.5800 -1.8008
  548MOL0     H73964   3.880   1.171   2.816 -1.1261  1.0148  1.5140
  548MOL0     H73965   3.726   1.340   2.779  1.1414 -0.6579  1.2607
  548MOL0     H73966   3.167   1.406   3.011  0.0189 -0.6022 -0.6042
  548MOL0     H73967   3.004   1.613   2.991 -0.8156 -0.2278 -2.2298
  548MOL0     H73968   2.984   1.835   2.608 -2.0067  0.7762 -0.8562
  548MOL0     H73969   3.103   1.938   2.704 -0.1901 -0.4580 -1.2943
  548MOL0     H73970   2.904   2.058   2.652  1.5506  0.3678 -0.3770
  548MOL0     H73971   2.925   2.041   2.823  1.2598 -2.1411  1.3563
  548MOL0     H73972   2.768   1.830   2.817 -1.4670 -0.1715 -0.9722
  548MOL0     H73973   2.740   1.879   2.648  1.3357 -2.1972  0.6579
  548MOL0     H73974   2.670   2.049   2.894 -0.0156 -0.8014 -0.2274
  548MOL0     H73975   2.649   2.089   2.717  0.4052  0.4669  0.2640
  548MOL0     H73976   2.343   1.809   2.819  0.7070 -1.5765 -0.3907
  548MOL0     H73977   3.162   1.715   2.623 -2.7622 -1.1498 -0.8206
  548MOL0     H73978   3.398   1.641   2.571  1.0588 -0.1202 -1.1820
  548MOL0     H73979   3.469   1.504   2.657  0.8831 -0.0053 -2.0103
  548MOL0     H73980   3.341   1.469   2.543  1.0659 -0.3292  0.1991
  549MOL0     O73981   6.454   1.406   7.437  0.6451 -0.2235 -0.9583
  549MOL0     C73982   6.382   1.425   7.532  0.3256 -0.3243 -0.1864
  549MOL0     O73983   6.423   1.442   7.662  0.3540  0.0612  0.0165
  549MOL0     C73984   6.555   1.414   7.687 -0.2997 -1.1093 -0.3697
  549MOL0     C73985   6.596   1.292   7.717 -0.5192 -0.1958 -0.4555
  549MOL0     C73986   6.729   1.273   7.747  0.6384  0.3356 -0.0111
  549MOL0     C73987   6.827   1.378   7.747  0.3992  0.0996  0.0821
  549MOL0     O73988   6.953   1.347   7.759 -0.1744 -0.2816 -0.0356
  549MOL0     C73989   7.051   1.446   7.797  0.4957  0.5751  0.4289
  549MOL0     C73990   7.169   1.380   7.860 -0.2305  0.2580  0.6371
  549MOL0     C73991   7.283   1.478   7.882 -0.3662  0.0637 -0.3139
  549MOL0     C73992   7.408   1.399   7.931  0.1094  0.0127 -0.1747
  549MOL0     C73993   7.508   1.508   7.980 -0.7240 -0.2592  0.2504
  549MOL0     C73994   7.625   1.452   8.065  0.0538  0.5346  0.4281
  549MOL0     C73995   7.739   1.551   8.057 -0.0447 -0.4715  0.0384
  549MOL0     C73996   7.850   1.512   8.152  0.1187 -0.6484 -0.8262
  549MOL0     N73997   7.962   1.613   8.157 -0.2263  0.0049  0.0252
  549MOL0     C73998   7.967   1.732   8.226  0.7671 -0.2298 -0.7277
  549MOL0     C73999   8.091   1.776   8.201 -0.5518  0.0092  0.3153
  549MOL0     C74000   8.157   1.890   8.261 -0.0897  0.5250  0.0847
  549MOL0     C74001   8.196   1.861   8.408  0.6350  0.3276 -0.8914
  549MOL0     C74002   8.287   1.738   8.407 -0.0217 -0.0794  0.3647
  549MOL0     C74003   8.357   1.718   8.545  0.4214 -0.5492 -0.0726
  549MOL0     O74004   8.389   1.584   8.577  0.2506  0.2896 -0.4342
  549MOL0     C74005   8.451   1.563   8.699 -1.0471 -0.5735  0.0622
  549MOL0     C74006   8.485   1.431   8.715 -0.2822 -0.4282  0.3390
  549MOL0     C74007   8.550   1.396   8.831  0.0684  0.5279  0.7846
  549MOL0     C74008   8.567   1.472   8.950 -0.2204 -0.5698  1.4609
  549MOL0     C74009   8.636   1.425   9.078 -0.1809  1.0564 -0.0896
  549MOL0     O74010   8.651   1.514   9.180  0.3210 -0.1402  0.2793
  549MOL0     C74011   8.714   1.471   9.288 -0.4073 -0.0034 -0.1639
  549MOL0     C74012   8.836   1.536   9.322 -0.5751  0.0332 -0.4551
  549MOL0     C74013   8.911   1.485   9.429 -0.2967 -0.0513  0.2136
  549MOL0     C74014   8.859   1.382   9.516  1.3211  0.2226  0.5544
  549MOL0     O74015   8.941   1.334   9.611  0.6317  0.3645 -0.4311
  549MOL0     C74016   8.888   1.231   9.697  0.2538  0.7114 -0.0210
  549MOL0     C74017   9.009   1.172   9.760 -0.1826  0.1071 -0.5836
  549MOL0     C74018   9.074   1.057   9.676 -0.0208 -0.4146  0.0237
  549MOL0     C74019   9.172   0.978   9.763 -0.4135  0.4447 -0.3767
  549MOL0     C74020   9.258   0.887   9.667  0.0576  0.0418  0.1289
  549MOL0     C74021   9.367   0.807   9.740 -0.3482  0.1121 -0.3725
  549MOL0     C74022   9.477   0.900   9.794 -0.4005 -0.3712  0.0738
  549MOL0     C74023   9.600   0.831   9.853 -0.0901  0.4724 -0.0353
  549MOL0    Cl74024   9.687   0.711   9.745  0.4699 -0.1376 -0.2857
  549MOL0     C74025   8.729   1.332   9.481 -0.2598  0.0833  0.1668
  549MOL0     C74026   8.664   1.380   9.366 -0.1390  1.1750 -0.2314
  549MOL0     O74027   8.687   1.313   9.067 -0.2980 -0.6419  0.0128
  549MOL0     C74028   8.534   1.612   8.924  0.7082  0.3089  0.2079
  549MOL0     C74029   8.483   1.657   8.800  0.2948 -0.2248 -0.5806
  549MOL0     N74030   8.157   1.691   8.115 -0.4773  0.8672  0.5592
  549MOL0     N74031   8.079   1.585   8.100 -0.4782 -0.0376  0.6852
  549MOL0     C74032   6.781   1.505   7.730  0.0608  0.0569  0.0956
  549MOL0     C74033   6.643   1.521   7.703 -0.6224 -0.1421  0.4327
  549MOL0     C74034   6.236   1.394   7.514  0.0288 -0.2969 -0.1252
  549MOL0     C74035   6.152   1.377   7.635  0.4918 -0.6104  0.3046
  549MOL0     C74036   6.020   1.355   7.628  0.1800  0.3207  0.2904
  549MOL0     C74037   5.954   1.349   7.504 -0.5050 -0.0884  0.0237
  549MOL0     O74038   5.816   1.336   7.519  0.1469  0.1201 -0.1252
  549MOL0     C74039   5.752   1.298   7.396  0.5818  0.6391 -0.6655
  549MOL0     C74040   5.608   1.234   7.426 -0.7024  0.4077 -0.3607
  549MOL0     C74041   5.606   1.110   7.516 -0.2108  1.1756 -0.7274
  549MOL0     C74042   5.494   1.004   7.514 -1.0030  0.3715 -0.1984
  549MOL0     C74043   5.378   1.054   7.588 -0.7265  0.1687 -0.0315
  549MOL0     C74044   5.282   1.101   7.636  0.9969 -0.3926 -0.1109
  549MOL0     C74045   6.027   1.364   7.384  0.0991  0.0952  0.0762
  549MOL0     C74046   6.166   1.388   7.390  0.8780 -0.5491 -0.5046
  549MOL0     C74047   6.214   1.438   7.257 -0.5438 -0.6790 -0.3307
  549MOL0     H74048   6.520   1.215   7.712 -1.1568  0.4774 -1.7405
  549MOL0     H74049   6.759   1.170   7.760 -0.0148 -0.0843 -1.6509
  549MOL0     H74050   7.086   1.510   7.716 -1.4703  1.1353 -0.0206
  549MOL0     H74051   7.003   1.518   7.864 -0.5886 -1.2811  1.7789
  549MOL0     H74052   7.212   1.304   7.795  2.7208  2.2869 -0.0095
  549MOL0     H74053   7.150   1.333   7.956  1.4673  0.4257  1.0922
  549MOL0     H74054   7.252   1.550   7.958  3.0030  1.2418  0.1279
  549MOL0     H74055   7.317   1.531   7.792 -0.1301 -0.9832 -0.8585
  549MOL0     H74056   7.382   1.332   8.013 -1.0364  1.7499  0.9558
  549MOL0     H74057   7.455   1.341   7.850  1.6404  1.4611 -0.3876
  549MOL0     H74058   7.541   1.562   7.891 -3.9292  0.0708 -0.8525
  549MOL0     H74059   7.469   1.586   8.046  1.0891 -0.0975  1.1930
  549MOL0     H74060   7.581   1.429   8.162 -0.3157 -1.0132 -0.0615
  549MOL0     H74061   7.663   1.361   8.016  1.1145  1.7154 -1.0092
  549MOL0     H74062   7.707   1.649   8.093  0.5493  1.0193 -3.1982
  549MOL0     H74063   7.777   1.563   7.956  1.8266  0.5371  0.8200
  549MOL0     H74064   7.801   1.510   8.249 -1.2558 -1.3108 -1.5088
  549MOL0     H74065   7.886   1.415   8.114 -0.3823 -1.0668 -0.2438
  549MOL0     H74066   7.891   1.761   8.297  0.2949 -1.1276 -0.8538
  549MOL0     H74067   8.247   1.916   8.204  0.9443  1.7531  2.1844
  549MOL0     H74068   8.083   1.971   8.252 -0.0784  0.8028  2.1205
  549MOL0     H74069   8.229   1.949   8.463 -2.4177  0.6278  0.7083
  549MOL0     H74070   8.104   1.839   8.463  0.2773  2.7613 -0.3938
  549MOL0     H74071   8.348   1.729   8.318  1.0536 -2.3447  1.2522
  549MOL0     H74072   8.217   1.654   8.406 -2.2699  1.6731  0.7285
  549MOL0     H74073   8.293   1.754   8.626 -0.3401  1.2754 -1.4129
  549MOL0     H74074   8.441   1.787   8.552 -1.4083  1.9268 -0.9720
  549MOL0     H74075   8.474   1.357   8.637 -2.1224 -0.8746  0.9931
  549MOL0     H74076   8.599   1.300   8.825 -2.4768 -0.8050 -3.2149
  549MOL0     H74077   8.875   1.614   9.257  0.0659 -0.3520 -0.5514
  549MOL0     H74078   9.007   1.513   9.470 -2.1832  1.7903  3.8208
  549MOL0     H74079   8.821   1.272   9.773 -1.5882 -1.1280 -0.5690
  549MOL0     H74080   8.838   1.146   9.650 -2.8362  1.6582  1.3267
  549MOL0     H74081   9.086   1.246   9.782 -1.8964  1.4158  1.4181
  549MOL0     H74082   8.967   1.145   9.857 -0.7495  2.3316 -0.1741
  549MOL0     H74083   8.998   0.986   9.642  1.3061 -2.0795  0.4011
  549MOL0     H74084   9.132   1.098   9.592 -0.0608  2.9675  1.5035
  549MOL0     H74085   9.116   0.909   9.826 -0.5839  1.4649  0.6169
  549MOL0     H74086   9.236   1.043   9.823  0.3188 -0.4487 -0.1653
  549MOL0     H74087   9.293   0.950   9.584  0.7270  2.5065  2.1584
  549MOL0     H74088   9.180   0.819   9.630 -0.6218  0.0806  1.4231
  549MOL0     H74089   9.317   0.764   9.827  0.2461  0.4195  0.1350
  549MOL0     H74090   9.416   0.728   9.682  1.6702  0.6433  0.4939
  549MOL0     H74091   9.454   0.975   9.871  1.8301  1.4790 -0.9564
  549MOL0     H74092   9.517   0.952   9.707  1.2515 -1.9272 -0.1425
  549MOL0     H74093   9.669   0.911   9.881 -0.0718  0.6189 -0.4965
  549MOL0     H74094   9.572   0.774   9.942 -0.5987  1.8738  0.7300
  549MOL0     H74095   8.676   1.260   9.543  0.0639 -0.3202 -0.0200
  549MOL0     H74096   8.560   1.360   9.343 -0.6282 -0.0580  2.6128
  549MOL0     H74097   8.563   1.693   8.991  1.4164 -0.8456  1.3396
  549MOL0     H74098   8.438   1.755   8.785 -1.5385 -0.8139  0.6885
  549MOL0     H74099   6.838   1.597   7.737 -0.8556  0.5699  1.1986
  549MOL0     H74100   6.598   1.618   7.687 -0.4378 -0.0095  0.7205
  549MOL0     H74101   6.192   1.362   7.735  0.2147  0.2555  0.5560
  549MOL0     H74102   5.977   1.342   7.727  1.2632  2.1557  1.0518
  549MOL0     H74103   5.814   1.232   7.335  1.3694  2.1900 -1.6346
  549MOL0     H74104   5.736   1.389   7.336 -1.9370  0.5446 -0.2490
  549MOL0     H74105   5.562   1.220   7.328  4.1357  0.9055 -3.0483
  549MOL0     H74106   5.562   1.316   7.482  0.1810  0.3553  0.4636
  549MOL0     H74107   5.610   1.143   7.620 -1.4157  3.6943 -1.3938
  549MOL0     H74108   5.698   1.059   7.488  1.6957  2.9877  1.7463
  549MOL0     H74109   5.471   0.997   7.407 -1.3446  2.6844 -0.3172
  549MOL0     H74110   5.540   0.914   7.555  4.3918  1.0145 -3.8082
  549MOL0     H74111   5.196   1.150   7.676  0.0062 -2.7993  0.8340
  549MOL0     H74112   5.979   1.360   7.286 -1.2525  1.7634  0.6265
  549MOL0     H74113   6.288   1.517   7.269 -0.0030 -1.4229  1.7357
  549MOL0     H74114   6.274   1.355   7.220  0.1928 -0.9792  1.4100
  549MOL0     H74115   6.135   1.467   7.187 -0.0342  2.5802  0.2709
  550MOL0     O74116   3.842   3.365   1.333  0.3628 -0.5216  0.2095
  550MOL0     C74117   3.843   3.468   1.398 -0.6272 -0.7070  0.2955
  550MOL0     O74118   3.944   3.566   1.382 -0.3413 -0.2743 -0.1533
  550MOL0     C74119   4.073   3.524   1.363 -0.6278 -0.1195 -1.0668
  550MOL0     C74120   4.142   3.570   1.249 -0.4721 -0.2861  0.4477
  550MOL0     C74121   4.280   3.550   1.243  0.1544 -0.2246  0.3269
  550MOL0     C74122   4.349   3.485   1.350  0.6180 -0.0459  0.4507
  550MOL0     O74123   4.485   3.486   1.345 -0.1180  0.2669 -0.6381
  550MOL0     C74124   4.538   3.360   1.292  0.2809 -0.9000 -0.3460
  550MOL0     C74125   4.688   3.349   1.270  0.9522 -0.0802 -0.6436
  550MOL0     C74126   4.749   3.451   1.179  0.9862  0.3669  0.3253
  550MOL0     C74127   4.886   3.408   1.141  0.2928  0.0415  0.2369
  550MOL0     C74128   4.959   3.519   1.064  0.9105  0.1243  0.7460
  550MOL0     C74129   5.106   3.480   1.038  0.2911 -0.2888 -0.0264
  550MOL0     C74130   5.202   3.598   1.020 -0.1613 -0.3131  0.2697
  550MOL0     C74131   5.286   3.643   1.141  0.2887  0.4006  0.0871
  550MOL0     N74132   5.196   3.640   1.256 -0.4248  0.2599  0.6110
  550MOL0     C74133   5.094   3.737   1.287 -0.2070  0.5543  0.8747
  550MOL0     C74134   5.055   3.702   1.410  1.2550 -0.4010 -0.0665
  550MOL0     C74135   4.958   3.784   1.494 -0.5299 -0.0988 -0.3057
  550MOL0     C74136   4.828   3.713   1.479  0.2052 -0.7784 -0.7153
  550MOL0     C74137   4.728   3.809   1.546  0.5570 -0.6916  0.2348
  550MOL0     C74138   4.585   3.758   1.543  0.1411  0.1045  0.2473
  550MOL0     O74139   4.537   3.821   1.663  0.6813  0.1386 -0.1468
  550MOL0     C74140   4.406   3.846   1.666 -0.0692 -0.0168 -0.2861
  550MOL0     C74141   4.315   3.787   1.584 -0.3101 -0.0250  0.4387
  550MOL0     C74142   4.183   3.815   1.602  0.7865  0.1301  0.2936
  550MOL0     C74143   4.133   3.908   1.697 -0.1054 -0.1030 -0.0755
  550MOL0     C74144   3.990   3.940   1.722 -0.3939 -0.4876  0.4607
  550MOL0     O74145   3.966   4.017   1.834 -0.1030 -0.2514  0.4569
  550MOL0     C74146   3.836   4.036   1.864  0.2696 -0.0279  0.6856
  550MOL0     C74147   3.791   4.165   1.856  0.0071 -0.5623  0.6011
  550MOL0     C74148   3.658   4.198   1.872  0.1510 -0.2632  0.7279
  550MOL0     C74149   3.571   4.098   1.914  0.4679  0.2015  0.2083
  550MOL0     O74150   3.437   4.121   1.926  0.4649  0.7228  0.2372
  550MOL0     C74151   3.369   4.149   1.803 -0.6756 -0.7624  1.1309
  550MOL0     C74152   3.224   4.136   1.830  0.1276 -1.0566  0.3878
  550MOL0     C74153   3.179   3.998   1.860  0.5513  0.2439 -0.0142
  550MOL0     C74154   3.027   3.997   1.842 -0.1570  0.3072 -0.4376
  550MOL0     C74155   2.967   3.858   1.883 -0.2587 -0.5322  0.5349
  550MOL0     C74156   2.823   3.838   1.868 -0.0314 -0.7845  0.5871
  550MOL0     C74157   2.781   3.694   1.895 -0.2466 -0.3261 -0.9457
  550MOL0     C74158   2.632   3.659   1.853  0.0886 -0.7017  0.3369
  550MOL0    Cl74159   2.505   3.768   1.924  0.3653 -0.1371  0.2590
  550MOL0     C74160   3.617   3.967   1.943  0.6659  0.7014 -0.5699
  550MOL0     C74161   3.750   3.942   1.926  0.3927 -0.0794  0.2034
  550MOL0     O74162   3.913   3.910   1.634  0.0165 -0.2585 -0.1080
  550MOL0     C74163   4.235   3.973   1.769 -0.3280  0.1437 -0.0764
  550MOL0     C74164   4.362   3.941   1.760  0.3041 -0.1102  0.1979
  550MOL0     N74165   5.127   3.588   1.444  0.5379 -0.3115 -0.2288
  550MOL0     N74166   5.205   3.549   1.352  0.4507  0.5401  0.7955
  550MOL0     C74167   4.278   3.436   1.456  0.3777 -0.3171 -0.1647
  550MOL0     C74168   4.135   3.449   1.469  0.7280 -0.7074 -0.6012
  550MOL0     C74169   3.728   3.525   1.484 -0.6625  0.6330  1.3257
  550MOL0     C74170   3.750   3.623   1.577  0.1100  0.7267  0.1214
  550MOL0     C74171   3.653   3.656   1.670  1.1116 -0.6987 -0.2384
  550MOL0     C74172   3.522   3.592   1.660 -0.6486 -0.2640  0.2576
  550MOL0     O74173   3.418   3.641   1.735  0.5454  0.2019  0.0791
  550MOL0     C74174   3.308   3.563   1.764  0.9503 -0.1681  0.1416
  550MOL0     C74175   3.256   3.605   1.899 -0.3607 -0.5546 -0.0428
  550MOL0     C74176   3.142   3.515   1.951 -0.3269 -0.0633  0.1808
  550MOL0     C74177   3.182   3.358   1.965 -0.2101  0.2366 -0.3862
  550MOL0     C74178   3.065   3.273   1.995  0.6586  0.1537  0.2116
  550MOL0     C74179   2.960   3.227   2.026  0.3773 -0.1049 -0.0341
  550MOL0     C74180   3.500   3.507   1.553 -0.6733  0.3203 -0.4739
  550MOL0     C74181   3.597   3.482   1.460 -0.0181 -0.2337  0.2267
  550MOL0     C74182   3.558   3.412   1.333 -0.2679 -0.1349  0.4525
  550MOL0     H74183   4.094   3.620   1.165 -1.0435  1.2808  1.6576
  550MOL0     H74184   4.333   3.593   1.159 -4.0221 -1.6463 -3.4531
  550MOL0     H74185   4.515   3.277   1.358 -1.5081 -1.8794 -2.0988
  550MOL0     H74186   4.496   3.339   1.193 -1.4698 -0.2018  0.2046
  550MOL0     H74187   4.717   3.250   1.234  0.9486 -0.8472  1.3243
  550MOL0     H74188   4.738   3.365   1.366 -1.0483 -0.1734  0.4730
  550MOL0     H74189   4.751   3.550   1.226 -0.9440  0.7617 -0.3287
  550MOL0     H74190   4.697   3.456   1.083  1.8829 -2.3306 -0.3934
  550MOL0     H74191   4.939   3.383   1.234  0.3220 -1.4116 -0.1410
  550MOL0     H74192   4.883   3.315   1.083 -2.1178 -0.1487  0.5709
  550MOL0     H74193   4.908   3.540   0.970  2.3998  4.0727  0.6645
  550MOL0     H74194   4.961   3.608   1.127  2.8621  1.0882 -0.5711
  550MOL0     H74195   5.135   3.408   1.114 -0.5928 -2.3992 -1.5904
  550MOL0     H74196   5.108   3.423   0.944 -2.4030 -1.6518  0.6454
  550MOL0     H74197   5.147   3.674   0.964  1.2659 -0.1905 -1.0218
  550MOL0     H74198   5.278   3.567   0.947  1.2752  1.1371  1.0761
  550MOL0     H74199   5.377   3.585   1.159  0.2625 -0.9203 -3.2870
  550MOL0     H74200   5.313   3.745   1.114 -2.3004  1.4572  1.0984
  550MOL0     H74201   5.077   3.824   1.225  1.5730 -0.2621 -0.8911
  550MOL0     H74202   4.998   3.778   1.595 -1.2615  2.8998  0.2623
  550MOL0     H74203   4.951   3.886   1.454 -1.0583  0.0629  0.1842
  550MOL0     H74204   4.803   3.713   1.372 -0.7028  3.1917 -0.6446
  550MOL0     H74205   4.815   3.614   1.524  0.5998 -1.4608 -2.0565
  550MOL0     H74206   4.730   3.908   1.499  0.2002 -0.0908  1.4280
  550MOL0     H74207   4.761   3.828   1.649  0.8155  0.4198 -0.0408
  550MOL0     H74208   4.578   3.649   1.543  0.8102  0.0608  0.2918
  550MOL0     H74209   4.535   3.796   1.454 -2.0674  0.0409  1.3816
  550MOL0     H74210   4.345   3.712   1.512 -0.0689  0.8112 -0.3510
  550MOL0     H74211   4.111   3.745   1.559 -3.5439  2.9128  2.2792
  550MOL0     H74212   3.860   4.240   1.818 -0.2749 -0.7059 -0.1918
  550MOL0     H74213   3.628   4.300   1.851 -3.4268 -1.4013 -0.3954
  550MOL0     H74214   3.372   4.254   1.773 -3.0007 -1.7670 -3.6359
  550MOL0     H74215   3.408   4.083   1.725  0.6966 -0.0761  1.2181
  550MOL0     H74216   3.207   4.205   1.913  2.7877 -0.5984  0.6212
  550MOL0     H74217   3.166   4.167   1.742  2.4488 -1.3955 -1.3462
  550MOL0     H74218   3.219   3.929   1.785 -0.1721 -0.1487 -0.0430
  550MOL0     H74219   3.203   3.963   1.961  3.2333 -0.8414 -0.9504
  550MOL0     H74220   3.016   4.011   1.734  0.2107 -3.6213 -1.1521
  550MOL0     H74221   2.980   4.081   1.893  1.3467  0.0872  1.3851
  550MOL0     H74222   2.980   3.836   1.989  0.5412  0.0194  0.5613
  550MOL0     H74223   3.024   3.780   1.832  2.7149  1.2616  0.8848
  550MOL0     H74224   2.769   3.907   1.934  0.7107 -0.5012  0.9123
  550MOL0     H74225   2.790   3.866   1.768 -0.7492  1.1247  1.3032
  550MOL0     H74226   2.800   3.679   2.001 -0.2298  2.2296 -0.5295
  550MOL0     H74227   2.856   3.634   1.842  0.1093 -0.5158 -0.2380
  550MOL0     H74228   2.619   3.674   1.745  0.7576  0.8927  0.4573
  550MOL0     H74229   2.611   3.557   1.885  2.8010 -0.8586  1.8435
  550MOL0     H74230   3.552   3.899   1.996 -0.0415  2.7614  1.3764
  550MOL0     H74231   3.774   3.841   1.956 -0.5744  0.0908  1.6657
  550MOL0     H74232   4.211   4.060   1.830  1.4330  1.7865 -1.5954
  550MOL0     H74233   4.430   3.995   1.825  0.9226 -0.4119 -0.1883
  550MOL0     H74234   4.333   3.390   1.537 -2.0346  1.4937  2.6893
  550MOL0     H74235   4.076   3.410   1.552  2.7227  1.1330  1.8528
  550MOL0     H74236   3.848   3.670   1.576  0.3513  0.3126  1.5438
  550MOL0     H74237   3.655   3.731   1.748 -0.4678  0.0246 -0.8382
  550MOL0     H74238   3.337   3.459   1.752 -0.8959 -0.4561 -3.0147
  550MOL0     H74239   3.234   3.584   1.686  0.5565 -2.7167 -0.2458
  550MOL0     H74240   3.231   3.712   1.898 -1.8832 -0.8508 -2.2786
  550MOL0     H74241   3.341   3.592   1.966  0.1522  3.2032  0.2347
  550MOL0     H74242   3.056   3.533   1.885 -0.5746  2.0112  0.9865
  550MOL0     H74243   3.103   3.539   2.050 -1.1404  1.1145 -0.3931
  550MOL0     H74244   3.221   3.308   1.876  1.0938 -2.5725  1.6248
  550MOL0     H74245   3.258   3.342   2.042  0.5224 -0.5840 -1.2562
  550MOL0     H74246   2.862   3.192   2.053 -0.7754  3.7135  1.4481
  550MOL0     H74247   3.402   3.463   1.544 -0.7139 -0.0317  1.2762
  550MOL0     H74248   3.569   3.303   1.336 -0.3723 -0.2531 -1.7069
  550MOL0     H74249   3.453   3.427   1.306 -0.1886  1.3780  0.9314
  550MOL0     H74250   3.614   3.447   1.246 -0.8954  2.3746  0.9800
  551MOL0     O74251   0.804   0.415   8.370  0.1772 -0.2118 -0.1605
  551MOL0     C74252   0.891   0.502   8.348  0.4074  0.2361  0.1279
  551MOL0     O74253   0.869   0.639   8.329  0.0911  0.0294 -0.4172
  551MOL0     C74254   0.735   0.658   8.293 -0.7603  0.0367  0.5004
  551MOL0     C74255   0.628   0.671   8.384 -0.3512 -0.4944  0.2743
  551MOL0     C74256   0.494   0.683   8.334 -0.5448  0.0065 -0.4070
  551MOL0     C74257   0.460   0.698   8.199 -1.1582  0.2907 -0.4370
  551MOL0     O74258   0.338   0.726   8.144  0.7882 -0.2913 -0.0005
  551MOL0     C74259   0.230   0.745   8.241 -0.9211 -0.1137  0.3167
  551MOL0     C74260   0.095   0.754   8.166  0.3502  0.7482  0.2758
  551MOL0     C74261   0.115   0.862   8.057  0.4552 -0.4816 -0.0588
  551MOL0     C74262  -0.025   0.909   8.008 -0.2848  0.4012  0.0800
  551MOL0     C74263   0.010   1.007   7.895 -0.1958  0.1173 -0.1116
  551MOL0     C74264   0.032   1.147   7.940 -0.3459  0.0328  0.2716
  551MOL0     C74265   0.100   1.239   7.830  0.6140  0.7267  0.7701
  551MOL0     C74266   0.159   1.372   7.880  0.3803 -0.1088 -1.0336
  551MOL0     N74267   0.243   1.431   7.775 -0.0272 -0.7687  0.0993
  551MOL0     C74268   0.360   1.498   7.792 -0.6426 -0.1137  0.4448
  551MOL0     C74269   0.382   1.549   7.669 -0.9716 -0.3924  0.1628
  551MOL0     C74270   0.488   1.646   7.616 -0.4831  0.1612  0.3353
  551MOL0     C74271   0.450   1.796   7.660 -0.1140  0.7905  0.3922
  551MOL0     C74272   0.336   1.849   7.569 -0.2063 -0.6804  0.5592
  551MOL0     C74273   0.332   1.998   7.580 -0.2225 -0.3050 -0.1007
  551MOL0     O74274   0.346   2.055   7.710  0.4961  0.8203 -1.0349
  551MOL0     C74275   0.239   2.032   7.801  0.4282  0.6112 -0.0124
  551MOL0     C74276   0.259   2.048   7.936  0.3011  0.2971  0.1627
  551MOL0     C74277   0.161   2.032   8.032 -0.6167 -0.3371  0.8446
  551MOL0     C74278   0.031   1.984   8.001  0.2772  0.6256 -0.1650
  551MOL0     C74279  -0.066   1.949   8.107  0.3117  0.6722  0.0960
  551MOL0     O74280  -0.038   1.997   8.228 -0.5963  0.6550  0.5616
  551MOL0     C74281  -0.117   1.966   8.326  0.6347 -0.7292 -0.3892
  551MOL0     C74282  -0.097   1.858   8.402  0.1912 -0.5920  0.1443
  551MOL0     C74283  -0.185   1.829   8.501 -0.4439  0.0725 -0.1706
  551MOL0     C74284  -0.267   1.928   8.555  0.3504  0.0982  0.3308
  551MOL0     O74285  -0.344   1.912   8.669 -0.6042  0.2239  0.6565
  551MOL0     C74286  -0.308   1.806   8.758 -0.2004  0.1636 -0.0723
  551MOL0     C74287  -0.401   1.792   8.884 -0.2785  0.0384  0.0721
  551MOL0     C74288  -0.551   1.783   8.852 -0.2148 -0.4489 -0.7564
  551MOL0     C74289  -0.632   1.812   8.973 -0.6255  0.6115  0.2799
  551MOL0     C74290  -0.777   1.817   8.950  0.6077 -0.1589 -0.1762
  551MOL0     C74291  -0.853   1.878   9.072 -0.1325  0.7788  0.5938
  551MOL0     C74292  -1.006   1.883   9.069 -0.1988  0.2185 -0.1479
  551MOL0     C74293  -1.074   1.743   9.052  0.9519  0.5512 -0.1546
  551MOL0    Cl74294  -1.248   1.767   9.042  0.3389  0.2422 -0.3237
  551MOL0     C74295  -0.300   2.038   8.469 -0.2427 -0.1599  0.4180
  551MOL0     C74296  -0.229   2.057   8.356 -0.9574 -0.1000  0.7377
  551MOL0     O74297  -0.169   1.888   8.077  0.2243  0.5595 -0.1244
  551MOL0     C74298   0.005   1.968   7.860  0.1639  0.0578  0.0346
  551MOL0     C74299   0.105   1.995   7.762  0.2479  0.4910 -0.3719
  551MOL0     N74300   0.282   1.526   7.585  1.2160 -0.9982  0.0653
  551MOL0     N74301   0.203   1.447   7.647 -0.2047 -0.2033 -0.0687
  551MOL0     C74302   0.572   0.693   8.117  0.1429 -0.1362 -0.2245
  551MOL0     C74303   0.702   0.671   8.156  0.0626  0.1991  0.7953
  551MOL0     C74304   1.031   0.446   8.374  0.0681 -0.3028  1.1358
  551MOL0     C74305   1.130   0.543   8.411 -0.8254  0.2901  0.6512
  551MOL0     C74306   1.269   0.515   8.407  0.2679 -0.4712 -0.0279
  551MOL0     C74307   1.306   0.378   8.397  0.0613  0.0786 -0.3303
  551MOL0     O74308   1.432   0.330   8.413 -0.2424 -0.3985 -0.6167
  551MOL0     C74309   1.521   0.402   8.492 -0.2236  0.3009 -0.0039
  551MOL0     C74310   1.616   0.322   8.588 -0.2465 -0.7368  0.3062
  551MOL0     C74311   1.684   0.205   8.517 -0.7643  0.2000  0.0435
  551MOL0     C74312   1.775   0.240   8.400 -0.1102 -0.1517  0.2128
  551MOL0     C74313   1.897   0.299   8.458 -0.1636 -0.2303 -0.0824
  551MOL0     C74314   1.992   0.362   8.501 -0.1747  0.1701 -0.5502
  551MOL0     C74315   1.213   0.281   8.371  0.2716  0.1296 -1.3262
  551MOL0     C74316   1.073   0.313   8.362  0.4536 -0.0722 -0.3772
  551MOL0     C74317   0.995   0.194   8.321  0.5483 -1.3204 -0.4497
  551MOL0     H74318   0.643   0.682   8.491 -0.3198 -1.6787  0.3964
  551MOL0     H74319   0.417   0.681   8.410  1.7080 -1.7138  2.0410
  551MOL0     H74320   0.230   0.662   8.312  0.9582 -1.3408 -1.0012
  551MOL0     H74321   0.250   0.839   8.293 -0.5791  0.4722 -0.8291
  551MOL0     H74322   0.030   0.787   8.248  0.8459  0.9853  0.5757
  551MOL0     H74323   0.068   0.659   8.120  0.6381 -0.5188  2.5743
  551MOL0     H74324   0.170   0.819   7.973 -0.3600  2.4207 -2.2758
  551MOL0     H74325   0.172   0.945   8.100 -0.2283 -0.7553  1.4336
  551MOL0     H74326  -0.072   0.835   7.943  1.4231  0.6671 -1.5479
  551MOL0     H74327  -0.098   0.948   8.080 -0.3130  0.0621  0.2361
  551MOL0     H74328   0.089   0.963   7.833  0.4225  1.3325 -0.2346
  551MOL0     H74329  -0.072   1.005   7.823 -0.1016  0.1378 -0.2198
  551MOL0     H74330  -0.061   1.198   7.968  1.0821  2.6231  0.5689
  551MOL0     H74331   0.098   1.148   8.027 -0.6594 -0.6821  0.5234
  551MOL0     H74332   0.031   1.244   7.745  3.1107 -0.8158 -1.5355
  551MOL0     H74333   0.190   1.189   7.794  0.4679  0.1578  1.1765
  551MOL0     H74334   0.079   1.438   7.914  0.2875 -1.5097  1.7360
  551MOL0     H74335   0.212   1.356   7.975 -2.4373  1.3407  0.9463
  551MOL0     H74336   0.430   1.504   7.875 -0.7607  1.0515  0.4854
  551MOL0     H74337   0.588   1.614   7.647  0.1701 -0.3028 -2.0779
  551MOL0     H74338   0.484   1.636   7.507 -0.6276 -3.0700  0.5431
  551MOL0     H74339   0.431   1.807   7.767  0.5913  0.5355  0.5503
  551MOL0     H74340   0.534   1.864   7.648 -1.4302  2.1986 -1.3950
  551MOL0     H74341   0.239   1.810   7.601 -0.5421 -0.8696 -0.6642
  551MOL0     H74342   0.343   1.822   7.464 -1.3105 -0.7490  0.4948
  551MOL0     H74343   0.246   2.038   7.525  0.4922  1.4073 -0.0649
  551MOL0     H74344   0.417   2.039   7.524  1.4431 -2.3115  0.8215
  551MOL0     H74345   0.364   2.063   7.962 -0.0343  0.4192  1.5574
  551MOL0     H74346   0.180   2.062   8.135 -1.4443  1.1069  0.6220
  551MOL0     H74347  -0.028   1.779   8.375 -1.3965 -1.4873 -1.5303
  551MOL0     H74348  -0.168   1.734   8.551 -0.4799  1.2594  2.2770
  551MOL0     H74349  -0.328   1.713   8.704  0.5841 -0.7766  1.1769
  551MOL0     H74350  -0.201   1.802   8.780  0.0020 -0.4550 -1.1056
  551MOL0     H74351  -0.376   1.703   8.942 -2.3190 -0.5549  0.1097
  551MOL0     H74352  -0.376   1.881   8.942  1.0233 -1.6375  2.2341
  551MOL0     H74353  -0.583   1.845   8.768 -0.8594 -2.3254 -1.9552
  551MOL0     H74354  -0.561   1.681   8.815  0.1812 -1.0561  0.7424
  551MOL0     H74355  -0.600   1.900   9.029 -2.3181  0.8061  1.0050
  551MOL0     H74356  -0.608   1.728   9.039 -0.2678  1.0718  0.7410
  551MOL0     H74357  -0.819   1.720   8.922 -4.5857  0.9057  2.6967
  551MOL0     H74358  -0.800   1.881   8.865  0.8552  0.7916  0.4635
  551MOL0     H74359  -0.828   1.807   9.151 -2.1420  0.2818  0.8362
  551MOL0     H74360  -0.812   1.978   9.090 -0.0746  0.4820  2.2518
  551MOL0     H74361  -1.047   1.957   8.999 -2.1040  0.2808  0.9572
  551MOL0     H74362  -1.033   1.924   9.166 -2.9171 -1.8923  0.1205
  551MOL0     H74363  -1.052   1.680   8.965 -0.3050 -2.4075  1.5088
  551MOL0     H74364  -1.055   1.678   9.138 -0.8679  0.1581  0.0022
  551MOL0     H74365  -0.375   2.114   8.492 -0.0055 -0.3999  2.1157
  551MOL0     H74366  -0.251   2.146   8.298  0.5115  1.1032  1.9354
  551MOL0     H74367  -0.093   1.935   7.827 -0.7208  3.2562 -0.9464
  551MOL0     H74368   0.085   1.977   7.657  2.6652  1.0980 -0.9910
  551MOL0     H74369   0.551   0.711   8.012 -1.5256  0.4936  0.1750
  551MOL0     H74370   0.785   0.663   8.087 -0.0967  0.0188  0.6268
  551MOL0     H74371   1.105   0.649   8.405  1.4344  0.9301  1.3336
  551MOL0     H74372   1.333   0.602   8.417 -0.0655 -0.1077 -0.9701
  551MOL0     H74373   1.465   0.467   8.560  1.2091 -0.2101  1.7449
  551MOL0     H74374   1.584   0.468   8.432  0.4760 -1.0672 -0.8338
  551MOL0     H74375   1.559   0.280   8.671 -1.2510  1.2780  0.6881
  551MOL0     H74376   1.688   0.387   8.639  1.3703 -3.6676  2.0518
  551MOL0     H74377   1.603   0.140   8.483 -1.1131  1.1099 -0.9036
  551MOL0     H74378   1.742   0.154   8.595 -0.8309 -1.3884 -0.8915
  551MOL0     H74379   1.821   0.160   8.341 -0.8271  0.7712 -1.6825
  551MOL0     H74380   1.731   0.310   8.328  0.2658  0.4072  0.5117
  551MOL0     H74381   2.064   0.419   8.557 -1.5723  0.4220  1.0885
  551MOL0     H74382   1.240   0.176   8.374 -3.8891 -1.2292 -3.4432
  551MOL0     H74383   1.042   0.102   8.286  1.5991 -0.7340 -0.6269
  551MOL0     H74384   0.918   0.167   8.393 -0.9272 -2.9561 -2.5155
  551MOL0     H74385   0.943   0.230   8.231 -2.1730  1.6249  2.0621
  552MOL0     O74386   8.429   3.682   4.123 -0.1749  0.2202  0.4576
  552MOL0     C74387   8.342   3.594   4.092  0.3264 -0.3887 -0.2606
  552MOL0     O74388   8.352   3.458   4.112 -0.0780 -0.7517 -0.1463
  552MOL0     C74389   8.458   3.414   4.196 -0.3304 -0.0355  0.4911
  552MOL0     C74390   8.448   3.409   4.340 -0.1507 -0.8287  0.8823
  552MOL0     C74391   8.556   3.379   4.419 -0.7161  0.4360 -0.0482
  552MOL0     C74392   8.675   3.333   4.362  0.0712 -0.9379 -0.9148
  552MOL0     O74393   8.770   3.320   4.463  0.0867  0.2475  0.2866
  552MOL0     C74394   8.905   3.356   4.432  0.4479  0.1566 -0.0751
  552MOL0     C74395   8.976   3.361   4.570  0.6551  0.0682  0.4810
  552MOL0     C74396   9.086   3.474   4.579 -0.4729  0.1736  0.4897
  552MOL0     C74397   9.142   3.477   4.716  0.7378 -0.5307  0.0308
  552MOL0     C74398   9.225   3.601   4.740  0.0481 -0.0281  1.1374
  552MOL0     C74399   9.145   3.722   4.798 -0.5713 -0.3073 -0.0110
  552MOL0     C74400   9.214   3.860   4.797  0.2168 -0.7682 -0.5145
  552MOL0     C74401   9.140   3.959   4.884  0.2843 -0.6563  0.2837
  552MOL0     N74402   8.998   3.951   4.875  0.6539  0.7447 -0.3814
  552MOL0     C74403   8.927   3.961   4.758 -0.7656 -0.5234  0.2074
  552MOL0     C74404   8.799   3.925   4.785 -1.3262 -0.2380 -1.6799
  552MOL0     C74405   8.695   3.902   4.688  0.2180  0.9808 -0.0659
  552MOL0     C74406   8.743   3.795   4.581  0.4717 -0.6859 -0.9484
  552MOL0     C74407   8.631   3.742   4.493 -0.1132  0.3310  0.5055
  552MOL0     C74408   8.524   3.840   4.435  1.0843 -0.8340 -0.3781
  552MOL0     O74409   8.433   3.879   4.541 -0.5503  0.4842 -0.4466
  552MOL0     C74410   8.299   3.876   4.517 -0.7703  0.2961 -0.5103
  552MOL0     C74411   8.218   3.929   4.618 -0.5062 -0.6834  0.5718
  552MOL0     C74412   8.079   3.949   4.592  0.2668 -0.8189  0.2639
  552MOL0     C74413   8.014   3.918   4.476 -0.1749  1.1206  0.9016
  552MOL0     C74414   7.876   3.963   4.444 -0.8490  0.1967  0.1490
  552MOL0     O74415   7.835   4.072   4.511 -0.4374  0.0265 -0.1442
  552MOL0     C74416   7.703   4.110   4.481 -0.6829  0.6111  0.3225
  552MOL0     C74417   7.681   4.216   4.394 -0.0172 -0.4329 -0.3796
  552MOL0     C74418   7.545   4.248   4.363  0.5192  0.4559  0.2119
  552MOL0     C74419   7.437   4.169   4.403 -0.0433 -0.6229  0.2945
  552MOL0     O74420   7.312   4.203   4.355  0.4305 -0.6584 -0.3395
  552MOL0     C74421   7.217   4.098   4.339  0.2079 -0.6783  0.3799
  552MOL0     C74422   7.130   4.136   4.215  0.0558 -0.4855  0.1269
  552MOL0     C74423   7.032   4.029   4.185 -0.8363  0.1563  0.2750
  552MOL0     C74424   6.970   4.051   4.043  0.0335  1.2050  0.1355
  552MOL0     C74425   6.881   3.937   4.008  0.2698  0.0496  0.3926
  552MOL0     C74426   6.790   3.968   3.889  0.0463 -0.1547 -0.8029
  552MOL0     C74427   6.698   3.849   3.862  0.1599 -0.0827 -0.2067
  552MOL0     C74428   6.593   3.864   3.745  0.5588 -0.4517 -0.6689
  552MOL0    Cl74429   6.500   4.016   3.757 -0.1592 -0.2142  0.3150
  552MOL0     C74430   7.461   4.058   4.489  0.1051 -0.1180 -0.1065
  552MOL0     C74431   7.592   4.038   4.528 -0.6499 -1.0025  0.0299
  552MOL0     O74432   7.803   3.885   4.383  0.3995  0.2607 -1.0922
  552MOL0     C74433   8.099   3.862   4.373  0.6272  0.2771 -0.6585
  552MOL0     C74434   8.240   3.843   4.394  0.7452 -0.2388  0.3316
  552MOL0     N74435   8.796   3.888   4.920 -0.6662  0.2357  0.0389
  552MOL0     N74436   8.915   3.908   4.972  0.3231  0.1157  0.3736
  552MOL0     C74437   8.683   3.319   4.217 -0.4059 -0.8640 -0.3353
  552MOL0     C74438   8.579   3.371   4.139 -0.1743  0.6593  0.1148
  552MOL0     C74439   8.207   3.655   4.055 -0.3269 -0.8771  0.1373
  552MOL0     C74440   8.213   3.784   3.999  0.4069  0.0282 -0.9584
  552MOL0     C74441   8.091   3.853   3.959 -0.0305  0.0647  0.5186
  552MOL0     C74442   7.974   3.799   3.990  0.4959 -0.7189 -0.0759
  552MOL0     O74443   7.852   3.865   3.961 -0.7225  0.3972  0.0835
  552MOL0     C74444   7.823   3.982   4.043  0.3375  0.6902  0.2213
  552MOL0     C74445   7.693   3.948   4.109  0.4878 -0.3192 -0.0084
  552MOL0     C74446   7.577   3.970   4.003 -0.2121 -0.0611 -0.0814
  552MOL0     C74447   7.448   3.933   4.063 -0.1984 -0.6128 -0.5236
  552MOL0     C74448   7.348   3.879   3.971 -0.2214 -0.0085  0.5624
  552MOL0     C74449   7.254   3.845   3.900 -0.0312 -0.1147 -0.6573
  552MOL0     C74450   7.971   3.676   4.045  0.3738  0.3507 -0.0294
  552MOL0     C74451   8.078   3.598   4.078 -0.5822 -1.0226 -0.5935
  552MOL0     C74452   8.065   3.469   4.138 -0.1280 -0.1298 -0.5901
  552MOL0     H74453   8.356   3.433   4.392 -0.6446 -1.1893  0.1711
  552MOL0     H74454   8.554   3.362   4.526  2.7477 -3.9738 -0.3628
  552MOL0     H74455   8.955   3.274   4.379  1.2032  0.1050  0.6933
  552MOL0     H74456   8.906   3.453   4.380  0.7065  0.2763  0.1525
  552MOL0     H74457   9.021   3.264   4.593 -0.8370 -0.9898 -0.8382
  552MOL0     H74458   8.906   3.386   4.649  1.5553  1.0019  1.0075
  552MOL0     H74459   9.031   3.567   4.563  0.8471  0.6808 -1.5238
  552MOL0     H74460   9.175   3.471   4.515  2.0700  0.9200  3.6988
  552MOL0     H74461   9.060   3.465   4.788  1.2372 -1.0790  0.5149
  552MOL0     H74462   9.207   3.389   4.724 -1.4747 -2.2516  0.1731
  552MOL0     H74463   9.309   3.574   4.805  0.8367 -2.5721 -0.7869
  552MOL0     H74464   9.267   3.637   4.646  0.2173 -1.2942  0.7043
  552MOL0     H74465   9.050   3.716   4.743  0.3236  0.0459 -1.6470
  552MOL0     H74466   9.104   3.703   4.898  1.0357 -2.7478  0.2685
  552MOL0     H74467   9.220   3.895   4.694  2.2539 -1.7900 -0.7972
  552MOL0     H74468   9.321   3.839   4.810  0.5512  0.1570 -1.6227
  552MOL0     H74469   9.176   3.944   4.987  0.1213 -0.4405  0.3714
  552MOL0     H74470   9.180   4.058   4.860  1.3430 -1.1424 -0.0101
  552MOL0     H74471   8.966   3.980   4.658  0.4853  2.3006  1.1464
  552MOL0     H74472   8.609   3.850   4.731  2.0226 -3.8536 -1.6147
  552MOL0     H74473   8.676   4.004   4.653 -1.8092  0.9754  0.9187
  552MOL0     H74474   8.820   3.843   4.521  0.6395  0.9228  0.4775
  552MOL0     H74475   8.784   3.711   4.637  0.3231  0.7238  1.4220
  552MOL0     H74476   8.572   3.669   4.549  1.8572 -1.2899  0.5894
  552MOL0     H74477   8.678   3.684   4.414 -3.0743 -1.8867  0.1860
  552MOL0     H74478   8.481   3.792   4.347  2.9917  0.2902 -2.0073
  552MOL0     H74479   8.575   3.932   4.406  1.1356  0.6041  3.5797
  552MOL0     H74480   8.259   3.953   4.716 -1.0665 -1.1265  0.9227
  552MOL0     H74481   8.028   4.000   4.673 -0.1984  0.3373 -0.7304
  552MOL0     H74482   7.757   4.286   4.361 -0.6634  1.8319  2.4875
  552MOL0     H74483   7.527   4.332   4.297  1.9435 -0.1840 -1.0635
  552MOL0     H74484   7.283   4.011   4.326  0.5873 -0.9720  3.4534
  552MOL0     H74485   7.155   4.086   4.428  0.8315  1.4761  1.1857
  552MOL0     H74486   7.075   4.225   4.245 -0.8909 -0.7915 -0.6782
  552MOL0     H74487   7.194   4.155   4.128 -1.7295  0.2964 -1.0488
  552MOL0     H74488   7.071   3.927   4.196 -1.8920 -0.0645  2.7491
  552MOL0     H74489   6.953   4.037   4.261 -1.1447  0.0218 -0.0291
  552MOL0     H74490   7.046   4.048   3.965 -0.7246  1.0934 -0.6115
  552MOL0     H74491   6.920   4.147   4.026  0.7250  1.2772 -1.6443
  552MOL0     H74492   6.812   3.916   4.091  0.6276  0.4666  0.8028
  552MOL0     H74493   6.946   3.857   3.972  0.8964 -0.6442  2.8721
  552MOL0     H74494   6.728   4.055   3.914 -1.2400 -1.2748  0.0213
  552MOL0     H74495   6.834   3.988   3.791  1.2092  1.0919 -0.0623
  552MOL0     H74496   6.649   3.821   3.956  1.2856 -1.1944  0.0859
  552MOL0     H74497   6.764   3.765   3.836  0.4879  0.3532 -0.7934
  552MOL0     H74498   6.638   3.885   3.648  0.1427  0.1297 -0.7469
  552MOL0     H74499   6.517   3.786   3.742 -1.3717  1.2544  0.7862
  552MOL0     H74500   7.388   3.993   4.536  0.0152  0.4818  0.5981
  552MOL0     H74501   7.606   3.954   4.596 -0.5614  0.2624  1.6171
  552MOL0     H74502   8.056   3.837   4.277 -1.5078 -0.6747  0.4643
  552MOL0     H74503   8.284   3.790   4.310  1.8913 -1.4969  1.6606
  552MOL0     H74504   8.770   3.275   4.169  0.1561  2.3638 -2.6048
  552MOL0     H74505   8.591   3.378   4.031 -2.0105  0.4037 -0.1323
  552MOL0     H74506   8.308   3.828   3.969  0.8400  1.0545  1.6776
  552MOL0     H74507   8.099   3.950   3.912  1.9486 -0.4749 -0.3845
  552MOL0     H74508   7.821   4.070   3.978  1.0425  0.7704  0.2969
  552MOL0     H74509   7.904   4.001   4.114 -0.3150 -0.0357  1.1869
  552MOL0     H74510   7.676   4.006   4.200  1.3677  1.0817 -0.6942
  552MOL0     H74511   7.703   3.843   4.138 -0.2724 -0.7051 -1.0444
  552MOL0     H74512   7.603   3.907   3.917  1.1097  0.1598  0.1314
  552MOL0     H74513   7.564   4.065   3.952  3.7860 -0.9619 -3.3359
  552MOL0     H74514   7.452   3.860   4.145 -0.9079  1.9901  2.0173
  552MOL0     H74515   7.416   4.027   4.109  2.8894  1.4481 -2.2225
  552MOL0     H74516   7.168   3.812   3.844  0.0318 -2.3400  0.4613
  552MOL0     H74517   7.873   3.638   4.072  1.7745 -1.5062  3.0073
  552MOL0     H74518   8.088   3.465   4.245 -0.0171 -0.6718 -0.6310
  552MOL0     H74519   7.964   3.428   4.130  0.4879 -2.6381  2.4592
  552MOL0     H74520   8.133   3.397   4.090  1.9767  0.8524  0.7493
  553MOL0     O74521   0.571   9.805   2.008  0.3556 -0.2963  0.5072
  553MOL0     C74522   0.522   9.787   2.119 -0.1610 -0.2492  0.1960
  553MOL0     O74523   0.596   9.777   2.235  0.5011 -0.3076 -0.0521
  553MOL0     C74524   0.730   9.815   2.240  0.3874  0.0522 -0.8285
  553MOL0     C74525   0.816   9.735   2.165 -0.0339  0.5868 -0.1708
  553MOL0     C74526   0.953   9.771   2.166  0.9760  0.4199 -1.1034
  553MOL0     C74527   0.991   9.889   2.239  0.4095  0.2928 -0.4366
  553MOL0     O74528   1.119   9.935   2.244 -0.5794 -0.5992 -0.3171
  553MOL0     C74529   1.216   9.876   2.153 -0.1193  0.1823 -0.1605
  553MOL0     C74530   1.351   9.958   2.142  0.6727  0.1419 -1.0546
  553MOL0     C74531   1.456   9.878   2.051  0.4588 -0.1189  0.7121
  553MOL0     C74532   1.439   9.920   1.903 -0.5380  0.7294  0.2404
  553MOL0     C74533   1.530   9.841   1.806  0.1834 -0.7100 -0.7249
  553MOL0     C74534   1.570   9.910   1.674 -0.4048 -0.7110 -0.2303
  553MOL0     C74535   1.459   9.932   1.570  0.0076  0.8892 -0.5067
  553MOL0     C74536   1.514  10.019   1.452  0.2119 -1.3226 -0.9010
  553MOL0     N74537   1.568  10.154   1.480  0.1929  0.2017  0.1010
  553MOL0     C74538   1.490  10.265   1.500 -1.2543 -0.1109 -0.6124
  553MOL0     C74539   1.580  10.366   1.498  0.1604  0.6577  0.8334
  553MOL0     C74540   1.536  10.512   1.498  0.6662  0.9381 -0.2197
  553MOL0     C74541   1.645  10.606   1.559 -0.1144  0.0662 -0.7103
  553MOL0     C74542   1.692  10.574   1.703  0.0017 -0.6601 -0.3148
  553MOL0     C74543   1.823  10.646   1.736 -0.2062 -0.0045 -0.0155
  553MOL0     O74544   1.890  10.589   1.853 -0.3788 -0.6312  0.1328
  553MOL0     C74545   2.001  10.655   1.889  0.2640 -0.9021 -0.7811
  553MOL0     C74546   2.070  10.603   2.006 -0.0586 -0.2328 -0.3578
  553MOL0     C74547   2.178  10.657   2.067 -0.1696  0.4594  0.3665
  553MOL0     C74548   2.243  10.761   2.000 -0.1421  0.1688  0.5552
  553MOL0     C74549   2.369  10.826   2.056  0.5790  1.0298  0.0059
  553MOL0     O74550   2.388  10.807   2.184 -0.3566 -0.8576 -0.5533
  553MOL0     C74551   2.480  10.881   2.248  0.4772  0.5579 -0.0357
  553MOL0     C74552   2.581  10.813   2.313 -0.8027 -0.6216  0.3225
  553MOL0     C74553   2.686  10.880   2.371  0.4504  0.8649 -0.2978
  553MOL0     C74554   2.690  11.020   2.380  0.1658 -1.2744  0.1421
  553MOL0     O74555   2.794  11.104   2.415 -0.2278  0.0577 -0.3012
  553MOL0     C74556   2.896  11.047   2.489  0.2586  0.9228 -0.6260
  553MOL0     C74557   3.011  11.139   2.522  0.5519  0.5731 -0.3981
  553MOL0     C74558   3.104  11.164   2.401 -0.5049 -0.7643  0.0422
  553MOL0     C74559   3.224  11.259   2.418  0.3390 -0.2929 -0.5001
  553MOL0     C74560   3.318  11.227   2.531 -0.0482  0.3892 -0.3872
  553MOL0     C74561   3.451  11.308   2.513 -0.1875  0.0714 -0.4834
  553MOL0     C74562   3.575  11.252   2.579 -0.4992 -0.0304 -0.2710
  553MOL0     C74563   3.701  11.298   2.507 -1.2083 -0.1419  0.1637
  553MOL0    Cl74564   3.723  11.188   2.370  0.0893 -0.1330  0.1247
  553MOL0     C74565   2.573  11.082   2.328 -0.6820 -0.0684  1.6846
  553MOL0     C74566   2.476  11.016   2.251 -0.6689  0.2901 -0.3356
  553MOL0     O74567   2.441  10.887   1.977 -0.3603 -0.3211  0.4877
  553MOL0     C74568   2.184  10.822   1.886  0.9794 -0.1683  0.4138
  553MOL0     C74569   2.073  10.761   1.830  0.7385 -0.5493 -1.1161
  553MOL0     N74570   1.706  10.312   1.483  0.1762  0.3200 -0.0565
  553MOL0     N74571   1.697  10.186   1.483  0.5476 -0.1501 -0.7235
  553MOL0     C74572   0.894   9.965   2.309  0.3192 -0.0315  0.0348
  553MOL0     C74573   0.765   9.931   2.300  0.6865 -0.8161  0.7271
  553MOL0     C74574   0.375   9.794   2.138 -0.0111  0.2009 -0.4724
  553MOL0     C74575   0.329   9.774   2.271  0.7102  1.1600 -0.7124
  553MOL0     C74576   0.197   9.800   2.311  0.5522 -0.6600 -0.7614
  553MOL0     C74577   0.108   9.820   2.208 -0.4752  0.6694 -0.5696
  553MOL0     O74578  -0.026   9.851   2.221  0.6970  0.1350 -0.4219
  553MOL0     C74579  -0.098   9.829   2.347 -0.3917 -0.1205  0.0393
  553MOL0     C74580  -0.095   9.672   2.374 -1.0268  0.2258 -0.2892
  553MOL0     C74581  -0.201   9.622   2.470 -1.0630  0.1066  0.5041
  553MOL0     C74582  -0.336   9.643   2.392  0.2623  0.6402 -0.6819
  553MOL0     C74583  -0.438   9.575   2.468 -0.2784  0.2002 -0.3265
  553MOL0     C74584  -0.530   9.528   2.536  0.4257  0.2908  0.7564
  553MOL0     C74585   0.150   9.835   2.077 -0.4024  0.0273  0.1707
  553MOL0     C74586   0.276   9.820   2.041 -0.1725  0.4912  0.4280
  553MOL0     C74587   0.299   9.844   1.896  0.0170  0.6226 -0.5825
  553MOL0     H74588   0.792   9.645   2.110  3.1261  0.2328 -1.1572
  553MOL0     H74589   1.022   9.702   2.120 -0.4044 -0.3788 -2.0462
  553MOL0     H74590   1.239   9.772   2.179 -2.8329 -0.2931  0.6743
  553MOL0     H74591   1.180   9.879   2.050  0.6202 -2.7294 -0.6102
  553MOL0     H74592   1.395   9.947   2.242 -1.7441  1.4974  0.2511
  553MOL0     H74593   1.335  10.062   2.110  0.6874  0.9708  1.3950
  553MOL0     H74594   1.445   9.771   2.068 -1.0602 -0.0358  0.3345
  553MOL0     H74595   1.560   9.908   2.071  0.3800  1.9017 -1.4546
  553MOL0     H74596   1.331   9.914   1.884 -0.2958  0.9723 -1.3242
  553MOL0     H74597   1.460  10.027   1.895  1.8675  0.2513 -0.3605
  553MOL0     H74598   1.622   9.820   1.861  0.9641  0.8540 -1.3725
  553MOL0     H74599   1.472   9.751   1.785 -1.7186  0.3856 -0.4552
  553MOL0     H74600   1.599  10.010   1.707 -2.8911  0.1813 -0.6032
  553MOL0     H74601   1.653   9.853   1.630  0.5747  0.8375 -0.4501
  553MOL0     H74602   1.372   9.986   1.607 -0.5352  1.5457 -2.5935
  553MOL0     H74603   1.436   9.830   1.538  1.1615 -0.6426  3.1150
  553MOL0     H74604   1.589   9.956   1.402  1.0387 -2.0415  1.1480
  553MOL0     H74605   1.427  10.045   1.391  1.7767  1.2830 -2.1976
  553MOL0     H74606   1.383  10.279   1.499 -1.2834  0.5419  2.1061
  553MOL0     H74607   1.514  10.537   1.394 -0.7193 -2.4907 -0.8868
  553MOL0     H74608   1.450  10.524   1.563  1.2250 -0.3022  0.7913
  553MOL0     H74609   1.734  10.603   1.495 -0.0185 -1.2639 -0.5410
  553MOL0     H74610   1.597  10.705   1.555  0.6682  0.4748 -0.2925
  553MOL0     H74611   1.699  10.468   1.729  1.4333 -0.5040  0.0006
  553MOL0     H74612   1.618  10.619   1.769  0.1721 -1.0125  0.1210
  553MOL0     H74613   1.803  10.750   1.764 -0.2676  0.2002 -0.7904
  553MOL0     H74614   1.881  10.648   1.643  0.7417 -1.5430  0.5008
  553MOL0     H74615   2.016  10.519   2.048  2.5114 -1.5448  0.5324
  553MOL0     H74616   2.215  10.609   2.157  1.4332 -1.1944 -1.0824
  553MOL0     H74617   2.574  10.705   2.310  0.9516 -0.7355 -0.8392
  553MOL0     H74618   2.770  10.821   2.404 -1.3739  0.1692  3.6551
  553MOL0     H74619   2.851  11.002   2.578 -0.0975 -0.3709 -1.4477
  553MOL0     H74620   2.937  10.966   2.429 -0.6575  0.4594 -0.6364
  553MOL0     H74621   2.974  11.237   2.556 -0.2978  0.3518 -0.6562
  553MOL0     H74622   3.058  11.094   2.610  0.4920  0.8990 -0.1959
  553MOL0     H74623   3.140  11.066   2.368  3.3734  1.0924 -1.7947
  553MOL0     H74624   3.041  11.212   2.325  0.5936 -1.3223 -1.2706
  553MOL0     H74625   3.183  11.355   2.449 -0.2271 -0.9656  0.9370
  553MOL0     H74626   3.273  11.249   2.320  0.0979  0.3161 -0.6846
  553MOL0     H74627   3.352  11.124   2.518 -2.3060 -0.3156 -0.9956
  553MOL0     H74628   3.280  11.254   2.630 -0.0027 -0.0674 -0.2436
  553MOL0     H74629   3.472  11.308   2.406  1.2607 -0.2649 -0.2215
  553MOL0     H74630   3.432  11.409   2.552  1.1100 -0.1618  0.8635
  553MOL0     H74631   3.575  11.143   2.581  0.5855 -0.0763 -1.3173
  553MOL0     H74632   3.575  11.294   2.680  0.3720  2.4891 -1.2254
  553MOL0     H74633   3.711  11.404   2.483 -1.1163  0.0225  0.8943
  553MOL0     H74634   3.788  11.267   2.566 -2.1801 -1.6987  0.8585
  553MOL0     H74635   2.576  11.190   2.339  1.7447 -0.1306  2.1338
  553MOL0     H74636   2.397  11.077   2.209  0.2527  1.5446 -0.3095
  553MOL0     H74637   2.236  10.907   1.845 -0.8478  0.3024 -1.0546
  553MOL0     H74638   2.018  10.811   1.751  0.1581 -2.4942 -1.9880
  553MOL0     H74639   0.929  10.051   2.366 -2.2483  0.5152  0.9319
  553MOL0     H74640   0.687   9.976   2.361  0.0790 -2.8724  1.5434
  553MOL0     H74641   0.397   9.762   2.354 -0.7067  0.2839  0.3745
  553MOL0     H74642   0.157   9.807   2.412 -0.0303  1.4641 -1.0888
  553MOL0     H74643  -0.202   9.859   2.332  0.2629  2.5258  0.3977
  553MOL0     H74644  -0.047   9.882   2.428  0.0937  0.6335 -0.7415
  553MOL0     H74645   0.005   9.652   2.413 -1.4673  2.2031  2.0793
  553MOL0     H74646  -0.105   9.623   2.277 -1.3585 -1.9592  0.7832
  553MOL0     H74647  -0.191   9.666   2.570 -1.0486 -3.1133  2.0615
  553MOL0     H74648  -0.193   9.513   2.480 -1.5750  0.0699  0.5231
  553MOL0     H74649  -0.361   9.747   2.369 -0.2469  0.9145  1.0009
  553MOL0     H74650  -0.329   9.580   2.303 -1.0199 -3.1943  1.7015
  553MOL0     H74651  -0.615   9.488   2.586  1.7036 -2.5171  0.9146
  553MOL0     H74652   0.077   9.866   2.003 -0.0423 -0.2438 -0.2984
  553MOL0     H74653   0.370   9.766   1.866  2.8787  1.7423  2.6775
  553MOL0     H74654   0.219   9.838   1.822  2.3603 -0.1202 -3.2136
  553MOL0     H74655   0.340   9.942   1.874  1.5999 -0.0693 -0.8493
  554MOL0     O74656  11.186   1.248  10.481  0.4346 -0.6048  0.3948
  554MOL0     C74657  11.188   1.190  10.371  0.3245  0.2500 -0.1918
  554MOL0     O74658  11.294   1.167  10.296 -0.6322  0.4584  0.3104
  554MOL0     C74659  11.418   1.220  10.341 -0.2382 -0.5472  0.8628
  554MOL0     C74660  11.482   1.304  10.242 -0.7801 -0.3482  0.6111
  554MOL0     C74661  11.606   1.370  10.271  0.9795 -0.5736  0.1987
  554MOL0     C74662  11.661   1.357  10.402 -0.4821  0.0727  0.4097
  554MOL0     O74663  11.774   1.428  10.443  0.7248 -0.6289 -0.3994
  554MOL0     C74664  11.878   1.464  10.353  0.3533 -0.1423  0.0206
  554MOL0     C74665  11.989   1.517  10.438 -0.5487 -0.1628 -0.2618
  554MOL0     C74666  12.120   1.532  10.357 -0.2237 -0.4961 -0.3382
  554MOL0     C74667  12.230   1.620  10.416  0.4872 -0.2050  0.9698
  554MOL0     C74668  12.349   1.617  10.316 -0.4985 -1.0643 -0.0719
  554MOL0     C74669  12.470   1.667  10.396  0.4283  1.0092 -0.1423
  554MOL0     C74670  12.599   1.647  10.327  0.0507  0.2997 -0.6849
  554MOL0     C74671  12.705   1.720  10.401  0.0971 -0.5795  0.0007
  554MOL0     N74672  12.837   1.652  10.383 -0.7975  0.0906  0.4479
  554MOL0     C74673  12.894   1.563  10.462 -0.0146  0.5803  1.0722
  554MOL0     C74674  13.012   1.522  10.396 -0.3828  0.0972 -0.7897
  554MOL0     C74675  13.105   1.429  10.467 -0.0241  0.6724 -0.7034
  554MOL0     C74676  13.250   1.474  10.440 -0.3062  0.8996  0.1291
  554MOL0     C74677  13.341   1.379  10.513  0.8885  0.2653 -0.8173
  554MOL0     C74678  13.487   1.400  10.480  1.1316 -0.3791  0.6310
  554MOL0     O74679  13.558   1.338  10.581  0.1337  0.9390  0.0561
  554MOL0     C74680  13.689   1.304  10.553  1.0571  0.6421 -0.6191
  554MOL0     C74681  13.787   1.313  10.661  0.1493 -0.9625 -0.1159
  554MOL0     C74682  13.925   1.295  10.633  0.2194 -0.6446 -0.1922
  554MOL0     C74683  13.961   1.243  10.505 -0.2965 -0.2371  0.1621
  554MOL0     C74684  14.100   1.195  10.478  0.3495 -0.1486  0.4323
  554MOL0     O74685  14.184   1.191  10.579  0.1506 -0.1720 -0.1779
  554MOL0     C74686  14.317   1.153  10.561  0.2114  0.1691  0.5982
  554MOL0     C74687  14.369   1.123  10.685  0.1775  0.4124  0.3772
  554MOL0     C74688  14.504   1.072  10.698  1.1237 -0.1121 -0.0583
  554MOL0     C74689  14.584   1.060  10.584 -0.7452  0.0230 -0.0108
  554MOL0     O74690  14.713   1.006  10.584 -0.2963 -0.3577  0.0208
  554MOL0     C74691  14.814   1.104  10.624  0.7079 -0.7237 -0.5539
  554MOL0     C74692  14.944   1.040  10.645 -0.0528 -0.1493 -0.2243
  554MOL0     C74693  15.033   1.032  10.524 -0.1963  0.4323  0.1605
  554MOL0     C74694  14.967   0.916  10.424 -0.3249  0.2994 -0.2004
  554MOL0     C74695  15.071   0.843  10.333 -0.4498  0.1251 -0.2255
  554MOL0     C74696  15.011   0.737  10.233  0.3874 -0.7289 -0.2334
  554MOL0     C74697  15.121   0.646  10.177 -0.4836  1.0879  0.4500
  554MOL0     C74698  15.072   0.541  10.077 -0.2269 -0.1898  0.3215
  554MOL0    Cl74699  14.948   0.436  10.154  0.1266  0.3379 -0.0008
  554MOL0     C74700  14.530   1.095  10.459  0.7782 -0.6997  0.4578
  554MOL0     C74701  14.403   1.144  10.448  0.0916  0.7204  0.5042
  554MOL0     O74702  14.129   1.156  10.362 -0.4925 -0.3602  0.3133
  554MOL0     C74703  13.868   1.233  10.400 -0.9874  0.3351  1.0210
  554MOL0     C74704  13.740   1.273  10.427  0.8054  0.5004  0.3782
  554MOL0     N74705  13.030   1.602  10.291 -0.0918  0.4244  1.0804
  554MOL0     N74706  12.928   1.683  10.292  0.7149  0.6540 -0.2032
  554MOL0     C74707  11.600   1.280  10.500  0.1543  0.0450 -0.7415
  554MOL0     C74708  11.480   1.214  10.464 -1.0062  0.2097 -0.2519
  554MOL0     C74709  11.055   1.135  10.333  0.0835 -0.1835  0.3644
  554MOL0     C74710  10.951   1.129  10.428 -0.2046  0.2749 -0.1204
  554MOL0     C74711  10.831   1.069  10.400 -0.9667  0.1649  0.0396
  554MOL0     C74712  10.804   1.015  10.277 -0.2370  0.4010  0.5018
  554MOL0     O74713  10.693   0.941  10.249 -0.3101  0.5843  0.5608
  554MOL0     C74714  10.571   1.013  10.229 -0.5621 -0.5285 -0.3638
  554MOL0     C74715  10.458   0.966  10.312  0.3930 -0.1367 -0.3830
  554MOL0     C74716  10.409   0.817  10.271 -0.2991 -0.1367 -0.9249
  554MOL0     C74717  10.291   0.761  10.343  0.0863 -0.5270 -0.6772
  554MOL0     C74718  10.312   0.745  10.485  0.6727  0.3729  0.0520
  554MOL0     C74719  10.318   0.710  10.601  0.0678  0.1010 -0.1147
  554MOL0     C74720  10.903   1.025  10.181  0.6338  0.4763  1.1256
  554MOL0     C74721  11.033   1.081  10.210  0.5885  0.5373  0.7577
  554MOL0     C74722  11.122   1.091  10.086 -0.2181  0.3585 -0.1710
  554MOL0     H74723  11.436   1.323  10.146 -1.1488 -0.4821  0.7604
  554MOL0     H74724  11.647   1.432  10.192  2.2375 -1.3876  0.1788
  554MOL0     H74725  11.923   1.380  10.299  0.2649  0.4983 -1.0794
  554MOL0     H74726  11.854   1.542  10.280  1.9944 -0.7782 -1.2700
  554MOL0     H74727  12.004   1.464  10.532  0.3391  1.9800  0.8757
  554MOL0     H74728  11.958   1.618  10.465 -0.6480 -0.5993  1.3335
  554MOL0     H74729  12.099   1.575  10.259 -0.2036 -0.7936 -0.4729
  554MOL0     H74730  12.153   1.430  10.337  0.2397 -0.4570  0.2132
  554MOL0     H74731  12.195   1.721  10.441 -0.3632 -0.1603 -0.3458
  554MOL0     H74732  12.258   1.570  10.510 -1.5366 -2.4252  0.5084
  554MOL0     H74733  12.363   1.515  10.277 -2.3434 -1.6432  0.7020
  554MOL0     H74734  12.326   1.680  10.229  0.7433 -2.1901 -1.2704
  554MOL0     H74735  12.458   1.774  10.414 -1.3121  0.5487  1.7780
  554MOL0     H74736  12.470   1.617  10.493 -1.1652  1.6280  0.2082
  554MOL0     H74737  12.607   1.696  10.229  2.5827  1.8433  0.1977
  554MOL0     H74738  12.620   1.542  10.306 -1.9748  0.3108 -3.3681
  554MOL0     H74739  12.707   1.824  10.365 -1.1755  0.4412  2.5908
  554MOL0     H74740  12.696   1.725  10.510 -0.3791 -1.2455  0.0006
  554MOL0     H74741  12.853   1.521  10.553 -1.4270 -0.3716  0.0386
  554MOL0     H74742  13.079   1.425  10.574 -0.3192 -0.1678 -0.7974
  554MOL0     H74743  13.108   1.328  10.427 -1.4313  0.5136 -0.4536
  554MOL0     H74744  13.280   1.466  10.335 -0.3144  1.8563  0.0402
  554MOL0     H74745  13.259   1.574  10.483  2.4144  0.4203  0.8502
  554MOL0     H74746  13.314   1.274  10.498  0.0345  0.1607  1.1688
  554MOL0     H74747  13.332   1.394  10.621 -3.2847 -2.6483 -0.5431
  554MOL0     H74748  13.508   1.507  10.479 -0.5086 -0.0151  1.5745
  554MOL0     H74749  13.502   1.362  10.378 -0.6509 -0.0904  0.2230
  554MOL0     H74750  13.751   1.352  10.755  0.6035  0.1606 -0.3929
  554MOL0     H74751  13.990   1.317  10.718 -1.7664 -0.8030  1.4502
  554MOL0     H74752  14.300   1.138  10.768 -1.0049  3.9030 -1.0818
  554MOL0     H74753  14.549   1.049  10.793  1.5136  1.3495  0.1358
  554MOL0     H74754  14.825   1.191  10.559  4.2596 -1.7764 -1.5729
  554MOL0     H74755  14.792   1.143  10.724 -1.1543 -0.8440 -0.8933
  554MOL0     H74756  14.991   1.091  10.730 -0.0617  0.2911 -0.4784
  554MOL0     H74757  14.929   0.937  10.678  1.3058 -0.1251  0.5503
  554MOL0     H74758  15.037   1.134  10.483  3.5828 -0.1425 -1.3499
  554MOL0     H74759  15.136   1.002  10.546 -0.0249  1.5087  0.9167
  554MOL0     H74760  14.879   0.952  10.370 -2.4869 -2.3200  1.3192
  554MOL0     H74761  14.931   0.835  10.488  3.1260 -0.5120  0.9396
  554MOL0     H74762  15.141   0.788  10.397  0.4403  0.9381 -0.4747
  554MOL0     H74763  15.125   0.918  10.274 -0.7490  0.9411  0.5156
  554MOL0     H74764  14.933   0.677  10.282 -0.9419  0.3047 -0.9902
  554MOL0     H74765  14.961   0.785  10.148 -0.5161  0.1631  0.7709
  554MOL0     H74766  15.177   0.587  10.250 -0.6776  0.9647  0.4998
  554MOL0     H74767  15.188   0.719  10.132  0.3547 -0.8801 -1.6649
  554MOL0     H74768  15.027   0.590   9.990 -0.8611 -0.2680  0.6001
  554MOL0     H74769  15.159   0.482  10.047 -2.1781 -1.3830 -3.6966
  554MOL0     H74770  14.597   1.087  10.374 -1.7938 -3.8201 -1.4886
  554MOL0     H74771  14.365   1.154  10.347  1.1395  1.3909  0.1550
  554MOL0     H74772  13.897   1.196  10.302 -1.1396  1.2239  0.6240
  554MOL0     H74773  13.671   1.269  10.343  3.2249  1.0172 -1.7720
  554MOL0     H74774  11.645   1.274  10.599  2.9497 -0.4902 -1.9465
  554MOL0     H74775  11.441   1.149  10.542  1.7620 -1.7395 -0.3145
  554MOL0     H74776  10.962   1.164  10.530  1.9736 -0.2131 -0.1486
  554MOL0     H74777  10.750   1.060  10.471 -1.2031 -1.4492 -0.3959
  554MOL0     H74778  10.540   1.028  10.126  0.5195 -0.3291 -0.6752
  554MOL0     H74779  10.588   1.111  10.274  2.3206 -0.8049 -0.6439
  554MOL0     H74780  10.374   1.036  10.318  0.3418 -0.2645  0.5954
  554MOL0     H74781  10.495   0.957  10.414  0.2747 -0.3783 -0.3580
  554MOL0     H74782  10.489   0.743  10.282 -0.6498 -0.1989  2.2069
  554MOL0     H74783  10.383   0.823  10.165 -1.2689  2.1722 -0.6150
  554MOL0     H74784  10.212   0.836  10.334  0.5223  0.0087 -0.1469
  554MOL0     H74785  10.250   0.672  10.295  1.0403 -0.1477 -2.2644
  554MOL0     H74786  10.330   0.678  10.703 -3.8132  4.4733  2.0944
  554MOL0     H74787  10.888   0.983  10.082 -0.8470  0.3250  1.3918
  554MOL0     H74788  11.069   1.061   9.996 -0.8472 -0.0787  0.3355
  554MOL0     H74789  11.168   1.189  10.070  0.7535 -0.3433 -1.8859
  554MOL0     H74790  11.214   1.032  10.085  1.9412  3.1741  3.5095
  555MOL0     O74791   3.121  10.018   3.352 -0.2488 -0.3909  0.4190
  555MOL0     C74792   3.085   9.915   3.402  0.1099  0.2213 -0.7108
  555MOL0     O74793   3.148   9.800   3.400  0.9765  0.2143  0.2023
  555MOL0     C74794   3.273   9.793   3.347 -0.5448 -0.9434  0.7791
  555MOL0     C74795   3.302   9.829   3.215 -0.2703 -0.6182  0.1853
  555MOL0     C74796   3.438   9.825   3.167  0.3705 -0.0317 -0.2085
  555MOL0     C74797   3.550   9.785   3.251  0.3531 -0.5733  0.5273
  555MOL0     O74798   3.672   9.796   3.192 -0.0265 -0.2238  0.0713
  555MOL0     C74799   3.779   9.764   3.272 -1.3577  0.2152  0.2681
  555MOL0     C74800   3.901   9.838   3.210 -0.2915 -0.4045  0.0669
  555MOL0     C74801   4.030   9.802   3.275 -0.4193 -0.2515  0.5727
  555MOL0     C74802   4.147   9.876   3.200 -0.2914 -0.0865 -0.2120
  555MOL0     C74803   4.279   9.802   3.214  0.1566  0.3647  0.2258
  555MOL0     C74804   4.398   9.860   3.132  0.0020  0.1042 -0.0693
  555MOL0     C74805   4.525   9.777   3.131  0.3325 -0.1510  1.4692
  555MOL0     C74806   4.609   9.814   3.005 -0.6758 -0.3024  0.2001
  555MOL0     N74807   4.731   9.745   3.009  0.7220 -0.0388 -0.6875
  555MOL0     C74808   4.739   9.628   2.939  0.6410  0.0431 -0.5598
  555MOL0     C74809   4.853   9.575   2.982  0.5614  0.7739  0.3693
  555MOL0     C74810   4.899   9.436   2.945 -0.2098 -0.2976  0.4698
  555MOL0     C74811   5.052   9.432   2.926  0.5074  1.0527 -0.2215
  555MOL0     C74812   5.103   9.306   2.858 -0.1295  0.3958  0.1724
  555MOL0     C74813   5.252   9.299   2.876  0.2793 -0.2998  1.0056
  555MOL0     O74814   5.292   9.238   3.000 -0.2276  0.5046  0.1598
  555MOL0     C74815   5.422   9.227   3.014 -0.0744  0.6548 -0.6378
  555MOL0     C74816   5.517   9.294   2.939 -0.8598 -0.7277  0.4484
  555MOL0     C74817   5.655   9.285   2.964 -0.2043 -0.4941 -0.3439
  555MOL0     C74818   5.702   9.193   3.058  0.4098  0.3627  0.2613
  555MOL0     C74819   5.848   9.174   3.080 -0.2878 -0.1867 -0.0518
  555MOL0     O74820   5.903   9.057   3.120  0.2924 -0.8904  0.3904
  555MOL0     C74821   6.036   9.033   3.123 -0.2151 -0.1144 -0.3283
  555MOL0     C74822   6.086   8.917   3.068  0.5073  0.2065 -1.0862
  555MOL0     C74823   6.226   8.895   3.062  0.5634  0.3759 -0.0136
  555MOL0     C74824   6.317   8.980   3.114 -1.2089  0.3001 -0.2266
  555MOL0     O74825   6.450   8.939   3.105 -0.7605  0.2800  0.9131
  555MOL0     C74826   6.547   9.048   3.097  0.2877  0.0999  0.4950
  555MOL0     C74827   6.677   8.992   3.030  0.3087 -0.2582 -1.1722
  555MOL0     C74828   6.781   9.105   3.028 -0.4810 -0.5474 -0.0388
  555MOL0     C74829   6.910   9.047   2.975  0.3023  0.4748 -0.7269
  555MOL0     C74830   7.021   9.146   3.001  0.7418  1.2453 -0.0366
  555MOL0     C74831   7.138   9.103   2.905 -0.1354 -0.0347  0.0661
  555MOL0     C74832   7.254   9.209   2.912 -0.1737 -0.1885 -0.5788
  555MOL0     C74833   7.378   9.166   2.837 -0.6102  0.0269 -0.0655
  555MOL0    Cl74834   7.501   9.295   2.815 -0.0173  0.0103 -0.3633
  555MOL0     C74835   6.268   9.096   3.182  0.0704  0.3223  0.3478
  555MOL0     C74836   6.127   9.126   3.185  0.4664  0.6106 -0.6460
  555MOL0     O74837   5.915   9.271   3.036 -0.5122 -0.6343 -0.8337
  555MOL0     C74838   5.612   9.122   3.138 -0.0060 -0.2669  0.7084
  555MOL0     C74839   5.473   9.146   3.115  0.2097 -0.9780  0.0873
  555MOL0     N74840   4.915   9.662   3.068 -0.2350 -0.6582 -1.2646
  555MOL0     N74841   4.843   9.770   3.087 -0.2133 -0.3274 -0.3877
  555MOL0     C74842   3.515   9.734   3.378  0.4332  0.8907 -0.1055
  555MOL0     C74843   3.383   9.742   3.419  0.1677  0.0898 -0.6239
  555MOL0     C74844   2.959   9.925   3.482 -0.3296  0.9310 -0.1607
  555MOL0     C74845   2.933  10.044   3.554  0.7848  0.5669  0.4368
  555MOL0     C74846   2.829  10.061   3.634 -0.6472  0.1258  0.4503
  555MOL0     C74847   2.727   9.966   3.638 -0.2808  0.6152  0.0265
  555MOL0     O74848   2.623   9.997   3.721 -0.1114  1.0862 -0.3186
  555MOL0     C74849   2.510   9.910   3.720  0.5687 -0.1725  0.0710
  555MOL0     C74850   2.375   9.986   3.706 -1.4608 -0.5026 -0.2112
  555MOL0     C74851   2.258   9.877   3.717 -1.0532  0.4285 -0.7919
  555MOL0     C74852   2.125   9.943   3.734  0.2066 -0.5352 -1.1195
  555MOL0     C74853   2.069   9.999   3.614  0.7246  0.3149  0.5465
  555MOL0     C74854   2.023  10.058   3.520  0.0778 -0.4908  0.1414
  555MOL0     C74855   2.742   9.848   3.565 -0.1271 -0.0823  0.8477
  555MOL0     C74856   2.860   9.825   3.491 -0.7903 -1.1138  1.4511
  555MOL0     C74857   2.871   9.690   3.416  0.3796 -0.5665  0.0639
  555MOL0     H74858   3.220   9.853   3.149 -2.1278 -0.4423  2.4127
  555MOL0     H74859   3.449   9.859   3.065 -0.5176  1.4942  0.1637
  555MOL0     H74860   3.762   9.802   3.373 -1.1959 -1.6109  1.0221
  555MOL0     H74861   3.790   9.655   3.273  1.2030  0.3918 -1.3937
  555MOL0     H74862   3.879   9.944   3.228 -5.1793 -1.1525 -0.0730
  555MOL0     H74863   3.914   9.825   3.102  1.3907  0.3577  0.1468
  555MOL0     H74864   4.038   9.693   3.276 -2.6036 -0.4537  1.0819
  555MOL0     H74865   4.028   9.832   3.380 -2.0434 -0.0611  0.4999
  555MOL0     H74866   4.120   9.894   3.095 -2.5951  3.3198  0.8058
  555MOL0     H74867   4.162   9.977   3.240  2.0414  0.5227 -2.3765
  555MOL0     H74868   4.307   9.803   3.320 -0.9611 -0.7413  0.5533
  555MOL0     H74869   4.250   9.699   3.191  0.2795  0.5129 -0.6331
  555MOL0     H74870   4.358   9.868   3.031 -0.3779  0.1775  0.0864
  555MOL0     H74871   4.426   9.963   3.158 -0.7887 -0.1660  2.0185
  555MOL0     H74872   4.499   9.674   3.104  1.2566  0.3641 -1.8326
  555MOL0     H74873   4.578   9.782   3.226  1.3637  2.6745  0.8429
  555MOL0     H74874   4.552   9.807   2.911  0.6656  0.1606 -0.6730
  555MOL0     H74875   4.632   9.920   3.013  0.5022 -0.6559  2.2021
  555MOL0     H74876   4.667   9.593   2.867 -3.1383  4.3204  0.6565
  555MOL0     H74877   4.879   9.373   3.032  2.1517  1.4252  2.3975
  555MOL0     H74878   4.859   9.396   2.851 -0.3347 -0.9201  0.7834
  555MOL0     H74879   5.080   9.515   2.861  3.3443 -0.2061 -0.7189
  555MOL0     H74880   5.097   9.448   3.025  2.0104 -3.0468 -0.0361
  555MOL0     H74881   5.067   9.294   2.756 -1.9309  0.2950  0.7992
  555MOL0     H74882   5.065   9.216   2.906 -0.3369  0.8203  0.8301
  555MOL0     H74883   5.290   9.402   2.875  0.4747 -0.3642  1.5737
  555MOL0     H74884   5.274   9.234   2.791 -2.9745  0.3240 -0.4546
  555MOL0     H74885   5.486   9.365   2.863 -1.8085  0.5980  2.0174
  555MOL0     H74886   5.723   9.345   2.905  0.4517  0.3221  1.1774
  555MOL0     H74887   6.014   8.850   3.023 -0.9692  0.1906  1.1120
  555MOL0     H74888   6.264   8.801   3.022  2.2043  1.6771 -1.7057
  555MOL0     H74889   6.513   9.136   3.043  1.4579  0.4634  0.3211
  555MOL0     H74890   6.563   9.065   3.204 -1.4155  1.6125  0.5556
  555MOL0     H74891   6.706   8.909   3.095  1.0490  0.9072  0.0429
  555MOL0     H74892   6.639   8.963   2.932 -3.8926  0.0569  0.1604
  555MOL0     H74893   6.751   9.187   2.962 -1.3894 -1.3802 -0.6904
  555MOL0     H74894   6.795   9.141   3.130 -0.7325 -0.6652  0.0371
  555MOL0     H74895   6.899   9.032   2.867 -1.3096 -0.5537 -0.4528
  555MOL0     H74896   6.936   8.951   3.021  0.8040  1.2697  0.7080
  555MOL0     H74897   7.052   9.145   3.106  0.3734 -2.8607  0.2283
  555MOL0     H74898   6.994   9.249   2.978 -0.5039  1.5383  2.4111
  555MOL0     H74899   7.166   9.000   2.927  1.0585  0.2544 -0.0262
  555MOL0     H74900   7.099   9.097   2.803  0.5691 -3.2135 -0.0969
  555MOL0     H74901   7.283   9.227   3.016 -0.6359 -1.9207 -0.1159
  555MOL0     H74902   7.209   9.301   2.874 -1.3841 -0.4757  0.1235
  555MOL0     H74903   7.420   9.085   2.898 -0.1906 -1.5202 -2.2725
  555MOL0     H74904   7.354   9.139   2.734  1.2893  1.4836 -0.9318
  555MOL0     H74905   6.334   9.164   3.235 -1.8581  1.4689  1.3882
  555MOL0     H74906   6.091   9.211   3.241  2.5528  0.5550  0.9264
  555MOL0     H74907   5.648   9.054   3.215  0.7275  0.0940  0.6938
  555MOL0     H74908   5.398   9.104   3.182 -1.6859 -0.9254 -1.8921
  555MOL0     H74909   3.577   9.692   3.456 -1.0581 -1.9178 -0.2943
  555MOL0     H74910   3.362   9.707   3.519 -0.5821  1.7301 -0.1780
  555MOL0     H74911   3.003  10.127   3.549  1.1321  0.2946  0.6929
  555MOL0     H74912   2.847  10.147   3.696  4.3829 -0.8591  0.8024
  555MOL0     H74913   2.511   9.850   3.811 -0.6338  2.1045  1.6952
  555MOL0     H74914   2.499   9.840   3.637 -0.2649 -1.4772  1.2517
  555MOL0     H74915   2.366  10.038   3.610  2.2410 -0.3708 -0.6491
  555MOL0     H74916   2.366  10.062   3.785 -2.2532 -0.7257 -0.0845
  555MOL0     H74917   2.300   9.812   3.794 -1.7483 -0.0636 -0.8150
  555MOL0     H74918   2.257   9.801   3.638 -0.2486 -1.1392  0.6419
  555MOL0     H74919   2.048   9.876   3.774  0.4863 -0.5877 -0.6623
  555MOL0     H74920   2.146  10.026   3.802  0.1093 -1.5700  0.2223
  555MOL0     H74921   1.996  10.112   3.432  0.4517 -1.6997 -0.7419
  555MOL0     H74922   2.670   9.767   3.571 -1.6682  1.2565  1.0663
  555MOL0     H74923   2.893   9.715   3.312  3.0275 -3.4992 -0.2341
  555MOL0     H74924   2.957   9.631   3.449  0.3951 -0.2975  0.5177
  555MOL0     H74925   2.782   9.628   3.427 -1.8524  2.7356  2.4651
  556MOL0     O74926   9.560   0.511   1.027  0.4479 -0.0640  0.0120
  556MOL0     C74927   9.514   0.619   0.997  1.0821 -0.3967  0.7046
  556MOL0     O74928   9.574   0.708   0.911  0.0713  0.4055  0.4083
  556MOL0     C74929   9.670   0.654   0.823 -0.0724  0.4533  0.0035
  556MOL0     C74930   9.791   0.597   0.876 -0.3531  0.2857  0.4422
  556MOL0     C74931   9.874   0.521   0.798 -0.5384  0.0985  0.2884
  556MOL0     C74932   9.839   0.494   0.661  0.0454  0.6902  0.2524
  556MOL0     O74933   9.911   0.407   0.579 -0.1452  0.0242  0.3357
  556MOL0     C74934   9.998   0.320   0.649  0.4098 -0.1599  0.2276
  556MOL0     C74935  10.019   0.211   0.540  0.3833 -0.0165  0.2086
  556MOL0     C74936  10.097   0.086   0.587 -0.2167 -1.4796  0.1900
  556MOL0     C74937  10.254   0.117   0.602 -0.0562 -0.2326 -0.6263
  556MOL0     C74938  10.320  -0.008   0.660  0.4715  0.7174 -0.3179
  556MOL0     C74939  10.470  -0.011   0.678 -0.5193  0.0016  0.1146
  556MOL0     C74940  10.535   0.014   0.539 -0.0022  1.2249  0.0950
  556MOL0     C74941  10.690  -0.015   0.559 -0.2061 -0.2875 -0.7204
  556MOL0     N74942  10.765   0.001   0.436  0.2478 -0.5670 -0.5593
  556MOL0     C74943  10.875  -0.075   0.422  0.8483 -0.0708 -0.1228
  556MOL0     C74944  10.951  -0.012   0.327 -0.8205 -0.6672 -0.3088
  556MOL0     C74945  11.086  -0.041   0.275  0.4337  0.0662  0.1005
  556MOL0     C74946  11.108  -0.178   0.228  0.5062  0.5514 -0.3387
  556MOL0     C74947  11.015  -0.222   0.113 -0.4525 -0.3561  0.2476
  556MOL0     C74948  10.963  -0.367   0.150 -0.4767  0.2983  0.6808
  556MOL0     O74949  10.897  -0.375   0.284 -0.0927 -0.1725 -0.2380
  556MOL0     C74950  10.764  -0.354   0.298 -0.1265 -0.7961  0.5862
  556MOL0     C74951  10.712  -0.364   0.427  0.4135 -0.5589  0.2218
  556MOL0     C74952  10.580  -0.363   0.463 -0.1307 -0.4907 -0.1228
  556MOL0     C74953  10.484  -0.341   0.368  0.1678  0.1686 -0.3115
  556MOL0     C74954  10.341  -0.338   0.402  0.5614 -0.5843 -0.3517
  556MOL0     O74955  10.263  -0.330   0.287  0.0148 -0.0081 -0.1029
  556MOL0     C74956  10.127  -0.323   0.294 -1.0941 -0.8592  0.3335
  556MOL0     C74957  10.056  -0.413   0.373  0.6064 -0.6027  0.5444
  556MOL0     C74958   9.915  -0.412   0.369 -0.7103 -1.1465  0.3415
  556MOL0     C74959   9.834  -0.330   0.299  0.6783 -0.9882  0.4246
  556MOL0     O74960   9.695  -0.343   0.303  0.2100  0.4249  0.8568
  556MOL0     C74961   9.619  -0.233   0.312  0.0522  0.1694 -0.0305
  556MOL0     C74962   9.634  -0.175   0.449 -0.2348  0.1372  0.6693
  556MOL0     C74963   9.585  -0.031   0.453  0.0228  0.5704  0.4402
  556MOL0     C74964   9.600   0.037   0.587  0.7664 -0.9837 -0.2152
  556MOL0     C74965   9.552   0.181   0.589 -0.4351 -0.4046 -0.5692
  556MOL0     C74966   9.400   0.201   0.601 -0.3896 -0.6144 -0.1001
  556MOL0     C74967   9.353   0.312   0.511 -0.4188 -0.5446  0.5361
  556MOL0     C74968   9.406   0.446   0.542  0.7065  0.4095 -0.4683
  556MOL0    Cl74969   9.349   0.502   0.702  0.4608  0.1267  0.1032
  556MOL0     C74970   9.902  -0.235   0.220 -0.0397 -0.5778 -0.2426
  556MOL0     C74971  10.044  -0.230   0.213  0.6506 -0.8918 -0.5561
  556MOL0     O74972  10.300  -0.319   0.522 -0.5579  0.2013 -0.9686
  556MOL0     C74973  10.527  -0.330   0.231  0.2030 -0.2610  0.5198
  556MOL0     C74974  10.671  -0.341   0.197  0.3139  0.1755  0.4542
  556MOL0     N74975  10.876   0.095   0.268  0.1067  0.4779  0.6770
  556MOL0     N74976  10.778   0.106   0.347 -0.3020  0.6521 -0.6765
  556MOL0     C74977   9.725   0.552   0.605 -0.1716 -0.1501  0.1474
  556MOL0     C74978   9.649   0.635   0.682 -0.5208  0.5366 -0.1333
  556MOL0     C74979   9.389   0.660   1.075 -0.3767  0.6345 -0.4135
  556MOL0     C74980   9.343   0.569   1.178  0.4613 -0.6753  0.4356
  556MOL0     C74981   9.235   0.611   1.260  0.9319 -0.5440 -0.3420
  556MOL0     C74982   9.173   0.729   1.245  0.1234 -0.3363  0.1044
  556MOL0     O74983   9.065   0.783   1.304 -0.3315 -0.9222 -0.0600
  556MOL0     C74984   9.015   0.739   1.427 -0.0724 -0.1456  0.4112
  556MOL0     C74985   8.870   0.722   1.422 -0.1211  0.1887  0.0968
  556MOL0     C74986   8.814   0.602   1.333 -1.0967 -0.0727 -0.3839
  556MOL0     C74987   8.675   0.625   1.274  0.0609 -0.2880  0.3077
  556MOL0     C74988   8.583   0.658   1.388 -0.4089 -0.0793  1.2201
  556MOL0     C74989   8.497   0.697   1.455 -0.0775  0.2199 -0.3424
  556MOL0     C74990   9.216   0.815   1.139 -0.0151 -0.5925 -0.5385
  556MOL0     C74991   9.314   0.778   1.049 -0.7157 -0.6372  0.0311
  556MOL0     C74992   9.339   0.875   0.940  0.1212  0.4528 -0.2956
  556MOL0     H74993   9.804   0.617   0.982 -1.0996 -2.9602  1.2490
  556MOL0     H74994   9.965   0.480   0.841 -1.1643 -0.8659  0.7519
  556MOL0     H74995  10.089   0.373   0.676  0.5909 -0.4455  0.1873
  556MOL0     H74996   9.940   0.275   0.730 -0.7475  0.2019 -0.3684
  556MOL0     H74997  10.074   0.252   0.456  0.4179 -1.0794 -0.2985
  556MOL0     H74998   9.920   0.165   0.529  0.8796 -2.0440  3.0647
  556MOL0     H74999  10.092   0.004   0.516 -1.8511 -1.3617  0.1299
  556MOL0     H75000  10.055   0.052   0.683 -0.4553  1.2280  1.1290
  556MOL0     H75001  10.294   0.141   0.503  0.1214 -2.2223 -1.0670
  556MOL0     H75002  10.270   0.196   0.676  1.5580 -1.5981  0.5601
  556MOL0     H75003  10.280  -0.019   0.762  1.6726 -0.9443  0.0136
  556MOL0     H75004  10.293  -0.100   0.607 -0.3599 -0.3722  1.8367
  556MOL0     H75005  10.500   0.066   0.749  0.1757 -0.1731  0.0110
  556MOL0     H75006  10.498  -0.108   0.720 -2.4441  0.6145  3.2047
  556MOL0     H75007  10.520   0.115   0.500  0.9124  2.3145  2.4056
  556MOL0     H75008  10.498  -0.053   0.461 -1.6529 -0.0307  1.8589
  556MOL0     H75009  10.740   0.053   0.629  1.2133 -0.3006 -1.6757
  556MOL0     H75010  10.703  -0.114   0.603  1.0178  0.1111 -0.1267
  556MOL0     H75011  10.911  -0.145   0.496 -0.4119 -0.3810  0.2122
  556MOL0     H75012  11.101   0.032   0.195 -2.2826  4.1919  2.9739
  556MOL0     H75013  11.154  -0.012   0.355  2.5976 -0.6927 -1.3447
  556MOL0     H75014  11.211  -0.184   0.193  0.1025  3.5388 -2.4163
  556MOL0     H75015  11.088  -0.240   0.316  2.9179  1.1264  0.6772
  556MOL0     H75016  11.067  -0.228   0.017 -0.1290  0.6260  0.3562
  556MOL0     H75017  10.928  -0.157   0.098  0.0745 -0.3112 -3.9542
  556MOL0     H75018  11.053  -0.430   0.153 -0.2256  0.5399 -1.0282
  556MOL0     H75019  10.902  -0.407   0.068  2.2413  0.2072 -1.4280
  556MOL0     H75020  10.792  -0.370   0.499 -0.2182  0.7032  1.0479
  556MOL0     H75021  10.552  -0.367   0.568  0.4637 -0.1243  0.0536
  556MOL0     H75022  10.092  -0.488   0.442 -2.5490 -0.4631  2.5516
  556MOL0     H75023   9.857  -0.477   0.435 -1.8044 -0.0150  0.5290
  556MOL0     H75024   9.631  -0.169   0.224  2.7335  2.0539  1.5472
  556MOL0     H75025   9.518  -0.273   0.301  0.1348  0.2018 -1.0523
  556MOL0     H75026   9.579  -0.227   0.528  0.6707  0.4581  1.5398
  556MOL0     H75027   9.742  -0.173   0.469  0.7480 -2.5002 -3.2821
  556MOL0     H75028   9.640   0.040   0.390 -4.1010  2.8194 -1.0390
  556MOL0     H75029   9.480  -0.033   0.424  0.4934  0.5857 -1.3938
  556MOL0     H75030   9.705   0.045   0.617  0.1717  1.0799  1.5931
  556MOL0     H75031   9.541  -0.020   0.660 -1.0116  2.0755  0.9332
  556MOL0     H75032   9.585   0.237   0.501 -0.9290  0.0552 -0.4652
  556MOL0     H75033   9.602   0.222   0.677 -1.4656 -1.7388  0.6704
  556MOL0     H75034   9.351   0.111   0.561  0.1955 -0.2956 -1.5747
  556MOL0     H75035   9.372   0.227   0.704  1.7040  3.5184 -0.4042
  556MOL0     H75036   9.244   0.301   0.515 -0.3103 -2.6429 -0.4832
  556MOL0     H75037   9.372   0.295   0.404 -1.6949  0.2034  0.1742
  556MOL0     H75038   9.515   0.437   0.547  0.6267 -1.6988 -1.4655
  556MOL0     H75039   9.372   0.521   0.469 -1.2600  1.0777  1.0662
  556MOL0     H75040   9.853  -0.153   0.168 -1.2109 -0.4518  0.9998
  556MOL0     H75041  10.098  -0.161   0.148  1.3705  0.4368  1.3646
  556MOL0     H75042  10.456  -0.294   0.157  1.1761 -0.5565 -0.5900
  556MOL0     H75043  10.699  -0.344   0.092  3.8006  2.0668  1.1660
  556MOL0     H75044   9.697   0.535   0.501 -0.6903 -0.4900  0.3362
  556MOL0     H75045   9.569   0.695   0.639 -0.5529  0.0988 -0.6938
  556MOL0     H75046   9.387   0.471   1.196 -0.2253 -0.7924  1.5682
  556MOL0     H75047   9.201   0.540   1.334  1.1181  1.0695  1.3742
  556MOL0     H75048   9.043   0.816   1.498  1.3290  0.6901 -0.9800
  556MOL0     H75049   9.053   0.639   1.453 -1.3020 -0.7440 -0.0296
  556MOL0     H75050   8.828   0.813   1.377  0.8372 -1.1917 -3.9128
  556MOL0     H75051   8.834   0.718   1.526  2.5261  1.4372  1.1572
  556MOL0     H75052   8.811   0.512   1.395  0.2598  0.9677  1.2812
  556MOL0     H75053   8.885   0.586   1.251  1.0823  4.7461  0.2529
  556MOL0     H75054   8.674   0.706   1.200 -5.2514 -1.6875 -1.5440
  556MOL0     H75055   8.655   0.534   1.219  2.6144  1.7115 -4.5447
  556MOL0     H75056   8.413   0.720   1.517  0.5363  0.6364  0.3482
  556MOL0     H75057   9.172   0.914   1.132  2.5199  0.6525 -0.1701
  556MOL0     H75058   9.439   0.914   0.961 -0.1565  0.9738  0.1103
  556MOL0     H75059   9.329   0.826   0.843 -3.3761 -1.2656  0.7666
  556MOL0     H75060   9.282   0.969   0.946 -0.3417  0.0911  2.1410
  557MOL0     O75061   2.648  11.193   1.505  0.5091 -0.6843  0.1778
  557MOL0     C75062   2.629  11.105   1.422 -0.0294 -0.7075  0.5792
  557MOL0     O75063   2.715  11.005   1.395  0.2668 -0.7808  0.2626
  557MOL0     C75064   2.850  10.996   1.447  0.5329 -0.4082  0.0730
  557MOL0     C75065   2.916  10.877   1.417 -0.4493 -0.3720 -0.8985
  557MOL0     C75066   3.040  10.842   1.472  0.4193  0.4261  0.8716
  557MOL0     C75067   3.116  10.939   1.526  0.8996 -0.7881  0.2858
  557MOL0     O75068   3.236  10.912   1.578 -0.0835 -0.0063  0.1407
  557MOL0     C75069   3.335  10.857   1.488 -0.3018 -0.0026  0.4960
  557MOL0     C75070   3.468  10.808   1.546  0.2852 -0.0864 -0.3859
  557MOL0     C75071   3.583  10.787   1.443 -0.3760 -0.3581  0.2840
  557MOL0     C75072   3.578  10.639   1.396 -0.0375 -0.6157 -0.2350
  557MOL0     C75073   3.691  10.612   1.304 -0.3880 -0.7464 -0.0408
  557MOL0     C75074   3.721  10.462   1.285 -0.5354 -0.3681 -0.8685
  557MOL0     C75075   3.817  10.442   1.178  1.0384  0.2902 -0.4125
  557MOL0     C75076   3.851  10.298   1.146 -0.1654  0.0226  0.3254
  557MOL0     N75077   3.951  10.248   1.243 -0.4929 -0.1523 -0.0277
  557MOL0     C75078   3.930  10.206   1.374 -0.0042 -0.1300 -0.0382
  557MOL0     C75079   4.041  10.142   1.403 -0.0135  0.1688  0.2031
  557MOL0     C75080   4.066  10.080   1.544 -0.5679 -0.1656 -0.3709
  557MOL0     C75081   4.215  10.088   1.588 -0.2028 -0.1426  0.2023
  557MOL0     C75082   4.240  10.179   1.711 -0.0165 -0.5296  0.4115
  557MOL0     C75083   4.203  10.103   1.840 -0.2350 -0.6778 -0.2996
  557MOL0     O75084   4.293  10.000   1.883  0.1797  0.3234 -0.2863
  557MOL0     C75085   4.404  10.033   1.948  0.4577  0.2459  0.1529
  557MOL0     C75086   4.476   9.919   1.973  0.1530 -0.3597 -0.1370
  557MOL0     C75087   4.592   9.917   2.042 -0.1086  0.7398 -0.4404
  557MOL0     C75088   4.650  10.037   2.080  0.1679 -0.4989  0.2685
  557MOL0     C75089   4.762  10.036   2.173  0.4557  0.2967 -0.6298
  557MOL0     O75090   4.831   9.926   2.180  0.0402 -0.5507  0.1752
  557MOL0     C75091   4.957   9.920   2.236 -0.0051  0.7693 -0.8130
  557MOL0     C75092   5.031  10.016   2.317  0.8717  0.1669 -0.1435
  557MOL0     C75093   5.164   9.982   2.359  0.2192  0.3673 -0.1034
  557MOL0     C75094   5.229   9.861   2.335  1.2687  0.5724 -1.3886
  557MOL0     O75095   5.356   9.822   2.380  0.3314  0.3839 -0.3066
  557MOL0     C75096   5.408   9.895   2.491  0.7687  1.2242  1.0347
  557MOL0     C75097   5.525   9.807   2.541  0.5839 -0.6685 -0.2405
  557MOL0     C75098   5.631   9.777   2.430 -0.6441  0.5653 -0.1092
  557MOL0     C75099   5.762   9.735   2.494 -0.0362  0.1309  0.0794
  557MOL0     C75100   5.875   9.711   2.397 -0.0561  0.0275  0.2634
  557MOL0     C75101   5.910   9.838   2.318  0.3988  0.3727 -0.3238
  557MOL0     C75102   6.053   9.812   2.257 -0.1487  0.5520  0.1672
  557MOL0     C75103   6.103   9.924   2.172  0.9151  0.7814 -0.1178
  557MOL0    Cl75104   6.261   9.889   2.094 -0.1396 -0.2318 -0.5186
  557MOL0     C75105   5.151   9.768   2.271  0.8259 -1.3183 -0.8406
  557MOL0     C75106   5.023   9.792   2.218  0.1146 -0.1659  0.4921
  557MOL0     O75107   4.780  10.138   2.245 -0.3825  0.6273  1.4790
  557MOL0     C75108   4.586  10.158   2.051 -0.1120  0.2644 -0.4938
  557MOL0     C75109   4.455  10.156   1.987 -0.4255 -0.3897 -1.1721
  557MOL0     N75110   4.126  10.147   1.295 -0.5351 -0.5360 -0.6409
  557MOL0     N75111   4.077  10.218   1.203 -0.4067  0.3196 -0.4131
  557MOL0     C75112   3.055  11.061   1.563 -0.2668 -0.6128 -0.2835
  557MOL0     C75113   2.923  11.089   1.520  0.2973  0.1902  0.1600
  557MOL0     C75114   2.510  11.118   1.326  0.5117 -0.6173 -0.3335
  557MOL0     C75115   2.454  11.001   1.264 -0.1318  1.0688 -0.8127
  557MOL0     C75116   2.336  11.008   1.188  0.0873  0.2344 -0.2146
  557MOL0     C75117   2.267  11.129   1.178  0.6085  0.3619  0.1435
  557MOL0     O75118   2.155  11.153   1.107  0.3799  0.1150 -0.0867
  557MOL0     C75119   2.090  11.045   1.036  0.4217  0.1940  0.4492
  557MOL0     C75120   1.948  11.073   1.019 -0.1854  0.2120  0.8267
  557MOL0     C75121   1.925  11.208   0.949 -0.0953 -0.4151  0.0238
  557MOL0     C75122   1.782  11.242   0.927  1.0829 -0.5154 -1.1094
  557MOL0     C75123   1.757  11.384   0.886 -0.1537  0.2860  0.5274
  557MOL0     C75124   1.747  11.498   0.852  0.2695  0.0516 -0.6961
  557MOL0     C75125   2.316  11.245   1.237 -0.6141 -0.2341 -0.1997
  557MOL0     C75126   2.438  11.239   1.295  0.2075 -0.2601  0.1810
  557MOL0     C75127   2.507  11.373   1.334  0.9294 -0.2565 -0.3255
  557MOL0     H75128   2.872  10.794   1.361 -3.5317  0.7018 -0.2877
  557MOL0     H75129   3.088  10.746   1.455  1.4086  0.9616  0.5643
  557MOL0     H75130   3.291  10.769   1.440 -1.8131  0.7201  0.4997
  557MOL0     H75131   3.375  10.921   1.409  0.6239 -0.9403  0.1678
  557MOL0     H75132   3.459  10.719   1.609 -0.5475  1.1860  1.4000
  557MOL0     H75133   3.502  10.883   1.618 -1.3054 -2.2135  2.8168
  557MOL0     H75134   3.676  10.802   1.498 -0.0468  3.0810 -0.9329
  557MOL0     H75135   3.573  10.858   1.360  1.1286 -1.4380 -0.8803
  557MOL0     H75136   3.594  10.587   1.491  0.9560 -0.2213 -0.1723
  557MOL0     H75137   3.486  10.601   1.351 -0.2379 -1.6126  0.9525
  557MOL0     H75138   3.673  10.655   1.205  4.4178  1.5274 -0.2213
  557MOL0     H75139   3.784  10.657   1.340 -0.8854  0.6183 -0.4115
  557MOL0     H75140   3.772  10.441   1.380  1.7327 -0.5311 -2.0702
  557MOL0     H75141   3.633  10.401   1.264 -0.9614  0.3170 -1.0803
  557MOL0     H75142   3.908  10.490   1.216 -0.6708 -0.0893  4.8731
  557MOL0     H75143   3.777  10.487   1.086 -1.9747 -0.6184  0.3445
  557MOL0     H75144   3.762  10.235   1.140 -1.8893  2.0512  2.6298
  557MOL0     H75145   3.890  10.298   1.044 -2.7333 -0.2518 -0.7438
  557MOL0     H75146   3.840  10.210   1.435  1.3539  0.2647  2.0220
  557MOL0     H75147   4.001  10.119   1.623  2.6158  1.7306  1.5114
  557MOL0     H75148   4.046   9.973   1.532 -1.9742  0.3024 -3.1617
  557MOL0     H75149   4.253   9.991   1.622 -2.5642 -0.5170  2.0545
  557MOL0     H75150   4.281  10.120   1.507 -1.7063 -3.1934 -2.4240
  557MOL0     H75151   4.195  10.278   1.704  1.5814  0.3371  1.7820
  557MOL0     H75152   4.348  10.189   1.725 -0.0363  0.0150  0.2077
  557MOL0     H75153   4.100  10.069   1.836  0.0374 -1.3808 -2.5687
  557MOL0     H75154   4.197  10.176   1.921  1.3636 -0.9246  0.0877
  557MOL0     H75155   4.437   9.822   1.945  1.9077 -0.9299 -0.8097
  557MOL0     H75156   4.643   9.823   2.060  1.6270  1.6968 -0.0502
  557MOL0     H75157   4.996  10.118   2.332 -0.8736 -0.3534 -0.4332
  557MOL0     H75158   5.221  10.066   2.397  0.5666  0.2585 -0.3762
  557MOL0     H75159   5.446   9.990   2.453  0.2293  1.2863  0.6282
  557MOL0     H75160   5.329   9.920   2.563 -3.2744 -2.0248 -1.8139
  557MOL0     H75161   5.567   9.870   2.620 -3.0327  1.0504  0.5135
  557MOL0     H75162   5.491   9.714   2.587  1.7417 -0.6656  0.6682
  557MOL0     H75163   5.592   9.708   2.355 -1.2795  2.5646 -1.6954
  557MOL0     H75164   5.639   9.864   2.365  0.8946 -0.8106 -1.8880
  557MOL0     H75165   5.748   9.647   2.559  0.3370 -0.2653 -0.3686
  557MOL0     H75166   5.789   9.824   2.552 -0.9516  1.2358 -1.1451
  557MOL0     H75167   5.833   9.635   2.330 -2.6417  1.0982  0.5722
  557MOL0     H75168   5.958   9.666   2.453 -2.0374 -1.8840  1.8507
  557MOL0     H75169   5.832   9.865   2.247 -0.1437 -0.2762  0.0158
  557MOL0     H75170   5.915   9.924   2.386  2.5145 -0.5974  0.8644
  557MOL0     H75171   6.046   9.725   2.192  3.1831  2.4381 -3.1080
  557MOL0     H75172   6.133   9.792   2.329  0.6180 -0.6692 -0.9718
  557MOL0     H75173   6.029   9.939   2.093 -2.0997  0.1766  2.3882
  557MOL0     H75174   6.131  10.016   2.225  0.7661  1.1478 -0.6710
  557MOL0     H75175   5.193   9.669   2.251 -0.0937 -1.7570 -0.6474
  557MOL0     H75176   4.966   9.716   2.166  0.0514  0.6435 -0.6538
  557MOL0     H75177   4.633  10.250   2.084  0.7122 -1.2663  3.0420
  557MOL0     H75178   4.408  10.254   1.986  1.3697  0.6948  2.3971
  557MOL0     H75179   3.100  11.137   1.627 -0.6092  0.5281 -1.3515
  557MOL0     H75180   2.875  11.178   1.560  2.7511  0.4928  2.7325
  557MOL0     H75181   2.509  10.910   1.285  1.3692  1.2852 -3.3180
  557MOL0     H75182   2.291  10.917   1.149 -1.2327  1.7819 -2.5555
  557MOL0     H75183   2.096  10.947   1.085  1.9784  0.1683  0.2670
  557MOL0     H75184   2.136  11.030   0.937 -1.1614  1.6461 -0.5665
  557MOL0     H75185   1.881  11.065   1.106  0.5505 -1.4512  1.2825
  557MOL0     H75186   1.910  10.996   0.951 -2.4501 -0.0801  2.3013
  557MOL0     H75187   1.976  11.203   0.853 -2.8040 -1.0094 -1.4829
  557MOL0     H75188   1.963  11.285   1.017 -2.6308  1.0511 -0.0962
  557MOL0     H75189   1.737  11.180   0.849  1.1693 -0.3109 -1.3242
  557MOL0     H75190   1.723  11.228   1.018  2.5867 -0.2596 -0.0324
  557MOL0     H75191   1.743  11.603   0.829 -1.5097  0.3109  0.6062
  557MOL0     H75192   2.265  11.339   1.219  2.0611  1.2579 -0.5064
  557MOL0     H75193   2.475  11.451   1.264 -2.8928 -0.1563  1.2906
  557MOL0     H75194   2.482  11.399   1.438  0.6160 -1.2889 -0.1302
  557MOL0     H75195   2.615  11.357   1.333  0.7182 -1.9869  0.3440
  558MOL0     O75196   7.935   6.395   7.433  0.4293 -0.0343  0.2962
  558MOL0     C75197   7.924   6.335   7.537 -0.6992  0.7583 -0.0519
  558MOL0     O75198   8.029   6.275   7.602 -0.1681  0.0152  0.3286
  558MOL0     C75199   8.160   6.280   7.556 -0.4472  1.1792  0.1483
  558MOL0     C75200   8.244   6.294   7.660  0.1473  0.2901 -0.2749
  558MOL0     C75201   8.379   6.269   7.644  0.4438 -0.8622 -0.3430
  558MOL0     C75202   8.431   6.244   7.522  0.3686 -0.1705  0.0153
  558MOL0     O75203   8.564   6.203   7.511  0.1446 -1.0185 -0.1478
  558MOL0     C75204   8.628   6.179   7.387 -0.1075 -0.6194 -0.6672
  558MOL0     C75205   8.770   6.127   7.409 -0.1031  1.4606 -0.3166
  558MOL0     C75206   8.857   6.224   7.487 -0.6699 -0.1312  0.2410
  558MOL0     C75207   9.006   6.198   7.482  0.3753 -0.3038 -0.2485
  558MOL0     C75208   9.047   6.078   7.563  0.1929  0.8359 -0.2484
  558MOL0     C75209   9.196   6.066   7.575 -0.7760  0.7822 -0.8099
  558MOL0     C75210   9.238   5.982   7.695  0.5661  0.5727  0.4199
  558MOL0     C75211   9.352   6.033   7.772 -0.0567  0.0923 -0.4848
  558MOL0     N75212   9.480   6.015   7.706 -0.4525  0.1380  1.3323
  558MOL0     C75213   9.526   6.090   7.609  0.5609 -0.2057 -0.5743
  558MOL0     C75214   9.624   6.022   7.556  0.9150 -0.2844  0.4388
  558MOL0     C75215   9.709   6.060   7.438 -0.5791 -0.3034  0.0137
  558MOL0     C75216   9.846   6.080   7.496 -0.5141 -0.3414 -0.5607
  558MOL0     C75217   9.849   6.178   7.617  0.0193  0.8551 -0.9226
  558MOL0     C75218   9.985   6.246   7.647 -0.3722 -0.6683  0.2037
  558MOL0     O75219  10.052   6.296   7.530 -0.4051 -0.3434 -0.2074
  558MOL0     C75220  10.188   6.322   7.529  0.2760  0.1867  0.1945
  558MOL0     C75221  10.251   6.366   7.420  0.3799  0.5194 -0.9713
  558MOL0     C75222  10.388   6.384   7.420 -0.8177 -0.0329 -0.8735
  558MOL0     C75223  10.470   6.357   7.535  0.4014  0.0510  0.1008
  558MOL0     C75224  10.611   6.370   7.539 -0.7057 -0.6785  0.2542
  558MOL0     O75225  10.683   6.384   7.418  0.5294 -0.4884 -0.3101
  558MOL0     C75226  10.819   6.370   7.401 -0.3896 -0.9164  0.6085
  558MOL0     C75227  10.885   6.428   7.286 -0.2998  0.5587 -0.0204
  558MOL0     C75228  11.027   6.411   7.271  0.1230  0.1597  0.2706
  558MOL0     C75229  11.104   6.355   7.371  0.1714 -0.2958 -0.0230
  558MOL0     O75230  11.242   6.347   7.346 -0.4319 -0.1825  0.1404
  558MOL0     C75231  11.297   6.223   7.395 -1.0235 -0.4064 -0.8428
  558MOL0     C75232  11.435   6.215   7.343  1.2065 -0.2867  0.2602
  558MOL0     C75233  11.509   6.096   7.408 -0.8156  0.6180  0.5708
  558MOL0     C75234  11.637   6.049   7.328  0.5622 -0.7897  0.2028
  558MOL0     C75235  11.670   5.907   7.368 -0.3644 -0.1842 -0.3625
  558MOL0     C75236  11.756   5.832   7.267  0.4758 -0.4371  0.0219
  558MOL0     C75237  11.820   5.711   7.326  0.2171 -0.1151 -0.2668
  558MOL0     C75238  11.893   5.627   7.219  0.3407 -0.0259 -0.7950
  558MOL0    Cl75239  12.028   5.704   7.151  0.5955  0.2486  0.3891
  558MOL0     C75240  11.041   6.315   7.491  0.3313  0.8616  0.8189
  558MOL0     C75241  10.905   6.322   7.499 -0.2593  0.4599 -0.1575
  558MOL0     O75242  10.664   6.361   7.647  0.1682 -0.3370 -0.9197
  558MOL0     C75243  10.394   6.319   7.653 -0.8073  0.4140  0.3752
  558MOL0     C75244  10.257   6.309   7.652 -1.1779  0.4119  0.2869
  558MOL0     N75245   9.646   5.908   7.633 -0.0051  0.3317 -0.4483
  558MOL0     N75246   9.561   5.908   7.730  0.0635 -0.0695  0.2780
  558MOL0     C75247   8.346   6.248   7.412 -0.1705 -0.3016 -0.2733
  558MOL0     C75248   8.215   6.265   7.431 -0.0676 -0.3282  0.1517
  558MOL0     C75249   7.794   6.312   7.602  0.2496 -0.7373 -0.3296
  558MOL0     C75250   7.795   6.282   7.747 -0.2772 -0.6051 -0.6156
  558MOL0     C75251   7.675   6.261   7.814 -0.3577 -0.0110 -0.1011
  558MOL0     C75252   7.549   6.256   7.746 -0.2809 -0.4993 -0.3499
  558MOL0     O75253   7.437   6.214   7.809 -0.0772 -1.0098 -0.3418
  558MOL0     C75254   7.366   6.301   7.887  0.4175 -0.2406 -1.0435
  558MOL0     C75255   7.261   6.372   7.804  0.0718  0.7705  0.4213
  558MOL0     C75256   7.179   6.483   7.877 -0.4800 -0.6743 -0.4723
  558MOL0     C75257   7.102   6.559   7.773 -0.7339  0.3537  0.2961
  558MOL0     C75258   7.019   6.656   7.840 -0.4067 -0.1708  0.1917
  558MOL0     C75259   6.951   6.735   7.900  0.5872  0.3241  0.1881
  558MOL0     C75260   7.554   6.288   7.615 -0.3151 -0.0791  0.3471
  558MOL0     C75261   7.668   6.318   7.533 -0.1318  1.2156 -0.7363
  558MOL0     C75262   7.659   6.352   7.381 -0.9386 -0.1789 -0.2453
  558MOL0     H75263   8.220   6.322   7.762  1.4681  1.1079 -0.1749
  558MOL0     H75264   8.455   6.263   7.722  0.9765  2.7102 -0.4204
  558MOL0     H75265   8.575   6.102   7.329  1.8765 -0.3506 -3.0252
  558MOL0     H75266   8.637   6.276   7.338 -1.1436 -0.1391  0.0735
  558MOL0     H75267   8.804   6.094   7.311 -0.9151 -2.0831  0.4554
  558MOL0     H75268   8.761   6.038   7.472  2.7268  1.7731  0.6404
  558MOL0     H75269   8.825   6.223   7.592  0.2073  0.8250  0.5373
  558MOL0     H75270   8.838   6.323   7.444 -0.9822 -0.0637  0.5208
  558MOL0     H75271   9.034   6.205   7.376  0.7942  0.3535 -0.1019
  558MOL0     H75272   9.054   6.282   7.533 -0.2189  0.2614 -0.5969
  558MOL0     H75273   8.998   6.074   7.660  1.1968 -4.6550  0.3439
  558MOL0     H75274   9.003   5.997   7.504 -2.3968  2.2991 -0.4485
  558MOL0     H75275   9.229   6.011   7.487 -1.3383  0.4007 -0.7835
  558MOL0     H75276   9.244   6.164   7.580 -1.2377  1.1296 -2.6415
  558MOL0     H75277   9.260   5.878   7.670  0.2452  0.1354  1.8298
  558MOL0     H75278   9.151   5.982   7.763  0.7987 -0.5761  0.7536
  558MOL0     H75279   9.342   6.139   7.797  4.0794  0.4291  0.4846
  558MOL0     H75280   9.360   5.964   7.857 -1.0276 -3.0649 -2.7838
  558MOL0     H75281   9.494   6.187   7.574  0.2630 -0.2174 -0.3378
  558MOL0     H75282   9.707   5.988   7.355 -1.7145  0.7779 -0.9271
  558MOL0     H75283   9.665   6.152   7.398 -2.2240 -1.2394 -0.4510
  558MOL0     H75284   9.889   5.983   7.523  1.5574 -0.3769 -3.5399
  558MOL0     H75285   9.909   6.132   7.424 -0.7921 -1.5589 -1.7107
  558MOL0     H75286   9.824   6.121   7.707  1.0344 -1.0816 -1.8162
  558MOL0     H75287   9.778   6.260   7.602  1.7252  2.6459  0.1800
  558MOL0     H75288  10.037   6.183   7.721  0.4438  1.2845  1.3630
  558MOL0     H75289   9.967   6.338   7.704 -1.5943 -0.9880  0.3726
  558MOL0     H75290  10.191   6.396   7.335  1.7364 -1.6369 -2.7881
  558MOL0     H75291  10.432   6.433   7.334 -2.1457  4.4205  0.6796
  558MOL0     H75292  10.830   6.479   7.208  0.5504 -2.0148 -2.4554
  558MOL0     H75293  11.073   6.452   7.181  2.1138  0.2248  1.2777
  558MOL0     H75294  11.301   6.230   7.505 -2.6095  2.7416 -0.8755
  558MOL0     H75295  11.242   6.135   7.362 -2.1862 -0.2772  0.6177
  558MOL0     H75296  11.428   6.209   7.234  0.3830  0.7044  0.2487
  558MOL0     H75297  11.494   6.300   7.378  0.5765 -0.3932  1.6409
  558MOL0     H75298  11.536   6.112   7.513  1.6316  2.8213 -0.2722
  558MOL0     H75299  11.442   6.010   7.412 -0.5922  0.4741  1.9833
  558MOL0     H75300  11.718   6.119   7.347  0.4353 -0.7624  0.6540
  558MOL0     H75301  11.626   6.048   7.219 -1.1452 -1.0299  0.3515
  558MOL0     H75302  11.584   5.844   7.395 -1.4214  1.1820 -0.4256
  558MOL0     H75303  11.725   5.916   7.461  0.7383  2.0689 -1.1758
  558MOL0     H75304  11.699   5.810   7.177 -0.1567  2.4859 -0.4120
  558MOL0     H75305  11.837   5.900   7.237 -0.1131  0.6628  0.8562
  558MOL0     H75306  11.737   5.646   7.355  0.0572 -0.2219 -0.9493
  558MOL0     H75307  11.887   5.734   7.409  2.6207  0.1698 -2.1621
  558MOL0     H75308  11.916   5.534   7.273 -2.2458 -0.8451 -0.9988
  558MOL0     H75309  11.833   5.596   7.133  1.3040 -2.7860 -0.5796
  558MOL0     H75310  11.103   6.276   7.571 -0.8196 -0.7073  0.9876
  558MOL0     H75311  10.877   6.264   7.586  1.8855 -1.3621 -0.5878
  558MOL0     H75312  10.442   6.285   7.744 -1.6889 -0.0616  0.6725
  558MOL0     H75313  10.216   6.289   7.751  0.0014 -1.5875  0.4282
  558MOL0     H75314   8.381   6.244   7.309  0.1761 -0.0171 -0.1693
  558MOL0     H75315   8.160   6.258   7.337  0.6037 -0.8583 -0.2055
  558MOL0     H75316   7.890   6.286   7.800  0.2949 -0.0509 -1.6456
  558MOL0     H75317   7.687   6.242   7.920 -2.4305  1.1720  0.4118
  558MOL0     H75318   7.425   6.373   7.944 -1.1982 -1.6474  2.8271
  558MOL0     H75319   7.312   6.243   7.963 -0.9633 -0.1739 -1.9451
  558MOL0     H75320   7.185   6.297   7.781 -0.1907  1.0129  0.4935
  558MOL0     H75321   7.305   6.421   7.717 -1.2836  1.4278  0.0808
  558MOL0     H75322   7.253   6.551   7.920 -0.9548 -0.5980  0.2261
  558MOL0     H75323   7.119   6.429   7.951  2.6004 -3.1874  0.4313
  558MOL0     H75324   7.172   6.617   7.713 -0.8188 -0.0904 -0.2376
  558MOL0     H75325   7.039   6.499   7.707  0.3387  0.1924 -0.5969
  558MOL0     H75326   6.888   6.805   7.953 -0.1987 -1.2227  1.4036
  558MOL0     H75327   7.455   6.285   7.573 -0.9026  2.5166  1.3685
  558MOL0     H75328   7.559   6.335   7.341 -1.6553  0.2870  1.3065
  558MOL0     H75329   7.687   6.457   7.369  1.3291 -0.8747 -1.6469
  558MOL0     H75330   7.726   6.288   7.321 -0.5399  0.8056 -0.8821
  559MOL0     O75331   5.247  11.192   3.192  0.4064  0.5239  0.1555
  559MOL0     C75332   5.236  11.075   3.137 -0.6886 -0.7742 -0.8947
  559MOL0     O75333   5.344  11.009   3.077 -0.1227 -0.2130  0.2219
  559MOL0     C75334   5.464  11.082   3.059 -1.3094 -0.1339  0.4133
  559MOL0     C75335   5.583  11.027   3.115 -1.2098  0.4105  0.2770
  559MOL0     C75336   5.702  11.090   3.094 -0.2867 -0.1005  0.6499
  559MOL0     C75337   5.713  11.220   3.036  0.6641  0.5910 -0.3804
  559MOL0     O75338   5.825  11.293   3.033  0.1811 -0.3652 -0.1035
  559MOL0     C75339   5.948  11.237   3.085 -0.1733  0.1757  1.1511
  559MOL0     C75340   6.072  11.332   3.072 -0.4912  0.2877 -0.4803
  559MOL0     C75341   6.196  11.282   3.144  0.4179  0.0209  0.0258
  559MOL0     C75342   6.320  11.376   3.122  0.1099  0.5178  0.2491
  559MOL0     C75343   6.435  11.314   3.212 -0.1360  0.0150  0.0761
  559MOL0     C75344   6.556  11.407   3.182 -0.6918 -0.4538  0.4648
  559MOL0     C75345   6.691  11.345   3.230  0.1641 -0.9114  0.1118
  559MOL0     C75346   6.698  11.354   3.383 -1.3686  0.3575 -0.2429
  559MOL0     N75347   6.829  11.300   3.414 -0.2291 -0.3764 -0.5097
  559MOL0     C75348   6.952  11.374   3.412  0.2782 -0.1133  0.5980
  559MOL0     C75349   7.051  11.292   3.458 -0.0344  0.1766 -0.0799
  559MOL0     C75350   7.197  11.323   3.490 -0.3960 -0.2106  0.1999
  559MOL0     C75351   7.223  11.470   3.457 -0.4570 -0.0629  0.4613
  559MOL0     C75352   7.375  11.496   3.433  0.3973 -0.4758 -1.1398
  559MOL0     C75353   7.452  11.520   3.561  1.0512  0.3443  0.2387
  559MOL0     O75354   7.590  11.539   3.539  0.1945  0.6684  0.0156
  559MOL0     C75355   7.675  11.436   3.526  0.5655  0.2707  0.3435
  559MOL0     C75356   7.641  11.298   3.505  0.9882  1.0116  0.3847
  559MOL0     C75357   7.740  11.195   3.512  0.2572  0.2914 -0.7712
  559MOL0     C75358   7.875  11.247   3.530  0.0061 -0.2603 -0.2479
  559MOL0     C75359   7.986  11.152   3.546  1.0471 -0.3736 -0.3011
  559MOL0     O75360   8.089  11.183   3.627  0.4553  0.1600 -0.2738
  559MOL0     C75361   8.206  11.124   3.603 -0.1815  0.2513  0.1310
  559MOL0     C75362   8.285  11.182   3.500  0.5319 -1.4134  0.0184
  559MOL0     C75363   8.417  11.133   3.472  0.0937 -0.1231 -0.5658
  559MOL0     C75364   8.466  11.020   3.544  0.3028  0.2955 -0.5561
  559MOL0     O75365   8.598  10.994   3.530 -0.1479  0.4761  0.0610
  559MOL0     C75366   8.630  10.898   3.424  0.4375 -0.0520  0.6194
  559MOL0     C75367   8.774  10.922   3.389 -0.1593 -0.2579  0.5959
  559MOL0     C75368   8.838  10.813   3.293  0.1629 -1.3490  0.1369
  559MOL0     C75369   8.853  10.674   3.354  0.0109  0.3913  0.8842
  559MOL0     C75370   8.882  10.558   3.251 -0.5033 -0.6805  0.8601
  559MOL0     C75371   9.009  10.583   3.158  0.0454 -0.3668  0.0657
  559MOL0     C75372   9.017  10.466   3.062  0.1293 -0.0551  0.3146
  559MOL0     C75373   9.124  10.474   2.950 -0.3868 -0.0619 -0.1362
  559MOL0    Cl75374   9.277  10.456   3.031 -0.7293  0.2177 -0.3746
  559MOL0     C75375   8.384  10.965   3.645  0.0807 -0.5294 -1.3087
  559MOL0     C75376   8.253  11.019   3.672  0.3946  0.8744 -0.3417
  559MOL0     O75377   7.976  11.055   3.473 -0.2727  0.3630  0.3159
  559MOL0     C75378   7.909  11.385   3.542  0.1069 -0.7124  0.0981
  559MOL0     C75379   7.809  11.474   3.534  0.2626 -0.5565 -0.2411
  559MOL0     N75380   6.993  11.167   3.469 -0.3293  0.0899  0.8542
  559MOL0     N75381   6.862  11.168   3.446  0.1843  0.4721 -0.1789
  559MOL0     C75382   5.599  11.271   2.980  0.1016 -0.1099  0.5177
  559MOL0     C75383   5.476  11.205   2.982 -0.1508  0.3425 -0.5073
  559MOL0     C75384   5.109  11.002   3.154 -0.5284  0.1344  0.2716
  559MOL0     C75385   5.114  10.858   3.143  0.0440  0.2133  1.1576
  559MOL0     C75386   4.999  10.781   3.140  0.6583 -0.0428 -0.1133
  559MOL0     C75387   4.874  10.849   3.166 -0.1706 -0.9424 -0.1402
  559MOL0     O75388   4.768  10.765   3.159  0.3569 -0.1553 -0.9051
  559MOL0     C75389   4.648  10.789   3.225  0.4680 -0.4741 -0.3521
  559MOL0     C75390   4.543  10.867   3.134 -0.5392  0.0658 -0.0594
  559MOL0     C75391   4.417  10.902   3.204 -0.4226  0.4576 -0.8025
  559MOL0     C75392   4.320  10.964   3.102  0.2139 -0.4599 -0.1730
  559MOL0     C75393   4.182  10.917   3.142 -0.2567 -1.0158  0.3893
  559MOL0     C75394   4.074  10.888   3.191  0.1124  0.6701  0.7602
  559MOL0     C75395   4.868  10.992   3.193  0.1730 -0.3002  0.0453
  559MOL0     C75396   4.987  11.068   3.179  0.6858  0.4628 -0.5868
  559MOL0     C75397   4.969  11.217   3.197  0.1404 -0.0688  0.1273
  559MOL0     H75398   5.591  10.933   3.168 -0.0467 -0.2151 -0.9600
  559MOL0     H75399   5.790  11.033   3.123 -1.3998 -2.0117  0.4483
  559MOL0     H75400   5.943  11.201   3.188  1.0847 -1.6177  0.6325
  559MOL0     H75401   5.966  11.145   3.028 -0.1029  0.5397  0.5792
  559MOL0     H75402   6.052  11.432   3.112 -0.6769  0.8896 -2.0286
  559MOL0     H75403   6.105  11.356   2.970 -1.6297  1.3955 -0.6091
  559MOL0     H75404   6.225  11.180   3.116 -0.7915 -0.0107 -1.2555
  559MOL0     H75405   6.175  11.272   3.250  1.3396 -1.0973  0.1192
  559MOL0     H75406   6.356  11.364   3.019  3.2720 -2.4524  1.5129
  559MOL0     H75407   6.305  11.484   3.135  2.6033  0.8704  0.6697
  559MOL0     H75408   6.397  11.336   3.313 -0.3141  0.7495 -0.1473
  559MOL0     H75409   6.449  11.205   3.212 -1.4928 -0.1804 -0.6713
  559MOL0     H75410   6.558  11.416   3.073  0.4626 -2.4911  0.2554
  559MOL0     H75411   6.542  11.505   3.230 -0.6363 -1.2215  2.1483
  559MOL0     H75412   6.769  11.409   3.188 -1.4459 -0.0162 -1.6617
  559MOL0     H75413   6.713  11.247   3.187  1.0504  0.8487 -3.9535
  559MOL0     H75414   6.700  11.458   3.418 -1.8972 -0.0219  0.9635
  559MOL0     H75415   6.617  11.295   3.427 -0.6788 -0.1656  0.3531
  559MOL0     H75416   6.956  11.481   3.395 -0.2849 -0.1977 -0.0958
  559MOL0     H75417   7.220  11.295   3.593 -0.3538 -0.1940  0.1953
  559MOL0     H75418   7.268  11.253   3.444  0.7377 -1.0033  2.9813
  559MOL0     H75419   7.171  11.501   3.366 -0.1287 -1.3096 -0.1743
  559MOL0     H75420   7.189  11.539   3.535  0.2297  1.9329 -0.9085
  559MOL0     H75421   7.392  11.580   3.365 -0.3913 -0.2583 -1.0816
  559MOL0     H75422   7.405  11.405   3.380 -1.6210 -2.3491  0.6878
  559MOL0     H75423   7.433  11.441   3.635  0.6076  0.6684  0.4758
  559MOL0     H75424   7.410  11.608   3.611  0.2883  1.5727 -2.3964
  559MOL0     H75425   7.542  11.261   3.485 -0.2732  3.3510  1.8589
  559MOL0     H75426   7.716  11.091   3.494  0.1067  0.2508 -0.3424
  559MOL0     H75427   8.242  11.270   3.453  1.0081  0.5356  2.9466
  559MOL0     H75428   8.479  11.179   3.396  1.1559 -0.1880  0.2373
  559MOL0     H75429   8.623  10.795   3.461  0.9830 -0.4780 -0.4228
  559MOL0     H75430   8.558  10.909   3.342 -0.8845 -1.1853  1.5688
  559MOL0     H75431   8.777  11.020   3.340 -2.6052 -1.0320 -1.3262
  559MOL0     H75432   8.849  10.925   3.469  0.0559 -1.3202  0.4429
  559MOL0     H75433   8.773  10.805   3.206  1.7194 -0.4193 -1.1553
  559MOL0     H75434   8.940  10.847   3.274 -0.2740  0.0826  0.2475
  559MOL0     H75435   8.759  10.651   3.405 -1.5609  3.0485 -0.6025
  559MOL0     H75436   8.934  10.674   3.428 -1.5479 -2.2860  2.7572
  559MOL0     H75437   8.798  10.548   3.182  1.6561  0.9117 -2.2115
  559MOL0     H75438   8.898  10.458   3.294  0.2452 -1.8116 -1.8801
  559MOL0     H75439   9.011  10.673   3.097  1.1580 -1.5761 -1.7800
  559MOL0     H75440   9.104  10.582   3.211 -0.1615  2.1747  0.6048
  559MOL0     H75441   8.923  10.471   3.006  0.3879  2.4846 -0.0359
  559MOL0     H75442   9.026  10.370   3.113 -4.1572  0.3359  2.2904
  559MOL0     H75443   9.110  10.397   2.874  1.0873 -0.3981 -0.0880
  559MOL0     H75444   9.122  10.575   2.908  3.0367 -0.0624 -0.5581
  559MOL0     H75445   8.405  10.878   3.707 -3.8386 -0.9940 -0.3736
  559MOL0     H75446   8.179  10.975   3.737  2.3362  0.8766  2.0002
  559MOL0     H75447   8.012  11.410   3.564  0.1817  0.3836 -1.3847
  559MOL0     H75448   7.840  11.578   3.529  1.5153 -0.9643 -1.9551
  559MOL0     H75449   5.597  11.365   2.926  0.0216 -0.1570  0.4363
  559MOL0     H75450   5.383  11.255   2.954 -1.5487 -0.4535  2.3568
  559MOL0     H75451   5.204  10.806   3.114 -1.9743 -1.4227 -3.0294
  559MOL0     H75452   5.010  10.674   3.127 -2.4148 -0.3183 -1.2202
  559MOL0     H75453   4.664  10.856   3.310 -0.8839  1.8265 -1.7937
  559MOL0     H75454   4.612  10.692   3.261  1.1032 -0.3980  0.5171
  559MOL0     H75455   4.515  10.814   3.043  3.4792 -1.4589 -0.6168
  559MOL0     H75456   4.583  10.960   3.092  0.4557 -1.1886 -2.0102
  559MOL0     H75457   4.444  10.979   3.277  1.5873  0.1171 -1.1385
  559MOL0     H75458   4.368  10.813   3.246  0.9356 -0.0827 -0.3280
  559MOL0     H75459   4.338  11.072   3.106  0.0447 -0.4149 -0.6125
  559MOL0     H75460   4.347  10.927   3.003  0.8880 -1.2583  0.2939
  559MOL0     H75461   3.981  10.852   3.231 -0.3423  0.7332 -0.1973
  559MOL0     H75462   4.771  11.035   3.216  0.6839  2.1038 -1.8092
  559MOL0     H75463   4.863  11.245   3.204 -0.0021 -0.1946 -1.2431
  559MOL0     H75464   5.016  11.252   3.290 -0.1618  0.0248  0.2473
  559MOL0     H75465   5.012  11.273   3.113 -2.7174  2.4781  0.1485
  560MOL0     O75466   8.609   5.315   9.601 -0.5823 -0.1664 -0.2956
  560MOL0     C75467   8.544   5.413   9.579 -0.1912 -0.9206  0.1102
  560MOL0     O75468   8.588   5.545   9.597  0.0453  0.9049 -0.4153
  560MOL0     C75469   8.710   5.565   9.656  0.5443 -0.8094  0.6457
  560MOL0     C75470   8.713   5.601   9.791 -0.0641 -0.2611 -0.1714
  560MOL0     C75471   8.832   5.623   9.858 -0.2911  0.1988 -1.1518
  560MOL0     C75472   8.956   5.621   9.793 -0.5380  0.9588  0.3128
  560MOL0     O75473   9.079   5.641   9.863  0.4176  0.2880  0.0571
  560MOL0     C75474   9.205   5.606   9.805  0.3644  0.1489 -0.2514
  560MOL0     C75475   9.296   5.566   9.915  0.0250  0.4868 -0.0904
  560MOL0     C75476   9.439   5.536   9.865  0.3894 -0.1797  0.6417
  560MOL0     C75477   9.526   5.490   9.980  0.2049  0.5444 -0.0262
  560MOL0     C75478   9.666   5.451   9.941 -0.1226 -0.2533 -0.8721
  560MOL0     C75479   9.746   5.423  10.073 -0.0653  0.2036 -0.2150
  560MOL0     C75480   9.895   5.394  10.047 -0.7326  0.7395  0.6404
  560MOL0     C75481   9.971   5.356  10.184 -0.2944 -0.2384  0.1111
  560MOL0     N75482  10.108   5.291  10.182  0.2903  0.1697  0.0019
  560MOL0     C75483  10.140   5.190  10.091 -0.1968 -0.5001 -0.1484
  560MOL0     C75484  10.264   5.149  10.124 -0.0667 -0.1346 -0.1205
  560MOL0     C75485  10.351   5.061  10.050  0.1345 -0.2706  0.6299
  560MOL0     C75486  10.412   5.132   9.928 -0.0194 -0.5988 -0.3583
  560MOL0     C75487  10.546   5.086   9.872 -0.3704  0.1359 -0.5196
  560MOL0     C75488  10.666   5.124   9.952  0.1164  0.2313 -0.1135
  560MOL0     O75489  10.772   5.041   9.909  0.0436  0.3265  0.0299
  560MOL0     C75490  10.898   5.070   9.941  0.1321  0.2032 -0.1740
  560MOL0     C75491  10.994   4.984   9.897  0.0631  0.2543  0.4656
  560MOL0     C75492  11.126   4.998   9.918 -0.9405 -0.0686 -0.2501
  560MOL0     C75493  11.176   5.116   9.986 -0.4616  0.4550  1.4909
  560MOL0     C75494  11.326   5.139   9.998  0.1303  0.2830 -0.0218
  560MOL0     O75495  11.417   5.046   9.951  1.2151  0.5458 -0.2734
  560MOL0     C75496  11.553   5.052   9.980  0.6637  0.0054  0.2911
  560MOL0     C75497  11.619   5.097  10.094  0.3188 -0.4696 -0.3626
  560MOL0     C75498  11.752   5.100  10.094 -0.6890 -0.1596 -0.0002
  560MOL0     C75499  11.825   5.054   9.982  0.4023 -0.0733 -0.2508
  560MOL0     O75500  11.957   5.076   9.999 -0.0785 -0.5405  0.1402
  560MOL0     C75501  12.045   5.040   9.895  0.4093 -0.4549 -0.0346
  560MOL0     C75502  12.190   5.068   9.934  0.6483  0.1772  0.0448
  560MOL0     C75503  12.219   5.221   9.929  0.1433  0.0056  0.3501
  560MOL0     C75504  12.362   5.255   9.974  0.8479 -1.0497 -0.2604
  560MOL0     C75505  12.399   5.402   9.954 -0.1565  0.1326 -0.2300
  560MOL0     C75506  12.437   5.427   9.813 -0.3965 -0.3509  0.6991
  560MOL0     C75507  12.442   5.572   9.792 -0.6859  0.0060 -0.3403
  560MOL0     C75508  12.475   5.606   9.647 -0.4428 -0.2450  0.2397
  560MOL0    Cl75509  12.321   5.609   9.561  0.5773  0.2649  0.3471
  560MOL0     C75510  11.765   5.003   9.869  0.4577  0.8325  0.5841
  560MOL0     C75511  11.627   5.005   9.873 -0.0790  0.1090  0.9747
  560MOL0     O75512  11.357   5.239  10.063  0.5427 -0.2784 -0.2461
  560MOL0     C75513  11.080   5.214  10.026 -0.6643  0.2113  0.0296
  560MOL0     C75514  10.945   5.189  10.012 -0.0459 -0.2670  0.1917
  560MOL0     N75515  10.300   5.212  10.235 -0.1516 -0.0328 -0.1665
  560MOL0     N75516  10.208   5.299  10.272  0.2214 -0.2038  0.2556
  560MOL0     C75517   8.957   5.579   9.661  0.9352 -0.5568  0.1635
  560MOL0     C75518   8.837   5.547   9.591  0.1275 -0.1502 -0.3531
  560MOL0     C75519   8.406   5.387   9.528 -0.0058  0.6607  0.3164
  560MOL0     C75520   8.387   5.270   9.446 -0.2190 -0.5521 -0.1682
  560MOL0     C75521   8.260   5.245   9.397 -0.7662  0.2020 -0.2653
  560MOL0     C75522   8.151   5.324   9.424  0.1995 -1.1969 -0.4008
  560MOL0     O75523   8.026   5.310   9.379  0.5549  0.6601 -0.1892
  560MOL0     C75524   8.005   5.226   9.254 -0.5657 -0.3418  0.1624
  560MOL0     C75525   7.875   5.270   9.184  0.2851  1.3832 -0.8917
  560MOL0     C75526   7.878   5.412   9.125 -0.5038  0.2926  0.6718
  560MOL0     C75527   7.748   5.460   9.056  0.7122 -0.5350 -0.0619
  560MOL0     C75528   7.640   5.504   9.149  0.2472  0.6193  0.2327
  560MOL0     C75529   7.560   5.543   9.216  1.3368 -0.6071  0.0455
  560MOL0     C75530   8.167   5.437   9.505  0.0970 -0.5564  0.5746
  560MOL0     C75531   8.293   5.471   9.555 -1.1583  0.2983  0.3414
  560MOL0     C75532   8.308   5.606   9.624  0.6509  0.2465  0.6615
  560MOL0     H75533   8.615   5.596   9.837  1.0063 -3.8412  2.1192
  560MOL0     H75534   8.853   5.666   9.955  1.4662  1.5618 -2.0842
  560MOL0     H75535   9.201   5.525   9.732  0.5249 -0.3311  0.2617
  560MOL0     H75536   9.242   5.683   9.737 -2.0332  0.7357 -0.9567
  560MOL0     H75537   9.266   5.475   9.968 -0.6792  1.9320  2.1123
  560MOL0     H75538   9.304   5.638   9.997  2.3670 -1.3215  1.4121
  560MOL0     H75539   9.480   5.631   9.830 -0.9813  0.4966  0.8253
  560MOL0     H75540   9.444   5.466   9.780  1.4805  1.9507 -1.1700
  560MOL0     H75541   9.524   5.570  10.056 -1.3452  0.8572 -0.3510
  560MOL0     H75542   9.471   5.403  10.016  1.2222  0.0642  0.3962
  560MOL0     H75543   9.678   5.361   9.880  3.9016 -1.5107  1.3465
  560MOL0     H75544   9.705   5.534   9.880 -4.4443  1.8903 -1.0624
  560MOL0     H75545   9.736   5.514  10.132  0.2014 -0.3845  0.7503
  560MOL0     H75546   9.701   5.339  10.126  1.0884  0.0838  0.6121
  560MOL0     H75547   9.943   5.479   9.998 -1.1311  0.0278 -1.0696
  560MOL0     H75548   9.899   5.306   9.981 -0.2872  0.6088  0.8403
  560MOL0     H75549   9.982   5.449  10.241  1.3459 -0.8482  0.8684
  560MOL0     H75550   9.915   5.294  10.254  0.9556 -1.0133  0.4519
  560MOL0     H75551  10.088   5.168   9.998 -0.5846  0.4770 -0.1773
  560MOL0     H75552  10.428   5.026  10.119  1.5792 -0.0176 -0.7760
  560MOL0     H75553  10.294   4.973  10.020  1.2641 -1.1567  1.0075
  560MOL0     H75554  10.342   5.127   9.845  2.1437 -1.3799 -2.2376
  560MOL0     H75555  10.429   5.236   9.958  1.3632 -0.8763 -0.0678
  560MOL0     H75556  10.550   5.125   9.770 -1.9240  1.2812 -0.1754
  560MOL0     H75557  10.540   4.977   9.863  0.1088 -0.0146  0.8878
  560MOL0     H75558  10.641   5.107  10.057 -1.6170  1.6439 -0.2421
  560MOL0     H75559  10.685   5.231   9.936  0.5151  0.4044  1.3315
  560MOL0     H75560  10.957   4.893   9.852  1.0033 -0.2035  0.5930
  560MOL0     H75561  11.203   4.926   9.892 -1.3700 -0.2472 -1.0682
  560MOL0     H75562  11.549   5.141  10.164  0.7855 -1.7712  0.9716
  560MOL0     H75563  11.801   5.135  10.184  1.0218 -0.0501 -0.9210
  560MOL0     H75564  12.030   4.932   9.882 -0.3175 -0.2677 -0.8674
  560MOL0     H75565  12.012   5.083   9.800 -0.3191  0.9840  0.8461
  560MOL0     H75566  12.197   5.044  10.040 -0.3873 -0.8197 -0.0982
  560MOL0     H75567  12.260   5.009   9.874  2.0881 -0.0100  1.8211
  560MOL0     H75568  12.225   5.250   9.824 -0.9606  1.8324  0.7362
  560MOL0     H75569  12.143   5.283   9.978  0.4276 -0.9424  2.0980
  560MOL0     H75570  12.434   5.184   9.932  0.4037 -0.9662 -1.1916
  560MOL0     H75571  12.367   5.224  10.079  0.6697  0.6496  0.2706
  560MOL0     H75572  12.488   5.436  10.008  0.1155 -0.3743 -0.3595
  560MOL0     H75573  12.309   5.463   9.969 -0.0206  0.8543 -2.1418
  560MOL0     H75574  12.531   5.384   9.777  0.6957  1.7487  0.8873
  560MOL0     H75575  12.364   5.377   9.749  2.3220 -4.2418  0.3146
  560MOL0     H75576  12.526   5.613   9.850  0.5661  2.2604 -3.4542
  560MOL0     H75577  12.346   5.616   9.818 -0.9277 -1.9046  2.4964
  560MOL0     H75578  12.527   5.702   9.638  0.1998 -0.6344 -0.3803
  560MOL0     H75579  12.536   5.529   9.599 -1.1270 -0.6622  0.0165
  560MOL0     H75580  11.824   4.962   9.787  0.1894  0.0246  0.7808
  560MOL0     H75581  11.568   4.970   9.789  0.0786  0.6881  0.6151
  560MOL0     H75582  11.106   5.309  10.073  1.8199 -1.2337  1.7783
  560MOL0     H75583  10.877   5.270  10.036 -2.3289 -2.5507  1.9530
  560MOL0     H75584   9.043   5.576   9.595 -1.6908 -3.7963 -3.5197
  560MOL0     H75585   8.824   5.540   9.484  0.1957  1.7917 -0.5226
  560MOL0     H75586   8.467   5.202   9.422  0.7547 -0.3038  2.1648
  560MOL0     H75587   8.255   5.151   9.343 -0.6337 -0.3172  0.6115
  560MOL0     H75588   8.001   5.123   9.290  0.6973  0.4469  2.7772
  560MOL0     H75589   8.087   5.230   9.182 -0.6032  1.0377  0.1721
  560MOL0     H75590   7.794   5.254   9.256  2.3237 -2.8324  0.8391
  560MOL0     H75591   7.853   5.189   9.114 -0.7498 -1.9304  2.8714
  560MOL0     H75592   7.954   5.426   9.048 -1.0683  0.0639  0.0682
  560MOL0     H75593   7.905   5.483   9.203 -1.5699  0.4054  0.9542
  560MOL0     H75594   7.763   5.544   8.988 -4.5068  2.1548  1.5582
  560MOL0     H75595   7.714   5.380   8.991 -1.3532  1.0254 -1.0383
  560MOL0     H75596   7.481   5.596   9.267 -0.0499 -3.0138  0.5377
  560MOL0     H75597   8.079   5.496   9.528 -0.2471 -0.3019 -1.2761
  560MOL0     H75598   8.354   5.592   9.722  2.3665 -0.3178 -0.1979
  560MOL0     H75599   8.366   5.675   9.562  1.0638 -0.1148  0.6443
  560MOL0     H75600   8.211   5.655   9.636 -0.6221 -0.7762 -3.6593
  561MOL0     O75601   0.429   1.173   5.698 -0.5467  0.9576 -0.2695
  561MOL0     C75602   0.397   1.122   5.806 -0.2755 -0.4478 -0.4592
  561MOL0     O75603   0.474   1.111   5.917  0.6867 -0.2173 -0.3130
  561MOL0     C75604   0.605   1.150   5.917  0.2782 -0.2846  0.5271
  561MOL0     C75605   0.695   1.138   5.804  0.6153  0.4834 -0.1997
  561MOL0     C75606   0.826   1.180   5.814  0.1471 -0.0735  0.2290
  561MOL0     C75607   0.874   1.229   5.932 -0.2489 -0.4775 -0.3776
  561MOL0     O75608   0.994   1.279   5.952 -0.5731  0.0536  0.3784
  561MOL0     C75609   1.030   1.369   5.847 -0.6113  0.1833  0.5717
  561MOL0     C75610   1.152   1.432   5.901 -0.0061 -0.2485 -0.3445
  561MOL0     C75611   1.213   1.528   5.795  0.1007  0.4752  0.9747
  561MOL0     C75612   1.346   1.587   5.828 -0.2115 -0.5143  0.4733
  561MOL0     C75613   1.412   1.684   5.727 -0.6716 -1.4925 -0.6410
  561MOL0     C75614   1.461   1.645   5.584  0.2219 -0.4841 -1.1661
  561MOL0     C75615   1.360   1.646   5.469  0.6630  0.2481  0.1774
  561MOL0     C75616   1.269   1.773   5.455  0.2168 -0.3228  0.8719
  561MOL0     N75617   1.349   1.875   5.391  0.3946 -0.2471 -0.0060
  561MOL0     C75618   1.418   1.975   5.453 -0.4594  0.4383 -0.3942
  561MOL0     C75619   1.472   2.045   5.354 -0.4228 -0.0658  0.0754
  561MOL0     C75620   1.567   2.173   5.358 -0.0053 -0.1175 -0.7020
  561MOL0     C75621   1.705   2.148   5.416  0.0856  0.5700 -0.4610
  561MOL0     C75622   1.795   2.060   5.339  0.0277  1.2466 -0.4176
  561MOL0     C75623   1.951   2.081   5.347  0.3782 -0.3117 -0.6593
  561MOL0     O75624   1.992   2.215   5.331  0.2187 -1.0491  0.7372
  561MOL0     C75625   2.126   2.241   5.317 -0.2194  0.8015  0.8406
  561MOL0     C75626   2.171   2.362   5.270 -0.5404 -0.6535 -0.2759
  561MOL0     C75627   2.307   2.398   5.248 -0.6748  0.1147  0.9062
  561MOL0     C75628   2.409   2.299   5.261  0.0662 -0.3992  0.6506
  561MOL0     C75629   2.553   2.316   5.217 -0.1814  0.6311  0.1515
  561MOL0     O75630   2.637   2.208   5.233 -0.3421 -0.6076  0.4589
  561MOL0     C75631   2.770   2.229   5.200 -1.5193  0.4068  0.4907
  561MOL0     C75632   2.870   2.213   5.297  0.9075  0.6190 -1.0240
  561MOL0     C75633   3.002   2.213   5.270  0.1323  0.4386  1.5755
  561MOL0     C75634   3.043   2.221   5.137  0.9898  0.1564 -0.0533
  561MOL0     O75635   3.174   2.225   5.090 -0.2597 -0.4196 -0.0991
  561MOL0     C75636   3.271   2.130   5.144  0.1889 -0.6033 -0.1773
  561MOL0     C75637   3.417   2.170   5.130  0.5441 -0.1570 -0.8237
  561MOL0     C75638   3.452   2.201   4.990 -0.0316 -0.2488 -0.7830
  561MOL0     C75639   3.599   2.244   4.980  0.0480 -0.6003 -0.4514
  561MOL0     C75640   3.669   2.184   4.865  0.6978  0.1252 -0.1206
  561MOL0     C75641   3.805   2.256   4.852  0.9934  0.7447  0.0238
  561MOL0     C75642   3.884   2.209   4.740 -0.7262 -0.6561 -0.4943
  561MOL0     C75643   4.015   2.293   4.736  0.4198 -0.7817 -0.2205
  561MOL0    Cl75644   4.135   2.248   4.612 -0.4196  0.1539 -0.0436
  561MOL0     C75645   2.947   2.247   5.038  1.0276 -0.0297 -0.1537
  561MOL0     C75646   2.812   2.250   5.065  0.3021 -0.4884 -0.4177
  561MOL0     O75647   2.582   2.421   5.164  0.4494 -0.1216  0.0744
  561MOL0     C75648   2.364   2.174   5.310 -0.1312 -0.4729 -1.0621
  561MOL0     C75649   2.226   2.144   5.339 -0.0983  0.0581 -0.2747
  561MOL0     N75650   1.446   1.984   5.228 -0.3080 -0.4990  0.5449
  561MOL0     N75651   1.375   1.879   5.260  0.0854 -0.3145 -0.0311
  561MOL0     C75652   0.803   1.217   6.044 -0.3116 -1.0059 -0.8547
  561MOL0     C75653   0.674   1.180   6.036  0.3931  0.6289  0.5693
  561MOL0     C75654   0.267   1.066   5.822  0.6489 -0.3631 -0.3201
  561MOL0     C75655   0.157   1.140   5.779 -0.5129 -0.1682 -0.3603
  561MOL0     C75656   0.033   1.099   5.793  1.3132  0.6071 -0.5530
  561MOL0     C75657  -0.001   0.981   5.850  0.3316  0.0517  0.6261
  561MOL0     O75658  -0.141   0.958   5.867  0.0388  0.1835 -0.7333
  561MOL0     C75659  -0.166   0.831   5.930  0.3120  0.9476  0.1694
  561MOL0     C75660  -0.313   0.809   5.941  0.8207 -0.3538  0.3266
  561MOL0     C75661  -0.336   0.712   6.060  0.1228  0.1853 -0.1016
  561MOL0     C75662  -0.454   0.623   6.033  0.2959  0.2793  0.0858
  561MOL0     C75663  -0.433   0.517   5.925 -0.7523 -0.6559 -0.4550
  561MOL0     C75664  -0.415   0.431   5.842  0.1914  0.0828  1.2496
  561MOL0     C75665   0.107   0.894   5.883 -0.1869 -0.2750  0.0955
  561MOL0     C75666   0.243   0.936   5.869  0.5991  0.7572  0.1015
  561MOL0     C75667   0.358   0.844   5.904  0.2221  0.2146 -0.3993
  561MOL0     H75668   0.654   1.079   5.722 -2.2168 -0.4730  1.7528
  561MOL0     H75669   0.885   1.172   5.724  0.1104 -0.2662  0.2219
  561MOL0     H75670   1.056   1.324   5.751 -0.6208  1.0685  0.1457
  561MOL0     H75671   0.956   1.447   5.824  0.9338  1.6920  0.4850
  561MOL0     H75672   1.235   1.362   5.918  0.4627 -0.1837 -2.1334
  561MOL0     H75673   1.121   1.492   5.987  1.5731 -1.5556  1.2087
  561MOL0     H75674   1.152   1.617   5.779  1.3735  1.1583 -0.3135
  561MOL0     H75675   1.218   1.480   5.697 -0.9165  1.9525  0.1754
  561MOL0     H75676   1.341   1.620   5.932 -0.2040 -0.0349  0.3233
  561MOL0     H75677   1.423   1.510   5.818  2.8891  2.5726 -1.4096
  561MOL0     H75678   1.345   1.768   5.705  2.0714 -0.1231 -4.7879
  561MOL0     H75679   1.494   1.730   5.781 -1.1527 -1.7816  0.3722
  561MOL0     H75680   1.545   1.713   5.565  0.2215 -0.2589 -0.3800
  561MOL0     H75681   1.513   1.548   5.580 -0.9957 -1.1219 -4.1881
  561MOL0     H75682   1.296   1.558   5.477  0.6416  0.1153 -1.3111
  561MOL0     H75683   1.424   1.636   5.381  0.5293  1.7689 -0.1182
  561MOL0     H75684   1.198   1.748   5.375  0.2563  0.0670  0.7127
  561MOL0     H75685   1.219   1.797   5.550 -2.1563 -0.6455 -0.2154
  561MOL0     H75686   1.414   1.991   5.560  2.6875  0.2528 -0.1537
  561MOL0     H75687   1.589   2.223   5.263 -0.7834 -0.0526 -0.8594
  561MOL0     H75688   1.513   2.247   5.419  1.2270  0.4338 -0.2603
  561MOL0     H75689   1.753   2.246   5.407  0.2968  0.7182  1.6096
  561MOL0     H75690   1.696   2.115   5.520 -2.8911 -2.7232 -1.5461
  561MOL0     H75691   1.773   2.068   5.232 -0.2040 -0.1057 -0.4916
  561MOL0     H75692   1.774   1.954   5.360  1.1517  0.9649 -0.6513
  561MOL0     H75693   1.990   2.023   5.263 -4.8354 -0.9827 -3.0162
  561MOL0     H75694   1.979   2.046   5.447 -0.9675 -4.7761 -1.5772
  561MOL0     H75695   2.090   2.434   5.270  1.7125  2.0080  0.4366
  561MOL0     H75696   2.340   2.494   5.210  2.0718 -1.3997 -0.8025
  561MOL0     H75697   2.850   2.179   5.398  3.3712  1.8740 -0.0144
  561MOL0     H75698   3.084   2.198   5.339 -0.1446  1.2060  2.0941
  561MOL0     H75699   3.247   2.127   5.251  1.2362 -0.1662  0.0744
  561MOL0     H75700   3.248   2.033   5.099 -1.6213 -0.7031  0.8333
  561MOL0     H75701   3.441   2.250   5.201 -0.1269 -1.1678  0.6001
  561MOL0     H75702   3.471   2.080   5.162 -0.9567 -0.8966 -0.2696
  561MOL0     H75703   3.441   2.119   4.919  1.6190  0.2222 -1.6393
  561MOL0     H75704   3.396   2.291   4.962  3.8900  3.1756  1.0955
  561MOL0     H75705   3.649   2.245   5.078 -0.4716 -1.0885 -0.1743
  561MOL0     H75706   3.588   2.350   4.954  2.5102  0.1292  1.0832
  561MOL0     H75707   3.602   2.195   4.780  2.8208 -2.5216 -2.3506
  561MOL0     H75708   3.681   2.076   4.877  1.7682  0.2780  0.2993
  561MOL0     H75709   3.795   2.363   4.835  2.3038  1.3275  2.5107
  561MOL0     H75710   3.849   2.253   4.952 -1.9434  1.1989  1.4531
  561MOL0     H75711   3.822   2.230   4.652 -2.7218 -2.7282  0.3111
  561MOL0     H75712   3.898   2.101   4.747 -5.5847 -1.4831 -0.1539
  561MOL0     H75713   3.983   2.397   4.722  1.4576 -0.6488 -1.8972
  561MOL0     H75714   4.061   2.276   4.834 -1.2674 -0.1304  0.7250
  561MOL0     H75715   2.977   2.260   4.934  0.8679  0.0750 -0.1863
  561MOL0     H75716   2.734   2.260   4.990  0.8152 -1.3494 -1.0910
  561MOL0     H75717   2.433   2.094   5.333 -2.3042 -1.9654  0.7371
  561MOL0     H75718   2.206   2.042   5.371  2.3891 -0.3514  0.1924
  561MOL0     H75719   0.839   1.258   6.138 -0.2232 -0.3407 -1.1751
  561MOL0     H75720   0.606   1.187   6.120 -1.9785  0.4857 -1.2144
  561MOL0     H75721   0.180   1.235   5.732  0.7844  0.0381  0.6311
  561MOL0     H75722  -0.046   1.170   5.771  1.2755  1.6676  2.5686
  561MOL0     H75723  -0.127   0.827   6.032  0.2813 -3.0842  0.1984
  561MOL0     H75724  -0.132   0.754   5.860 -3.0414  1.9085 -2.8257
  561MOL0     H75725  -0.354   0.769   5.848 -4.0796  1.6103  1.3189
  561MOL0     H75726  -0.368   0.901   5.965 -1.0377 -0.9440 -1.4569
  561MOL0     H75727  -0.344   0.772   6.152  1.3851  1.0279 -0.5158
  561MOL0     H75728  -0.247   0.655   6.086  0.5636  0.8687 -0.0883
  561MOL0     H75729  -0.468   0.586   6.135 -1.3085  2.3775  0.6884
  561MOL0     H75730  -0.544   0.678   6.006  1.1063  1.9661  0.7015
  561MOL0     H75731  -0.398   0.353   5.771  1.3518  0.4923  1.0505
  561MOL0     H75732   0.087   0.802   5.936  1.9122 -1.3717 -0.8954
  561MOL0     H75733   0.375   0.859   6.010  1.9067  0.8589 -0.7284
  561MOL0     H75734   0.345   0.737   5.882 -1.2380  1.0806 -4.9470
  561MOL0     H75735   0.454   0.865   5.856  0.6365  0.8013  0.6647
  562MOL0     O75736   4.058  10.509   7.184 -0.2151  0.4877  0.2386
  562MOL0     C75737   4.018  10.586   7.271  0.0598  0.3982  0.8925
  562MOL0     O75738   4.081  10.699   7.318  0.2130 -0.4807 -0.3693
  562MOL0     C75739   4.213  10.709   7.275 -0.6275  0.2764 -0.2572
  562MOL0     C75740   4.312  10.616   7.316 -0.2681 -0.6253 -0.3663
  562MOL0     C75741   4.439  10.623   7.273  0.1889  0.0793  0.9226
  562MOL0     C75742   4.490  10.716   7.176  0.9006 -0.5584  0.4321
  562MOL0     O75743   4.617  10.712   7.121 -0.0641 -0.3382  0.0231
  562MOL0     C75744   4.668  10.821   7.050  0.5908 -0.3457  0.7415
  562MOL0     C75745   4.807  10.794   7.003 -1.1491 -0.0297 -0.3522
  562MOL0     C75746   4.915  10.791   7.113 -0.0005  0.2753 -0.5785
  562MOL0     C75747   5.057  10.807   7.061  0.2654  0.0621  0.2819
  562MOL0     C75748   5.169  10.790   7.157 -0.1991 -0.4169  1.1360
  562MOL0     C75749   5.310  10.839   7.109 -0.2401  0.4745 -0.7001
  562MOL0     C75750   5.407  10.828   7.230  0.2090 -0.2230  0.3472
  562MOL0     C75751   5.545  10.882   7.186 -0.3357 -0.3350  0.5459
  562MOL0     N75752   5.642  10.874   7.295 -0.2959  0.3063 -0.2898
  562MOL0     C75753   5.681  10.976   7.383 -0.1441 -0.4074  0.6590
  562MOL0     C75754   5.757  10.908   7.473 -0.2911 -0.5689 -0.1531
  562MOL0     C75755   5.817  10.968   7.600 -0.6334 -0.3861 -0.5371
  562MOL0     C75756   5.969  10.978   7.582  0.7639 -0.0240  0.9243
  562MOL0     C75757   6.043  11.073   7.673  0.8995 -0.1111  0.7054
  562MOL0     C75758   6.185  11.028   7.695  0.1878  0.4532  0.4684
  562MOL0     O75759   6.258  11.027   7.567  0.2158 -0.4619 -0.6412
  562MOL0     C75760   6.387  11.000   7.563 -0.3447 -0.5112  0.5086
  562MOL0     C75761   6.460  10.990   7.682 -0.7814  0.1538  0.0570
  562MOL0     C75762   6.600  10.993   7.672 -0.5325  0.2984  0.2058
  562MOL0     C75763   6.663  10.978   7.545 -0.9365  0.4116 -0.6400
  562MOL0     C75764   6.811  10.957   7.538 -0.6772  0.4987  0.2978
  562MOL0     O75765   6.868  10.961   7.411  0.1809 -0.6164  0.1568
  562MOL0     C75766   6.994  10.910   7.388 -0.5799  1.5090  0.1228
  562MOL0     C75767   7.009  10.820   7.284 -0.3333  0.9987 -0.5802
  562MOL0     C75768   7.143  10.788   7.249 -1.0546 -0.5400 -0.0089
  562MOL0     C75769   7.257  10.816   7.332 -0.0314 -0.3917 -0.7847
  562MOL0     O75770   7.391  10.782   7.309  0.0479 -0.0218 -0.0701
  562MOL0     C75771   7.437  10.836   7.192  1.1430  0.5884 -0.7465
  562MOL0     C75772   7.482  10.718   7.099 -0.0122  0.1874 -0.0368
  562MOL0     C75773   7.610  10.634   7.145 -0.2291 -0.1409 -0.3886
  562MOL0     C75774   7.740  10.712   7.116 -1.0380  0.3122  0.4132
  562MOL0     C75775   7.856  10.608   7.110  0.1556  0.3495  0.1695
  562MOL0     C75776   7.961  10.662   7.022  0.1576  0.0816 -0.9575
  562MOL0     C75777   8.097  10.581   7.033 -0.7872 -0.1081 -0.2300
  562MOL0     C75778   8.206  10.619   6.937  0.7977 -0.0301 -0.2471
  562MOL0    Cl75779   8.317  10.475   6.950  0.5953  0.2579  0.3263
  562MOL0     C75780   7.238  10.890   7.452  0.6053  0.2015  0.3846
  562MOL0     C75781   7.112  10.940   7.467  0.8833 -0.0603 -0.8745
  562MOL0     O75782   6.879  10.963   7.643 -0.0860 -0.0189 -0.3108
  562MOL0     C75783   6.585  10.972   7.428 -0.4627 -0.1788 -0.6476
  562MOL0     C75784   6.451  10.985   7.435  0.4099  0.0694 -0.7239
  562MOL0     N75785   5.761  10.772   7.441 -0.3867  0.2032 -0.5738
  562MOL0     N75786   5.689  10.754   7.336  0.5880  0.7091 -0.2075
  562MOL0     C75787   4.392  10.807   7.132  0.8564 -0.2938  0.8234
  562MOL0     C75788   4.260  10.810   7.188 -0.1478 -0.6940  0.6112
  562MOL0     C75789   3.888  10.562   7.318  1.1922 -1.0043  0.0727
  562MOL0     C75790   3.806  10.676   7.338  1.5143 -0.4501  0.3313
  562MOL0     C75791   3.680  10.674   7.406 -0.0609  0.3696 -0.0343
  562MOL0     C75792   3.636  10.551   7.460  0.4417 -0.4221 -0.4294
  562MOL0     O75793   3.517  10.540   7.528  0.4377 -0.0014  0.6819
  562MOL0     C75794   3.511  10.475   7.663  0.0676 -0.4132  0.4256
  562MOL0     C75795   3.372  10.505   7.729  0.0915  0.4085  1.1916
  562MOL0     C75796   3.330  10.653   7.731  0.0894 -0.5886 -0.1756
  562MOL0     C75797   3.191  10.677   7.787 -0.2381  0.0387 -0.1170
  562MOL0     C75798   3.172  10.624   7.920 -0.0507  0.0192  1.2287
  562MOL0     C75799   3.138  10.587   8.030  0.8558 -0.1148  0.0262
  562MOL0     C75800   3.721  10.438   7.448 -0.0219 -0.2765  0.6110
  562MOL0     C75801   3.844  10.439   7.368  0.7106  0.4202 -0.3317
  562MOL0     C75802   3.926  10.305   7.358  0.0040  0.4083 -0.0508
  562MOL0     H75803   4.282  10.541   7.388  0.1319 -1.4476 -1.0453
  562MOL0     H75804   4.505  10.542   7.305 -1.1065 -1.8474 -1.0242
  562MOL0     H75805   4.599  10.855   6.973 -0.9104 -1.7986  1.3814
  562MOL0     H75806   4.674  10.904   7.121  0.7619 -1.3437  1.9365
  562MOL0     H75807   4.842  10.870   6.932 -1.6540  2.7148  2.1309
  562MOL0     H75808   4.813  10.697   6.954 -2.2120 -1.4678  2.1832
  562MOL0     H75809   4.899  10.690   7.151 -1.3638  0.3891 -0.8276
  562MOL0     H75810   4.895  10.851   7.202  2.0510  2.1233 -1.2518
  562MOL0     H75811   5.070  10.746   6.972  0.2629  0.3383  0.0909
  562MOL0     H75812   5.071  10.911   7.029  0.1928 -0.2031 -0.6201
  562MOL0     H75813   5.152  10.839   7.253  3.4780  2.0750  0.7354
  562MOL0     H75814   5.185  10.685   7.182 -0.0374 -0.5997  0.3015
  562MOL0     H75815   5.349  10.781   7.026 -2.5341  0.6235 -1.9800
  562MOL0     H75816   5.304  10.941   7.069 -2.1384 -0.0682 -1.9681
  562MOL0     H75817   5.420  10.723   7.257 -0.2562 -0.7823 -1.4536
  562MOL0     H75818   5.375  10.883   7.319  1.7970 -2.1934  2.2366
  562MOL0     H75819   5.579  10.826   7.099 -1.5538  1.4980 -1.1973
  562MOL0     H75820   5.541  10.987   7.154 -0.7124  0.3786  2.7159
  562MOL0     H75821   5.655  11.081   7.376 -1.1060 -0.5956  1.1583
  562MOL0     H75822   5.781  11.071   7.607 -0.8324 -0.4849 -0.0888
  562MOL0     H75823   5.782  10.920   7.692 -0.1680 -2.1816 -1.2532
  562MOL0     H75824   6.007  10.876   7.593  2.1810  0.2585 -0.9917
  562MOL0     H75825   5.993  10.999   7.478 -1.8210  1.6180  0.5626
  562MOL0     H75826   5.991  11.090   7.767  0.2685 -0.9233  0.5135
  562MOL0     H75827   6.046  11.166   7.616 -0.2325 -1.6975 -2.1649
  562MOL0     H75828   6.183  10.928   7.739  2.9080  1.1718  2.5036
  562MOL0     H75829   6.239  11.086   7.771  1.5235 -0.0011 -0.1029
  562MOL0     H75830   6.429  10.996   7.786  1.4727  2.0100  0.7012
  562MOL0     H75831   6.660  10.999   7.762  1.1579  1.8391 -0.9549
  562MOL0     H75832   6.924  10.787   7.225  1.2087 -4.3694 -0.3654
  562MOL0     H75833   7.157  10.710   7.174  1.6443 -1.0648  0.9229
  562MOL0     H75834   7.363  10.886   7.130  0.9509 -0.4535 -1.3810
  562MOL0     H75835   7.511  10.912   7.219  0.0249  0.6189  2.7930
  562MOL0     H75836   7.399  10.647   7.095 -1.8230  2.0981  1.6754
  562MOL0     H75837   7.475  10.752   6.995 -0.3144  0.0200 -0.0727
  562MOL0     H75838   7.599  10.604   7.249 -0.9473 -1.0311 -0.7048
  562MOL0     H75839   7.616  10.541   7.088 -0.1722 -2.1053  2.6317
  562MOL0     H75840   7.756  10.791   7.190 -1.8051  2.8954 -1.9847
  562MOL0     H75841   7.735  10.765   7.021 -0.0444 -1.4742 -0.6908
  562MOL0     H75842   7.829  10.509   7.074 -1.9462  1.2980 -1.0435
  562MOL0     H75843   7.901  10.599   7.209 -1.5956 -1.2752  0.8593
  562MOL0     H75844   7.931  10.656   6.918 -2.0283 -2.6678 -0.2746
  562MOL0     H75845   7.977  10.767   7.048 -0.2214 -0.0645 -0.1051
  562MOL0     H75846   8.076  10.474   7.026  0.0027 -0.2351 -0.8449
  562MOL0     H75847   8.136  10.594   7.135 -2.0900  1.1423  0.1373
  562MOL0     H75848   8.158  10.613   6.839  1.4561  0.5529 -0.6132
  562MOL0     H75849   8.249  10.718   6.954 -0.8554  0.6786  0.0009
  562MOL0     H75850   7.318  10.904   7.523 -0.0322  2.3613  0.7571
  562MOL0     H75851   7.095  10.996   7.559  3.2245  1.1966 -1.1257
  562MOL0     H75852   6.629  10.953   7.330 -2.5406 -2.5047 -1.2622
  562MOL0     H75853   6.394  10.997   7.343  2.3283 -1.8797 -2.2526
  562MOL0     H75854   4.417  10.884   7.060  0.1510  0.6843  1.5862
  562MOL0     H75855   4.183  10.880   7.157  0.2378 -0.7308 -0.4616
  562MOL0     H75856   3.838  10.772   7.297  1.2560 -0.0112  1.1300
  562MOL0     H75857   3.607  10.754   7.411 -0.5792  0.1051 -2.3797
  562MOL0     H75858   3.595  10.508   7.725  0.6063 -0.3411 -0.3227
  562MOL0     H75859   3.533  10.369   7.645 -1.6074 -0.7826  0.4499
  562MOL0     H75860   3.372  10.468   7.832  1.4840  1.6493  1.6625
  562MOL0     H75861   3.297  10.446   7.675  1.4633 -1.9256  1.6763
  562MOL0     H75862   3.338  10.705   7.635  0.8697 -0.0948  0.1485
  562MOL0     H75863   3.397  10.711   7.795  1.0877 -0.0545 -1.6414
  562MOL0     H75864   3.156  10.780   7.801  0.8680  0.1703  1.9641
  562MOL0     H75865   3.117  10.629   7.722 -0.8568 -0.6481  1.0660
  562MOL0     H75866   3.112  10.541   8.123 -1.0126 -2.0497 -1.3658
  562MOL0     H75867   3.696  10.339   7.487  2.4322 -2.3599 -2.5719
  562MOL0     H75868   3.931  10.284   7.251 -1.7769  0.2958 -0.1372
  562MOL0     H75869   4.025  10.307   7.405 -1.1926  1.4475  2.6137
  562MOL0     H75870   3.876  10.222   7.409  1.4094  0.1981  1.0532
  563MOL0     O75871   4.469   9.302   0.588  0.6738 -0.0898  0.0642
  563MOL0     C75872   4.397   9.245   0.507 -0.4491 -0.6052  0.3319
  563MOL0     O75873   4.439   9.164   0.409 -0.2651  0.0909  0.2680
  563MOL0     C75874   4.574   9.149   0.376  0.5093 -0.6328  0.6044
  563MOL0     C75875   4.624   9.019   0.389 -0.5329  0.7163 -1.0232
  563MOL0     C75876   4.766   8.995   0.390 -0.3127 -0.3425  0.0517
  563MOL0     C75877   4.852   9.097   0.358 -0.1744 -0.4679 -0.8976
  563MOL0     O75878   4.986   9.078   0.341 -0.2490 -0.0409 -0.2772
  563MOL0     C75879   5.047   8.972   0.408  0.1219  0.1673 -0.6130
  563MOL0     C75880   5.197   8.995   0.420  0.7336 -0.3045  0.1435
  563MOL0     C75881   5.265   9.013   0.289  0.1688 -0.0153 -0.4773
  563MOL0     C75882   5.406   9.076   0.293  0.0022 -0.1511  0.2709
  563MOL0     C75883   5.508   8.987   0.359 -0.0536  0.0638  0.5439
  563MOL0     C75884   5.639   9.058   0.397  0.4368  0.5203 -0.2659
  563MOL0     C75885   5.743   8.966   0.449 -0.0874 -0.0174 -0.1433
  563MOL0     C75886   5.881   9.002   0.408  0.3831 -0.4134  0.2314
  563MOL0     N75887   5.978   8.930   0.494 -0.3324  0.1859 -0.9537
  563MOL0     C75888   5.991   8.790   0.485  0.0709  0.2799 -0.1313
  563MOL0     C75889   6.121   8.768   0.515  0.5219  0.2674  0.2765
  563MOL0     C75890   6.161   8.623   0.516  0.4479  0.1109  0.1963
  563MOL0     C75891   6.255   8.600   0.632  0.6234  0.3428  0.2355
  563MOL0     C75892   6.399   8.620   0.597 -0.7000 -0.7961 -0.4518
  563MOL0     C75893   6.484   8.599   0.727 -0.9154 -0.2679 -0.2359
  563MOL0     O75894   6.608   8.659   0.685  0.2070  0.6095 -0.1214
  563MOL0     C75895   6.728   8.610   0.736 -0.7165  0.2686  0.0418
  563MOL0     C75896   6.748   8.490   0.806 -0.3288  0.6725 -0.3403
  563MOL0     C75897   6.865   8.473   0.886 -0.3581 -0.1880  0.1841
  563MOL0     C75898   6.975   8.571   0.884  0.0528  0.0457 -0.9296
  563MOL0     C75899   7.086   8.540   0.966 -0.2488  0.6060 -0.9820
  563MOL0     O75900   7.180   8.641   0.977 -1.3526 -0.2341  0.7102
  563MOL0     C75901   7.274   8.648   1.078  0.1131 -1.1167 -0.3367
  563MOL0     C75902   7.259   8.590   1.205 -0.0935  0.2045  0.4301
  563MOL0     C75903   7.346   8.613   1.309  0.2046  0.0492 -0.2120
  563MOL0     C75904   7.461   8.679   1.286 -0.1521  0.6007 -0.2937
  563MOL0     O75905   7.554   8.688   1.385 -0.2990 -0.4372  0.7978
  563MOL0     C75906   7.694   8.692   1.345  0.5824  0.1690  0.1197
  563MOL0     C75907   7.780   8.658   1.466  0.6135 -0.9684  0.6045
  563MOL0     C75908   7.930   8.640   1.426  0.2984 -1.0649 -0.3449
  563MOL0     C75909   8.016   8.771   1.389  1.2551 -0.0617  0.0313
  563MOL0     C75910   8.150   8.780   1.462  0.5913  0.3594 -0.7134
  563MOL0     C75911   8.225   8.915   1.436  0.3154 -0.5346 -0.2349
  563MOL0     C75912   8.353   8.904   1.527  0.4020  0.0793 -0.3318
  563MOL0     C75913   8.406   9.040   1.577 -0.2039  1.2915  0.5749
  563MOL0    Cl75914   8.510   9.116   1.452 -0.2449  0.0753 -0.0474
  563MOL0     C75915   7.477   8.739   1.160 -0.0606  0.1704  0.2330
  563MOL0     C75916   7.383   8.729   1.057  0.0676 -0.1611  0.2003
  563MOL0     O75917   7.104   8.422   1.001 -0.4438  0.8612  0.2316
  563MOL0     C75918   6.965   8.680   0.793 -0.2451  0.4350 -0.0961
  563MOL0     C75919   6.836   8.697   0.732 -0.2779  0.7073 -0.0113
  563MOL0     N75920   6.184   8.888   0.546 -0.1461  0.6460  0.4873
  563MOL0     N75921   6.095   8.980   0.543 -0.8836  0.2076  0.0754
  563MOL0     C75922   4.804   9.231   0.345  0.0530  0.2440  0.3169
  563MOL0     C75923   4.667   9.252   0.363  0.1078  0.1851  0.1990
  563MOL0     C75924   4.245   9.267   0.516  0.7533  0.2090 -0.2872
  563MOL0     C75925   4.151   9.168   0.484  0.5858  0.3491  0.9651
  563MOL0     C75926   4.014   9.189   0.497  0.0029  0.5034  0.3444
  563MOL0     C75927   3.959   9.309   0.542 -0.4343  0.5575  0.9911
  563MOL0     O75928   3.826   9.333   0.561 -0.4224  0.6937 -0.3811
  563MOL0     C75929   3.736   9.226   0.532  0.5681 -0.1765 -0.0802
  563MOL0     C75930   3.716   9.117   0.643 -0.4573  0.8282  0.3375
  563MOL0     C75931   3.703   9.178   0.780  0.1624 -0.1874 -0.1771
  563MOL0     C75932   3.618   9.089   0.870  0.0609  0.5692 -0.0039
  563MOL0     C75933   3.475   9.072   0.827 -0.5004  0.2411  0.1071
  563MOL0     C75934   3.368   9.036   0.775 -0.7339  0.7093  0.4758
  563MOL0     C75935   4.050   9.400   0.585  0.3083 -0.4653  0.7371
  563MOL0     C75936   4.184   9.393   0.567 -0.4481 -0.0479 -0.1827
  563MOL0     C75937   4.269   9.511   0.600  0.1610 -0.8407  0.3613
  563MOL0     H75938   4.563   8.932   0.413 -0.1609  0.5213 -0.7885
  563MOL0     H75939   4.796   8.892   0.409  3.3870  0.3727 -1.0878
  563MOL0     H75940   5.003   8.964   0.507  1.2597  2.2455  0.1260
  563MOL0     H75941   5.034   8.878   0.354 -0.6620 -1.8912  2.9126
  563MOL0     H75942   5.246   8.910   0.467  0.1102  0.1276  1.6133
  563MOL0     H75943   5.228   9.080   0.481 -1.7181  2.8144 -2.5612
  563MOL0     H75944   5.214   9.072   0.213  1.2230  2.5218  0.6772
  563MOL0     H75945   5.277   8.912   0.248  1.1815  0.4761 -1.4594
  563MOL0     H75946   5.427   9.098   0.188 -4.2173  1.4868 -0.4118
  563MOL0     H75947   5.392   9.176   0.335  0.1360  0.6637 -1.5477
  563MOL0     H75948   5.457   8.942   0.446  0.1835  0.0370  0.6694
  563MOL0     H75949   5.533   8.900   0.298  1.3554  0.9199 -0.1397
  563MOL0     H75950   5.673   9.118   0.312  0.3843  2.0941  0.7742
  563MOL0     H75951   5.610   9.124   0.480 -0.7340  0.8057 -0.8842
  563MOL0     H75952   5.726   8.864   0.415 -0.0994 -0.4752  1.1561
  563MOL0     H75953   5.737   8.957   0.558 -0.4084  3.4078  0.2132
  563MOL0     H75954   5.894   8.955   0.310  1.8761 -3.1379  1.6436
  563MOL0     H75955   5.907   9.108   0.401  2.8093 -0.9400  0.6574
  563MOL0     H75956   5.908   8.719   0.481 -1.4536  1.9790 -0.0260
  563MOL0     H75957   6.072   8.559   0.515  0.4770  0.0686  0.2470
  563MOL0     H75958   6.201   8.589   0.420 -0.5410 -3.5809  0.9137
  563MOL0     H75959   6.225   8.660   0.718  0.8275  1.4427 -0.4379
  563MOL0     H75960   6.254   8.491   0.645 -2.7755  0.3351  0.6749
  563MOL0     H75961   6.416   8.722   0.561 -0.1605 -1.0555 -0.9527
  563MOL0     H75962   6.434   8.550   0.521  2.7101  2.0686 -1.7884
  563MOL0     H75963   6.484   8.493   0.750  2.5987 -0.2324  0.5362
  563MOL0     H75964   6.450   8.659   0.812 -0.6765  0.2198 -0.4777
  563MOL0     H75965   6.672   8.414   0.823  3.0129 -2.6283  1.1862
  563MOL0     H75966   6.856   8.380   0.941  0.0400 -0.7913 -0.7481
  563MOL0     H75967   7.167   8.534   1.217  0.2774 -1.2033 -2.4496
  563MOL0     H75968   7.331   8.571   1.408  1.1383 -1.0079 -0.5014
  563MOL0     H75969   7.714   8.622   1.263 -0.0826  0.8652 -0.6593
  563MOL0     H75970   7.721   8.792   1.309 -1.7831  0.7520 -0.1765
  563MOL0     H75971   7.766   8.738   1.539 -1.5396  0.3842 -1.2001
  563MOL0     H75972   7.746   8.561   1.503 -0.3215 -1.2472 -0.9087
  563MOL0     H75973   7.980   8.591   1.509  0.6081 -2.9088 -1.5623
  563MOL0     H75974   7.925   8.567   1.345  1.4611 -1.5885  0.0406
  563MOL0     H75975   7.943   8.851   1.404 -0.0845 -1.3039  0.3977
  563MOL0     H75976   8.045   8.772   1.283  2.3371 -0.5493  0.3081
  563MOL0     H75977   8.208   8.694   1.428  1.7132  1.2341 -1.0748
  563MOL0     H75978   8.129   8.771   1.569  3.1205  0.3561 -0.1577
  563MOL0     H75979   8.258   8.930   1.333  0.9308  1.7985  0.2349
  563MOL0     H75980   8.162   9.000   1.465 -1.6173 -1.8473 -0.4142
  563MOL0     H75981   8.426   8.835   1.482 -0.9666 -2.8099  1.5862
  563MOL0     H75982   8.321   8.861   1.622  2.2296 -0.7815 -0.0649
  563MOL0     H75983   8.325   9.105   1.612 -0.8726  1.0570 -0.5059
  563MOL0     H75984   8.472   9.019   1.662  2.6049  1.3165 -1.4690
  563MOL0     H75985   7.558   8.808   1.139  2.2293 -1.8684  1.7434
  563MOL0     H75986   7.391   8.787   0.966 -1.2766 -0.5199 -0.1641
  563MOL0     H75987   7.045   8.745   0.761  0.0229 -0.0256 -0.3672
  563MOL0     H75988   6.805   8.780   0.669 -0.2034  0.2019 -0.7384
  563MOL0     H75989   4.870   9.313   0.317  0.9592 -0.6934 -0.3817
  563MOL0     H75990   4.623   9.351   0.370  0.7382  0.3810  2.1948
  563MOL0     H75991   4.183   9.072   0.445 -1.0269  0.5625 -1.0647
  563MOL0     H75992   3.948   9.110   0.463  1.0351  0.0781 -0.7330
  563MOL0     H75993   3.762   9.173   0.440 -1.0847 -1.1980  0.0069
  563MOL0     H75994   3.638   9.275   0.521 -0.4362 -1.6173  1.9279
  563MOL0     H75995   3.807   9.056   0.645 -0.8347  0.2356 -0.1084
  563MOL0     H75996   3.637   9.054   0.600  1.8804 -0.7109 -2.0614
  563MOL0     H75997   3.660   9.278   0.783  0.2864 -0.1195  2.6435
  563MOL0     H75998   3.800   9.188   0.831 -1.6111  1.1692  3.2983
  563MOL0     H75999   3.671   8.993   0.864  2.1320  1.5004  1.9970
  563MOL0     H76000   3.619   9.122   0.974 -2.4520  0.6514  0.0577
  563MOL0     H76001   3.282   9.007   0.718 -0.6219 -0.5002  0.9121
  563MOL0     H76002   4.012   9.491   0.631  0.0102  0.7309 -1.7278
  563MOL0     H76003   4.213   9.605   0.597  0.8595 -0.4413 -1.2161
  563MOL0     H76004   4.305   9.505   0.703 -0.6475 -0.4518  0.6800
  563MOL0     H76005   4.352   9.526   0.531 -1.3197 -1.1123 -1.5757
  564MOL0     O76006   5.961   7.973   3.331 -0.5383  0.1614  0.8033
  564MOL0     C76007   5.975   7.858   3.369 -0.2384 -0.6889 -0.8581
  564MOL0     O76008   6.092   7.797   3.402 -0.7625 -0.4805  0.0797
  564MOL0     C76009   6.206   7.870   3.397  0.0848 -0.6201 -0.6426
  564MOL0     C76010   6.313   7.835   3.308  0.5233  1.1003 -0.2224
  564MOL0     C76011   6.423   7.919   3.306 -0.5165  0.2570 -0.6360
  564MOL0     C76012   6.450   8.022   3.411 -0.0107  0.1620  0.0445
  564MOL0     O76013   6.567   8.093   3.421 -0.1747  0.0729 -0.3140
  564MOL0     C76014   6.686   8.018   3.374  0.0215 -0.1695 -0.1288
  564MOL0     C76015   6.803   8.110   3.426  0.3291  0.0711  0.0671
  564MOL0     C76016   6.942   8.047   3.400 -0.4655 -0.8941 -0.1288
  564MOL0     C76017   7.038   8.096   3.505  0.3172 -0.9847 -0.1532
  564MOL0     C76018   7.181   8.044   3.491  0.1285  0.0585 -0.8525
  564MOL0     C76019   7.273   8.103   3.598 -0.3762 -0.6849  0.1552
  564MOL0     C76020   7.415   8.041   3.571  0.9395 -0.0280 -0.3880
  564MOL0     C76021   7.520   8.136   3.624 -0.3186 -0.4926  0.4292
  564MOL0     N76022   7.650   8.080   3.611 -0.2783 -0.2074 -0.1572
  564MOL0     C76023   7.738   8.101   3.510 -0.0478  0.4803 -0.5004
  564MOL0     C76024   7.839   8.024   3.534  0.0376 -0.1256 -1.0437
  564MOL0     C76025   7.961   8.003   3.455  0.2510 -0.0685 -0.1645
  564MOL0     C76026   8.076   8.106   3.492 -0.3011 -0.4601 -0.4813
  564MOL0     C76027   8.186   8.117   3.383 -0.0646  0.0477  0.1628
  564MOL0     C76028   8.305   8.205   3.409 -0.2758 -0.7554 -0.6838
  564MOL0     O76029   8.384   8.193   3.293 -0.4629  0.8630 -0.7497
  564MOL0     C76030   8.522   8.225   3.297 -0.5310 -0.4151  0.0829
  564MOL0     C76031   8.603   8.161   3.207 -0.7129 -0.3645 -0.4736
  564MOL0     C76032   8.740   8.187   3.214  0.4710  0.6915  0.5483
  564MOL0     C76033   8.790   8.266   3.314  0.5622  1.0090 -0.4077
  564MOL0     C76034   8.933   8.271   3.330 -0.7536  0.1960  1.1090
  564MOL0     O76035   8.982   8.361   3.416  0.3390  0.4851  0.6196
  564MOL0     C76036   9.106   8.359   3.473  0.4019  0.1117  0.2121
  564MOL0     C76037   9.202   8.248   3.463 -0.3403  0.0615 -0.4516
  564MOL0     C76038   9.329   8.260   3.515 -0.3376 -0.3957 -0.3690
  564MOL0     C76039   9.374   8.379   3.564 -0.0390  0.2980 -0.0374
  564MOL0     O76040   9.507   8.417   3.596 -0.3205  0.0588 -0.0967
  564MOL0     C76041   9.593   8.319   3.646  0.6138  0.4214 -0.6710
  564MOL0     C76042   9.541   8.268   3.789  0.7718  0.0971  0.5487
  564MOL0     C76043   9.619   8.146   3.846  0.5084 -0.3781  0.3150
  564MOL0     C76044   9.753   8.174   3.915  0.0405 -0.3753 -0.0006
  564MOL0     C76045   9.816   8.037   3.961  0.2314 -0.9273 -0.7931
  564MOL0     C76046   9.895   8.070   4.086 -0.7491 -0.1380 -0.6239
  564MOL0     C76047   9.968   7.949   4.134  0.4093 -0.1381  0.2866
  564MOL0     C76048  10.074   7.964   4.243  0.3424 -0.5483  0.3506
  564MOL0    Cl76049  10.190   8.095   4.204 -0.2211 -0.0560 -0.0826
  564MOL0     C76050   9.291   8.486   3.569 -0.5747  0.2551 -0.2193
  564MOL0     C76051   9.160   8.475   3.523  0.1021  0.7665 -0.6889
  564MOL0     O76052   8.998   8.195   3.254  0.0792 -0.1867 -0.1365
  564MOL0     C76053   8.713   8.334   3.403 -0.0697 -0.3231  0.6067
  564MOL0     C76054   8.574   8.313   3.392 -0.9493 -0.3305 -0.2111
  564MOL0     N76055   7.814   7.945   3.647 -0.7941 -0.4931  0.0758
  564MOL0     N76056   7.705   7.991   3.702 -0.3251 -0.4426  0.3357
  564MOL0     C76057   6.346   8.047   3.501 -0.2976 -0.1032  0.4884
  564MOL0     C76058   6.221   7.977   3.484 -0.2903  0.4103 -0.6617
  564MOL0     C76059   5.857   7.784   3.334  0.5710  0.3092  1.1278
  564MOL0     C76060   5.877   7.662   3.262  0.5514 -0.6708 -0.9399
  564MOL0     C76061   5.769   7.583   3.226  0.3365 -0.0618  0.3821
  564MOL0     C76062   5.646   7.617   3.256  0.1489  0.1373  0.3238
  564MOL0     O76063   5.542   7.546   3.197 -0.3441  0.2152 -0.2604
  564MOL0     C76064   5.400   7.589   3.226  0.2136  0.3969 -0.8224
  564MOL0     C76065   5.289   7.498   3.166  0.5371  1.6486  0.4936
  564MOL0     C76066   5.147   7.553   3.179  0.2519 -0.2176  0.2197
  564MOL0     C76067   5.048   7.440   3.219  0.0628  0.2358 -0.8801
  564MOL0     C76068   5.020   7.346   3.109  0.3093 -0.3257  0.0883
  564MOL0     C76069   4.973   7.277   3.025  0.1711  0.3480  0.4704
  564MOL0     C76070   5.623   7.734   3.335 -0.0956 -0.2238  0.8097
  564MOL0     C76071   5.728   7.816   3.379 -0.3488  0.7446 -0.0075
  564MOL0     C76072   5.699   7.933   3.480  0.4686  0.0926 -0.8102
  564MOL0     H76073   6.310   7.751   3.239 -0.0627  1.7521 -1.0039
  564MOL0     H76074   6.494   7.894   3.228  0.6632  2.5716 -0.4091
  564MOL0     H76075   6.682   7.918   3.417 -0.8053 -0.9655 -1.9816
  564MOL0     H76076   6.681   8.012   3.265 -2.0156 -0.1063 -0.0865
  564MOL0     H76077   6.786   8.129   3.532 -0.0531 -2.3992  0.5252
  564MOL0     H76078   6.791   8.202   3.369 -1.2018 -0.1132  0.0520
  564MOL0     H76079   6.971   8.069   3.296 -1.3413 -1.3436 -0.4789
  564MOL0     H76080   6.931   7.938   3.403 -0.4315 -0.8764  0.8150
  564MOL0     H76081   7.038   8.206   3.507 -1.0317 -0.8191 -3.3831
  564MOL0     H76082   7.011   8.059   3.604 -3.4915 -2.2548 -1.4970
  564MOL0     H76083   7.182   7.934   3.490 -0.4815  0.0065  0.8849
  564MOL0     H76084   7.224   8.065   3.393  2.0143  1.1970  0.1668
  564MOL0     H76085   7.284   8.212   3.590 -2.3639 -0.4437  0.2945
  564MOL0     H76086   7.231   8.081   3.696 -0.9706 -0.7665 -0.1115
  564MOL0     H76087   7.436   8.032   3.464  1.5903 -1.3609 -0.1790
  564MOL0     H76088   7.412   7.943   3.620  0.2048  0.6720  1.0158
  564MOL0     H76089   7.509   8.232   3.573 -0.5351 -0.1868  1.0322
  564MOL0     H76090   7.500   8.145   3.731  4.5133 -2.3635  1.7578
  564MOL0     H76091   7.717   8.182   3.442 -1.2226 -0.3328 -1.1533
  564MOL0     H76092   7.987   7.898   3.470 -1.2229 -0.8754 -2.5768
  564MOL0     H76093   7.945   8.017   3.347 -0.2446 -1.4358 -0.2891
  564MOL0     H76094   8.036   8.207   3.490 -0.7387 -0.6371 -2.7455
  564MOL0     H76095   8.125   8.083   3.587 -0.5787 -0.7162 -0.3977
  564MOL0     H76096   8.145   8.146   3.286 -1.7671 -1.4973  0.3569
  564MOL0     H76097   8.219   8.013   3.375 -0.3246 -0.1080  0.9864
  564MOL0     H76098   8.354   8.179   3.504 -1.3873 -0.1090  0.0856
  564MOL0     H76099   8.277   8.310   3.416 -0.5587 -0.9475  2.8568
  564MOL0     H76100   8.552   8.099   3.134 -0.1371 -0.2429 -0.9873
  564MOL0     H76101   8.799   8.139   3.137 -0.4215  0.1275  0.1934
  564MOL0     H76102   9.178   8.164   3.399  0.9527 -1.6925  1.2418
  564MOL0     H76103   9.404   8.181   3.504 -0.8138 -1.2735  2.1100
  564MOL0     H76104   9.603   8.230   3.584 -0.9279  1.4227 -2.4482
  564MOL0     H76105   9.695   8.355   3.664  0.9820 -0.2628 -1.3694
  564MOL0     H76106   9.539   8.353   3.858  0.6175 -0.4168  1.1898
  564MOL0     H76107   9.435   8.245   3.777  0.7943  1.2647 -3.2805
  564MOL0     H76108   9.559   8.095   3.922 -2.1120  2.4517  0.3465
  564MOL0     H76109   9.645   8.076   3.766 -0.8467 -0.2559 -0.2523
  564MOL0     H76110   9.728   8.242   3.998  2.1424 -2.5130  2.5678
  564MOL0     H76111   9.819   8.216   3.839 -0.3010 -0.2650 -0.2374
  564MOL0     H76112   9.885   7.996   3.886  2.5867 -1.5993  1.5612
  564MOL0     H76113   9.740   7.965   3.992 -1.1919  1.0582  0.5067
  564MOL0     H76114   9.965   8.152   4.068 -1.6445  1.3971  2.2460
  564MOL0     H76115   9.830   8.102   4.168  3.0559  1.2033  2.1337
  564MOL0     H76116  10.016   7.915   4.041 -2.5999  1.6671 -2.1383
  564MOL0     H76117   9.892   7.876   4.160  2.2411 -2.4951 -0.5769
  564MOL0     H76118  10.036   7.989   4.343  0.2206  2.5309 -0.3684
  564MOL0     H76119  10.122   7.866   4.247 -0.7396 -1.0620  1.9438
  564MOL0     H76120   9.339   8.581   3.588  2.2288 -0.2677 -3.6145
  564MOL0     H76121   9.103   8.566   3.538  0.4831  0.8897  0.0680
  564MOL0     H76122   8.760   8.398   3.477  2.1161  1.2121 -1.9413
  564MOL0     H76123   8.508   8.363   3.462  0.7110 -0.4873  1.5351
  564MOL0     H76124   6.359   8.114   3.586  0.3558  0.4336 -0.0254
  564MOL0     H76125   6.141   8.005   3.552  0.9522  1.4883  0.4477
  564MOL0     H76126   5.978   7.641   3.230  0.3610 -0.7690 -1.4867
  564MOL0     H76127   5.792   7.498   3.162 -0.7535 -1.2900  1.5614
  564MOL0     H76128   5.389   7.686   3.177  0.6842  0.5105 -0.7015
  564MOL0     H76129   5.385   7.596   3.334 -3.3085  1.8840 -1.2599
  564MOL0     H76130   5.296   7.406   3.224 -3.0916  1.1784  0.4397
  564MOL0     H76131   5.310   7.477   3.061  0.6630 -1.8029  1.0769
  564MOL0     H76132   5.116   7.596   3.083 -1.5371 -2.5118 -0.3218
  564MOL0     H76133   5.141   7.623   3.262  1.1005 -0.8722  0.8559
  564MOL0     H76134   5.092   7.385   3.303  0.0512  1.2627 -0.1724
  564MOL0     H76135   4.959   7.488   3.262  0.4773 -0.9207  1.4639
  564MOL0     H76136   4.933   7.212   2.950  1.3944  0.1142 -0.0090
  564MOL0     H76137   5.521   7.770   3.346 -0.5865 -0.6679 -1.6962
  564MOL0     H76138   5.747   7.909   3.575  1.0883 -2.2058 -1.6387
  564MOL0     H76139   5.724   8.034   3.445  1.1099  0.9008  1.7239
  564MOL0     H76140   5.590   7.932   3.493  0.4283  1.0030 -0.9825
  565MOL0     O76141   7.940   9.945   0.182 -0.3465  0.2481 -0.5776
  565MOL0     C76142   7.909   9.943   0.064 -0.0850 -0.2199  0.6178
  565MOL0     O76143   7.988   9.984  -0.044 -0.1563  0.0857  0.0868
  565MOL0     C76144   8.120   9.999  -0.025  0.2697  0.2622  0.2245
  565MOL0     C76145   8.182  10.121  -0.019 -0.8640  0.6346  0.2929
  565MOL0     C76146   8.320  10.128  -0.008  0.0874  0.2027  0.2544
  565MOL0     C76147   8.397  10.010  -0.011  1.0294 -0.5230 -0.7041
  565MOL0     O76148   8.533  10.037  -0.019  0.8470  0.3428  0.8330
  565MOL0     C76149   8.625   9.925  -0.036 -0.6116 -0.2923  0.0940
  565MOL0     C76150   8.760   9.971  -0.088  0.6518  0.0057 -0.0800
  565MOL0     C76151   8.853  10.001   0.032 -0.2164  0.4715  1.1710
  565MOL0     C76152   8.995  10.030  -0.015 -1.1611  0.3412  0.8291
  565MOL0     C76153   9.094   9.997   0.095 -0.0048 -0.2350  0.4668
  565MOL0     C76154   9.237  10.052   0.064  0.0969  0.2077 -0.7629
  565MOL0     C76155   9.242  10.200   0.066 -0.1659 -0.5354 -0.1408
  565MOL0     C76156   9.349  10.251  -0.035 -0.0890 -0.8950 -0.3312
  565MOL0     N76157   9.486  10.183  -0.028  0.1463  1.3197 -0.1113
  565MOL0     C76158   9.555  10.170   0.088  0.5622  0.1342  0.2160
  565MOL0     C76159   9.677  10.125   0.057 -0.2261 -0.4019  0.9254
  565MOL0     C76160   9.789  10.093   0.149 -0.5719  0.5273  0.5640
  565MOL0     C76161   9.923  10.154   0.128 -0.1334 -0.0512  0.6520
  565MOL0     C76162  10.027  10.101   0.232 -0.4753 -0.0788  0.3685
  565MOL0     C76163  10.171  10.146   0.210  0.4446  0.2181  0.0644
  565MOL0     O76164  10.242  10.074   0.106 -0.2785 -0.1429 -0.7242
  565MOL0     C76165  10.356  10.138   0.057  0.5458  0.8043 -0.5561
  565MOL0     C76166  10.424  10.085  -0.054 -0.0288 -0.0475  0.0342
  565MOL0     C76167  10.545  10.136  -0.099 -0.8367  0.4714 -0.1300
  565MOL0     C76168  10.608  10.248  -0.029  0.2930  0.3675  0.0480
  565MOL0     C76169  10.747  10.283  -0.056  0.4789  0.2114  0.0977
  565MOL0     O76170  10.813  10.221  -0.160  0.5621 -0.4343  0.0537
  565MOL0     C76171  10.943  10.250  -0.187 -0.3485  0.0736  0.3231
  565MOL0     C76172  11.036  10.148  -0.181  0.4142  0.5765 -0.3579
  565MOL0     C76173  11.175  10.180  -0.187  0.5219  0.4430 -0.7484
  565MOL0     C76174  11.223  10.315  -0.186 -0.3130  0.2055 -1.1244
  565MOL0     O76175  11.363  10.322  -0.170 -0.0955  0.3745  0.3076
  565MOL0     C76176  11.422  10.449  -0.168 -0.0766  0.0524  0.0669
  565MOL0     C76177  11.570  10.438  -0.121  0.5676 -0.0657 -0.0001
  565MOL0     C76178  11.585  10.397   0.029  0.1905  0.1454 -0.8274
  565MOL0     C76179  11.721  10.391   0.088 -0.2578  0.5030  0.2465
  565MOL0     C76180  11.707  10.395   0.241 -0.1542  0.1578 -0.8643
  565MOL0     C76181  11.842  10.364   0.319 -0.2390 -0.3433  0.5104
  565MOL0     C76182  11.947  10.465   0.301  0.7384  0.3684 -0.4780
  565MOL0     C76183  12.054  10.441   0.408 -0.7581  0.3817 -0.9351
  565MOL0    Cl76184  12.125  10.277   0.426  0.1750  0.2944  0.0410
  565MOL0     C76185  11.120  10.412  -0.188 -0.0142 -0.2815  0.7849
  565MOL0     C76186  10.988  10.384  -0.188  0.7008  0.8267  0.5818
  565MOL0     O76187  10.803  10.355   0.024  0.5976  0.2395 -0.3815
  565MOL0     C76188  10.532  10.299   0.081 -0.3964 -1.1984  0.2969
  565MOL0     C76189  10.407  10.253   0.120  0.3049  0.5748  0.1410
  565MOL0     N76190   9.687  10.121  -0.081 -1.0317  0.0011  0.3248
  565MOL0     N76191   9.568  10.152  -0.132  0.3386 -0.3480 -1.7665
  565MOL0     C76192   8.335   9.883  -0.007 -0.5931  0.4847  0.3061
  565MOL0     C76193   8.196   9.880   0.001 -0.3603  0.8188 -0.1255
  565MOL0     C76194   7.766   9.915   0.029 -0.4755  0.3954  0.2742
  565MOL0     C76195   7.697   9.992  -0.074 -0.1087  0.1673  0.2425
  565MOL0     C76196   7.566   9.972  -0.110  0.4888  0.7489 -0.8498
  565MOL0     C76197   7.492   9.863  -0.055  0.3922 -0.6741  0.2886
  565MOL0     O76198   7.371   9.843  -0.115 -0.3360 -0.5654 -0.6542
  565MOL0     C76199   7.276   9.748  -0.059  0.6421  0.4953 -0.3465
  565MOL0     C76200   7.177   9.801   0.053  0.0029 -0.0761  0.5869
  565MOL0     C76201   7.136   9.944   0.035  0.6145  0.1548  0.2084
  565MOL0     C76202   7.080   9.980  -0.109  0.0366  0.2528  0.7975
  565MOL0     C76203   6.950   9.915  -0.123  0.2878  0.2023 -0.4339
  565MOL0     C76204   6.838   9.881  -0.098  0.5074  0.4340  0.7623
  565MOL0     C76205   7.564   9.782   0.041 -0.6807 -0.2692 -0.0273
  565MOL0     C76206   7.697   9.809   0.086 -0.0974  0.0710 -0.4269
  565MOL0     C76207   7.760   9.718   0.195 -0.2041 -0.6555 -0.5098
  565MOL0     H76208   8.111  10.204  -0.020 -2.0536 -0.3241 -1.7371
  565MOL0     H76209   8.373  10.223  -0.007  0.2742  0.0946  1.3678
  565MOL0     H76210   8.635   9.868   0.056  0.6809  0.1114  0.2311
  565MOL0     H76211   8.588   9.867  -0.121  0.1743  0.7042 -0.9557
  565MOL0     H76212   8.748  10.063  -0.147 -3.4948 -1.5009 -1.9739
  565MOL0     H76213   8.809   9.893  -0.146  1.5312  0.5567 -0.0951
  565MOL0     H76214   8.865   9.908   0.089  0.0532  0.6053  1.3297
  565MOL0     H76215   8.815  10.077   0.101  0.8170 -0.0469  2.3565
  565MOL0     H76216   9.019   9.967  -0.101  0.3373  3.4839 -1.2277
  565MOL0     H76217   9.006  10.133  -0.052  1.6912 -0.0784  0.3123
  565MOL0     H76218   9.053  10.048   0.182  0.5374  2.7793 -0.9315
  565MOL0     H76219   9.104   9.889   0.110  3.8968 -0.1225 -0.1937
  565MOL0     H76220   9.304  10.004   0.135 -1.8900 -1.0415  0.3762
  565MOL0     H76221   9.273  10.020  -0.034 -1.8893 -1.8055 -0.9310
  565MOL0     H76222   9.276  10.227   0.166 -1.6746  2.9731 -0.4133
  565MOL0     H76223   9.146  10.252   0.062  0.9954  1.7183 -0.4919
  565MOL0     H76224   9.305  10.221  -0.130  0.3303 -2.1083 -0.1634
  565MOL0     H76225   9.352  10.359  -0.017 -2.6294 -1.0792  1.8669
  565MOL0     H76226   9.519  10.181   0.189 -1.3509 -2.8215 -0.0318
  565MOL0     H76227   9.742  10.122   0.244 -1.2990 -0.1669  0.4197
  565MOL0     H76228   9.807   9.985   0.158 -0.7414  0.4810  0.3382
  565MOL0     H76229   9.959  10.116   0.031  1.5954  3.6677 -0.3609
  565MOL0     H76230   9.924  10.262   0.115  0.3408 -0.2485 -1.4103
  565MOL0     H76231  10.021   9.992   0.235  1.0997 -0.1678  1.6521
  565MOL0     H76232   9.995  10.141   0.329 -1.0308 -0.0987  0.1981
  565MOL0     H76233  10.229  10.118   0.298  1.4515  1.8748 -0.0436
  565MOL0     H76234  10.164  10.254   0.193 -1.6993 -0.2014 -2.4091
  565MOL0     H76235  10.379   9.998  -0.101 -0.7191 -0.6403  1.7233
  565MOL0     H76236  10.591  10.085  -0.183 -0.3286 -2.7386  1.9185
  565MOL0     H76237  10.999  10.047  -0.190  0.4700  0.5921 -0.7512
  565MOL0     H76238  11.238  10.092  -0.188  0.9675  0.7304  0.2537
  565MOL0     H76239  11.415  10.497  -0.266  0.1807  1.0294  0.5116
  565MOL0     H76240  11.379  10.520  -0.097  0.1902  1.7483 -1.4119
  565MOL0     H76241  11.610  10.365  -0.192 -1.7337 -1.1160 -0.2964
  565MOL0     H76242  11.625  10.531  -0.137 -2.1111  1.1596 -3.0730
  565MOL0     H76243  11.515  10.463   0.081  0.7032 -1.1733  1.6852
  565MOL0     H76244  11.539  10.299   0.036  0.8405 -0.2726 -2.1299
  565MOL0     H76245  11.788  10.473   0.058  0.5003  1.9921  5.1698
  565MOL0     H76246  11.772  10.296   0.068 -0.8334 -0.0789  1.4589
  565MOL0     H76247  11.644  10.309   0.265 -0.5544  1.4948  3.8139
  565MOL0     H76248  11.664  10.490   0.273  1.4009  0.5126  0.2968
  565MOL0     H76249  11.827  10.343   0.425  0.2064  1.2217  0.9162
  565MOL0     H76250  11.882  10.266   0.292 -2.8549 -0.8340 -2.0083
  565MOL0     H76251  11.907  10.565   0.320 -0.8434 -0.7994  3.3377
  565MOL0     H76252  11.994  10.449   0.204  1.5789 -1.9859  0.2290
  565MOL0     H76253  12.138  10.511   0.398  0.9638 -1.6082 -1.1728
  565MOL0     H76254  12.008  10.458   0.506 -0.0627  0.9362 -0.6937
  565MOL0     H76255  11.167  10.510  -0.188 -0.2993 -0.1369  0.1575
  565MOL0     H76256  10.909  10.458  -0.192 -0.8943 -0.8226 -0.2356
  565MOL0     H76257  10.579  10.389   0.119  3.7370 -2.9024 -0.2610
  565MOL0     H76258  10.367  10.304   0.207  2.0626  1.8007  0.2751
  565MOL0     H76259   8.399   9.796  -0.010 -2.1164 -0.6446 -0.9371
  565MOL0     H76260   8.154   9.781   0.008  0.0900  0.6479  0.2688
  565MOL0     H76261   7.744  10.073  -0.129 -2.7918  1.1079 -0.8242
  565MOL0     H76262   7.519  10.031  -0.188 -3.4491 -0.8274  0.0708
  565MOL0     H76263   7.325   9.654  -0.033  0.0365 -0.1715 -1.5526
  565MOL0     H76264   7.217   9.725  -0.148  0.6691  1.4275 -0.6217
  565MOL0     H76265   7.232   9.787   0.146 -1.9332 -1.5796  1.5875
  565MOL0     H76266   7.089   9.736   0.057 -2.1348  2.6335  0.6806
  565MOL0     H76267   7.223  10.007   0.055 -0.8077  2.5312 -0.6378
  565MOL0     H76268   7.064   9.957   0.116 -0.8271 -2.1506 -0.5913
  565MOL0     H76269   7.057  10.087  -0.117  2.8079  0.8668  0.0845
  565MOL0     H76270   7.142   9.954  -0.196 -0.2927  1.1783  0.2663
  565MOL0     H76271   6.737   9.848  -0.081 -0.0392  0.6941 -1.6156
  565MOL0     H76272   7.513   9.708   0.102 -1.3205  0.9511  0.9621
  565MOL0     H76273   7.864   9.692   0.170  0.2033 -0.8184  1.2720
  565MOL0     H76274   7.763   9.778   0.287  0.3414  0.5216 -1.2572
  565MOL0     H76275   7.697   9.630   0.208 -3.7757  1.8143  0.3687
  566MOL0     O76276   1.941  11.065   5.323  0.2354  0.3108  0.2487
  566MOL0     C76277   1.838  11.071   5.394 -0.5934  0.4590  1.6666
  566MOL0     O76278   1.833  11.110   5.520 -0.8515 -0.4848 -0.7783
  566MOL0     C76279   1.921  11.063   5.605 -0.1114  1.1671 -0.1801
  566MOL0     C76280   1.881  10.961   5.694  0.4516  1.1591 -0.1257
  566MOL0     C76281   1.959  10.912   5.796  0.2434  0.9499 -0.2978
  566MOL0     C76282   2.092  10.958   5.806 -0.1238  0.7947  0.4041
  566MOL0     O76283   2.181  10.900   5.892  0.3136 -0.0766 -0.2355
  566MOL0     C76284   2.310  10.877   5.846  0.6401  0.2460 -0.0722
  566MOL0     C76285   2.369  10.798   5.964 -0.9861  0.5759 -0.1969
  566MOL0     C76286   2.512  10.770   5.940 -0.8777 -0.0912 -0.0430
  566MOL0     C76287   2.563  10.702   6.059 -0.6778  0.1304 -0.4378
  566MOL0     C76288   2.716  10.676   6.033 -0.2705  0.1000  0.7328
  566MOL0     C76289   2.782  10.622   6.166  0.5062  0.5455 -0.2433
  566MOL0     C76290   2.930  10.604   6.137  0.6321  1.0014 -0.3783
  566MOL0     C76291   3.025  10.600   6.253 -0.0245  0.0158 -0.0199
  566MOL0     N76292   2.956  10.535   6.366  0.5368  0.1074 -0.5446
  566MOL0     C76293   2.933  10.400   6.379 -0.4009 -0.0821  0.7914
  566MOL0     C76294   2.876  10.391   6.498 -1.0172 -0.0142  0.0892
  566MOL0     C76295   2.839  10.269   6.573  0.1997 -0.1130  0.1860
  566MOL0     C76296   2.693  10.259   6.562  1.1905  0.3215  0.1479
  566MOL0     C76297   2.651  10.113   6.590 -0.1397 -0.3914  0.3560
  566MOL0     C76298   2.503  10.104   6.618  0.6373 -0.1142  0.4561
  566MOL0     O76299   2.431  10.148   6.504 -0.3733  0.7949  0.3907
  566MOL0     C76300   2.298  10.176   6.520  0.0854 -0.6257  0.0676
  566MOL0     C76301   2.253  10.290   6.447 -0.5142 -0.0409 -0.6631
  566MOL0     C76302   2.116  10.316   6.435  0.2490  0.2593 -0.0919
  566MOL0     C76303   2.020  10.237   6.501  0.6529  0.1833  0.4012
  566MOL0     C76304   1.872  10.270   6.488  0.8061  0.0208  0.6858
  566MOL0     O76305   1.840  10.387   6.415  0.2294  0.4042  0.3256
  566MOL0     C76306   1.716  10.441   6.412 -0.4501  0.2981  1.1293
  566MOL0     C76307   1.708  10.582   6.393 -0.0383 -0.1127  1.2910
  566MOL0     C76308   1.582  10.640   6.391 -0.0983 -0.3111  0.2949
  566MOL0     C76309   1.460  10.573   6.417  0.3061  0.1442 -0.1266
  566MOL0     O76310   1.344  10.653   6.433 -0.2376  0.5099  0.4027
  566MOL0     C76311   1.218  10.577   6.458  0.1883 -0.0517  0.6851
  566MOL0     C76312   1.094  10.668   6.471 -0.6577 -0.6786 -0.4839
  566MOL0     C76313   0.954  10.606   6.451  0.6215  0.6333  0.8876
  566MOL0     C76314   0.911  10.508   6.559 -0.5348  0.5006 -0.5894
  566MOL0     C76315   0.777  10.438   6.542 -0.1392 -0.1434  0.5862
  566MOL0     C76316   0.661  10.540   6.578  0.1139  0.8999  0.4689
  566MOL0     C76317   0.649  10.549   6.734  0.3131 -0.0534 -0.2380
  566MOL0     C76318   0.507  10.567   6.778  0.3800 -0.3630  0.0670
  566MOL0    Cl76319   0.416  10.425   6.724 -0.2583 -0.3467 -0.4360
  566MOL0     C76320   1.472  10.434   6.424 -0.2924  0.1162 -0.3981
  566MOL0     C76321   1.598  10.367   6.427  0.0052  0.0604 -0.1136
  566MOL0     O76322   1.788  10.200   6.547  0.1395  0.4432 -0.2644
  566MOL0     C76323   2.069  10.139   6.587 -0.0273  1.2180 -0.2171
  566MOL0     C76324   2.205  10.103   6.596 -0.1966  0.1578  0.0426
  566MOL0     N76325   2.869  10.514   6.559  0.2886  0.0970  0.0496
  566MOL0     N76326   2.922  10.599   6.478 -0.8673 -0.0064 -0.4226
  566MOL0     C76327   2.131  11.062   5.715  0.7271 -0.3975 -0.1637
  566MOL0     C76328   2.046  11.106   5.613  0.2343  0.1025 -0.1318
  566MOL0     C76329   1.706  11.038   5.313  0.8326  0.1938  0.0144
  566MOL0     C76330   1.699  10.923   5.230 -0.0970 -1.2383 -0.3893
  566MOL0     C76331   1.574  10.892   5.169 -0.0148  0.1115  0.0069
  566MOL0     C76332   1.458  10.974   5.185 -0.1223  0.2258  0.4207
  566MOL0     O76333   1.328  10.942   5.142 -0.5909 -0.2361  0.4872
  566MOL0     C76334   1.307  10.815   5.083  0.0178  0.4889 -0.4815
  566MOL0     C76335   1.170  10.798   5.037 -0.0239 -0.1017  0.9050
  566MOL0     C76336   1.140  10.654   4.985  0.2992  0.9586  0.0458
  566MOL0     C76337   0.995  10.611   4.963 -0.0886  0.0786 -0.1505
  566MOL0     C76338   0.934  10.675   4.847  0.1187  0.0169 -1.0173
  566MOL0     C76339   0.895  10.739   4.747  0.4222  1.3323  0.3432
  566MOL0     C76340   1.476  11.087   5.265 -0.5766 -0.6353  0.1282
  566MOL0     C76341   1.593  11.122   5.324  0.6197 -0.4214  0.2546
  566MOL0     C76342   1.604  11.253   5.400  0.5218  0.2285 -0.0605
  566MOL0     H76343   1.776  10.935   5.682  1.1925 -1.7633 -0.8196
  566MOL0     H76344   1.910  10.835   5.855 -3.2686  1.4144 -2.3371
  566MOL0     H76345   2.317  10.835   5.745  0.6879 -3.1265  1.2159
  566MOL0     H76346   2.361  10.973   5.830 -1.8181  1.5556 -0.4801
  566MOL0     H76347   2.307  10.708   5.971 -0.6227  0.2674 -0.8816
  566MOL0     H76348   2.349  10.856   6.055  1.4595  3.6912 -1.4510
  566MOL0     H76349   2.566  10.863   5.916  0.2137 -1.1177 -1.8131
  566MOL0     H76350   2.531  10.698   5.860 -0.2738 -0.1176  0.1219
  566MOL0     H76351   2.539  10.761   6.148 -0.2203 -2.0577  1.2287
  566MOL0     H76352   2.518  10.606   6.086  0.9258 -0.7228 -0.6669
  566MOL0     H76353   2.718  10.595   5.960 -0.6815 -0.5404  1.4221
  566MOL0     H76354   2.773  10.761   5.995 -2.6843  0.6152 -2.1172
  566MOL0     H76355   2.761  10.702   6.238 -1.9850 -1.1477  1.0838
  566MOL0     H76356   2.731  10.528   6.189  1.4977 -0.2741 -1.2836
  566MOL0     H76357   2.964  10.691   6.080 -0.1439  1.8126  0.3580
  566MOL0     H76358   2.947  10.516   6.075  1.6213 -0.4953  1.8732
  566MOL0     H76359   3.118  10.549   6.224 -0.8225 -2.6393  1.7835
  566MOL0     H76360   3.024  10.702   6.292 -1.5506  0.6386 -1.5733
  566MOL0     H76361   2.978  10.323   6.317  1.7043  0.6851  1.2930
  566MOL0     H76362   2.893  10.186   6.527  1.8617  1.0930 -0.1213
  566MOL0     H76363   2.875  10.265   6.676  1.0301  1.0742 -0.0363
  566MOL0     H76364   2.641  10.331   6.626  0.1023  1.1860 -1.6537
  566MOL0     H76365   2.660  10.289   6.462 -0.8621 -1.4254  0.2238
  566MOL0     H76366   2.699  10.077   6.681  0.0742  1.9388  1.2328
  566MOL0     H76367   2.669  10.049   6.504 -2.6605  0.2461 -0.7427
  566MOL0     H76368   2.484  10.172   6.701  1.5878  0.5589  0.1420
  566MOL0     H76369   2.478  10.000   6.638 -1.3893 -0.1712 -1.8785
  566MOL0     H76370   2.324  10.344   6.386 -0.4500 -1.0548 -1.5180
  566MOL0     H76371   2.092  10.397   6.367  2.7816  1.5249  0.4208
  566MOL0     H76372   1.796  10.645   6.384  0.1754 -0.4523  1.0084
  566MOL0     H76373   1.587  10.748   6.389 -0.0047 -0.2475  2.3722
  566MOL0     H76374   1.201  10.513   6.371  0.5839  0.1641  0.4484
  566MOL0     H76375   1.225  10.514   6.547  1.0506 -1.3563 -0.2666
  566MOL0     H76376   1.098  10.710   6.572 -1.8464  1.2490 -1.1986
  566MOL0     H76377   1.108  10.757   6.408 -0.1751  0.5663  1.3087
  566MOL0     H76378   0.873  10.679   6.448  0.3991  0.3824  0.6602
  566MOL0     H76379   0.954  10.548   6.358  2.2441  2.5792 -0.3994
  566MOL0     H76380   0.915  10.553   6.659  0.2666 -0.7272 -0.0472
  566MOL0     H76381   0.984  10.426   6.565 -1.5119 -0.3277  0.4452
  566MOL0     H76382   0.767  10.343   6.595  0.8682 -1.5413 -1.5666
  566MOL0     H76383   0.770  10.403   6.438  0.9350 -1.3013  0.8803
  566MOL0     H76384   0.668  10.638   6.531  2.4063  0.2834 -0.6185
  566MOL0     H76385   0.571  10.495   6.535  1.2424 -1.6223  0.5681
  566MOL0     H76386   0.714  10.634   6.757 -1.0561  1.2011 -0.8067
  566MOL0     H76387   0.698  10.472   6.794 -0.5792  0.9915  1.9453
  566MOL0     H76388   0.502  10.579   6.887  0.6010  3.1347 -0.1934
  566MOL0     H76389   0.474  10.662   6.736  3.8138  1.3063  0.8526
  566MOL0     H76390   1.392  10.363   6.443  0.5693 -0.4532  1.4249
  566MOL0     H76391   1.589  10.260   6.444 -0.5718  0.4041  1.9575
  566MOL0     H76392   1.991  10.087   6.641 -0.7774  0.9825 -1.4934
  566MOL0     H76393   2.234  10.010   6.645 -1.7927 -0.6817 -0.5056
  566MOL0     H76394   2.234  11.095   5.720  0.8153 -0.8400  2.0803
  566MOL0     H76395   2.084  11.185   5.550 -1.1264 -1.2938 -2.8622
  566MOL0     H76396   1.781  10.852   5.230  0.9742 -0.0485  0.7866
  566MOL0     H76397   1.559  10.798   5.117  1.0597  1.1969 -2.3908
  566MOL0     H76398   1.326  10.739   5.160 -1.2471  1.5038  0.8998
  566MOL0     H76399   1.363  10.808   4.990 -2.2352  1.1386 -1.9490
  566MOL0     H76400   1.165  10.873   4.958  2.4905  0.4950  1.2084
  566MOL0     H76401   1.094  10.823   5.111  0.8819  3.4503  0.8061
  566MOL0     H76402   1.166  10.580   5.061 -0.2206 -0.9688 -1.5900
  566MOL0     H76403   1.203  10.631   4.898  0.1778 -3.2780  0.8855
  566MOL0     H76404   0.987  10.503   4.951 -0.4492  0.1535 -0.6184
  566MOL0     H76405   0.955  10.633   5.062 -0.2546  1.6792 -0.5509
  566MOL0     H76406   0.866  10.790   4.657  2.4611  1.2744 -0.3887
  566MOL0     H76407   1.399  11.163   5.272  1.4613  1.6215 -0.6302
  566MOL0     H76408   1.564  11.239   5.500 -0.3786  1.0053 -0.2946
  566MOL0     H76409   1.703  11.300   5.398  0.5028  0.3818  1.3682
  566MOL0     H76410   1.552  11.342   5.365  2.4695  1.7341  0.6783
  567MOL0     O76411   7.780   2.008   4.431 -0.1066 -0.1873 -0.3941
  567MOL0     C76412   7.781   1.886   4.433 -0.3916 -0.3453  0.0429
  567MOL0     O76413   7.894   1.802   4.441  0.1203 -0.3263 -0.4052
  567MOL0     C76414   8.015   1.861   4.463  0.2716  0.1239  0.5762
  567MOL0     C76415   8.087   1.828   4.584  0.0598 -0.1654  0.7571
  567MOL0     C76416   8.210   1.893   4.609 -0.5176  0.1438  0.5234
  567MOL0     C76417   8.259   1.989   4.517  0.1330  0.0416 -0.0951
  567MOL0     O76418   8.372   2.068   4.540 -0.7649 -0.2911  0.3232
  567MOL0     C76419   8.445   2.050   4.663 -0.7808 -0.5391  0.5738
  567MOL0     C76420   8.565   2.151   4.656  0.3580 -1.1662  0.7503
  567MOL0     C76421   8.678   2.110   4.751 -0.8245 -0.9330  0.6620
  567MOL0     C76422   8.809   2.205   4.732  1.0340  1.2680 -0.1633
  567MOL0     C76423   8.908   2.169   4.842  0.5425 -0.0050  0.3346
  567MOL0     C76424   9.024   2.278   4.834 -0.4764  0.3326  0.0716
  567MOL0     C76425   9.142   2.236   4.919 -0.3749  0.7384 -0.0806
  567MOL0     C76426   9.125   2.238   5.071 -0.3354 -0.4334 -1.0605
  567MOL0     N76427   9.253   2.246   5.136 -0.7219 -0.5431  0.6769
  567MOL0     C76428   9.314   2.150   5.219 -0.6677  0.5292 -0.3741
  567MOL0     C76429   9.424   2.210   5.268  0.1997 -0.3642  0.7903
  567MOL0     C76430   9.515   2.134   5.360  1.0505 -0.1804  0.3834
  567MOL0     C76431   9.656   2.136   5.318 -0.5904 -0.5600  0.9772
  567MOL0     C76432   9.689   2.062   5.178  0.8812  0.4601 -0.8815
  567MOL0     C76433   9.838   2.051   5.140  0.6995  0.7706 -0.4054
  567MOL0     O76434   9.897   1.969   5.235 -0.2822  0.2609  0.0836
  567MOL0     C76435  10.003   2.033   5.297  0.4916 -0.2090  0.0588
  567MOL0     C76436   9.994   2.050   5.432  0.9003 -0.4504 -0.9354
  567MOL0     C76437  10.095   2.100   5.512 -0.2300 -0.0314 -0.1908
  567MOL0     C76438  10.220   2.130   5.456  0.4276  0.8650  0.3753
  567MOL0     C76439  10.334   2.173   5.533  0.5492 -0.0337 -0.1519
  567MOL0     O76440  10.450   2.175   5.468  0.0839  0.4498  0.5824
  567MOL0     C76441  10.559   2.237   5.522  0.5581 -0.2640  0.6404
  567MOL0     C76442  10.549   2.373   5.570  0.3907 -0.7086  1.0225
  567MOL0     C76443  10.657   2.441   5.620 -0.5804  0.8281 -0.0624
  567MOL0     C76444  10.778   2.383   5.616  0.0771  0.0084 -0.4942
  567MOL0     O76445  10.887   2.452   5.668  0.7377 -0.2977  0.0404
  567MOL0     C76446  10.927   2.573   5.590 -0.8455  0.9990  0.8446
  567MOL0     C76447  11.066   2.615   5.624 -0.4767 -0.1210 -0.1598
  567MOL0     C76448  11.106   2.734   5.546 -0.7693 -0.6793  1.0715
  567MOL0     C76449  11.259   2.752   5.556  0.7929 -0.8556  0.7683
  567MOL0     C76450  11.326   2.879   5.490 -0.7717 -0.1215 -0.4902
  567MOL0     C76451  11.292   3.001   5.559  0.2931 -0.4829 -0.6396
  567MOL0     C76452  11.403   3.105   5.540 -0.5625  0.3522 -0.1596
  567MOL0     C76453  11.372   3.235   5.619 -0.5364 -0.2412 -0.5356
  567MOL0    Cl76454  11.485   3.361   5.589 -0.0544 -0.0350  0.0314
  567MOL0     C76455  10.792   2.252   5.568 -0.4166  0.0585  0.4675
  567MOL0     C76456  10.684   2.180   5.525  0.0647  0.9787 -0.8509
  567MOL0     O76457  10.315   2.209   5.652  0.0878 -0.1740  0.6541
  567MOL0     C76458  10.232   2.111   5.309  0.1661 -0.2473  0.2143
  567MOL0     C76459  10.119   2.060   5.228 -0.0297 -0.4336 -1.0014
  567MOL0     N76460   9.422   2.348   5.209  0.2505 -0.3315 -0.0669
  567MOL0     N76461   9.321   2.361   5.138 -0.3525 -0.2041 -1.1618
  567MOL0     C76462   8.194   2.010   4.391 -0.0994  0.2751  0.0035
  567MOL0     C76463   8.068   1.950   4.373  0.5049  1.3745  0.8040
  567MOL0     C76464   7.652   1.812   4.426  0.6758  0.1406  0.0673
  567MOL0     C76465   7.567   1.839   4.321 -0.2628  0.1154 -0.2363
  567MOL0     C76466   7.450   1.761   4.305 -0.0525 -0.3923 -0.4184
  567MOL0     C76467   7.415   1.659   4.398 -0.4735  0.4197 -0.3921
  567MOL0     O76468   7.308   1.579   4.390  0.0146  0.5234  0.0820
  567MOL0     C76469   7.211   1.607   4.285 -0.6442 -0.4777  0.8263
  567MOL0     C76470   7.094   1.518   4.288  0.7321 -0.2197  0.2885
  567MOL0     C76471   7.119   1.366   4.258 -0.1169  0.2090 -0.5324
  567MOL0     C76472   7.000   1.279   4.234  0.4469  0.4722  0.4873
  567MOL0     C76473   6.921   1.331   4.122  0.5465 -0.7225  0.4189
  567MOL0     C76474   6.846   1.372   4.031 -0.5573  0.6124  0.1289
  567MOL0     C76475   7.504   1.634   4.504 -0.2232 -0.7872  0.4527
  567MOL0     C76476   7.618   1.718   4.524 -0.5606  1.2040  0.1145
  567MOL0     C76477   7.700   1.679   4.642 -0.1342 -0.1265 -0.1169
  567MOL0     H76478   8.042   1.756   4.653 -1.1787 -0.6079 -0.4781
  567MOL0     H76479   8.274   1.877   4.695  1.2370 -2.7960 -1.1642
  567MOL0     H76480   8.387   2.076   4.751  0.1104 -0.5234  1.1752
  567MOL0     H76481   8.473   1.945   4.650  0.5026 -0.2054  0.4914
  567MOL0     H76482   8.529   2.248   4.694  0.9188  0.0742 -1.7252
  567MOL0     H76483   8.604   2.159   4.555 -1.2498 -2.1506  0.0075
  567MOL0     H76484   8.706   2.006   4.731  1.9520  0.0541 -1.1588
  567MOL0     H76485   8.648   2.114   4.856 -1.9768  0.4735  0.3056
  567MOL0     H76486   8.847   2.192   4.631 -1.4942  0.7815 -1.1313
  567MOL0     H76487   8.776   2.306   4.758 -0.0477  0.7870  0.4333
  567MOL0     H76488   8.858   2.164   4.939  1.5876  1.0161  0.9527
  567MOL0     H76489   8.950   2.070   4.823  1.6810  0.2946  1.1262
  567MOL0     H76490   9.058   2.282   4.730 -3.4618 -0.3319 -1.0416
  567MOL0     H76491   8.984   2.376   4.860 -1.0198  0.4059 -0.9783
  567MOL0     H76492   9.215   2.315   4.899  0.4009  0.2844  0.8779
  567MOL0     H76493   9.173   2.136   4.888 -1.8508  0.7535 -1.7928
  567MOL0     H76494   9.059   2.318   5.106 -1.2308 -1.1712 -1.0120
  567MOL0     H76495   9.080   2.146   5.110 -2.7091  2.2953  3.4118
  567MOL0     H76496   9.282   2.047   5.237 -0.2737  0.8752  2.8033
  567MOL0     H76497   9.512   2.162   5.466 -0.7415 -0.1318  0.3526
  567MOL0     H76498   9.471   2.035   5.352 -3.6487  1.5839  1.1844
  567MOL0     H76499   9.688   2.239   5.302  0.5147 -0.7680  1.7476
  567MOL0     H76500   9.718   2.106   5.402 -1.1546 -2.1994  0.8488
  567MOL0     H76501   9.639   2.115   5.097  0.7027  1.0270 -0.4116
  567MOL0     H76502   9.639   1.965   5.169  2.6419 -0.2926 -3.3709
  567MOL0     H76503   9.874   2.154   5.146 -1.9339  1.7047  4.1225
  567MOL0     H76504   9.850   2.010   5.039  0.6969 -1.5476  0.4809
  567MOL0     H76505   9.896   2.043   5.477  0.2448 -2.2808 -2.5328
  567MOL0     H76506  10.080   2.109   5.619  1.8254  0.9684  0.0739
  567MOL0     H76507  10.455   2.422   5.546 -0.2395 -1.6238  1.5383
  567MOL0     H76508  10.652   2.545   5.650  0.1083  0.7285  0.4008
  567MOL0     H76509  10.931   2.552   5.483 -1.6382  0.3460  0.9363
  567MOL0     H76510  10.861   2.658   5.612 -2.7620 -1.0086  3.5304
  567MOL0     H76511  11.073   2.651   5.727 -2.2403  0.4083 -0.1830
  567MOL0     H76512  11.128   2.526   5.607  0.3927  0.6551 -1.1438
  567MOL0     H76513  11.070   2.723   5.443 -3.7799 -1.9273  2.1442
  567MOL0     H76514  11.054   2.823   5.583 -1.8833 -1.0133  0.3621
  567MOL0     H76515  11.304   2.668   5.503 -1.5586 -3.1430  2.1186
  567MOL0     H76516  11.287   2.739   5.661 -2.6107 -2.2147  1.6539
  567MOL0     H76517  11.287   2.883   5.388  0.3332 -0.4085 -0.9385
  567MOL0     H76518  11.433   2.857   5.479 -0.6947  0.1863 -0.3541
  567MOL0     H76519  11.197   3.037   5.517 -0.3300 -0.2493  0.8999
  567MOL0     H76520  11.282   2.981   5.666  2.1164  1.7992  0.0329
  567MOL0     H76521  11.411   3.111   5.431  0.0017 -0.7071 -0.1928
  567MOL0     H76522  11.501   3.070   5.574 -0.3612  1.5539  0.5635
  567MOL0     H76523  11.284   3.292   5.587  2.1672  4.3180 -0.7463
  567MOL0     H76524  11.357   3.221   5.727  0.2824 -2.4381 -0.6534
  567MOL0     H76525  10.894   2.214   5.570 -0.9768 -1.5008  0.3406
  567MOL0     H76526  10.682   2.078   5.486 -0.1630 -0.5157  2.6677
  567MOL0     H76527  10.327   2.138   5.264  0.9136  0.5734  2.2031
  567MOL0     H76528  10.119   2.043   5.121  1.1836  3.1286 -1.7084
  567MOL0     H76529   8.242   2.087   4.332 -0.2921  0.4700  0.1030
  567MOL0     H76530   8.007   1.962   4.284  0.3288  1.1315  0.8897
  567MOL0     H76531   7.586   1.903   4.236  4.7536 -1.6902 -0.8107
  567MOL0     H76532   7.396   1.764   4.211  1.2403  0.4111 -1.1596
  567MOL0     H76533   7.246   1.606   4.181 -3.9673 -2.7974 -0.4571
  567MOL0     H76534   7.182   1.711   4.303 -0.7340  0.0060 -1.7467
  567MOL0     H76535   7.031   1.556   4.207  0.5314 -0.8840  0.1238
  567MOL0     H76536   7.047   1.530   4.386  0.1504 -1.2043  0.1488
  567MOL0     H76537   7.172   1.316   4.339 -1.1845  0.0340  0.0764
  567MOL0     H76538   7.186   1.376   4.173  2.5894  2.0532  1.6535
  567MOL0     H76539   7.034   1.177   4.213 -0.3200  0.3737 -0.3615
  567MOL0     H76540   6.936   1.271   4.322 -1.1490 -2.0329 -0.7563
  567MOL0     H76541   6.782   1.414   3.956  0.2569 -0.1163 -1.0210
  567MOL0     H76542   7.491   1.562   4.584 -0.6411  0.5869  1.6592
  567MOL0     H76543   7.637   1.630   4.716 -1.6354 -2.1654 -2.5674
  567MOL0     H76544   7.770   1.600   4.611 -1.9866 -1.1330 -1.9575
  567MOL0     H76545   7.754   1.763   4.687 -0.2197 -0.1149 -0.0354
  568MOL0     O76546   7.653   0.045   0.354  0.0163  0.3788  0.6729
  568MOL0     C76547   7.611  -0.063   0.376 -0.5643 -0.2966 -0.0985
  568MOL0     O76548   7.693  -0.168   0.413  0.0322  0.4651 -0.1677
  568MOL0     C76549   7.815  -0.146   0.467  0.1122  0.1186 -0.2029
  568MOL0     C76550   7.856  -0.202   0.586  0.6942 -0.4815 -0.6409
  568MOL0     C76551   7.997  -0.217   0.616  0.0492 -0.3528 -0.1181
  568MOL0     C76552   8.090  -0.161   0.543 -0.7588 -0.7505 -0.3562
  568MOL0     O76553   8.218  -0.177   0.586 -0.0389 -0.0937 -0.4175
  568MOL0     C76554   8.330  -0.111   0.517  0.8218 -0.3564 -1.1387
  568MOL0     C76555   8.464  -0.132   0.581  0.1645 -0.2214 -0.5148
  568MOL0     C76556   8.572  -0.030   0.534 -0.0292 -0.2613 -0.2145
  568MOL0     C76557   8.617  -0.061   0.392  0.8982 -0.3842 -0.3806
  568MOL0     C76558   8.704   0.051   0.326 -0.3102 -0.3518 -0.4705
  568MOL0     C76559   8.850   0.057   0.377  0.4452 -0.2448  0.9204
  568MOL0     C76560   8.932   0.160   0.297  0.2887 -0.2083 -0.6448
  568MOL0     C76561   9.087   0.123   0.319 -0.1473 -0.6251 -0.3989
  568MOL0     N76562   9.143   0.009   0.248  0.6335 -0.0147 -0.4565
  568MOL0     C76563   9.137  -0.120   0.301 -0.0409 -0.6330  0.2666
  568MOL0     C76564   9.220  -0.191   0.224  0.3750 -0.2564 -0.8848
  568MOL0     C76565   9.231  -0.348   0.248 -0.6547  0.3702  0.2414
  568MOL0     C76566   9.102  -0.411   0.205  0.3037 -0.1529 -0.8833
  568MOL0     C76567   9.132  -0.557   0.166  0.8516  0.0984  0.7654
  568MOL0     C76568   9.180  -0.638   0.280  0.9284  0.0412 -0.2651
  568MOL0     O76569   9.212  -0.763   0.221 -0.4533 -0.4106  0.5118
  568MOL0     C76570   9.343  -0.798   0.236  0.0056  0.0256  0.1309
  568MOL0     C76571   9.443  -0.742   0.158 -0.4547  0.2695 -0.0717
  568MOL0     C76572   9.579  -0.768   0.199 -0.5390  0.8543  0.6500
  568MOL0     C76573   9.616  -0.849   0.302 -0.1609  0.1912  0.0004
  568MOL0     C76574   9.758  -0.852   0.342 -0.2600  0.7241 -0.4858
  568MOL0     O76575   9.835  -0.745   0.300 -0.5080  0.2417  0.8281
  568MOL0     C76576   9.966  -0.746   0.335 -0.2648 -0.0191  0.3083
  568MOL0     C76577  10.063  -0.713   0.235 -0.3530  0.5044 -0.4878
  568MOL0     C76578  10.197  -0.707   0.273 -0.4827  0.6992  0.6613
  568MOL0     C76579  10.243  -0.727   0.404 -0.1784  0.5016 -0.0295
  568MOL0     O76580  10.377  -0.705   0.425  0.1576  0.3247  0.7837
  568MOL0     C76581  10.435  -0.790   0.524  0.4738  0.7741 -0.4421
  568MOL0     C76582  10.592  -0.765   0.549 -0.2513  0.7805 -0.5570
  568MOL0     C76583  10.682  -0.774   0.433  0.4489 -0.1615 -0.9572
  568MOL0     C76584  10.824  -0.761   0.465 -0.1297  0.0454  0.0170
  568MOL0     C76585  10.897  -0.748   0.332 -0.7937 -0.6483 -0.0394
  568MOL0     C76586  11.045  -0.720   0.351  0.1009 -0.5133  0.0887
  568MOL0     C76587  11.110  -0.732   0.203 -0.1573  0.3092 -0.3398
  568MOL0     C76588  11.252  -0.690   0.225 -0.9364 -0.5641  0.1864
  568MOL0    Cl76589  11.280  -0.524   0.265  0.4410 -0.1659  0.2801
  568MOL0     C76590  10.147  -0.760   0.501 -0.2337 -0.3582  0.2930
  568MOL0     C76591  10.013  -0.775   0.464 -0.1443 -0.7642 -0.3885
  568MOL0     O76592   9.802  -0.952   0.394 -0.4611  0.1518  0.8953
  568MOL0     C76593   9.514  -0.916   0.369  0.2879 -0.1608  0.7572
  568MOL0     C76594   9.378  -0.879   0.339 -0.7404 -0.1056 -0.2319
  568MOL0     N76595   9.284  -0.107   0.136 -0.3091 -0.6708 -0.2121
  568MOL0     N76596   9.235   0.014   0.150 -0.3876  0.4145  0.3581
  568MOL0     C76597   8.048  -0.100   0.422 -1.0109  0.6594  0.2627
  568MOL0     C76598   7.917  -0.108   0.377 -0.3789  0.1668  0.3468
  568MOL0     C76599   7.466  -0.082   0.358 -1.0011  0.2024 -0.4643
  568MOL0     C76600   7.416  -0.219   0.376  0.1501  0.1124 -0.1663
  568MOL0     C76601   7.286  -0.257   0.354  0.2406  0.6849 -0.5586
  568MOL0     C76602   7.191  -0.166   0.311 -0.2457 -0.2419  0.1540
  568MOL0     O76603   7.069  -0.220   0.273 -0.4128  0.4731 -0.3903
  568MOL0     C76604   6.958  -0.127   0.245  0.3317 -0.2058  0.1892
  568MOL0     C76605   6.872  -0.106   0.369 -0.6574  0.3326  0.2814
  568MOL0     C76606   6.834  -0.237   0.446  0.5054 -0.3613  0.0374
  568MOL0     C76607   6.696  -0.219   0.510 -0.1919 -0.1150 -1.3114
  568MOL0     C76608   6.581  -0.237   0.419 -0.7996 -0.2589 -0.0849
  568MOL0     C76609   6.481  -0.239   0.352  0.1245 -0.3415 -0.0798
  568MOL0     C76610   7.232  -0.027   0.291 -0.1613  0.6758 -0.1292
  568MOL0     C76611   7.366   0.008   0.316 -0.7771 -0.3693  0.6643
  568MOL0     C76612   7.379   0.149   0.287 -0.5277 -0.7382  1.0607
  568MOL0     H76613   7.782  -0.253   0.647  2.8691 -3.0164  0.0516
  568MOL0     H76614   8.033  -0.258   0.710  0.0500  0.0607  0.0685
  568MOL0     H76615   8.329  -0.174   0.428 -0.8152 -3.4619  0.8601
  568MOL0     H76616   8.306  -0.005   0.518 -0.4612 -0.5635  1.8783
  568MOL0     H76617   8.507  -0.233   0.580 -1.7605 -1.0683 -0.9574
  568MOL0     H76618   8.457  -0.122   0.690  1.1003 -4.2768  0.0719
  568MOL0     H76619   8.655  -0.038   0.605  2.3255 -1.2098 -2.9052
  568MOL0     H76620   8.535   0.073   0.528 -1.7245 -0.6491  2.0706
  568MOL0     H76621   8.658  -0.162   0.394 -0.4664 -1.0349 -2.3014
  568MOL0     H76622   8.529  -0.062   0.327 -0.4545 -0.0564  1.3561
  568MOL0     H76623   8.713   0.032   0.219  2.1560 -1.8951 -0.0541
  568MOL0     H76624   8.656   0.149   0.340 -1.2092 -0.4732 -2.4459
  568MOL0     H76625   8.852   0.080   0.484 -0.3557 -0.2158  0.9357
  568MOL0     H76626   8.885  -0.044   0.353  1.1897 -0.0381  1.1241
  568MOL0     H76627   8.920   0.260   0.339  1.2465 -1.6922  3.6484
  568MOL0     H76628   8.909   0.159   0.190 -0.5623  2.7439 -0.5733
  568MOL0     H76629   9.140   0.208   0.274 -1.7007  0.9781  0.6371
  568MOL0     H76630   9.106   0.107   0.425  2.1162  0.2714 -0.6100
  568MOL0     H76631   9.077  -0.152   0.386  0.2044 -0.6559  0.4335
  568MOL0     H76632   9.312  -0.391   0.189 -0.5677 -0.7745  1.1623
  568MOL0     H76633   9.252  -0.366   0.354 -1.3835  0.8285  0.4685
  568MOL0     H76634   9.033  -0.404   0.290  2.2826  0.3466  0.7432
  568MOL0     H76635   9.056  -0.352   0.125 -0.5462 -1.1165 -1.1230
  568MOL0     H76636   9.206  -0.556   0.085  0.2927  0.8808  0.2518
  568MOL0     H76637   9.042  -0.603   0.124  1.5400 -1.8207  1.2871
  568MOL0     H76638   9.108  -0.656   0.361  0.7630  1.1372 -0.1548
  568MOL0     H76639   9.269  -0.598   0.330  0.7107 -0.3800  0.4911
  568MOL0     H76640   9.425  -0.674   0.075  0.3966  2.6697  1.5866
  568MOL0     H76641   9.661  -0.725   0.142  0.5615 -2.2545 -0.3191
  568MOL0     H76642  10.028  -0.709   0.132 -3.0875  0.6551  0.3731
  568MOL0     H76643  10.270  -0.675   0.199 -1.7877 -1.4804 -1.7398
  568MOL0     H76644  10.375  -0.788   0.615 -0.6968  0.5703 -1.1926
  568MOL0     H76645  10.420  -0.892   0.488 -1.4316  1.5666 -2.0531
  568MOL0     H76646  10.614  -0.674   0.605  2.8227 -0.5905  0.6592
  568MOL0     H76647  10.624  -0.848   0.613  1.5343  0.5751 -1.6431
  568MOL0     H76648  10.668  -0.864   0.373  2.1093 -0.7940 -0.4584
  568MOL0     H76649  10.657  -0.685   0.375  3.6835  1.1936 -0.4686
  568MOL0     H76650  10.857  -0.856   0.509  0.7964 -0.2313 -1.1996
  568MOL0     H76651  10.850  -0.685   0.539  1.0213 -1.6388  1.4309
  568MOL0     H76652  10.854  -0.666   0.273  0.7488  1.4218  1.5388
  568MOL0     H76653  10.886  -0.844   0.282  1.3329  0.1843 -2.3138
  568MOL0     H76654  11.058  -0.619   0.390 -1.3320 -0.2486 -0.0882
  568MOL0     H76655  11.093  -0.794   0.416 -1.1788  0.2480  1.9689
  568MOL0     H76656  11.057  -0.662   0.139 -0.7427  0.7198  0.5715
  568MOL0     H76657  11.098  -0.830   0.157  1.0075  0.6013 -1.3047
  568MOL0     H76658  11.301  -0.743   0.307  1.2547  2.7706  1.2419
  568MOL0     H76659  11.310  -0.717   0.136 -0.6777  1.3068 -0.2440
  568MOL0     H76660  10.174  -0.774   0.605 -0.4863 -1.4618  0.2196
  568MOL0     H76661   9.938  -0.795   0.540  0.7188  0.3385  0.7992
  568MOL0     H76662   9.538  -0.979   0.454 -2.5226 -3.2587 -0.4935
  568MOL0     H76663   9.300  -0.929   0.395  0.5970  0.7267  2.5413
  568MOL0     H76664   8.121  -0.052   0.357  0.6092 -0.9353  0.8041
  568MOL0     H76665   7.897  -0.077   0.275 -1.2972 -0.5519  0.2981
  568MOL0     H76666   7.490  -0.295   0.399  0.1135 -0.0479 -0.5685
  568MOL0     H76667   7.262  -0.362   0.354 -0.5081  0.8553 -0.4774
  568MOL0     H76668   6.894  -0.172   0.168 -1.3086  2.2185  0.0040
  568MOL0     H76669   6.992  -0.030   0.209  2.1536  0.5786  3.5419
  568MOL0     H76670   6.782  -0.053   0.339 -0.7998 -0.2842 -0.3877
  568MOL0     H76671   6.937  -0.042   0.430  1.0581  2.1157 -3.1240
  568MOL0     H76672   6.898  -0.263   0.531  0.3905 -0.2914  0.1448
  568MOL0     H76673   6.822  -0.313   0.368 -1.2496  0.3495 -0.4301
  568MOL0     H76674   6.681  -0.295   0.587  1.6447 -1.4848 -2.2398
  568MOL0     H76675   6.695  -0.123   0.562  1.3830 -0.0034 -1.4555
  568MOL0     H76676   6.391  -0.239   0.293 -0.4746 -0.0378  0.8214
  568MOL0     H76677   7.161   0.049   0.261 -0.4990  1.6913  2.8861
  568MOL0     H76678   7.479   0.192   0.299 -0.6189 -0.2798  0.2283
  568MOL0     H76679   7.344   0.175   0.187  0.3810  1.4657  1.2471
  568MOL0     H76680   7.324   0.206   0.363 -1.1737  1.0244 -0.6477
  569MOL0     O76681   5.552   6.273   0.498 -0.1633  0.3407 -0.0851
  569MOL0     C76682   5.573   6.170   0.433 -0.1349  0.0545 -0.6100
  569MOL0     O76683   5.694   6.116   0.409  0.1176  0.4516 -0.3289
  569MOL0     C76684   5.809   6.177   0.457 -0.2578 -0.0089  0.6046
  569MOL0     C76685   5.916   6.187   0.367 -0.1037 -0.4161 -0.3155
  569MOL0     C76686   6.038   6.256   0.395  0.3644 -0.0760  0.0616
  569MOL0     C76687   6.065   6.306   0.524 -0.1165  0.3159 -0.2314
  569MOL0     O76688   6.186   6.360   0.576 -0.1536  0.1602 -0.7772
  569MOL0     C76689   6.304   6.332   0.508  0.2840 -0.5552 -0.2350
  569MOL0     C76690   6.427   6.361   0.597 -0.9993 -0.3182  0.5489
  569MOL0     C76691   6.552   6.391   0.515  0.1573 -0.4116  0.4122
  569MOL0     C76692   6.683   6.408   0.595 -0.5951 -0.1938 -1.3296
  569MOL0     C76693   6.743   6.269   0.616 -0.4898 -0.0121  0.4303
  569MOL0     C76694   6.868   6.268   0.716  0.5087 -0.1150  0.4218
  569MOL0     C76695   6.978   6.170   0.671  0.4320  0.1744 -0.0944
  569MOL0     C76696   7.083   6.144   0.776 -0.4519 -0.0334 -0.2271
  569MOL0     N76697   7.025   6.078   0.887  0.3390 -0.5982  0.2643
  569MOL0     C76698   6.993   5.940   0.881  0.5842 -0.0433  1.0291
  569MOL0     C76699   6.951   5.912   1.004  1.3684 -0.4579 -0.0381
  569MOL0     C76700   6.921   5.781   1.068  0.5655 -0.5555 -0.6826
  569MOL0     C76701   6.783   5.739   1.085  0.9794 -0.3223 -1.0076
  569MOL0     C76702   6.762   5.595   1.134 -0.4190  0.3254 -0.6177
  569MOL0     C76703   6.619   5.549   1.086 -0.9485 -0.2845 -0.2133
  569MOL0     O76704   6.522   5.634   1.152 -0.0906  0.3307 -0.8978
  569MOL0     C76705   6.389   5.607   1.139  0.7260  0.0152  0.2232
  569MOL0     C76706   6.300   5.705   1.192 -0.1639 -0.5288 -0.3725
  569MOL0     C76707   6.156   5.696   1.190 -0.0283  0.2853 -0.1470
  569MOL0     C76708   6.096   5.578   1.138  0.4673  0.0646  0.3689
  569MOL0     C76709   5.946   5.558   1.129  0.2271 -0.4866 -0.1329
  569MOL0     O76710   5.876   5.647   1.207 -0.1190 -0.1643 -0.2383
  569MOL0     C76711   5.738   5.646   1.207 -0.1030  0.6033 -0.1029
  569MOL0     C76712   5.675   5.684   1.326 -0.0898  0.4573  0.5158
  569MOL0     C76713   5.536   5.702   1.331 -1.3419 -0.0161  1.1564
  569MOL0     C76714   5.460   5.671   1.215  0.6743  0.4288  0.9049
  569MOL0     O76715   5.328   5.696   1.235 -0.6389 -0.7629  0.5993
  569MOL0     C76716   5.233   5.685   1.122 -0.0863  0.4015 -1.2952
  569MOL0     C76717   5.107   5.748   1.155  0.2459 -0.3987 -0.4007
  569MOL0     C76718   5.025   5.671   1.261 -0.0127 -0.0805 -0.8927
  569MOL0     C76719   4.914   5.761   1.330 -0.1466  0.6216 -0.1824
  569MOL0     C76720   4.838   5.676   1.432  0.6484  0.0610 -0.8188
  569MOL0     C76721   4.719   5.744   1.491 -0.6864 -0.1043  0.2909
  569MOL0     C76722   4.625   5.664   1.596  0.6722  0.4018 -0.5664
  569MOL0     C76723   4.524   5.754   1.674 -0.9814  0.1809 -0.3922
  569MOL0    Cl76724   4.416   5.858   1.575 -0.0590  0.0738  0.0727
  569MOL0     C76725   5.521   5.622   1.098  0.2632 -0.3206 -0.6154
  569MOL0     C76726   5.657   5.612   1.091  0.0745 -1.1132 -0.3912
  569MOL0     O76727   5.910   5.466   1.060 -0.3065 -0.3274 -0.1880
  569MOL0     C76728   6.188   5.481   1.085  1.0671  0.7226 -0.4188
  569MOL0     C76729   6.333   5.493   1.090 -0.9787 -0.4584  0.7458
  569MOL0     N76730   6.945   6.030   1.083  0.1683 -0.2102 -0.1533
  569MOL0     N76731   6.997   6.123   1.017  0.8021  0.4242 -0.2766
  569MOL0     C76732   5.962   6.288   0.612  0.3157 -2.2795 -0.3388
  569MOL0     C76733   5.831   6.224   0.586 -0.2306  0.1222  0.0886
  569MOL0     C76734   5.452   6.097   0.393 -0.0234 -0.1232  0.5454
  569MOL0     C76735   5.354   6.092   0.492  0.4226  0.1102  0.4004
  569MOL0     C76736   5.241   6.017   0.478 -0.3358 -0.2411  0.6229
  569MOL0     C76737   5.215   5.953   0.349  0.2617  0.7899  0.4897
  569MOL0     O76738   5.098   5.892   0.318  0.2636  0.1608 -0.4646
  569MOL0     C76739   4.999   5.869   0.423 -0.4673 -0.4204  0.6218
  569MOL0     C76740   4.875   5.795   0.378 -0.0470 -0.9485  0.0433
  569MOL0     C76741   4.905   5.658   0.325 -0.1830  0.6291 -0.1134
  569MOL0     C76742   4.787   5.577   0.283 -0.2405 -0.3396 -0.0330
  569MOL0     C76743   4.679   5.572   0.381  0.2790 -0.1739  0.5153
  569MOL0     C76744   4.600   5.556   0.472  0.4806 -0.9793  0.2525
  569MOL0     C76745   5.310   5.966   0.244 -0.1148 -0.5409 -0.2422
  569MOL0     C76746   5.433   6.037   0.269 -0.0497  0.9407 -0.0055
  569MOL0     C76747   5.524   6.052   0.155 -0.4544 -0.2231  0.0680
  569MOL0     H76748   5.898   6.141   0.270  3.3139 -2.9640  0.0693
  569MOL0     H76749   6.111   6.249   0.316 -2.4148 -0.0271 -2.7246
  569MOL0     H76750   6.319   6.229   0.475  4.3327  0.5560 -2.4215
  569MOL0     H76751   6.311   6.397   0.421  1.4645  2.3935  1.8983
  569MOL0     H76752   6.446   6.277   0.664  2.7292  0.4216  0.6141
  569MOL0     H76753   6.403   6.453   0.650  0.3640 -0.2218  1.0254
  569MOL0     H76754   6.541   6.486   0.461  0.2458 -0.2215  0.7265
  569MOL0     H76755   6.556   6.313   0.439  0.1046 -1.0460  1.0442
  569MOL0     H76756   6.749   6.471   0.536  0.4071 -1.9686 -2.1920
  569MOL0     H76757   6.665   6.459   0.691  1.2157 -1.9438  0.0294
  569MOL0     H76758   6.669   6.192   0.638 -1.4422  0.6538 -0.3738
  569MOL0     H76759   6.784   6.245   0.517  1.1004  0.8495  0.8392
  569MOL0     H76760   6.914   6.367   0.725  1.1851 -0.5245  1.6673
  569MOL0     H76761   6.839   6.268   0.821  0.8396 -0.0221  0.5161
  569MOL0     H76762   7.042   6.194   0.585  0.8048 -0.7350 -0.0842
  569MOL0     H76763   6.925   6.077   0.652 -0.7380  0.7234  0.4350
  569MOL0     H76764   7.165   6.086   0.733  0.2932  0.7580  0.0930
  569MOL0     H76765   7.128   6.237   0.811 -3.5756  1.8507 -0.7758
  569MOL0     H76766   7.013   5.870   0.800 -0.9430  0.9921 -0.3133
  569MOL0     H76767   6.979   5.708   1.011  3.8100 -0.2693  1.9435
  569MOL0     H76768   6.969   5.786   1.166 -0.0471  1.3265 -0.4396
  569MOL0     H76769   6.742   5.800   1.166  1.9191 -1.4620  0.3667
  569MOL0     H76770   6.721   5.758   0.997 -0.0173  1.6447  0.0332
  569MOL0     H76771   6.773   5.593   1.243  0.5771  0.3515 -0.7103
  569MOL0     H76772   6.842   5.532   1.096 -1.2296 -0.2360 -1.4114
  569MOL0     H76773   6.599   5.446   1.118  2.3977 -0.2553  2.5684
  569MOL0     H76774   6.626   5.561   0.978  4.0425  2.0474  0.0552
  569MOL0     H76775   6.358   5.787   1.233  0.9135 -0.1168 -2.5824
  569MOL0     H76776   6.092   5.783   1.203  0.4794  0.3087  2.8271
  569MOL0     H76777   5.738   5.707   1.411  2.6795 -4.1457  0.0377
  569MOL0     H76778   5.500   5.729   1.430  2.4285 -0.8280  2.9584
  569MOL0     H76779   5.278   5.734   1.035  2.3926  1.0251  0.2350
  569MOL0     H76780   5.221   5.580   1.094  0.5200  0.1428 -0.6086
  569MOL0     H76781   5.132   5.846   1.197  0.6940  0.3717 -2.3458
  569MOL0     H76782   5.050   5.750   1.062 -0.0080  0.8016 -0.2463
  569MOL0     H76783   4.978   5.586   1.211  0.4189  1.3272 -3.9531
  569MOL0     H76784   5.090   5.635   1.342  1.9307  2.8063 -0.9740
  569MOL0     H76785   4.854   5.789   1.243 -0.3550  0.5391 -0.0637
  569MOL0     H76786   4.944   5.854   1.381  0.4753  0.0347  0.5377
  569MOL0     H76787   4.910   5.653   1.510 -0.3874 -0.2372  0.0650
  569MOL0     H76788   4.816   5.580   1.384  0.3654 -0.4966  0.3973
  569MOL0     H76789   4.751   5.821   1.561 -1.6210  0.5403  0.0405
  569MOL0     H76790   4.653   5.777   1.409 -1.5853 -2.0708  0.1625
  569MOL0     H76791   4.687   5.620   1.674 -1.4426 -1.1316  0.3586
  569MOL0     H76792   4.564   5.587   1.548 -0.9976  1.1891  0.1991
  569MOL0     H76793   4.464   5.683   1.731 -0.7137  0.1254 -0.1767
  569MOL0     H76794   4.586   5.819   1.737  0.1782  0.3169 -1.6356
  569MOL0     H76795   5.466   5.607   1.006  1.0700 -1.8919 -0.8927
  569MOL0     H76796   5.699   5.581   0.996  0.6837 -0.7631 -0.2422
  569MOL0     H76797   6.151   5.393   1.034 -2.2997  1.1352  1.0310
  569MOL0     H76798   6.401   5.417   1.053  0.8480  1.0984  0.7403
  569MOL0     H76799   5.975   6.328   0.712  0.0647 -0.7891 -0.8888
  569MOL0     H76800   5.745   6.235   0.651 -1.4623 -1.6327 -1.1496
  569MOL0     H76801   5.373   6.131   0.591 -1.0510  0.6546  0.4994
  569MOL0     H76802   5.167   6.011   0.557  0.1410  3.1839  1.5083
  569MOL0     H76803   4.968   5.960   0.474  0.6940 -0.0151  0.6325
  569MOL0     H76804   5.052   5.810   0.498  1.8956  2.2756  1.2301
  569MOL0     H76805   4.818   5.854   0.305  1.7573 -1.3379 -1.7788
  569MOL0     H76806   4.819   5.794   0.472  0.3538  0.5738  0.3281
  569MOL0     H76807   4.961   5.605   0.403  0.2270  0.6734 -0.3773
  569MOL0     H76808   4.968   5.670   0.236  0.6178 -0.8847  0.2004
  569MOL0     H76809   4.742   5.602   0.186 -0.0486  0.1148 -0.0072
  569MOL0     H76810   4.817   5.472   0.279  0.2595 -0.2597  1.2129
  569MOL0     H76811   4.534   5.554   0.556  2.1120 -0.2030  1.6167
  569MOL0     H76812   5.298   5.905   0.155  1.4735  0.3572 -1.1181
  569MOL0     H76813   5.497   5.965   0.094 -1.4702 -1.2874  1.9283
  569MOL0     H76814   5.498   6.139   0.095 -1.4208 -2.1513 -2.5029
  569MOL0     H76815   5.631   6.045   0.174 -0.5943 -0.7605  0.7377
  570MOL0     O76816  10.097   2.935   7.760 -0.1868  0.0145  0.0436
  570MOL0     C76817   9.982   2.925   7.815 -0.2088 -0.6396  0.3026
  570MOL0     O76818   9.958   2.887   7.942 -0.1222 -0.1597 -0.2530
  570MOL0     C76819  10.052   2.859   8.031  0.2204  0.1400  0.3172
  570MOL0     C76820  10.179   2.913   8.029 -0.6449  0.1349  0.1877
  570MOL0     C76821  10.278   2.870   8.125 -0.2780 -0.9863 -0.1854
  570MOL0     C76822  10.243   2.776   8.225 -0.4007 -0.2222 -0.3860
  570MOL0     O76823  10.336   2.754   8.334 -0.2659  0.6555  0.1705
  570MOL0     C76824  10.350   2.615   8.370 -0.4895 -0.2117 -0.2621
  570MOL0     C76825  10.488   2.571   8.334 -0.9520  0.0940  0.7810
  570MOL0     C76826  10.484   2.540   8.182 -0.7963 -0.1034 -0.4413
  570MOL0     C76827  10.612   2.454   8.138 -0.2724 -0.0278 -1.1335
  570MOL0     C76828  10.746   2.521   8.187  0.1866 -0.2042 -1.2602
  570MOL0     C76829  10.870   2.444   8.133 -0.7137 -0.3217  0.7950
  570MOL0     C76830  10.898   2.445   7.985 -0.2309  0.0815  0.4979
  570MOL0     C76831  10.988   2.325   7.953 -0.3386  0.2172 -0.1169
  570MOL0     N76832  11.132   2.341   7.993  0.1102  0.4282 -0.7353
  570MOL0     C76833  11.232   2.413   7.926 -0.5227  1.3525 -0.4544
  570MOL0     C76834  11.339   2.393   8.006  0.9467 -0.0348  0.2917
  570MOL0     C76835  11.473   2.445   7.974 -0.5606 -0.0328  0.3108
  570MOL0     C76836  11.519   2.401   7.832  0.0268 -0.5376  0.3947
  570MOL0     C76837  11.661   2.450   7.809 -0.0885 -0.0501  0.0489
  570MOL0     C76838  11.744   2.353   7.720 -0.2783  0.3309  0.2220
  570MOL0     O76839  11.860   2.434   7.677  0.0435  0.3836 -0.4336
  570MOL0     C76840  11.968   2.358   7.646 -0.2284 -0.6333  0.5827
  570MOL0     C76841  11.959   2.244   7.563 -0.5145  0.0814  0.2838
  570MOL0     C76842  12.071   2.162   7.536  0.1869  0.2968  0.0685
  570MOL0     C76843  12.197   2.195   7.586  0.4290 -0.3704  0.5406
  570MOL0     C76844  12.315   2.116   7.553  0.4672  0.2860 -0.4337
  570MOL0     O76845  12.440   2.153   7.578 -0.1060 -0.6771  0.0519
  570MOL0     C76846  12.540   2.088   7.512  0.5747 -0.2048  0.9114
  570MOL0     C76847  12.632   2.028   7.594 -1.2084 -0.1165  0.2671
  570MOL0     C76848  12.741   1.967   7.537 -0.4266 -0.1624 -0.0376
  570MOL0     C76849  12.761   1.981   7.397  0.4618  0.5321 -1.0129
  570MOL0     O76850  12.875   1.914   7.349 -0.0114 -0.3518 -0.1503
  570MOL0     C76851  12.891   1.894   7.208  0.2823  0.5576 -0.1174
  570MOL0     C76852  12.990   1.999   7.166 -0.7063  0.0964  0.1566
  570MOL0     C76853  13.134   1.978   7.226  1.0441 -0.3618 -0.4731
  570MOL0     C76854  13.222   2.104   7.220 -0.8037 -0.2222  0.7400
  570MOL0     C76855  13.366   2.057   7.259 -0.4740  0.0673  0.9787
  570MOL0     C76856  13.442   2.184   7.270  0.6897  0.1480 -0.0475
  570MOL0     C76857  13.581   2.139   7.303 -0.4109  0.5249 -0.5037
  570MOL0     C76858  13.672   2.260   7.344  0.6719  0.4497 -0.9444
  570MOL0    Cl76859  13.648   2.400   7.237  0.0423 -0.2985  0.1299
  570MOL0     C76860  12.667   2.043   7.315  0.0534 -0.7036 -0.5256
  570MOL0     C76861  12.550   2.087   7.381  0.8042 -0.9278  0.0936
  570MOL0     O76862  12.288   2.016   7.490  0.1503  0.0957  0.0463
  570MOL0     C76863  12.205   2.306   7.662 -0.5656  0.3496 -0.4403
  570MOL0     C76864  12.097   2.390   7.699  0.4978 -0.4577  0.3507
  570MOL0     N76865  11.309   2.309   8.109  0.5053 -0.0391  0.6118
  570MOL0     N76866  11.185   2.276   8.106 -0.1972  0.1790  0.5458
  570MOL0     C76867  10.113   2.728   8.229  0.3802 -0.1455 -0.2593
  570MOL0     C76868  10.019   2.776   8.140  0.2073  1.1301  0.1248
  570MOL0     C76869   9.867   2.980   7.737 -0.3261 -0.3086 -0.0518
  570MOL0     C76870   9.745   3.003   7.810 -0.1080 -0.1692  0.3032
  570MOL0     C76871   9.624   3.033   7.753 -0.5130  0.1478 -0.7206
  570MOL0     C76872   9.616   3.043   7.613  0.3850  0.6098 -0.4689
  570MOL0     O76873   9.507   3.073   7.546  0.0823  0.7054  0.0754
  570MOL0     C76874   9.395   3.140   7.613 -0.5602 -0.6563 -0.1064
  570MOL0     C76875   9.398   3.289   7.590 -0.2361  0.0729 -0.1756
  570MOL0     C76876   9.393   3.330   7.446  0.1241  0.2275  1.0934
  570MOL0     C76877   9.292   3.253   7.364  1.1302  0.1038  0.4206
  570MOL0     C76878   9.156   3.255   7.425 -0.4552  0.1951 -0.1997
  570MOL0     C76879   9.044   3.246   7.476 -0.0595  0.3265  0.1625
  570MOL0     C76880   9.734   3.024   7.539 -0.0366 -0.3311 -0.5783
  570MOL0     C76881   9.859   3.001   7.596 -0.2561 -0.6062  0.8002
  570MOL0     C76882   9.974   3.014   7.500 -0.2676 -0.6711 -0.0040
  570MOL0     H76883  10.219   2.984   7.957  1.6988 -0.7645  0.4884
  570MOL0     H76884  10.379   2.907   8.113  0.5135 -3.1619 -0.8216
  570MOL0     H76885  10.355   2.607   8.479  1.2480  0.5317 -0.2468
  570MOL0     H76886  10.277   2.538   8.345  0.5798 -1.1397 -0.5815
  570MOL0     H76887  10.509   2.478   8.389  0.2178  0.7945  1.5513
  570MOL0     H76888  10.557   2.650   8.366  0.2387 -1.4916  2.3836
  570MOL0     H76889  10.488   2.634   8.126  0.3141  0.8111  1.0753
  570MOL0     H76890  10.394   2.487   8.153 -1.7099  0.7899  0.6728
  570MOL0     H76891  10.602   2.351   8.174  0.1606 -0.3684 -1.9594
  570MOL0     H76892  10.608   2.437   8.030 -2.0874 -1.5935 -0.8801
  570MOL0     H76893  10.750   2.627   8.160  0.4570 -0.1540 -1.0293
  570MOL0     H76894  10.743   2.516   8.297 -1.1758  0.5325 -1.2406
  570MOL0     H76895  10.953   2.499   8.178  0.0186  0.6598 -1.6155
  570MOL0     H76896  10.857   2.340   8.165 -0.7336 -0.3994  0.5318
  570MOL0     H76897  10.938   2.543   7.958  0.2233  0.5663  2.7411
  570MOL0     H76898  10.806   2.422   7.931  2.0586 -2.3120 -2.8590
  570MOL0     H76899  10.952   2.238   8.009 -0.6401  0.6512  0.3807
  570MOL0     H76900  10.988   2.306   7.846 -0.7991 -1.6313  0.1755
  570MOL0     H76901  11.234   2.473   7.835 -1.0794  0.0101 -1.3911
  570MOL0     H76902  11.475   2.554   7.978  3.0071 -0.0365  3.0426
  570MOL0     H76903  11.542   2.404   8.048  0.2901 -1.7354 -1.3345
  570MOL0     H76904  11.508   2.294   7.813 -1.0742 -0.0963 -1.8785
  570MOL0     H76905  11.443   2.446   7.767 -0.2239  0.8118  1.5660
  570MOL0     H76906  11.712   2.452   7.906  1.1964 -0.0622 -0.5965
  570MOL0     H76907  11.664   2.553   7.771  3.7933 -0.8758 -2.4937
  570MOL0     H76908  11.696   2.321   7.627 -2.5717  2.7155  0.4770
  570MOL0     H76909  11.783   2.263   7.770 -2.7646 -1.2886 -0.5511
  570MOL0     H76910  11.869   2.220   7.507 -2.2368  2.0464  2.0086
  570MOL0     H76911  12.053   2.086   7.461  1.3071 -0.6665  0.7458
  570MOL0     H76912  12.622   2.049   7.700 -0.6710  1.4319  0.0332
  570MOL0     H76913  12.818   1.915   7.591  1.1811  3.1456  1.1355
  570MOL0     H76914  12.917   1.789   7.192 -1.7458 -0.3463  2.1085
  570MOL0     H76915  12.802   1.908   7.146 -0.3354 -1.2001  0.3207
  570MOL0     H76916  12.981   2.006   7.058 -2.3015 -0.6859  0.2085
  570MOL0     H76917  12.960   2.091   7.216  0.2447 -0.0482  1.0554
  570MOL0     H76918  13.132   1.952   7.332 -0.2888  0.5224 -0.2592
  570MOL0     H76919  13.188   1.907   7.163  1.2755  0.3864 -1.1409
  570MOL0     H76920  13.195   2.180   7.294  1.7866  0.4642  1.0707
  570MOL0     H76921  13.218   2.148   7.119 -1.4222 -0.4627  0.6527
  570MOL0     H76922  13.405   1.996   7.177 -0.6624  0.4537  0.6021
  570MOL0     H76923  13.362   1.988   7.345 -3.1214 -1.9541 -0.5960
  570MOL0     H76924  13.447   2.229   7.170 -0.5018 -0.7905 -0.5610
  570MOL0     H76925  13.396   2.247   7.347 -0.7188  0.3101 -0.9714
  570MOL0     H76926  13.625   2.102   7.210 -1.1661  0.0645 -0.6869
  570MOL0     H76927  13.583   2.065   7.384  1.4745  1.3077  0.2300
  570MOL0     H76928  13.651   2.292   7.446 -0.9408  0.8879 -1.3803
  570MOL0     H76929  13.773   2.219   7.331  0.4460 -0.3403 -0.2981
  570MOL0     H76930  12.672   2.059   7.208 -1.6952  2.2213 -0.2962
  570MOL0     H76931  12.474   2.142   7.326 -0.3426 -1.3383  1.2177
  570MOL0     H76932  12.301   2.339   7.699 -1.1936  2.6231 -0.6887
  570MOL0     H76933  12.097   2.468   7.775 -3.3759 -0.1975  0.2805
  570MOL0     H76934  10.072   2.667   8.310  0.1100  1.3823  0.8094
  570MOL0     H76935   9.919   2.734   8.153  1.2362 -1.7808 -0.7298
  570MOL0     H76936   9.740   2.977   7.915 -1.4869  0.5125  0.4274
  570MOL0     H76937   9.537   3.032   7.819 -0.8703 -1.7755 -1.1564
  570MOL0     H76938   9.402   3.137   7.722  0.1139 -0.9589 -0.1480
  570MOL0     H76939   9.300   3.090   7.595  0.2501 -2.1207 -0.5084
  570MOL0     H76940   9.494   3.332   7.621  0.9582 -1.7551 -1.0822
  570MOL0     H76941   9.321   3.335   7.651  0.1431 -1.4142  1.5328
  570MOL0     H76942   9.486   3.302   7.395 -0.9631 -0.2562 -0.7158
  570MOL0     H76943   9.375   3.438   7.434  0.5796  0.0407 -2.3223
  570MOL0     H76944   9.284   3.289   7.262 -0.3059  0.0156  0.4822
  570MOL0     H76945   9.316   3.146   7.360  0.1182 -0.1752  1.1787
  570MOL0     H76946   8.946   3.234   7.516  0.1937 -1.4598  0.3247
  570MOL0     H76947   9.705   3.037   7.436 -0.7821 -0.0501 -0.3391
  570MOL0     H76948   9.938   3.043   7.401 -2.1379 -1.4675  0.3923
  570MOL0     H76949  10.039   3.097   7.530  0.4266 -1.7465  1.6592
  570MOL0     H76950  10.031   2.921   7.502 -0.3281 -0.6992  0.7783
  571MOL0     O76951   3.219   0.618   9.510 -0.4963 -0.3020 -0.5006
  571MOL0     C76952   3.188   0.551   9.409  0.2985  0.0844 -0.4202
  571MOL0     O76953   3.266   0.525   9.308 -0.3330  0.0075 -0.0158
  571MOL0     C76954   3.389   0.582   9.284 -1.0849 -0.1142 -0.5652
  571MOL0     C76955   3.464   0.531   9.179 -0.0758  0.2946  0.8241
  571MOL0     C76956   3.600   0.575   9.159 -1.3930  0.7168 -0.8745
  571MOL0     C76957   3.651   0.682   9.217 -0.5724  0.0753 -0.3788
  571MOL0     O76958   3.767   0.751   9.190  0.2362  0.0584  0.0658
  571MOL0     C76959   3.850   0.709   9.080  0.0576  0.1665 -0.2654
  571MOL0     C76960   3.903   0.833   9.012 -0.4484 -0.0399 -0.0600
  571MOL0     C76961   3.983   0.820   8.879  0.7404 -0.7165 -0.6908
  571MOL0     C76962   4.123   0.770   8.908 -0.2057 -0.3751 -0.0553
  571MOL0     C76963   4.197   0.725   8.782  0.6063  0.2087  1.1315
  571MOL0     C76964   4.337   0.677   8.814  0.3777 -0.1287  0.0805
  571MOL0     C76965   4.438   0.787   8.831 -0.4985  0.0884 -0.2677
  571MOL0     C76966   4.585   0.749   8.844 -0.0007 -0.3498  0.4683
  571MOL0     N76967   4.687   0.855   8.846  0.5574  0.1239  0.6740
  571MOL0     C76968   4.682   0.964   8.756 -0.6588  0.1516 -0.1682
  571MOL0     C76969   4.756   1.058   8.813 -0.3559 -0.7557  0.0968
  571MOL0     C76970   4.773   1.205   8.770  0.3485 -0.4466  0.2152
  571MOL0     C76971   4.912   1.236   8.726 -0.1258  0.1635 -0.0360
  571MOL0     C76972   5.000   1.278   8.852 -0.8233 -0.4342  0.1262
  571MOL0     C76973   5.154   1.293   8.820 -0.0825  1.0986  0.1031
  571MOL0     O76974   5.185   1.375   8.711 -0.5899  0.0345  0.2523
  571MOL0     C76975   5.314   1.417   8.704  0.3467 -0.3074 -0.5577
  571MOL0     C76976   5.426   1.363   8.764  0.0926  0.0199  0.9784
  571MOL0     C76977   5.554   1.419   8.733  0.1626 -0.4338 -0.7544
  571MOL0     C76978   5.578   1.523   8.653  0.3806 -0.5563 -0.1224
  571MOL0     C76979   5.715   1.566   8.628  0.2682  0.3173 -0.2170
  571MOL0     O76980   5.808   1.469   8.650  0.4089 -0.8497 -0.1143
  571MOL0     C76981   5.934   1.515   8.640 -0.6908  0.3401 -0.1387
  571MOL0     C76982   6.009   1.539   8.749 -0.8243 -0.0057  0.0695
  571MOL0     C76983   6.141   1.587   8.735  0.2840 -0.1370  0.4405
  571MOL0     C76984   6.213   1.587   8.617  0.0493  0.3527 -1.2450
  571MOL0     O76985   6.343   1.631   8.621 -0.2228 -0.2372 -0.1710
  571MOL0     C76986   6.434   1.601   8.515 -0.3827  0.5353  0.8563
  571MOL0     C76987   6.585   1.605   8.570 -0.0823 -0.3240  0.5215
  571MOL0     C76988   6.682   1.591   8.453 -0.1344  0.4182  0.7026
  571MOL0     C76989   6.742   1.732   8.418 -0.5828 -0.2330 -0.3614
  571MOL0     C76990   6.874   1.760   8.491 -0.5318 -0.0600 -0.8824
  571MOL0     C76991   6.944   1.874   8.423  0.1978 -0.2147  0.7045
  571MOL0     C76992   7.085   1.881   8.477 -1.0307 -0.1004 -0.3367
  571MOL0     C76993   7.161   2.008   8.418  1.0668  0.1794 -0.7701
  571MOL0    Cl76994   7.334   1.973   8.424  0.1922 -0.1713 -0.1608
  571MOL0     C76995   6.139   1.560   8.509  0.4266 -0.0072  0.2445
  571MOL0     C76996   6.007   1.520   8.514 -0.0357  1.3398 -0.1578
  571MOL0     O76997   5.737   1.686   8.610  0.1096 -0.0322 -0.8516
  571MOL0     C76998   5.468   1.585   8.595 -0.4406 -0.1757  0.9305
  571MOL0     C76999   5.339   1.526   8.621 -0.2692  0.0818 -0.0472
  571MOL0     N77000   4.817   1.001   8.932  0.6879  0.2519 -0.3729
  571MOL0     N77001   4.769   0.879   8.950  0.4740 -0.0360 -0.1396
  571MOL0     C77002   3.578   0.729   9.324  0.5778 -0.9034  0.1966
  571MOL0     C77003   3.445   0.692   9.356 -0.9639 -0.4912  0.4051
  571MOL0     C77004   3.051   0.487   9.389 -0.6766 -0.4956  0.6129
  571MOL0     C77005   3.007   0.467   9.253 -0.5484  0.4168 -0.2008
  571MOL0     C77006   2.876   0.422   9.228  0.0472  0.6880  0.9064
  571MOL0     C77007   2.791   0.368   9.331 -0.7178  0.3075 -0.0072
  571MOL0     O77008   2.668   0.316   9.310 -0.3104 -0.2456  0.1714
  571MOL0     C77009   2.605   0.334   9.186 -0.6446  0.1145 -0.0875
  571MOL0     C77010   2.565   0.487   9.175  0.5381  0.0597  0.7538
  571MOL0     C77011   2.516   0.529   9.036 -0.5829  0.2655 -0.2732
  571MOL0     C77012   2.452   0.667   9.043  0.2402  0.5470  0.2470
  571MOL0     C77013   2.307   0.655   9.072 -0.2903  0.5495  0.4226
  571MOL0     C77014   2.188   0.641   9.092 -0.0234  0.4053 -0.0635
  571MOL0     C77015   2.845   0.382   9.460 -0.0805  0.1670 -0.4188
  571MOL0     C77016   2.967   0.442   9.494 -0.3355 -0.0697  0.8095
  571MOL0     C77017   3.012   0.439   9.637 -0.4834  0.3978  0.7655
  571MOL0     H77018   3.420   0.455   9.116  1.3271  0.6121 -0.6058
  571MOL0     H77019   3.651   0.522   9.079 -2.0205 -2.1229  0.4533
  571MOL0     H77020   3.932   0.641   9.105 -0.6174 -0.8154 -0.6315
  571MOL0     H77021   3.792   0.654   9.004 -3.3282  1.3494  1.2633
  571MOL0     H77022   3.962   0.882   9.090 -0.2954  2.8987 -1.8908
  571MOL0     H77023   3.810   0.884   8.982  0.0962  1.1864  0.2552
  571MOL0     H77024   3.978   0.919   8.833 -2.6141 -1.1885 -1.6318
  571MOL0     H77025   3.928   0.754   8.811 -1.9306 -0.4581  1.0563
  571MOL0     H77026   4.182   0.852   8.951 -1.4614  0.2662  0.4942
  571MOL0     H77027   4.119   0.678   8.967  4.1840 -2.9405 -3.1988
  571MOL0     H77028   4.143   0.638   8.743  3.8355 -1.1049 -0.8439
  571MOL0     H77029   4.190   0.804   8.707  1.1997 -1.0616 -0.3165
  571MOL0     H77030   4.330   0.596   8.887 -0.5523 -1.5871 -1.5483
  571MOL0     H77031   4.378   0.618   8.731  1.2778  2.6390 -1.5868
  571MOL0     H77032   4.404   0.823   8.929 -0.0667  0.1769 -0.1511
  571MOL0     H77033   4.433   0.864   8.754 -0.4185  0.6504  0.2842
  571MOL0     H77034   4.587   0.691   8.936  0.7150 -0.5496  0.3291
  571MOL0     H77035   4.614   0.684   8.762 -1.6399  0.9272 -1.2269
  571MOL0     H77036   4.610   0.977   8.675 -0.7603  1.7785  0.1513
  571MOL0     H77037   4.714   1.220   8.679  1.3128 -1.4092 -0.6018
  571MOL0     H77038   4.738   1.276   8.845 -1.3899  2.1863 -2.8102
  571MOL0     H77039   4.956   1.144   8.689  1.2682  0.1474  1.5416
  571MOL0     H77040   4.915   1.320   8.656  2.5740  0.4484  0.3394
  571MOL0     H77041   4.995   1.189   8.916 -0.6923  0.1409  0.9474
  571MOL0     H77042   4.953   1.364   8.901  1.0033 -0.2995  1.7438
  571MOL0     H77043   5.190   1.192   8.798 -0.2159  0.5423  2.2858
  571MOL0     H77044   5.204   1.314   8.915  0.9114 -3.6330  0.9125
  571MOL0     H77045   5.421   1.266   8.811 -1.5484 -1.0795 -1.2560
  571MOL0     H77046   5.623   1.363   8.795 -0.6449  0.2452  0.8005
  571MOL0     H77047   5.965   1.543   8.847  1.5967  2.3497  1.1937
  571MOL0     H77048   6.194   1.609   8.827  1.6423 -0.9077 -0.1078
  571MOL0     H77049   6.417   1.509   8.459 -4.5373  1.0158  0.9757
  571MOL0     H77050   6.418   1.677   8.437  2.0844  2.8775  2.4404
  571MOL0     H77051   6.591   1.701   8.621  0.9478 -0.4463  0.6504
  571MOL0     H77052   6.606   1.517   8.632  2.1358  0.5102  1.0541
  571MOL0     H77053   6.761   1.521   8.480 -0.2607 -0.0953 -0.2300
  571MOL0     H77054   6.629   1.562   8.362  1.6053  2.4260 -1.0694
  571MOL0     H77055   6.665   1.806   8.443 -1.3637 -0.5525 -1.7396
  571MOL0     H77056   6.759   1.734   8.310 -1.6464  0.6789 -0.5296
  571MOL0     H77057   6.945   1.677   8.492 -1.1484 -0.5878 -0.4608
  571MOL0     H77058   6.866   1.776   8.599 -0.5564  2.1442 -1.1542
  571MOL0     H77059   6.943   1.869   8.313 -0.1569 -0.7998  0.7316
  571MOL0     H77060   6.889   1.966   8.441 -0.5256 -0.5472  0.2530
  571MOL0     H77061   7.139   1.790   8.448 -1.7300 -1.3572  2.0680
  571MOL0     H77062   7.090   1.892   8.586 -1.8589 -3.4774  0.1480
  571MOL0     H77063   7.136   2.024   8.313  1.3294 -0.2202 -0.8961
  571MOL0     H77064   7.133   2.096   8.476  0.0605 -0.4539 -0.2579
  571MOL0     H77065   6.180   1.551   8.409 -0.8579 -0.1935 -0.2820
  571MOL0     H77066   5.962   1.485   8.422  1.5082 -3.9320  0.7720
  571MOL0     H77067   5.472   1.674   8.532 -3.5195 -1.0429 -0.6861
  571MOL0     H77068   5.256   1.561   8.561 -0.7927 -2.5378 -0.9750
  571MOL0     H77069   3.625   0.802   9.389 -2.7512 -0.9210  2.8845
  571MOL0     H77070   3.398   0.740   9.442  0.5139  1.8363  0.0049
  571MOL0     H77071   3.067   0.507   9.172 -1.6539 -0.7433 -1.6634
  571MOL0     H77072   2.837   0.418   9.127  0.2012 -0.3105  0.8752
  571MOL0     H77073   2.516   0.272   9.177 -0.0387 -1.4211  3.1012
  571MOL0     H77074   2.674   0.293   9.112 -0.4058 -0.9664  0.7129
  571MOL0     H77075   2.639   0.561   9.206 -0.4515  0.4413  2.2896
  571MOL0     H77076   2.472   0.500   9.232 -0.6197 -0.7133 -0.8833
  571MOL0     H77077   2.450   0.450   9.001 -2.2773  0.9726  1.1874
  571MOL0     H77078   2.597   0.537   8.962 -2.2610 -1.2569 -2.3882
  571MOL0     H77079   2.497   0.719   9.129 -1.0949 -0.3161  1.5335
  571MOL0     H77080   2.453   0.716   8.945 -2.3476 -2.6303 -1.5762
  571MOL0     H77081   2.084   0.635   9.114  0.0204 -1.0051 -0.1314
  571MOL0     H77082   2.776   0.347   9.536 -1.4291 -1.6608 -2.3660
  571MOL0     H77083   2.944   0.381   9.700 -1.0024  0.6447  0.4417
  571MOL0     H77084   3.105   0.381   9.639  0.5160  1.8357 -1.0704
  571MOL0     H77085   3.024   0.542   9.669  0.6707  1.8527 -3.6233
  572MOL0     O77086   0.851   3.776   1.397 -0.8108 -0.5713 -0.1555
  572MOL0     C77087   0.763   3.709   1.443  0.0313 -1.0935 -0.3597
  572MOL0     O77088   0.779   3.585   1.500 -0.0513 -0.3714  0.2541
  572MOL0     C77089   0.897   3.556   1.568  0.0761 -0.9524  0.3683
  572MOL0     C77090   0.987   3.645   1.627  0.2207  0.5641 -0.6898
  572MOL0     C77091   1.108   3.595   1.682 -0.1138 -0.0186 -0.7562
  572MOL0     C77092   1.135   3.462   1.687  0.1122  0.5435  0.2185
  572MOL0     O77093   1.250   3.411   1.743 -0.0191  0.1813 -0.2483
  572MOL0     C77094   1.333   3.493   1.835  0.9528 -0.9874  0.5662
  572MOL0     C77095   1.287   3.469   1.979  0.0492 -1.2887 -0.3534
  572MOL0     C77096   1.399   3.537   2.062  0.3017  0.6759 -0.4906
  572MOL0     C77097   1.368   3.542   2.214  0.0061 -0.0828 -0.0541
  572MOL0     C77098   1.496   3.562   2.300 -0.1159  0.1238 -0.3879
  572MOL0     C77099   1.586   3.683   2.276  0.1492 -0.0701 -0.3492
  572MOL0     C77100   1.691   3.691   2.391 -0.1684  0.7826  0.7659
  572MOL0     C77101   1.804   3.806   2.359 -0.1049  0.2663  0.3463
  572MOL0     N77102   1.846   3.796   2.213 -0.0223  0.2730 -0.3916
  572MOL0     C77103   1.826   3.888   2.116  0.0274  0.7761  0.2027
  572MOL0     C77104   1.917   3.860   2.023 -0.5409  0.2900  0.8922
  572MOL0     C77105   1.924   3.938   1.903  0.4772 -0.2899  0.7849
  572MOL0     C77106   1.965   3.841   1.780 -0.0358  0.5780  0.0723
  572MOL0     C77107   2.017   3.920   1.654 -0.7216  0.5326 -0.5983
  572MOL0     C77108   2.029   3.827   1.531 -0.1438 -1.1843  0.1627
  572MOL0     O77109   2.053   3.913   1.414  0.0775 -0.3493  1.1482
  572MOL0     C77110   2.181   3.916   1.366 -0.2427 -0.2032 -0.0836
  572MOL0     C77111   2.300   3.889   1.439  0.2375 -0.3344 -0.1015
  572MOL0     C77112   2.425   3.897   1.377 -0.1347  0.7913 -0.0784
  572MOL0     C77113   2.440   3.950   1.252  0.6139  0.8257  0.1185
  572MOL0     C77114   2.571   3.933   1.183  0.0111 -0.4658  0.7224
  572MOL0     O77115   2.676   3.878   1.249 -0.6854 -0.0040 -0.3448
  572MOL0     C77116   2.798   3.884   1.200 -0.2326 -0.3090 -0.4612
  572MOL0     C77117   2.883   3.986   1.247 -0.2052  0.4762  0.6779
  572MOL0     C77118   3.009   4.001   1.184 -0.0612 -0.2269 -0.2449
  572MOL0     C77119   3.067   3.903   1.105  0.8726 -0.6210 -0.4770
  572MOL0     O77120   3.203   3.892   1.072  0.6349  0.0274  0.0089
  572MOL0     C77121   3.279   4.015   1.085  1.0303 -0.6368 -0.2076
  572MOL0     C77122   3.397   4.023   0.992  0.9396 -0.0872 -0.5661
  572MOL0     C77123   3.365   4.022   0.841 -0.9783  0.1959 -0.1243
  572MOL0     C77124   3.501   4.032   0.775 -0.5680 -0.7874  0.8123
  572MOL0     C77125   3.589   4.159   0.809 -0.2835  0.9748  0.4115
  572MOL0     C77126   3.703   4.173   0.711  0.0843 -0.2187 -0.2627
  572MOL0     C77127   3.804   4.057   0.740  0.0278  0.2878 -0.1022
  572MOL0     C77128   3.939   4.082   0.666 -0.4639 -0.1510  0.2211
  572MOL0    Cl77129   3.924   4.078   0.479 -0.0818  0.1377 -0.3427
  572MOL0     C77130   2.977   3.801   1.061  0.0375 -0.7163  0.5311
  572MOL0     C77131   2.842   3.802   1.101 -0.4708 -0.2084 -0.0639
  572MOL0     O77132   2.584   3.985   1.066  0.3418 -0.4165  0.3872
  572MOL0     C77133   2.323   3.985   1.177  0.4185 -0.4079  0.2796
  572MOL0     C77134   2.197   3.955   1.233 -0.0035 -0.1340  0.1899
  572MOL0     N77135   1.979   3.738   2.059  0.3628  0.9522 -0.0311
  572MOL0     N77136   1.942   3.712   2.178 -0.4658 -0.0870  0.5506
  572MOL0     C77137   1.035   3.378   1.648 -0.0472  0.8692  0.0155
  572MOL0     C77138   0.923   3.419   1.584  0.3603 -0.9271 -0.3208
  572MOL0     C77139   0.616   3.754   1.412  0.0289 -0.0513 -0.0411
  572MOL0     C77140   0.515   3.671   1.464  0.6301  0.3453 -0.2244
  572MOL0     C77141   0.377   3.691   1.450 -0.2069  0.3450  0.5499
  572MOL0     C77142   0.338   3.797   1.366 -0.4582  0.5914  0.7881
  572MOL0     O77143   0.215   3.811   1.314  0.0207 -0.8239  0.0129
  572MOL0     C77144   0.112   3.713   1.354  0.7934 -1.2990  0.2883
  572MOL0     C77145  -0.020   3.766   1.280 -0.0186  0.5130 -0.3567
  572MOL0     C77146  -0.004   3.782   1.125  0.5323 -0.4038 -1.0640
  572MOL0     C77147  -0.132   3.875   1.093  0.1695  0.7575  0.1679
  572MOL0     C77148  -0.268   3.822   1.117 -0.9251  0.4315 -0.7672
  572MOL0     C77149  -0.361   3.759   1.163 -0.0913 -0.3937 -0.3610
  572MOL0     C77150   0.432   3.884   1.318 -0.2340  0.5313  0.3195
  572MOL0     C77151   0.571   3.869   1.345  0.8068  0.3913  0.8832
  572MOL0     C77152   0.662   3.971   1.294 -0.9414 -0.5235 -0.7889
  572MOL0     H77153   0.974   3.753   1.629  0.9415  0.6840  2.2965
  572MOL0     H77154   1.176   3.666   1.726  2.4187 -2.0621 -1.0978
  572MOL0     H77155   1.435   3.461   1.812  0.4301 -2.6897  0.4685
  572MOL0     H77156   1.327   3.600   1.814 -0.4157 -1.0028  0.7786
  572MOL0     H77157   1.275   3.363   2.003 -0.8311 -1.7279 -2.5048
  572MOL0     H77158   1.189   3.517   1.990  0.7177  0.1216 -0.3339
  572MOL0     H77159   1.400   3.644   2.040 -3.2916  0.2963 -3.3419
  572MOL0     H77160   1.496   3.489   2.042 -0.8087 -1.3988 -1.1056
  572MOL0     H77161   1.298   3.625   2.227 -0.9226 -0.6716 -1.0987
  572MOL0     H77162   1.325   3.446   2.242 -3.4922  1.1131 -0.8361
  572MOL0     H77163   1.459   3.560   2.403 -1.5506 -1.9548 -0.8829
  572MOL0     H77164   1.564   3.477   2.288  1.3162  1.0213  0.9354
  572MOL0     H77165   1.631   3.673   2.177  1.7370 -1.9924  0.4909
  572MOL0     H77166   1.526   3.774   2.276  1.5407  1.0700  3.7187
  572MOL0     H77167   1.750   3.599   2.400  1.9312  2.0630  0.7526
  572MOL0     H77168   1.640   3.710   2.486 -1.3292 -0.3545  0.4013
  572MOL0     H77169   1.765   3.906   2.381  0.4815  0.7682 -0.8143
  572MOL0     H77170   1.891   3.785   2.421 -0.8437  1.4991  1.8677
  572MOL0     H77171   1.763   3.976   2.129  1.0220  1.5480  0.0069
  572MOL0     H77172   1.836   3.999   1.884  0.6308 -0.5797 -1.0054
  572MOL0     H77173   1.998   4.018   1.917  0.5661 -0.5148  1.7234
  572MOL0     H77174   2.041   3.769   1.812 -0.0451 -0.1980 -1.5456
  572MOL0     H77175   1.869   3.795   1.754 -1.5377  1.0472  4.0127
  572MOL0     H77176   2.115   3.966   1.673 -1.0596  0.9484  0.2105
  572MOL0     H77177   1.946   4.000   1.629 -1.3327 -0.1104 -0.9698
  572MOL0     H77178   1.933   3.779   1.511 -1.0197 -0.6373  2.6887
  572MOL0     H77179   2.100   3.744   1.543  2.4074  0.9113  0.5707
  572MOL0     H77180   2.287   3.863   1.544  2.4682 -0.4532  0.1905
  572MOL0     H77181   2.510   3.852   1.428  0.1171  0.8633 -0.4267
  572MOL0     H77182   2.850   4.067   1.312  0.1872 -0.8435  2.6139
  572MOL0     H77183   3.073   4.085   1.207 -0.7297  0.3927 -0.6007
  572MOL0     H77184   3.214   4.102   1.068 -0.9899 -1.6270  1.8679
  572MOL0     H77185   3.323   4.029   1.183 -0.0611  0.4101  0.1631
  572MOL0     H77186   3.462   4.100   1.035  0.0603 -0.4639  1.5979
  572MOL0     H77187   3.456   3.933   1.008  3.0937  1.2643 -0.4840
  572MOL0     H77188   3.322   3.927   0.810 -2.0735  0.1176  1.5373
  572MOL0     H77189   3.302   4.106   0.810 -2.1162  0.4116  2.5542
  572MOL0     H77190   3.471   4.035   0.670 -2.1021 -0.2095  1.2383
  572MOL0     H77191   3.560   3.941   0.787  0.3309 -0.0309  2.6862
  572MOL0     H77192   3.642   4.148   0.904 -2.3834 -0.6225  1.4670
  572MOL0     H77193   3.519   4.243   0.803 -1.7154 -0.2776 -1.7184
  572MOL0     H77194   3.662   4.170   0.610 -1.1841  0.5049  0.1989
  572MOL0     H77195   3.755   4.268   0.729  0.8365 -0.2837 -1.9615
  572MOL0     H77196   3.764   3.963   0.702 -0.0981  1.4975 -3.2758
  572MOL0     H77197   3.822   4.049   0.847  0.0139 -1.0520 -0.1831
  572MOL0     H77198   3.967   4.181   0.702  0.3690 -0.1440 -0.4201
  572MOL0     H77199   4.015   4.012   0.703  0.3562  0.5867 -0.0397
  572MOL0     H77200   3.014   3.726   0.992 -0.9463 -0.3267 -0.4367
  572MOL0     H77201   2.773   3.727   1.065  1.8276 -1.2121 -2.7689
  572MOL0     H77202   2.328   4.020   1.074 -1.6288  2.2334  0.9441
  572MOL0     H77203   2.103   3.975   1.184  0.5501  1.6873 -0.2153
  572MOL0     H77204   1.056   3.271   1.650  0.7168  0.9581 -1.4218
  572MOL0     H77205   0.840   3.363   1.541  1.3862 -1.8201 -1.1944
  572MOL0     H77206   0.540   3.589   1.531 -1.1034 -0.2125 -0.1974
  572MOL0     H77207   0.313   3.622   1.503 -0.4813 -2.0770 -2.6462
  572MOL0     H77208   0.085   3.709   1.460 -1.4017  0.2071 -0.1512
  572MOL0     H77209   0.136   3.615   1.313 -1.1803 -0.8832 -2.0422
  572MOL0     H77210  -0.056   3.858   1.327 -0.2057 -0.3977  1.3730
  572MOL0     H77211  -0.103   3.696   1.294 -0.6885  1.3792  0.1285
  572MOL0     H77212  -0.013   3.683   1.079 -1.0987 -1.8187  1.9975
  572MOL0     H77213   0.086   3.839   1.100  1.5022 -0.5991  1.6361
  572MOL0     H77214  -0.117   3.966   1.152  1.0581  1.1031 -0.5661
  572MOL0     H77215  -0.128   3.894   0.985 -0.8956  0.8327  0.1272
  572MOL0     H77216  -0.445   3.696   1.188 -0.4675 -0.5446 -1.8890
  572MOL0     H77217   0.396   3.971   1.264  0.2717 -0.5371 -1.8348
  572MOL0     H77218   0.729   4.007   1.373 -2.7829 -1.1787  1.1635
  572MOL0     H77219   0.711   3.933   1.204 -2.1601  2.7322 -3.0266
  572MOL0     H77220   0.607   4.061   1.265  0.3977  0.1335 -1.4147
  573MOL0     O77221   4.103   5.570   6.719  0.0022 -0.2493  0.3185
  573MOL0     C77222   4.049   5.683   6.707  0.2721  0.3510  0.8247
  573MOL0     O77223   4.112   5.783   6.642  0.1252  0.2357  0.8210
  573MOL0     C77224   4.235   5.766   6.590 -0.3247  0.3399  0.1384
  573MOL0     C77225   4.274   5.660   6.500  0.8415 -1.3090 -0.0553
  573MOL0     C77226   4.401   5.649   6.452 -0.7795 -0.5363  0.8668
  573MOL0     C77227   4.497   5.747   6.490  0.5856  0.3711  0.2527
  573MOL0     O77228   4.635   5.734   6.463 -0.1643  0.1817  0.2636
  573MOL0     C77229   4.681   5.608   6.408 -0.1458  0.1695  0.6924
  573MOL0     C77230   4.837   5.605   6.396 -0.1038 -0.0473  0.1853
  573MOL0     C77231   4.885   5.736   6.332  0.3742 -0.1429 -0.8498
  573MOL0     C77232   5.019   5.719   6.262  0.5318 -0.1141  0.6155
  573MOL0     C77233   5.067   5.864   6.230  0.1362  0.7575 -0.2089
  573MOL0     C77234   5.211   5.866   6.208 -1.1964 -0.8517 -0.1889
  573MOL0     C77235   5.245   5.800   6.070 -0.4079  0.3910 -0.1471
  573MOL0     C77236   5.396   5.768   6.071 -0.0972 -0.1498 -0.1496
  573MOL0     N77237   5.476   5.886   6.090 -0.1656  0.4545  0.6391
  573MOL0     C77238   5.578   5.909   6.177 -0.1183  0.4013  0.5318
  573MOL0     C77239   5.628   6.026   6.148 -0.4227  0.6893  0.4913
  573MOL0     C77240   5.714   6.104   6.236  0.3048 -1.1471  0.0009
  573MOL0     C77241   5.848   6.049   6.257  0.0365 -1.2232 -0.1690
  573MOL0     C77242   5.932   6.155   6.340  0.3577  0.3319 -0.2534
  573MOL0     C77243   6.075   6.102   6.365  0.5682  0.3004  0.4304
  573MOL0     O77244   6.130   6.219   6.432  0.3677  0.1843  0.0885
  573MOL0     C77245   6.267   6.208   6.463  0.6872 -0.0325  0.4888
  573MOL0     C77246   6.325   6.334   6.506  0.2075  0.8883  0.6805
  573MOL0     C77247   6.461   6.333   6.557  0.2788  0.1049 -0.3536
  573MOL0     C77248   6.540   6.230   6.532  0.1008 -0.2370  0.4468
  573MOL0     C77249   6.678   6.218   6.578 -0.2830  0.2117 -0.5592
  573MOL0     O77250   6.707   6.291   6.688 -0.1748  0.4139  0.3762
  573MOL0     C77251   6.833   6.284   6.736  0.2033 -0.7904 -0.2870
  573MOL0     C77252   6.874   6.186   6.826 -0.5254 -0.5935  0.0020
  573MOL0     C77253   7.003   6.191   6.891 -0.8036  0.0797  0.2984
  573MOL0     C77254   7.090   6.293   6.856 -0.3372 -0.2864  0.1719
  573MOL0     O77255   7.221   6.314   6.899  0.0998 -0.9110  0.1513
  573MOL0     C77256   7.282   6.197   6.954  0.0739  0.5298 -0.0195
  573MOL0     C77257   7.405   6.245   7.024 -0.0295  0.4425  0.7583
  573MOL0     C77258   7.382   6.360   7.121 -0.5160  0.0232 -0.0520
  573MOL0     C77259   7.278   6.343   7.234 -0.0543 -0.1678  0.0944
  573MOL0     C77260   7.297   6.467   7.327 -0.2375  1.1552 -0.1389
  573MOL0     C77261   7.257   6.598   7.264  0.5234 -0.6242  0.1756
  573MOL0     C77262   7.218   6.702   7.370  0.0185 -0.4253  0.0479
  573MOL0     C77263   7.173   6.825   7.295  0.2291 -0.5130 -0.2025
  573MOL0    Cl77264   7.143   6.957   7.425 -0.2196  0.3932 -0.4323
  573MOL0     C77265   7.042   6.400   6.776 -0.6884  0.7679  0.3653
  573MOL0     C77266   6.922   6.392   6.711 -0.2066 -0.1702 -0.7007
  573MOL0     O77267   6.755   6.140   6.522 -1.4389  0.2646 -0.1302
  573MOL0     C77268   6.483   6.111   6.477  0.5912  0.2604  0.2051
  573MOL0     C77269   6.345   6.096   6.442 -0.4623  0.5984 -0.8369
  573MOL0     N77270   5.566   6.074   6.034 -0.1114 -1.0212  0.4362
  573MOL0     N77271   5.470   5.994   6.008  0.4216 -0.0826  0.4448
  573MOL0     C77272   4.457   5.849   6.577 -0.1846 -0.6876  0.0408
  573MOL0     C77273   4.332   5.863   6.627 -0.0074 -0.4993  0.4707
  573MOL0     C77274   3.930   5.717   6.798  0.3295  0.2814 -1.1437
  573MOL0     C77275   3.877   5.847   6.804  0.6695  0.4277  0.3168
  573MOL0     C77276   3.772   5.885   6.882  0.0050  0.2826 -1.1127
  573MOL0     C77277   3.710   5.786   6.964 -0.5083 -0.3953 -0.0352
  573MOL0     O77278   3.602   5.791   7.056 -0.4690 -0.1792 -0.5463
  573MOL0     C77279   3.520   5.901   7.057  0.1048 -0.4795 -0.3097
  573MOL0     C77280   3.405   5.892   7.162 -1.1821 -0.1779  0.2465
  573MOL0     C77281   3.345   5.746   7.164  0.4974 -0.0521 -0.2872
  573MOL0     C77282   3.253   5.713   7.277  0.3665  0.6661  1.1860
  573MOL0     C77283   3.118   5.762   7.250  0.4595 -0.7215  0.1397
  573MOL0     C77284   3.007   5.806   7.221  0.1234 -0.0794  0.7655
  573MOL0     C77285   3.761   5.654   6.957 -0.0475 -0.4063 -0.1356
  573MOL0     C77286   3.871   5.622   6.878  0.1971  0.4605 -0.2308
  573MOL0     C77287   3.918   5.479   6.896  0.3719 -0.9937  0.4474
  573MOL0     H77288   4.202   5.586   6.465  1.4980 -2.2368  0.5066
  573MOL0     H77289   4.428   5.562   6.393 -2.2809  0.0108 -0.7026
  573MOL0     H77290   4.647   5.520   6.463 -0.2770  0.6192  1.3477
  573MOL0     H77291   4.633   5.602   6.310 -1.0677  0.2568  1.1266
  573MOL0     H77292   4.859   5.511   6.345  0.4188  0.9094 -1.4187
  573MOL0     H77293   4.888   5.604   6.493  0.2846  1.8260  0.0387
  573MOL0     H77294   4.906   5.802   6.417 -1.8776 -0.3161 -0.0578
  573MOL0     H77295   4.804   5.775   6.270 -0.2788 -0.4829 -0.2361
  573MOL0     H77296   5.085   5.668   6.333  0.3264 -0.8527  0.2898
  573MOL0     H77297   5.014   5.661   6.170 -0.5986 -0.0017  0.5965
  573MOL0     H77298   5.017   5.900   6.140  0.7420  1.4142 -0.2904
  573MOL0     H77299   5.041   5.931   6.312 -0.9479  1.1566 -0.8580
  573MOL0     H77300   5.243   5.971   6.211 -0.3056 -1.1022  3.3251
  573MOL0     H77301   5.265   5.825   6.293  0.9067  3.4061  0.8125
  573MOL0     H77302   5.221   5.858   5.981 -1.3710 -1.5193 -1.1812
  573MOL0     H77303   5.191   5.705   6.068  2.9149 -1.7522  1.6706
  573MOL0     H77304   5.412   5.693   6.149 -4.0906  0.1018  1.1552
  573MOL0     H77305   5.431   5.729   5.976 -1.5365  1.4984 -1.4272
  573MOL0     H77306   5.604   5.857   6.269 -3.4315 -3.2418 -0.3801
  573MOL0     H77307   5.708   6.203   6.190  2.1516 -1.5366 -1.1959
  573MOL0     H77308   5.678   6.099   6.340  2.3761 -1.6969  0.7310
  573MOL0     H77309   5.854   5.956   6.315  3.8717 -1.6055 -0.9009
  573MOL0     H77310   5.891   6.040   6.157  1.6932 -1.4522  0.5273
  573MOL0     H77311   5.892   6.164   6.442 -0.6671  0.0182 -0.6080
  573MOL0     H77312   5.936   6.255   6.296 -0.0189  0.1759 -0.6423
  573MOL0     H77313   6.125   6.073   6.272 -0.4467  1.1699 -0.4065
  573MOL0     H77314   6.074   6.014   6.429 -1.3510  0.9808  1.4140
  573MOL0     H77315   6.271   6.428   6.505 -0.0355  0.7758  1.7496
  573MOL0     H77316   6.513   6.420   6.594  1.8944 -0.4899 -1.0883
  573MOL0     H77317   6.805   6.111   6.863 -0.7259 -0.5792 -0.3405
  573MOL0     H77318   7.018   6.112   6.964 -0.6159 -0.2755 -0.1143
  573MOL0     H77319   7.215   6.136   7.015 -0.1867 -2.2642 -2.8417
  573MOL0     H77320   7.313   6.138   6.867  1.8669  0.4574  0.6327
  573MOL0     H77321   7.456   6.157   7.064 -0.2058  0.0277  0.0919
  573MOL0     H77322   7.479   6.284   6.953 -0.5732  0.9564  0.4690
  573MOL0     H77323   7.479   6.395   7.157  0.1859 -1.6529 -0.2167
  573MOL0     H77324   7.361   6.446   7.057  1.9097 -1.5350 -3.2615
  573MOL0     H77325   7.302   6.248   7.283  1.9639  0.5173  0.5287
  573MOL0     H77326   7.177   6.332   7.193 -0.2810 -1.5224  0.9680
  573MOL0     H77327   7.400   6.482   7.361 -0.7015  1.0991  1.3450
  573MOL0     H77328   7.244   6.452   7.421  2.1327  0.9880  1.2430
  573MOL0     H77329   7.332   6.638   7.196 -2.5144  1.7992 -2.0238
  573MOL0     H77330   7.166   6.587   7.205  1.0763 -0.2260 -0.7682
  573MOL0     H77331   7.303   6.730   7.434 -2.6017  2.5138  2.5964
  573MOL0     H77332   7.136   6.663   7.431 -0.3156 -0.6754 -0.5480
  573MOL0     H77333   7.255   6.846   7.226  0.7454 -3.3758 -0.5856
  573MOL0     H77334   7.083   6.810   7.235  0.0498  1.5146 -0.5140
  573MOL0     H77335   7.112   6.481   6.763  1.2170 -1.1547 -2.4955
  573MOL0     H77336   6.890   6.473   6.645  1.4965 -0.1824 -1.6064
  573MOL0     H77337   6.549   6.026   6.464 -0.9296 -1.0791  0.9826
  573MOL0     H77338   6.316   5.996   6.412  0.1064 -0.2083  1.1547
  573MOL0     H77339   4.534   5.922   6.602  0.9054 -1.2757 -1.4607
  573MOL0     H77340   4.310   5.947   6.691  3.4921  1.6845 -0.9233
  573MOL0     H77341   3.915   5.921   6.734  0.7348 -1.6740 -2.0145
  573MOL0     H77342   3.739   5.987   6.898  0.2147  0.1463  0.3115
  573MOL0     H77343   3.479   5.906   6.956 -0.0437  1.8972 -0.1799
  573MOL0     H77344   3.577   5.993   7.069 -0.9363  0.2952 -1.1588
  573MOL0     H77345   3.328   5.966   7.141  0.2286  1.8378  1.7489
  573MOL0     H77346   3.437   5.913   7.265 -1.4010  0.6841  0.1463
  573MOL0     H77347   3.436   5.686   7.177  0.1843 -0.1920  1.5169
  573MOL0     H77348   3.295   5.724   7.069 -0.1729  0.6077 -0.0854
  573MOL0     H77349   3.249   5.604   7.273  2.2624  0.6058 -0.4007
  573MOL0     H77350   3.298   5.747   7.371  0.2188  2.7458  0.5529
  573MOL0     H77351   2.908   5.837   7.196 -0.3546 -0.6526  1.8440
  573MOL0     H77352   3.711   5.575   7.012 -2.1874  2.2873  2.0697
  573MOL0     H77353   3.853   5.429   6.968 -0.0652  1.3017  1.7627
  573MOL0     H77354   3.915   5.423   6.802  2.4009  1.2160 -1.0643
  573MOL0     H77355   4.019   5.474   6.937 -0.4863  0.0180  2.8392
  574MOL0     O77356   0.850   0.890   4.849 -0.1088 -0.4099  0.5853
  574MOL0     C77357   0.837   1.014   4.846  0.5262  0.6632 -0.4505
  574MOL0     O77358   0.730   1.082   4.797 -0.4014 -0.3678  0.1862
  574MOL0     C77359   0.620   1.009   4.773  0.5319  0.0676  0.2922
  574MOL0     C77360   0.556   1.039   4.648 -0.0735  0.0593 -0.4831
  574MOL0     C77361   0.432   0.971   4.614 -0.9474  0.0214 -0.5349
  574MOL0     C77362   0.377   0.874   4.702 -0.2527  0.2291  0.1646
  574MOL0     O77363   0.250   0.830   4.680 -0.3075  0.3443  0.1659
  574MOL0     C77364   0.193   0.723   4.760  0.2417  0.2654  0.1352
  574MOL0     C77365   0.263   0.591   4.728 -0.6607  0.2214  0.3816
  574MOL0     C77366   0.229   0.478   4.829 -0.1009  0.5071  0.2058
  574MOL0     C77367   0.077   0.436   4.833  0.1504  0.1714  0.3409
  574MOL0     C77368   0.057   0.330   4.938 -0.1804  0.0079  0.6557
  574MOL0     C77369  -0.090   0.286   4.945 -0.2456 -0.1760  0.2453
  574MOL0     C77370  -0.116   0.173   5.048 -0.0002 -0.4734 -0.0754
  574MOL0     C77371  -0.009   0.060   5.043  0.1122 -0.0980 -0.2380
  574MOL0     N77372  -0.054  -0.028   5.153 -0.4638  0.1617 -0.3457
  574MOL0     C77373  -0.169  -0.104   5.155 -0.3029  0.0909 -0.0065
  574MOL0     C77374  -0.186  -0.142   5.284 -0.7837  0.0548 -0.4223
  574MOL0     C77375  -0.305  -0.221   5.345 -0.6321 -0.7500  1.0603
  574MOL0     C77376  -0.294  -0.381   5.331  0.0477 -0.2066  0.0206
  574MOL0     C77377  -0.175  -0.452   5.403 -0.6570  0.0709 -0.3278
  574MOL0     C77378  -0.155  -0.414   5.550  0.1875 -0.5571  0.3829
  574MOL0     O77379  -0.057  -0.505   5.614 -0.1430  0.3005 -0.5470
  574MOL0     C77380   0.077  -0.485   5.605  0.2642  0.7253 -0.2915
  574MOL0     C77381   0.160  -0.571   5.682 -0.6847 -0.5329  0.5230
  574MOL0     C77382   0.288  -0.532   5.711  0.6477  0.5425 -0.0138
  574MOL0     C77383   0.353  -0.434   5.632 -0.1421  0.7283  0.2019
  574MOL0     C77384   0.490  -0.395   5.656 -0.6562  0.3189  1.4604
  574MOL0     O77385   0.537  -0.269   5.607 -0.0483  0.2700  0.0732
  574MOL0     C77386   0.662  -0.269   5.569 -0.5347 -0.5814  0.2389
  574MOL0     C77387   0.686  -0.274   5.434  0.3558 -0.0765  0.5794
  574MOL0     C77388   0.815  -0.261   5.391  0.3097  0.4283  0.2992
  574MOL0     C77389   0.924  -0.245   5.472 -0.1743 -0.6977 -0.8988
  574MOL0     O77390   1.046  -0.240   5.411 -0.1872  0.8911 -0.2996
  574MOL0     C77391   1.167  -0.251   5.488  0.4104 -0.4132 -0.3882
  574MOL0     C77392   1.176  -0.388   5.546 -0.0002 -0.5829  0.2006
  574MOL0     C77393   1.307  -0.402   5.623 -0.5529  0.7477 -0.1822
  574MOL0     C77394   1.322  -0.320   5.756  0.8326  0.8230 -1.0019
  574MOL0     C77395   1.428  -0.382   5.855 -0.4315 -0.5132  0.3066
  574MOL0     C77396   1.445  -0.295   5.975  0.1714  0.4455  0.4199
  574MOL0     C77397   1.573  -0.336   6.043  0.2325  0.3874 -0.5624
  574MOL0     C77398   1.585  -0.276   6.183  0.5856  0.5621 -0.4412
  574MOL0    Cl77399   1.713  -0.360   6.267 -0.0781  0.1058 -0.2068
  574MOL0     C77400   0.902  -0.238   5.611 -0.4869  0.4323  0.0875
  574MOL0     C77401   0.775  -0.252   5.655  0.2428  0.0494  0.3103
  574MOL0     O77402   0.563  -0.491   5.697  0.2622 -0.1704  0.1603
  574MOL0     C77403   0.273  -0.361   5.544 -0.6233  0.4015 -0.1438
  574MOL0     C77404   0.141  -0.385   5.528  0.5245  0.2748  0.0217
  574MOL0     N77405  -0.071  -0.104   5.353 -0.3079  0.2353  0.0187
  574MOL0     N77406   0.015  -0.047   5.275  0.5608  0.0186  0.3505
  574MOL0     C77407   0.448   0.851   4.823  0.0035  0.2074 -0.2399
  574MOL0     C77408   0.561   0.919   4.859 -0.2854 -0.4959 -0.2022
  574MOL0     C77409   0.962   1.100   4.858  0.9541  1.3135  0.5841
  574MOL0     C77410   0.965   1.219   4.792 -0.6073 -0.1397 -0.0623
  574MOL0     C77411   1.082   1.308   4.792  1.1049 -0.0984 -0.5334
  574MOL0     C77412   1.188   1.274   4.871  0.0926  0.1402 -0.6108
  574MOL0     O77413   1.304   1.345   4.897  0.5280  0.2715  0.0070
  574MOL0     C77414   1.309   1.480   4.829 -0.0577  0.9603  0.3178
  574MOL0     C77415   1.449   1.544   4.859  0.0215 -0.4165 -0.2390
  574MOL0     C77416   1.438   1.589   5.009 -0.4532 -0.6824  0.1305
  574MOL0     C77417   1.556   1.673   5.058 -0.3096 -0.6033  0.4132
  574MOL0     C77418   1.686   1.623   5.013 -0.1281  0.7638  0.1718
  574MOL0     C77419   1.786   1.563   4.978  0.7487  0.8951 -0.4084
  574MOL0     C77420   1.188   1.147   4.930 -0.4695  0.7736 -0.0317
  574MOL0     C77421   1.077   1.062   4.926 -0.3115 -0.0144 -0.6805
  574MOL0     C77422   1.078   0.936   5.007 -0.2567 -0.1485 -0.7205
  574MOL0     H77423   0.581   1.117   4.577 -2.4751 -0.7593 -2.3856
  574MOL0     H77424   0.379   0.990   4.521 -1.1646 -0.1385 -0.4437
  574MOL0     H77425   0.185   0.743   4.867 -2.5930  2.6342 -0.4124
  574MOL0     H77426   0.085   0.717   4.745 -0.9075 -3.0472  6.2366
  574MOL0     H77427   0.372   0.600   4.729 -0.4566 -1.6403  1.7060
  574MOL0     H77428   0.244   0.565   4.623  0.6104  3.5046 -0.7889
  574MOL0     H77429   0.264   0.509   4.928  0.3864  1.0060 -0.1195
  574MOL0     H77430   0.294   0.392   4.810 -2.5523 -1.9911  2.2759
  574MOL0     H77431   0.013   0.524   4.840 -1.3031 -0.4337 -3.2529
  574MOL0     H77432   0.063   0.391   4.734  0.4174  1.0439 -0.0984
  574MOL0     H77433   0.114   0.243   4.903 -3.2394 -1.2202 -1.8477
  574MOL0     H77434   0.091   0.365   5.036  2.7185 -1.9169  0.4446
  574MOL0     H77435  -0.161   0.368   4.963 -1.7554 -1.3783 -0.0010
  574MOL0     H77436  -0.122   0.245   4.849 -3.5746  0.3436  0.9898
  574MOL0     H77437  -0.218   0.134   5.044  0.2699 -1.2405  0.1794
  574MOL0     H77438  -0.102   0.217   5.147 -1.6769  1.2329 -0.5394
  574MOL0     H77439   0.001   0.002   4.951 -3.1892 -0.4916 -0.4628
  574MOL0     H77440   0.090   0.099   5.069 -0.3993 -0.1142  1.8920
  574MOL0     H77441  -0.242  -0.119   5.076 -1.7131 -0.0785  1.2850
  574MOL0     H77442  -0.314  -0.198   5.451 -0.7699  2.3713  0.4517
  574MOL0     H77443  -0.395  -0.193   5.290  1.3483 -0.6590 -2.4778
  574MOL0     H77444  -0.383  -0.423   5.379 -0.5528 -0.1476 -1.0039
  574MOL0     H77445  -0.293  -0.410   5.226 -0.7525 -0.9245  0.1976
  574MOL0     H77446  -0.087  -0.420   5.348  1.4993  0.4563  3.0729
  574MOL0     H77447  -0.173  -0.558   5.378  0.5653  0.1033 -0.4284
  574MOL0     H77448  -0.244  -0.415   5.613 -0.4730  2.4675 -0.3165
  574MOL0     H77449  -0.117  -0.311   5.557  3.6721 -1.6258 -0.6657
  574MOL0     H77450   0.121  -0.649   5.747 -0.6183  0.0569  1.2801
  574MOL0     H77451   0.337  -0.596   5.784 -2.0769  0.5408  1.9614
  574MOL0     H77452   0.612  -0.285   5.355 -0.0903 -2.6602  1.2447
  574MOL0     H77453   0.823  -0.258   5.283  1.6910 -1.4248  0.2932
  574MOL0     H77454   1.256  -0.226   5.430 -0.1163  2.4232 -0.1287
  574MOL0     H77455   1.157  -0.179   5.570 -0.9820 -0.6135 -0.3657
  574MOL0     H77456   1.083  -0.411   5.599  0.1279  2.1790  1.8090
  574MOL0     H77457   1.179  -0.460   5.463 -0.1860  1.1911 -1.4198
  574MOL0     H77458   1.318  -0.507   5.652 -1.2030  0.1116 -2.0702
  574MOL0     H77459   1.388  -0.383   5.553 -0.2044  1.8365  0.4910
  574MOL0     H77460   1.229  -0.335   5.812  1.3155 -1.5644 -0.7231
  574MOL0     H77461   1.338  -0.213   5.740  1.7692  0.6485 -1.2635
  574MOL0     H77462   1.523  -0.385   5.802 -1.5002  0.5045 -1.7884
  574MOL0     H77463   1.397  -0.483   5.881  2.0804 -1.1184  1.1854
  574MOL0     H77464   1.460  -0.187   5.960  2.4713  0.2187  0.7591
  574MOL0     H77465   1.359  -0.312   6.040 -0.9099  1.8344 -0.5667
  574MOL0     H77466   1.664  -0.311   5.989  0.5363  0.4909 -0.0080
  574MOL0     H77467   1.562  -0.443   6.062 -1.7766  0.6977  0.3972
  574MOL0     H77468   1.608  -0.169   6.177 -1.9563  1.1788 -0.1284
  574MOL0     H77469   1.487  -0.289   6.229  0.9088 -1.2982 -0.2265
  574MOL0     H77470   0.977  -0.222   5.687 -0.2526  0.5653 -0.1687
  574MOL0     H77471   0.758  -0.231   5.760  4.0177  3.0765  0.5307
  574MOL0     H77472   0.325  -0.287   5.483 -1.0529 -0.4051 -1.5253
  574MOL0     H77473   0.070  -0.346   5.456  1.3357 -0.0644 -0.9895
  574MOL0     H77474   0.419   0.780   4.900  0.3705 -1.0977 -1.2702
  574MOL0     H77475   0.619   0.912   4.950  2.4348  3.5032 -1.3835
  574MOL0     H77476   0.880   1.256   4.735  0.8684  0.3303 -2.0655
  574MOL0     H77477   1.070   1.403   4.741  0.4943  0.3827  0.4524
  574MOL0     H77478   1.232   1.551   4.861  1.6084  2.2478  1.7044
  574MOL0     H77479   1.299   1.468   4.721 -1.5300  0.4946  0.4854
  574MOL0     H77480   1.466   1.634   4.799  0.2400 -0.0529  0.3562
  574MOL0     H77481   1.536   1.478   4.849  0.2534 -0.0227 -0.9176
  574MOL0     H77482   1.433   1.499   5.070 -1.4008 -0.9167 -0.2691
  574MOL0     H77483   1.347   1.646   5.028  0.3511  0.9153 -0.6216
  574MOL0     H77484   1.549   1.778   5.027  2.6480 -0.5765 -0.4518
  574MOL0     H77485   1.561   1.677   5.167  1.9629 -2.3163  0.4431
  574MOL0     H77486   1.880   1.525   4.945  0.5329 -1.1018  1.0851
  574MOL0     H77487   1.268   1.103   4.989 -2.8932 -0.4198  2.6595
  574MOL0     H77488   1.165   0.943   5.073 -0.1056  2.3012 -1.0889
  574MOL0     H77489   0.989   0.933   5.070  1.9027  2.0630  2.7477
  574MOL0     H77490   1.080   0.846   4.945  4.9317  0.1936 -1.5061
  575MOL0     O77491   2.983   2.768  11.199  0.0517  0.1318 -0.0490
  575MOL0     C77492   2.978   2.763  11.326 -0.5210 -0.4036 -0.4456
  575MOL0     O77493   3.090   2.792  11.415  1.1706  0.4845  0.3971
  575MOL0     C77494   3.219   2.775  11.389  0.3493  0.1455 -0.2451
  575MOL0     C77495   3.264   2.714  11.266 -0.8498 -0.0795 -0.2032
  575MOL0     C77496   3.396   2.685  11.252  0.2095 -0.1380  0.4620
  575MOL0     C77497   3.497   2.707  11.351  0.0557  0.4753 -0.0849
  575MOL0     O77498   3.635   2.689  11.327  0.4969  0.2384  0.6921
  575MOL0     C77499   3.689   2.700  11.194  0.9068 -0.2899 -0.4759
  575MOL0     C77500   3.743   2.569  11.139 -0.0709  0.6485 -0.3311
  575MOL0     C77501   3.859   2.530  11.221 -0.3027  0.7196 -0.1795
  575MOL0     C77502   3.851   2.436  11.345  0.1431  0.0608  1.4263
  575MOL0     C77503   3.994   2.411  11.405 -0.1853  0.1602 -0.9201
  575MOL0     C77504   3.985   2.273  11.488 -0.6146 -0.6483  0.7294
  575MOL0     C77505   4.122   2.218  11.536 -0.1449  0.3904 -0.3118
  575MOL0     C77506   4.213   2.195  11.419 -0.5146  0.1766 -0.9201
  575MOL0     N77507   4.329   2.114  11.481  0.4648 -0.3209 -0.1322
  575MOL0     C77508   4.447   2.175  11.535  0.4466 -0.6156 -1.0352
  575MOL0     C77509   4.519   2.066  11.571  0.6467 -0.6315 -0.1188
  575MOL0     C77510   4.625   2.075  11.669 -0.6471  0.0017 -0.3144
  575MOL0     C77511   4.766   2.045  11.617 -0.2955 -0.5164  0.1222
  575MOL0     C77512   4.862   2.066  11.733  0.4704  0.2900 -0.2382
  575MOL0     C77513   5.001   2.036  11.691  0.1279 -0.1423 -0.1209
  575MOL0     O77514   5.080   2.039  11.807 -0.4970 -0.0225 -0.0805
  575MOL0     C77515   5.218   2.015  11.796  0.1960  0.4420  0.4463
  575MOL0     C77516   5.291   2.002  11.913  0.1762  0.7185  0.4625
  575MOL0     C77517   5.426   1.983  11.901 -0.7121  0.4910 -1.0830
  575MOL0     C77518   5.499   1.989  11.780 -0.2467  0.6181  0.8427
  575MOL0     C77519   5.649   1.985  11.772 -0.0423  0.7486  0.2077
  575MOL0     O77520   5.710   1.972  11.890 -0.1985 -1.0758 -0.0876
  575MOL0     C77521   5.844   1.964  11.904  0.2113 -0.7704  0.2525
  575MOL0     C77522   5.883   1.858  11.979 -0.0689  0.2878 -0.4336
  575MOL0     C77523   6.017   1.839  12.003 -0.8578 -0.2846  1.0704
  575MOL0     C77524   6.110   1.921  11.936  0.6710  0.8424 -0.8012
  575MOL0     O77525   6.247   1.909  11.947  0.2149 -0.4695  0.0520
  575MOL0     C77526   6.312   1.780  11.957 -0.4551 -0.3363  0.8459
  575MOL0     C77527   6.452   1.809  12.006 -0.2724 -0.7748  0.1882
  575MOL0     C77528   6.472   1.861  12.147 -0.2128 -0.2035 -0.0000
  575MOL0     C77529   6.621   1.878  12.180 -0.1796 -0.5574  0.6235
  575MOL0     C77530   6.639   1.955  12.309 -0.1666 -0.3209  0.0360
  575MOL0     C77531   6.781   1.994  12.343  0.1410  0.5780  0.4535
  575MOL0     C77532   6.764   2.057  12.486 -1.0604  0.3214  0.3727
  575MOL0     C77533   6.892   2.125  12.536 -0.2909 -0.4406 -1.0351
  575MOL0    Cl77534   6.951   2.252  12.431 -0.0314  0.1175 -0.0761
  575MOL0     C77535   6.059   2.032  11.862  0.1797  0.3467  0.1302
  575MOL0     C77536   5.923   2.055  11.838  0.0096  0.7330  0.4304
  575MOL0     O77537   5.702   1.976  11.656  0.4238  0.0341  0.0196
  575MOL0     C77538   5.424   2.005  11.663 -0.5495  0.0571 -0.2140
  575MOL0     C77539   5.284   2.016  11.669  0.4496 -0.5961 -0.8458
  575MOL0     N77540   4.453   1.954  11.520 -0.0505 -0.8985  0.1805
  575MOL0     N77541   4.335   1.980  11.474  0.3034 -0.1712  0.7053
  575MOL0     C77542   3.455   2.758  11.468 -0.0920  0.5551  0.3743
  575MOL0     C77543   3.316   2.791  11.491 -0.1894 -0.5229 -0.2479
  575MOL0     C77544   2.848   2.732  11.398 -0.4860  0.9263  0.0807
  575MOL0     C77545   2.848   2.655  11.512  0.0701  0.3045 -0.2717
  575MOL0     C77546   2.737   2.611  11.591  1.2163  0.7020  0.0868
  575MOL0     C77547   2.610   2.646  11.533  0.2705  0.7920  0.4894
  575MOL0     O77548   2.487   2.608  11.584 -0.3374  0.1855 -0.4334
  575MOL0     C77549   2.479   2.528  11.702  0.2195 -1.6688  0.0986
  575MOL0     C77550   2.463   2.606  11.828 -1.0561  0.6954 -0.5077
  575MOL0     C77551   2.440   2.516  11.953 -0.0527  0.0046  0.4254
  575MOL0     C77552   2.541   2.405  11.979 -0.7543  0.2744 -0.4520
  575MOL0     C77553   2.683   2.436  11.964  0.4428  0.4980  0.6662
  575MOL0     C77554   2.795   2.482  11.968 -0.8564 -0.8843 -0.6395
  575MOL0     C77555   2.607   2.725  11.417 -0.7912 -1.1214 -0.0976
  575MOL0     C77556   2.723   2.766  11.346  0.9031  0.4114 -0.1114
  575MOL0     C77557   2.702   2.855  11.231  0.0674 -0.3026  0.0474
  575MOL0     H77558   3.203   2.701  11.177  1.7694 -2.4369 -1.8080
  575MOL0     H77559   3.420   2.650  11.152 -0.2748 -1.9997  0.9583
  575MOL0     H77560   3.611   2.742  11.129 -1.6509 -2.5076  0.9578
  575MOL0     H77561   3.769   2.773  11.204 -0.0786  0.5312  2.1423
  575MOL0     H77562   3.775   2.581  11.035 -1.7791  1.7990 -0.7559
  575MOL0     H77563   3.669   2.488  11.137  0.5574  0.0665 -0.7534
  575MOL0     H77564   3.911   2.620  11.255  1.5124 -0.4974  0.4567
  575MOL0     H77565   3.923   2.478  11.149 -0.5473  1.9907 -1.3435
  575MOL0     H77566   3.783   2.485  11.415  1.7006  0.4031  2.7704
  575MOL0     H77567   3.805   2.341  11.319  0.4106 -0.8093  3.8720
  575MOL0     H77568   4.072   2.411  11.328 -0.1204  1.3050 -0.8737
  575MOL0     H77569   4.020   2.499  11.464 -0.8076  0.4441 -1.0571
  575MOL0     H77570   3.922   2.291  11.576 -0.2702  0.0209  0.8432
  575MOL0     H77571   3.942   2.196  11.424 -0.0546 -1.3960  1.2313
  575MOL0     H77572   4.105   2.121  11.584  2.7127  0.3690  0.8063
  575MOL0     H77573   4.169   2.295  11.597  2.0550  0.4562 -1.9680
  575MOL0     H77574   4.156   2.128  11.354 -1.8936  0.0464  0.3455
  575MOL0     H77575   4.249   2.288  11.376  0.3385  1.9454  3.0906
  575MOL0     H77576   4.463   2.278  11.563 -4.5280 -0.6449  3.7164
  575MOL0     H77577   4.626   2.172  11.719  1.8542  0.7438 -1.6333
  575MOL0     H77578   4.608   1.995  11.742 -2.2882  0.7624  0.1924
  575MOL0     H77579   4.774   1.944  11.576 -1.1696  0.0056 -1.4611
  575MOL0     H77580   4.776   2.112  11.531  1.6943 -2.4179 -1.2335
  575MOL0     H77581   4.835   2.000  11.817  2.0093  1.0679  0.9244
  575MOL0     H77582   4.850   2.167  11.773 -1.9165  0.0271 -0.1013
  575MOL0     H77583   5.029   2.107  11.612 -1.3911 -1.5683 -2.0379
  575MOL0     H77584   4.997   1.941  11.637 -1.1940  0.5092 -1.2419
  575MOL0     H77585   5.250   2.010  12.013  1.3993 -0.8634  1.1384
  575MOL0     H77586   5.487   1.965  11.988 -1.2763  2.8322 -0.1433
  575MOL0     H77587   5.808   1.789  12.016  0.2743 -0.5028 -1.1672
  575MOL0     H77588   6.055   1.767  12.074 -2.4881  0.0489  2.3362
  575MOL0     H77589   6.259   1.710  12.022 -2.7890 -0.7586 -1.3912
  575MOL0     H77590   6.314   1.738  11.856 -1.6519  5.0177 -1.7911
  575MOL0     H77591   6.510   1.717  12.001 -0.8506 -1.0682 -1.6823
  575MOL0     H77592   6.494   1.878  11.932 -3.6288 -1.0059 -2.1936
  575MOL0     H77593   6.416   1.953  12.163  0.1334  0.0300 -0.1203
  575MOL0     H77594   6.440   1.789  12.223  0.2004 -1.6195 -1.1248
  575MOL0     H77595   6.673   1.930  12.099  1.4888 -0.8137  1.4854
  575MOL0     H77596   6.679   1.785  12.188  1.2134  0.3701  2.1261
  575MOL0     H77597   6.591   1.899  12.390 -1.4077 -0.1049 -0.5282
  575MOL0     H77598   6.586   2.050  12.305  1.1440  0.4413  0.1256
  575MOL0     H77599   6.844   1.905  12.332  2.8140  2.6023 -2.6868
  575MOL0     H77600   6.824   2.073  12.280  1.6030 -0.7594 -0.2999
  575MOL0     H77601   6.734   1.974  12.551  0.1430 -0.3751  0.0632
  575MOL0     H77602   6.685   2.133  12.478 -1.4675  0.0007  1.2051
  575MOL0     H77603   6.866   2.171  12.632 -2.2884  1.5986 -2.4639
  575MOL0     H77604   6.966   2.047  12.555  2.3924  2.4592  1.5010
  575MOL0     H77605   6.130   2.090  11.804 -2.2667  2.3494 -1.0877
  575MOL0     H77606   5.875   2.127  11.773 -1.6578 -1.6705 -1.2076
  575MOL0     H77607   5.459   1.998  11.560 -3.5952 -0.7583 -1.3047
  575MOL0     H77608   5.225   2.032  11.579 -1.9482 -0.5905  0.6240
  575MOL0     H77609   3.533   2.770  11.542  0.0441  0.2707  0.2776
  575MOL0     H77610   3.299   2.838  11.587  2.6718  2.2146 -0.8910
  575MOL0     H77611   2.948   2.643  11.551  0.1345 -3.5454 -1.2595
  575MOL0     H77612   2.755   2.564  11.687 -1.4561  0.6144  0.6226
  575MOL0     H77613   2.555   2.450  11.711 -2.5329 -4.3807  1.3775
  575MOL0     H77614   2.377   2.490  11.693 -0.6524 -0.3790  3.3142
  575MOL0     H77615   2.379   2.676  11.824 -0.1502  1.7167 -3.1687
  575MOL0     H77616   2.545   2.677  11.841 -0.7741  0.7824 -2.5384
  575MOL0     H77617   2.341   2.474  11.937 -0.6125  1.1805  0.7200
  575MOL0     H77618   2.446   2.569  12.048  1.7004 -1.1892  1.0233
  575MOL0     H77619   2.544   2.389  12.087 -2.2802  1.2092 -0.2464
  575MOL0     H77620   2.519   2.311  11.927 -0.5804  1.2541 -2.3816
  575MOL0     H77621   2.886   2.533  11.944 -1.8892  1.9528  0.9054
  575MOL0     H77622   2.514   2.750  11.368  1.3851  1.5756 -3.3164
  575MOL0     H77623   2.784   2.927  11.236 -1.7137  1.9158 -1.0595
  575MOL0     H77624   2.712   2.801  11.137  0.3914  0.2464 -0.2373
  575MOL0     H77625   2.605   2.907  11.235 -0.4528 -1.1640 -0.9621
  576MOL0     O77626   1.733   3.334   8.900  0.6080  0.1725 -0.4756
  576MOL0     C77627   1.700   3.369   9.013 -1.1111  0.5769  0.2478
  576MOL0     O77628   1.791   3.421   9.103 -0.1573  0.0701  0.9937
  576MOL0     C77629   1.913   3.441   9.048  0.1792 -0.2128 -0.7140
  576MOL0     C77630   2.012   3.341   9.045  0.5164  0.0265  1.2412
  576MOL0     C77631   2.145   3.375   9.004  0.4986  0.5010 -0.1671
  576MOL0     C77632   2.181   3.507   8.971 -0.5118 -0.0327 -0.9630
  576MOL0     O77633   2.322   3.550   8.966 -0.1552  0.6467  0.3912
  576MOL0     C77634   2.355   3.660   8.877  0.1874 -0.0769  0.3541
  576MOL0     C77635   2.506   3.682   8.889  0.5947 -0.0877 -0.5697
  576MOL0     C77636   2.590   3.570   8.823 -0.1717 -0.0000  0.7005
  576MOL0     C77637   2.728   3.580   8.897 -0.2811 -1.2160 -0.3185
  576MOL0     C77638   2.841   3.512   8.827 -0.2551  0.8624  1.0329
  576MOL0     C77639   2.972   3.544   8.908  1.0829 -0.4376  0.2661
  576MOL0     C77640   3.096   3.465   8.845 -0.2617  0.1153  0.3724
  576MOL0     C77641   3.235   3.509   8.900 -0.1206 -0.3388  0.5821
  576MOL0     N77642   3.357   3.435   8.853  1.0536  0.2091 -0.0678
  576MOL0     C77643   3.479   3.426   8.907  0.4531  0.4659 -0.3860
  576MOL0     C77644   3.555   3.367   8.815 -0.2699 -0.6043 -0.2109
  576MOL0     C77645   3.705   3.332   8.832 -0.2452 -0.3271  0.0865
  576MOL0     C77646   3.791   3.400   8.942  0.0314  0.7563  0.8875
  576MOL0     C77647   3.821   3.551   8.910 -0.5676  0.2267 -0.6145
  576MOL0     C77648   3.935   3.568   8.809  1.0696 -0.4025 -0.0319
  576MOL0     O77649   4.064   3.521   8.870  1.1063 -0.0104 -0.3860
  576MOL0     C77650   4.171   3.610   8.866  0.2018  0.0512  0.1363
  576MOL0     C77651   4.261   3.614   8.977  0.7300 -0.3506 -0.6662
  576MOL0     C77652   4.347   3.720   9.000 -0.4208  0.0560  0.3582
  576MOL0     C77653   4.353   3.828   8.905  0.1543  0.3772 -0.5169
  576MOL0     C77654   4.439   3.942   8.931  0.1962 -0.4702  0.3988
  576MOL0     O77655   4.520   3.927   9.034 -0.0264 -0.3568 -0.2909
  576MOL0     C77656   4.606   4.026   9.068 -0.4097 -0.0932  0.7041
  576MOL0     C77657   4.741   3.992   9.061 -0.6544 -0.3018  0.6684
  576MOL0     C77658   4.830   4.088   9.093 -0.7397  0.2789 -1.3796
  576MOL0     C77659   4.787   4.214   9.156 -0.7533  0.1538 -0.9112
  576MOL0     O77660   4.871   4.311   9.201 -1.1171  0.2388 -0.2567
  576MOL0     C77661   4.997   4.310   9.133 -0.1215 -0.5576 -0.3119
  576MOL0     C77662   5.062   4.446   9.173 -0.7228 -0.2203 -0.1059
  576MOL0     C77663   5.218   4.446   9.144  0.4850  0.3216  0.4457
  576MOL0     C77664   5.276   4.578   9.178  0.4538  0.3625 -0.1609
  576MOL0     C77665   5.430   4.557   9.153  0.0712  0.7340  0.0894
  576MOL0     C77666   5.500   4.691   9.179  0.1232 -0.2248 -0.0233
  576MOL0     C77667   5.641   4.688   9.117  0.2729  0.6690 -0.3024
  576MOL0     C77668   5.721   4.796   9.183 -0.0077  0.2062  0.4603
  576MOL0    Cl77669   5.896   4.812   9.123  0.1774 -0.1848 -0.3827
  576MOL0     C77670   4.654   4.242   9.166  0.9070 -0.3285  0.4407
  576MOL0     C77671   4.564   4.154   9.107 -0.0532 -0.7814 -0.5886
  576MOL0     O77672   4.443   4.038   8.851  0.7866 -0.4021 -0.0358
  576MOL0     C77673   4.273   3.818   8.791  0.1253  0.0620  0.1485
  576MOL0     C77674   4.182   3.711   8.773 -0.3071  0.0129 -0.4314
  576MOL0     N77675   3.478   3.327   8.707  0.4189 -0.5125 -0.1961
  576MOL0     N77676   3.361   3.366   8.731 -0.3155 -0.0090 -0.5101
  576MOL0     C77677   2.079   3.604   8.971  0.0060 -0.2177 -0.5211
  576MOL0     C77678   1.944   3.568   9.003 -0.4251 -0.5504 -0.3349
  576MOL0     C77679   1.563   3.341   9.050  0.0894  0.1486 -0.1951
  576MOL0     C77680   1.465   3.365   8.953 -0.4024  0.6637  0.3462
  576MOL0     C77681   1.330   3.350   8.987 -0.2420 -0.2992  0.9185
  576MOL0     C77682   1.291   3.297   9.110  0.0038  0.0089 -0.0956
  576MOL0     O77683   1.163   3.290   9.139  0.0637 -0.2933 -0.2532
  576MOL0     C77684   1.113   3.259   9.272 -0.6117 -0.4254  0.9406
  576MOL0     C77685   1.103   3.113   9.303 -0.0473 -0.2200 -0.6153
  576MOL0     C77686   1.045   3.081   9.444 -0.0503  0.2419 -0.4084
  576MOL0     C77687   0.895   3.106   9.440  0.7189  0.2924  0.3915
  576MOL0     C77688   0.842   3.050   9.564  0.0034  0.9719 -0.0665
  576MOL0     C77689   0.809   3.008   9.670  0.0668 -0.1758  0.0206
  576MOL0     C77690   1.388   3.260   9.197  0.4353  0.4106  0.3392
  576MOL0     C77691   1.523   3.276   9.176  0.2424  0.4255  1.1674
  576MOL0     C77692   1.632   3.216   9.265 -0.5204  0.2405  0.0623
  576MOL0     H77693   1.983   3.240   9.070  2.0538 -1.0440 -1.0000
  576MOL0     H77694   2.230   3.308   9.011  0.1304  0.1260  1.0064
  576MOL0     H77695   2.328   3.632   8.775  0.9433  1.1432 -0.1943
  576MOL0     H77696   2.323   3.758   8.911  2.2860  0.7256  0.1397
  576MOL0     H77697   2.540   3.705   8.991 -0.8004  2.0008 -0.5211
  576MOL0     H77698   2.530   3.768   8.827  1.5890  0.2325  0.2202
  576MOL0     H77699   2.596   3.576   8.714 -1.9004 -1.7619  0.4421
  576MOL0     H77700   2.547   3.471   8.841  2.3186 -1.0115  1.4857
  576MOL0     H77701   2.763   3.681   8.917  0.1385 -1.9567  3.6687
  576MOL0     H77702   2.719   3.535   8.997  0.3660  1.2639  0.9284
  576MOL0     H77703   2.826   3.404   8.819  0.5666  0.6592  1.9905
  576MOL0     H77704   2.858   3.557   8.729  2.2838  0.6148  1.2867
  576MOL0     H77705   2.976   3.653   8.897  0.0279 -0.4207 -0.0325
  576MOL0     H77706   2.963   3.527   9.016  1.1728 -0.5671  0.2545
  576MOL0     H77707   3.088   3.480   8.737 -0.0215  2.0820  0.5799
  576MOL0     H77708   3.075   3.359   8.862  0.0984 -0.1591 -0.8381
  576MOL0     H77709   3.243   3.616   8.879  0.3274 -0.5602 -0.4854
  576MOL0     H77710   3.234   3.493   9.008 -4.9579 -0.3776  0.7442
  576MOL0     H77711   3.510   3.451   9.008  1.2607 -1.5482 -0.0938
  576MOL0     H77712   3.698   3.224   8.843 -1.6331 -0.3761 -0.9108
  576MOL0     H77713   3.765   3.355   8.744  4.0911  0.4663  2.9755
  576MOL0     H77714   3.750   3.376   9.040  0.1682 -1.2645  0.5003
  576MOL0     H77715   3.890   3.353   8.940 -0.5503 -0.5544  1.5968
  576MOL0     H77716   3.861   3.598   9.001  2.2065 -1.7801 -0.6747
  576MOL0     H77717   3.731   3.603   8.876  0.6895  3.1250  0.2063
  576MOL0     H77718   3.938   3.671   8.775  2.6762 -0.8775 -1.3978
  576MOL0     H77719   3.919   3.497   8.727  0.1477  0.2631 -0.4455
  576MOL0     H77720   4.236   3.541   9.053 -0.0799 -0.0850 -0.6620
  576MOL0     H77721   4.407   3.718   9.090  0.2894  0.0062 -0.1091
  576MOL0     H77722   4.772   3.902   9.009 -2.7739 -1.5687  1.4597
  576MOL0     H77723   4.935   4.062   9.081 -1.3044 -2.9474 -0.4476
  576MOL0     H77724   5.057   4.224   9.166 -3.1768 -2.5594  0.3737
  576MOL0     H77725   4.990   4.303   9.024 -0.1935 -1.0136 -0.2808
  576MOL0     H77726   5.019   4.529   9.115  0.3700  2.0164  2.0666
  576MOL0     H77727   5.057   4.463   9.282  2.0250  1.0968 -0.0879
  576MOL0     H77728   5.264   4.380   9.218  2.3616  2.6072  1.4514
  576MOL0     H77729   5.236   4.413   9.042 -1.5300  2.0561 -0.5426
  576MOL0     H77730   5.261   4.592   9.285 -2.5449 -2.1900 -0.0984
  576MOL0     H77731   5.244   4.666   9.120 -0.0427  0.8264  0.7899
  576MOL0     H77732   5.448   4.533   9.048  1.4895  0.6902  0.3296
  576MOL0     H77733   5.477   4.475   9.209  2.1758  2.1087  0.4720
  576MOL0     H77734   5.449   4.774   9.131  0.4550  1.0993  1.8043
  576MOL0     H77735   5.497   4.717   9.285 -2.3217  1.2528 -0.3817
  576MOL0     H77736   5.620   4.690   9.010 -2.5945 -0.7721  0.1149
  576MOL0     H77737   5.687   4.590   9.136  0.9804  0.7252 -1.6554
  576MOL0     H77738   5.680   4.897   9.184  0.0814  0.4204 -3.5492
  576MOL0     H77739   5.731   4.759   9.286 -2.9549 -1.6877  0.2066
  576MOL0     H77740   4.643   4.343   9.206  2.2556 -0.2993  0.7956
  576MOL0     H77741   4.457   4.168   9.121  0.1005  0.3783 -0.4369
  576MOL0     H77742   4.276   3.895   8.714 -0.9960  3.2212  3.0069
  576MOL0     H77743   4.121   3.720   8.684 -0.5308  0.3563 -0.2428
  576MOL0     H77744   2.107   3.706   8.948  1.9796 -0.3356  1.0308
  576MOL0     H77745   1.872   3.647   8.983 -1.1324 -1.6153 -2.2001
  576MOL0     H77746   1.491   3.399   8.853 -3.0547 -3.1844 -1.9412
  576MOL0     H77747   1.257   3.371   8.909  1.3793  0.0207 -0.5607
  576MOL0     H77748   1.018   3.311   9.289 -0.1558  0.0582  2.1937
  576MOL0     H77749   1.176   3.303   9.350 -1.4123 -0.6602  1.7380
  576MOL0     H77750   1.208   3.081   9.305 -0.1504 -0.6366  2.0696
  576MOL0     H77751   1.046   3.068   9.221  0.4789  1.5091 -1.9797
  576MOL0     H77752   1.088   3.140   9.526  1.1659 -0.6187 -0.3892
  576MOL0     H77753   1.071   2.978   9.472  2.5852  1.0180  0.2665
  576MOL0     H77754   0.874   3.214   9.437 -2.1314 -0.2037 -2.0417
  576MOL0     H77755   0.857   3.057   9.351  2.1560 -0.1099 -0.0219
  576MOL0     H77756   0.762   2.986   9.764  1.0108 -0.0788  0.5194
  576MOL0     H77757   1.375   3.225   9.299  0.9126  3.0918  1.4057
  576MOL0     H77758   1.576   3.153   9.334  1.0380 -2.8383 -1.2543
  576MOL0     H77759   1.697   3.146   9.211 -1.0302 -0.5893  0.5109
  576MOL0     H77760   1.694   3.289   9.318 -0.3593  1.5778 -1.8551
  577MOL0     O77761  11.096   9.455  10.891  0.0094  0.4893  0.3473
  577MOL0     C77762  11.033   9.515  10.982 -0.0638 -0.2098  0.2155
  577MOL0     O77763  11.073   9.629  11.037  0.2036 -0.0380  0.0496
  577MOL0     C77764  11.176   9.695  10.980 -0.1198  0.2254 -0.0618
  577MOL0     C77765  11.311   9.646  10.983  0.5677 -0.7417  0.0286
  577MOL0     C77766  11.414   9.722  10.926  0.3009 -0.5058 -0.3984
  577MOL0     C77767  11.387   9.837  10.857 -0.1864  0.1250 -0.0633
  577MOL0     O77768  11.492   9.914  10.808 -0.3259  0.6651 -0.4447
  577MOL0     C77769  11.620   9.921  10.888 -0.4528  0.3429 -0.2315
  577MOL0     C77770  11.632  10.025  10.994 -0.2544 -0.3134  0.1971
  577MOL0     C77771  11.539  10.001  11.113 -0.5665 -0.8016 -0.0678
  577MOL0     C77772  11.613   9.976  11.250  0.3169 -0.9622  0.2481
  577MOL0     C77773  11.513  10.001  11.364  0.2450 -0.1115  0.5831
  577MOL0     C77774  11.577  10.006  11.506 -0.0620 -0.6241  0.6816
  577MOL0     C77775  11.491  10.028  11.623  0.6099 -0.2808  0.2214
  577MOL0     C77776  11.581  10.036  11.737 -0.9448  0.2598  0.3169
  577MOL0     N77777  11.523   9.983  11.862 -0.2061  0.0623 -0.3545
  577MOL0     C77778  11.439  10.050  11.952 -0.5157  0.2011 -0.4616
  577MOL0     C77779  11.438   9.967  12.054  0.2482  0.2800  1.7160
  577MOL0     C77780  11.366   9.996  12.179 -0.6368 -0.1861  0.5253
  577MOL0     C77781  11.462  10.060  12.284  0.7885 -0.9921  0.6153
  577MOL0     C77782  11.598   9.992  12.299 -0.1385 -0.1401 -0.1491
  577MOL0     C77783  11.588   9.869  12.388 -0.5848  0.0598  0.2883
  577MOL0     O77784  11.716   9.859  12.465  0.7222  0.1879 -0.9270
  577MOL0     C77785  11.838   9.827  12.404 -0.6499  0.0281 -0.6084
  577MOL0     C77786  11.855   9.733  12.307  0.4018 -0.1423  0.0699
  577MOL0     C77787  11.982   9.707  12.249  0.6000 -0.6073 -0.0081
  577MOL0     C77788  12.095   9.762  12.309  0.0467  0.3678  0.1437
  577MOL0     C77789  12.231   9.730  12.253  0.6315  0.7400 -0.3230
  577MOL0     O77790  12.233   9.681  12.124 -0.7198 -0.2831  0.0675
  577MOL0     C77791  12.349   9.656  12.064 -0.2588 -0.1641 -1.2493
  577MOL0     C77792  12.433   9.545  12.099  0.4175  0.0954 -0.2729
  577MOL0     C77793  12.557   9.531  12.027 -0.3645  0.5125  0.0532
  577MOL0     C77794  12.594   9.618  11.921  0.6968 -0.6925  0.5080
  577MOL0     O77795  12.695   9.582  11.831 -0.5820  0.3390 -0.8805
  577MOL0     C77796  12.826   9.620  11.882  0.1884 -0.0152  0.2048
  577MOL0     C77797  12.937   9.626  11.773  0.3273  0.4301  1.0756
  577MOL0     C77798  12.907   9.737  11.668 -0.4082  0.7056  0.1327
  577MOL0     C77799  12.984   9.718  11.535  0.0137 -0.8183  0.2515
  577MOL0     C77800  13.131   9.720  11.562 -0.6210 -0.1217  0.2185
  577MOL0     C77801  13.185   9.702  11.419 -0.2581 -0.3745  0.1296
  577MOL0     C77802  13.342   9.679  11.424  0.3658  0.3039  0.2303
  577MOL0     C77803  13.413   9.805  11.476  0.8673 -0.3363 -0.1812
  577MOL0    Cl77804  13.583   9.791  11.452 -0.0403 -0.2628  0.0674
  577MOL0     C77805  12.516   9.727  11.891  0.2700 -0.4916 -0.5075
  577MOL0     C77806  12.393   9.749  11.968 -0.0193  0.7920 -0.3114
  577MOL0     O77807  12.323   9.750  12.325  0.1652  0.7935  0.5457
  577MOL0     C77808  12.077   9.845  12.421 -0.8769  0.2722 -0.5053
  577MOL0     C77809  11.953   9.883  12.463  0.7827 -0.9802  0.2266
  577MOL0     N77810  11.504   9.849  12.019  0.3192  0.0461 -0.3197
  577MOL0     N77811  11.556   9.860  11.904 -0.0343 -0.3968  0.3028
  577MOL0     C77812  11.258   9.891  10.869 -0.6196 -0.4627  0.4940
  577MOL0     C77813  11.157   9.821  10.931 -0.5063  0.2197 -0.5331
  577MOL0     C77814  10.906   9.458  11.033 -0.0579 -0.5020  0.8435
  577MOL0     C77815  10.881   9.480  11.172 -0.4006 -0.5017  0.3881
  577MOL0     C77816  10.766   9.415  11.232 -0.4001 -0.2189 -0.0928
  577MOL0     C77817  10.680   9.341  11.160  0.1177  0.8579 -0.2123
  577MOL0     O77818  10.584   9.282  11.241 -0.2504  0.3408 -0.2283
  577MOL0     C77819  10.449   9.252  11.193  0.6450 -1.5819  0.2390
  577MOL0     C77820  10.383   9.146  11.268 -0.3572 -0.0674 -0.8319
  577MOL0     C77821  10.363   9.175  11.416 -0.8228 -0.4511 -0.2672
  577MOL0     C77822  10.272   9.068  11.486 -0.0194 -0.9623  0.0381
  577MOL0     C77823  10.263   9.086  11.634 -0.1160 -0.3930 -0.0711
  577MOL0     C77824  10.263   9.104  11.753  0.2626  0.3363  0.5207
  577MOL0     C77825  10.709   9.323  11.027  0.5378  0.3198 -0.2296
  577MOL0     C77826  10.813   9.378  10.961 -1.1642 -0.0437 -0.1853
  577MOL0     C77827  10.818   9.346  10.812 -0.2356  0.2228 -0.2249
  577MOL0     H77828  11.329   9.542  11.009 -0.8537 -1.1482 -0.5305
  577MOL0     H77829  11.514   9.681  10.925  0.2580 -0.7653  1.7093
  577MOL0     H77830  11.653   9.821  10.917  0.8066  0.7444 -0.2514
  577MOL0     H77831  11.695   9.954  10.816 -0.9525  0.0523 -0.8887
  577MOL0     H77832  11.594  10.110  10.937  1.7327 -0.5695 -1.6562
  577MOL0     H77833  11.738  10.035  11.021 -0.2559 -0.7077  0.3473
  577MOL0     H77834  11.478   9.912  11.097  0.7057 -1.7574  0.1978
  577MOL0     H77835  11.485  10.096  11.124  1.6626  0.8097 -1.8636
  577MOL0     H77836  11.651   9.873  11.250  0.2516 -0.9924  0.9506
  577MOL0     H77837  11.699  10.044  11.260  1.6240 -1.7834 -3.7533
  577MOL0     H77838  11.465  10.097  11.342  1.1010  0.8598  2.6753
  577MOL0     H77839  11.435   9.925  11.365 -0.0273  0.1393 -0.3927
  577MOL0     H77840  11.635   9.913  11.512 -0.3800 -1.3439 -3.8800
  577MOL0     H77841  11.649  10.087  11.490  1.0721 -1.9863 -1.7035
  577MOL0     H77842  11.430   9.937  11.623  1.0247 -0.5905 -0.9922
  577MOL0     H77843  11.417  10.108  11.614 -1.5007 -2.1244  0.1787
  577MOL0     H77844  11.670   9.976  11.715 -1.5059 -0.0140 -1.2716
  577MOL0     H77845  11.614  10.140  11.751 -1.7298  0.3133  2.0692
  577MOL0     H77846  11.404  10.151  11.935 -0.9577  0.1354  0.0538
  577MOL0     H77847  11.284  10.066  12.164  0.1618  0.4534 -1.2062
  577MOL0     H77848  11.326   9.904  12.223  2.3052 -0.6171  2.6292
  577MOL0     H77849  11.480  10.160  12.245  0.9544 -1.4149 -0.4167
  577MOL0     H77850  11.410  10.069  12.380 -1.8637 -0.1409 -0.8058
  577MOL0     H77851  11.669  10.054  12.354 -0.7069 -0.2830  0.7672
  577MOL0     H77852  11.642   9.964  12.203  0.3989  1.6870 -0.4797
  577MOL0     H77853  11.573   9.777  12.331 -2.5471 -1.1700  2.6183
  577MOL0     H77854  11.507   9.878  12.461  0.2212  0.0070  1.2162
  577MOL0     H77855  11.767   9.684  12.267  0.2503  0.1385  0.0613
  577MOL0     H77856  11.990   9.646  12.160  2.6940  0.6602 -0.7491
  577MOL0     H77857  12.415   9.474  12.179  2.0755  1.4247  1.3601
  577MOL0     H77858  12.627   9.455  12.058 -1.9234 -1.8502 -1.8816
  577MOL0     H77859  12.813   9.719  11.927  0.2898  0.3558 -0.5719
  577MOL0     H77860  12.847   9.544  11.959  1.5240  1.0765  0.9480
  577MOL0     H77861  13.031   9.656  11.821  0.6297 -0.1970  0.8873
  577MOL0     H77862  12.948   9.528  11.725  2.1656  1.1768 -0.1747
  577MOL0     H77863  12.803   9.715  11.642  0.0767  1.0201 -2.3126
  577MOL0     H77864  12.917   9.839  11.707  1.5156  0.2780  0.8851
  577MOL0     H77865  12.960   9.805  11.474  0.3592  0.4541  1.8836
  577MOL0     H77866  12.957   9.625  11.483  1.0731 -0.2657 -1.3716
  577MOL0     H77867  13.156   9.631  11.620 -1.2963 -0.3080  0.2379
  577MOL0     H77868  13.161   9.813  11.611 -2.7963 -0.5418  2.5162
  577MOL0     H77869  13.138   9.617  11.369  0.6924 -1.1768  0.5639
  577MOL0     H77870  13.156   9.790  11.361 -1.8723 -0.6718  0.4420
  577MOL0     H77871  13.380   9.641  11.328 -1.2242 -0.3748 -0.1664
  577MOL0     H77872  13.370   9.607  11.501  2.1441  2.2920  1.5288
  577MOL0     H77873  13.369   9.898  11.438 -0.5305 -0.9115 -0.0538
  577MOL0     H77874  13.394   9.814  11.583  1.6507  2.6018 -0.2283
  577MOL0     H77875  12.538   9.791  11.807 -2.3654  3.2575  1.3820
  577MOL0     H77876  12.329   9.827  11.928 -2.5327 -0.9909  0.0267
  577MOL0     H77877  12.165   9.885  12.470  0.1897  0.1295 -2.2402
  577MOL0     H77878  11.935   9.950  12.546 -0.0741  0.1997 -0.8633
  577MOL0     H77879  11.230   9.976  10.808  0.5752 -0.6063 -0.2876
  577MOL0     H77880  11.052   9.848  10.937  0.1838  2.8257  3.2378
  577MOL0     H77881  10.944   9.548  11.229 -1.9276  2.3730 -1.1450
  577MOL0     H77882  10.745   9.427  11.338 -0.2043  1.7452 -0.2380
  577MOL0     H77883  10.449   9.220  11.088 -1.5916 -0.9844  0.0179
  577MOL0     H77884  10.392   9.344  11.176  0.4322 -1.9080 -0.9530
  577MOL0     H77885  10.441   9.055  11.253  1.7585  1.0382  0.1864
  577MOL0     H77886  10.283   9.123  11.229 -0.3508 -0.3647 -0.6722
  577MOL0     H77887  10.325   9.276  11.436 -0.5794 -0.1610 -1.2137
  577MOL0     H77888  10.463   9.171  11.461 -0.3272 -0.1416 -1.3196
  577MOL0     H77889  10.171   9.059  11.447 -0.8654 -0.5496  1.9865
  577MOL0     H77890  10.318   8.973  11.459  0.1795 -0.8683  0.0411
  577MOL0     H77891  10.280   9.104  11.859 -0.8928 -3.4765  0.8549
  577MOL0     H77892  10.642   9.254  10.978 -0.1897  0.2323  0.8555
  577MOL0     H77893  10.717   9.332  10.772  0.6157 -1.7688 -1.8481
  577MOL0     H77894  10.865   9.424  10.752  1.2759  0.2773  0.9593
  577MOL0     H77895  10.879   9.259  10.787  0.8869  1.3727 -1.6969
  578MOL0     O77896   4.045   9.349   7.473  0.5289 -0.5520 -1.0745
  578MOL0     C77897   3.999   9.246   7.531  0.2349  0.1467  0.9658
  578MOL0     O77898   4.065   9.168   7.622 -0.3967  0.5734  0.0364
  578MOL0     C77899   4.196   9.177   7.623 -0.3591 -0.9337 -0.5975
  578MOL0     C77900   4.286   9.233   7.528  0.7509  0.6526 -0.9872
  578MOL0     C77901   4.427   9.235   7.551 -0.0541  0.5869  0.7104
  578MOL0     C77902   4.475   9.166   7.661  0.1246 -0.3292 -0.3451
  578MOL0     O77903   4.610   9.177   7.672 -0.2752 -0.1408 -0.2887
  578MOL0     C77904   4.685   9.076   7.598 -0.5872  0.2098 -0.3205
  578MOL0     C77905   4.828   9.117   7.606  0.5858 -0.0071  0.6194
  578MOL0     C77906   4.885   9.088   7.736 -0.3128  0.3521  0.5140
  578MOL0     C77907   5.033   9.139   7.743 -0.2305 -0.1280  0.7705
  578MOL0     C77908   5.090   9.107   7.880  0.1899  0.3846 -0.7158
  578MOL0     C77909   5.239   9.144   7.878  0.0717  0.2342 -0.2377
  578MOL0     C77910   5.310   9.113   8.011  0.0168 -0.0220 -0.1347
  578MOL0     C77911   5.460   9.152   8.011 -0.6125 -0.2186  0.0143
  578MOL0     N77912   5.537   9.107   8.121  0.1296  0.4864  0.1468
  578MOL0     C77913   5.516   9.154   8.251 -0.7484 -0.3588  0.0538
  578MOL0     C77914   5.602   9.084   8.324  0.5540 -0.2254  0.0765
  578MOL0     C77915   5.630   9.088   8.468 -0.2093 -0.0577  0.0589
  578MOL0     C77916   5.747   9.169   8.521 -0.3387 -0.1992  0.3758
  578MOL0     C77917   5.737   9.145   8.672 -0.3435  0.0014 -0.3633
  578MOL0     C77918   5.869   9.189   8.735  0.0324  0.6285  1.0289
  578MOL0     O77919   5.958   9.070   8.735 -0.4485  0.1277 -0.2657
  578MOL0     C77920   6.084   9.082   8.801 -0.3994 -0.3666 -0.5872
  578MOL0     C77921   6.121   9.197   8.887  0.3850 -0.1037  0.1085
  578MOL0     C77922   6.251   9.208   8.940 -0.3668 -0.3985  0.1954
  578MOL0     C77923   6.356   9.118   8.908  0.6131 -0.9610  0.5928
  578MOL0     C77924   6.498   9.144   8.935  0.5228  0.0909  0.4883
  578MOL0     O77925   6.525   9.261   8.998 -0.8392  0.3517  0.2632
  578MOL0     C77926   6.654   9.291   9.041 -0.6565 -0.5792  0.7030
  578MOL0     C77927   6.666   9.338   9.178 -0.9034 -0.2449 -0.3154
  578MOL0     C77928   6.783   9.385   9.231  0.1813 -1.4260 -0.2492
  578MOL0     C77929   6.899   9.383   9.152  0.5592  0.4417  0.2311
  578MOL0     O77930   7.013   9.417   9.212 -0.1796 -0.3504 -0.1552
  578MOL0     C77931   7.137   9.422   9.134 -0.0615 -0.4985 -0.1333
  578MOL0     C77932   7.244   9.504   9.215 -0.0462 -0.0673 -0.5707
  578MOL0     C77933   7.370   9.516   9.135  0.6570  0.5922  0.5839
  578MOL0     C77934   7.468   9.619   9.185 -0.1519  0.1556  0.0884
  578MOL0     C77935   7.591   9.640   9.095 -0.3609  0.9297 -0.3688
  578MOL0     C77936   7.562   9.708   8.956  0.0012 -1.6021  0.1491
  578MOL0     C77937   7.680   9.794   8.921 -0.0356 -0.6928  0.2931
  578MOL0     C77938   7.689   9.834   8.773 -0.0979  0.2075 -0.0250
  578MOL0    Cl77939   7.700   9.694   8.654  0.1406 -0.2705  0.2193
  578MOL0     C77940   6.889   9.341   9.014 -0.2742  0.1178  0.0573
  578MOL0     C77941   6.771   9.293   8.958  0.3993 -0.1433 -0.1054
  578MOL0     O77942   6.580   9.064   8.898 -0.0337  0.2695 -0.1475
  578MOL0     C77943   6.316   9.006   8.835 -0.0918 -0.0518  0.5868
  578MOL0     C77944   6.183   8.993   8.779  0.4705 -0.3844 -0.4027
  578MOL0     N77945   5.675   9.001   8.231  0.0477 -0.4108 -0.5110
  578MOL0     N77946   5.624   9.008   8.109 -0.3003 -0.2424 -0.2640
  578MOL0     C77947   4.395   9.100   7.756  0.0453  1.2511  0.7086
  578MOL0     C77948   4.260   9.110   7.735  0.3753  0.4928  0.3179
  578MOL0     C77949   3.856   9.212   7.509  0.3027 -1.4803  0.3637
  578MOL0     C77950   3.803   9.093   7.567 -0.1560 -0.5890 -1.3723
  578MOL0     C77951   3.671   9.047   7.568 -0.4348  0.5941 -0.4244
  578MOL0     C77952   3.578   9.126   7.496 -0.3650  0.2018  0.0903
  578MOL0     O77953   3.443   9.106   7.503 -0.4108  0.4684  0.4975
  578MOL0     C77954   3.380   8.975   7.527 -0.1283 -0.0957 -0.5762
  578MOL0     C77955   3.400   8.890   7.404  0.5541  0.9236  0.6677
  578MOL0     C77956   3.336   8.745   7.421 -0.2354  0.1676  0.7474
  578MOL0     C77957   3.394   8.649   7.319  0.2442  0.5151 -0.5814
  578MOL0     C77958   3.325   8.518   7.340 -0.7628  0.0247 -0.7327
  578MOL0     C77959   3.261   8.416   7.351  0.1472  0.6778  0.1136
  578MOL0     C77960   3.625   9.237   7.428  0.0939  0.0153  0.1732
  578MOL0     C77961   3.757   9.289   7.434 -0.4090 -0.5308  0.2250
  578MOL0     C77962   3.789   9.416   7.367  0.6043  0.3642  0.2853
  578MOL0     H77963   4.263   9.269   7.428 -2.5820 -0.3182 -0.6648
  578MOL0     H77964   4.503   9.281   7.489  2.7592  1.4645  4.4788
  578MOL0     H77965   4.685   8.974   7.636 -1.1170 -0.3211 -1.6883
  578MOL0     H77966   4.650   9.069   7.495  0.9359 -1.7688 -0.7517
  578MOL0     H77967   4.844   9.220   7.572  1.1944  0.3496  1.9241
  578MOL0     H77968   4.884   9.059   7.532  0.5393  1.4055 -0.5778
  578MOL0     H77969   4.879   8.984   7.769  1.8833  0.3782  1.1581
  578MOL0     H77970   4.837   9.161   7.803 -2.9282  2.4119 -3.2346
  578MOL0     H77971   5.092   9.083   7.669 -3.0203  1.3380 -2.9072
  578MOL0     H77972   5.036   9.248   7.742 -0.3929 -0.1197  1.1682
  578MOL0     H77973   5.026   9.162   7.949 -2.2500  0.3535 -2.7871
  578MOL0     H77974   5.086   9.000   7.903  0.2307  1.0097  2.5919
  578MOL0     H77975   5.289   9.074   7.809  1.0878 -0.5240  1.2133
  578MOL0     H77976   5.261   9.249   7.854 -1.2689  1.2253  2.4421
  578MOL0     H77977   5.302   9.007   8.036  3.0427 -0.1028  0.9155
  578MOL0     H77978   5.277   9.169   8.099  0.6661 -2.0526  1.4847
  578MOL0     H77979   5.511   9.108   7.925  0.5189  2.1602 -0.6339
  578MOL0     H77980   5.473   9.261   8.011 -1.3907 -0.1256  0.3367
  578MOL0     H77981   5.462   9.242   8.284  1.2358  1.4447 -1.2016
  578MOL0     H77982   5.540   9.126   8.516  0.9932  0.5944  1.9240
  578MOL0     H77983   5.642   8.985   8.502 -3.4299  0.0529  1.8593
  578MOL0     H77984   5.842   9.132   8.482 -0.9547 -1.7400  0.2564
  578MOL0     H77985   5.741   9.276   8.496  0.2230 -0.5685 -1.5191
  578MOL0     H77986   5.716   9.039   8.691  2.9714 -0.4765  1.2666
  578MOL0     H77987   5.654   9.206   8.708 -0.1740  1.2763 -2.0486
  578MOL0     H77988   5.846   9.205   8.841  1.1040  0.1996  1.3441
  578MOL0     H77989   5.903   9.279   8.682  0.3978  0.5159  1.0721
  578MOL0     H77990   6.053   9.281   8.887  0.0981 -0.2967  2.1286
  578MOL0     H77991   6.280   9.288   9.007  0.0162  0.3768 -0.8702
  578MOL0     H77992   6.583   9.340   9.247  0.1581  3.3475  1.0884
  578MOL0     H77993   6.761   9.427   9.330 -2.4194 -1.3286 -0.7892
  578MOL0     H77994   7.177   9.321   9.115 -1.5484 -0.7117 -2.6054
  578MOL0     H77995   7.124   9.476   9.040 -1.4680 -2.2664 -1.0079
  578MOL0     H77996   7.209   9.605   9.238 -0.9372 -0.3895 -0.4772
  578MOL0     H77997   7.261   9.447   9.307 -1.9205 -2.6536 -1.6974
  578MOL0     H77998   7.418   9.418   9.133  1.2290  0.8747 -1.0349
  578MOL0     H77999   7.348   9.538   9.030 -0.1701  0.8862  0.8054
  578MOL0     H78000   7.500   9.580   9.282  0.3511  0.1202 -0.0892
  578MOL0     H78001   7.421   9.718   9.188  0.6109  0.4996  1.0058
  578MOL0     H78002   7.625   9.537   9.086 -2.7054 -0.1179  1.5932
  578MOL0     H78003   7.665   9.694   9.155  0.9669 -1.3961  0.1928
  578MOL0     H78004   7.538   9.622   8.893  2.7860 -1.5344 -1.1415
  578MOL0     H78005   7.475   9.774   8.965 -1.9758 -3.3871 -3.3199
  578MOL0     H78006   7.775   9.756   8.958  0.9633  2.9746  1.9412
  578MOL0     H78007   7.676   9.893   8.967  2.5056  0.2297 -1.2389
  578MOL0     H78008   7.594   9.884   8.752  0.1952  0.9434  0.3552
  578MOL0     H78009   7.775   9.901   8.768  1.2378 -1.1932  2.2261
  578MOL0     H78010   6.978   9.340   8.952 -1.4621 -1.8216 -1.7682
  578MOL0     H78011   6.776   9.254   8.858 -1.5930  0.0026 -0.3093
  578MOL0     H78012   6.391   8.935   8.802  1.4683  2.3099 -1.2462
  578MOL0     H78013   6.162   8.916   8.705  2.8181 -1.4224 -0.0756
  578MOL0     H78014   4.443   9.043   7.835 -0.0242  1.3449  0.8188
  578MOL0     H78015   4.201   9.044   7.799 -1.0109 -0.5991 -1.9509
  578MOL0     H78016   3.871   9.029   7.622 -1.0438 -0.8292 -0.5204
  578MOL0     H78017   3.646   8.956   7.621  0.6227 -0.8606 -2.2864
  578MOL0     H78018   3.272   8.982   7.545 -0.1322  2.3082 -1.2443
  578MOL0     H78019   3.419   8.934   7.621 -0.9020  2.8389  1.1619
  578MOL0     H78020   3.508   8.888   7.385  0.5067  1.9231  0.2362
  578MOL0     H78021   3.338   8.938   7.328  0.0389 -2.6589 -1.3939
  578MOL0     H78022   3.228   8.752   7.401 -0.3205  2.4882  1.6169
  578MOL0     H78023   3.343   8.703   7.522  0.5543  1.2802  1.1769
  578MOL0     H78024   3.394   8.692   7.219 -2.4041 -0.8742 -1.2718
  578MOL0     H78025   3.499   8.629   7.341  0.5646  0.8731 -1.7395
  578MOL0     H78026   3.200   8.329   7.367 -0.0601  0.4934 -1.4850
  578MOL0     H78027   3.549   9.286   7.368 -0.1989 -3.2166 -2.3316
  578MOL0     H78028   3.813   9.494   7.440  0.5066  0.4256  0.2524
  578MOL0     H78029   3.880   9.392   7.310  1.6567 -1.0948  2.4511
  578MOL0     H78030   3.718   9.458   7.295  2.6095  1.6291 -1.0812
  579MOL0     O78031   5.367   2.294   2.113 -0.2030  0.2954 -0.4131
  579MOL0     C78032   5.318   2.401   2.132  0.5298  0.2478 -0.8487
  579MOL0     O78033   5.369   2.511   2.197  0.0322  0.2874 -0.6752
  579MOL0     C78034   5.497   2.518   2.247 -0.3046 -0.6167  0.2313
  579MOL0     C78035   5.605   2.437   2.209 -0.5518  0.4770  0.0522
  579MOL0     C78036   5.733   2.460   2.257 -1.0707 -0.0445 -0.4167
  579MOL0     C78037   5.758   2.548   2.355  0.4382 -0.6682 -0.3466
  579MOL0     O78038   5.891   2.555   2.386  0.0195  0.2848 -0.1924
  579MOL0     C78039   5.932   2.676   2.454  0.6171  0.0546  0.5608
  579MOL0     C78040   6.073   2.656   2.506 -0.4323 -0.4911 -0.3654
  579MOL0     C78041   6.178   2.610   2.404 -0.6936  0.3751 -0.5427
  579MOL0     C78042   6.317   2.593   2.463  0.1355  0.2380 -0.3464
  579MOL0     C78043   6.427   2.571   2.366 -1.2105 -0.0833  0.5732
  579MOL0     C78044   6.561   2.572   2.443 -0.3358 -0.2396  0.0665
  579MOL0     C78045   6.682   2.590   2.356 -0.0138  0.1530 -0.8694
  579MOL0     C78046   6.813   2.579   2.441 -0.8058 -0.7554 -0.7904
  579MOL0     N78047   6.865   2.442   2.469 -0.5744 -0.3020 -0.2792
  579MOL0     C78048   6.986   2.388   2.437  0.5479  0.2289 -0.0198
  579MOL0     C78049   6.977   2.261   2.498  0.4955 -0.7686  0.4524
  579MOL0     C78050   7.080   2.152   2.493 -0.6526  0.5792  0.5252
  579MOL0     C78051   7.192   2.166   2.601  0.7075  0.1100 -0.2316
  579MOL0     C78052   7.271   2.034   2.628  0.3987 -0.8603  0.4691
  579MOL0     C78053   7.420   2.056   2.635  0.0981  0.2045  0.6365
  579MOL0     O78054   7.473   2.077   2.504 -0.1129  0.7272  0.1212
  579MOL0     C78055   7.611   2.101   2.497  0.9829  0.9356 -0.4588
  579MOL0     C78056   7.686   2.169   2.594  0.1646  0.5700 -0.4734
  579MOL0     C78057   7.824   2.196   2.568  0.5625 -0.5948  0.0585
  579MOL0     C78058   7.890   2.143   2.454  0.3500  0.6415  0.2762
  579MOL0     C78059   8.033   2.168   2.449  0.5704 -0.2383  0.3984
  579MOL0     O78060   8.099   2.250   2.534 -0.7404 -0.3090 -0.1677
  579MOL0     C78061   8.232   2.289   2.505  0.0989 -0.8771  0.3098
  579MOL0     C78062   8.341   2.248   2.592  0.1650 -0.9964 -0.1559
  579MOL0     C78063   8.476   2.261   2.557  0.8427 -0.5645 -0.2019
  579MOL0     C78064   8.509   2.311   2.433 -0.7192 -0.5039  0.0201
  579MOL0     O78065   8.635   2.337   2.382 -0.1387 -0.6422  0.3073
  579MOL0     C78066   8.737   2.243   2.426 -0.1411  0.1461  0.2206
  579MOL0     C78067   8.862   2.237   2.343  0.4982  0.2103 -0.3848
  579MOL0     C78068   8.935   2.378   2.319  0.2568  0.2018 -0.5780
  579MOL0     C78069   9.081   2.372   2.279  0.0200 -1.0064 -0.5914
  579MOL0     C78070   9.187   2.382   2.398  0.2163 -0.8118 -0.1845
  579MOL0     C78071   9.333   2.396   2.353  1.1491 -0.3868  0.2735
  579MOL0     C78072   9.433   2.359   2.468  0.5246 -0.3170 -0.2279
  579MOL0     C78073   9.563   2.354   2.399 -0.6858  0.1104 -0.4445
  579MOL0    Cl78074   9.623   2.513   2.339  0.3251 -0.0040  0.3725
  579MOL0     C78075   8.410   2.347   2.345 -1.6842  0.0762 -0.1814
  579MOL0     C78076   8.275   2.336   2.385  0.3755  0.5659  0.0528
  579MOL0     O78077   8.090   2.107   2.358  0.7135  0.7939 -0.4272
  579MOL0     C78078   7.814   2.059   2.370  0.0733 -0.1090  0.5634
  579MOL0     C78079   7.677   2.048   2.390  0.5333 -0.5146  0.1492
  579MOL0     N78080   6.849   2.245   2.551 -0.0420 -0.0811  0.3053
  579MOL0     N78081   6.786   2.355   2.533 -0.5704  0.1998 -0.3811
  579MOL0     C78082   5.656   2.638   2.399  0.4242 -0.6102 -0.3219
  579MOL0     C78083   5.524   2.625   2.333 -0.1587 -0.7467 -0.6701
  579MOL0     C78084   5.175   2.414   2.078  0.3702  0.1393 -0.1606
  579MOL0     C78085   5.085   2.503   2.143  0.1257 -0.4493  0.4233
  579MOL0     C78086   4.948   2.504   2.117  0.2480  1.1326 -0.3088
  579MOL0     C78087   4.885   2.410   2.041  0.4417  0.1799 -0.0269
  579MOL0     O78088   4.749   2.399   2.024 -0.0499 -0.0442  1.0581
  579MOL0     C78089   4.654   2.456   2.114  0.2625  0.2352 -0.7508
  579MOL0     C78090   4.593   2.343   2.192  0.1237  0.0724  0.2878
  579MOL0     C78091   4.692   2.287   2.290 -0.1890 -0.0777 -0.4222
  579MOL0     C78092   4.633   2.156   2.348 -0.0579  0.3741 -0.5852
  579MOL0     C78093   4.506   2.171   2.410  0.0360 -0.2719 -0.0368
  579MOL0     C78094   4.396   2.151   2.461 -0.1248 -0.3549  0.1210
  579MOL0     C78095   4.966   2.326   1.966 -0.3824  0.5691  0.3476
  579MOL0     C78096   5.110   2.331   1.981 -0.2490  0.3579  0.1317
  579MOL0     C78097   5.178   2.230   1.894  0.4104 -0.4545  0.0708
  579MOL0     H78098   5.603   2.367   2.126  1.6671 -0.2923  0.5815
  579MOL0     H78099   5.810   2.399   2.212 -0.7161 -0.5861  0.9110
  579MOL0     H78100   5.920   2.764   2.390 -5.1752  0.1073  1.1336
  579MOL0     H78101   5.869   2.697   2.541  1.1550  0.9481  0.7443
  579MOL0     H78102   6.079   2.585   2.589  0.7871  0.9717  0.8449
  579MOL0     H78103   6.110   2.749   2.549  0.2462 -1.2170  0.6760
  579MOL0     H78104   6.178   2.674   2.316 -1.2485  2.2605  0.7571
  579MOL0     H78105   6.151   2.509   2.373 -3.3517  0.9065 -0.1586
  579MOL0     H78106   6.336   2.686   2.517  0.1410 -0.1315  0.2905
  579MOL0     H78107   6.307   2.515   2.539 -2.5918  0.4859 -0.3584
  579MOL0     H78108   6.408   2.481   2.307 -0.7089 -0.1318  0.4784
  579MOL0     H78109   6.433   2.658   2.300  1.4537  1.1779  2.2753
  579MOL0     H78110   6.557   2.650   2.519 -3.0380 -1.8808  1.7489
  579MOL0     H78111   6.582   2.486   2.507  3.7807  1.9233  2.0777
  579MOL0     H78112   6.670   2.690   2.313  0.3151 -0.1707 -1.7286
  579MOL0     H78113   6.678   2.512   2.279  0.6079  0.0942 -0.8402
  579MOL0     H78114   6.895   2.625   2.385 -1.3264 -2.5762 -3.2142
  579MOL0     H78115   6.793   2.631   2.535  1.0983 -0.6659 -0.3944
  579MOL0     H78116   7.066   2.434   2.381  0.7311 -0.4113 -0.2977
  579MOL0     H78117   7.027   2.057   2.501 -1.8714  1.2693  0.9509
  579MOL0     H78118   7.123   2.159   2.392  3.1918  2.8868  2.0935
  579MOL0     H78119   7.258   2.251   2.582  0.7495  0.5182  1.5194
  579MOL0     H78120   7.135   2.187   2.692 -1.3758 -1.7755 -1.0067
  579MOL0     H78121   7.248   1.962   2.549 -1.3774 -1.0699  1.1177
  579MOL0     H78122   7.230   1.980   2.714  0.7405 -1.2874  0.3668
  579MOL0     H78123   7.461   1.965   2.679  1.1016  0.2161 -0.2366
  579MOL0     H78124   7.445   2.143   2.697  0.0310  0.9182 -0.3156
  579MOL0     H78125   7.639   2.205   2.685 -0.0654 -1.7208  0.3924
  579MOL0     H78126   7.875   2.265   2.635 -0.3862  0.0279  0.1477
  579MOL0     H78127   8.317   2.198   2.685  0.5801 -0.5438  0.1988
  579MOL0     H78128   8.553   2.220   2.621  1.4972  1.7135  0.5736
  579MOL0     H78129   8.769   2.276   2.525  1.2590 -0.7061  0.0897
  579MOL0     H78130   8.698   2.141   2.436 -1.1312  0.5365  0.4662
  579MOL0     H78131   8.915   2.156   2.395 -0.6457 -1.1160 -1.1949
  579MOL0     H78132   8.830   2.196   2.247  2.4079 -1.1704 -0.5040
  579MOL0     H78133   8.881   2.426   2.237 -1.9874  1.9076  1.7174
  579MOL0     H78134   8.920   2.449   2.401  0.4521  1.1907 -1.3728
  579MOL0     H78135   9.095   2.461   2.217  0.8786  1.1236  2.4114
  579MOL0     H78136   9.095   2.286   2.213  0.3340  0.7456 -2.9639
  579MOL0     H78137   9.173   2.297   2.466  0.0264 -0.8309 -0.2457
  579MOL0     H78138   9.161   2.469   2.458 -2.3472 -2.3666  1.1078
  579MOL0     H78139   9.342   2.321   2.274  0.7859  0.6678 -0.8086
  579MOL0     H78140   9.340   2.498   2.313  0.6418 -0.6310 -0.4553
  579MOL0     H78141   9.419   2.259   2.511  2.0721 -2.1363 -3.5585
  579MOL0     H78142   9.425   2.436   2.546 -1.1608 -0.8687  0.1997
  579MOL0     H78143   9.637   2.325   2.474 -1.1600  1.2190  0.4726
  579MOL0     H78144   9.567   2.279   2.319  0.0623  0.2354 -0.5336
  579MOL0     H78145   8.446   2.397   2.256  2.2025 -1.2129  0.4623
  579MOL0     H78146   8.205   2.363   2.308  0.5094 -1.5459 -0.8904
  579MOL0     H78147   7.850   2.012   2.279 -0.2452 -0.0080  0.3840
  579MOL0     H78148   7.621   1.982   2.324  0.2770 -1.3142  1.1384
  579MOL0     H78149   5.663   2.714   2.475  1.2541 -2.8176  1.9335
  579MOL0     H78150   5.444   2.692   2.360  1.2045  0.2004  1.2434
  579MOL0     H78151   5.111   2.555   2.234 -0.4264 -0.9870  0.8916
  579MOL0     H78152   4.896   2.575   2.181 -0.1662  0.7746 -0.2473
  579MOL0     H78153   4.587   2.507   2.045  0.6532  2.4568  0.4425
  579MOL0     H78154   4.691   2.529   2.186  1.0409  1.6486 -2.5256
  579MOL0     H78155   4.571   2.258   2.125 -0.5334 -0.1848  0.8196
  579MOL0     H78156   4.498   2.372   2.237 -0.3139 -1.7281  0.6291
  579MOL0     H78157   4.696   2.364   2.368 -4.6917  0.6694 -0.6834
  579MOL0     H78158   4.786   2.275   2.235 -0.8265 -3.8861 -0.9534
  579MOL0     H78159   4.620   2.077   2.273 -0.2059  0.5200 -0.7140
  579MOL0     H78160   4.703   2.124   2.426  1.1913  3.7178 -0.1769
  579MOL0     H78161   4.306   2.128   2.515  0.8843  0.8632  2.4492
  579MOL0     H78162   4.921   2.255   1.898  0.3046 -0.3969  0.8840
  579MOL0     H78163   5.110   2.195   1.815  0.9078 -1.1586 -0.0607
  579MOL0     H78164   5.259   2.277   1.838 -0.2702  1.1110  0.3619
  579MOL0     H78165   5.206   2.136   1.943  0.5953 -0.9005 -0.8625
  580MOL0     O78166   2.975   6.600   1.187 -0.0116  0.3013  0.3864
  580MOL0     C78167   2.931   6.489   1.146  1.2352  0.0748  0.4601
  580MOL0     O78168   2.997   6.367   1.152 -0.3024 -0.5273 -0.2966
  580MOL0     C78169   3.126   6.370   1.201  0.2552  0.5287 -0.3858
  580MOL0     C78170   3.154   6.291   1.309 -0.6877  0.0093 -0.3093
  580MOL0     C78171   3.282   6.281   1.367  0.2893  0.0566  0.5365
  580MOL0     C78172   3.389   6.345   1.310  0.2057  0.2580  0.8932
  580MOL0     O78173   3.514   6.333   1.367 -0.1857 -0.1841 -0.0615
  580MOL0     C78174   3.631   6.338   1.287  0.4342 -0.4943 -0.4156
  580MOL0     C78175   3.759   6.317   1.371 -0.2735 -0.0385 -0.1871
  580MOL0     C78176   3.774   6.165   1.409  0.3274  1.0153 -0.2556
  580MOL0     C78177   3.920   6.126   1.447 -0.9715 -0.0059 -0.4820
  580MOL0     C78178   3.944   5.988   1.501 -0.0129  0.8773  0.2454
  580MOL0     C78179   4.095   5.945   1.501  0.9805  1.1354 -0.7081
  580MOL0     C78180   4.148   5.895   1.365  0.3080  0.1741 -0.3150
  580MOL0     C78181   4.071   5.769   1.332 -0.1201  0.6212  0.4736
  580MOL0     N78182   4.066   5.665   1.426  0.2286  0.9404  0.1291
  580MOL0     C78183   4.167   5.581   1.449 -1.3258  1.0819  0.4668
  580MOL0     C78184   4.120   5.494   1.543 -0.3457  0.8008 -0.6057
  580MOL0     C78185   4.201   5.384   1.607 -0.4107  0.3013  0.4134
  580MOL0     C78186   4.230   5.433   1.736 -0.0134 -0.0988 -0.3868
  580MOL0     C78187   4.316   5.337   1.818  0.0769  0.2097 -0.3992
  580MOL0     C78188   4.466   5.364   1.806  0.6815  0.5063 -0.0268
  580MOL0     O78189   4.513   5.326   1.677 -0.4585  0.0468  0.0444
  580MOL0     C78190   4.648   5.340   1.647 -0.9331 -0.4621  0.0508
  580MOL0     C78191   4.750   5.379   1.736  0.3146 -0.0717  0.6447
  580MOL0     C78192   4.885   5.380   1.702  0.3610 -0.7047 -0.5991
  580MOL0     C78193   4.925   5.341   1.574 -0.3152  0.3373 -0.3195
  580MOL0     C78194   5.067   5.328   1.533  0.1772 -0.1581 -0.3127
  580MOL0     O78195   5.099   5.249   1.427  0.1738  0.3394 -0.2070
  580MOL0     C78196   5.236   5.231   1.405 -0.2396  0.0076  0.8162
  580MOL0     C78197   5.312   5.333   1.350  0.3994 -0.5812  0.1891
  580MOL0     C78198   5.449   5.322   1.340  0.4718 -0.5114 -0.7245
  580MOL0     C78199   5.519   5.204   1.381 -0.8736  0.3080  0.2279
  580MOL0     O78200   5.658   5.183   1.375  0.6263  0.2048  0.4995
  580MOL0     C78201   5.743   5.278   1.306  0.4334 -0.1917 -0.5547
  580MOL0     C78202   5.889   5.233   1.338  0.0572  0.5681  0.3207
  580MOL0     C78203   5.905   5.107   1.248  0.0456 -0.7359 -0.3094
  580MOL0     C78204   6.023   5.026   1.269 -0.4154 -0.3648 -0.3445
  580MOL0     C78205   6.018   4.882   1.213  0.4767  0.4377 -0.0180
  580MOL0     C78206   5.975   4.860   1.068  0.4836  0.2961 -0.3010
  580MOL0     C78207   5.966   4.716   1.044 -0.1742 -0.3137 -0.0856
  580MOL0     C78208   5.923   4.683   0.901  0.5428  0.9248 -0.1758
  580MOL0    Cl78209   5.753   4.748   0.855 -0.4346  0.4314  0.2222
  580MOL0     C78210   5.436   5.099   1.427 -0.1819 -0.9636  0.7037
  580MOL0     C78211   5.297   5.112   1.441 -0.1088 -0.6153  0.6467
  580MOL0     O78212   5.152   5.379   1.613 -0.2460  0.4959 -0.1371
  580MOL0     C78213   4.824   5.307   1.482 -0.1842  0.3525 -0.2281
  580MOL0     C78214   4.692   5.297   1.521 -0.0462  0.1712  0.2436
  580MOL0     N78215   3.991   5.524   1.571 -0.1684 -0.1887  0.3778
  580MOL0     N78216   3.958   5.625   1.506  0.1620  0.2608  0.3160
  580MOL0     C78217   3.364   6.415   1.182 -0.2600  0.1049  0.6186
  580MOL0     C78218   3.230   6.429   1.138  0.1672 -0.4390  0.4103
  580MOL0     C78219   2.810   6.489   1.056  1.0957  0.1865  0.3635
  580MOL0     C78220   2.762   6.365   1.017  0.1572 -0.0272  0.0036
  580MOL0     C78221   2.647   6.348   0.938  0.3762 -0.9322 -1.1339
  580MOL0     C78222   2.579   6.462   0.894 -0.1723 -0.7676  0.4650
  580MOL0     O78223   2.462   6.443   0.832  0.2391 -0.3610  0.6134
  580MOL0     C78224   2.403   6.549   0.766 -0.6992 -0.4668  0.2232
  580MOL0     C78225   2.277   6.505   0.691  0.0507  0.5114 -0.0647
  580MOL0     C78226   2.281   6.370   0.625 -0.1607  0.3419 -0.5591
  580MOL0     C78227   2.154   6.341   0.553 -0.0514 -0.0435 -0.2106
  580MOL0     C78228   2.175   6.232   0.452 -0.9464 -0.1477 -0.5820
  580MOL0     C78229   2.166   6.134   0.380 -0.4681  0.4391 -0.2684
  580MOL0     C78230   2.624   6.588   0.936  0.2973  0.3088  0.2440
  580MOL0     C78231   2.737   6.604   1.017  0.2097 -0.6480 -0.5349
  580MOL0     C78232   2.758   6.753   1.060 -0.5734  0.0769 -0.2104
  580MOL0     H78233   3.064   6.243   1.346 -1.1985 -0.1842 -1.7149
  580MOL0     H78234   3.289   6.224   1.459 -4.2462  0.7443  1.5411
  580MOL0     H78235   3.625   6.259   1.212  4.3365 -1.1401 -0.2311
  580MOL0     H78236   3.646   6.437   1.244 -0.4510 -0.0299  0.3131
  580MOL0     H78237   3.765   6.377   1.462  1.9035 -2.7637  1.6437
  580MOL0     H78238   3.841   6.371   1.323 -0.3327  4.2924  3.8174
  580MOL0     H78239   3.733   6.104   1.328 -0.1218  2.5216 -1.2007
  580MOL0     H78240   3.720   6.138   1.500  3.0863 -1.3077  0.8648
  580MOL0     H78241   3.974   6.126   1.351  0.4915  3.0718  0.2135
  580MOL0     H78242   3.961   6.198   1.519 -0.6484 -0.7634  0.0976
  580MOL0     H78243   3.901   5.979   1.601  0.0325  0.2912  0.2158
  580MOL0     H78244   3.885   5.909   1.453  0.1719 -1.9393  4.1778
  580MOL0     H78245   4.157   6.029   1.532  3.7421 -0.5132 -1.4664
  580MOL0     H78246   4.109   5.874   1.583  1.9910  1.1115 -0.8969
  580MOL0     H78247   4.252   5.869   1.384 -0.2191 -0.5088  2.0113
  580MOL0     H78248   4.140   5.971   1.287  0.0645 -0.5127 -0.9636
  580MOL0     H78249   3.968   5.791   1.304 -0.2059 -2.2473 -1.9151
  580MOL0     H78250   4.102   5.721   1.238 -3.8800 -1.4358  0.0915
  580MOL0     H78251   4.268   5.587   1.409 -1.3695 -0.5705  0.0469
  580MOL0     H78252   4.142   5.292   1.609 -0.3624  0.2668  2.3680
  580MOL0     H78253   4.286   5.356   1.544  1.2364  2.0028  1.7661
  580MOL0     H78254   4.279   5.531   1.737  0.6045 -0.3983  0.6252
  580MOL0     H78255   4.134   5.436   1.789 -1.0532 -3.8822 -1.7015
  580MOL0     H78256   4.293   5.236   1.782  2.6672 -0.8106  0.5701
  580MOL0     H78257   4.296   5.348   1.925 -0.7162 -0.9928 -0.4095
  580MOL0     H78258   4.530   5.314   1.879 -0.5703 -1.1534 -0.0095
  580MOL0     H78259   4.474   5.472   1.822 -2.0495  1.0194 -1.4512
  580MOL0     H78260   4.733   5.413   1.838 -0.0373  0.2825  0.4720
  580MOL0     H78261   4.961   5.419   1.770 -0.8299  0.4098  0.1465
  580MOL0     H78262   5.262   5.424   1.318 -2.1010 -2.2992 -1.1372
  580MOL0     H78263   5.502   5.413   1.315 -0.6512 -0.3551 -2.8043
  580MOL0     H78264   5.733   5.270   1.197 -3.9547 -0.4034 -0.2811
  580MOL0     H78265   5.723   5.379   1.341  2.0877  0.0449 -0.1979
  580MOL0     H78266   5.967   5.308   1.321 -0.0433  0.4292 -0.8117
  580MOL0     H78267   5.897   5.207   1.444 -0.3163  0.5431  0.3430
  580MOL0     H78268   5.817   5.045   1.268 -0.9859 -0.3409 -3.0855
  580MOL0     H78269   5.907   5.134   1.142  3.0014  1.0703  0.1012
  580MOL0     H78270   6.043   5.024   1.376  2.2572 -1.2462 -0.7777
  580MOL0     H78271   6.111   5.075   1.225  1.2560 -0.5823  2.5261
  580MOL0     H78272   5.940   4.826   1.265 -1.8518  0.6149 -3.0251
  580MOL0     H78273   6.117   4.836   1.224  0.0437 -0.6654 -0.5495
  580MOL0     H78274   5.875   4.904   1.066  0.3262  0.3397  3.0763
  580MOL0     H78275   6.035   4.918   0.998 -0.1628  2.3679  0.7799
  580MOL0     H78276   5.882   4.679   1.103  0.6955 -0.4961  1.0597
  580MOL0     H78277   6.053   4.656   1.072  0.6448  0.6358 -0.5418
  580MOL0     H78278   5.999   4.729   0.837  0.0358 -1.9991 -3.1513
  580MOL0     H78279   5.917   4.576   0.879  1.4976  0.9396 -0.5868
  580MOL0     H78280   5.469   4.998   1.447  0.5172 -0.9686 -0.4108
  580MOL0     H78281   5.241   5.034   1.491 -1.1241 -0.5162 -0.2833
  580MOL0     H78282   4.842   5.280   1.379  0.6619 -2.2386  0.5172
  580MOL0     H78283   4.607   5.263   1.462 -1.7029  3.9825  0.1634
  580MOL0     H78284   3.447   6.464   1.131 -0.5900  0.0271 -0.0001
  580MOL0     H78285   3.206   6.483   1.046  2.3407 -0.9803 -0.5277
  580MOL0     H78286   2.799   6.265   1.041 -2.0226 -1.0890 -0.7818
  580MOL0     H78287   2.619   6.246   0.915  4.2096 -2.1878 -0.9488
  580MOL0     H78288   2.466   6.612   0.702  1.2432  0.7852  3.1608
  580MOL0     H78289   2.369   6.622   0.840 -2.3203 -0.5036 -0.4385
  580MOL0     H78290   2.251   6.588   0.624 -3.6932  0.9751  1.7124
  580MOL0     H78291   2.195   6.499   0.763 -0.8841  0.1060 -1.1460
  580MOL0     H78292   2.314   6.297   0.699  1.4920 -1.1463 -2.6556
  580MOL0     H78293   2.364   6.380   0.555  0.7424 -2.5982 -0.0579
  580MOL0     H78294   2.073   6.306   0.618 -1.6868 -0.7884 -2.4800
  580MOL0     H78295   2.123   6.436   0.508 -0.9560  0.3190  1.1392
  580MOL0     H78296   2.162   6.042   0.326  1.0376  1.4389 -2.2340
  580MOL0     H78297   2.573   6.678   0.901  0.2932  1.3731  2.7972
  580MOL0     H78298   2.858   6.796   1.045 -0.6752 -0.3548 -2.5693
  580MOL0     H78299   2.691   6.824   1.012 -0.4733  0.6300  0.4634
  580MOL0     H78300   2.746   6.758   1.168  0.2995  0.7619 -0.1295
  581MOL0     O78301   0.188   8.598  11.001  0.2341  0.4539 -0.2206
  581MOL0     C78302   0.125   8.507  11.060  0.4514  0.3530 -1.3040
  581MOL0     O78303   0.163   8.375  11.062  0.0748  0.2945  0.1550
  581MOL0     C78304   0.286   8.344  11.008  0.4678 -0.7992  0.3547
  581MOL0     C78305   0.408   8.391  11.052 -0.2043 -0.2511  1.0976
  581MOL0     C78306   0.533   8.345  10.995 -0.2654  0.4778 -0.1369
  581MOL0     C78307   0.529   8.264  10.880 -0.2001 -1.0876  0.7876
  581MOL0     O78308   0.637   8.225  10.806 -0.8603  0.3773 -0.0833
  581MOL0     C78309   0.775   8.254  10.853  1.2308  0.0661 -0.2881
  581MOL0     C78310   0.871   8.200  10.753  0.2466 -0.1691 -0.7851
  581MOL0     C78311   1.002   8.272  10.788  0.3058  0.2959  0.6742
  581MOL0     C78312   1.101   8.236  10.677  0.4209 -0.8047 -0.6624
  581MOL0     C78313   1.247   8.295  10.698 -0.1213 -0.1273 -0.8243
  581MOL0     C78314   1.343   8.248  10.594  0.3499 -0.0440  0.2860
  581MOL0     C78315   1.451   8.348  10.555  0.4277 -0.0529  0.6066
  581MOL0     C78316   1.541   8.391  10.669  0.6668 -0.5998 -0.6777
  581MOL0     N78317   1.603   8.291  10.747  0.4709  0.3211  0.0898
  581MOL0     C78318   1.698   8.209  10.690 -0.2259  1.0499 -0.5087
  581MOL0     C78319   1.732   8.118  10.783 -0.0299  0.3077  0.6415
  581MOL0     C78320   1.805   7.987  10.774 -0.2862  0.1252 -0.3680
  581MOL0     C78321   1.963   8.010  10.761 -0.2214 -0.4603  0.0325
  581MOL0     C78322   2.021   8.089  10.878 -0.7646  0.6188 -0.2047
  581MOL0     C78323   2.178   8.091  10.856 -0.3168 -0.1980 -0.5287
  581MOL0     O78324   2.253   8.162  10.966 -0.3892  0.0446  0.2468
  581MOL0     C78325   2.384   8.169  10.952 -0.4233 -0.3745  0.4094
  581MOL0     C78326   2.470   8.218  11.053 -0.3627  0.5685  0.3091
  581MOL0     C78327   2.605   8.211  11.047 -0.1250  0.3251 -1.1341
  581MOL0     C78328   2.665   8.149  10.937 -0.2362 -0.1003 -0.4750
  581MOL0     C78329   2.811   8.146  10.920 -0.1736 -0.0877  0.5525
  581MOL0     O78330   2.876   8.194  11.025  0.3163  0.1582  0.9499
  581MOL0     C78331   3.016   8.201  11.027 -0.8658  0.3536 -0.0373
  581MOL0     C78332   3.080   8.302  11.104  0.5681 -0.6000 -0.4756
  581MOL0     C78333   3.215   8.323  11.125 -0.1782 -0.2331 -0.3038
  581MOL0     C78334   3.304   8.247  11.044 -0.1439 -0.3695  0.4587
  581MOL0     O78335   3.437   8.286  11.045 -0.1288 -0.0858  0.3331
  581MOL0     C78336   3.537   8.186  11.045  0.4416  0.4084 -0.0305
  581MOL0     C78337   3.683   8.235  11.060 -0.0238  0.3202 -0.2688
  581MOL0     C78338   3.756   8.255  10.930  0.0662 -0.1176  0.3988
  581MOL0     C78339   3.886   8.338  10.932 -0.8705 -0.0180 -0.1139
  581MOL0     C78340   4.007   8.257  10.991 -0.3874  0.2623  0.4785
  581MOL0     C78341   4.149   8.326  10.978 -0.1464 -0.0614 -0.0311
  581MOL0     C78342   4.262   8.236  11.049 -0.2052 -0.3989 -0.3347
  581MOL0     C78343   4.399   8.291  11.036 -0.3105 -0.1152 -0.5130
  581MOL0    Cl78344   4.413   8.463  11.095 -0.4975  0.1453 -0.8333
  581MOL0     C78345   3.250   8.144  10.969  0.5023 -1.0264 -0.0279
  581MOL0     C78346   3.108   8.119  10.963 -0.3607  0.2063 -0.6587
  581MOL0     O78347   2.861   8.109  10.816 -0.1875 -0.0230 -0.4061
  581MOL0     C78348   2.586   8.105  10.833 -0.0673  0.7102 -0.2860
  581MOL0     C78349   2.444   8.112  10.842 -0.6386 -0.1000  0.0207
  581MOL0     N78350   1.670   8.157  10.901  0.3292 -0.3559 -0.3263
  581MOL0     N78351   1.595   8.258  10.875  0.8098  0.0265 -0.4312
  581MOL0     C78352   0.404   8.233  10.836 -0.5794 -0.1735  0.3366
  581MOL0     C78353   0.283   8.267  10.898 -0.2316  0.1369  0.0932
  581MOL0     C78354   0.009   8.542  11.149 -0.0862 -0.5903 -0.5928
  581MOL0     C78355  -0.098   8.454  11.166 -0.0994  0.3096 -0.0999
  581MOL0     C78356  -0.216   8.479  11.247 -1.0079  0.1382  0.5101
  581MOL0     C78357  -0.208   8.590  11.328  0.2705  0.1267 -0.6942
  581MOL0     O78358  -0.323   8.621  11.402 -0.1976  0.2445 -0.3403
  581MOL0     C78359  -0.315   8.685  11.530  0.3352  0.7177 -0.6244
  581MOL0     C78360  -0.258   8.588  11.633  0.3274 -0.2776 -1.0928
  581MOL0     C78361  -0.331   8.458  11.638 -0.0741  0.7720 -0.1551
  581MOL0     C78362  -0.487   8.468  11.649 -0.5844  0.1247  0.2170
  581MOL0     C78363  -0.556   8.348  11.710  0.2996 -0.9085 -0.6968
  581MOL0     C78364  -0.609   8.256  11.773 -0.9467 -0.1441 -0.2156
  581MOL0     C78365  -0.094   8.678  11.326 -0.1652 -0.0885 -0.1496
  581MOL0     C78366   0.017   8.656  11.235 -0.5419 -0.3834 -0.1587
  581MOL0     C78367   0.149   8.741  11.246 -0.0876  1.1158 -0.5471
  581MOL0     H78368   0.411   8.446  11.146  1.4777  2.6078 -0.4844
  581MOL0     H78369   0.629   8.356  11.043 -0.2127 -0.4293 -0.0247
  581MOL0     H78370   0.772   8.363  10.857 -1.3055  0.0738 -0.7024
  581MOL0     H78371   0.797   8.209  10.950 -3.1554 -1.4263  0.2472
  581MOL0     H78372   0.848   8.230  10.650  0.0765 -2.8094 -1.5703
  581MOL0     H78373   0.881   8.092  10.760  1.0245 -0.1108 -0.8866
  581MOL0     H78374   1.029   8.251  10.892 -1.5708 -1.0058  0.9460
  581MOL0     H78375   0.977   8.378  10.788 -0.7642  0.0568 -0.2089
  581MOL0     H78376   1.103   8.128  10.660  1.2732 -0.6835 -1.4257
  581MOL0     H78377   1.056   8.274  10.584 -3.0982 -0.0167  1.1708
  581MOL0     H78378   1.245   8.404  10.701 -0.8476 -0.1557  0.1554
  581MOL0     H78379   1.278   8.263  10.798 -2.8877  2.2093  0.9577
  581MOL0     H78380   1.394   8.153  10.612 -1.0720 -0.7079  0.8774
  581MOL0     H78381   1.285   8.218  10.506  0.0557  0.1120  0.4272
  581MOL0     H78382   1.404   8.436  10.509 -0.1451 -1.0641 -0.8031
  581MOL0     H78383   1.495   8.290  10.474  1.3017 -3.1234  3.0957
  581MOL0     H78384   1.614   8.458  10.623 -0.3001  0.3763 -0.8248
  581MOL0     H78385   1.486   8.461  10.732 -1.6095 -2.3946 -0.5309
  581MOL0     H78386   1.726   8.209  10.585  1.1680 -1.0333 -0.1971
  581MOL0     H78387   1.803   7.927  10.866  0.6579 -0.4497 -0.7055
  581MOL0     H78388   1.766   7.928  10.691  1.5439 -1.2433 -0.3088
  581MOL0     H78389   2.024   7.921  10.750  2.0880  0.6445  2.7027
  581MOL0     H78390   1.975   8.069  10.670  0.1914  2.0058  1.5713
  581MOL0     H78391   1.985   8.039  10.968  0.0748 -0.7266 -0.5975
  581MOL0     H78392   1.981   8.192  10.876 -0.4642  0.8001  1.8678
  581MOL0     H78393   2.207   8.137  10.761 -0.6891 -0.2279 -0.6591
  581MOL0     H78394   2.205   7.985  10.860 -0.5603 -0.2947 -1.3034
  581MOL0     H78395   2.426   8.258  11.144  2.8378  2.5850  1.0917
  581MOL0     H78396   2.670   8.246  11.127  0.2514 -1.4246 -0.6395
  581MOL0     H78397   3.011   8.358  11.165 -0.3073 -1.7298 -0.4153
  581MOL0     H78398   3.253   8.399  11.192 -2.4023  0.9063 -0.2549
  581MOL0     H78399   3.513   8.106  11.116  3.3791  0.8609  1.6234
  581MOL0     H78400   3.532   8.134  10.948 -1.3287 -1.4769  0.9731
  581MOL0     H78401   3.696   8.317  11.130 -0.1752 -0.2275  0.4158
  581MOL0     H78402   3.731   8.154  11.116 -2.4886 -1.1460 -0.1213
  581MOL0     H78403   3.765   8.152  10.894 -4.3432 -1.4056  2.2856
  581MOL0     H78404   3.692   8.310  10.861  1.9617  1.0627 -0.4870
  581MOL0     H78405   3.879   8.431  10.988  1.6659  1.0333 -1.4190
  581MOL0     H78406   3.900   8.359  10.825  0.8249  0.0318  0.0966
  581MOL0     H78407   4.002   8.160  10.940 -2.1154  0.0084  1.0704
  581MOL0     H78408   3.990   8.235  11.097 -4.9360 -0.7280 -0.2350
  581MOL0     H78409   4.162   8.342  10.871 -1.6040  1.0357 -0.0755
  581MOL0     H78410   4.151   8.424  11.026 -0.0466 -0.1693  0.1876
  581MOL0     H78411   4.250   8.134  11.013 -1.5786 -1.1915  2.0595
  581MOL0     H78412   4.242   8.228  11.157  0.2269 -3.3411 -0.4013
  581MOL0     H78413   4.470   8.222  11.084 -1.6095 -0.0945  1.5319
  581MOL0     H78414   4.417   8.288  10.928 -1.9416 -0.7379 -0.7908
  581MOL0     H78415   3.314   8.088  10.902  0.2222 -1.4308  0.0400
  581MOL0     H78416   3.069   8.043  10.896 -0.7217 -0.6492  0.5030
  581MOL0     H78417   2.623   8.065  10.739 -2.3409 -0.4501 -0.7706
  581MOL0     H78418   2.391   8.076  10.754 -0.0691  1.2176 -0.8928
  581MOL0     H78419   0.390   8.173  10.746 -2.6655 -0.0197  0.5099
  581MOL0     H78420   0.192   8.218  10.864  0.3455 -1.8168  1.1603
  581MOL0     H78421  -0.086   8.356  11.121 -2.4635 -0.5037  0.8405
  581MOL0     H78422  -0.298   8.411  11.265 -1.4938  0.8608  1.1004
  581MOL0     H78423  -0.411   8.718  11.570 -0.2529 -0.1986 -1.2665
  581MOL0     H78424  -0.253   8.775  11.525 -0.5232  1.2984 -1.0403
  581MOL0     H78425  -0.252   8.644  11.727 -3.4664  1.4306 -1.6454
  581MOL0     H78426  -0.154   8.564  11.610  0.7197  0.3579 -0.0726
  581MOL0     H78427  -0.299   8.405  11.728 -0.2839  1.4119  0.3040
  581MOL0     H78428  -0.302   8.388  11.559 -0.5083  1.3361 -0.8327
  581MOL0     H78429  -0.531   8.556  11.697  0.0735  0.6767 -0.1909
  581MOL0     H78430  -0.526   8.468  11.547  0.3228  0.0060 -0.1348
  581MOL0     H78431  -0.656   8.189  11.842 -0.6831 -0.8899 -0.7535
  581MOL0     H78432  -0.089   8.768  11.387  0.8472  0.3511 -0.8437
  581MOL0     H78433   0.156   8.814  11.165  1.3463  1.3159 -0.2693
  581MOL0     H78434   0.133   8.799  11.337 -1.0441 -2.4097  1.7667
  581MOL0     H78435   0.244   8.687  11.257 -0.2784  1.0099  0.7244
  582MOL0     O78436   0.947   4.410   4.481 -0.2202  0.7010  0.0497
  582MOL0     C78437   1.007   4.419   4.588 -0.3351  0.1198  0.1693
  582MOL0     O78438   1.138   4.398   4.604 -0.1167 -0.2732 -0.3830
  582MOL0     C78439   1.209   4.313   4.519  0.4783  0.8506 -0.8251
  582MOL0     C78440   1.345   4.335   4.508 -0.0292 -0.2233  0.2063
  582MOL0     C78441   1.424   4.247   4.438  0.8164 -0.1865 -0.5921
  582MOL0     C78442   1.372   4.138   4.375  0.2594 -0.9083  0.5307
  582MOL0     O78443   1.435   4.042   4.294 -0.0503 -0.0928 -0.3717
  582MOL0     C78444   1.560   4.093   4.240 -0.0815 -0.1558 -0.1863
  582MOL0     C78445   1.579   4.013   4.113  0.9064 -0.0205  0.5197
  582MOL0     C78446   1.490   4.071   3.995  0.4946 -0.4218  0.0695
  582MOL0     C78447   1.497   3.991   3.869  0.7499 -1.2555 -0.4050
  582MOL0     C78448   1.641   3.947   3.841  0.5986  0.5369 -0.1363
  582MOL0     C78449   1.729   4.067   3.821  0.1015 -0.1856 -0.2782
  582MOL0     C78450   1.874   4.021   3.780 -0.1410  0.5096 -0.3726
  582MOL0     C78451   1.954   3.960   3.892  0.1881 -0.5194  0.6546
  582MOL0     N78452   2.089   3.909   3.857  0.3097  0.5823 -0.0295
  582MOL0     C78453   2.111   3.792   3.781 -0.5594  0.1610 -1.0369
  582MOL0     C78454   2.245   3.772   3.788  0.6634 -0.3525  0.1150
  582MOL0     C78455   2.321   3.654   3.741  0.4287 -0.5279  0.3213
  582MOL0     C78456   2.393   3.682   3.609 -0.2114 -0.4512 -0.1445
  582MOL0     C78457   2.481   3.812   3.595 -0.4528  0.1037 -0.1942
  582MOL0     C78458   2.578   3.802   3.469 -0.2982 -0.0366 -0.1204
  582MOL0     O78459   2.634   3.929   3.431 -0.3597  0.3817  0.0438
  582MOL0     C78460   2.766   3.946   3.450  0.2013  0.0018  0.3623
  582MOL0     C78461   2.857   3.906   3.347  0.0349  0.0807 -0.5018
  582MOL0     C78462   2.986   3.911   3.370  0.7392 -0.5959  0.4917
  582MOL0     C78463   3.033   3.965   3.493  0.0152 -0.4635 -0.6249
  582MOL0     C78464   3.180   3.987   3.518  0.5161  0.3679  0.1582
  582MOL0     O78465   3.260   3.973   3.405 -0.5748 -0.4594 -0.6323
  582MOL0     C78466   3.402   3.997   3.413  0.5205 -0.2184  0.8122
  582MOL0     C78467   3.477   3.954   3.522  0.3647 -0.4570  0.4579
  582MOL0     C78468   3.614   3.975   3.532  0.3213 -0.2127  0.1268
  582MOL0     C78469   3.679   4.060   3.431  0.6498 -0.2544 -0.7967
  582MOL0     O78470   3.814   4.085   3.453 -0.5687 -0.3174 -0.0403
  582MOL0     C78471   3.870   4.200   3.395  0.2087 -0.6807 -0.6248
  582MOL0     C78472   4.013   4.212   3.450 -0.7178 -0.2124 -0.6031
  582MOL0     C78473   4.076   4.355   3.425  0.6143 -0.1974  0.1023
  582MOL0     C78474   4.057   4.393   3.280  0.5987  0.6647 -0.4495
  582MOL0     C78475   4.096   4.537   3.260  0.1322 -0.8372  0.0066
  582MOL0     C78476   4.019   4.648   3.327 -0.5190  0.1711  0.4412
  582MOL0     C78477   4.077   4.779   3.288 -0.3558  0.1670  0.0405
  582MOL0     C78478   4.010   4.906   3.335 -0.0446 -0.0063 -0.9822
  582MOL0    Cl78479   3.841   4.901   3.303 -0.5641  0.4216  0.3225
  582MOL0     C78480   3.601   4.114   3.328  0.7751 -0.7908  0.2359
  582MOL0     C78481   3.471   4.071   3.312 -0.1428 -0.1039 -1.1820
  582MOL0     O78482   3.222   4.024   3.627 -0.9380 -0.0397  0.5861
  582MOL0     C78483   2.945   4.016   3.588 -0.2032  0.0293 -0.1695
  582MOL0     C78484   2.811   4.001   3.564  0.6807  0.6782 -0.1301
  582MOL0     N78485   2.300   3.887   3.850  0.0858  0.1982 -0.0183
  582MOL0     N78486   2.212   3.960   3.900 -0.4015  0.6016 -0.6576
  582MOL0     C78487   1.236   4.115   4.385  0.0030 -0.0041  0.3061
  582MOL0     C78488   1.159   4.195   4.462 -0.9863 -0.2380 -1.1855
  582MOL0     C78489   0.932   4.429   4.718  0.1893  0.0660  0.0220
  582MOL0     C78490   1.007   4.448   4.839  0.2410 -0.4736 -0.3507
  582MOL0     C78491   0.942   4.457   4.963 -0.2576  0.3085 -0.4129
  582MOL0     C78492   0.799   4.429   4.971 -0.2902 -0.4546 -1.4053
  582MOL0     O78493   0.708   4.418   5.079  0.5306  0.2723 -0.0459
  582MOL0     C78494   0.761   4.418   5.210 -0.6439 -1.0790  0.1954
  582MOL0     C78495   0.676   4.350   5.318 -0.3828 -0.2580 -0.0447
  582MOL0     C78496   0.636   4.202   5.288 -0.0442  0.0820 -0.0630
  582MOL0     C78497   0.487   4.194   5.247  0.4204  0.3241 -0.1045
  582MOL0     C78498   0.438   4.060   5.205  0.5494  0.3811  0.1262
  582MOL0     C78499   0.393   3.958   5.158 -0.4643  0.4604 -0.0779
  582MOL0     C78500   0.732   4.420   4.861  0.7596 -1.0351  0.3992
  582MOL0     C78501   0.789   4.426   4.727  0.3907  0.0675  0.0126
  582MOL0     C78502   0.694   4.426   4.606  0.3420 -0.0782 -0.4255
  582MOL0     H78503   1.385   4.422   4.560  0.7727 -0.5391  0.1303
  582MOL0     H78504   1.529   4.272   4.449  0.8083 -0.0512 -0.8299
  582MOL0     H78505   1.551   4.198   4.213 -1.9879 -0.2223  0.0341
  582MOL0     H78506   1.642   4.071   4.309 -1.7022 -3.6481  0.8701
  582MOL0     H78507   1.555   3.907   4.124 -3.1115  0.8711  1.9077
  582MOL0     H78508   1.684   4.027   4.085  0.8270 -3.0720 -1.8816
  582MOL0     H78509   1.523   4.172   3.969 -1.0573  0.1816  0.3469
  582MOL0     H78510   1.384   4.077   4.020 -0.4501 -0.1146 -3.4496
  582MOL0     H78511   1.439   3.901   3.889  0.0458 -0.5333  0.9172
  582MOL0     H78512   1.454   4.032   3.777  1.3188  1.8848  0.5903
  582MOL0     H78513   1.668   3.880   3.923 -1.0489  0.8069  0.6709
  582MOL0     H78514   1.649   3.886   3.751  2.2513 -0.9058  0.9224
  582MOL0     H78515   1.699   4.125   3.733 -1.5599  0.1896  0.5001
  582MOL0     H78516   1.749   4.125   3.912  0.0013 -0.0807 -0.3233
  582MOL0     H78517   1.921   4.114   3.748 -3.5629  2.8908  0.8990
  582MOL0     H78518   1.870   3.947   3.699  0.4163 -2.1958  1.8846
  582MOL0     H78519   1.973   4.033   3.972 -0.5651  0.4834 -0.0602
  582MOL0     H78520   1.898   3.880   3.942 -0.9477  0.2444  0.6384
  582MOL0     H78521   2.041   3.720   3.740  0.1014 -1.3772  0.3988
  582MOL0     H78522   2.399   3.630   3.814  0.0992 -1.9987  0.2133
  582MOL0     H78523   2.258   3.566   3.729  0.8659 -1.2898  3.0471
  582MOL0     H78524   2.456   3.597   3.582  3.5908  2.1849 -0.4384
  582MOL0     H78525   2.311   3.677   3.537 -1.3190  0.0159  1.0318
  582MOL0     H78526   2.535   3.827   3.689 -0.0075 -0.6519 -0.3231
  582MOL0     H78527   2.421   3.901   3.574 -0.1919  0.1966 -0.5432
  582MOL0     H78528   2.517   3.760   3.388 -1.4087  1.1329  0.0732
  582MOL0     H78529   2.649   3.724   3.497 -0.7142 -1.2897 -2.3183
  582MOL0     H78530   2.827   3.862   3.252 -1.8886 -3.8769  1.6463
  582MOL0     H78531   3.045   3.878   3.285 -2.4915  0.0022 -2.1891
  582MOL0     H78532   3.428   3.899   3.603  1.9573 -0.3239  1.5569
  582MOL0     H78533   3.674   3.936   3.613  0.0426 -3.0479 -0.9080
  582MOL0     H78534   3.871   4.195   3.286 -1.0407  0.6890 -0.7346
  582MOL0     H78535   3.819   4.293   3.422  2.2546 -0.2356  2.2045
  582MOL0     H78536   3.991   4.200   3.556  1.1652 -0.4454 -0.1899
  582MOL0     H78537   4.081   4.132   3.418 -3.8121 -3.2722 -0.0713
  582MOL0     H78538   4.023   4.423   3.492  0.1066 -1.6293  1.2305
  582MOL0     H78539   4.180   4.350   3.458  0.2272  2.5749  2.1106
  582MOL0     H78540   3.953   4.395   3.249  0.3378 -1.5706  0.1374
  582MOL0     H78541   4.123   4.326   3.225  3.3370  1.5703  1.4647
  582MOL0     H78542   4.078   4.548   3.153 -0.5338 -3.2597 -0.1704
  582MOL0     H78543   4.203   4.548   3.279  0.1912 -0.3159 -0.5856
  582MOL0     H78544   3.914   4.641   3.298 -0.6486 -0.1828  0.9960
  582MOL0     H78545   4.020   4.647   3.436 -0.4803 -1.4238  0.4436
  582MOL0     H78546   4.076   4.778   3.178 -1.4096 -0.9039  0.0363
  582MOL0     H78547   4.182   4.773   3.316 -0.4738 -0.9731  0.3045
  582MOL0     H78548   4.020   4.918   3.443 -0.1358 -0.5890 -0.9054
  582MOL0     H78549   4.051   4.997   3.290 -3.0752  3.1553  2.0242
  582MOL0     H78550   3.644   4.166   3.243 -2.6999 -1.3002 -1.9987
  582MOL0     H78551   3.415   4.118   3.231  0.2936  0.6908 -1.0362
  582MOL0     H78552   2.981   4.066   3.677 -1.1800  1.3420 -0.4932
  582MOL0     H78553   2.733   4.030   3.634  1.0445 -1.6707  1.3698
  582MOL0     H78554   1.189   4.025   4.347  2.0362 -0.1752 -2.0119
  582MOL0     H78555   1.055   4.166   4.474 -0.7043 -1.1002 -0.7952
  582MOL0     H78556   1.116   4.455   4.838  0.1817  1.0299 -2.5349
  582MOL0     H78557   0.995   4.454   5.058  0.3954 -2.3105 -0.7647
  582MOL0     H78558   0.785   4.517   5.248 -0.1704 -1.5888  1.2703
  582MOL0     H78559   0.865   4.382   5.213  0.0470  0.7450 -0.3987
  582MOL0     H78560   0.583   4.405   5.337 -0.4871 -0.7617  0.9998
  582MOL0     H78561   0.733   4.340   5.410  0.2856  2.7967 -0.0357
  582MOL0     H78562   0.658   4.130   5.366  1.7432 -2.2993 -2.5897
  582MOL0     H78563   0.705   4.173   5.208 -0.6066 -2.2236  0.2188
  582MOL0     H78564   0.431   4.225   5.337  0.6217  1.1076 -0.2412
  582MOL0     H78565   0.469   4.260   5.162 -0.4653  1.4348  0.8855
  582MOL0     H78566   0.374   3.862   5.113  0.9411  1.1630 -2.3596
  582MOL0     H78567   0.624   4.406   4.855  0.7024 -0.1094 -2.0091
  582MOL0     H78568   0.713   4.503   4.530  1.0922 -0.2327 -0.3995
  582MOL0     H78569   0.714   4.333   4.552  0.8457 -0.0041 -0.3659
  582MOL0     H78570   0.594   4.433   4.649  1.6073  0.0612  2.7478
  583MOL0     O78571   8.502   6.620   4.586 -0.1752  0.0719  0.0984
  583MOL0     C78572   8.544   6.518   4.529  0.0249  0.9822  0.1340
  583MOL0     O78573   8.664   6.503   4.473 -0.0262  0.3955 -0.4600
  583MOL0     C78574   8.750   6.605   4.432 -0.0003 -0.0322 -0.3058
  583MOL0     C78575   8.872   6.563   4.390  0.8433  0.4312  0.2930
  583MOL0     C78576   8.973   6.656   4.355  0.5749  0.5465  0.6467
  583MOL0     C78577   8.953   6.794   4.365 -1.3351  0.6113 -0.4412
  583MOL0     O78578   9.060   6.864   4.318 -0.3297  0.0970 -0.3236
  583MOL0     C78579   9.053   7.006   4.308  0.1170 -0.0816 -0.3803
  583MOL0     C78580   9.090   7.072   4.433  0.4260  0.2099  0.6102
  583MOL0     C78581   9.195   7.181   4.417 -0.2153 -0.4719  0.3421
  583MOL0     C78582   9.325   7.133   4.352 -0.0328 -0.5854 -0.0683
  583MOL0     C78583   9.439   7.237   4.375  0.0555  0.5562  0.7773
  583MOL0     C78584   9.411   7.375   4.307 -0.1474  0.6503  0.2824
  583MOL0     C78585   9.541   7.466   4.316  0.2151  1.0683  0.1348
  583MOL0     C78586   9.527   7.598   4.236 -0.1673 -0.5887  0.1193
  583MOL0     N78587   9.576   7.589   4.091 -0.3379  0.9381  0.0735
  583MOL0     C78588   9.526   7.654   3.981  0.3509  0.2995  0.5794
  583MOL0     C78589   9.627   7.658   3.896  0.1660 -0.4013 -0.9896
  583MOL0     C78590   9.632   7.736   3.770  0.2574 -0.4855  0.6591
  583MOL0     C78591   9.557   7.667   3.654 -0.0471  0.9315 -0.9348
  583MOL0     C78592   9.530   7.751   3.532 -0.4727  0.1407 -0.0685
  583MOL0     C78593   9.657   7.787   3.461 -0.1281 -0.1799  0.2310
  583MOL0     O78594   9.714   7.674   3.390  0.0256 -0.0565 -0.0601
  583MOL0     C78595   9.819   7.692   3.300 -0.1570 -0.5085 -0.7047
  583MOL0     C78596   9.905   7.581   3.283  0.2587 -0.8875  0.7363
  583MOL0     C78597   9.999   7.579   3.185  0.2710 -0.6049 -0.6249
  583MOL0     C78598  10.028   7.700   3.114 -0.6891  0.0611 -0.3349
  583MOL0     C78599  10.144   7.706   3.029  0.4499 -0.0065 -0.1841
  583MOL0     O78600  10.193   7.833   3.003 -0.4276  0.3942  0.7293
  583MOL0     C78601  10.301   7.831   2.920  0.7365 -0.3788 -0.1221
  583MOL0     C78602  10.430   7.868   2.961  0.1914 -0.1342  0.5896
  583MOL0     C78603  10.540   7.860   2.879 -0.7595 -0.3700  0.4384
  583MOL0     C78604  10.524   7.809   2.747 -0.4210 -0.1529 -0.2695
  583MOL0     O78605  10.626   7.783   2.656  0.9421  0.7093 -0.3615
  583MOL0     C78606  10.750   7.849   2.675  0.4928 -0.6627 -0.1642
  583MOL0     C78607  10.852   7.835   2.563  0.2068 -0.0535  0.2782
  583MOL0     C78608  10.952   7.952   2.566 -0.4340  0.0724 -0.3287
  583MOL0     C78609  11.072   7.915   2.471 -0.5379 -0.8983 -0.4259
  583MOL0     C78610  11.174   8.020   2.462  0.6234  0.0698 -0.4182
  583MOL0     C78611  11.238   8.065   2.596  0.8190 -0.6160 -0.3120
  583MOL0     C78612  11.362   8.143   2.571  1.0984 -0.6163 -0.2803
  583MOL0     C78613  11.480   8.052   2.544  0.6588 -0.6892  0.1101
  583MOL0    Cl78614  11.629   8.157   2.544 -0.0664  0.4568  0.0978
  583MOL0     C78615  10.393   7.776   2.709  0.3232 -0.4197  0.4457
  583MOL0     C78616  10.282   7.783   2.789  0.5782 -0.4490 -1.3066
  583MOL0     O78617  10.190   7.604   2.987  0.4036 -0.9632 -0.1285
  583MOL0     C78618   9.945   7.818   3.136  0.2304  0.3228  0.4355
  583MOL0     C78619   9.840   7.814   3.224  0.3607  0.6109  0.2483
  583MOL0     N78620   9.741   7.601   3.953 -0.9995 -0.4779  0.8185
  583MOL0     N78621   9.708   7.556   4.073  1.0525 -0.4134  0.1636
  583MOL0     C78622   8.831   6.836   4.413  1.0767 -0.4131  0.1524
  583MOL0     C78623   8.733   6.743   4.453 -0.3479 -0.4434  0.6654
  583MOL0     C78624   8.459   6.391   4.538  0.1309  0.5429 -0.2445
  583MOL0     C78625   8.516   6.270   4.576  0.3515  0.2520  0.8115
  583MOL0     C78626   8.446   6.152   4.571 -0.8464 -0.2094  0.6480
  583MOL0     C78627   8.310   6.159   4.548  0.0297 -0.0004  0.2991
  583MOL0     O78628   8.246   6.041   4.527  0.2559  0.8060 -0.9454
  583MOL0     C78629   8.167   6.002   4.642 -0.1997 -0.2907 -0.2645
  583MOL0     C78630   8.084   5.877   4.601 -0.4861 -0.1613 -0.1075
  583MOL0     C78631   8.015   5.890   4.467 -0.4476  0.0692  0.2077
  583MOL0     C78632   7.920   6.009   4.470  0.5020 -0.3617 -0.8178
  583MOL0     C78633   7.863   6.035   4.337  0.4537 -0.0092  0.5904
  583MOL0     C78634   7.799   6.060   4.236 -0.7425  0.8048  0.4315
  583MOL0     C78635   8.252   6.279   4.524  0.4505  0.0094 -0.1749
  583MOL0     C78636   8.322   6.395   4.513  0.0356 -0.7708 -0.5750
  583MOL0     C78637   8.243   6.524   4.480  0.3256  0.3902 -0.5023
  583MOL0     H78638   8.893   6.457   4.389  1.0246  0.4573  1.1740
  583MOL0     H78639   9.071   6.627   4.319  0.3107  1.4311 -0.9333
  583MOL0     H78640   9.114   7.035   4.221  1.5011 -0.0700  0.5685
  583MOL0     H78641   8.951   7.028   4.274  0.1730  0.6515 -0.0922
  583MOL0     H78642   9.128   7.007   4.512 -1.6260 -2.4913 -0.4398
  583MOL0     H78643   9.001   7.115   4.479 -0.2966  0.1157 -0.6351
  583MOL0     H78644   9.229   7.230   4.508  1.0696 -1.7439  0.5813
  583MOL0     H78645   9.155   7.258   4.349  3.1655  0.6633 -0.5934
  583MOL0     H78646   9.358   7.039   4.397 -2.3840 -0.4884  2.0548
  583MOL0     H78647   9.325   7.116   4.244  1.5225 -3.5247  0.2940
  583MOL0     H78648   9.451   7.257   4.482 -0.8887 -0.3352  1.0631
  583MOL0     H78649   9.528   7.184   4.340 -0.1972 -1.6641  3.1761
  583MOL0     H78650   9.393   7.354   4.201 -0.5827  0.6090  0.3627
  583MOL0     H78651   9.325   7.427   4.348 -0.3545  0.3743  0.2006
  583MOL0     H78652   9.631   7.408   4.294  0.3177  1.3877 -0.2904
  583MOL0     H78653   9.548   7.503   4.419  0.8903 -0.4158  0.6542
  583MOL0     H78654   9.420   7.617   4.234 -0.2353 -0.6615  1.7778
  583MOL0     H78655   9.581   7.679   4.287 -1.5769  0.1272  0.5253
  583MOL0     H78656   9.430   7.703   3.969 -0.4856 -0.4055  3.4829
  583MOL0     H78657   9.600   7.841   3.771  2.2701  0.1955  2.3136
  583MOL0     H78658   9.739   7.742   3.745  0.7610  1.0553  2.8720
  583MOL0     H78659   9.603   7.572   3.626  1.7651  2.1925 -2.4530
  583MOL0     H78660   9.457   7.636   3.687 -0.4806 -0.1477 -3.0930
  583MOL0     H78661   9.479   7.843   3.562  1.2618  0.8301  0.9689
  583MOL0     H78662   9.457   7.707   3.464 -0.3029  2.0971 -1.5946
  583MOL0     H78663   9.728   7.832   3.530  2.9256 -1.6551 -1.7216
  583MOL0     H78664   9.625   7.862   3.388 -0.4850 -0.8605 -0.3336
  583MOL0     H78665   9.887   7.500   3.353 -0.6603  1.4185  3.3340
  583MOL0     H78666  10.064   7.495   3.163  0.9886 -0.3941  0.5942
  583MOL0     H78667  10.445   7.894   3.065 -0.6622 -0.3128  0.7717
  583MOL0     H78668  10.636   7.905   2.905 -1.6092  1.1892  0.9822
  583MOL0     H78669  10.723   7.953   2.657 -0.6705 -0.6815  1.2243
  583MOL0     H78670  10.801   7.824   2.769 -0.0094 -1.5457 -0.1093
  583MOL0     H78671  10.900   7.739   2.583  0.0740 -0.0599  0.5639
  583MOL0     H78672  10.796   7.829   2.469  0.5464  0.5758  0.0278
  583MOL0     H78673  10.920   8.050   2.528 -1.9084 -0.2254  0.0590
  583MOL0     H78674  10.982   7.978   2.668 -1.1083 -1.2178  0.2173
  583MOL0     H78675  11.043   7.880   2.372  1.8496 -3.4630 -0.3437
  583MOL0     H78676  11.132   7.834   2.513  0.5570 -0.8002 -1.7609
  583MOL0     H78677  11.128   8.109   2.417 -1.6326 -1.2066 -0.7672
  583MOL0     H78678  11.248   7.987   2.390  0.1476  0.2859 -1.0103
  583MOL0     H78679  11.167   8.133   2.646 -1.3867 -2.0174 -1.3698
  583MOL0     H78680  11.263   7.983   2.664 -1.0394 -0.1360  1.0575
  583MOL0     H78681  11.381   8.206   2.658 -0.8877 -1.2145  0.6587
  583MOL0     H78682  11.342   8.207   2.485 -1.0878  1.7027  1.7780
  583MOL0     H78683  11.481   7.988   2.632  0.1556 -0.4006  0.3323
  583MOL0     H78684  11.464   7.987   2.457  2.0805  0.1762 -0.8214
  583MOL0     H78685  10.381   7.726   2.613  2.2013  0.1160 -0.0995
  583MOL0     H78686  10.191   7.729   2.764 -0.6539  1.0653 -0.2398
  583MOL0     H78687   9.960   7.909   3.078  1.0461 -1.0030 -1.5416
  583MOL0     H78688   9.759   7.887   3.223 -0.6934 -0.5061  0.9679
  583MOL0     H78689   8.817   6.943   4.423  1.0544 -0.1465 -2.1797
  583MOL0     H78690   8.654   6.783   4.517  0.4072 -1.5189  2.3357
  583MOL0     H78691   8.624   6.262   4.585  0.3110  0.2750  1.3587
  583MOL0     H78692   8.493   6.054   4.582  2.0182  0.8925 -0.7545
  583MOL0     H78693   8.092   6.080   4.660 -1.3147 -1.4793  0.3850
  583MOL0     H78694   8.226   5.992   4.734  2.2495 -1.8316 -1.8695
  583MOL0     H78695   8.011   5.869   4.681 -0.0670 -0.2917  0.2701
  583MOL0     H78696   8.148   5.789   4.618 -0.4540 -0.0779  0.2022
  583MOL0     H78697   7.969   5.793   4.448 -0.0875 -0.3833  1.5263
  583MOL0     H78698   8.086   5.914   4.388  0.3549  1.1027  1.2072
  583MOL0     H78699   7.839   5.989   4.541 -0.8427  1.6393 -1.6855
  583MOL0     H78700   7.980   6.095   4.501  5.3085 -2.8703 -2.2431
  583MOL0     H78701   7.744   6.085   4.147  0.1906 -1.2456 -0.8207
  583MOL0     H78702   8.144   6.273   4.511  0.3065  1.3520  0.2970
  583MOL0     H78703   8.255   6.610   4.547 -0.4672 -0.0595  0.2481
  583MOL0     H78704   8.261   6.547   4.375 -0.3496 -0.1067 -0.7343
  583MOL0     H78705   8.135   6.506   4.488  0.0787  1.8552 -0.1791
  584MOL0     O78706   6.181   2.290   3.394  0.3730  1.5759  0.2868
  584MOL0     C78707   6.127   2.397   3.367 -0.1613 -0.1683 -0.5999
  584MOL0     O78708   6.182   2.519   3.396  0.1913  0.0859  0.8874
  584MOL0     C78709   6.301   2.506   3.462  0.3877 -0.2870  0.1848
  584MOL0     C78710   6.308   2.470   3.595 -0.7548 -0.2590 -0.0808
  584MOL0     C78711   6.436   2.493   3.657  0.3793  0.3210 -0.3627
  584MOL0     C78712   6.549   2.539   3.590  0.6011 -1.3954 -0.5581
  584MOL0     O78713   6.671   2.549   3.652  0.6434 -0.2041  0.3077
  584MOL0     C78714   6.776   2.614   3.578 -1.4877  0.0184 -0.0935
  584MOL0     C78715   6.876   2.680   3.676  0.4117 -0.7922 -0.4830
  584MOL0     C78716   6.983   2.580   3.738 -0.1986 -0.3500 -0.0282
  584MOL0     C78717   7.091   2.654   3.825  0.8142 -0.4974 -0.6523
  584MOL0     C78718   7.199   2.560   3.898 -0.7098  0.3407  0.3251
  584MOL0     C78719   7.304   2.499   3.804  0.2186  0.0010  0.1542
  584MOL0     C78720   7.379   2.391   3.866 -0.1473  0.3899 -0.1280
  584MOL0     C78721   7.299   2.268   3.848 -0.8788  0.4737 -0.3662
  584MOL0     N78722   7.361   2.148   3.913  0.0337  0.2924  0.4899
  584MOL0     C78723   7.364   2.020   3.851 -1.0285  0.5878  1.1305
  584MOL0     C78724   7.425   1.948   3.950  0.3291 -0.3755  0.8602
  584MOL0     C78725   7.470   1.808   3.939 -0.0010  0.1802 -0.6151
  584MOL0     C78726   7.553   1.779   3.815  0.4882  0.2141  0.3389
  584MOL0     C78727   7.674   1.878   3.805  0.7496  0.4447  1.2526
  584MOL0     C78728   7.780   1.823   3.712  0.6900  0.3305  0.0280
  584MOL0     O78729   7.903   1.900   3.718  0.1627  0.3046 -0.5402
  584MOL0     C78730   8.025   1.837   3.695  0.0838 -0.4961 -0.4348
  584MOL0     C78731   8.036   1.710   3.637 -0.0948 -0.9141  0.0863
  584MOL0     C78732   8.152   1.639   3.638 -0.4848 -0.4669  0.0376
  584MOL0     C78733   8.271   1.701   3.673 -0.2454 -0.6259  0.0729
  584MOL0     C78734   8.400   1.637   3.657  0.4529 -0.2143  0.1453
  584MOL0     O78735   8.503   1.690   3.721  1.1521  0.3608 -0.1293
  584MOL0     C78736   8.632   1.668   3.674 -0.6132 -0.3944  0.6328
  584MOL0     C78737   8.658   1.675   3.529 -0.2866  0.3811 -0.4634
  584MOL0     C78738   8.796   1.645   3.483  0.6810  0.6164 -0.0861
  584MOL0     C78739   8.897   1.611   3.567 -0.7581 -0.4387  0.6526
  584MOL0     O78740   9.027   1.572   3.540 -0.3687 -0.2813  0.1813
  584MOL0     C78741   9.080   1.564   3.407 -0.3032 -0.1370 -0.0836
  584MOL0     C78742   9.229   1.575   3.398 -0.6371  0.0459 -0.5679
  584MOL0     C78743   9.306   1.666   3.496  0.2728 -0.0649  0.3779
  584MOL0     C78744   9.393   1.575   3.590  0.3012  0.4375  0.1917
  584MOL0     C78745   9.544   1.581   3.557 -0.2557  0.0107 -0.9100
  584MOL0     C78746   9.572   1.533   3.422  0.1483 -0.0037 -0.1492
  584MOL0     C78747   9.721   1.537   3.390  0.2685  0.6793 -0.5705
  584MOL0     C78748   9.738   1.492   3.247 -0.1046 -0.3130 -0.0894
  584MOL0    Cl78749   9.902   1.554   3.208  0.0016  0.1824  0.0986
  584MOL0     C78750   8.865   1.618   3.707  0.0526  0.3201  0.1096
  584MOL0     C78751   8.739   1.649   3.755 -0.3511 -0.4679 -0.4366
  584MOL0     O78752   8.407   1.527   3.594 -0.0183 -0.1114 -0.1524
  584MOL0     C78753   8.259   1.828   3.741  0.0956  0.4903  0.5304
  584MOL0     C78754   8.138   1.889   3.747  0.9206 -1.0243 -0.9429
  584MOL0     N78755   7.435   2.011   4.068 -0.5723  0.2459  0.0271
  584MOL0     N78756   7.392   2.128   4.048  0.7786 -0.4198  0.2797
  584MOL0     C78757   6.536   2.569   3.450  1.5491 -0.0106  0.0840
  584MOL0     C78758   6.411   2.553   3.385 -0.5072 -0.6662 -0.3136
  584MOL0     C78759   5.982   2.396   3.317  0.0822 -0.8805 -1.2459
  584MOL0     C78760   5.914   2.271   3.311 -0.2038  0.8738  0.2178
  584MOL0     C78761   5.793   2.260   3.248  0.7331 -0.2767 -0.5233
  584MOL0     C78762   5.719   2.378   3.222 -0.8982 -0.8075  0.2826
  584MOL0     O78763   5.590   2.370   3.173 -0.6547  0.1510 -0.7582
  584MOL0     C78764   5.518   2.254   3.161 -0.5120 -0.0220  0.2830
  584MOL0     C78765   5.369   2.295   3.132  0.3058  0.3470 -0.4318
  584MOL0     C78766   5.283   2.173   3.165 -0.6547  0.0688 -0.1404
  584MOL0     C78767   5.139   2.220   3.164 -0.6084  0.4633 -0.1222
  584MOL0     C78768   5.085   2.274   3.038  0.3743 -0.2643 -0.2713
  584MOL0     C78769   5.040   2.327   2.935 -0.3711  0.5095  0.2049
  584MOL0     C78770   5.778   2.503   3.243  0.7034 -0.4118  0.7361
  584MOL0     C78771   5.915   2.511   3.277  0.4581  0.1189 -0.5434
  584MOL0     C78772   5.975   2.645   3.266  0.2045 -0.8951 -0.1864
  584MOL0     H78773   6.222   2.424   3.642 -1.9932 -1.3617 -3.1547
  584MOL0     H78774   6.438   2.469   3.763  1.7469 -0.4630 -0.5361
  584MOL0     H78775   6.826   2.553   3.501  1.5849  2.5597 -0.3281
  584MOL0     H78776   6.738   2.703   3.527 -2.1999 -0.1140  0.1980
  584MOL0     H78777   6.822   2.713   3.765  0.2395  0.0545 -0.8833
  584MOL0     H78778   6.912   2.774   3.634  0.5804  0.1978  1.7383
  584MOL0     H78779   7.034   2.527   3.657  0.1448 -0.7846  0.4671
  584MOL0     H78780   6.929   2.504   3.795 -0.5986  1.2518  1.8410
  584MOL0     H78781   7.149   2.712   3.753  0.5116 -0.3691 -0.7934
  584MOL0     H78782   7.047   2.721   3.899  2.0765  1.7984 -1.8716
  584MOL0     H78783   7.256   2.623   3.967  1.3709 -1.1547  0.0534
  584MOL0     H78784   7.142   2.484   3.951 -0.5839 -1.5509 -2.0570
  584MOL0     H78785   7.244   2.468   3.718 -0.5934 -3.0403  1.6817
  584MOL0     H78786   7.373   2.575   3.765  0.9284 -0.1635  1.0660
  584MOL0     H78787   7.394   2.413   3.972  0.6019  1.8008 -0.5024
  584MOL0     H78788   7.476   2.380   3.816 -0.1641 -1.0512  0.1287
  584MOL0     H78789   7.199   2.290   3.887 -2.2776 -0.5279 -3.1208
  584MOL0     H78790   7.294   2.229   3.746  2.1232 -0.7915 -0.1309
  584MOL0     H78791   7.332   1.987   3.752  0.8530 -2.4188  1.4045
  584MOL0     H78792   7.529   1.782   4.027 -0.7528 -0.6872 -0.3454
  584MOL0     H78793   7.384   1.740   3.934  1.8316 -2.2559 -0.6397
  584MOL0     H78794   7.599   1.681   3.829  1.0925  0.0897 -2.0738
  584MOL0     H78795   7.486   1.779   3.729  1.7444 -0.5385 -0.6889
  584MOL0     H78796   7.723   1.880   3.903  1.6160  0.3242  0.8326
  584MOL0     H78797   7.643   1.975   3.767 -0.7997 -1.0049 -1.5472
  584MOL0     H78798   7.741   1.825   3.610  1.3166 -1.3610 -0.2811
  584MOL0     H78799   7.796   1.719   3.744  0.1543 -0.5658 -2.4049
  584MOL0     H78800   7.949   1.656   3.598  0.3702 -0.6093 -1.4515
  584MOL0     H78801   8.142   1.542   3.591 -3.4798  0.4810 -1.4649
  584MOL0     H78802   8.568   1.696   3.473 -2.0976  0.7275  2.3613
  584MOL0     H78803   8.800   1.641   3.374 -0.4513  1.3827 -0.1621
  584MOL0     H78804   9.060   1.469   3.357 -1.4023  0.3538 -0.5866
  584MOL0     H78805   9.035   1.643   3.347  1.5706  2.3797  1.6171
  584MOL0     H78806   9.259   1.469   3.401 -0.6460 -0.0004 -1.7325
  584MOL0     H78807   9.247   1.607   3.295 -0.5551  0.7795 -0.3282
  584MOL0     H78808   9.377   1.731   3.443  0.1439 -0.0275  0.2498
  584MOL0     H78809   9.244   1.738   3.549  0.9950 -2.0595  4.2691
  584MOL0     H78810   9.349   1.475   3.600 -1.1809  1.1196  0.8911
  584MOL0     H78811   9.382   1.619   3.690  0.9407  0.8586  0.0849
  584MOL0     H78812   9.596   1.526   3.636 -2.3861 -0.5593  0.1743
  584MOL0     H78813   9.573   1.685   3.572 -0.7390 -0.1197  1.3281
  584MOL0     H78814   9.519   1.443   3.391 -0.5116  1.2477 -2.9743
  584MOL0     H78815   9.530   1.602   3.348 -1.2451  3.0111  3.1538
  584MOL0     H78816   9.767   1.448   3.434  0.5846  0.1856 -1.8786
  584MOL0     H78817   9.773   1.628   3.422  0.3125 -0.0027  1.4862
  584MOL0     H78818   9.728   1.384   3.238 -1.2537 -0.3304  1.1404
  584MOL0     H78819   9.672   1.544   3.177  1.3257  0.8048 -0.6789
  584MOL0     H78820   8.940   1.603   3.784  0.2618  1.3157  0.1160
  584MOL0     H78821   8.712   1.640   3.859  0.2424 -2.5702 -0.4243
  584MOL0     H78822   8.346   1.888   3.766  0.4012  1.1667 -1.8836
  584MOL0     H78823   8.136   1.992   3.783 -1.7642 -1.1332 -0.5910
  584MOL0     H78824   6.617   2.609   3.390  0.4160  4.1674  0.9872
  584MOL0     H78825   6.387   2.580   3.283 -3.1306  2.1283  0.9020
  584MOL0     H78826   5.951   2.172   3.337 -0.0152 -0.8534 -5.2072
  584MOL0     H78827   5.737   2.167   3.245  2.4230 -1.5438  2.3149
  584MOL0     H78828   5.526   2.187   3.247  0.1991  2.8712  2.6632
  584MOL0     H78829   5.565   2.195   3.081 -4.6715 -2.4545 -0.6547
  584MOL0     H78830   5.361   2.319   3.025  1.5826  1.0936 -0.3805
  584MOL0     H78831   5.343   2.377   3.199  1.0676 -0.6690  1.1690
  584MOL0     H78832   5.314   2.132   3.262  1.8768  1.2875 -0.3438
  584MOL0     H78833   5.303   2.097   3.090  0.5897  1.7893 -1.6385
  584MOL0     H78834   5.083   2.129   3.188 -0.2293 -0.2655 -1.8791
  584MOL0     H78835   5.128   2.301   3.237 -0.3379 -0.0390  0.4816
  584MOL0     H78836   4.995   2.358   2.842 -0.5372  0.9250  0.4254
  584MOL0     H78837   5.710   2.581   3.212 -0.8230 -2.3469 -1.0864
  584MOL0     H78838   5.979   2.710   3.353  4.6891 -0.5122 -0.4700
  584MOL0     H78839   6.068   2.639   3.209 -0.0524  2.4741 -1.1717
  584MOL0     H78840   5.908   2.698   3.197 -0.4143 -2.1589 -0.6009
  585MOL0     O78841   3.604   5.201  10.370  0.1528 -0.1570 -0.6943
  585MOL0     C78842   3.571   5.106  10.438  0.1058 -0.6958 -1.3342
  585MOL0     O78843   3.645   5.054  10.548 -0.1015 -0.2043 -0.0822
  585MOL0     C78844   3.755   5.107  10.596  0.1067 -0.6867  0.2981
  585MOL0     C78845   3.861   5.130  10.508 -0.1582 -0.2369  0.6757
  585MOL0     C78846   3.986   5.184  10.558  0.1385 -0.2746 -0.1511
  585MOL0     C78847   3.995   5.224  10.692  0.2915  0.0262 -0.6797
  585MOL0     O78848   4.118   5.261  10.736 -0.0177  0.3373  0.1237
  585MOL0     C78849   4.152   5.295  10.869 -0.0549 -0.1532 -0.0071
  585MOL0     C78850   4.268   5.398  10.864 -0.1030 -0.0433  0.0649
  585MOL0     C78851   4.207   5.530  10.830 -0.5247 -0.3656 -0.4062
  585MOL0     C78852   4.311   5.640  10.808 -0.1362  0.5127  0.2144
  585MOL0     C78853   4.356   5.701  10.942  0.4598  0.8766 -0.3929
  585MOL0     C78854   4.470   5.807  10.914 -1.1468  0.2835  0.4429
  585MOL0     C78855   4.536   5.876  11.033 -0.5173 -0.1404 -0.2404
  585MOL0     C78856   4.588   6.013  10.979 -0.8962 -0.1074 -0.4794
  585MOL0     N78857   4.712   5.996  10.904  0.0444 -0.0790 -0.2888
  585MOL0     C78858   4.708   5.969  10.764  0.4406  0.9765  0.6457
  585MOL0     C78859   4.844   5.963  10.737 -0.4458  0.1766  0.2310
  585MOL0     C78860   4.901   5.953  10.602  0.1262 -0.3945  0.2825
  585MOL0     C78861   5.049   5.993  10.601 -0.0391 -0.0416  0.4609
  585MOL0     C78862   5.111   5.983  10.458  0.6552  0.5586  0.3515
  585MOL0     C78863   5.255   6.003  10.473  0.0914  1.2990 -0.5338
  585MOL0     O78864   5.315   6.036  10.350  0.2829 -0.5284  0.7024
  585MOL0     C78865   5.432   6.104  10.341  0.0750 -0.4124  0.7203
  585MOL0     C78866   5.516   6.127  10.457  0.9220  0.2469  0.7425
  585MOL0     C78867   5.637   6.185  10.437 -0.1746  0.3349  0.2938
  585MOL0     C78868   5.691   6.227  10.311  0.5526  0.1370  0.3942
  585MOL0     C78869   5.825   6.282  10.302 -0.2330  0.1461  0.1231
  585MOL0     O78870   5.880   6.330  10.415  0.1235  0.3862  0.4274
  585MOL0     C78871   6.005   6.382  10.407 -0.7241  0.5610 -0.2060
  585MOL0     C78872   6.042   6.507  10.446 -0.8185 -0.0650  0.0015
  585MOL0     C78873   6.170   6.552  10.480 -0.4228  0.7233  0.0474
  585MOL0     C78874   6.277   6.458  10.463  0.0837 -0.1391 -0.2572
  585MOL0     O78875   6.411   6.499  10.482 -0.6134  0.0845 -0.6419
  585MOL0     C78876   6.433   6.637  10.465  0.5201  0.2219  1.0854
  585MOL0     C78877   6.573   6.664  10.420  0.4706 -0.0763  0.3751
  585MOL0     C78878   6.673   6.575  10.493 -0.4672 -0.1890 -0.7269
  585MOL0     C78879   6.814   6.613  10.444 -0.6181  0.9344 -0.8803
  585MOL0     C78880   6.916   6.518  10.503  0.0021  0.0261 -0.7535
  585MOL0     C78881   7.050   6.567  10.462  0.4512  0.6052 -0.0069
  585MOL0     C78882   7.163   6.491  10.535 -0.5450  0.6251 -0.6015
  585MOL0     C78883   7.187   6.558  10.665 -0.5656  0.0705  0.2271
  585MOL0    Cl78884   7.311   6.480  10.765  0.0951 -0.2359 -0.1420
  585MOL0     C78885   6.244   6.321  10.430 -0.4077 -0.3298  0.9997
  585MOL0     C78886   6.113   6.286  10.395 -0.6501 -0.9506 -0.6110
  585MOL0     O78887   5.872   6.280  10.189 -0.0379 -0.1829 -0.1693
  585MOL0     C78888   5.603   6.212  10.196 -0.3314 -0.0297  0.0990
  585MOL0     C78889   5.480   6.146  10.213 -0.2467 -0.0921 -0.1625
  585MOL0     N78890   4.921   5.975  10.852 -0.1290  0.3808 -0.1258
  585MOL0     N78891   4.838   5.988  10.953 -0.5559  0.1689  0.3879
  585MOL0     C78892   3.876   5.201  10.774 -0.9489  0.4095  0.1012
  585MOL0     C78893   3.760   5.143  10.724  0.0700  0.0071  0.5687
  585MOL0     C78894   3.434   5.051  10.437  0.3534 -0.4697  0.6391
  585MOL0     C78895   3.380   4.991  10.556  0.2700  0.1168  0.9099
  585MOL0     C78896   3.242   4.967  10.565  0.4288  0.7342  0.4098
  585MOL0     C78897   3.153   4.999  10.462 -0.2140  0.2606  0.2399
  585MOL0     O78898   3.020   4.968  10.463 -0.6858  0.2791  0.2010
  585MOL0     C78899   2.950   4.968  10.593  0.0707 -0.6512 -0.4188
  585MOL0     C78900   2.806   4.972  10.562  0.4056  0.6072 -0.1792
  585MOL0     C78901   2.769   5.087  10.467 -0.0319 -0.0046  0.5605
  585MOL0     C78902   2.624   5.069  10.418 -0.7211 -1.1787 -0.1753
  585MOL0     C78903   2.571   5.190  10.362  0.4348  0.5166 -0.0550
  585MOL0     C78904   2.521   5.289  10.321 -0.3729 -0.7268 -0.6920
  585MOL0     C78905   3.206   5.048  10.346  0.7952  0.1351  1.1163
  585MOL0     C78906   3.341   5.072  10.326 -0.4560  0.2433  0.0019
  585MOL0     C78907   3.388   5.127  10.197  0.0906 -0.0138 -0.3427
  585MOL0     H78908   3.852   5.091  10.407  0.3129  0.0422  0.5190
  585MOL0     H78909   4.078   5.185  10.500 -0.8531  0.7021 -1.7851
  585MOL0     H78910   4.065   5.332  10.923 -0.9337  1.9455 -2.6053
  585MOL0     H78911   4.186   5.198  10.906  0.3115  0.2004  0.5994
  585MOL0     H78912   4.338   5.367  10.786 -0.0740 -2.1792  0.8615
  585MOL0     H78913   4.321   5.400  10.960 -1.0008 -1.6592  0.6484
  585MOL0     H78914   4.151   5.562  10.918  1.4078  0.3048  0.6413
  585MOL0     H78915   4.144   5.521  10.741 -1.0388  3.5011 -0.5778
  585MOL0     H78916   4.392   5.598  10.747 -1.2544 -0.8943 -0.3495
  585MOL0     H78917   4.288   5.728  10.749  4.5447  3.2880  1.9607
  585MOL0     H78918   4.268   5.738  10.996  0.6459 -0.0048  0.5352
  585MOL0     H78919   4.400   5.620  11.001  0.3825  1.7004  0.8410
  585MOL0     H78920   4.548   5.762  10.851 -0.9160  1.0189  0.1948
  585MOL0     H78921   4.424   5.886  10.854  0.8002  1.0779 -0.0769
  585MOL0     H78922   4.625   5.828  11.075  0.1251  0.8350 -0.4671
  585MOL0     H78923   4.466   5.880  11.117 -1.3075 -2.1842 -0.7487
  585MOL0     H78924   4.506   6.053  10.919 -2.2717 -1.9020  0.1053
  585MOL0     H78925   4.605   6.086  11.060 -1.5401 -0.8704  0.3639
  585MOL0     H78926   4.621   5.961  10.699  1.9285  1.7199 -1.5381
  585MOL0     H78927   4.896   5.851  10.561  0.2186 -0.1136 -0.4435
  585MOL0     H78928   4.850   6.023  10.536  2.5839 -0.3295 -1.7222
  585MOL0     H78929   5.064   6.096  10.635  0.9547 -0.3089  0.8747
  585MOL0     H78930   5.108   5.923  10.661 -0.6352 -1.0457 -0.1130
  585MOL0     H78931   5.080   6.061  10.388  0.7347  1.7188  1.5736
  585MOL0     H78932   5.086   5.887  10.411 -2.2159 -0.0635  2.8327
  585MOL0     H78933   5.309   5.916  10.512  0.5370  1.9872  0.4142
  585MOL0     H78934   5.269   6.084  10.545 -1.8502  1.8015 -0.6643
  585MOL0     H78935   5.478   6.098  10.554 -0.1853  1.5186  0.7165
  585MOL0     H78936   5.703   6.199  10.522  1.3548 -1.1863 -0.5760
  585MOL0     H78937   5.964   6.579  10.473  0.8588  1.0663  2.1123
  585MOL0     H78938   6.183   6.653  10.515 -1.0263  1.0364 -0.5946
  585MOL0     H78939   6.360   6.671  10.391  0.6323  0.5867  1.1387
  585MOL0     H78940   6.422   6.685  10.562  1.9363  1.5433  0.6467
  585MOL0     H78941   6.589   6.644  10.313  0.8050  2.9655 -0.2422
  585MOL0     H78942   6.609   6.764  10.445  2.8151 -0.5323 -0.8462
  585MOL0     H78943   6.676   6.582  10.602  3.1193 -1.2493 -0.6372
  585MOL0     H78944   6.654   6.472  10.462 -1.5585  0.1493 -1.2389
  585MOL0     H78945   6.836   6.716  10.474 -1.6856  0.7027  0.8455
  585MOL0     H78946   6.821   6.609  10.335  2.1819 -0.8342 -0.7439
  585MOL0     H78947   6.902   6.418  10.462  0.4937  0.3088 -1.6465
  585MOL0     H78948   6.900   6.514  10.612 -1.8127 -0.8481 -1.0256
  585MOL0     H78949   7.059   6.573  10.353 -0.4364  0.8209 -0.0707
  585MOL0     H78950   7.062   6.668  10.503  0.7958  0.2567  0.7845
  585MOL0     H78951   7.255   6.494  10.477  0.3325 -0.0054  0.6959
  585MOL0     H78952   7.141   6.387  10.561  0.9160  0.6266  0.8028
  585MOL0     H78953   7.218   6.661  10.648 -0.2422 -0.3605 -2.1557
  585MOL0     H78954   7.093   6.555  10.721 -0.5580 -1.9850  0.2318
  585MOL0     H78955   6.321   6.245  10.423 -0.7932 -0.6596  0.2507
  585MOL0     H78956   6.108   6.187  10.350 -1.3360 -1.8793  1.3770
  585MOL0     H78957   5.633   6.244  10.097 -0.7093  0.0720  0.0140
  585MOL0     H78958   5.424   6.106  10.130  2.6864 -1.2365 -1.7272
  585MOL0     H78959   3.876   5.240  10.875  0.7223  0.3916  0.1483
  585MOL0     H78960   3.678   5.134  10.794 -0.3974  1.9622  0.3533
  585MOL0     H78961   3.436   4.963  10.644 -0.2731  0.1239  1.2667
  585MOL0     H78962   3.210   4.903  10.647  0.8742 -1.2264 -0.8784
  585MOL0     H78963   2.990   5.055  10.645  1.8139  0.1548 -2.8752
  585MOL0     H78964   2.983   4.876  10.643 -1.3415 -0.5169  0.8046
  585MOL0     H78965   2.751   4.986  10.656 -0.5741  1.0167 -0.8076
  585MOL0     H78966   2.778   4.872  10.527  0.3809  0.6952 -0.4133
  585MOL0     H78967   2.840   5.101  10.385 -0.0271 -0.6485  0.4493
  585MOL0     H78968   2.773   5.178  10.526  3.0177  0.3121  0.0315
  585MOL0     H78969   2.648   4.995  10.341  2.1878 -0.5701  0.0283
  585MOL0     H78970   2.559   5.023  10.492  0.6882  0.0877  1.9641
  585MOL0     H78971   2.484   5.387  10.300  2.4622  0.7879  0.8608
  585MOL0     H78972   3.132   5.075  10.272 -0.6016 -0.3585  2.2861
  585MOL0     H78973   3.323   5.081  10.122 -1.4871 -2.0042  2.0730
  585MOL0     H78974   3.386   5.237  10.193  2.7544  0.2580  2.2929
  585MOL0     H78975   3.491   5.097  10.175  0.0475 -0.2960 -0.1615
  586MOL0     O78976   6.200   9.164   1.816 -0.7747  0.2801  0.0109
  586MOL0     C78977   6.237   9.249   1.898  0.4984 -0.3104  0.0205
  586MOL0     O78978   6.340   9.242   1.987  0.1918  0.2161 -0.1067
  586MOL0     C78979   6.407   9.122   1.997 -0.2361 -0.6300  0.3793
  586MOL0     C78980   6.366   8.994   1.969  0.5887  0.1021  0.3083
  586MOL0     C78981   6.451   8.880   1.970  0.5152 -1.1117  0.1464
  586MOL0     C78982   6.587   8.899   1.992 -0.0959  1.0126 -0.3614
  586MOL0     O78983   6.673   8.790   1.986  0.3760 -0.1846 -0.2392
  586MOL0     C78984   6.643   8.673   2.065 -1.1132  0.0567 -0.3091
  586MOL0     C78985   6.758   8.662   2.166  0.2236 -0.3818  0.0522
  586MOL0     C78986   6.753   8.531   2.255  0.1553 -0.5305  0.8140
  586MOL0     C78987   6.876   8.528   2.346  0.1471 -0.5922 -0.3251
  586MOL0     C78988   6.865   8.401   2.431  0.3342  0.5502 -0.6280
  586MOL0     C78989   6.981   8.369   2.514  0.5833 -0.2869  1.0846
  586MOL0     C78990   6.981   8.232   2.567 -0.7464 -0.2043  0.5262
  586MOL0     C78991   7.082   8.215   2.678  0.0167  0.3329  0.2507
  586MOL0     N78992   7.228   8.224   2.643 -0.1836 -0.0608 -0.5555
  586MOL0     C78993   7.315   8.122   2.615  0.9478  0.3032 -0.1634
  586MOL0     C78994   7.432   8.185   2.573 -0.1643 -0.0714  0.5848
  586MOL0     C78995   7.562   8.125   2.524 -0.2782 -0.7172 -0.2279
  586MOL0     C78996   7.541   7.997   2.434 -0.0266  0.1477  0.0013
  586MOL0     C78997   7.677   7.951   2.384  0.2380 -0.0210  0.7552
  586MOL0     C78998   7.645   7.880   2.245  0.3050 -0.1001 -0.6899
  586MOL0     O78999   7.744   7.783   2.210  0.3171  0.7303 -0.1810
  586MOL0     C79000   7.873   7.843   2.197  0.7624 -0.0350 -0.3446
  586MOL0     C79001   7.901   7.957   2.115 -0.3810 -0.4572 -0.1205
  586MOL0     C79002   8.025   8.018   2.119 -1.0768 -0.2372  0.4496
  586MOL0     C79003   8.126   7.970   2.203  0.2158 -0.1062  0.7575
  586MOL0     C79004   8.255   8.036   2.204 -0.6377 -0.0295 -0.1690
  586MOL0     O79005   8.350   7.984   2.284 -0.3220 -0.8018 -0.2146
  586MOL0     C79006   8.480   8.021   2.265  0.3704 -0.9715 -0.4613
  586MOL0     C79007   8.552   7.983   2.155 -0.4886  0.2485 -0.1101
  586MOL0     C79008   8.688   8.021   2.137 -0.4612 -0.7130 -0.8177
  586MOL0     C79009   8.748   8.104   2.231  0.2479 -1.2698  0.1295
  586MOL0     O79010   8.876   8.149   2.210  0.1575 -0.2515  0.2219
  586MOL0     C79011   8.964   8.164   2.325 -0.1885 -0.0794 -0.4344
  586MOL0     C79012   9.105   8.183   2.282 -0.2740 -0.8567 -0.5101
  586MOL0     C79013   9.200   8.190   2.406  0.5634  0.0636 -0.3161
  586MOL0     C79014   9.328   8.252   2.365 -0.0823 -0.0895 -0.4548
  586MOL0     C79015   9.424   8.252   2.495 -0.1120  0.3668 -0.5713
  586MOL0     C79016   9.529   8.362   2.488  0.3736 -0.7729 -0.5335
  586MOL0     C79017   9.570   8.398   2.634 -0.5404 -0.1232  1.0602
  586MOL0     C79018   9.677   8.503   2.635  0.3936  0.6514  0.5682
  586MOL0    Cl79019   9.831   8.423   2.582 -0.4135  0.2076 -0.1019
  586MOL0     C79020   8.668   8.153   2.332 -0.7977 -0.3115  0.0073
  586MOL0     C79021   8.538   8.105   2.352  0.9207 -1.1565  0.2333
  586MOL0     O79022   8.274   8.123   2.126 -0.2527  0.5218 -0.1166
  586MOL0     C79023   8.098   7.862   2.288 -0.2611  0.4073 -0.7390
  586MOL0     C79024   7.973   7.799   2.288 -0.4045  0.0729 -0.0784
  586MOL0     N79025   7.408   8.321   2.580  0.5738  0.2925  1.0173
  586MOL0     N79026   7.285   8.338   2.616  0.2088  0.5341 -0.7522
  586MOL0     C79027   6.633   9.026   2.026 -0.0664 -0.1198 -0.2275
  586MOL0     C79028   6.547   9.136   2.023 -0.2113 -0.1813  0.5516
  586MOL0     C79029   6.151   9.370   1.904 -0.3375 -0.0759  0.3867
  586MOL0     C79030   6.219   9.485   1.936  0.4053  0.3007  0.1801
  586MOL0     C79031   6.149   9.605   1.941  0.2717  0.5191  0.5995
  586MOL0     C79032   6.013   9.613   1.907  0.1050 -0.1151 -0.3458
  586MOL0     O79033   5.937   9.729   1.923 -0.3958 -0.5606  0.6011
  586MOL0     C79034   5.813   9.706   1.998  0.4888 -0.2428  0.1918
  586MOL0     C79035   5.725   9.830   1.985 -0.0976 -0.9117  0.0808
  586MOL0     C79036   5.580   9.815   2.055 -0.0609 -0.2627 -0.3166
  586MOL0     C79037   5.512   9.946   2.046  0.0077 -0.1926  0.0477
  586MOL0     C79038   5.434   9.957   1.919  0.7540 -0.3436 -0.1934
  586MOL0     C79039   5.360   9.951   1.827 -0.6073 -0.8027 -0.6354
  586MOL0     C79040   5.958   9.502   1.852 -0.4948 -0.2354  0.2527
  586MOL0     C79041   6.022   9.381   1.843 -0.1642 -0.6101 -0.0915
  586MOL0     C79042   5.954   9.267   1.779  0.0657 -0.5114 -0.0243
  586MOL0     H79043   6.260   8.976   1.955  0.3648  2.6478 -2.1207
  586MOL0     H79044   6.412   8.780   1.957 -0.5985 -1.1124  2.7049
  586MOL0     H79045   6.550   8.689   2.121 -0.5647  0.5843  0.4896
  586MOL0     H79046   6.649   8.579   2.010  2.0232  1.2405 -2.2847
  586MOL0     H79047   6.760   8.748   2.234 -0.6266 -2.9207  3.5853
  586MOL0     H79048   6.851   8.674   2.110  1.3665  0.3302  2.0288
  586MOL0     H79049   6.758   8.443   2.190  2.2519  0.6109 -0.6837
  586MOL0     H79050   6.663   8.538   2.316 -2.0851  3.5436 -2.4085
  586MOL0     H79051   6.969   8.542   2.290 -0.1548 -2.8197 -1.5180
  586MOL0     H79052   6.862   8.616   2.409 -0.6385  0.5713 -2.0531
  586MOL0     H79053   6.777   8.402   2.495  0.0719 -1.0815 -0.9321
  586MOL0     H79054   6.856   8.319   2.360  0.7780 -1.3627  1.4228
  586MOL0     H79055   7.072   8.366   2.453  1.1533 -0.5675  1.9304
  586MOL0     H79056   6.994   8.443   2.595  1.4110  0.4464  0.3042
  586MOL0     H79057   7.007   8.164   2.486  1.5039  2.7203 -1.4257
  586MOL0     H79058   6.882   8.209   2.607 -1.6954  0.3129 -1.4334
  586MOL0     H79059   7.066   8.300   2.745  1.8368  2.5287 -1.9066
  586MOL0     H79060   7.065   8.122   2.732  1.1381  1.0369  1.8797
  586MOL0     H79061   7.295   8.015   2.622 -1.8445  0.6135 -1.7730
  586MOL0     H79062   7.612   8.206   2.469 -1.6957 -0.3515 -1.0461
  586MOL0     H79063   7.608   8.098   2.619 -1.1730  0.5213  0.5881
  586MOL0     H79064   7.498   7.911   2.487  2.0302 -0.1766  1.2353
  586MOL0     H79065   7.473   8.019   2.351  0.8712 -0.1395 -0.8323
  586MOL0     H79066   7.722   7.879   2.453  2.7775 -0.3240 -1.0718
  586MOL0     H79067   7.755   8.026   2.369  3.1612 -2.4562  2.4509
  586MOL0     H79068   7.627   7.957   2.169  1.0498  2.4419  1.5559
  586MOL0     H79069   7.559   7.812   2.252 -0.1436  0.1015 -3.3335
  586MOL0     H79070   7.826   7.993   2.046  0.0968  0.3831 -0.2146
  586MOL0     H79071   8.032   8.111   2.063 -0.2697  0.2142  1.2804
  586MOL0     H79072   8.521   7.915   2.077  3.4790 -1.3353 -0.5152
  586MOL0     H79073   8.738   7.994   2.044 -1.2069  1.1722 -1.8193
  586MOL0     H79074   8.924   8.247   2.385  2.1361  0.6866  0.1449
  586MOL0     H79075   8.966   8.072   2.383 -0.2407  1.0208  1.3998
  586MOL0     H79076   9.142   8.102   2.219 -0.1347 -1.2415  0.0538
  586MOL0     H79077   9.119   8.272   2.220 -1.3609 -1.7639 -2.1222
  586MOL0     H79078   9.143   8.240   2.485  1.8411  0.9441  0.0831
  586MOL0     H79079   9.224   8.092   2.449  0.0588  0.0611 -0.0425
  586MOL0     H79080   9.302   8.351   2.327 -0.5284  0.3215  0.8529
  586MOL0     H79081   9.390   8.202   2.290 -0.8325  0.2197 -1.2985
  586MOL0     H79082   9.465   8.150   2.499  2.5570  1.3740  0.0418
  586MOL0     H79083   9.373   8.266   2.591  2.8580  0.4634  1.1051
  586MOL0     H79084   9.606   8.345   2.413  1.7465 -0.3537  0.7328
  586MOL0     H79085   9.490   8.456   2.448 -1.9725 -2.0468 -1.4097
  586MOL0     H79086   9.614   8.316   2.692  2.0732  1.4586  1.4949
  586MOL0     H79087   9.488   8.443   2.690 -0.1071  0.1478  1.4888
  586MOL0     H79088   9.652   8.588   2.570  0.6381 -0.2151 -0.6927
  586MOL0     H79089   9.698   8.555   2.729  1.6408 -0.0390  0.6954
  586MOL0     H79090   8.709   8.224   2.404  0.4189  0.1442 -1.1120
  586MOL0     H79091   8.480   8.139   2.437  0.8967 -0.4355 -0.0648
  586MOL0     H79092   8.170   7.822   2.359 -1.2479  0.3996  0.2936
  586MOL0     H79093   7.964   7.712   2.353  0.6276 -0.0592 -0.0970
  586MOL0     H79094   6.738   9.043   2.048  0.3568  0.4971 -2.5368
  586MOL0     H79095   6.585   9.237   2.035 -0.2728 -0.2804  1.6638
  586MOL0     H79096   6.324   9.491   1.963  0.7519 -0.5766 -0.8840
  586MOL0     H79097   6.204   9.694   1.971  1.6397 -1.1882  3.6354
  586MOL0     H79098   5.845   9.690   2.101 -0.0749 -1.0356  0.2556
  586MOL0     H79099   5.749   9.624   1.964 -1.0187  1.2191 -0.6769
  586MOL0     H79100   5.704   9.843   1.878 -2.5518  2.4999  0.8136
  586MOL0     H79101   5.778   9.914   2.032  1.2409 -0.6432 -1.7937
  586MOL0     H79102   5.599   9.788   2.160 -3.7120 -0.4376  0.4461
  586MOL0     H79103   5.527   9.740   1.996 -0.9686 -0.0276  0.1699
  586MOL0     H79104   5.441   9.948   2.129  0.1158  2.5903  0.1605
  586MOL0     H79105   5.579  10.029   2.071 -1.0699  0.2881  1.5151
  586MOL0     H79106   5.297   9.961   1.741  0.5978  1.6840 -1.3384
  586MOL0     H79107   5.858   9.509   1.809  0.9724  0.1814 -3.4286
  586MOL0     H79108   5.977   9.251   1.673 -0.4463 -1.2697 -0.0305
  586MOL0     H79109   5.973   9.184   1.848 -0.2138 -0.7207 -0.1979
  586MOL0     H79110   5.845   9.275   1.779 -0.3553 -4.1592 -1.0551
  587MOL0     O79111   0.726   4.999   7.034 -0.6868 -0.0758 -0.4423
  587MOL0     C79112   0.621   5.030   6.981  0.6113 -0.4551 -0.1272
  587MOL0     O79113   0.592   5.009   6.846 -0.0102 -0.1630 -0.4039
  587MOL0     C79114   0.681   4.933   6.773 -0.0450 -0.4554  0.6193
  587MOL0     C79115   0.657   4.799   6.756  0.5005  0.5570  0.6344
  587MOL0     C79116   0.752   4.715   6.697  0.1517  0.1338  0.4210
  587MOL0     C79117   0.860   4.767   6.626 -0.5288  0.1143  0.1000
  587MOL0     O79118   0.952   4.690   6.565  0.3475  0.3535 -0.5733
  587MOL0     C79119   1.063   4.652   6.645  0.6608  0.1364  0.3737
  587MOL0     C79120   1.146   4.544   6.577  0.4264 -0.4450 -0.3806
  587MOL0     C79121   1.238   4.613   6.472 -0.4534 -0.0434 -0.1643
  587MOL0     C79122   1.356   4.530   6.426  0.7663  1.1147 -0.2767
  587MOL0     C79123   1.434   4.594   6.314  0.7017  0.0774  0.6929
  587MOL0     C79124   1.559   4.510   6.281  0.0277  0.5464  0.0593
  587MOL0     C79125   1.646   4.570   6.166 -0.4531 -0.3162 -0.4434
  587MOL0     C79126   1.769   4.479   6.137 -0.6858 -0.0453  0.3331
  587MOL0     N79127   1.889   4.570   6.106  1.3831  0.4161 -0.3402
  587MOL0     C79128   1.970   4.615   6.201 -0.1531  0.1790 -0.2181
  587MOL0     C79129   2.082   4.666   6.137 -0.6195  0.3946  0.0458
  587MOL0     C79130   2.212   4.722   6.206  0.3341  0.0668 -0.1700
  587MOL0     C79131   2.332   4.618   6.255 -0.1595  0.4605  0.4271
  587MOL0     C79132   2.298   4.558   6.392 -0.1456 -0.3025 -0.2225
  587MOL0     C79133   2.411   4.466   6.438 -0.4851  0.3453  0.5705
  587MOL0     O79134   2.529   4.547   6.445  0.1380  0.5208 -0.4659
  587MOL0     C79135   2.640   4.483   6.499 -0.1933  0.9374  0.9879
  587MOL0     C79136   2.675   4.355   6.447  0.4457  0.0730 -0.3179
  587MOL0     C79137   2.788   4.290   6.492  0.4528 -0.3070 -0.7758
  587MOL0     C79138   2.879   4.363   6.575 -0.3455 -0.1333  0.0189
  587MOL0     C79139   3.006   4.297   6.620  0.1958 -0.1063 -0.0982
  587MOL0     O79140   3.083   4.369   6.715  0.0855 -0.2472 -0.7248
  587MOL0     C79141   3.206   4.328   6.750 -0.0715  0.1866 -0.1441
  587MOL0     C79142   3.319   4.405   6.729 -0.2005 -0.0628  0.3016
  587MOL0     C79143   3.444   4.366   6.778  0.1376  0.0311 -0.2790
  587MOL0     C79144   3.463   4.237   6.841 -0.2617 -0.8973  0.1568
  587MOL0     O79145   3.581   4.192   6.882 -0.7110 -0.8320 -0.1067
  587MOL0     C79146   3.679   4.284   6.941  0.1604 -0.0666 -1.0474
  587MOL0     C79147   3.769   4.207   7.039  0.0240 -0.2372  0.4170
  587MOL0     C79148   3.881   4.291   7.100 -0.6975  0.1902  0.1212
  587MOL0     C79149   3.978   4.202   7.181  0.5758 -0.2399  0.2062
  587MOL0     C79150   4.120   4.255   7.192 -0.2246 -0.1155  0.2714
  587MOL0     C79151   4.195   4.255   7.065  0.1100  0.7056 -0.1317
  587MOL0     C79152   4.326   4.319   7.066  0.0441 -0.1815 -0.4023
  587MOL0     C79153   4.367   4.352   6.922  0.0995 -0.0740  0.6498
  587MOL0    Cl79154   4.532   4.410   6.926 -0.3847 -0.1758  0.3107
  587MOL0     C79155   3.349   4.149   6.844  0.2685 -0.6678  0.1515
  587MOL0     C79156   3.223   4.199   6.811  0.7685 -0.4495  1.0147
  587MOL0     O79157   3.025   4.180   6.581 -0.1912  0.0401 -0.4333
  587MOL0     C79158   2.852   4.494   6.617 -0.1429  0.2657  0.6331
  587MOL0     C79159   2.732   4.553   6.571  0.2219  0.1473  0.3217
  587MOL0     N79160   2.061   4.643   6.002  0.3894 -0.4858 -0.0248
  587MOL0     N79161   1.936   4.590   5.987 -0.2747  0.0914 -0.3531
  587MOL0     C79162   0.898   4.904   6.651 -1.2213  0.0775 -0.0116
  587MOL0     C79163   0.807   4.981   6.720 -0.1341  0.8263 -0.2918
  587MOL0     C79164   0.519   5.083   7.081  0.1753 -0.2412  0.3089
  587MOL0     C79165   0.387   5.056   7.050 -0.2156  0.6806 -0.0701
  587MOL0     C79166   0.289   5.085   7.143  0.2504 -0.4633  0.0828
  587MOL0     C79167   0.314   5.149   7.261  0.1490 -0.5106 -0.4565
  587MOL0     O79168   0.213   5.188   7.348  0.1008 -0.4403  0.5329
  587MOL0     C79169   0.074   5.197   7.292  0.3254 -0.0294 -0.2723
  587MOL0     C79170  -0.008   5.273   7.400 -1.3725 -0.1033  0.0801
  587MOL0     C79171  -0.145   5.307   7.371  0.7446 -0.7634 -0.6655
  587MOL0     C79172  -0.221   5.207   7.288 -0.3412  0.1050  0.0541
  587MOL0     C79173  -0.190   5.205   7.148  0.1288  1.0349 -0.5499
  587MOL0     C79174  -0.168   5.187   7.035  0.1250 -0.3695  1.0141
  587MOL0     C79175   0.440   5.189   7.299  0.1581 -0.5159  0.7511
  587MOL0     C79176   0.543   5.157   7.209  0.0594  0.4176 -0.4306
  587MOL0     C79177   0.678   5.208   7.247  0.1125  0.5658 -0.4287
  587MOL0     H79178   0.565   4.750   6.787 -1.6473  2.7791 -1.6465
  587MOL0     H79179   0.729   4.610   6.678 -0.9127  0.7240 -1.9791
  587MOL0     H79180   1.128   4.738   6.665  0.0974  1.1835 -1.9929
  587MOL0     H79181   1.029   4.611   6.740  1.9569  2.5860  1.9843
  587MOL0     H79182   1.088   4.464   6.528  2.2346 -1.5675 -0.7767
  587MOL0     H79183   1.193   4.489   6.659 -2.9670 -1.1725  1.2578
  587MOL0     H79184   1.282   4.709   6.502  2.7063 -1.1474 -0.8405
  587MOL0     H79185   1.170   4.634   6.390 -0.0275  2.4973  0.0327
  587MOL0     H79186   1.429   4.509   6.505  2.6607  2.1725 -1.6430
  587MOL0     H79187   1.320   4.432   6.396  3.2902  0.1066 -0.2772
  587MOL0     H79188   1.368   4.584   6.227  0.1155  0.6932  1.0608
  587MOL0     H79189   1.455   4.701   6.318 -0.2585  0.4503 -2.0943
  587MOL0     H79190   1.623   4.501   6.370 -0.3491 -0.4322  0.2339
  587MOL0     H79191   1.518   4.415   6.247 -0.4633  0.4981  0.7462
  587MOL0     H79192   1.687   4.667   6.196  0.7607 -1.0063  0.2222
  587MOL0     H79193   1.587   4.587   6.075  0.2589  1.0613 -0.6806
  587MOL0     H79194   1.795   4.412   6.219 -0.7164 -1.1155 -0.5163
  587MOL0     H79195   1.748   4.419   6.048  0.6020 -1.9436  1.2492
  587MOL0     H79196   1.962   4.615   6.309 -0.3085  0.1308 -0.2291
  587MOL0     H79197   2.260   4.788   6.133  0.1530  0.2048 -0.1656
  587MOL0     H79198   2.185   4.787   6.290  3.8988  2.6455 -0.7719
  587MOL0     H79199   2.353   4.531   6.192 -1.4616  1.1813 -1.0769
  587MOL0     H79200   2.425   4.676   6.266  2.0024 -2.2665 -1.8257
  587MOL0     H79201   2.205   4.503   6.377 -0.5111 -0.5108  2.4081
  587MOL0     H79202   2.293   4.641   6.463 -0.0406 -0.5967  0.1292
  587MOL0     H79203   2.425   4.380   6.373  2.1727  1.6045 -0.6511
  587MOL0     H79204   2.389   4.427   6.538  1.9403  2.3813  2.0091
  587MOL0     H79205   2.613   4.294   6.383  0.7703 -1.1065  0.4600
  587MOL0     H79206   2.820   4.192   6.460  2.3856  0.8342 -2.5416
  587MOL0     H79207   3.302   4.501   6.682 -3.5887 -0.2387  0.9576
  587MOL0     H79208   3.526   4.436   6.772 -1.6117  2.0773 -1.9075
  587MOL0     H79209   3.745   4.328   6.866  0.1343  1.7749 -0.0449
  587MOL0     H79210   3.624   4.367   6.986  0.2919  0.2261 -1.4220
  587MOL0     H79211   3.707   4.174   7.124 -0.2961 -0.7698 -0.0160
  587MOL0     H79212   3.812   4.121   6.987 -2.0192 -2.3997  2.0059
  587MOL0     H79213   3.934   4.350   7.024 -1.9281  2.3830  0.8709
  587MOL0     H79214   3.840   4.364   7.170 -0.0707 -0.3242  1.0537
  587MOL0     H79215   3.987   4.108   7.127 -0.1583 -0.1104 -0.1511
  587MOL0     H79216   3.930   4.189   7.279  1.2252  1.1979  0.7592
  587MOL0     H79217   4.186   4.194   7.255 -2.3277 -1.0806  1.6382
  587MOL0     H79218   4.124   4.357   7.231  1.2566 -0.4107  0.9805
  587MOL0     H79219   4.220   4.151   7.040  0.2560  0.5545  0.6287
  587MOL0     H79220   4.130   4.305   6.993 -1.5379  1.5937  1.8994
  587MOL0     H79221   4.405   4.254   7.105  1.5073  0.9738 -1.2879
  587MOL0     H79222   4.328   4.415   7.120  1.3536 -1.1104  1.3050
  587MOL0     H79223   4.376   4.259   6.865  2.3500  0.4473  0.0726
  587MOL0     H79224   4.300   4.422   6.873 -0.3206 -0.9117 -0.0011
  587MOL0     H79225   3.360   4.046   6.877  0.0119 -0.7989 -0.1716
  587MOL0     H79226   3.130   4.145   6.823 -0.5713  0.1602 -4.2516
  587MOL0     H79227   2.918   4.556   6.676 -0.1502 -0.7271  1.7243
  587MOL0     H79228   2.720   4.660   6.581  0.1845  0.2840 -1.0118
  587MOL0     H79229   1.002   4.925   6.631 -1.3650 -0.8612 -2.0016
  587MOL0     H79230   0.811   5.085   6.753 -4.0904  0.2665  2.6822
  587MOL0     H79231   0.364   5.002   6.958 -0.8101  1.3565 -0.3338
  587MOL0     H79232   0.196   5.037   7.116 -0.7334  0.7703  1.1527
  587MOL0     H79233   0.031   5.097   7.285  1.3795 -0.6294  1.1529
  587MOL0     H79234   0.076   5.259   7.202  1.3589 -1.1673 -1.0782
  587MOL0     H79235   0.048   5.364   7.423 -0.4329 -0.8612  0.9080
  587MOL0     H79236   0.006   5.219   7.494  1.5949 -1.1688 -0.8600
  587MOL0     H79237  -0.156   5.402   7.318 -1.9168 -0.2102  0.6896
  587MOL0     H79238  -0.199   5.323   7.464 -3.3773 -0.4899 -2.8385
  587MOL0     H79239  -0.195   5.104   7.313  0.6116 -0.2511 -2.1513
  587MOL0     H79240  -0.326   5.231   7.310  0.7164  1.3851  4.7846
  587MOL0     H79241  -0.150   5.178   6.930 -3.5896 -1.1308  0.3055
  587MOL0     H79242   0.448   5.244   7.392  0.4232 -0.2462  0.5710
  587MOL0     H79243   0.699   5.303   7.195  0.5422  0.1632 -1.0045
  587MOL0     H79244   0.682   5.225   7.355 -0.2154 -1.9022  0.0264
  587MOL0     H79245   0.750   5.128   7.228  0.8928  1.0188  0.5461
  588MOL0     O79246   7.335   5.088  10.840 -0.9349 -0.0674  0.2867
  588MOL0     C79247   7.290   4.988  10.791  0.0639  0.1973  0.3464
  588MOL0     O79248   7.275   4.865  10.853  0.2363 -0.0573 -0.7260
  588MOL0     C79249   7.310   4.836  10.983  0.0292  0.6899  0.0388
  588MOL0     C79250   7.231   4.744  11.050  0.5815  0.7522 -0.2393
  588MOL0     C79251   7.268   4.708  11.180  0.4023  0.6400 -0.0577
  588MOL0     C79252   7.369   4.769  11.254  0.1790  0.3200 -0.1616
  588MOL0     O79253   7.404   4.737  11.383 -0.9541  0.4650 -0.2902
  588MOL0     C79254   7.289   4.706  11.464 -0.2005 -0.1879  0.3793
  588MOL0     C79255   7.344   4.664  11.609  0.6602 -0.3462  0.0522
  588MOL0     C79256   7.424   4.776  11.672  0.1232  0.2519 -0.2034
  588MOL0     C79257   7.488   4.718  11.803  0.3535  0.0987 -0.1236
  588MOL0     C79258   7.576   4.835  11.848 -0.1564  0.1787  0.0323
  588MOL0     C79259   7.629   4.819  11.991 -0.4297 -0.0434  0.5672
  588MOL0     C79260   7.684   4.953  12.053  0.0664 -0.5658  0.1076
  588MOL0     C79261   7.718   4.940  12.205 -0.0356  0.2554  0.1907
  588MOL0     N79262   7.720   5.077  12.249  0.6987 -0.3690 -0.6250
  588MOL0     C79263   7.829   5.167  12.243 -0.0327 -0.4437  0.9055
  588MOL0     C79264   7.780   5.291  12.288  0.0904  0.0611  0.3138
  588MOL0     C79265   7.849   5.427  12.295 -0.7301  0.2927  1.0027
  588MOL0     C79266   8.000   5.415  12.335  0.0325  0.0269  0.1821
  588MOL0     C79267   8.058   5.552  12.322 -0.0246 -0.6607  0.2674
  588MOL0     C79268   8.199   5.556  12.386  0.3958 -0.5715  0.0825
  588MOL0     O79269   8.189   5.548  12.534  0.0525  0.8932 -0.1773
  588MOL0     C79270   8.308   5.526  12.607 -0.1311  0.0472  0.2226
  588MOL0     C79271   8.442   5.519  12.552  0.2395 -0.4859  0.5567
  588MOL0     C79272   8.551   5.482  12.629  1.1293 -0.3288  0.6941
  588MOL0     C79273   8.530   5.450  12.762 -0.2499  0.8202 -0.8354
  588MOL0     C79274   8.645   5.381  12.840 -0.2991 -0.1093 -0.2682
  588MOL0     O79275   8.751   5.330  12.777 -0.4815 -0.1106 -0.0334
  588MOL0     C79276   8.823   5.245  12.856  0.4605  0.2712 -0.2134
  588MOL0     C79277   8.950   5.278  12.896  0.3956  1.1416  0.0819
  588MOL0     C79278   9.025   5.188  12.978 -0.3940 -0.3261 -0.3654
  588MOL0     C79279   8.983   5.063  13.000  0.7745 -0.0809 -1.0287
  588MOL0     O79280   9.056   4.973  13.067  0.1157  0.1142  0.0723
  588MOL0     C79281   9.200   4.967  13.058  0.1593  0.8830 -0.8278
  588MOL0     C79282   9.247   4.817  13.079  0.3734  0.0412 -1.2057
  588MOL0     C79283   9.391   4.776  13.080 -1.1168  0.9283 -0.1560
  588MOL0     C79284   9.409   4.625  13.089 -0.6861  0.0885 -0.6723
  588MOL0     C79285   9.558   4.582  13.103  0.0298  0.5134 -0.2254
  588MOL0     C79286   9.648   4.623  12.984 -0.2448  0.5425  0.0327
  588MOL0     C79287   9.778   4.550  12.982 -0.5158  0.2344  0.3669
  588MOL0     C79288   9.883   4.617  13.075  0.6198  0.4210 -0.0655
  588MOL0    Cl79289   9.933   4.779  13.037 -0.3063 -0.3128  0.5485
  588MOL0     C79290   8.857   5.025  12.954  0.3617  0.4363  0.8734
  588MOL0     C79291   8.782   5.112  12.868 -0.5357  0.2480 -0.1636
  588MOL0     O79292   8.629   5.383  12.964  0.3900  0.2035  0.4196
  588MOL0     C79293   8.396   5.470  12.820  0.5347  0.6067  0.2213
  588MOL0     C79294   8.291   5.509  12.745 -0.5723  0.5839 -0.2290
  588MOL0     N79295   7.643   5.266  12.318 -0.2822 -0.4236 -0.1109
  588MOL0     N79296   7.609   5.141  12.295 -0.0641  0.4684  1.1683
  588MOL0     C79297   7.442   4.870  11.189  0.5842  0.3100 -0.8867
  588MOL0     C79298   7.414   4.894  11.049 -0.1196  0.0966 -0.0515
  588MOL0     C79299   7.226   4.995  10.652 -0.4109  0.4132  0.7124
  588MOL0     C79300   7.148   4.882  10.607  0.2970 -0.1926 -0.0928
  588MOL0     C79301   7.075   4.883  10.484 -0.0857  0.1186 -0.4109
  588MOL0     C79302   7.091   4.995  10.401 -0.2225 -0.8835  0.6427
  588MOL0     O79303   7.038   5.008  10.274  0.1099 -0.3094  0.8790
  588MOL0     C79304   7.009   4.886  10.205 -0.5879 -0.0649  0.1970
  588MOL0     C79305   6.977   4.921  10.061  0.5558 -0.5360 -0.4429
  588MOL0     C79306   6.914   4.797   9.995  0.0734 -0.2815  0.4042
  588MOL0     C79307   6.868   4.807   9.851  0.3342 -0.2208 -0.3020
  588MOL0     C79308   6.787   4.697   9.815  0.6371  0.4298  0.2574
  588MOL0     C79309   6.717   4.599   9.798 -0.2854 -1.4295  0.1219
  588MOL0     C79310   7.168   5.108  10.446  0.2031 -0.0588  0.5236
  588MOL0     C79311   7.235   5.109  10.565 -0.2768 -0.4464 -1.0628
  588MOL0     C79312   7.295   5.245  10.602  0.1418 -0.2742 -0.1138
  588MOL0     H79313   7.145   4.691  11.009 -0.1164  0.7932  1.0968
  588MOL0     H79314   7.210   4.630  11.227 -1.0630  0.0334 -2.6619
  588MOL0     H79315   7.218   4.789  11.464  1.9181  1.8941 -3.6194
  588MOL0     H79316   7.229   4.621  11.428 -2.0143 -0.3053  3.3213
  588MOL0     H79317   7.414   4.580  11.604  2.1428  0.8917 -0.7067
  588MOL0     H79318   7.261   4.635  11.673  0.5685 -0.2460 -0.0213
  588MOL0     H79319   7.348   4.853  11.687 -1.8811 -1.4958 -1.0342
  588MOL0     H79320   7.497   4.810  11.598 -1.2735  2.2617 -0.7382
  588MOL0     H79321   7.412   4.693  11.877  0.5713 -0.2023  0.0040
  588MOL0     H79322   7.550   4.631  11.778 -1.1795 -0.7331 -1.1624
  588MOL0     H79323   7.664   4.863  11.790  1.8342 -1.9915  1.7927
  588MOL0     H79324   7.511   4.923  11.845 -1.6335 -0.8779 -1.9536
  588MOL0     H79325   7.552   4.769  12.050 -2.7117 -0.6403 -2.6608
  588MOL0     H79326   7.710   4.747  11.972 -0.7826 -0.0463 -1.0842
  588MOL0     H79327   7.611   5.033  12.038 -0.9359 -1.7222 -1.5955
  588MOL0     H79328   7.765   4.995  11.992 -0.3053 -2.0233 -1.4850
  588MOL0     H79329   7.632   4.901  12.261 -0.2989 -0.9217 -0.9644
  588MOL0     H79330   7.813   4.889  12.225 -0.0527 -0.2476 -0.9217
  588MOL0     H79331   7.932   5.161  12.211 -0.2178  3.0846 -0.8516
  588MOL0     H79332   7.846   5.479  12.199  3.1178  0.3420  0.7429
  588MOL0     H79333   7.790   5.490  12.362 -2.5092 -1.2042  0.9125
  588MOL0     H79334   8.008   5.384  12.439 -3.0640  1.3909  0.9312
  588MOL0     H79335   8.052   5.349  12.265  1.7996  1.4083  0.1204
  588MOL0     H79336   7.997   5.625  12.376  2.9506  1.0072  1.5880
  588MOL0     H79337   8.070   5.578  12.216 -1.0025  1.0532  0.5464
  588MOL0     H79338   8.230   5.658  12.361 -0.1069 -0.2096  0.8888
  588MOL0     H79339   8.268   5.484  12.342 -1.5671 -0.8824 -2.8107
  588MOL0     H79340   8.458   5.557  12.452  1.0273  3.1770  1.9089
  588MOL0     H79341   8.648   5.483  12.581  0.9844  0.5601  0.3921
  588MOL0     H79342   8.988   5.377  12.872  0.5999  0.6842 -1.5839
  588MOL0     H79343   9.113   5.228  13.027 -0.9154 -1.3778  1.5618
  588MOL0     H79344   9.235   5.008  12.963 -2.3447  3.0028 -0.9441
  588MOL0     H79345   9.237   5.036  13.134 -0.0884  0.5826 -0.4288
  588MOL0     H79346   9.208   4.786  13.176  0.7984  1.5787 -0.5151
  588MOL0     H79347   9.187   4.757  13.009  1.2353 -0.6824 -1.3423
  588MOL0     H79348   9.452   4.828  13.006 -0.2786 -0.1616 -0.2719
  588MOL0     H79349   9.439   4.822  13.167  2.2657 -1.6135 -0.4216
  588MOL0     H79350   9.364   4.571  13.006 -2.5104 -0.4674  0.6286
  588MOL0     H79351   9.357   4.600  13.182  0.5530  2.4174  0.7500
  588MOL0     H79352   9.538   4.475  13.108 -0.3010  0.5868  0.0736
  588MOL0     H79353   9.612   4.630  13.186  2.2004  0.4699 -1.5507
  588MOL0     H79354   9.603   4.583  12.892 -1.4652  0.6162  0.5829
  588MOL0     H79355   9.667   4.731  12.981  0.5161  0.4066 -0.2130
  588MOL0     H79356   9.811   4.544  12.877 -3.0728  3.8884 -0.8419
  588MOL0     H79357   9.767   4.446  13.015 -0.3085 -0.0878 -0.5316
  588MOL0     H79358   9.842   4.617  13.177  0.5923 -2.0718 -0.0229
  588MOL0     H79359   9.969   4.550  13.090 -0.0832 -0.2256  1.2831
  588MOL0     H79360   8.820   4.924  12.967 -0.8089  0.6520 -0.5016
  588MOL0     H79361   8.686   5.071  12.839 -1.3583  0.5994  1.8744
  588MOL0     H79362   8.369   5.444  12.922 -1.8036 -1.6271 -0.8537
  588MOL0     H79363   8.190   5.521  12.785 -0.6465 -1.6926  0.4393
  588MOL0     H79364   7.529   4.919  11.231  2.7566 -2.7126 -1.5789
  588MOL0     H79365   7.472   4.973  11.001 -2.0020  2.3588  1.1769
  588MOL0     H79366   7.131   4.803  10.679  0.1985 -1.0220 -1.0014
  588MOL0     H79367   7.022   4.789  10.469 -1.8086  1.1050 -0.7116
  588MOL0     H79368   6.923   4.845  10.260 -1.2085 -0.5233 -1.0873
  588MOL0     H79369   7.096   4.821  10.211 -0.2526  0.3440 -0.1918
  588MOL0     H79370   7.066   4.949  10.005 -0.3777  1.6336 -0.9392
  588MOL0     H79371   6.909   5.007  10.058  0.2534 -0.7861 -0.7911
  588MOL0     H79372   6.834   4.767  10.064  0.0605  2.9879  2.0444
  588MOL0     H79373   6.992   4.720   9.993  2.2901  1.8561 -0.8170
  588MOL0     H79374   6.821   4.901   9.822  0.8164  0.1474  0.1030
  588MOL0     H79375   6.962   4.807   9.795  0.8344  3.6562  0.3102
  588MOL0     H79376   6.645   4.521   9.782 -0.5968 -0.7912 -1.8813
  588MOL0     H79377   7.164   5.193  10.378 -2.7616  0.1403  0.8252
  588MOL0     H79378   7.319   5.314  10.520 -0.7383  0.3942  0.1757
  588MOL0     H79379   7.210   5.290  10.654 -1.6864  0.4817 -3.4703
  588MOL0     H79380   7.384   5.250  10.665 -0.0849 -1.2839  0.2907
  589MOL0     O79381   1.887   0.794   5.886 -0.3964 -0.1296  0.3108
  589MOL0     C79382   1.967   0.741   5.809 -1.1990  0.0263  1.6422
  589MOL0     O79383   1.948   0.727   5.675  0.5839 -0.6971 -0.5684
  589MOL0     C79384   1.819   0.734   5.634  0.1346 -0.4953  0.0350
  589MOL0     C79385   1.703   0.660   5.674 -0.2559 -0.3345  0.1414
  589MOL0     C79386   1.583   0.668   5.610  0.3908 -0.4277 -0.1939
  589MOL0     C79387   1.567   0.752   5.500  0.7306 -0.6077 -0.4172
  589MOL0     O79388   1.448   0.785   5.440  0.1953  0.7646 -0.5264
  589MOL0     C79389   1.326   0.711   5.469  0.3854 -0.4844  0.4036
  589MOL0     C79390   1.210   0.773   5.382  0.1542  0.5501  0.4795
  589MOL0     C79391   1.105   0.666   5.359 -0.2171  0.4828  0.0129
  589MOL0     C79392   1.021   0.708   5.241 -0.4826  0.1234 -0.2229
  589MOL0     C79393   0.925   0.594   5.208 -0.1016 -0.6761  0.5779
  589MOL0     C79394   0.863   0.616   5.067 -0.5029  0.1405 -0.0823
  589MOL0     C79395   0.739   0.530   5.038 -0.8224  0.0151 -0.1056
  589MOL0     C79396   0.665   0.563   4.904  0.0326 -1.4373 -0.0982
  589MOL0     N79397   0.714   0.470   4.800  0.5286  0.1589  0.5335
  589MOL0     C79398   0.799   0.490   4.696  0.5456 -0.2394  0.3081
  589MOL0     C79399   0.815   0.363   4.639 -0.0547 -0.0127  0.6305
  589MOL0     C79400   0.894   0.340   4.520 -1.0964  0.1680  0.3803
  589MOL0     C79401   1.024   0.418   4.512  0.7801  0.4812  0.0716
  589MOL0     C79402   1.128   0.388   4.618  0.6959 -0.1237  0.3776
  589MOL0     C79403   1.241   0.500   4.614  0.1889  0.7814  0.6750
  589MOL0     O79404   1.206   0.641   4.623  0.2257 -0.7018 -0.4526
  589MOL0     C79405   1.303   0.736   4.614 -0.7707  0.4589 -0.1994
  589MOL0     C79406   1.437   0.703   4.594 -0.5771  0.7086 -0.8144
  589MOL0     C79407   1.541   0.796   4.602  0.2981  0.0056  0.2094
  589MOL0     C79408   1.518   0.935   4.619 -0.2139 -0.4433  0.7915
  589MOL0     C79409   1.624   1.026   4.635  0.2744  0.9539  0.5880
  589MOL0     O79410   1.593   1.152   4.627 -0.2003  0.5302  0.3181
  589MOL0     C79411   1.671   1.260   4.622 -0.5898 -0.1701 -0.0793
  589MOL0     C79412   1.816   1.265   4.647 -0.2021 -0.6211  0.8174
  589MOL0     C79413   1.874   1.391   4.641 -0.3231 -0.4742  0.2358
  589MOL0     C79414   1.809   1.511   4.608 -0.1292  0.5016  0.7118
  589MOL0     O79415   1.893   1.622   4.600  0.2950  0.3262  0.8559
  589MOL0     C79416   1.844   1.753   4.582 -0.4855  0.4269  0.2645
  589MOL0     C79417   1.957   1.863   4.579 -0.0676 -0.6130 -0.7187
  589MOL0     C79418   2.003   1.894   4.722 -0.5111  0.1464 -0.5566
  589MOL0     C79419   2.039   1.769   4.805  0.0408  0.3567 -0.7272
  589MOL0     C79420   2.152   1.691   4.760 -0.0390  0.2031 -0.4826
  589MOL0     C79421   2.285   1.757   4.803  0.0162  0.0679  0.3106
  589MOL0     C79422   2.391   1.653   4.760 -0.8646  0.5866 -0.2606
  589MOL0     C79423   2.526   1.731   4.777 -0.2557  0.6765  0.1689
  589MOL0    Cl79424   2.655   1.610   4.732 -0.3396 -0.1527  0.2764
  589MOL0     C79425   1.671   1.509   4.602 -0.5353  1.0193  0.0564
  589MOL0     C79426   1.608   1.389   4.600  0.2788  0.8996 -0.7059
  589MOL0     O79427   1.728   0.977   4.645  0.7090  0.2602  0.3787
  589MOL0     C79428   1.380   0.971   4.629  0.3561 -0.1073 -0.4879
  589MOL0     C79429   1.270   0.873   4.623 -0.5009 -0.4305 -0.0417
  589MOL0     N79430   0.725   0.282   4.695  0.0776 -0.2615 -0.5546
  589MOL0     N79431   0.665   0.345   4.787 -0.2687 -0.5142 -0.9230
  589MOL0     C79432   1.688   0.829   5.459  0.9765  0.0610 -0.7277
  589MOL0     C79433   1.814   0.811   5.523  0.3122 -0.4931  0.4313
  589MOL0     C79434   2.111   0.706   5.854  0.9516 -0.0307 -0.6824
  589MOL0     C79435   2.196   0.637   5.758  0.2151 -1.3841 -0.1228
  589MOL0     C79436   2.326   0.602   5.785 -0.3029  0.0049 -0.4390
  589MOL0     C79437   2.377   0.625   5.910 -0.3076 -0.5589 -0.4016
  589MOL0     O79438   2.498   0.562   5.943 -0.2044  0.1842 -0.5944
  589MOL0     C79439   2.528   0.541   6.083  0.7172  0.3523 -0.8573
  589MOL0     C79440   2.645   0.457   6.103 -0.6300  0.0546  0.0602
  589MOL0     C79441   2.771   0.509   6.027  0.2338  0.6955  0.1835
  589MOL0     C79442   2.908   0.494   6.088 -1.1455  0.7038 -0.6719
  589MOL0     C79443   2.922   0.360   6.146  0.5304 -0.2629  1.2913
  589MOL0     C79444   2.921   0.258   6.203  0.8449 -0.2708 -0.2251
  589MOL0     C79445   2.297   0.688   6.005  0.5867 -0.0612 -0.2013
  589MOL0     C79446   2.163   0.731   5.981  0.0243  0.6642  0.1254
  589MOL0     C79447   2.086   0.773   6.100  0.7580  0.0051  0.2291
  589MOL0     H79448   1.716   0.598   5.762  0.2817 -3.5660 -2.0457
  589MOL0     H79449   1.495   0.614   5.644 -2.6133  3.1789 -1.5832
  589MOL0     H79450   1.333   0.603   5.453  0.4484 -0.3052 -0.8629
  589MOL0     H79451   1.298   0.721   5.574  0.8352  0.9093  0.4070
  589MOL0     H79452   1.249   0.803   5.284 -1.2252 -3.5055 -1.5572
  589MOL0     H79453   1.166   0.862   5.427  1.5904  1.2580  0.5385
  589MOL0     H79454   1.062   0.644   5.457  1.3390  0.5299  0.7416
  589MOL0     H79455   1.159   0.576   5.330  1.1662  1.9669 -2.3140
  589MOL0     H79456   0.961   0.798   5.259 -0.3371  0.0310  0.7736
  589MOL0     H79457   1.083   0.721   5.152 -0.5159  1.0944 -0.1117
  589MOL0     H79458   0.973   0.496   5.208 -0.8152 -1.0565  2.1498
  589MOL0     H79459   0.854   0.586   5.291 -2.5397  3.5628 -0.7760
  589MOL0     H79460   0.842   0.723   5.069 -0.2507  0.1838  0.3914
  589MOL0     H79461   0.933   0.596   4.986 -1.9212 -1.1213 -1.0681
  589MOL0     H79462   0.670   0.547   5.121 -1.5366  0.7009 -0.8247
  589MOL0     H79463   0.765   0.423   5.032 -0.9141  0.0670 -1.8615
  589MOL0     H79464   0.557   0.552   4.907 -0.4056  1.6455 -0.8904
  589MOL0     H79465   0.684   0.667   4.875  1.4170 -1.9635 -1.2580
  589MOL0     H79466   0.849   0.582   4.671 -2.2899  0.9267 -1.6377
  589MOL0     H79467   0.918   0.233   4.530 -1.8372  0.0293  0.7417
  589MOL0     H79468   0.825   0.354   4.436 -1.3441  2.5917  0.9190
  589MOL0     H79469   1.066   0.394   4.415 -1.0986  1.3042 -1.0002
  589MOL0     H79470   0.998   0.525   4.510 -2.3348 -0.1849  0.1531
  589MOL0     H79471   1.165   0.287   4.601  2.6209  1.0078 -3.0997
  589MOL0     H79472   1.080   0.401   4.716 -2.0321  0.2559 -0.9267
  589MOL0     H79473   1.276   0.473   4.513 -0.0208 -0.6632  0.9667
  589MOL0     H79474   1.313   0.466   4.689 -1.9950 -2.1730  1.5830
  589MOL0     H79475   1.472   0.600   4.586  1.9523  1.3542  0.5959
  589MOL0     H79476   1.639   0.751   4.602  0.6158  0.6842  0.4928
  589MOL0     H79477   1.865   1.170   4.664  1.8771 -0.0388 -1.4348
  589MOL0     H79478   1.981   1.394   4.663 -0.2331  0.5455 -0.3162
  589MOL0     H79479   1.790   1.749   4.487 -0.9421 -4.6881  0.4617
  589MOL0     H79480   1.773   1.773   4.663 -1.8365 -0.3070 -0.7042
  589MOL0     H79481   2.040   1.824   4.520 -0.9643 -0.1988 -2.2867
  589MOL0     H79482   1.918   1.957   4.540  0.3048 -0.7709 -1.4824
  589MOL0     H79483   2.091   1.956   4.703 -0.7112  0.4976 -0.3423
  589MOL0     H79484   1.921   1.948   4.771 -1.1045 -1.4849  0.3516
  589MOL0     H79485   1.946   1.711   4.805  0.2425  0.0118 -2.0133
  589MOL0     H79486   2.054   1.789   4.911 -1.0336 -2.3065  0.0126
  589MOL0     H79487   2.142   1.662   4.655 -0.5988 -0.3944 -0.2701
  589MOL0     H79488   2.155   1.597   4.817  1.4189 -1.3508 -2.9465
  589MOL0     H79489   2.292   1.852   4.749  0.0508  0.9089  1.7463
  589MOL0     H79490   2.281   1.782   4.909  1.2617  1.7287  0.0036
  589MOL0     H79491   2.372   1.623   4.657 -0.6136  0.7769 -0.3629
  589MOL0     H79492   2.399   1.567   4.828 -1.4583  1.9209  1.5839
  589MOL0     H79493   2.531   1.815   4.706 -2.2150  0.6970  0.0215
  589MOL0     H79494   2.544   1.759   4.881 -1.1046 -1.2629  0.8805
  589MOL0     H79495   1.604   1.590   4.575  0.8238  1.7811 -1.1595
  589MOL0     H79496   1.501   1.376   4.593  0.6061 -2.3573 -1.3259
  589MOL0     H79497   1.344   1.073   4.643 -2.2846 -0.9039 -0.7838
  589MOL0     H79498   1.165   0.890   4.646 -0.4672  1.1672 -0.8979
  589MOL0     H79499   1.675   0.908   5.385 -0.7788  2.2152  1.7118
  589MOL0     H79500   1.898   0.868   5.484 -0.2020 -1.9473 -3.1957
  589MOL0     H79501   2.158   0.603   5.663 -0.0430  2.0087 -1.3877
  589MOL0     H79502   2.383   0.555   5.705 -0.9606  1.6539 -1.9382
  589MOL0     H79503   2.446   0.505   6.145  1.1490  0.9593  0.0975
  589MOL0     H79504   2.556   0.636   6.130 -2.6243  0.7520  0.5839
  589MOL0     H79505   2.616   0.354   6.082  1.4502 -0.4686 -0.5283
  589MOL0     H79506   2.680   0.458   6.207  0.0914  1.9961 -0.1470
  589MOL0     H79507   2.764   0.616   6.008  1.3673  1.0311  1.4598
  589MOL0     H79508   2.771   0.460   5.929 -0.8086  2.0116 -0.5059
  589MOL0     H79509   2.985   0.523   6.015  0.9047 -1.3922  0.5162
  589MOL0     H79510   2.925   0.565   6.169 -0.0673  1.6193 -1.6516
  589MOL0     H79511   2.935   0.164   6.253  0.8465 -0.4805 -0.6203
  589MOL0     H79512   2.340   0.702   6.103  1.4307 -0.9976 -0.4155
  589MOL0     H79513   2.149   0.812   6.181  0.8441 -0.8908  0.5995
  589MOL0     H79514   2.014   0.851   6.071  0.4576 -0.3729 -0.0419
  589MOL0     H79515   2.046   0.686   6.153  2.5316 -1.9387 -1.4568
  590MOL0     O79516   5.362   3.143   7.479  0.4075  0.0353  0.3196
  590MOL0     C79517   5.275   3.166   7.404  0.2045 -0.2574  0.5193
  590MOL0     O79518   5.302   3.212   7.276 -0.0516 -0.1959  0.0349
  590MOL0     C79519   5.425   3.200   7.220  0.3794  0.2012 -0.5702
  590MOL0     C79520   5.546   3.257   7.268 -0.0990  0.1395  0.1687
  590MOL0     C79521   5.668   3.235   7.202  0.0019 -0.8615 -0.5440
  590MOL0     C79522   5.673   3.159   7.086  1.0705 -0.2008 -0.1378
  590MOL0     O79523   5.795   3.138   7.027 -0.2869  0.0989 -0.1955
  590MOL0     C79524   5.793   3.092   6.883  0.2096  1.2489  0.0837
  590MOL0     C79525   5.936   3.068   6.839  0.2921  0.6124 -0.2729
  590MOL0     C79526   6.011   2.985   6.940  0.1932  0.0504  0.2890
  590MOL0     C79527   6.162   3.013   6.925  0.3061 -0.1438  0.1438
  590MOL0     C79528   6.227   2.964   6.791  0.8337 -0.0482 -0.3736
  590MOL0     C79529   6.379   2.975   6.807  0.4466  0.2443 -0.2187
  590MOL0     C79530   6.452   2.912   6.689 -1.1760 -0.4508  0.1946
  590MOL0     C79531   6.611   2.948   6.678 -0.2448 -0.5844  0.6892
  590MOL0     N79532   6.654   2.866   6.558  0.4619 -0.7339  0.2843
  590MOL0     C79533   6.707   2.746   6.572  0.8242  0.4712  0.2669
  590MOL0     C79534   6.744   2.700   6.444 -0.3059  0.6487  0.1451
  590MOL0     C79535   6.813   2.578   6.409  0.0423  1.1781 -0.3059
  590MOL0     C79536   6.963   2.575   6.468  0.2799  0.3803  0.1450
  590MOL0     C79537   7.039   2.708   6.430 -0.7790 -0.4171  0.0457
  590MOL0     C79538   7.052   2.742   6.280  0.1179 -0.0098 -0.6887
  590MOL0     O79539   7.127   2.636   6.216  0.7070  0.2249  0.2934
  590MOL0     C79540   7.260   2.652   6.195  0.7966 -0.2387 -0.1303
  590MOL0     C79541   7.347   2.741   6.257  0.1277  0.0440 -0.0828
  590MOL0     C79542   7.484   2.741   6.229 -0.2103  0.2402  0.0333
  590MOL0     C79543   7.545   2.638   6.154 -0.1879  0.1140 -0.3307
  590MOL0     C79544   7.693   2.627   6.143 -0.5192  0.0871  0.7340
  590MOL0     O79545   7.770   2.715   6.216 -0.3446  1.6246 -0.3008
  590MOL0     C79546   7.905   2.688   6.213 -0.1945  0.1338 -0.2683
  590MOL0     C79547   7.987   2.799   6.203 -0.5694  0.4472 -0.2704
  590MOL0     C79548   8.129   2.785   6.209  0.1560 -0.2660  0.0115
  590MOL0     C79549   8.188   2.658   6.234  0.1725 -0.6910  0.1185
  590MOL0     O79550   8.327   2.644   6.241  0.2288 -0.0765 -0.3534
  590MOL0     C79551   8.378   2.505   6.249 -0.3374 -0.1067  0.9547
  590MOL0     C79552   8.531   2.526   6.250 -0.9305 -0.1925  0.3452
  590MOL0     C79553   8.566   2.567   6.393 -0.3996 -1.7637  0.2487
  590MOL0     C79554   8.725   2.570   6.408 -0.3039 -1.1764  0.0979
  590MOL0     C79555   8.760   2.654   6.530 -0.4900 -0.6256 -0.3274
  590MOL0     C79556   8.908   2.681   6.535 -0.5693  0.6561  0.3772
  590MOL0     C79557   8.951   2.737   6.663  0.1732 -0.3838 -0.0765
  590MOL0     C79558   9.106   2.758   6.663  0.1419  0.5500 -0.7690
  590MOL0    Cl79559   9.177   2.838   6.525 -0.0705  0.2442 -0.2374
  590MOL0     C79560   8.094   2.548   6.266 -0.9407  0.3639  0.6765
  590MOL0     C79561   7.958   2.561   6.252 -0.6945  0.1468  0.2754
  590MOL0     O79562   7.736   2.553   6.055 -0.2723 -0.3471 -0.1818
  590MOL0     C79563   7.462   2.538   6.118  0.4735  0.1521 -0.3035
  590MOL0     C79564   7.321   2.544   6.131  0.4122  0.4150 -0.2702
  590MOL0     N79565   6.720   2.802   6.357  0.1902 -0.4860  0.1951
  590MOL0     N79566   6.672   2.899   6.427  0.4923  0.2873  0.3813
  590MOL0     C79567   5.549   3.096   7.039  0.1505 -0.3629  0.1581
  590MOL0     C79568   5.425   3.120   7.101 -1.2674 -0.4566  0.6552
  590MOL0     C79569   5.125   3.140   7.441 -0.1595  0.2269  0.3363
  590MOL0     C79570   5.023   3.188   7.350 -0.2767  1.5258 -0.4015
  590MOL0     C79571   4.887   3.172   7.386  0.1839  0.2187  0.4425
  590MOL0     C79572   4.847   3.107   7.499  0.3748  0.0543 -0.7123
  590MOL0     O79573   4.719   3.077   7.534 -0.1148 -0.1194  0.4617
  590MOL0     C79574   4.617   3.077   7.430  0.6513 -0.0215  0.6422
  590MOL0     C79575   4.505   2.992   7.477 -0.0223 -1.3807  0.9542
  590MOL0     C79576   4.406   3.061   7.573 -0.0236 -0.7051  0.0697
  590MOL0     C79577   4.296   2.969   7.600  0.1727  0.5983 -0.1103
  590MOL0     C79578   4.184   3.017   7.668  0.5707 -0.1636 -0.9597
  590MOL0     C79579   4.080   3.059   7.726  0.1149 -0.1724  0.0271
  590MOL0     C79580   4.941   3.056   7.584 -0.4292 -0.1111 -0.2953
  590MOL0     C79581   5.077   3.072   7.554 -0.1877 -0.0549  0.1037
  590MOL0     C79582   5.175   2.993   7.633 -0.2911 -0.0534  0.1891
  590MOL0     H79583   5.537   3.330   7.349 -4.2863  3.7438 -3.0080
  590MOL0     H79584   5.755   3.281   7.247 -2.0292  0.4470  2.3222
  590MOL0     H79585   5.729   3.004   6.874 -0.6458  1.7436  1.0110
  590MOL0     H79586   5.742   3.166   6.821  0.4007  0.7205 -0.7128
  590MOL0     H79587   5.987   3.163   6.819 -0.7157  0.7637 -2.4185
  590MOL0     H79588   5.935   3.007   6.749 -1.3806 -0.1814  0.2362
  590MOL0     H79589   5.996   2.880   6.915  0.8408 -0.7977  3.0408
  590MOL0     H79590   5.976   2.990   7.044 -2.5117  0.0421 -0.5649
  590MOL0     H79591   6.179   3.120   6.940 -2.7941  0.6327 -1.0488
  590MOL0     H79592   6.208   2.960   7.009 -0.8669  0.7084  1.3581
  590MOL0     H79593   6.203   2.858   6.776  2.5112 -0.7915  1.6845
  590MOL0     H79594   6.197   3.017   6.700  1.1537  2.2128  0.7776
  590MOL0     H79595   6.398   3.082   6.817 -1.4837  0.4607  2.2706
  590MOL0     H79596   6.420   2.930   6.898 -0.1203  1.6089  0.7420
  590MOL0     H79597   6.392   2.938   6.601  0.5164 -0.8587 -1.1370
  590MOL0     H79598   6.450   2.804   6.703  2.4045 -0.5189  1.0653
  590MOL0     H79599   6.635   3.054   6.667  0.2943 -0.8795 -1.3980
  590MOL0     H79600   6.662   2.918   6.770 -0.0288 -0.4720  0.6083
  590MOL0     H79601   6.714   2.687   6.663  1.0861  0.7666  0.4416
  590MOL0     H79602   6.756   2.492   6.445  1.9311 -0.8698 -1.9564
  590MOL0     H79603   6.815   2.580   6.300 -1.8294 -0.1912 -0.4049
  590MOL0     H79604   6.947   2.577   6.576  0.3424 -1.2763  0.2000
  590MOL0     H79605   7.020   2.488   6.435  2.3462  1.5378  0.5177
  590MOL0     H79606   7.140   2.706   6.474 -0.8422 -0.6152  0.1853
  590MOL0     H79607   6.981   2.792   6.467 -1.8365 -0.1899 -2.0439
  590MOL0     H79608   7.095   2.841   6.267 -0.4800  0.3483 -0.0459
  590MOL0     H79609   6.951   2.741   6.237 -0.8576 -2.0340  1.4401
  590MOL0     H79610   7.303   2.811   6.327 -0.5593 -0.3490 -0.1117
  590MOL0     H79611   7.541   2.819   6.278  0.0506  0.4525 -0.5981
  590MOL0     H79612   7.953   2.901   6.185  1.5241  1.2414  0.0082
  590MOL0     H79613   8.193   2.873   6.212 -2.2000  1.6205 -1.2401
  590MOL0     H79614   8.346   2.448   6.336  0.9046 -2.5033 -0.0650
  590MOL0     H79615   8.362   2.456   6.153  1.6873  0.7062  0.1471
  590MOL0     H79616   8.574   2.427   6.232 -0.1161 -0.0982  1.5800
  590MOL0     H79617   8.556   2.600   6.174 -1.6052  2.1197  2.2446
  590MOL0     H79618   8.520   2.662   6.423  1.1634 -1.2298  1.0503
  590MOL0     H79619   8.521   2.493   6.461 -1.4757 -0.5538  0.8904
  590MOL0     H79620   8.769   2.612   6.317 -0.1017  1.8155  1.4790
  590MOL0     H79621   8.769   2.470   6.416  2.6019  0.0554  0.7267
  590MOL0     H79622   8.726   2.599   6.618 -0.3935 -0.7686 -0.3801
  590MOL0     H79623   8.704   2.749   6.532 -1.3182 -1.1068  0.2555
  590MOL0     H79624   8.969   2.592   6.512 -0.5573  0.6898  0.2807
  590MOL0     H79625   8.923   2.754   6.456 -3.2734  3.3765  2.1561
  590MOL0     H79626   8.913   2.689   6.754 -0.2468  0.4306  0.1949
  590MOL0     H79627   8.904   2.836   6.669 -0.0872 -0.5985  2.5899
  590MOL0     H79628   9.138   2.807   6.755 -1.2362  0.8245 -0.4175
  590MOL0     H79629   9.157   2.662   6.677 -0.3034  0.2641 -1.0626
  590MOL0     H79630   8.138   2.456   6.302  3.4518 -0.1250 -4.6213
  590MOL0     H79631   7.894   2.479   6.281  1.1111  0.0507  4.6494
  590MOL0     H79632   7.513   2.450   6.080  3.4587  1.2814  0.8231
  590MOL0     H79633   7.266   2.459   6.092  1.6542 -0.6150  0.1752
  590MOL0     H79634   5.548   3.029   6.953  0.6660 -2.3861  1.6670
  590MOL0     H79635   5.338   3.064   7.066 -1.1890 -1.3310  1.8079
  590MOL0     H79636   5.056   3.238   7.259  2.3486 -0.1716 -0.4844
  590MOL0     H79637   4.814   3.217   7.319 -1.1102 -2.0738  0.2061
  590MOL0     H79638   4.661   3.031   7.340 -1.2112 -1.0046  0.1711
  590MOL0     H79639   4.575   3.177   7.418 -0.0397 -0.1062  2.1113
  590MOL0     H79640   4.548   2.903   7.525  0.0872 -2.3611 -0.8538
  590MOL0     H79641   4.453   2.953   7.389  0.3839 -0.5789  0.3512
  590MOL0     H79642   4.362   3.148   7.523  3.2227  1.1021  0.0877
  590MOL0     H79643   4.466   3.086   7.661  3.1505  0.3249 -2.1714
  590MOL0     H79644   4.250   2.941   7.505 -2.4816 -0.2923  1.3328
  590MOL0     H79645   4.337   2.878   7.645  0.8290  0.3891 -1.1053
  590MOL0     H79646   3.991   3.094   7.774  0.8320 -1.1247  2.1518
  590MOL0     H79647   4.923   3.007   7.679  0.5027  3.4258  1.8953
  590MOL0     H79648   5.128   2.902   7.671  0.0042 -1.4192 -2.4524
  590MOL0     H79649   5.253   2.951   7.568  1.5935 -0.0982  2.3520
  590MOL0     H79650   5.224   3.059   7.705  1.8683  1.2711 -2.3075
  591MOL0     O79651   5.495   9.370   4.898  0.8879  0.6534 -0.4298
  591MOL0     C79652   5.499   9.343   5.016  0.6225  0.3654  0.0423
  591MOL0     O79653   5.617   9.321   5.083 -0.0193 -0.5794  0.1828
  591MOL0     C79654   5.738   9.384   5.037 -0.3863 -0.6168 -0.0264
  591MOL0     C79655   5.763   9.509   4.980  0.7182  0.1623  0.0491
  591MOL0     C79656   5.891   9.561   4.961 -0.5744 -0.1195 -0.8334
  591MOL0     C79657   6.003   9.491   5.007  0.0304 -0.1089  0.6238
  591MOL0     O79658   6.135   9.538   4.987 -0.4746  0.1276 -0.6904
  591MOL0     C79659   6.218   9.556   5.104  0.1223 -0.0681 -0.1955
  591MOL0     C79660   6.351   9.502   5.088 -0.2101  0.1876 -0.7111
  591MOL0     C79661   6.351   9.351   5.052  0.3770 -0.4938  0.7152
  591MOL0     C79662   6.485   9.287   5.020 -0.3036  0.1104  0.3679
  591MOL0     C79663   6.588   9.281   5.135 -0.1648 -0.0547  0.4582
  591MOL0     C79664   6.712   9.194   5.097 -0.3032 -0.3074  0.0080
  591MOL0     C79665   6.810   9.192   5.214 -0.0660  0.5160 -0.1285
  591MOL0     C79666   6.798   9.072   5.293 -0.1002 -0.0965 -0.9862
  591MOL0     N79667   6.898   9.080   5.400  0.1733 -0.3456 -0.4601
  591MOL0     C79668   7.031   9.078   5.378 -0.4398 -0.1414  0.0337
  591MOL0     C79669   7.070   9.085   5.511  0.6647 -0.2487 -1.1441
  591MOL0     C79670   7.208   9.100   5.562 -0.0536 -0.3289  0.0596
  591MOL0     C79671   7.258   8.968   5.605 -0.0011 -0.0080 -0.2230
  591MOL0     C79672   7.404   8.989   5.622 -0.1350  0.1251 -0.6578
  591MOL0     C79673   7.463   8.870   5.699  0.5280  0.6313 -0.2234
  591MOL0     O79674   7.455   8.904   5.838  0.0226 -0.2704 -0.5582
  591MOL0     C79675   7.543   8.858   5.938 -0.4265  0.0422  0.1101
  591MOL0     C79676   7.648   8.760   5.913 -0.3197 -0.1362  0.8240
  591MOL0     C79677   7.746   8.739   6.011 -0.0011 -0.0995  0.4041
  591MOL0     C79678   7.738   8.796   6.136 -0.4494  0.1908 -0.5873
  591MOL0     C79679   7.837   8.744   6.233 -0.0324 -0.5957  0.8317
  591MOL0     O79680   7.948   8.691   6.176 -0.1022  0.2656  0.4796
  591MOL0     C79681   8.052   8.653   6.253 -0.9172  1.2064  0.3236
  591MOL0     C79682   8.115   8.713   6.358 -0.7426  0.6394  0.1585
  591MOL0     C79683   8.231   8.664   6.421  0.5899  0.3522  0.3579
  591MOL0     C79684   8.271   8.526   6.393 -0.5133  0.0667 -0.0459
  591MOL0     O79685   8.370   8.457   6.458  0.8010 -0.1743 -0.4080
  591MOL0     C79686   8.436   8.524   6.569  1.0667  0.2477  0.7475
  591MOL0     C79687   8.524   8.413   6.635 -0.5455 -0.1886 -0.4498
  591MOL0     C79688   8.591   8.469   6.759  0.1860  0.3431 -0.4677
  591MOL0     C79689   8.708   8.381   6.812 -0.2080 -0.1864  0.0209
  591MOL0     C79690   8.789   8.451   6.919 -0.5530 -0.4993 -1.0318
  591MOL0     C79691   8.888   8.345   6.976  0.5915  0.1502  0.5015
  591MOL0     C79692   8.951   8.391   7.113  0.0303  0.2043 -0.5971
  591MOL0     C79693   9.012   8.265   7.179 -0.3547 -0.6641 -0.2833
  591MOL0    Cl79694   9.123   8.321   7.306 -0.2850  0.1893  0.5163
  591MOL0     C79695   8.206   8.458   6.288 -0.1350 -0.6152  0.2902
  591MOL0     C79696   8.103   8.524   6.218  0.3507  0.2323 -0.7602
  591MOL0     O79697   7.816   8.769   6.347 -0.1486  0.1857  0.0286
  591MOL0     C79698   7.632   8.889   6.162 -0.1634 -0.0047 -0.1339
  591MOL0     C79699   7.532   8.915   6.060 -0.4033 -0.5244 -0.5435
  591MOL0     N79700   6.958   9.089   5.605 -0.4257 -0.0855 -0.3791
  591MOL0     N79701   6.857   9.088   5.530 -0.2712 -0.0322  0.4352
  591MOL0     C79702   5.986   9.371   5.075  0.4694  0.1750  0.2402
  591MOL0     C79703   5.858   9.316   5.078  0.7847  0.6880 -0.0775
  591MOL0     C79704   5.379   9.310   5.095 -0.4645  0.0029  0.1154
  591MOL0     C79705   5.398   9.228   5.211 -0.1499 -0.1908 -0.4716
  591MOL0     C79706   5.279   9.197   5.285 -0.1578 -1.0842 -0.1489
  591MOL0     C79707   5.148   9.246   5.254 -0.2021  0.4008  0.3875
  591MOL0     O79708   5.032   9.241   5.332 -0.2894 -0.1017  0.1608
  591MOL0     C79709   5.013   9.153   5.436  0.2873  1.0883 -0.2683
  591MOL0     C79710   5.016   9.008   5.378  0.4465 -0.6886 -0.1332
  591MOL0     C79711   5.008   8.892   5.477  0.1810 -0.1778  0.0994
  591MOL0     C79712   5.128   8.911   5.581  0.3952  0.2374 -0.4038
  591MOL0     C79713   5.154   8.797   5.675 -0.2981  0.5709  0.2496
  591MOL0     C79714   5.174   8.698   5.742 -1.0069 -0.8524  0.6087
  591MOL0     C79715   5.142   9.317   5.138  0.0873 -0.0541 -0.3617
  591MOL0     C79716   5.256   9.353   5.063  0.4385 -0.4504  0.8637
  591MOL0     C79717   5.224   9.448   4.950 -0.2516 -0.8790  0.6069
  591MOL0     H79718   5.668   9.557   4.955 -2.2759 -1.6637  6.0353
  591MOL0     H79719   5.915   9.653   4.908  0.4711 -0.5200 -1.0846
  591MOL0     H79720   6.209   9.662   5.127 -3.3348 -0.0582 -0.9477
  591MOL0     H79721   6.174   9.504   5.190 -1.3485  1.1994 -0.1461
  591MOL0     H79722   6.403   9.527   5.181 -1.8224  1.9839 -0.2464
  591MOL0     H79723   6.394   9.566   5.010  1.1783 -0.9464 -0.9348
  591MOL0     H79724   6.284   9.336   4.966 -1.1057 -0.1056  1.7618
  591MOL0     H79725   6.308   9.296   5.136  0.1893 -0.1749  0.8272
  591MOL0     H79726   6.482   9.185   4.980 -0.3918 -0.1987  1.1552
  591MOL0     H79727   6.531   9.341   4.936 -0.6529 -0.0003  0.1018
  591MOL0     H79728   6.614   9.381   5.171  0.4248  0.0807 -0.3445
  591MOL0     H79729   6.539   9.226   5.217  0.3717 -3.1212 -1.1074
  591MOL0     H79730   6.678   9.098   5.057 -0.0059  0.2874 -1.7627
  591MOL0     H79731   6.766   9.241   5.014 -1.1879  0.7993  0.0304
  591MOL0     H79732   6.794   9.280   5.278 -0.9326 -1.5691  2.7521
  591MOL0     H79733   6.905   9.193   5.161  0.3660 -0.8285  0.5757
  591MOL0     H79734   6.698   9.056   5.334 -0.3370  0.3400 -1.3784
  591MOL0     H79735   6.820   8.991   5.223  0.7593  0.1839 -1.0491
  591MOL0     H79736   7.083   9.072   5.283 -0.8587 -1.2905 -0.1311
  591MOL0     H79737   7.275   9.127   5.479 -1.3342 -0.2782 -0.9919
  591MOL0     H79738   7.211   9.172   5.644  1.3164  2.0138 -1.8927
  591MOL0     H79739   7.214   8.948   5.703 -3.2123  0.5613 -1.4449
  591MOL0     H79740   7.230   8.889   5.536 -0.9300  0.0836  0.0463
  591MOL0     H79741   7.432   9.075   5.684  3.3271  0.7089 -2.7424
  591MOL0     H79742   7.456   8.994   5.526  1.0265 -1.3908 -0.1397
  591MOL0     H79743   7.564   8.846   5.665 -0.5692 -3.0643 -1.3785
  591MOL0     H79744   7.399   8.784   5.677  2.1402 -0.2206 -1.8810
  591MOL0     H79745   7.653   8.715   5.814  0.3339 -3.2522  2.1480
  591MOL0     H79746   7.826   8.669   5.988  0.5255  0.6313 -0.0357
  591MOL0     H79747   8.076   8.806   6.399  3.1875  1.8877  1.4884
  591MOL0     H79748   8.286   8.722   6.494 -0.5800 -0.3505  1.8566
  591MOL0     H79749   8.496   8.608   6.533  1.1580  0.3225  1.0766
  591MOL0     H79750   8.369   8.563   6.645 -0.8287  0.8032 -1.1309
  591MOL0     H79751   8.448   8.341   6.665  0.0173 -0.9124 -0.7401
  591MOL0     H79752   8.594   8.358   6.571 -0.0175 -0.5309  0.4001
  591MOL0     H79753   8.623   8.573   6.745 -0.0721  0.0486 -4.0721
  591MOL0     H79754   8.521   8.463   6.843  1.0115 -1.1950  0.1623
  591MOL0     H79755   8.779   8.346   6.737  1.0556  0.1540  1.0033
  591MOL0     H79756   8.669   8.288   6.855  1.0348 -0.6524  0.1836
  591MOL0     H79757   8.723   8.485   6.999  0.7012  2.5064 -1.1249
  591MOL0     H79758   8.839   8.542   6.883  0.1741 -0.8782 -0.9936
  591MOL0     H79759   8.843   8.247   6.990 -1.6120  1.1349  0.6841
  591MOL0     H79760   8.968   8.335   6.901  1.7940  1.7892  1.5068
  591MOL0     H79761   8.879   8.433   7.184  0.1631  0.1085 -0.4045
  591MOL0     H79762   9.034   8.461   7.106 -0.3002  0.6389 -0.2206
  591MOL0     H79763   8.938   8.199   7.224  0.6955  1.2194  5.0022
  591MOL0     H79764   9.069   8.209   7.104  3.2256  0.2353  1.5520
  591MOL0     H79765   8.241   8.360   6.257  2.0042  0.2726 -0.2908
  591MOL0     H79766   8.057   8.473   6.133 -0.9651 -0.4883  0.3535
  591MOL0     H79767   7.622   8.948   6.252 -2.0950  1.4568 -1.2393
  591MOL0     H79768   7.449   8.984   6.072 -0.3073 -0.7687  2.1555
  591MOL0     H79769   6.079   9.319   5.097  1.7955  0.7754 -3.2217
  591MOL0     H79770   5.843   9.221   5.129  2.4308 -0.6953 -2.0301
  591MOL0     H79771   5.495   9.192   5.244 -0.9049 -1.6826  0.2208
  591MOL0     H79772   5.296   9.149   5.381 -1.3048  0.2292  0.7598
  591MOL0     H79773   4.917   9.172   5.486  0.5386  2.7905 -0.3933
  591MOL0     H79774   5.084   9.184   5.512  2.1589 -0.1621 -1.4108
  591MOL0     H79775   5.104   8.984   5.317  0.1510  1.3091 -1.4277
  591MOL0     H79776   4.937   9.002   5.303  3.1861 -0.2401 -3.3019
  591MOL0     H79777   5.011   8.798   5.422 -1.6116  0.1253 -0.5917
  591MOL0     H79778   4.918   8.899   5.539  0.0981  2.5611 -0.2048
  591MOL0     H79779   5.223   8.934   5.533  2.8361 -0.2711  3.7372
  591MOL0     H79780   5.108   8.996   5.647  1.2612  1.5602 -1.7810
  591MOL0     H79781   5.205   8.610   5.794  2.1478  0.4225  1.1562
  591MOL0     H79782   5.041   9.343   5.109  0.1273 -1.5985 -2.0630
  591MOL0     H79783   5.249   9.401   4.855  2.5895 -2.6758  2.1228
  591MOL0     H79784   5.117   9.473   4.947  0.0968  0.7507  0.8242
  591MOL0     H79785   5.284   9.538   4.967  1.8875 -2.2027  0.4183
  592MOL0     O79786   9.345   0.246   7.886  0.1116  0.7714  0.2450
  592MOL0     C79787   9.391   0.140   7.850  0.4338 -0.9578  0.6439
  592MOL0     O79788   9.314   0.026   7.829  0.5748  0.1608 -0.2809
  592MOL0     C79789   9.195  -0.002   7.888  0.4385 -0.0273  0.5200
  592MOL0     C79790   9.142   0.053   7.999  0.9693  0.6058 -0.0725
  592MOL0     C79791   9.018   0.012   8.043  1.0879 -0.1665  0.0285
  592MOL0     C79792   8.940  -0.084   7.981 -0.3865  0.6508  0.0985
  592MOL0     O79793   8.809  -0.094   8.016 -0.1049  0.2797  0.5308
  592MOL0     C79794   8.721  -0.183   7.944  0.1275  0.4235 -0.5519
  592MOL0     C79795   8.572  -0.160   7.981 -0.0229 -0.2408  0.8056
  592MOL0     C79796   8.530  -0.185   8.133  0.1811 -0.0827  0.7777
  592MOL0     C79797   8.378  -0.189   8.155 -0.7806  0.2950  0.3071
  592MOL0     C79798   8.349  -0.197   8.309 -0.4323 -0.9360 -0.3909
  592MOL0     C79799   8.374  -0.055   8.366  0.2907 -0.6425 -0.1100
  592MOL0     C79800   8.300  -0.013   8.495  0.2218 -0.1391  0.3929
  592MOL0     C79801   8.397   0.030   8.596  0.0258 -0.9071  0.4138
  592MOL0     N79802   8.433   0.176   8.571  0.2820  0.5515 -0.1399
  592MOL0     C79803   8.515   0.238   8.476  0.5078  0.8355  0.8176
  592MOL0     C79804   8.502   0.371   8.502  0.2035 -0.2376  0.6655
  592MOL0     C79805   8.564   0.497   8.436  0.2045 -0.0212 -0.0194
  592MOL0     C79806   8.706   0.467   8.400 -0.1566 -0.7676 -0.0001
  592MOL0     C79807   8.763   0.581   8.317  0.5688 -0.0303 -0.3443
  592MOL0     C79808   8.914   0.575   8.285 -0.7370  0.0534 -0.1955
  592MOL0     O79809   9.001   0.619   8.397  0.1796  0.2906 -0.0181
  592MOL0     C79810   9.139   0.630   8.388 -0.2180 -0.5823 -0.9215
  592MOL0     C79811   9.221   0.588   8.280  0.2735 -0.3476 -0.5096
  592MOL0     C79812   9.357   0.615   8.281  0.1118 -1.5065 -0.3784
  592MOL0     C79813   9.423   0.683   8.388 -0.2890  0.3512  1.2375
  592MOL0     C79814   9.567   0.699   8.388 -0.2083 -0.2270 -0.2052
  592MOL0     O79815   9.606   0.777   8.491  0.8828  0.1657 -0.3344
  592MOL0     C79816   9.732   0.821   8.522  0.4421  0.0121 -0.4708
  592MOL0     C79817   9.741   0.947   8.578  0.2554 -0.3495 -1.0081
  592MOL0     C79818   9.860   0.999   8.635 -0.1999  0.9713  0.0996
  592MOL0     C79819   9.969   0.919   8.624 -0.0505 -1.0362  0.1540
  592MOL0     O79820  10.083   0.950   8.690 -0.3096  0.4125 -0.0336
  592MOL0     C79821  10.097   1.041   8.799 -0.1527 -0.1294 -0.3144
  592MOL0     C79822  10.231   1.032   8.860 -0.6024 -0.2307  0.2546
  592MOL0     C79823  10.279   0.888   8.886 -0.6462 -0.8006  0.2180
  592MOL0     C79824  10.407   0.869   8.976  0.6092 -0.1890  0.8333
  592MOL0     C79825  10.422   0.723   9.023 -0.6842 -0.0748 -0.8412
  592MOL0     C79826  10.446   0.608   8.913  0.3686  0.3590 -0.5239
  592MOL0     C79827  10.569   0.647   8.826 -0.5630  0.5470  0.0771
  592MOL0     C79828  10.591   0.565   8.704 -0.8476 -0.2538  0.2141
  592MOL0    Cl79829  10.740   0.603   8.611  0.3343  0.0553 -0.1228
  592MOL0     C79830   9.958   0.794   8.569 -0.4698  1.0766 -0.2863
  592MOL0     C79831   9.843   0.739   8.515 -0.0942 -0.1457 -0.2917
  592MOL0     O79832   9.641   0.659   8.295  0.1454 -0.3657  0.1141
  592MOL0     C79833   9.347   0.735   8.487  0.2447 -0.0839 -0.3122
  592MOL0     C79834   9.208   0.700   8.487  0.3956 -0.0353  0.2302
  592MOL0     N79835   8.424   0.391   8.614 -0.0754 -0.2754  0.0883
  592MOL0     N79836   8.384   0.270   8.658 -1.0640 -0.1938  0.2715
  592MOL0     C79837   8.998  -0.146   7.872 -0.4260 -0.0123 -1.4089
  592MOL0     C79838   9.125  -0.103   7.822 -0.2451  0.2052  0.1839
  592MOL0     C79839   9.531   0.148   7.802  0.7795  0.1414 -0.6134
  592MOL0     C79840   9.578   0.042   7.720  0.4229 -0.1347 -0.2780
  592MOL0     C79841   9.704   0.023   7.672  1.2946  0.0774 -0.0408
  592MOL0     C79842   9.800   0.119   7.713  0.9230 -0.1331 -0.6433
  592MOL0     O79843   9.926   0.112   7.667  0.1566 -0.0257  0.0585
  592MOL0     C79844  10.011   0.035   7.759 -1.0648 -0.5132  0.3124
  592MOL0     C79845  10.152   0.087   7.746 -0.5130 -0.9605  0.3089
  592MOL0     C79846  10.218   0.038   7.621 -1.1920  0.1699  0.2773
  592MOL0     C79847  10.372   0.053   7.632 -0.8918 -0.0403  0.1443
  592MOL0     C79848  10.437   0.021   7.502 -0.0252 -0.5194 -1.0126
  592MOL0     C79849  10.503  -0.024   7.413  0.4869  0.1026  0.1935
  592MOL0     C79850   9.757   0.219   7.802 -0.6686 -0.3809 -0.8783
  592MOL0     C79851   9.626   0.245   7.847 -0.0663  0.3602  0.4623
  592MOL0     C79852   9.606   0.365   7.940  0.1402  0.5264 -0.0617
  592MOL0     H79853   9.187   0.132   8.059 -1.4141  1.0823  1.2305
  592MOL0     H79854   8.976   0.068   8.126  1.5735 -0.2955  0.3678
  592MOL0     H79855   8.723  -0.175   7.835  1.7118 -1.5101 -0.7151
  592MOL0     H79856   8.746  -0.288   7.962  2.5351  0.8161 -1.2523
  592MOL0     H79857   8.501  -0.219   7.921 -0.0717 -2.6654  3.0754
  592MOL0     H79858   8.551  -0.057   7.951 -0.9123 -0.5834  0.1789
  592MOL0     H79859   8.584  -0.113   8.195  2.2506 -1.3333  0.5190
  592MOL0     H79860   8.581  -0.278   8.158  1.7112  1.3760  3.5477
  592MOL0     H79861   8.344  -0.101   8.099  0.5028 -0.3280 -1.5807
  592MOL0     H79862   8.339  -0.279   8.108 -2.1186 -0.6412  3.0287
  592MOL0     H79863   8.247  -0.234   8.327  0.3755 -4.1980 -1.7416
  592MOL0     H79864   8.423  -0.261   8.357 -0.4172  0.5451  1.6668
  592MOL0     H79865   8.481  -0.032   8.371 -0.2304  2.2871 -0.9045
  592MOL0     H79866   8.352   0.018   8.288 -4.1582  0.2917  1.7053
  592MOL0     H79867   8.238  -0.093   8.537  3.1239 -2.1504  1.1448
  592MOL0     H79868   8.235   0.074   8.487  0.4508 -0.0395 -0.4841
  592MOL0     H79869   8.346   0.022   8.692  1.5172  0.2986  1.3740
  592MOL0     H79870   8.489  -0.029   8.605  0.9716  0.6927  2.2784
  592MOL0     H79871   8.560   0.199   8.386  0.3533 -0.0299  1.1084
  592MOL0     H79872   8.512   0.534   8.347 -0.0322  4.3115  1.6843
  592MOL0     H79873   8.567   0.582   8.504 -0.9067  0.2102 -0.2452
  592MOL0     H79874   8.764   0.443   8.490 -1.7870 -0.7875  1.0944
  592MOL0     H79875   8.701   0.380   8.334 -3.6820 -0.4772 -0.2964
  592MOL0     H79876   8.759   0.674   8.374  1.7430 -0.9501  1.3336
  592MOL0     H79877   8.699   0.588   8.229 -0.8462 -0.3408  0.6340
  592MOL0     H79878   8.936   0.646   8.205  2.5002 -2.2363 -1.5198
  592MOL0     H79879   8.946   0.477   8.251 -3.5831 -0.8469 -0.5971
  592MOL0     H79880   9.180   0.520   8.206  0.9669 -0.8992 -0.4025
  592MOL0     H79881   9.419   0.573   8.202 -0.4620 -1.2874 -0.9584
  592MOL0     H79882   9.651   1.005   8.593  0.1623 -0.7764  0.1896
  592MOL0     H79883   9.863   1.090   8.696 -1.7916  0.0697  1.6141
  592MOL0     H79884  10.082   1.145   8.767  0.1134 -0.2791 -0.9436
  592MOL0     H79885  10.026   1.006   8.875  1.5193 -0.8096  0.9997
  592MOL0     H79886  10.300   1.080   8.790 -2.6688  1.6711 -0.5643
  592MOL0     H79887  10.230   1.089   8.954  1.7738  2.0325 -0.9551
  592MOL0     H79888  10.204   0.825   8.934  0.3645  0.3100  3.5059
  592MOL0     H79889  10.299   0.843   8.788 -1.9678  0.8715 -0.8789
  592MOL0     H79890  10.394   0.926   9.068 -0.8969 -2.2320  1.9625
  592MOL0     H79891  10.497   0.908   8.928  1.0240 -1.0659  0.8762
  592MOL0     H79892  10.330   0.706   9.080 -0.2897  3.5912  1.2351
  592MOL0     H79893  10.503   0.705   9.094 -0.7183  1.1203 -0.4797
  592MOL0     H79894  10.462   0.518   8.973 -1.1534  0.4795  0.1115
  592MOL0     H79895  10.362   0.601   8.844  2.0630 -0.9836 -2.6044
  592MOL0     H79896  10.665   0.634   8.877 -0.8209 -1.0681  0.2232
  592MOL0     H79897  10.553   0.749   8.791 -3.3555  0.5893  1.2082
  592MOL0     H79898  10.599   0.459   8.732  1.2158  0.1504  1.3114
  592MOL0     H79899  10.504   0.570   8.638  0.1010 -0.9523 -1.1390
  592MOL0     H79900  10.046   0.732   8.580 -1.0055  0.3746  0.0840
  592MOL0     H79901   9.847   0.635   8.482 -0.9888  0.5619 -2.8675
  592MOL0     H79902   9.400   0.779   8.570  1.9456 -0.8991 -0.9209
  592MOL0     H79903   9.139   0.739   8.562  1.1606 -0.5503  1.2275
  592MOL0     H79904   8.947  -0.227   7.821 -1.3191 -0.9637  0.8652
  592MOL0     H79905   9.155  -0.159   7.734  1.1434  2.5631 -0.9384
  592MOL0     H79906   9.515  -0.035   7.677 -0.5078 -0.1528  1.0371
  592MOL0     H79907   9.734  -0.054   7.601  4.4456 -0.1465  1.3538
  592MOL0     H79908  10.007  -0.064   7.714  0.7400  0.6795 -2.7544
  592MOL0     H79909   9.971   0.035   7.861 -1.0291 -0.3119  0.3268
  592MOL0     H79910  10.207   0.056   7.836  0.9799  1.6320  0.3958
  592MOL0     H79911  10.152   0.197   7.750  2.3057 -0.8800 -0.1334
  592MOL0     H79912  10.178   0.083   7.530 -1.4031 -0.0824  0.2464
  592MOL0     H79913  10.202  -0.070   7.622  0.3280 -0.0798 -0.0563
  592MOL0     H79914  10.404   0.154   7.658  2.5700 -0.8370 -0.5730
  592MOL0     H79915  10.408  -0.006   7.717 -1.1519  0.3200  0.5115
  592MOL0     H79916  10.562  -0.052   7.328 -1.7352  3.1973 -2.6221
  592MOL0     H79917   9.837   0.283   7.837 -1.9168  1.2958 -0.9433
  592MOL0     H79918   9.537   0.444   7.912 -1.0653  0.7211  3.0525
  592MOL0     H79919   9.573   0.343   8.042  1.6998  0.9051  0.5566
  592MOL0     H79920   9.699   0.422   7.945  1.6977 -1.5386 -2.7577
  593MOL0     O79921   3.534   0.671   6.702 -0.3575 -0.2979  0.1107
  593MOL0     C79922   3.470   0.706   6.803  0.2615  0.3495  0.2186
  593MOL0     O79923   3.527   0.727   6.922 -0.3202  0.6621  0.1728
  593MOL0     C79924   3.655   0.748   6.921 -0.0497  0.4367 -0.2056
  593MOL0     C79925   3.737   0.669   6.995 -0.4192  0.0086  0.1097
  593MOL0     C79926   3.874   0.689   7.011  0.0096  0.5742  0.1258
  593MOL0     C79927   3.939   0.799   6.946  0.3616 -0.0371  0.7574
  593MOL0     O79928   4.075   0.805   6.965 -0.4569  0.3287  0.2610
  593MOL0     C79929   4.154   0.883   6.872  0.3225  1.1635 -0.0749
  593MOL0     C79930   4.292   0.824   6.887 -0.0596  0.4711 -0.3410
  593MOL0     C79931   4.399   0.900   6.809 -1.1971  0.5244  0.4029
  593MOL0     C79932   4.529   0.822   6.799 -0.8680  0.2736  1.0427
  593MOL0     C79933   4.621   0.893   6.691 -0.1384  0.2681 -0.7537
  593MOL0     C79934   4.744   0.824   6.664 -0.1478  0.2983 -0.4518
  593MOL0     C79935   4.829   0.917   6.574 -0.0295 -1.1579 -0.2376
  593MOL0     C79936   4.935   1.004   6.652  0.4642  0.2638 -0.3912
  593MOL0     N79937   5.046   0.935   6.702  0.1043  0.2724  0.5759
  593MOL0     C79938   5.151   0.875   6.622  0.8390  0.1213  0.1268
  593MOL0     C79939   5.203   0.777   6.703 -0.2724  0.1032  1.1194
  593MOL0     C79940   5.323   0.691   6.664 -0.6808 -0.0087  0.1909
  593MOL0     C79941   5.451   0.768   6.634  0.3281  0.3387  0.0449
  593MOL0     C79942   5.493   0.847   6.765 -0.8043 -0.0000 -0.1987
  593MOL0     C79943   5.628   0.915   6.737 -0.0048  1.0333  0.2808
  593MOL0     O79944   5.625   0.972   6.607  0.2251 -0.4905 -0.1958
  593MOL0     C79945   5.734   1.041   6.562  0.2883  0.4757  0.4076
  593MOL0     C79946   5.850   1.072   6.635 -0.9739  0.1420  1.2791
  593MOL0     C79947   5.949   1.144   6.570 -0.8626  0.0049  0.3824
  593MOL0     C79948   5.948   1.174   6.437 -0.6324 -0.3871  0.4162
  593MOL0     C79949   6.065   1.257   6.373 -0.5281 -0.0382 -0.3224
  593MOL0     O79950   6.164   1.309   6.451 -0.3652  0.3410  0.5190
  593MOL0     C79951   6.257   1.393   6.391 -0.7517  0.0975 -0.1067
  593MOL0     C79952   6.312   1.373   6.267 -0.6500 -0.9177  0.0765
  593MOL0     C79953   6.430   1.450   6.235 -0.6838  1.0754  0.4696
  593MOL0     C79954   6.491   1.546   6.320  0.4181  0.3371 -0.2645
  593MOL0     O79955   6.597   1.631   6.297  0.5857 -0.5669  0.1276
  593MOL0     C79956   6.661   1.628   6.172 -0.2107  0.5677  1.0535
  593MOL0     C79957   6.751   1.753   6.169 -1.2373 -0.4354 -0.1423
  593MOL0     C79958   6.885   1.731   6.246  0.0270  0.1995  0.2634
  593MOL0     C79959   6.949   1.867   6.268  0.1170 -0.1087  0.5063
  593MOL0     C79960   7.080   1.864   6.354 -0.0771 -0.0027  0.3387
  593MOL0     C79961   7.045   1.865   6.511  0.8072  0.1029 -0.8083
  593MOL0     C79962   7.154   1.813   6.607 -0.3755  0.1099 -0.5974
  593MOL0     C79963   7.257   1.917   6.636  0.3522 -0.2588 -0.1873
  593MOL0    Cl79964   7.187   2.064   6.720 -0.0159  0.0564 -0.1742
  593MOL0     C79965   6.428   1.564   6.444  0.2772  0.1546  0.3129
  593MOL0     C79966   6.312   1.499   6.477  0.2949  1.1068  0.3906
  593MOL0     O79967   6.059   1.263   6.247  0.9146 -0.6190  0.0277
  593MOL0     C79968   5.847   1.124   6.358 -0.7673 -0.3081 -0.2879
  593MOL0     C79969   5.741   1.062   6.418 -0.2723  0.7978  0.0966
  593MOL0     N79970   5.149   0.787   6.828 -0.2145  0.3653 -0.0230
  593MOL0     N79971   5.050   0.876   6.826 -0.0763 -0.3632  0.4600
  593MOL0     C79972   3.866   0.875   6.854  0.5236  0.2789 -0.1941
  593MOL0     C79973   3.726   0.848   6.843 -0.0758  0.2627  0.8894
  593MOL0     C79974   3.317   0.709   6.788 -0.1053  0.0857 -0.0608
  593MOL0     C79975   3.243   0.701   6.909  0.1953 -0.5034 -0.6146
  593MOL0     C79976   3.103   0.680   6.903 -0.0262 -0.3542 -0.6974
  593MOL0     C79977   3.042   0.686   6.781  0.8411  0.0449  0.5194
  593MOL0     O79978   2.910   0.680   6.755  0.1920  0.1405  0.0461
  593MOL0     C79979   2.813   0.655   6.857  0.0625 -0.3125  0.5278
  593MOL0     C79980   2.663   0.670   6.809 -0.8921  0.1776 -0.2303
  593MOL0     C79981   2.625   0.566   6.704  0.0822 -0.4502 -0.1196
  593MOL0     C79982   2.499   0.604   6.616 -0.5053  0.0795 -0.4416
  593MOL0     C79983   2.393   0.598   6.709 -0.3676  0.5932  0.5986
  593MOL0     C79984   2.307   0.606   6.792 -0.0247  0.7681 -0.1082
  593MOL0     C79985   3.114   0.707   6.662  0.1457  0.8758 -0.0309
  593MOL0     C79986   3.252   0.723   6.662 -0.5642  0.3546  0.6116
  593MOL0     C79987   3.318   0.745   6.528 -0.2865 -0.0256  1.1003
  593MOL0     H79988   3.702   0.580   7.047  2.5231 -0.5338  1.3944
  593MOL0     H79989   3.927   0.611   7.065  1.3659  0.5191 -1.2356
  593MOL0     H79990   4.113   0.879   6.771 -1.3944 -1.9850  0.6443
  593MOL0     H79991   4.150   0.985   6.913 -0.3230  0.7203  0.9921
  593MOL0     H79992   4.288   0.728   6.835 -1.1866  1.3101 -1.8895
  593MOL0     H79993   4.317   0.808   6.992  0.6944 -0.1995 -0.6144
  593MOL0     H79994   4.432   0.989   6.864  0.4259  0.1893 -0.0020
  593MOL0     H79995   4.359   0.934   6.713 -1.6031 -1.1139 -0.0378
  593MOL0     H79996   4.575   0.815   6.898 -1.8578 -0.1416  1.4779
  593MOL0     H79997   4.523   0.717   6.771  2.6670 -0.4269  2.3615
  593MOL0     H79998   4.568   0.896   6.594  1.0573  0.0648 -1.4277
  593MOL0     H79999   4.632   0.992   6.736 -2.4361  1.4551 -2.5611
  593MOL0     H80000   4.799   0.794   6.753  0.5168  1.7785 -0.3262
  593MOL0     H80001   4.723   0.733   6.606 -2.1465  0.4865 -0.0958
  593MOL0     H80002   4.764   0.985   6.519  2.7961  1.6388 -0.3926
  593MOL0     H80003   4.886   0.860   6.501  0.8526  0.5445 -0.9366
  593MOL0     H80004   4.971   1.082   6.584  4.8305 -0.2533  1.0263
  593MOL0     H80005   4.880   1.057   6.730 -1.1752 -0.3665 -1.0707
  593MOL0     H80006   5.166   0.901   6.518 -1.7106 -1.4718 -0.7515
  593MOL0     H80007   5.350   0.613   6.736 -0.4788  1.5632  1.9041
  593MOL0     H80008   5.292   0.635   6.575 -0.0216  0.5642 -0.4035
  593MOL0     H80009   5.527   0.697   6.600  0.0946  0.5242 -0.8928
  593MOL0     H80010   5.425   0.828   6.547 -2.2134 -2.6110 -1.4395
  593MOL0     H80011   5.507   0.792   6.859 -0.3237  2.8918  1.5555
  593MOL0     H80012   5.421   0.928   6.780 -1.6507 -0.6309 -0.7417
  593MOL0     H80013   5.705   0.836   6.736 -0.1257  0.9071 -1.0904
  593MOL0     H80014   5.659   0.978   6.820  1.0641 -0.1417  0.8194
  593MOL0     H80015   5.855   1.054   6.742 -0.8012  2.1748  1.6406
  593MOL0     H80016   6.040   1.182   6.615 -0.4467 -0.6659  0.1079
  593MOL0     H80017   6.286   1.292   6.199 -0.2455 -1.2083  0.2631
  593MOL0     H80018   6.487   1.423   6.147 -2.4965  2.3233 -1.1764
  593MOL0     H80019   6.710   1.533   6.148  0.2106  0.9315  0.4380
  593MOL0     H80020   6.592   1.629   6.087  0.4143 -0.0471  0.5300
  593MOL0     H80021   6.791   1.772   6.069  1.4796 -4.6255 -0.0865
  593MOL0     H80022   6.695   1.839   6.208  2.4071  3.4669 -2.5876
  593MOL0     H80023   6.862   1.679   6.339  1.2146 -2.2110 -0.6903
  593MOL0     H80024   6.952   1.657   6.200  0.7466  1.0752 -0.1331
  593MOL0     H80025   6.879   1.938   6.311 -1.8493 -2.0307  0.6442
  593MOL0     H80026   6.985   1.899   6.169  3.6721 -0.1860  1.6292
  593MOL0     H80027   7.141   1.949   6.322 -0.2776  0.3585  0.9152
  593MOL0     H80028   7.134   1.774   6.326 -1.1662 -0.6102  0.1179
  593MOL0     H80029   7.012   1.969   6.519  4.1099  1.2066 -0.0457
  593MOL0     H80030   6.949   1.813   6.521  0.5340  0.1228 -2.7855
  593MOL0     H80031   7.193   1.717   6.573 -0.6699 -1.6266  3.3493
  593MOL0     H80032   7.106   1.790   6.703 -0.0803 -0.4432 -0.5762
  593MOL0     H80033   7.328   1.890   6.715 -0.7849  2.6819  2.0156
  593MOL0     H80034   7.305   1.947   6.542  1.8981 -1.5900  0.1382
  593MOL0     H80035   6.465   1.639   6.513  0.7161 -1.6229  2.0987
  593MOL0     H80036   6.278   1.514   6.579 -0.0281 -1.3449  0.7002
  593MOL0     H80037   5.855   1.137   6.250  0.2492 -0.4649 -0.2429
  593MOL0     H80038   5.660   1.024   6.357 -0.7383  0.6946  0.7627
  593MOL0     H80039   3.916   0.945   6.787  2.8422 -2.3920 -1.4726
  593MOL0     H80040   3.666   0.909   6.777 -0.1836  0.0863  0.8248
  593MOL0     H80041   3.282   0.695   7.010  0.3105 -0.8293 -0.6806
  593MOL0     H80042   3.044   0.663   6.992 -0.8914 -1.8837 -1.5217
  593MOL0     H80043   2.833   0.725   6.939 -0.0023 -0.0841  0.3475
  593MOL0     H80044   2.827   0.554   6.897  0.2232  0.1028  1.5352
  593MOL0     H80045   2.649   0.771   6.770  0.9650  0.2312 -0.8584
  593MOL0     H80046   2.595   0.653   6.893 -1.1350 -1.5453 -0.7241
  593MOL0     H80047   2.616   0.467   6.751  0.9674 -1.1356 -1.3441
  593MOL0     H80048   2.704   0.552   6.631  0.5837 -1.1297  0.5341
  593MOL0     H80049   2.503   0.706   6.577  2.3475 -0.1832 -1.0831
  593MOL0     H80050   2.497   0.526   6.540  2.8904  0.5471 -1.1861
  593MOL0     H80051   2.228   0.625   6.862 -2.5838 -3.0359 -1.6567
  593MOL0     H80052   3.059   0.708   6.568  0.2895 -0.6270 -0.1594
  593MOL0     H80053   3.254   0.771   6.444  1.5490  0.9817 -0.0525
  593MOL0     H80054   3.397   0.820   6.538 -0.1893 -0.2043  1.7539
  593MOL0     H80055   3.369   0.653   6.499 -0.6589 -0.2343  1.1055
  594MOL0     O80056   7.209   5.309   5.916 -0.5194  0.5826 -0.6580
  594MOL0     C80057   7.147   5.193   5.907  0.2013 -0.2913 -0.4287
  594MOL0     O80058   7.207   5.072   5.939  0.7575 -1.4059 -0.5573
  594MOL0     C80059   7.305   5.074   6.032 -0.7897 -0.1711  0.2258
  594MOL0     C80060   7.437   5.029   6.004  0.1562 -0.5500  0.2374
  594MOL0     C80061   7.535   5.047   6.098 -0.4151  0.7272  0.4418
  594MOL0     C80062   7.507   5.090   6.232 -0.2863 -0.1411  0.5883
  594MOL0     O80063   7.613   5.089   6.322 -0.1877 -0.3791  0.2893
  594MOL0     C80064   7.580   5.127   6.456  0.2704 -0.3688 -0.1782
  594MOL0     C80065   7.699   5.077   6.546 -0.2902  0.6287 -0.4496
  594MOL0     C80066   7.803   5.187   6.569 -0.8249  0.4917  0.4942
  594MOL0     C80067   7.894   5.147   6.682  0.3387  0.1604 -0.0627
  594MOL0     C80068   8.013   5.236   6.685  0.6612 -0.8629 -0.4630
  594MOL0     C80069   8.107   5.195   6.796  0.7123 -0.2381 -0.2740
  594MOL0     C80070   8.040   5.212   6.934 -0.0433 -0.1197 -0.9346
  594MOL0     C80071   8.152   5.273   7.032 -0.3193 -0.5845 -1.0326
  594MOL0     N80072   8.260   5.178   7.059  0.1371  0.4263 -0.0907
  594MOL0     C80073   8.253   5.043   7.047 -0.0782 -0.0731  0.0069
  594MOL0     C80074   8.367   4.997   7.101  0.6747  0.4484 -0.0939
  594MOL0     C80075   8.406   4.850   7.123 -0.2810 -0.3097 -0.9751
  594MOL0     C80076   8.480   4.793   7.004  0.1025 -0.3748  0.0073
  594MOL0     C80077   8.505   4.635   6.993  1.2604  0.0062 -0.4051
  594MOL0     C80078   8.584   4.581   7.111 -1.0400  0.5781  0.1676
  594MOL0     O80079   8.704   4.658   7.120 -0.0913 -0.3703 -0.2466
  594MOL0     C80080   8.812   4.606   7.187 -0.2639  0.2618  0.1437
  594MOL0     C80081   8.815   4.513   7.291 -0.3312 -0.1755 -0.5512
  594MOL0     C80082   8.922   4.484   7.380  0.0335  0.0148 -0.2523
  594MOL0     C80083   9.048   4.545   7.346  0.1695 -0.1265 -0.4026
  594MOL0     C80084   9.155   4.533   7.443 -0.6768 -0.0104 -0.3340
  594MOL0     O80085   9.279   4.601   7.408  0.3353  0.0108 -0.2949
  594MOL0     C80086   9.394   4.570   7.482 -0.0097  0.4838  0.0564
  594MOL0     C80087   9.478   4.469   7.429  0.1307 -1.0380  0.0968
  594MOL0     C80088   9.590   4.440   7.502 -0.6384  1.2464 -0.1783
  594MOL0     C80089   9.620   4.502   7.625  0.5919  0.0044  0.3254
  594MOL0     O80090   9.737   4.457   7.682 -0.0143  0.3045 -0.7133
  594MOL0     C80091   9.811   4.546   7.766  0.6593 -0.1767 -0.3264
  594MOL0     C80092   9.778   4.532   7.919  0.6897  0.4332  0.2879
  594MOL0     C80093   9.871   4.636   7.994 -0.2476 -0.4068 -0.0701
  594MOL0     C80094  10.022   4.592   8.014 -0.0341  0.1111  0.7239
  594MOL0     C80095  10.111   4.694   8.091 -0.2126 -0.4763 -0.5974
  594MOL0     C80096  10.253   4.624   8.099 -0.4621 -0.2313 -0.0959
  594MOL0     C80097  10.357   4.721   8.147  0.2692 -0.2285  0.1493
  594MOL0     C80098  10.345   4.759   8.292 -0.6236 -0.3040  0.1486
  594MOL0    Cl80099  10.331   4.608   8.393  0.6000  0.0232  0.1948
  594MOL0     C80100   9.537   4.608   7.663 -0.4699 -0.0266 -0.3583
  594MOL0     C80101   9.418   4.621   7.602 -0.9509 -0.3359 -0.1866
  594MOL0     O80102   9.140   4.462   7.541  0.1917  0.2280 -0.2999
  594MOL0     C80103   9.042   4.640   7.246 -0.3561  0.0316  0.7652
  594MOL0     C80104   8.925   4.674   7.168 -0.5697  0.1523 -0.2846
  594MOL0     N80105   8.441   5.106   7.135 -0.8995  0.7454  0.1028
  594MOL0     N80106   8.380   5.212   7.108 -0.1771  0.3454  0.2634
  594MOL0     C80107   7.381   5.138   6.254 -0.0737 -0.3935  0.8978
  594MOL0     C80108   7.284   5.131   6.158  0.2392  0.4780  0.3881
  594MOL0     C80109   7.001   5.194   5.866  0.6426 -0.2906 -0.0105
  594MOL0     C80110   6.921   5.088   5.909  0.2607 -0.1446  0.2924
  594MOL0     C80111   6.778   5.093   5.890 -0.3625 -0.7923  0.6001
  594MOL0     C80112   6.719   5.200   5.816 -0.4588 -0.3466 -0.1580
  594MOL0     O80113   6.583   5.217   5.800 -0.6084 -0.3236  0.0552
  594MOL0     C80114   6.507   5.096   5.789  0.3229  0.4114  0.8863
  594MOL0     C80115   6.383   5.111   5.701  0.2764 -1.0352 -0.3510
  594MOL0     C80116   6.288   4.994   5.682 -1.0537 -0.0480  0.2349
  594MOL0     C80117   6.354   4.866   5.612  0.7011  0.1170  0.1996
  594MOL0     C80118   6.264   4.752   5.604  0.6388 -0.5517  0.5332
  594MOL0     C80119   6.186   4.661   5.589 -0.0021 -0.3587 -0.2222
  594MOL0     C80120   6.806   5.303   5.770  0.0944  0.2499 -0.9525
  594MOL0     C80121   6.942   5.305   5.788  0.2579 -0.8561 -0.0368
  594MOL0     C80122   7.020   5.421   5.748 -0.8992  0.6943  0.0879
  594MOL0     H80123   7.451   4.981   5.908 -0.1311  0.5665 -0.3776
  594MOL0     H80124   7.638   5.025   6.071 -0.4996  0.4209  0.3654
  594MOL0     H80125   7.562   5.235   6.462  0.4566 -0.3363 -0.2080
  594MOL0     H80126   7.495   5.063   6.482  1.4847 -1.5401  1.1296
  594MOL0     H80127   7.738   4.987   6.496  2.8630  2.4684 -1.5765
  594MOL0     H80128   7.659   5.036   6.639  1.4222 -0.6628 -0.2363
  594MOL0     H80129   7.760   5.285   6.593 -1.0114  0.3927  0.5693
  594MOL0     H80130   7.856   5.189   6.474 -0.3359  0.0028  0.7471
  594MOL0     H80131   7.842   5.160   6.778  1.1482  3.6359  0.0285
  594MOL0     H80132   7.920   5.041   6.674 -1.8836 -0.3863 -0.8223
  594MOL0     H80133   8.059   5.239   6.586  0.1836 -1.3785 -0.7083
  594MOL0     H80134   7.987   5.341   6.700  1.2897 -0.4929 -1.7684
  594MOL0     H80135   8.131   5.089   6.783 -1.4455 -0.8190  0.1195
  594MOL0     H80136   8.202   5.247   6.782  1.8110 -2.2334 -0.6632
  594MOL0     H80137   7.995   5.122   6.976  2.2685 -1.6891 -1.6148
  594MOL0     H80138   7.954   5.280   6.931  1.4338  1.8291 -1.0927
  594MOL0     H80139   8.182   5.365   6.983 -1.5384  0.8404  0.7342
  594MOL0     H80140   8.105   5.312   7.123  0.6358 -1.3578 -0.1897
  594MOL0     H80141   8.168   4.978   7.026  0.0990 -0.1482 -0.4807
  594MOL0     H80142   8.469   4.847   7.212 -0.0679  0.0504 -1.1104
  594MOL0     H80143   8.318   4.786   7.137 -0.6000 -0.1945 -2.2758
  594MOL0     H80144   8.428   4.832   6.916  1.0682  0.7457 -0.0892
  594MOL0     H80145   8.575   4.845   6.990 -0.4129  0.1288 -1.9550
  594MOL0     H80146   8.546   4.595   6.900  0.7854 -1.8627  0.1377
  594MOL0     H80147   8.408   4.586   7.005  1.0456  0.6264  0.4442
  594MOL0     H80148   8.603   4.476   7.086 -1.3026  1.0274 -2.1696
  594MOL0     H80149   8.524   4.581   7.202 -2.7031  0.2432 -0.8923
  594MOL0     H80150   8.723   4.466   7.324  2.4535 -4.6447  1.9616
  594MOL0     H80151   8.905   4.428   7.472 -1.7856  1.0930  0.1088
  594MOL0     H80152   9.450   4.433   7.330 -0.7052  1.3320 -0.5813
  594MOL0     H80153   9.647   4.354   7.467 -2.9886 -2.1855  3.5959
  594MOL0     H80154   9.918   4.527   7.757  1.1866  2.2151  0.3878
  594MOL0     H80155   9.793   4.648   7.733 -1.4631 -0.4448 -0.1417
  594MOL0     H80156   9.673   4.550   7.944  0.6921  0.7778  0.0417
  594MOL0     H80157   9.787   4.428   7.952 -0.5009  0.7059  1.5850
  594MOL0     H80158   9.862   4.717   7.921 -4.3096 -2.3016 -2.0422
  594MOL0     H80159   9.826   4.680   8.083 -0.2807  0.9991 -0.7671
  594MOL0     H80160  10.069   4.588   7.915  0.0150  2.5415  0.5799
  594MOL0     H80161  10.037   4.497   8.066  0.7526 -1.4914 -2.1816
  594MOL0     H80162  10.078   4.702   8.195 -0.1756 -2.1201 -0.4215
  594MOL0     H80163  10.117   4.791   8.041  1.4716 -1.5857 -2.7370
  594MOL0     H80164  10.240   4.529   8.152 -1.4583 -0.2320 -0.3159
  594MOL0     H80165  10.290   4.594   8.000 -4.3613  1.3665 -2.2594
  594MOL0     H80166  10.367   4.810   8.085 -1.7193 -0.9925 -1.3642
  594MOL0     H80167  10.455   4.674   8.134 -0.1050 -0.3345 -3.0168
  594MOL0     H80168  10.439   4.806   8.322  0.1214 -1.1032 -0.8832
  594MOL0     H80169  10.251   4.813   8.309 -3.0802 -3.0276 -3.2779
  594MOL0     H80170   9.562   4.655   7.757  0.3171 -1.3236  0.0999
  594MOL0     H80171   9.353   4.698   7.643 -0.4755  1.0445 -1.9240
  594MOL0     H80172   9.110   4.723   7.229 -3.0626  2.3840  0.6177
  594MOL0     H80173   8.932   4.762   7.105 -1.8150  0.9369  0.6218
  594MOL0     H80174   7.348   5.180   6.349  0.1775  0.9129  0.4371
  594MOL0     H80175   7.185   5.172   6.172  0.0496  1.5533 -3.0471
  594MOL0     H80176   6.962   5.016   5.980 -0.3792  1.3987  2.3064
  594MOL0     H80177   6.717   5.013   5.930 -1.1823 -0.9209 -0.8427
  594MOL0     H80178   6.464   5.061   5.883  0.4528 -1.8470  0.1551
  594MOL0     H80179   6.573   5.023   5.741  2.1217  2.9890 -0.8703
  594MOL0     H80180   6.403   5.151   5.601 -3.6579 -1.7924 -1.6341
  594MOL0     H80181   6.314   5.180   5.751 -2.5717 -2.1066 -2.5363
  594MOL0     H80182   6.197   5.022   5.627 -1.1443  0.4939  0.6522
  594MOL0     H80183   6.247   4.970   5.780  0.9087 -0.4607  0.9894
  594MOL0     H80184   6.363   4.908   5.511 -2.5542 -0.8656 -0.6002
  594MOL0     H80185   6.450   4.836   5.655  1.4797  0.7943 -1.0229
  594MOL0     H80186   6.107   4.589   5.584  0.1018 -0.4471 -0.5718
  594MOL0     H80187   6.757   5.390   5.729 -2.0520  0.8199  2.4382
  594MOL0     H80188   7.057   5.480   5.833 -0.2201  2.2568 -1.2411
  594MOL0     H80189   7.105   5.389   5.687  0.3085 -0.8958  2.4587
  594MOL0     H80190   6.953   5.486   5.692 -0.6846  1.4525  0.6918
  595MOL0     O80191   1.856   5.994   2.238 -0.2432  0.5147 -0.2308
  595MOL0     C80192   1.836   5.986   2.116 -0.2761  0.3373  0.4586
  595MOL0     O80193   1.934   5.955   2.026  0.3836  0.0447  0.1423
  595MOL0     C80194   2.066   5.941   2.062  0.8108  0.1923  0.6212
  595MOL0     C80195   2.132   5.856   1.969  0.1418  0.3525 -0.2623
  595MOL0     C80196   2.269   5.826   1.989  0.1788  0.0212  0.2709
  595MOL0     C80197   2.335   5.879   2.105  0.2356 -0.0437  0.3950
  595MOL0     O80198   2.463   5.848   2.139 -0.6752  0.5542  0.3997
  595MOL0     C80199   2.562   5.901   2.053 -0.3420 -0.1998 -0.2811
  595MOL0     C80200   2.700   5.880   2.122 -0.3913 -0.4195  0.0194
  595MOL0     C80201   2.711   5.930   2.266 -0.5308 -0.4740  0.3070
  595MOL0     C80202   2.716   6.089   2.273 -0.7061 -0.2913  0.8846
  595MOL0     C80203   2.676   6.122   2.417 -0.8533  0.1395  0.3612
  595MOL0     C80204   2.711   6.272   2.448 -0.9116  0.2648  0.3987
  595MOL0     C80205   2.834   6.289   2.541  0.3333  0.8154 -0.4409
  595MOL0     C80206   2.959   6.284   2.450  0.5224 -0.4246  0.1350
  595MOL0     N80207   3.071   6.316   2.533 -0.4185  1.1617 -0.4734
  595MOL0     C80208   3.115   6.235   2.641  0.6062 -0.2557 -0.5285
  595MOL0     C80209   3.223   6.306   2.690  0.0438  0.0681 -0.0413
  595MOL0     C80210   3.317   6.260   2.807  0.3359 -0.3057  1.0867
  595MOL0     C80211   3.436   6.192   2.745  0.2660  0.3903  0.0343
  595MOL0     C80212   3.552   6.291   2.735 -1.0302 -0.3823  0.4204
  595MOL0     C80213   3.641   6.261   2.614 -0.2713  0.2763  0.0661
  595MOL0     O80214   3.762   6.332   2.634  0.5107 -0.1631 -0.6316
  595MOL0     C80215   3.866   6.320   2.542  0.3858 -1.0157 -0.4112
  595MOL0     C80216   3.867   6.246   2.426 -0.4385  1.0977 -1.0976
  595MOL0     C80217   3.991   6.229   2.354 -0.8193 -0.5210  0.5266
  595MOL0     C80218   4.117   6.286   2.405 -0.0359  0.0970 -0.7791
  595MOL0     C80219   4.249   6.267   2.340  0.1984  0.8704 -0.7871
  595MOL0     O80220   4.355   6.281   2.412 -0.6954  0.1387  0.2563
  595MOL0     C80221   4.483   6.245   2.369 -0.0192 -0.1921 -0.1763
  595MOL0     C80222   4.591   6.297   2.437 -0.7441  0.0632  0.3939
  595MOL0     C80223   4.725   6.280   2.395  0.2731  0.4507 -0.3633
  595MOL0     C80224   4.753   6.185   2.295 -0.0326 -0.7369 -0.4147
  595MOL0     O80225   4.881   6.149   2.263 -0.2777  0.4604  0.1468
  595MOL0     C80226   4.928   6.128   2.124 -0.7855 -0.2120 -0.2595
  595MOL0     C80227   5.017   6.003   2.113  0.4795 -0.2016  0.8759
  595MOL0     C80228   5.102   6.023   1.988 -0.0970 -0.1262  0.4008
  595MOL0     C80229   5.185   5.889   1.962  0.0023  0.2160 -0.1633
  595MOL0     C80230   5.279   5.907   1.845  0.0393 -0.1606 -0.0371
  595MOL0     C80231   5.220   5.895   1.701 -0.1702  0.2814  0.5319
  595MOL0     C80232   5.150   5.766   1.672  1.0160 -0.5364 -0.5152
  595MOL0     C80233   5.240   5.683   1.603  0.3329  0.5174  1.1630
  595MOL0    Cl80234   5.371   5.611   1.696  0.2426  0.4452 -0.1299
  595MOL0     C80235   4.647   6.118   2.237  0.4435 -0.1536  0.9878
  595MOL0     C80236   4.515   6.150   2.266  0.6003 -0.2144  0.0030
  595MOL0     O80237   4.248   6.235   2.222 -0.8608 -0.0387 -0.1213
  595MOL0     C80238   4.105   6.362   2.522 -0.1277  0.9054 -0.1664
  595MOL0     C80239   3.980   6.384   2.581 -0.8070 -0.2563 -0.5592
  595MOL0     N80240   3.243   6.417   2.606 -0.2443  0.1073 -0.1124
  595MOL0     N80241   3.155   6.415   2.517 -0.1129 -1.2652 -0.0423
  595MOL0     C80242   2.264   5.970   2.190 -0.2891  0.3179 -0.1601
  595MOL0     C80243   2.128   6.003   2.168  0.3699  0.3765 -0.5092
  595MOL0     C80244   1.697   6.012   2.064  0.2054 -0.4566  0.1697
  595MOL0     C80245   1.584   6.025   2.158  0.3070 -0.9124 -0.0238
  595MOL0     C80246   1.456   6.038   2.114  0.2672 -0.0936  0.1788
  595MOL0     C80247   1.428   6.039   1.977 -0.1918 -0.0929  0.4881
  595MOL0     O80248   1.311   6.055   1.909  0.0136  0.2090 -0.6291
  595MOL0     C80249   1.193   6.023   1.993 -0.5097  0.2510  0.2742
  595MOL0     C80250   1.068   6.027   1.900 -0.0518  0.8425  0.0551
  595MOL0     C80251   0.943   6.001   1.994 -0.0798 -0.0356  0.6177
  595MOL0     C80252   0.944   5.865   2.049  0.2819 -0.3194 -0.4874
  595MOL0     C80253   0.805   5.832   2.090 -0.0655 -0.6486 -0.4338
  595MOL0     C80254   0.683   5.813   2.119  0.2873  0.2837  0.2535
  595MOL0     C80255   1.530   6.041   1.891 -0.3346  0.6456  0.1294
  595MOL0     C80256   1.667   6.033   1.926 -0.7062 -0.7916 -0.0310
  595MOL0     C80257   1.773   6.033   1.818  0.1418 -0.5254  0.4901
  595MOL0     H80258   2.073   5.812   1.889  0.7848 -0.0962 -0.4983
  595MOL0     H80259   2.312   5.751   1.923 -1.4739 -2.6752  2.0346
  595MOL0     H80260   2.548   5.846   1.959  1.0829 -0.0573 -0.6093
  595MOL0     H80261   2.556   6.008   2.033  2.9135  0.2149  0.3588
  595MOL0     H80262   2.782   5.916   2.059 -0.0632 -0.1646  0.5896
  595MOL0     H80263   2.708   5.772   2.138  0.6594 -0.1629  1.3107
  595MOL0     H80264   2.797   5.880   2.312 -1.7756 -2.4200  0.6549
  595MOL0     H80265   2.627   5.892   2.326 -0.0541  0.9376  1.9508
  595MOL0     H80266   2.811   6.135   2.243 -0.7951  0.1163  1.2138
  595MOL0     H80267   2.636   6.118   2.205 -0.9651 -3.2665 -0.1797
  595MOL0     H80268   2.567   6.112   2.420 -1.3212  3.7040  3.3593
  595MOL0     H80269   2.718   6.047   2.486 -0.0201 -2.2624 -2.5356
  595MOL0     H80270   2.718   6.329   2.355  0.5227 -0.9796 -0.3001
  595MOL0     H80271   2.622   6.313   2.496 -1.4620 -0.4093 -0.0354
  595MOL0     H80272   2.839   6.208   2.615 -1.8689  0.6738 -0.3889
  595MOL0     H80273   2.837   6.386   2.591  1.2309  0.8219 -0.4892
  595MOL0     H80274   2.974   6.185   2.406 -0.2504 -0.6943  0.4748
  595MOL0     H80275   2.942   6.355   2.368 -1.0919 -0.0030  0.8089
  595MOL0     H80276   3.078   6.136   2.665  2.8354 -0.7334  1.1605
  595MOL0     H80277   3.349   6.349   2.861  0.2913 -0.1048  0.7839
  595MOL0     H80278   3.261   6.191   2.870 -0.2542 -0.0553  0.8567
  595MOL0     H80279   3.474   6.108   2.803  0.8146  0.8418  0.3460
  595MOL0     H80280   3.410   6.156   2.646 -0.4485  0.0580  0.3379
  595MOL0     H80281   3.617   6.290   2.823 -1.1764  1.0804  0.5851
  595MOL0     H80282   3.520   6.396   2.726  2.9742  0.9971  0.4247
  595MOL0     H80283   3.596   6.286   2.518  4.3013  0.7250 -2.2206
  595MOL0     H80284   3.664   6.154   2.614  3.1410  0.8789 -0.9875
  595MOL0     H80285   3.770   6.212   2.392 -1.0142  1.1332  0.4175
  595MOL0     H80286   3.994   6.163   2.269 -0.1429  1.5202 -1.1214
  595MOL0     H80287   4.575   6.371   2.515 -2.2361  1.1708 -0.9046
  595MOL0     H80288   4.812   6.314   2.450  0.6911 -0.7805 -0.2375
  595MOL0     H80289   4.846   6.124   2.051 -1.8317 -0.1255  0.8832
  595MOL0     H80290   4.996   6.210   2.098 -0.3712 -0.4667  0.0250
  595MOL0     H80291   5.084   5.999   2.200  1.1990 -0.7879  0.3041
  595MOL0     H80292   4.961   5.910   2.107 -2.6044  1.6234 -1.5975
  595MOL0     H80293   5.032   6.048   1.907 -0.2459 -1.0175  0.2409
  595MOL0     H80294   5.182   6.097   1.986 -0.4877  0.2851 -0.2194
  595MOL0     H80295   5.125   5.798   1.957  2.5417 -1.4692 -2.8249
  595MOL0     H80296   5.255   5.880   2.045  0.4790 -0.4262 -0.6271
  595MOL0     H80297   5.362   5.836   1.857  1.4886  1.4682 -0.0984
  595MOL0     H80298   5.333   6.002   1.850 -3.4426  1.9562  0.9950
  595MOL0     H80299   5.144   5.974   1.701 -0.0478  0.4071 -0.2774
  595MOL0     H80300   5.300   5.919   1.631  0.5200  3.8759  2.3110
  595MOL0     H80301   5.058   5.786   1.616 -0.2786 -2.3720  0.8207
  595MOL0     H80302   5.120   5.710   1.762 -2.8802  1.8722 -0.1116
  595MOL0     H80303   5.186   5.599   1.558 -1.2485  2.3600 -0.5628
  595MOL0     H80304   5.282   5.745   1.524 -3.1058 -1.4188 -2.5540
  595MOL0     H80305   4.658   6.044   2.158 -1.5806 -1.0693  1.4973
  595MOL0     H80306   4.436   6.102   2.210  0.6232  0.1309 -0.3367
  595MOL0     H80307   4.197   6.391   2.572  2.3052 -5.0614 -0.3544
  595MOL0     H80308   3.967   6.449   2.667  0.7561  0.4986 -0.8658
  595MOL0     H80309   2.311   6.008   2.280  0.2093  1.8629 -1.0356
  595MOL0     H80310   2.081   6.082   2.226  1.5676  1.1247 -0.5130
  595MOL0     H80311   1.595   6.017   2.266 -0.5050 -2.3068 -0.0286
  595MOL0     H80312   1.386   6.048   2.196  0.1463 -0.0020  0.0646
  595MOL0     H80313   1.190   6.081   2.086 -0.0090  0.4546  0.1681
  595MOL0     H80314   1.219   5.927   2.038  5.0464  0.7644 -1.1193
  595MOL0     H80315   1.064   5.945   1.827  1.4993  1.9738 -1.3806
  595MOL0     H80316   1.066   6.119   1.840 -0.3150  0.4226 -0.5895
  595MOL0     H80317   0.855   6.012   1.931 -1.3340  4.3954  2.7435
  595MOL0     H80318   0.940   6.078   2.072  0.1551  2.5744 -1.8120
  595MOL0     H80319   0.980   5.797   1.972 -0.4453 -2.0427  0.6225
  595MOL0     H80320   1.006   5.849   2.138  1.1432 -0.1729 -1.0596
  595MOL0     H80321   0.586   5.785   2.154  0.0845 -1.1576 -1.3453
  595MOL0     H80322   1.511   6.041   1.784  0.9791  1.9232 -0.1377
  595MOL0     H80323   1.824   5.939   1.797  3.4892  1.0729  0.8176
  595MOL0     H80324   1.732   6.078   1.727 -0.5938  0.0169  1.0677
  595MOL0     H80325   1.856   6.095   1.854  0.3127 -0.3524 -0.2032
  596MOL0     O80326   4.600   9.102   4.286  0.3225 -0.1215 -0.6135
  596MOL0     C80327   4.592   9.053   4.175  0.5633  0.5642  1.1426
  596MOL0     O80328   4.698   9.018   4.098  0.4595 -0.1662  0.2667
  596MOL0     C80329   4.821   9.061   4.138 -0.0343  0.1409 -0.1777
  596MOL0     C80330   4.878   9.188   4.103  0.4767 -0.2658  0.1299
  596MOL0     C80331   4.991   9.229   4.154  0.2354 -0.6655 -0.8808
  596MOL0     C80332   5.069   9.155   4.243  0.5181 -0.4831 -0.0946
  596MOL0     O80333   5.190   9.213   4.277  0.4744  0.2654 -0.9051
  596MOL0     C80334   5.293   9.134   4.331  0.0775  0.5309  0.4258
  596MOL0     C80335   5.409   9.235   4.377  0.5293  0.0229 -0.2444
  596MOL0     C80336   5.536   9.165   4.394 -0.4318  0.6841  0.1478
  596MOL0     C80337   5.625   9.258   4.464  0.2039 -0.0466  0.0066
  596MOL0     C80338   5.759   9.211   4.489  0.3700 -0.6407  0.6312
  596MOL0     C80339   5.839   9.297   4.593  0.6400 -0.6316 -0.3935
  596MOL0     C80340   5.969   9.230   4.607 -0.3678  0.3664 -0.7431
  596MOL0     C80341   6.059   9.271   4.726 -0.4597 -0.7125 -0.4942
  596MOL0     N80342   6.206   9.265   4.698  0.0432  0.2892 -0.5780
  596MOL0     C80343   6.285   9.366   4.653 -0.6955 -0.4782  1.3020
  596MOL0     C80344   6.410   9.315   4.662 -0.3012 -0.1960  0.2677
  596MOL0     C80345   6.527   9.398   4.620 -0.7861  0.2147  0.4912
  596MOL0     C80346   6.662   9.320   4.645  0.7949 -0.6626 -0.9291
  596MOL0     C80347   6.775   9.406   4.601  0.3070 -0.8696  0.0060
  596MOL0     C80348   6.910   9.348   4.634 -0.4294  1.2479  0.1725
  596MOL0     O80349   6.922   9.328   4.772 -0.4505 -0.4712  0.0193
  596MOL0     C80350   7.043   9.274   4.812  0.3805  0.0167 -0.1125
  596MOL0     C80351   7.155   9.349   4.847 -0.6699  0.7123  0.0075
  596MOL0     C80352   7.267   9.278   4.895  0.4857 -0.4570 -0.0408
  596MOL0     C80353   7.275   9.139   4.911 -0.1184  1.1333 -0.0894
  596MOL0     C80354   7.394   9.066   4.950 -0.1169 -0.2576  0.4073
  596MOL0     O80355   7.493   9.146   4.988  0.2147  0.0201  0.6536
  596MOL0     C80356   7.608   9.091   5.039 -1.2405  0.4944 -0.0240
  596MOL0     C80357   7.633   9.093   5.169  0.2809 -0.1912 -0.4759
  596MOL0     C80358   7.757   9.054   5.223  0.8718  0.8373 -0.1509
  596MOL0     C80359   7.855   8.993   5.148  0.6069  0.5171 -0.1274
  596MOL0     O80360   7.968   8.959   5.213  0.1741  0.4398 -0.0220
  596MOL0     C80361   8.056   8.872   5.139 -0.6747 -0.1359  1.0953
  596MOL0     C80362   8.144   8.803   5.238  0.7400 -0.2476  0.1552
  596MOL0     C80363   8.250   8.906   5.295  0.1265 -0.8504 -0.1810
  596MOL0     C80364   8.335   8.849   5.407 -0.2933 -0.2692  0.4639
  596MOL0     C80365   8.440   8.954   5.447  0.0199 -0.3705  0.2457
  596MOL0     C80366   8.505   8.896   5.580  0.4733  0.2457 -0.1902
  596MOL0     C80367   8.619   8.988   5.623  0.6596 -0.4560 -0.2290
  596MOL0     C80368   8.699   8.926   5.737  0.4780  0.5781  0.3399
  596MOL0    Cl80369   8.859   8.984   5.748  0.0439 -0.6649  0.3192
  596MOL0     C80370   7.823   8.970   5.009 -0.5391  0.7488  0.4392
  596MOL0     C80371   7.702   9.020   4.952  0.2188  0.2709  0.0847
  596MOL0     O80372   7.399   8.941   4.936 -0.1870 -0.7748  0.2209
  596MOL0     C80373   7.154   9.070   4.881 -0.3408 -0.1230 -0.0933
  596MOL0     C80374   7.049   9.138   4.828  0.2583 -0.7106 -0.7564
  596MOL0     N80375   6.403   9.201   4.738 -0.1687  0.0891 -0.2576
  596MOL0     N80376   6.283   9.168   4.746  0.2744  0.5305 -0.0106
  596MOL0     C80377   5.022   9.028   4.284  0.0177  0.0859 -0.0910
  596MOL0     C80378   4.894   8.985   4.237  0.8917 -0.3009  0.8223
  596MOL0     C80379   4.446   9.035   4.116 -0.1344 -0.4110  0.2164
  596MOL0     C80380   4.335   9.060   4.209  0.1951  0.1903  0.3095
  596MOL0     C80381   4.201   9.040   4.171  0.2154 -0.3904  0.2955
  596MOL0     C80382   4.169   8.988   4.041  0.0478  0.4635 -0.3344
  596MOL0     O80383   4.040   8.972   4.008  0.4848  0.2346  0.7660
  596MOL0     C80384   3.990   8.977   3.877  0.7003  0.1373 -0.3394
  596MOL0     C80385   3.839   8.961   3.895  0.6333 -0.0989 -0.5809
  596MOL0     C80386   3.753   8.971   3.768 -0.8069 -0.6933 -0.3054
  596MOL0     C80387   3.757   8.828   3.705  0.3031  0.4753  0.2085
  596MOL0     C80388   3.725   8.839   3.562  0.4065  0.1596  0.3406
  596MOL0     C80389   3.691   8.861   3.445  0.4409  0.3201 -0.0811
  596MOL0     C80390   4.276   8.970   3.948  0.1485  0.0067  0.1629
  596MOL0     C80391   4.410   8.990   3.989 -0.1950  0.5721 -0.0060
  596MOL0     C80392   4.515   8.962   3.886  0.6961  0.2271  0.4228
  596MOL0     H80393   4.823   9.239   4.026 -0.3539 -1.5728 -0.1779
  596MOL0     H80394   5.031   9.323   4.118  1.0498 -0.4232  0.6084
  596MOL0     H80395   5.259   9.081   4.421  1.6318  1.7640  1.8033
  596MOL0     H80396   5.328   9.069   4.250  1.3271  1.0722  0.5025
  596MOL0     H80397   5.371   9.277   4.470 -0.9916 -1.6136 -0.0714
  596MOL0     H80398   5.419   9.322   4.313  0.5342  0.2624  0.0810
  596MOL0     H80399   5.577   9.140   4.296 -2.3388  2.0540 -1.0716
  596MOL0     H80400   5.516   9.075   4.453  0.0020 -1.2068 -2.4152
  596MOL0     H80401   5.643   9.349   4.406 -2.6857  1.5844  1.4077
  596MOL0     H80402   5.585   9.290   4.561  0.7289 -1.0663  0.5855
  596MOL0     H80403   5.750   9.111   4.533 -0.4700 -0.3560  1.1255
  596MOL0     H80404   5.817   9.202   4.397 -0.7540  0.5058 -0.2143
  596MOL0     H80405   5.855   9.401   4.563 -0.4951 -0.8433 -1.8413
  596MOL0     H80406   5.780   9.305   4.685  1.7636  1.6647  0.2111
  596MOL0     H80407   6.016   9.271   4.516 -0.5964  2.7891  0.1572
  596MOL0     H80408   5.953   9.122   4.600 -0.1450  0.3459 -0.9720
  596MOL0     H80409   6.039   9.378   4.743 -0.1204 -0.6902 -0.2343
  596MOL0     H80410   6.035   9.211   4.814 -0.8639 -1.1522 -0.8978
  596MOL0     H80411   6.270   9.466   4.612  3.3583 -0.7770 -1.4509
  596MOL0     H80412   6.526   9.433   4.517 -1.3990  0.0527  0.4425
  596MOL0     H80413   6.533   9.482   4.690 -1.2609 -0.4847  1.3914
  596MOL0     H80414   6.675   9.294   4.751  0.0979  1.5021 -0.2677
  596MOL0     H80415   6.658   9.226   4.589 -1.3497 -1.4538  0.4167
  596MOL0     H80416   6.774   9.510   4.638 -1.5453 -1.2531  1.1839
  596MOL0     H80417   6.767   9.429   4.495  0.8208  1.0858  0.3339
  596MOL0     H80418   6.987   9.423   4.613 -0.0068  1.1263  1.2215
  596MOL0     H80419   6.924   9.250   4.588 -0.8488  0.1132  2.3195
  596MOL0     H80420   7.156   9.458   4.846 -1.8278  0.7672  1.0594
  596MOL0     H80421   7.353   9.334   4.930 -0.8325  0.8940  1.1858
  596MOL0     H80422   7.549   9.128   5.228  1.0160  0.3946  0.2518
  596MOL0     H80423   7.777   9.059   5.330 -3.4621 -0.4961  0.9266
  596MOL0     H80424   7.996   8.797   5.086  0.3012  2.0055 -3.5541
  596MOL0     H80425   8.099   8.923   5.053 -0.7860 -0.6634  0.7198
  596MOL0     H80426   8.079   8.749   5.307 -1.0098  1.2267 -0.2657
  596MOL0     H80427   8.201   8.731   5.179  0.5957  0.8179 -1.3480
  596MOL0     H80428   8.315   8.936   5.213  0.0033  1.2173  0.4232
  596MOL0     H80429   8.203   8.997   5.335  0.7960 -0.2525 -0.7328
  596MOL0     H80430   8.383   8.758   5.370 -1.6618 -1.4189  1.3959
  596MOL0     H80431   8.278   8.823   5.497  1.4265 -0.9294  1.4122
  596MOL0     H80432   8.405   9.057   5.451  1.7561  0.4544 -2.7581
  596MOL0     H80433   8.509   8.965   5.363  1.5025  0.6539  1.5496
  596MOL0     H80434   8.432   8.884   5.660 -0.1449 -0.8865 -0.8863
  596MOL0     H80435   8.552   8.800   5.556 -0.2056 -0.5242  1.4005
  596MOL0     H80436   8.580   9.083   5.658 -0.8851 -1.2034  0.1445
  596MOL0     H80437   8.681   9.012   5.536 -0.1512  4.1960  0.2337
  596MOL0     H80438   8.643   8.939   5.830  0.8588 -0.1643  0.6853
  596MOL0     H80439   8.705   8.817   5.722 -1.0395  0.2101  2.0221
  596MOL0     H80440   7.898   8.926   4.944 -0.0527 -2.7615  3.0901
  596MOL0     H80441   7.665   9.003   4.852 -2.2891 -1.7822  1.2374
  596MOL0     H80442   7.154   8.965   4.907  2.6168  0.2819  2.2073
  596MOL0     H80443   6.962   9.076   4.811  1.4125 -2.7844  0.4801
  596MOL0     H80444   5.083   8.974   4.355  1.6358 -0.5893 -1.9137
  596MOL0     H80445   4.858   8.884   4.254 -1.0560  0.2933  0.3575
  596MOL0     H80446   4.357   9.092   4.310  1.7019 -1.6371  0.6142
  596MOL0     H80447   4.122   9.047   4.245  1.6832 -2.8519  2.3057
  596MOL0     H80448   4.028   8.908   3.802 -1.9211  0.3821 -2.0165
  596MOL0     H80449   4.017   9.077   3.841 -1.9079  1.4393  0.9927
  596MOL0     H80450   3.818   9.046   3.961  1.1790 -1.2260  1.1243
  596MOL0     H80451   3.812   8.877   3.960 -0.4671  1.2084  0.7438
  596MOL0     H80452   3.785   9.052   3.702  0.0630 -1.0169 -0.2800
  596MOL0     H80453   3.648   8.992   3.792 -1.5220 -3.1930 -0.9655
  596MOL0     H80454   3.856   8.783   3.711 -0.0692 -0.2196  1.4504
  596MOL0     H80455   3.681   8.764   3.750  2.2209 -3.2085 -1.4267
  596MOL0     H80456   3.649   8.889   3.350 -1.7558  0.1657  0.7863
  596MOL0     H80457   4.255   8.947   3.844 -0.1911 -0.1327  0.2599
  596MOL0     H80458   4.459   8.941   3.795 -3.1592  3.6951  1.6650
  596MOL0     H80459   4.580   9.049   3.874  1.4646 -0.4886 -0.7944
  596MOL0     H80460   4.586   8.882   3.908 -0.5557 -0.9558  0.3299
  597MOL0     O80461  11.239   4.745   2.205  0.4792  0.1822 -0.0408
  597MOL0     C80462  11.236   4.861   2.229 -0.0015 -0.2506  0.8267
  597MOL0     O80463  11.342   4.927   2.288  0.5884  0.4200 -0.4701
  597MOL0     C80464  11.451   4.852   2.326 -0.6241 -0.8669  0.0785
  597MOL0     C80465  11.477   4.833   2.463 -0.5474 -0.4044  0.4297
  597MOL0     C80466  11.587   4.760   2.501 -0.2614  0.3822 -0.7500
  597MOL0     C80467  11.672   4.683   2.411 -0.2299 -0.0042  1.1708
  597MOL0     O80468  11.772   4.598   2.457 -0.1638 -0.1384  0.1694
  597MOL0     C80469  11.866   4.540   2.369 -0.0390  0.1172 -0.6079
  597MOL0     C80470  11.957   4.448   2.449  0.0352 -0.4721 -0.5510
  597MOL0     C80471  12.064   4.382   2.361  0.0165 -0.3420 -1.2290
  597MOL0     C80472  12.179   4.323   2.450  0.7073 -0.7921 -0.5424
  597MOL0     C80473  12.308   4.279   2.377 -0.1288  0.6872 -0.3147
  597MOL0     C80474  12.278   4.158   2.287 -0.4163  0.8757  0.4252
  597MOL0     C80475  12.402   4.113   2.204 -0.8460 -0.4122  0.6545
  597MOL0     C80476  12.530   4.091   2.281  0.1422  0.1170 -0.1221
  597MOL0     N80477  12.535   3.984   2.383 -0.1723  0.7133  0.3255
  597MOL0     C80478  12.528   3.996   2.523 -0.3989 -0.3202  0.5048
  597MOL0     C80479  12.583   3.877   2.566  0.1414 -0.3246  0.0761
  597MOL0     C80480  12.595   3.828   2.706 -0.5989 -0.5981 -0.2549
  597MOL0     C80481  12.681   3.929   2.783  0.3241  0.3146 -0.0299
  597MOL0     C80482  12.748   3.892   2.916 -0.1655 -0.2149 -0.1719
  597MOL0     C80483  12.869   3.810   2.899  0.2564 -0.1135  0.6696
  597MOL0     O80484  12.976   3.894   2.843 -0.0561 -0.3096  0.5947
  597MOL0     C80485  13.097   3.832   2.806  0.7817 -0.0191 -0.2050
  597MOL0     C80486  13.201   3.915   2.761  0.1399  0.3211  1.1060
  597MOL0     C80487  13.331   3.871   2.738 -0.6422  0.4875  1.0327
  597MOL0     C80488  13.359   3.731   2.757  0.3851 -0.4902 -0.3180
  597MOL0     C80489  13.492   3.668   2.754  0.3812  0.3422  0.1401
  597MOL0     O80490  13.496   3.528   2.761 -0.1063  0.2482  0.5503
  597MOL0     C80491  13.615   3.479   2.760 -0.4469  0.4960  1.1629
  597MOL0     C80492  13.691   3.484   2.870  0.1798  0.5625 -0.8103
  597MOL0     C80493  13.823   3.445   2.874 -0.2620  0.6842 -0.7841
  597MOL0     C80494  13.879   3.393   2.760 -1.4985  0.3543 -0.1813
  597MOL0     O80495  14.009   3.361   2.761 -0.6585 -0.1672  0.1667
  597MOL0     C80496  14.075   3.293   2.651  0.0460  0.1762 -0.5889
  597MOL0     C80497  14.222   3.266   2.676 -0.2839 -0.0485  0.0082
  597MOL0     C80498  14.304   3.402   2.678  0.6548  0.4683  0.1766
  597MOL0     C80499  14.445   3.378   2.648 -0.5286  0.3605  0.3020
  597MOL0     C80500  14.513   3.506   2.597  0.7652 -0.7716  0.6253
  597MOL0     C80501  14.659   3.528   2.641 -0.2920 -0.5183  0.8043
  597MOL0     C80502  14.780   3.440   2.586 -0.1970 -0.4938  0.0487
  597MOL0     C80503  14.913   3.466   2.651 -0.2269  0.7030 -0.2654
  597MOL0    Cl80504  14.986   3.617   2.592 -0.2163 -0.1387 -0.1211
  597MOL0     C80505  13.801   3.386   2.645  0.2538 -0.3375  0.3800
  597MOL0     C80506  13.666   3.425   2.641  1.0243  0.0010  0.6273
  597MOL0     O80507  13.578   3.746   2.735  0.7908 -0.1140 -0.0824
  597MOL0     C80508  13.255   3.653   2.781  0.5268  0.0442 -0.7770
  597MOL0     C80509  13.129   3.701   2.817 -0.0158 -0.1439 -0.4612
  597MOL0     N80510  12.609   3.799   2.452 -0.2528  0.7008  0.1600
  597MOL0     N80511  12.588   3.863   2.345 -0.0841  0.3683  0.3440
  597MOL0     C80512  11.641   4.716   2.269 -0.4550 -0.1780  0.0824
  597MOL0     C80513  11.532   4.798   2.229  0.1386 -0.1984 -0.2911
  597MOL0     C80514  11.119   4.940   2.206  1.0463  0.1548 -0.0728
  597MOL0     C80515  11.090   5.037   2.309 -0.4647 -0.5508  0.4781
  597MOL0     C80516  10.986   5.120   2.295 -0.7720 -0.2910  0.0209
  597MOL0     C80517  10.917   5.126   2.178 -0.8462  0.5359 -0.4569
  597MOL0     O80518  10.818   5.215   2.158  0.0900 -0.0873  0.4850
  597MOL0     C80519  10.730   5.253   2.255 -0.1726 -0.7287 -1.0476
  597MOL0     C80520  10.627   5.341   2.186  0.1472  0.4837  0.3989
  597MOL0     C80521  10.537   5.263   2.076  1.0842 -0.1069 -0.3025
  597MOL0     C80522  10.442   5.342   1.992 -0.0167 -0.0200 -0.1119
  597MOL0     C80523  10.514   5.425   1.890 -1.0200 -0.1054  0.0090
  597MOL0     C80524  10.547   5.501   1.804  0.0263 -0.0048  0.0558
  597MOL0     C80525  10.930   5.025   2.084 -0.7787 -1.1983 -0.3000
  597MOL0     C80526  11.036   4.931   2.097 -0.5655 -0.8007  0.7750
  597MOL0     C80527  11.074   4.839   1.976  0.0285 -0.5554  0.5217
  597MOL0     H80528  11.424   4.886   2.541 -0.1628  0.0652  0.3781
  597MOL0     H80529  11.607   4.746   2.607 -0.9618 -1.5861 -0.8338
  597MOL0     H80530  11.822   4.473   2.295 -2.8197 -0.1000  1.1085
  597MOL0     H80531  11.930   4.615   2.320 -2.6520  2.7131 -0.3172
  597MOL0     H80532  11.899   4.371   2.500  0.1065 -0.3851 -0.3370
  597MOL0     H80533  11.991   4.517   2.527  0.0920  2.1735 -2.7571
  597MOL0     H80534  12.096   4.460   2.291 -1.3254 -0.6122 -2.1889
  597MOL0     H80535  12.015   4.304   2.302 -1.9317  0.0103 -0.1792
  597MOL0     H80536  12.204   4.397   2.528 -1.2716  0.1782 -0.7681
  597MOL0     H80537  12.145   4.234   2.502  2.2003 -1.0635  0.0094
  597MOL0     H80538  12.343   4.360   2.312 -1.3707 -0.2241 -2.1999
  597MOL0     H80539  12.379   4.249   2.455 -1.3386  0.9110  0.9198
  597MOL0     H80540  12.257   4.075   2.355  2.1976  2.4064  3.3403
  597MOL0     H80541  12.185   4.169   2.230 -1.2786  1.7995  1.9482
  597MOL0     H80542  12.415   4.184   2.122 -0.3322  2.2055  2.8935
  597MOL0     H80543  12.364   4.021   2.158  1.9521 -2.3733  1.9801
  597MOL0     H80544  12.607   4.064   2.208  1.8341  2.1477  0.7983
  597MOL0     H80545  12.562   4.182   2.334 -0.6753  0.3228  0.0307
  597MOL0     H80546  12.492   4.073   2.590  1.6366 -0.2990  1.6742
  597MOL0     H80547  12.496   3.817   2.752 -0.4011 -1.3105  0.0305
  597MOL0     H80548  12.635   3.726   2.710  1.5795  0.1964 -0.5246
  597MOL0     H80549  12.764   3.959   2.717  0.6444 -0.6352 -0.0686
  597MOL0     H80550  12.617   4.014   2.808  1.5251  1.1167  0.4409
  597MOL0     H80551  12.671   3.843   2.976 -0.9346  1.8708  0.6190
  597MOL0     H80552  12.784   3.977   2.975  1.5459  0.9592 -2.6850
  597MOL0     H80553  12.851   3.723   2.834 -0.7127  0.6062 -0.0528
  597MOL0     H80554  12.895   3.772   2.998 -0.4478 -1.2702  0.4416
  597MOL0     H80555  13.170   4.017   2.741 -0.0426  0.5631  2.5331
  597MOL0     H80556  13.403   3.944   2.705 -0.4792 -1.0706 -2.4441
  597MOL0     H80557  13.651   3.511   2.968  1.1838 -1.8828  0.3634
  597MOL0     H80558  13.881   3.443   2.966 -1.5499 -2.5397  0.0894
  597MOL0     H80559  14.022   3.199   2.631 -0.4724  0.7432 -1.9822
  597MOL0     H80560  14.072   3.354   2.560  1.0909  0.9050 -0.1532
  597MOL0     H80561  14.221   3.231   2.780 -0.7932  3.4374  1.3404
  597MOL0     H80562  14.262   3.198   2.601 -2.2364 -1.0876 -0.1607
  597MOL0     H80563  14.263   3.462   2.597  1.4603 -0.8116 -1.2454
  597MOL0     H80564  14.291   3.454   2.773  0.8841 -0.6952  0.8755
  597MOL0     H80565  14.454   3.293   2.580 -1.8620  1.2202 -1.0099
  597MOL0     H80566  14.491   3.343   2.741 -0.2942 -0.4008 -0.0918
  597MOL0     H80567  14.448   3.578   2.647  0.3662 -0.7149  0.0328
  597MOL0     H80568  14.498   3.517   2.490  0.1135 -1.0852  0.6840
  597MOL0     H80569  14.690   3.631   2.624 -0.9114 -0.4736 -0.1418
  597MOL0     H80570  14.660   3.510   2.749  0.3794  0.3978  0.9548
  597MOL0     H80571  14.787   3.476   2.483  0.5485  0.3566  0.3782
  597MOL0     H80572  14.747   3.336   2.596 -2.3966  0.2278  0.6535
  597MOL0     H80573  14.912   3.466   2.760 -2.8020 -2.9945 -0.1131
  597MOL0     H80574  14.976   3.380   2.624  0.8392  2.0570 -2.3977
  597MOL0     H80575  13.840   3.330   2.560 -0.1779 -0.7872  0.4701
  597MOL0     H80576  13.618   3.417   2.544  1.0999 -1.0615  0.6700
  597MOL0     H80577  13.273   3.550   2.812 -0.4528  0.6709  2.2393
  597MOL0     H80578  13.056   3.627   2.849  0.7039 -0.2573  0.9868
  597MOL0     H80579  11.718   4.685   2.199  0.6251 -0.8451  1.5091
  597MOL0     H80580  11.515   4.815   2.123  1.5518  1.7658 -0.2716
  597MOL0     H80581  11.147   5.028   2.401  1.0247 -1.6258 -0.4978
  597MOL0     H80582  10.973   5.194   2.373 -0.4132  0.8868 -0.9943
  597MOL0     H80583  10.781   5.300   2.339  1.6987 -1.0783 -1.9514
  597MOL0     H80584  10.694   5.158   2.297 -1.0929  1.1223  2.7383
  597MOL0     H80585  10.665   5.435   2.144 -0.2403  0.8088  0.7661
  597MOL0     H80586  10.560   5.372   2.267 -2.9306  0.9753 -2.1579
  597MOL0     H80587  10.473   5.201   2.139 -1.0784  2.0983 -0.1823
  597MOL0     H80588  10.612   5.217   2.011  1.1377 -1.8951  0.9522
  597MOL0     H80589  10.382   5.277   1.927  0.6724  0.5011 -1.3143
  597MOL0     H80590  10.388   5.405   2.063 -1.4733 -2.2331  0.8347
  597MOL0     H80591  10.580   5.569   1.729 -0.2450 -0.0742 -0.1285
  597MOL0     H80592  10.875   5.049   1.993 -0.0940  4.9916  0.4514
  597MOL0     H80593  11.127   4.748   2.007 -1.2120 -0.7028  2.3647
  597MOL0     H80594  10.985   4.806   1.922  0.9343 -1.5286 -0.4134
  597MOL0     H80595  11.139   4.905   1.919  0.5086  0.1586  1.8460
  598MOL0     O80596  10.418   4.288   0.857  0.5340 -0.3904 -0.4492
  598MOL0     C80597  10.434   4.338   0.748  0.7731  0.1030 -0.2507
  598MOL0     O80598  10.551   4.374   0.695  0.3861  0.1593 -0.0974
  598MOL0     C80599  10.680   4.335   0.734  0.0092  0.1034 -0.0964
  598MOL0     C80600  10.778   4.430   0.736  0.1867  0.2385 -0.1287
  598MOL0     C80601  10.905   4.395   0.768  0.6453  0.7908  0.4258
  598MOL0     C80602  10.934   4.270   0.820  0.7252  0.4711 -0.6231
  598MOL0     O80603  11.062   4.223   0.858 -0.2812 -0.5143 -0.0490
  598MOL0     C80604  11.173   4.312   0.857 -0.0281  0.0524 -0.0029
  598MOL0     C80605  11.300   4.250   0.921 -0.1459  0.0122 -0.5398
  598MOL0     C80606  11.360   4.138   0.834  0.6902 -0.3610 -0.3120
  598MOL0     C80607  11.487   4.090   0.903  0.0807 -0.3419 -0.1606
  598MOL0     C80608  11.550   3.994   0.811  0.9170  0.4108 -0.0904
  598MOL0     C80609  11.651   3.902   0.892  0.8433  0.1228 -0.4536
  598MOL0     C80610  11.776   3.971   0.958 -0.0200 -0.8224 -0.1308
  598MOL0     C80611  11.858   4.048   0.853  0.7337  0.2946 -1.0789
  598MOL0     N80612  11.996   4.085   0.885 -0.2246  0.0721 -0.2266
  598MOL0     C80613  12.092   3.992   0.896  0.3530 -0.3150  0.1127
  598MOL0     C80614  12.192   4.054   0.968 -0.1128  0.2323  0.8067
  598MOL0     C80615  12.313   3.977   1.019 -0.7286 -0.4933 -0.8376
  598MOL0     C80616  12.455   4.042   1.015 -0.8722 -0.2648  1.0703
  598MOL0     C80617  12.445   4.197   1.045  0.0215  0.4932 -0.0262
  598MOL0     C80618  12.575   4.260   1.041 -0.5378 -0.2479  0.6567
  598MOL0     O80619  12.638   4.223   0.921  0.0369  0.0804  0.2999
  598MOL0     C80620  12.777   4.201   0.913  0.7166 -0.5115 -0.3576
  598MOL0     C80621  12.831   4.115   0.818 -0.6754 -0.1852 -0.2149
  598MOL0     C80622  12.967   4.084   0.813 -0.0923 -0.3014 -0.4896
  598MOL0     C80623  13.060   4.137   0.907  0.1964 -0.0989  0.3881
  598MOL0     C80624  13.213   4.112   0.893 -0.2666 -0.4962  0.2310
  598MOL0     O80625  13.242   4.027   0.790  0.4757  0.1710 -0.0899
  598MOL0     C80626  13.370   3.962   0.791  0.6901  0.6057 -0.5451
  598MOL0     C80627  13.459   3.971   0.686  0.4250 -0.5524 -0.7899
  598MOL0     C80628  13.574   3.895   0.679 -0.3268 -0.0759  0.1005
  598MOL0     C80629  13.601   3.803   0.785  0.6846 -0.0950 -0.1152
  598MOL0     O80630  13.721   3.726   0.788 -0.2929  0.2032  0.1429
  598MOL0     C80631  13.819   3.741   0.676  0.2238  0.1610 -0.7798
  598MOL0     C80632  13.920   3.839   0.734 -0.1103  0.0313  0.5139
  598MOL0     C80633  14.034   3.880   0.641  0.1646  0.1856 -0.4683
  598MOL0     C80634  14.158   3.941   0.723  0.0098 -0.1269 -0.2139
  598MOL0     C80635  14.280   3.987   0.645  0.4274 -0.6607 -0.0608
  598MOL0     C80636  14.258   4.107   0.553  0.3263 -1.0757  0.0668
  598MOL0     C80637  14.395   4.157   0.514 -0.1426 -0.3948  0.2489
  598MOL0     C80638  14.388   4.262   0.398  0.6137  0.1281 -0.5888
  598MOL0    Cl80639  14.560   4.287   0.349  0.0718 -0.3115 -0.0646
  598MOL0     C80640  13.509   3.789   0.883  0.0373  0.1511 -0.4515
  598MOL0     C80641  13.396   3.870   0.891 -0.5134  0.1881  0.5983
  598MOL0     O80642  13.290   4.158   0.979  0.3307 -0.5218  0.9111
  598MOL0     C80643  13.010   4.233   0.990  0.0086 -0.0057  0.5836
  598MOL0     C80644  12.870   4.261   1.003 -0.1699 -0.9154 -0.1104
  598MOL0     N80645  12.149   4.178   1.003  0.2476  0.5293 -0.3063
  598MOL0     N80646  12.031   4.200   0.952 -0.0765 -0.6247 -0.0492
  598MOL0     C80647  10.828   4.168   0.821 -1.1076 -0.3657 -0.7456
  598MOL0     C80648  10.701   4.206   0.771  0.0660 -0.1391 -1.0908
  598MOL0     C80649  10.304   4.357   0.669  0.3943 -0.0118  0.1547
  598MOL0     C80650  10.182   4.323   0.723 -0.2919 -0.0616 -0.1625
  598MOL0     C80651  10.065   4.349   0.657 -0.0387  0.1250  0.3354
  598MOL0     C80652  10.054   4.377   0.525  0.4190  0.5558  0.6563
  598MOL0     O80653   9.935   4.376   0.453  0.6385  0.2759  0.3046
  598MOL0     C80654   9.807   4.328   0.506 -1.3828 -0.0590 -0.5081
  598MOL0     C80655   9.752   4.234   0.400  0.1981  0.8829 -0.2605
  598MOL0     C80656   9.621   4.181   0.452  0.3066 -0.1837  0.0642
  598MOL0     C80657   9.529   4.154   0.336 -0.2981  0.3726  0.4710
  598MOL0     C80658   9.575   4.061   0.236 -0.1375  0.1136 -0.4725
  598MOL0     C80659   9.614   3.977   0.162  0.0435 -0.1196  0.1089
  598MOL0     C80660  10.180   4.388   0.459  0.3692  1.0101 -0.0086
  598MOL0     C80661  10.300   4.395   0.534 -0.3269  0.0555  0.1235
  598MOL0     C80662  10.425   4.406   0.446  0.0480 -1.7385 -0.0538
  598MOL0     H80663  10.748   4.529   0.702 -0.6018  0.1221  0.2074
  598MOL0     H80664  10.978   4.475   0.758  0.9750  0.7951  2.4397
  598MOL0     H80665  11.191   4.344   0.754  2.1814  0.9115  0.5969
  598MOL0     H80666  11.142   4.397   0.919 -1.9078 -0.0746 -0.7011
  598MOL0     H80667  11.283   4.220   1.025 -1.4120  4.9145  0.9281
  598MOL0     H80668  11.376   4.328   0.925 -0.6064  0.4014  1.2098
  598MOL0     H80669  11.400   4.189   0.746  0.6686 -0.1550 -0.2013
  598MOL0     H80670  11.281   4.067   0.808 -1.5128  1.1071  1.8814
  598MOL0     H80671  11.566   4.166   0.906  0.2799 -0.5213 -0.7177
  598MOL0     H80672  11.476   4.060   1.007  0.8174  1.1874  0.3842
  598MOL0     H80673  11.468   3.934   0.771  0.6559 -0.0321  1.0677
  598MOL0     H80674  11.593   4.039   0.721  0.9597  1.1949  0.3121
  598MOL0     H80675  11.595   3.855   0.973 -1.3895  3.6124  0.2673
  598MOL0     H80676  11.685   3.822   0.825 -0.4797  1.9542 -3.4970
  598MOL0     H80677  11.842   3.887   0.982 -0.8233 -1.9801 -1.7316
  598MOL0     H80678  11.749   4.022   1.051 -2.5684 -1.7988 -0.2426
  598MOL0     H80679  11.841   4.012   0.751 -1.2258 -1.1924 -0.3046
  598MOL0     H80680  11.809   4.144   0.839  0.9114  0.0544 -3.8894
  598MOL0     H80681  12.108   3.891   0.860  0.0303 -0.4745  0.4046
  598MOL0     H80682  12.291   3.937   1.119  3.5179  1.8539  1.3109
  598MOL0     H80683  12.330   3.892   0.953  0.1784  1.3278 -3.0876
  598MOL0     H80684  12.522   3.991   1.083  0.1042 -2.1480 -1.1836
  598MOL0     H80685  12.489   4.030   0.912 -1.4107  3.5409  0.2971
  598MOL0     H80686  12.402   4.206   1.145 -1.7867 -3.0594 -0.3092
  598MOL0     H80687  12.384   4.253   0.974 -0.7512  0.1250  0.3337
  598MOL0     H80688  12.634   4.229   1.128  1.2004 -1.9295 -1.0080
  598MOL0     H80689  12.568   4.368   1.051  3.5682  0.3179 -0.6764
  598MOL0     H80690  12.766   4.063   0.748  0.2289 -2.7831  0.7600
  598MOL0     H80691  13.007   4.020   0.735  2.6264  0.3522  0.2670
  598MOL0     H80692  13.420   4.042   0.614  3.3359 -0.1537 -2.1593
  598MOL0     H80693  13.636   3.919   0.593 -0.2582 -1.7249 -0.3491
  598MOL0     H80694  13.869   3.646   0.653 -3.1053 -1.6832 -1.0007
  598MOL0     H80695  13.772   3.775   0.583 -0.1815  1.2524 -0.1850
  598MOL0     H80696  13.863   3.928   0.764 -4.1077 -1.7047 -1.3094
  598MOL0     H80697  13.958   3.812   0.834  1.2316 -0.8029 -0.1905
  598MOL0     H80698  14.074   3.796   0.582  0.3105 -0.7780  0.9455
  598MOL0     H80699  14.003   3.960   0.574  2.6636  1.7463  0.1213
  598MOL0     H80700  14.186   3.872   0.803  0.0814  1.0692  0.8219
  598MOL0     H80701  14.122   4.028   0.778  0.4370  0.6370 -1.1252
  598MOL0     H80702  14.327   3.903   0.593 -0.2199 -2.3238  1.8992
  598MOL0     H80703  14.349   4.020   0.724 -1.2692 -1.7683  1.9884
  598MOL0     H80704  14.213   4.069   0.461 -0.6342 -2.8781  1.2254
  598MOL0     H80705  14.206   4.184   0.611  1.6098 -0.6016  0.6302
  598MOL0     H80706  14.456   4.069   0.492 -0.7247 -1.1274  1.4903
  598MOL0     H80707  14.439   4.209   0.600 -2.8760  3.2710 -0.3451
  598MOL0     H80708  14.337   4.227   0.307  0.8035  1.9937 -1.4634
  598MOL0     H80709  14.345   4.356   0.431  2.2975  0.0981  1.8754
  598MOL0     H80710  13.511   3.711   0.958 -2.2384  0.6369  0.1945
  598MOL0     H80711  13.319   3.859   0.967 -0.0616 -1.8830  0.8008
  598MOL0     H80712  13.077   4.299   1.043  0.8487  0.0018 -0.4512
  598MOL0     H80713  12.840   4.328   1.083 -0.7955  1.6499 -2.3394
  598MOL0     H80714  10.849   4.067   0.856  0.8981  0.6548  1.3495
  598MOL0     H80715  10.615   4.141   0.766 -1.7618  2.1332 -0.6130
  598MOL0     H80716  10.171   4.285   0.824 -0.5271 -1.1437 -0.5848
  598MOL0     H80717   9.978   4.325   0.718 -0.9859  0.1466 -0.9411
  598MOL0     H80718   9.742   4.411   0.534  1.4431  1.5604  1.7450
  598MOL0     H80719   9.822   4.269   0.597 -1.0536  0.7412 -0.0383
  598MOL0     H80720   9.808   4.143   0.375 -1.0368  0.1548 -0.4218
  598MOL0     H80721   9.747   4.286   0.304  1.5727  1.9312  0.1953
  598MOL0     H80722   9.569   4.255   0.513 -0.2086 -1.5267  1.3210
  598MOL0     H80723   9.626   4.088   0.509 -3.8511  0.0933  1.1611
  598MOL0     H80724   9.425   4.132   0.361 -1.3020  2.2311 -1.6808
  598MOL0     H80725   9.515   4.249   0.283  0.7693  0.6556  0.6630
  598MOL0     H80726   9.646   3.893   0.104 -0.7133  0.2244 -0.8322
  598MOL0     H80727  10.181   4.394   0.350 -1.8891 -1.6412 -0.2906
  598MOL0     H80728  10.466   4.307   0.426  2.2444 -0.8148 -0.3555
  598MOL0     H80729  10.398   4.458   0.354  2.0184 -0.4608  0.0181
  598MOL0     H80730  10.490   4.479   0.496 -1.7422 -0.6691  0.8368
  599MOL0     O80731   5.761   7.452   7.042  0.9787  0.1467 -0.6066
  599MOL0     C80732   5.676   7.400   7.114 -0.6142  0.4014 -0.5597
  599MOL0     O80733   5.683   7.390   7.252  0.3757  0.0094  0.4943
  599MOL0     C80734   5.792   7.440   7.326 -0.0846 -0.2355  1.0687
  599MOL0     C80735   5.923   7.401   7.303  0.3372  1.0035  0.4377
  599MOL0     C80736   6.030   7.444   7.391  0.0425  0.6138  0.3693
  599MOL0     C80737   5.997   7.523   7.499 -0.1354 -0.0095 -0.6543
  599MOL0     O80738   6.098   7.542   7.590 -0.2223 -0.5150  0.4574
  599MOL0     C80739   6.076   7.646   7.691 -0.7536  0.1888 -0.1600
  599MOL0     C80740   6.208   7.711   7.731 -0.8781 -0.3565  0.1400
  599MOL0     C80741   6.316   7.610   7.764 -0.2158 -0.1726  0.2425
  599MOL0     C80742   6.440   7.680   7.823  0.0488  0.5819  0.3289
  599MOL0     C80743   6.553   7.584   7.870 -1.1333 -0.1128  0.4831
  599MOL0     C80744   6.664   7.557   7.759  0.6902 -0.2610  0.1059
  599MOL0     C80745   6.766   7.672   7.760  0.4636 -0.4667  0.7960
  599MOL0     C80746   6.898   7.631   7.692  0.5735 -1.2146  0.3798
  599MOL0     N80747   6.990   7.746   7.670 -0.0457  0.5052 -0.0582
  599MOL0     C80748   6.967   7.885   7.644 -0.4308 -0.0658 -0.4423
  599MOL0     C80749   7.097   7.932   7.650  0.2491  0.0067 -0.3454
  599MOL0     C80750   7.112   8.073   7.624  0.0397  0.1142  0.1988
  599MOL0     C80751   7.262   8.110   7.635  1.0947  0.7367  0.0477
  599MOL0     C80752   7.273   8.260   7.603 -0.3716 -1.2171 -0.7975
  599MOL0     C80753   7.423   8.310   7.606 -0.3201 -0.0654  1.4439
  599MOL0     O80754   7.432   8.453   7.586  0.1913 -0.5892  0.5167
  599MOL0     C80755   7.547   8.518   7.633 -0.3678 -0.3198 -0.3256
  599MOL0     C80756   7.542   8.644   7.703 -0.5581  0.3960  0.6621
  599MOL0     C80757   7.658   8.708   7.740  0.3477 -0.4615  0.2230
  599MOL0     C80758   7.783   8.671   7.692 -0.1655 -0.5576 -0.4865
  599MOL0     C80759   7.907   8.741   7.727  0.3278  0.2638  0.4571
  599MOL0     O80760   8.027   8.694   7.683 -0.0270  0.8791 -0.0471
  599MOL0     C80761   8.146   8.752   7.710 -0.5141  0.5240 -0.9730
  599MOL0     C80762   8.240   8.751   7.616 -0.1070  0.0345 -0.2464
  599MOL0     C80763   8.372   8.809   7.644  0.4680  0.4780 -0.4842
  599MOL0     C80764   8.400   8.863   7.765 -0.5320 -0.3339  0.0412
  599MOL0     O80765   8.532   8.899   7.779  0.1558  0.0076  0.5997
  599MOL0     C80766   8.575   8.952   7.904 -0.9200 -0.5155  0.0647
  599MOL0     C80767   8.729   8.942   7.919  1.1085 -0.6762  0.5978
  599MOL0     C80768   8.768   8.809   7.966 -0.2953  0.7604  0.0936
  599MOL0     C80769   8.925   8.796   7.994  0.3630 -0.1167  0.4126
  599MOL0     C80770   8.958   8.650   8.023  0.2216 -0.3402 -0.2945
  599MOL0     C80771   9.093   8.627   8.081 -0.5325  0.4049  0.3236
  599MOL0     C80772   9.106   8.677   8.230  0.2723 -0.6831 -0.7696
  599MOL0     C80773   9.217   8.609   8.299 -0.3671 -0.4353  0.1266
  599MOL0    Cl80774   9.368   8.681   8.242 -0.1644 -0.4792  0.0720
  599MOL0     C80775   8.303   8.860   7.864  0.2044  0.0126 -0.3401
  599MOL0     C80776   8.177   8.805   7.834 -0.2994 -0.2668 -0.3717
  599MOL0     O80777   7.890   8.849   7.775 -0.0498  0.3666 -0.1392
  599MOL0     C80778   7.784   8.551   7.620 -0.5101 -0.3481  0.5476
  599MOL0     C80779   7.671   8.479   7.594 -0.5607  0.2897  0.0353
  599MOL0     N80780   7.189   7.827   7.652 -0.1208  0.1269 -0.7558
  599MOL0     N80781   7.126   7.724   7.668  0.8984  0.5334  0.2212
  599MOL0     C80782   5.866   7.552   7.527  0.1506  0.5131  0.3791
  599MOL0     C80783   5.767   7.511   7.439  0.0312 -0.2678 -0.9394
  599MOL0     C80784   5.563   7.332   7.047 -0.2384 -0.8437  0.5313
  599MOL0     C80785   5.461   7.270   7.129  0.8798 -0.3391 -0.5961
  599MOL0     C80786   5.341   7.220   7.074 -0.1957 -0.0564 -0.2618
  599MOL0     C80787   5.314   7.234   6.939 -0.5355 -0.5772 -0.4799
  599MOL0     O80788   5.193   7.195   6.890  0.0054  0.5173  0.6089
  599MOL0     C80789   5.180   7.106   6.777 -0.7172 -0.0430  1.3850
  599MOL0     C80790   5.032   7.059   6.772 -0.8802  0.0631  0.4609
  599MOL0     C80791   4.998   6.935   6.676 -0.1676 -0.0893 -0.1781
  599MOL0     C80792   4.856   6.887   6.679 -1.2877  0.7282 -0.1546
  599MOL0     C80793   4.765   6.999   6.665 -0.3560  0.4702  0.1861
  599MOL0     C80794   4.686   7.092   6.651  0.0082 -1.1093 -0.4895
  599MOL0     C80795   5.423   7.266   6.854  0.1781 -0.5279 -0.0708
  599MOL0     C80796   5.543   7.324   6.902  0.3474  0.1968 -0.1095
  599MOL0     C80797   5.639   7.363   6.787 -0.0860 -0.3116  0.0330
  599MOL0     H80798   5.937   7.324   7.228  2.0442  1.4282  0.2746
  599MOL0     H80799   6.133   7.412   7.381 -0.1059  0.4978 -0.8537
  599MOL0     H80800   6.016   7.728   7.651  1.4466  1.0519 -1.9756
  599MOL0     H80801   6.025   7.604   7.777 -2.0302  3.8001  0.9906
  599MOL0     H80802   6.199   7.775   7.820 -0.3051 -1.1560  0.7917
  599MOL0     H80803   6.245   7.776   7.652  4.9237 -0.0585  2.5696
  599MOL0     H80804   6.347   7.544   7.682  1.7994  1.2661 -0.2185
  599MOL0     H80805   6.282   7.545   7.845 -0.7185 -0.1585  0.0457
  599MOL0     H80806   6.478   7.751   7.749  1.2429  0.0952  0.4563
  599MOL0     H80807   6.417   7.739   7.913 -2.3526  1.9646 -1.0744
  599MOL0     H80808   6.607   7.622   7.957  2.8368 -0.3691 -1.6269
  599MOL0     H80809   6.510   7.488   7.898 -1.1909 -0.1001  0.4368
  599MOL0     H80810   6.711   7.462   7.788  0.0682  0.5735  4.3615
  599MOL0     H80811   6.627   7.543   7.656  1.9881  0.5779 -0.5003
  599MOL0     H80812   6.784   7.700   7.865  1.6676 -1.0095  0.7479
  599MOL0     H80813   6.716   7.757   7.713 -0.4585 -2.5092 -2.1934
  599MOL0     H80814   6.948   7.556   7.753 -0.1634  0.0090  2.6047
  599MOL0     H80815   6.874   7.591   7.593  0.8268 -0.6075  0.0684
  599MOL0     H80816   6.879   7.945   7.623 -0.6336  0.3529  1.3934
  599MOL0     H80817   7.077   8.103   7.525  0.9852 -0.2409 -0.2622
  599MOL0     H80818   7.056   8.122   7.704  1.7933  3.1307 -0.2408
  599MOL0     H80819   7.312   8.091   7.731  1.9547  0.4915 -0.4321
  599MOL0     H80820   7.313   8.058   7.554  0.6875  0.4319 -0.0114
  599MOL0     H80821   7.214   8.308   7.681  1.8520 -1.1215  0.9288
  599MOL0     H80822   7.226   8.283   7.507 -1.0980 -0.5584 -0.2984
  599MOL0     H80823   7.477   8.255   7.528  0.2662  1.2438  0.9106
  599MOL0     H80824   7.469   8.284   7.701  0.4275  0.8766  1.3516
  599MOL0     H80825   7.445   8.680   7.737 -1.1740  0.6447 -1.2232
  599MOL0     H80826   7.665   8.799   7.799  2.7178 -0.2844 -0.2438
  599MOL0     H80827   8.219   8.706   7.520 -3.1873  0.7148  0.0214
  599MOL0     H80828   8.445   8.809   7.564 -1.0149  1.2122 -1.8832
  599MOL0     H80829   8.543   9.055   7.919 -0.2212 -0.4386  1.1226
  599MOL0     H80830   8.531   8.904   7.992  0.1664  0.2070  1.0185
  599MOL0     H80831   8.786   8.966   7.829  0.1017  4.3203  1.0355
  599MOL0     H80832   8.752   9.018   7.994 -0.5524  1.5531 -1.0332
  599MOL0     H80833   8.715   8.800   8.062  3.7626  2.1937  2.7520
  599MOL0     H80834   8.740   8.734   7.892  1.5966 -2.6929  2.5958
  599MOL0     H80835   8.946   8.850   8.087  0.9715  2.2316 -1.0039
  599MOL0     H80836   8.984   8.843   7.915  1.5892 -3.7690 -1.1003
  599MOL0     H80837   8.958   8.605   7.923  0.5256  0.7255 -0.7929
  599MOL0     H80838   8.879   8.615   8.090 -1.2555  0.1253 -1.7281
  599MOL0     H80839   9.107   8.519   8.080  0.2324  0.4891  0.9813
  599MOL0     H80840   9.172   8.674   8.021 -1.1957  3.3268  1.5511
  599MOL0     H80841   9.012   8.646   8.278 -0.0165  0.7684 -0.3703
  599MOL0     H80842   9.117   8.785   8.233  0.2610 -0.6918  1.1505
  599MOL0     H80843   9.194   8.625   8.405 -1.3440  0.5058 -0.1977
  599MOL0     H80844   9.225   8.502   8.278 -1.3576 -0.4470 -0.2367
  599MOL0     H80845   8.328   8.887   7.966 -1.6798  1.6740 -0.2585
  599MOL0     H80846   8.105   8.807   7.915  0.2993  0.4442  0.1613
  599MOL0     H80847   7.878   8.510   7.586 -1.0368  0.2296 -1.8084
  599MOL0     H80848   7.667   8.384   7.541 -1.8184  0.4298 -0.1689
  599MOL0     H80849   5.829   7.612   7.610  0.4879  0.8320  0.3009
  599MOL0     H80850   5.662   7.533   7.455 -0.7223 -1.6288 -3.3593
  599MOL0     H80851   5.471   7.267   7.238 -0.9021 -2.4324 -0.4296
  599MOL0     H80852   5.277   7.162   7.141  2.2715 -0.5337  1.8348
  599MOL0     H80853   5.253   7.025   6.785 -0.1141  0.0205 -1.8456
  599MOL0     H80854   5.197   7.156   6.681 -1.6666 -2.7068 -0.2719
  599MOL0     H80855   4.980   7.148   6.736  0.3917  1.5187  2.0418
  599MOL0     H80856   5.002   7.035   6.874  1.0074 -1.8525  0.6219
  599MOL0     H80857   5.061   6.850   6.705 -0.6891 -1.6881 -3.3232
  599MOL0     H80858   5.018   6.955   6.571  1.1697  0.1999  0.1093
  599MOL0     H80859   4.841   6.816   6.598  2.9439 -0.8902  0.2796
  599MOL0     H80860   4.837   6.832   6.772  0.2271 -0.1441 -0.3308
  599MOL0     H80861   4.631   7.183   6.641  2.6370  0.6102 -0.2617
  599MOL0     H80862   5.407   7.252   6.747 -2.4578 -0.4716  0.2635
  599MOL0     H80863   5.737   7.315   6.798 -0.5104 -1.5042 -1.1095
  599MOL0     H80864   5.592   7.342   6.691 -1.2641 -4.1469  1.2408
  599MOL0     H80865   5.655   7.471   6.780  1.6939 -0.5952 -0.7308
  600MOL0     O80866   6.012   0.213   2.363 -0.3000 -0.2470 -0.2273
  600MOL0     C80867   5.976   0.163   2.256  0.3336  0.8571 -0.2494
  600MOL0     O80868   6.062   0.115   2.160  0.2030  0.2666 -0.5725
  600MOL0     C80869   6.196   0.136   2.186 -0.4302  1.0727  0.9501
  600MOL0     C80870   6.274   0.055   2.271  0.0584  0.0489  0.9471
  600MOL0     C80871   6.414   0.075   2.283 -0.1592 -0.1931  0.0966
  600MOL0     C80872   6.474   0.175   2.206  0.1839  0.5519 -1.0904
  600MOL0     O80873   6.609   0.205   2.215 -0.2749 -0.1145 -0.7279
  600MOL0     C80874   6.693   0.152   2.319 -0.3766 -0.4306 -0.4262
  600MOL0     C80875   6.833   0.223   2.295  0.3433  0.5129  0.1346
  600MOL0     C80876   6.935   0.182   2.407  0.7021  0.0049  0.5468
  600MOL0     C80877   7.065   0.256   2.393 -0.3371  0.1627  0.3919
  600MOL0     C80878   7.173   0.192   2.487  0.1202 -0.3973  0.0120
  600MOL0     C80879   7.314   0.238   2.437  0.5741  0.0628 -0.7388
  600MOL0     C80880   7.359   0.361   2.519 -0.5664  0.1332  0.0372
  600MOL0     C80881   7.506   0.400   2.508 -0.4594  0.4252  0.3809
  600MOL0     N80882   7.605   0.296   2.536 -0.5795  0.3462 -0.4270
  600MOL0     C80883   7.614   0.223   2.655  0.5918  0.1732  0.6446
  600MOL0     C80884   7.707   0.126   2.634  0.3110 -0.6524  0.1376
  600MOL0     C80885   7.740   0.017   2.725  0.5015 -0.4489  1.1227
  600MOL0     C80886   7.861  -0.057   2.676  1.1541 -0.3382  0.1448
  600MOL0     C80887   7.840  -0.138   2.556  0.4898  0.6356 -0.1505
  600MOL0     C80888   7.964  -0.181   2.493  0.5142  0.1278 -0.5588
  600MOL0     O80889   8.053  -0.260   2.571  0.1418  0.4354  0.5502
  600MOL0     C80890   8.181  -0.265   2.528 -0.8272  0.3425  0.5721
  600MOL0     C80891   8.224  -0.225   2.399  0.6616 -0.2827 -0.8522
  600MOL0     C80892   8.355  -0.228   2.366  0.2418 -0.5814  0.1585
  600MOL0     C80893   8.457  -0.277   2.441  0.4010  0.0075  0.1295
  600MOL0     C80894   8.597  -0.272   2.398  0.9112 -0.1226  0.3802
  600MOL0     O80895   8.691  -0.333   2.478  0.7759  0.1980  0.3795
  600MOL0     C80896   8.814  -0.332   2.416  0.3908 -1.1334  0.1670
  600MOL0     C80897   8.868  -0.459   2.392  0.3917 -0.3290  0.0263
  600MOL0     C80898   8.987  -0.469   2.324 -0.0016 -0.3549  0.1336
  600MOL0     C80899   9.067  -0.359   2.283  0.0588 -0.6521 -0.4204
  600MOL0     O80900   9.190  -0.387   2.238 -0.3698  0.0159  0.1643
  600MOL0     C80901   9.279  -0.270   2.228 -0.3411  0.4675  0.1150
  600MOL0     C80902   9.420  -0.341   2.193  0.4147  0.2380 -0.1209
  600MOL0     C80903   9.506  -0.224   2.142 -0.4079  0.1575 -0.1734
  600MOL0     C80904   9.625  -0.274   2.058  0.8007  0.1168 -0.2667
  600MOL0     C80905   9.696  -0.149   1.995 -0.1398 -0.1494  0.1490
  600MOL0     C80906   9.823  -0.193   1.920 -0.7421 -0.2574 -0.3400
  600MOL0     C80907   9.941  -0.210   2.013 -0.4843  0.2302 -0.2099
  600MOL0     C80908  10.074  -0.208   1.943 -1.0248 -0.4361  0.6979
  600MOL0    Cl80909  10.211  -0.211   2.060  0.1445  0.2179 -0.1131
  600MOL0     C80910   9.017  -0.224   2.314  0.8985  0.7421  1.5741
  600MOL0     C80911   8.890  -0.215   2.377 -0.7937  0.4571 -0.2350
  600MOL0     O80912   8.619  -0.202   2.293  0.8782  0.0972  0.2890
  600MOL0     C80913   8.416  -0.336   2.566 -0.4378  0.0384  0.2830
  600MOL0     C80914   8.281  -0.324   2.609  0.5214  0.3594 -0.5033
  600MOL0     N80915   7.753   0.146   2.502 -0.6821  0.4119 -0.5606
  600MOL0     N80916   7.681   0.242   2.447 -0.4305 -0.6861  0.1996
  600MOL0     C80917   6.400   0.260   2.129  0.1250  0.1104 -0.1076
  600MOL0     C80918   6.257   0.238   2.107 -0.0648  0.7888 -0.6282
  600MOL0     C80919   5.828   0.148   2.247  0.5549 -0.4995 -0.5084
  600MOL0     C80920   5.743   0.215   2.336 -0.1129 -0.8196 -0.2648
  600MOL0     C80921   5.606   0.228   2.316  0.9917 -0.2450 -0.5874
  600MOL0     C80922   5.546   0.171   2.209  0.1465  0.8148 -0.3950
  600MOL0     O80923   5.411   0.201   2.194  0.2524  0.0806 -0.7078
  600MOL0     C80924   5.340   0.135   2.086 -0.5976 -0.4789 -0.7645
  600MOL0     C80925   5.202   0.184   2.108  0.5196  0.5127 -0.1857
  600MOL0     C80926   5.116   0.090   2.191  0.5094  0.3276 -0.0336
  600MOL0     C80927   4.983   0.149   2.216 -0.3711  0.4848  0.3905
  600MOL0     C80928   4.899   0.069   2.312 -0.0624  0.1117  0.6787
  600MOL0     C80929   4.814   0.012   2.378 -0.5225 -0.0257  0.2361
  600MOL0     C80930   5.621   0.089   2.123 -0.3976 -0.5112  0.9161
  600MOL0     C80931   5.766   0.076   2.141 -1.0212  0.1707  0.0721
  600MOL0     C80932   5.836  -0.020   2.049 -0.6045  0.0533  0.7142
  600MOL0     H80933   6.227  -0.017   2.337  1.8045 -1.2503  0.8669
  600MOL0     H80934   6.464   0.003   2.347  0.0113 -0.0690  0.1007
  600MOL0     H80935   6.650   0.152   2.419  0.8620 -2.4675  0.1565
  600MOL0     H80936   6.714   0.049   2.289 -0.0161 -0.2425 -0.8222
  600MOL0     H80937   6.815   0.330   2.308  0.6972  0.2730  3.3205
  600MOL0     H80938   6.873   0.203   2.195 -0.3165  1.4081 -0.3259
  600MOL0     H80939   6.961   0.077   2.388  0.2546 -0.4389  2.2173
  600MOL0     H80940   6.897   0.179   2.510  3.7895 -2.3131  1.7790
  600MOL0     H80941   7.097   0.254   2.288 -0.7911  3.7504  0.0674
  600MOL0     H80942   7.055   0.360   2.425  2.0043  0.9869 -1.2668
  600MOL0     H80943   7.156   0.216   2.592 -2.7501  0.1764 -0.4913
  600MOL0     H80944   7.155   0.085   2.477 -1.2120 -0.2581  0.6427
  600MOL0     H80945   7.369   0.145   2.455  0.9372  0.3707 -0.2351
  600MOL0     H80946   7.309   0.259   2.330  0.2663  1.2721 -0.5070
  600MOL0     H80947   7.338   0.345   2.625 -2.0658  0.9842 -0.1056
  600MOL0     H80948   7.301   0.450   2.492 -1.8574 -0.5620  0.4699
  600MOL0     H80949   7.517   0.436   2.405 -1.3423  1.6002  0.6800
  600MOL0     H80950   7.528   0.487   2.570 -1.9276  0.4759  0.8669
  600MOL0     H80951   7.551   0.233   2.743 -1.3161 -3.4843 -0.0580
  600MOL0     H80952   7.764   0.057   2.824  3.6695  2.5966 -0.6538
  600MOL0     H80953   7.659  -0.056   2.738  0.1021  0.0575  1.5417
  600MOL0     H80954   7.942   0.011   2.645  1.1336 -1.2941 -2.1944
  600MOL0     H80955   7.897  -0.120   2.758 -0.7794 -0.2610  1.1124
  600MOL0     H80956   7.770  -0.099   2.482 -2.1705  0.7523  2.2100
  600MOL0     H80957   7.790  -0.229   2.592 -0.4724  0.9494 -0.6602
  600MOL0     H80958   8.026  -0.097   2.460  0.9341  0.8676  1.9216
  600MOL0     H80959   7.945  -0.250   2.411  3.9602 -0.1368 -1.2843
  600MOL0     H80960   8.161  -0.172   2.329 -0.1781  0.6007  0.5200
  600MOL0     H80961   8.388  -0.186   2.272  0.9358  0.5781  0.8960
  600MOL0     H80962   8.814  -0.552   2.404 -1.7996  0.9537  0.8575
  600MOL0     H80963   9.025  -0.569   2.302 -0.2824 -0.5538  0.5322
  600MOL0     H80964   9.248  -0.204   2.146 -0.1086 -1.2171 -1.4068
  600MOL0     H80965   9.291  -0.215   2.322 -0.4308  0.5956  0.0518
  600MOL0     H80966   9.462  -0.390   2.282 -0.4449 -2.3776 -1.0503
  600MOL0     H80967   9.411  -0.415   2.113 -2.2120 -0.2502  0.5256
  600MOL0     H80968   9.436  -0.167   2.080 -2.5590 -1.3069  0.7869
  600MOL0     H80969   9.545  -0.157   2.219 -0.6017 -0.4467  0.4679
  600MOL0     H80970   9.592  -0.347   1.984  1.2197 -2.1199  1.6331
  600MOL0     H80971   9.691  -0.323   2.130 -1.0671 -0.0696  1.4012
  600MOL0     H80972   9.725  -0.077   2.071 -0.9792  0.6781 -0.3045
  600MOL0     H80973   9.629  -0.100   1.924 -3.1483 -0.9720  2.2366
  600MOL0     H80974   9.814  -0.279   1.854 -0.0488 -0.8438  0.3072
  600MOL0     H80975   9.845  -0.108   1.854 -2.9764 -0.0899 -0.9409
  600MOL0     H80976   9.928  -0.308   2.060  0.6381  0.4295  0.5513
  600MOL0     H80977   9.937  -0.140   2.097 -0.1677 -3.0922  2.8042
  600MOL0     H80978  10.077  -0.296   1.878  1.5080  0.6001 -0.7295
  600MOL0     H80979  10.083  -0.123   1.875  2.0337 -2.6123 -1.9051
  600MOL0     H80980   9.069  -0.135   2.281  2.3135 -0.5347  0.1599
  600MOL0     H80981   8.850  -0.121   2.416 -0.5411 -1.1069  4.4334
  600MOL0     H80982   8.490  -0.374   2.635  0.0678 -4.4164 -2.3173
  600MOL0     H80983   8.242  -0.364   2.702 -0.7837  1.2484 -0.6358
  600MOL0     H80984   6.444   0.343   2.075 -1.0490  1.4058  0.8564
  600MOL0     H80985   6.195   0.304   2.047 -1.1430  1.6277  1.3385
  600MOL0     H80986   5.774   0.269   2.425 -0.9179 -3.2812  1.6195
  600MOL0     H80987   5.538   0.283   2.379  0.0262  0.6931 -2.3586
  600MOL0     H80988   5.343   0.026   2.089  1.1629 -0.4452  1.6275
  600MOL0     H80989   5.389   0.175   1.997 -3.0240 -0.4321 -2.1668
  600MOL0     H80990   5.155   0.196   2.010 -0.6532  1.9989  0.5303
  600MOL0     H80991   5.205   0.284   2.152  0.0048  0.2136  0.5409
  600MOL0     H80992   5.169   0.093   2.287 -1.6236  0.7392  1.2054
  600MOL0     H80993   5.101  -0.006   2.141 -0.5526  1.1501 -1.3667
  600MOL0     H80994   4.998   0.253   2.246  0.2929  0.3929  0.3972
  600MOL0     H80995   4.919   0.145   2.127  1.3693 -1.3760 -0.8605
  600MOL0     H80996   4.739  -0.042   2.432 -0.1043  1.7370  2.7612
  600MOL0     H80997   5.566   0.044   2.041  0.5301 -2.4472  1.2943
  600MOL0     H80998   5.755  -0.076   2.003 -0.7132 -1.0715  2.1873
  600MOL0     H80999   5.894   0.027   1.969 -0.1393 -0.8591  0.5005
  600MOL0     H81000   5.891  -0.080   2.123 -1.2520  0.0924  1.2351
  601MOL0     O81001   9.353   6.911   1.044 -0.2278  0.0696  0.2443
  601MOL0     C81002   9.271   6.837   1.102  0.6142  0.6607 -0.4157
  601MOL0     O81003   9.307   6.754   1.209  0.0577 -0.5867  0.2652
  601MOL0     C81004   9.428   6.775   1.264 -1.1371 -0.1789  0.3423
  601MOL0     C81005   9.533   6.686   1.226 -0.4107 -0.4148  0.0917
  601MOL0     C81006   9.656   6.707   1.284 -0.2318 -0.5561 -0.2533
  601MOL0     C81007   9.671   6.795   1.392  0.5693  0.1476  0.0606
  601MOL0     O81008   9.791   6.819   1.451  0.0339  0.0094  0.2489
  601MOL0     C81009   9.897   6.723   1.441 -0.3804 -0.8698 -0.7738
  601MOL0     C81010  10.022   6.767   1.515 -0.0738 -0.1100  0.2766
  601MOL0     C81011  10.110   6.646   1.539 -1.2016  0.0189 -0.1922
  601MOL0     C81012  10.216   6.680   1.641  0.6029  0.1553 -0.8889
  601MOL0     C81013  10.319   6.580   1.688 -0.1796 -0.7265  0.6118
  601MOL0     C81014  10.431   6.579   1.579  0.1402 -0.1935  0.4656
  601MOL0     C81015  10.549   6.504   1.634  0.4061 -0.4053  0.1414
  601MOL0     C81016  10.651   6.479   1.527  0.3565 -0.2762 -1.0063
  601MOL0     N81017  10.700   6.597   1.455 -0.0985  0.5087  0.8362
  601MOL0     C81018  10.756   6.710   1.511 -0.0867  0.8404  0.3492
  601MOL0     C81019  10.806   6.776   1.403 -0.3522 -0.4162  0.0912
  601MOL0     C81020  10.877   6.906   1.413  0.6627  0.2315  0.9562
  601MOL0     C81021  11.014   6.905   1.480 -0.3627  0.4591 -0.5666
  601MOL0     C81022  11.108   6.792   1.427  0.4375 -0.8517  0.5701
  601MOL0     C81023  11.246   6.805   1.491  1.0163 -0.0626 -0.7029
  601MOL0     O81024  11.227   6.772   1.625 -0.3265 -0.1763  0.3285
  601MOL0     C81025  11.325   6.788   1.716 -0.1437  0.3137 -0.2516
  601MOL0     C81026  11.427   6.888   1.707  0.0581 -0.4773  0.3613
  601MOL0     C81027  11.521   6.892   1.808  0.4265  0.3297 -0.0622
  601MOL0     C81028  11.530   6.796   1.906 -0.2398 -0.7408 -0.3624
  601MOL0     C81029  11.641   6.806   2.010 -0.0763 -0.6031 -0.2967
  601MOL0     O81030  11.727   6.913   1.991  0.6479  0.4997  1.0778
  601MOL0     C81031  11.832   6.939   2.078 -0.1273 -0.1880 -0.1263
  601MOL0     C81032  11.869   7.076   2.098  0.5825 -0.0514 -0.6380
  601MOL0     C81033  11.978   7.117   2.177  0.2082  0.1223  0.1630
  601MOL0     C81034  12.067   7.027   2.226 -0.2741 -0.8168 -0.5166
  601MOL0     O81035  12.186   7.059   2.288  0.0682 -0.4964 -0.1843
  601MOL0     C81036  12.289   7.099   2.194 -0.5562 -0.1309 -0.1191
  601MOL0     C81037  12.430   7.091   2.249  0.4484 -0.5420  0.1919
  601MOL0     C81038  12.485   6.957   2.307 -0.0823 -0.1426  0.4223
  601MOL0     C81039  12.635   6.959   2.337 -0.0176  0.4687 -0.1225
  601MOL0     C81040  12.710   6.825   2.319 -0.7434  0.1683  0.5365
  601MOL0     C81041  12.838   6.801   2.406 -0.1130 -0.3679  0.0507
  601MOL0     C81042  12.912   6.674   2.368 -0.6475  0.6459 -0.6628
  601MOL0     C81043  13.061   6.677   2.408 -0.2626  0.0344 -0.8739
  601MOL0    Cl81044  13.142   6.789   2.309 -0.0010  0.4162  0.2507
  601MOL0     C81045  12.042   6.890   2.205 -0.4332 -0.3075 -0.3287
  601MOL0     C81046  11.922   6.846   2.135  0.4702  0.3946 -1.3063
  601MOL0     O81047  11.641   6.733   2.109 -0.2164 -0.4332  0.4401
  601MOL0     C81048  11.432   6.700   1.913  0.2043  0.3476 -0.2507
  601MOL0     C81049  11.324   6.702   1.828 -0.1700 -0.0377  0.2686
  601MOL0     N81050  10.777   6.713   1.287  0.2305  0.2694 -0.1683
  601MOL0     N81051  10.715   6.606   1.323  0.0456  0.8450  0.4101
  601MOL0     C81052   9.568   6.882   1.426  0.0577  0.5389  0.7578
  601MOL0     C81053   9.446   6.871   1.363  0.8500  0.4452 -0.0004
  601MOL0     C81054   9.137   6.825   1.034  0.4710 -0.8047  0.5860
  601MOL0     C81055   9.041   6.743   1.106 -0.5983 -0.4295 -0.3380
  601MOL0     C81056   8.914   6.736   1.057  0.1558 -0.2700  0.3220
  601MOL0     C81057   8.887   6.787   0.925  0.8324 -0.2685  0.9655
  601MOL0     O81058   8.758   6.768   0.877 -0.4250 -0.1284  0.4140
  601MOL0     C81059   8.637   6.788   0.948 -0.3414  0.6793 -0.1876
  601MOL0     C81060   8.519   6.796   0.857  1.2197  0.4443 -0.2397
  601MOL0     C81061   8.523   6.930   0.776  0.4057 -0.1846 -0.4798
  601MOL0     C81062   8.412   6.921   0.660  1.0233 -0.6674 -0.5579
  601MOL0     C81063   8.281   6.958   0.719 -0.1451 -0.3374  0.2395
  601MOL0     C81064   8.171   6.983   0.762 -0.3877 -0.6036 -0.4203
  601MOL0     C81065   8.985   6.830   0.842 -0.3174 -0.2224 -0.0497
  601MOL0     C81066   9.113   6.865   0.892 -0.7826 -0.5473 -0.1020
  601MOL0     C81067   9.205   6.949   0.810 -0.3635  0.3062  0.4181
  601MOL0     H81068   9.532   6.623   1.137  3.9392  1.3172 -1.4467
  601MOL0     H81069   9.735   6.641   1.251  0.3106  0.5757 -1.2688
  601MOL0     H81070   9.868   6.626   1.483  0.8274 -1.2967 -0.8894
  601MOL0     H81071   9.932   6.709   1.338  2.5433 -0.2715  0.0591
  601MOL0     H81072   9.987   6.806   1.612 -1.1567 -2.6523  0.9919
  601MOL0     H81073  10.069   6.852   1.464  0.7346 -0.3753  0.5693
  601MOL0     H81074  10.165   6.615   1.449 -0.5126  2.5112 -0.7140
  601MOL0     H81075  10.053   6.568   1.589 -0.7121  0.7670  1.6126
  601MOL0     H81076  10.275   6.761   1.596  0.4704  1.6569  1.4601
  601MOL0     H81077  10.159   6.710   1.730  0.8289  1.5824 -1.2042
  601MOL0     H81078  10.365   6.624   1.777  0.3875  1.4572 -0.6682
  601MOL0     H81079  10.281   6.479   1.706 -0.3528 -1.3291 -2.4674
  601MOL0     H81080  10.394   6.526   1.491  0.7986 -0.8286  0.5675
  601MOL0     H81081  10.464   6.678   1.548  1.6974 -1.2410 -1.3891
  601MOL0     H81082  10.509   6.418   1.689 -0.0979  0.8433  1.7651
  601MOL0     H81083  10.599   6.565   1.709 -0.4695  0.8069 -0.2341
  601MOL0     H81084  10.734   6.424   1.572  0.2764 -0.4130 -1.0234
  601MOL0     H81085  10.603   6.400   1.468 -2.3060  0.9024 -0.5459
  601MOL0     H81086  10.765   6.733   1.617  1.5220 -2.2245  1.0127
  601MOL0     H81087  10.888   6.947   1.312 -2.2610  0.8627  0.8044
  601MOL0     H81088  10.817   6.983   1.462  0.4897  0.3434  0.5643
  601MOL0     H81089  11.064   7.002   1.470 -1.0780  0.8549 -0.3354
  601MOL0     H81090  11.005   6.878   1.586  0.8496  0.1699 -0.5234
  601MOL0     H81091  11.127   6.816   1.322  1.8980 -1.8294  0.5820
  601MOL0     H81092  11.074   6.690   1.446  0.4955 -1.2816 -1.3787
  601MOL0     H81093  11.282   6.908   1.496 -0.2478  0.3423  1.3764
  601MOL0     H81094  11.323   6.740   1.449  1.0192 -1.3855  1.2167
  601MOL0     H81095  11.423   6.980   1.650  3.2368 -0.8158 -0.5505
  601MOL0     H81096  11.585   6.979   1.823  0.4054  0.4101 -0.4369
  601MOL0     H81097  11.804   7.146   2.047 -2.1429 -2.2589 -0.4645
  601MOL0     H81098  11.992   7.224   2.192  1.2390  0.2405 -1.3737
  601MOL0     H81099  12.283   7.030   2.110 -1.0651 -1.0854  0.6676
  601MOL0     H81100  12.271   7.202   2.164  1.3563  0.4988  0.6872
  601MOL0     H81101  12.474   7.135   2.159 -1.5589  3.7301  1.0255
  601MOL0     H81102  12.437   7.169   2.325  0.2402 -0.6778  0.3515
  601MOL0     H81103  12.431   6.929   2.398 -0.4985 -0.1268  0.1850
  601MOL0     H81104  12.471   6.880   2.231  3.1464  0.0981 -0.5710
  601MOL0     H81105  12.640   6.988   2.443 -1.2773  0.4444 -0.0457
  601MOL0     H81106  12.688   7.034   2.277 -1.1581  0.2693 -1.4274
  601MOL0     H81107  12.746   6.814   2.216  0.1474  1.0772  0.7396
  601MOL0     H81108  12.642   6.740   2.336 -0.5921 -0.6347 -2.3595
  601MOL0     H81109  12.902   6.890   2.396 -0.0813 -0.3830  0.1192
  601MOL0     H81110  12.802   6.810   2.508  0.6907  5.5682  0.1572
  601MOL0     H81111  12.899   6.650   2.262  0.3269 -0.8961 -0.4666
  601MOL0     H81112  12.860   6.593   2.421  0.2157  0.1163 -0.5997
  601MOL0     H81113  13.055   6.714   2.511 -0.5775 -2.9609  0.2921
  601MOL0     H81114  13.109   6.578   2.410  0.7287  0.5086 -0.7753
  601MOL0     H81115  12.119   6.821   2.237 -0.2887  1.5149  3.8410
  601MOL0     H81116  11.901   6.740   2.128 -0.4286  0.3409  1.3608
  601MOL0     H81117  11.425   6.628   1.994 -2.3916 -1.1579 -1.6927
  601MOL0     H81118  11.258   6.619   1.848  0.6044 -0.3218  1.8260
  601MOL0     H81119   9.595   6.951   1.505  4.0712  0.2009 -0.1460
  601MOL0     H81120   9.358   6.928   1.392 -0.1129 -1.7486  1.7369
  601MOL0     H81121   9.053   6.709   1.209  0.3570 -0.9568 -0.6086
  601MOL0     H81122   8.848   6.665   1.106 -1.7955  0.3741 -1.2637
  601MOL0     H81123   8.637   6.880   1.007 -0.1550 -0.8609  2.3715
  601MOL0     H81124   8.609   6.712   1.022 -0.8392  0.7656 -0.2880
  601MOL0     H81125   8.431   6.806   0.921  1.5004  4.6246 -0.2114
  601MOL0     H81126   8.514   6.707   0.793  1.5008 -0.3329  0.7960
  601MOL0     H81127   8.623   6.947   0.735  0.4568  0.5864 -0.0694
  601MOL0     H81128   8.502   7.021   0.833 -2.4995  1.8265 -4.2806
  601MOL0     H81129   8.430   7.008   0.596  1.2844 -1.3244 -1.3905
  601MOL0     H81130   8.418   6.825   0.609 -2.8044 -0.3228 -1.9952
  601MOL0     H81131   8.079   7.030   0.787  1.3461  0.7990  4.4283
  601MOL0     H81132   8.966   6.861   0.740 -1.4693  2.8848  0.9809
  601MOL0     H81133   9.301   6.896   0.806 -0.8755 -0.6687  0.7261
  601MOL0     H81134   9.165   6.956   0.709 -0.6614  0.4170  0.5419
  601MOL0     H81135   9.216   7.055   0.838  0.4636  0.2031  0.5093
  602MOL0     O81136   8.536   0.624   5.913 -0.0426 -0.0933  0.5488
  602MOL0     C81137   8.522   0.497   5.906 -0.6005  0.2548 -0.1636
  602MOL0     O81138   8.616   0.406   5.944  0.1910  0.3650 -0.0321
  602MOL0     C81139   8.737   0.449   5.994  0.3398 -0.9987 -0.4660
  602MOL0     C81140   8.752   0.486   6.131 -0.5716  0.0661  0.1865
  602MOL0     C81141   8.882   0.532   6.167 -0.1203  0.7079 -0.2490
  602MOL0     C81142   8.985   0.540   6.076 -0.3908 -0.7742  0.0285
  602MOL0     O81143   9.101   0.590   6.114 -0.5349  0.0265  0.4867
  602MOL0     C81144   9.159   0.531   6.228  0.1115 -0.8727 -0.8963
  602MOL0     C81145   9.273   0.625   6.279  0.2968 -0.4980 -0.1943
  602MOL0     C81146   9.403   0.582   6.216 -0.2177  0.4011 -0.4071
  602MOL0     C81147   9.519   0.664   6.274  0.2089  0.3048 -0.1993
  602MOL0     C81148   9.655   0.624   6.220 -0.1971 -0.6461 -0.7500
  602MOL0     C81149   9.760   0.744   6.217 -0.3650  1.0922 -0.6783
  602MOL0     C81150   9.896   0.689   6.171 -0.8303 -0.4687  0.2802
  602MOL0     C81151  10.009   0.793   6.191  0.1037  0.8067  0.3714
  602MOL0     N81152  10.138   0.732   6.145 -0.4148 -0.2452  0.1180
  602MOL0     C81153  10.159   0.673   6.025 -0.2843 -0.4702 -0.0111
  602MOL0     C81154  10.295   0.665   6.008  0.5675 -0.8097  0.0026
  602MOL0     C81155  10.371   0.640   5.879  0.6171 -0.3051  0.0452
  602MOL0     C81156  10.474   0.757   5.859 -0.6624  0.5458  0.1631
  602MOL0     C81157  10.577   0.716   5.749  0.6437  0.6024 -0.5392
  602MOL0     C81158  10.673   0.828   5.715 -0.8210  1.2611 -0.3194
  602MOL0     O81159  10.760   0.781   5.611  0.6360 -0.2518  0.9246
  602MOL0     C81160  10.863   0.863   5.573 -0.5300 -0.5274 -0.6146
  602MOL0     C81161  10.957   0.810   5.480 -0.1300  0.5391 -0.2821
  602MOL0     C81162  11.071   0.872   5.448 -1.0248 -0.0597  0.4472
  602MOL0     C81163  11.099   0.997   5.500  0.4787  0.5549  0.2355
  602MOL0     C81164  11.215   1.080   5.456  0.6396 -0.1147 -0.5806
  602MOL0     O81165  11.290   1.030   5.353  0.4276 -0.3466  0.6154
  602MOL0     C81166  11.410   1.087   5.319  0.5301  0.4378  0.5792
  602MOL0     C81167  11.495   1.171   5.396  0.3825  0.9498  0.3741
  602MOL0     C81168  11.617   1.218   5.334 -0.2558 -0.3029  0.6672
  602MOL0     C81169  11.655   1.194   5.208  0.5480  0.5131  0.3431
  602MOL0     O81170  11.775   1.219   5.149 -0.6625 -0.6958 -0.1138
  602MOL0     C81171  11.822   1.355   5.160 -0.0910  0.0019 -1.5125
  602MOL0     C81172  11.918   1.385   5.049  0.0087 -0.4721 -0.2958
  602MOL0     C81173  12.000   1.507   5.089 -0.3931 -0.4184  0.6883
  602MOL0     C81174  12.130   1.471   5.154  0.3192  1.1305  0.2427
  602MOL0     C81175  12.209   1.584   5.195 -0.5891 -0.1592 -0.1110
  602MOL0     C81176  12.253   1.669   5.077 -0.4888  0.0668  0.3659
  602MOL0     C81177  12.378   1.761   5.089 -0.8501 -0.4800 -0.0453
  602MOL0     C81178  12.402   1.857   4.977 -0.7644  0.2435 -0.2266
  602MOL0    Cl81179  12.271   1.900   4.863  0.4919  0.1910  0.0105
  602MOL0     C81180  11.566   1.125   5.134  0.3223 -0.3405  0.1723
  602MOL0     C81181  11.450   1.071   5.189  0.5225 -0.5938  0.9068
  602MOL0     O81182  11.221   1.196   5.502  0.1245 -0.1633  0.0243
  602MOL0     C81183  11.012   1.055   5.602 -0.2700 -0.3300 -0.0285
  602MOL0     C81184  10.890   0.988   5.632 -0.0321  0.1716 -0.6741
  602MOL0     N81185  10.354   0.707   6.124  0.0736 -0.4698 -0.3963
  602MOL0     N81186  10.257   0.761   6.194 -0.4662 -0.5556 -0.3301
  602MOL0     C81187   8.959   0.507   5.944 -0.3898 -0.0561 -0.0989
  602MOL0     C81188   8.833   0.456   5.908 -0.0884 -0.3629  0.1609
  602MOL0     C81189   8.402   0.441   5.839 -0.1220  0.5207  0.4605
  602MOL0     C81190   8.397   0.312   5.786  0.4892 -1.0902  0.0536
  602MOL0     C81191   8.284   0.252   5.724  0.8856 -0.3973 -0.6569
  602MOL0     C81192   8.168   0.335   5.711 -0.3236 -1.0705 -0.1424
  602MOL0     O81193   8.049   0.281   5.666 -0.2578  0.1305  0.2424
  602MOL0     C81194   8.060   0.191   5.550  0.9222 -0.4319  0.2268
  602MOL0     C81195   7.935   0.174   5.462  0.3415  0.5689  0.2530
  602MOL0     C81196   7.907   0.301   5.384 -0.2908  0.4341  0.7603
  602MOL0     C81197   7.808   0.272   5.266  0.3202 -0.0712  0.1664
  602MOL0     C81198   7.693   0.197   5.299 -0.1341  0.4734 -0.1865
  602MOL0     C81199   7.598   0.123   5.329 -0.0757 -0.3632  0.5482
  602MOL0     C81200   8.173   0.474   5.750  0.0274 -0.2953  0.6793
  602MOL0     C81201   8.283   0.523   5.812 -0.2529 -0.6654 -0.6539
  602MOL0     C81202   8.257   0.659   5.889  0.3431  0.2016  0.7904
  602MOL0     H81203   8.666   0.466   6.195  0.3664 -3.9986  0.4745
  602MOL0     H81204   8.886   0.549   6.274 -2.3025 -0.0422 -0.0004
  602MOL0     H81205   9.086   0.510   6.307 -0.7456 -1.1085 -1.7255
  602MOL0     H81206   9.203   0.434   6.206  2.9208 -0.5434  2.4005
  602MOL0     H81207   9.282   0.601   6.386  0.4996  1.3335  0.2353
  602MOL0     H81208   9.245   0.730   6.269  2.8649  0.4434  1.4196
  602MOL0     H81209   9.398   0.599   6.108 -1.3275 -2.3060 -0.8653
  602MOL0     H81210   9.411   0.475   6.239  0.2588  0.6771  0.7994
  602MOL0     H81211   9.502   0.767   6.244 -0.2664 -0.4805 -2.8626
  602MOL0     H81212   9.524   0.663   6.384  3.1959 -1.1058 -0.2514
  602MOL0     H81213   9.690   0.541   6.281  0.2061  0.4867  0.6161
  602MOL0     H81214   9.648   0.592   6.115  0.0473 -1.1175 -0.6230
  602MOL0     H81215   9.727   0.826   6.153 -1.0217  1.3459 -0.0274
  602MOL0     H81216   9.780   0.772   6.321  2.6738 -0.8843 -0.5788
  602MOL0     H81217   9.887   0.665   6.064  0.1709  2.2229 -0.5016
  602MOL0     H81218   9.924   0.599   6.227  3.0978  1.5149  1.9184
  602MOL0     H81219   9.987   0.883   6.132  0.1731  1.6423  1.5812
  602MOL0     H81220  10.019   0.831   6.293  3.4640  0.5501  0.2512
  602MOL0     H81221  10.099   0.660   5.935  0.8916 -2.9903 -0.5075
  602MOL0     H81222  10.422   0.543   5.887  1.6534  0.3578  2.2380
  602MOL0     H81223  10.303   0.642   5.793  1.6362  1.4237 -0.7612
  602MOL0     H81224  10.428   0.852   5.831 -1.1060 -0.1378 -1.5796
  602MOL0     H81225  10.528   0.774   5.952 -1.0545  1.7472  0.1812
  602MOL0     H81226  10.516   0.691   5.662 -1.5556 -0.4527  1.1964
  602MOL0     H81227  10.624   0.625   5.788 -0.7122 -0.0496 -0.3604
  602MOL0     H81228  10.724   0.856   5.808 -0.9467 -1.1432  0.5491
  602MOL0     H81229  10.615   0.916   5.685  0.0274  0.9626 -3.0977
  602MOL0     H81230  10.930   0.717   5.431  0.4664 -0.2520  0.8290
  602MOL0     H81231  11.142   0.838   5.373 -0.2808 -1.0485  1.5707
  602MOL0     H81232  11.475   1.179   5.503  2.2527 -0.6555  0.9144
  602MOL0     H81233  11.681   1.271   5.405 -0.5784  0.0043  0.7316
  602MOL0     H81234  11.742   1.430   5.150 -1.2941 -1.0933 -0.4482
  602MOL0     H81235  11.856   1.362   5.264 -0.0804 -1.1797 -1.4317
  602MOL0     H81236  11.990   1.304   5.035 -0.9025 -1.0045 -2.1738
  602MOL0     H81237  11.867   1.406   4.954  4.1186 -0.0458 -2.6463
  602MOL0     H81238  12.030   1.551   4.994 -0.4922  0.1620  0.9192
  602MOL0     H81239  11.938   1.575   5.148 -2.2112  0.1721 -1.7616
  602MOL0     H81240  12.179   1.406   5.080  0.6224  1.1293  0.4452
  602MOL0     H81241  12.111   1.412   5.244 -0.4190 -0.6327 -0.9917
  602MOL0     H81242  12.304   1.558   5.243 -0.0284 -0.1883 -1.1967
  602MOL0     H81243  12.147   1.640   5.265 -0.4448 -1.6094  1.2349
  602MOL0     H81244  12.272   1.613   4.985 -0.8338 -0.5630  0.6677
  602MOL0     H81245  12.166   1.735   5.064 -1.1928 -0.7529  0.7694
  602MOL0     H81246  12.465   1.695   5.096  0.6742  1.4850  0.7824
  602MOL0     H81247  12.358   1.810   5.185  0.9352 -0.8302  0.5561
  602MOL0     H81248  12.449   1.946   5.021 -1.7364  1.0233 -0.7345
  602MOL0     H81249  12.485   1.816   4.917 -0.3089 -2.8748  2.2470
  602MOL0     H81250  11.582   1.102   5.029 -2.5301  0.4384 -0.5294
  602MOL0     H81251  11.380   1.012   5.130 -0.1472  2.3628 -1.5037
  602MOL0     H81252  11.030   1.152   5.647  0.1299 -2.0670  3.9129
  602MOL0     H81253  10.834   1.043   5.707  3.7713  1.0525  1.7936
  602MOL0     H81254   9.031   0.545   5.873 -0.1353  2.7621  1.5391
  602MOL0     H81255   8.807   0.437   5.804  0.7629 -1.8296  0.1867
  602MOL0     H81256   8.486   0.249   5.781  0.7395 -0.6887 -0.8145
  602MOL0     H81257   8.292   0.145   5.705  2.6459 -0.0103 -2.5356
  602MOL0     H81258   8.096   0.093   5.583  1.5170 -0.8080 -1.4608
  602MOL0     H81259   8.146   0.223   5.491  0.5651 -0.2033 -0.1769
  602MOL0     H81260   7.850   0.149   5.525  1.1096  1.5821  1.7541
  602MOL0     H81261   7.955   0.093   5.391  0.1851 -1.0794  2.0201
  602MOL0     H81262   7.996   0.346   5.340  0.8783 -1.3181  1.2559
  602MOL0     H81263   7.871   0.374   5.457  2.8707  1.1641  1.7214
  602MOL0     H81264   7.773   0.359   5.210 -0.1370 -0.7663 -0.6386
  602MOL0     H81265   7.854   0.196   5.203  1.5054 -1.5231  2.6098
  602MOL0     H81266   7.518   0.068   5.373 -1.5904  0.3855 -1.1277
  602MOL0     H81267   8.077   0.521   5.733  0.9356  0.2684 -4.4962
  602MOL0     H81268   8.252   0.649   5.998 -0.6670  1.0082  0.8303
  602MOL0     H81269   8.331   0.738   5.869 -0.7729  0.7591 -1.3536
  602MOL0     H81270   8.164   0.702   5.852  0.4167 -0.3587 -0.0694
  603MOL0     O81271   3.084   2.554   9.537 -0.3020 -0.2834 -0.3536
  603MOL0     C81272   3.000   2.484   9.598  0.4655  0.3326  0.1807
  603MOL0     O81273   3.010   2.437   9.721 -0.5275 -0.2670 -0.3296
  603MOL0     C81274   3.136   2.442   9.781 -0.2199 -0.3389 -0.2462
  603MOL0     C81275   3.258   2.402   9.727 -0.3719  1.2296  0.3577
  603MOL0     C81276   3.387   2.415   9.788  0.0024  0.0338 -0.4288
  603MOL0     C81277   3.394   2.479   9.912 -0.4043  0.3000 -0.1719
  603MOL0     O81278   3.517   2.481   9.978 -0.2646  0.1057 -0.2068
  603MOL0     C81279   3.531   2.572  10.088 -0.0378 -1.0581  0.2091
  603MOL0     C81280   3.668   2.571  10.154  0.0025  0.5819 -0.3632
  603MOL0     C81281   3.781   2.603  10.056  0.4771 -0.1451  0.2163
  603MOL0     C81282   3.904   2.656  10.128  0.1836 -0.1034  0.0359
  603MOL0     C81283   4.029   2.648  10.032 -0.1239  0.1342 -0.4087
  603MOL0     C81284   4.151   2.667  10.121  0.8768 -0.4094  0.2814
  603MOL0     C81285   4.291   2.660  10.057 -0.4144  0.2772  0.4055
  603MOL0     C81286   4.302   2.729   9.919 -0.5216  0.4080  0.3624
  603MOL0     N81287   4.434   2.739   9.865 -0.9814  1.2785  0.2886
  603MOL0     C81288   4.561   2.706   9.925  1.2290  0.8547  0.1346
  603MOL0     C81289   4.648   2.726   9.815 -0.0138 -1.1095 -0.0664
  603MOL0     C81290   4.796   2.713   9.835 -0.0959 -0.2543 -0.0546
  603MOL0     C81291   4.864   2.843   9.796  1.1395  0.0533 -0.1300
  603MOL0     C81292   5.017   2.829   9.799 -0.4258  0.2351 -0.3858
  603MOL0     C81293   5.088   2.957   9.732  0.0938  1.2817 -0.0151
  603MOL0     O81294   5.098   2.930   9.590  0.2303  0.4953 -1.0518
  603MOL0     C81295   5.212   2.985   9.532  0.2973  0.2570 -0.3364
  603MOL0     C81296   5.278   3.100   9.570 -0.1503 -1.1305 -0.1591
  603MOL0     C81297   5.404   3.130   9.515 -0.2492 -0.4055  0.0353
  603MOL0     C81298   5.459   3.054   9.403 -0.0828  0.3458 -0.5932
  603MOL0     C81299   5.585   3.104   9.338 -0.0883  0.0204  0.1182
  603MOL0     O81300   5.632   3.232   9.362  0.0143  0.2067 -0.0397
  603MOL0     C81301   5.754   3.282   9.309 -0.1239 -0.2007 -1.1434
  603MOL0     C81302   5.870   3.204   9.269 -0.1429  0.2754 -0.3279
  603MOL0     C81303   5.979   3.277   9.210  0.2705 -0.9469  0.1860
  603MOL0     C81304   5.980   3.419   9.198  0.0281  0.1337  1.0568
  603MOL0     O81305   6.096   3.492   9.173 -0.5702 -0.3725 -0.1013
  603MOL0     C81306   6.221   3.434   9.149 -0.8492  0.2368 -0.3690
  603MOL0     C81307   6.238   3.378   9.008  0.6452  0.2005  0.9502
  603MOL0     C81308   6.293   3.485   8.910  1.1746  0.3307  0.5011
  603MOL0     C81309   6.448   3.505   8.908  0.0947 -0.5451 -0.1344
  603MOL0     C81310   6.502   3.588   8.786 -0.1744  0.2662  0.0833
  603MOL0     C81311   6.657   3.579   8.801 -0.1480 -0.8359  0.2970
  603MOL0     C81312   6.737   3.659   8.689  0.4470  0.1132  0.3351
  603MOL0     C81313   6.892   3.696   8.721  1.2571  0.1558  0.6546
  603MOL0    Cl81314   6.981   3.557   8.784 -0.0855 -0.3330 -0.1869
  603MOL0     C81315   5.870   3.490   9.243 -0.6546 -0.2539  0.1224
  603MOL0     C81316   5.755   3.418   9.289 -0.0544 -0.0976 -0.0251
  603MOL0     O81317   5.628   3.026   9.252  0.2210 -0.5639  0.0041
  603MOL0     C81318   5.391   2.938   9.364  0.1183  0.1223 -0.5146
  603MOL0     C81319   5.263   2.914   9.420 -0.1251  0.1508  0.3898
  603MOL0     N81320   4.577   2.780   9.707  0.0330 -0.0283  0.2143
  603MOL0     N81321   4.456   2.789   9.741  0.5062  0.6940 -0.2660
  603MOL0     C81322   3.278   2.515   9.972 -0.3734 -0.0827  0.3320
  603MOL0     C81323   3.151   2.496   9.911  0.3855 -0.3761  0.1869
  603MOL0     C81324   2.866   2.449   9.532 -0.8505 -0.6456  0.0752
  603MOL0     C81325   2.844   2.503   9.401  0.1601  0.9509 -0.3474
  603MOL0     C81326   2.733   2.462   9.325  0.1920 -0.5072 -0.1027
  603MOL0     C81327   2.647   2.367   9.371  0.9360  1.2226 -0.8501
  603MOL0     O81328   2.546   2.323   9.295  0.0951 -0.0520  0.1928
  603MOL0     C81329   2.518   2.183   9.312 -0.2314  0.1881  0.5154
  603MOL0     C81330   2.489   2.132   9.178  0.7543  0.5746 -0.0845
  603MOL0     C81331   2.338   2.174   9.144  0.6400  0.1229 -0.1377
  603MOL0     C81332   2.286   2.084   9.036 -0.3144  0.4052  0.2403
  603MOL0     C81333   2.326   2.122   8.897 -0.4626 -0.1083 -0.7828
  603MOL0     C81334   2.357   2.134   8.783 -0.4752 -0.4881  0.4205
  603MOL0     C81335   2.672   2.309   9.497  0.5625  0.6917 -0.2367
  603MOL0     C81336   2.779   2.350   9.581  0.0923  0.0650 -0.4703
  603MOL0     C81337   2.792   2.275   9.715 -0.6404  0.0918 -0.2856
  603MOL0     H81338   3.253   2.358   9.628  0.9101  1.0612  0.3494
  603MOL0     H81339   3.476   2.381   9.735  1.4025  3.1035 -0.2594
  603MOL0     H81340   3.512   2.672  10.049 -2.4789 -2.0823 -1.5181
  603MOL0     H81341   3.453   2.557  10.163 -0.9289  2.0958  0.0603
  603MOL0     H81342   3.687   2.474  10.200 -1.5259  0.1939 -0.4835
  603MOL0     H81343   3.656   2.636  10.241  0.7874 -1.4899  1.3766
  603MOL0     H81344   3.748   2.687   9.993  0.6285 -2.1734 -2.7772
  603MOL0     H81345   3.810   2.518   9.993 -3.5479  0.7742 -3.3762
  603MOL0     H81346   3.890   2.760  10.160  0.6905 -0.0017 -0.0657
  603MOL0     H81347   3.913   2.598  10.220  1.3160  1.4113  0.9247
  603MOL0     H81348   4.034   2.550   9.982 -1.1630  0.2382 -0.7443
  603MOL0     H81349   4.018   2.727   9.957  2.0656  0.9082  0.0439
  603MOL0     H81350   4.150   2.765  10.170  2.6108  0.0256 -0.4528
  603MOL0     H81351   4.150   2.590  10.199  1.1700 -0.0170  0.6769
  603MOL0     H81352   4.330   2.558  10.054  0.2029  0.4848 -2.7160
  603MOL0     H81353   4.353   2.717  10.126 -1.3520  2.2642 -0.3231
  603MOL0     H81354   4.242   2.678   9.843  0.7735  0.5565 -0.8064
  603MOL0     H81355   4.267   2.831   9.936  0.5591  0.7512  0.6377
  603MOL0     H81356   4.579   2.660  10.021 -2.0202 -3.9173 -1.1280
  603MOL0     H81357   4.811   2.683   9.939 -1.6277 -0.2814  0.1811
  603MOL0     H81358   4.826   2.631   9.769  1.6007 -1.5027  2.1447
  603MOL0     H81359   4.840   2.875   9.694  0.1262  3.1942  0.9808
  603MOL0     H81360   4.828   2.923   9.861 -1.5209  0.1033 -1.5108
  603MOL0     H81361   5.049   2.739   9.746  0.9734  0.2312  0.4027
  603MOL0     H81362   5.052   2.829   9.903  0.4088  3.3274 -0.5543
  603MOL0     H81363   5.190   2.959   9.770  0.7668  0.7036 -1.7167
  603MOL0     H81364   5.029   3.046   9.755 -2.5647 -0.3015 -0.2286
  603MOL0     H81365   5.228   3.162   9.644 -2.1348 -1.9252 -0.7700
  603MOL0     H81366   5.452   3.224   9.541  2.3743 -1.7258  0.2769
  603MOL0     H81367   5.872   3.096   9.268  0.2408  0.2773  0.1608
  603MOL0     H81368   6.060   3.224   9.159  0.8466 -0.5557  0.6748
  603MOL0     H81369   6.297   3.513   9.158  1.3667 -1.9478  1.1263
  603MOL0     H81370   6.236   3.359   9.227  2.1314 -4.2170 -4.6435
  603MOL0     H81371   6.304   3.291   9.007 -0.4149 -0.6340  0.6286
  603MOL0     H81372   6.141   3.339   8.975  1.3265 -0.5152 -0.2877
  603MOL0     H81373   6.270   3.451   8.809  0.5347 -2.2246  1.4379
  603MOL0     H81374   6.245   3.581   8.929 -0.4740 -0.0782 -1.2845
  603MOL0     H81375   6.493   3.406   8.914 -1.9906 -1.5068  1.0746
  603MOL0     H81376   6.474   3.566   8.995 -2.2719  2.2062 -1.1802
  603MOL0     H81377   6.476   3.692   8.806  0.8000  0.6319 -0.4837
  603MOL0     H81378   6.457   3.557   8.692 -0.7176  0.9266  0.1143
  603MOL0     H81379   6.675   3.631   8.896  0.4193  4.0343 -2.1379
  603MOL0     H81380   6.681   3.473   8.806  0.0020 -0.8741 -0.9773
  603MOL0     H81381   6.679   3.751   8.672 -0.6661 -0.7137 -0.4833
  603MOL0     H81382   6.734   3.599   8.598  0.6938  1.3767 -0.5447
  603MOL0     H81383   6.919   3.735   8.623 -0.4858 -0.8907 -0.2900
  603MOL0     H81384   6.892   3.782   8.789 -2.9548 -0.4526  1.7405
  603MOL0     H81385   5.885   3.598   9.239  1.8922 -0.5447  0.5285
  603MOL0     H81386   5.668   3.481   9.306  1.1855  2.6506 -2.9024
  603MOL0     H81387   5.427   2.871   9.288 -0.2563 -0.9568  0.2263
  603MOL0     H81388   5.201   2.839   9.373 -0.0284  1.2688 -1.6487
  603MOL0     H81389   3.275   2.540  10.077 -0.2565 -0.4692  0.4291
  603MOL0     H81390   3.066   2.526   9.972  1.1379 -0.0257  1.0787
  603MOL0     H81391   2.911   2.584   9.370  0.8250  0.8905  0.8463
  603MOL0     H81392   2.721   2.502   9.224  4.0785 -0.7508 -0.8379
  603MOL0     H81393   2.435   2.164   9.380 -1.4005  1.0080 -0.6285
  603MOL0     H81394   2.607   2.127   9.343 -0.8372 -0.7284  0.6310
  603MOL0     H81395   2.496   2.023   9.179 -0.7280  0.4520  0.1677
  603MOL0     H81396   2.553   2.169   9.097 -0.3565  0.7681 -0.9073
  603MOL0     H81397   2.338   2.280   9.116 -0.4011  0.3301  0.5872
  603MOL0     H81398   2.278   2.152   9.233  2.0014 -1.6779  0.4092
  603MOL0     H81399   2.335   1.986   9.043  0.7106  0.8533 -0.3815
  603MOL0     H81400   2.182   2.059   9.056 -0.0435 -0.7351  0.3196
  603MOL0     H81401   2.401   2.145   8.686  1.8347  1.7407  1.6093
  603MOL0     H81402   2.605   2.235   9.538  0.9703 -0.1352 -1.0262
  603MOL0     H81403   2.882   2.212   9.723 -1.7808 -1.6148 -0.2590
  603MOL0     H81404   2.789   2.342   9.800 -4.4711  1.5687 -1.3804
  603MOL0     H81405   2.706   2.211   9.736 -2.4615  2.7262  0.7347
  604MOL0     O81406  11.078   1.813   9.671 -0.7161 -0.2693  0.5219
  604MOL0     C81407  11.086   1.830   9.791 -0.0054  0.3569  0.3712
  604MOL0     O81408  11.205   1.875   9.851  0.3169 -0.3835 -0.0791
  604MOL0     C81409  11.327   1.866   9.794 -0.3839  0.6844 -1.0156
  604MOL0     C81410  11.402   1.749   9.788  0.2680  0.5147 -0.5432
  604MOL0     C81411  11.522   1.751   9.722 -0.2659  1.0500  0.3627
  604MOL0     C81412  11.573   1.873   9.664  0.0218 -0.7614 -1.2629
  604MOL0     O81413  11.699   1.869   9.605  0.0436 -0.4748 -0.0881
  604MOL0     C81414  11.741   1.977   9.530 -1.2766 -0.0064  0.4115
  604MOL0     C81415  11.846   1.933   9.437  0.5011 -0.0112  0.3073
  604MOL0     C81416  11.878   2.045   9.342  0.5378 -0.6416 -0.4227
  604MOL0     C81417  11.976   2.024   9.225 -0.5178  0.0491  0.8312
  604MOL0     C81418  12.033   2.163   9.181  0.3167  0.0023 -0.5848
  604MOL0     C81419  12.152   2.150   9.086  0.4501 -0.1895 -0.1148
  604MOL0     C81420  12.190   2.292   9.034  0.0247 -0.3198  0.8762
  604MOL0     C81421  12.299   2.308   8.928 -0.2324  0.3145  0.1692
  604MOL0     N81422  12.436   2.269   8.971 -0.3201  0.7362  0.2670
  604MOL0     C81423  12.486   2.139   8.966  1.2432 -0.1891  0.0113
  604MOL0     C81424  12.602   2.145   9.039  1.1133  0.4080 -0.5124
  604MOL0     C81425  12.712   2.040   9.054  0.6157 -0.2087  0.1458
  604MOL0     C81426  12.686   1.932   9.170  0.6294 -0.7743  0.6808
  604MOL0     C81427  12.677   2.006   9.316  0.1731 -0.2397  0.2346
  604MOL0     C81428  12.809   2.012   9.385  0.2645  0.2499  0.3570
  604MOL0     O81429  12.799   2.035   9.529  0.2994 -0.2945 -0.1690
  604MOL0     C81430  12.918   2.039   9.596 -0.0515 -0.2230  0.5810
  604MOL0     C81431  13.051   2.036   9.551  0.1326  0.2086 -0.3623
  604MOL0     C81432  13.160   2.047   9.642 -0.4817  0.5163  0.4039
  604MOL0     C81433  13.130   2.047   9.776 -0.0568 -0.3715  0.4717
  604MOL0     C81434  13.250   2.052   9.869  0.4562  0.1285  0.9206
  604MOL0     O81435  13.229   2.080   9.998 -0.1525 -0.6019  0.0647
  604MOL0     C81436  13.333   2.069  10.084 -0.5606 -0.0924  0.2961
  604MOL0     C81437  13.423   2.174  10.097 -0.0460  0.7118 -0.1683
  604MOL0     C81438  13.537   2.164  10.177  0.0039  0.2535  0.9574
  604MOL0     C81439  13.560   2.054  10.253  1.0116 -0.0152 -0.3117
  604MOL0     O81440  13.659   2.047  10.351 -0.6178 -0.4698 -0.0536
  604MOL0     C81441  13.684   2.158  10.436 -0.0763  1.1135  0.0272
  604MOL0     C81442  13.791   2.110  10.541 -0.0630  0.4329  0.0285
  604MOL0     C81443  13.920   2.063  10.476 -0.2380 -1.0634 -0.1397
  604MOL0     C81444  14.042   2.074  10.564  0.2171 -0.5118 -0.0224
  604MOL0     C81445  14.151   1.979  10.511 -0.6291  0.1113  0.0579
  604MOL0     C81446  14.270   1.959  10.604  0.6806  0.2280 -0.0416
  604MOL0     C81447  14.380   1.863  10.554 -0.7516  0.0378 -0.4525
  604MOL0     C81448  14.502   1.857  10.649  0.9132 -0.0943  0.5221
  604MOL0    Cl81449  14.622   1.984  10.622  0.0982  0.3466  0.0935
  604MOL0     C81450  13.462   1.949  10.251  0.4140 -0.2332  0.3541
  604MOL0     C81451  13.352   1.961  10.171  0.0001 -0.0426  0.6371
  604MOL0     O81452  13.362   2.013   9.824 -0.1485 -0.1986 -0.6693
  604MOL0     C81453  13.000   2.054   9.829  0.6836  0.1718  0.2245
  604MOL0     C81454  12.897   2.055   9.733  0.3123 -0.2602  0.0107
  604MOL0     N81455  12.610   2.272   9.095 -0.1757  0.6901 -0.0121
  604MOL0     N81456  12.511   2.344   9.051 -0.2656 -0.6973 -0.5886
  604MOL0     C81457  11.504   1.998   9.687 -0.1069 -0.5812  0.1394
  604MOL0     C81458  11.380   1.988   9.750 -0.0823 -0.3839  1.0291
  604MOL0     C81459  10.980   1.807   9.881  0.3987  0.1485 -0.1702
  604MOL0     C81460  11.004   1.824  10.022  0.8007 -0.1797 -0.0909
  604MOL0     C81461  10.905   1.813  10.119 -0.6640  0.1259  0.2891
  604MOL0     C81462  10.771   1.775  10.078 -0.7910 -0.5006  0.4496
  604MOL0     O81463  10.674   1.758  10.176 -0.5438 -0.1902  0.1992
  604MOL0     C81464  10.539   1.740  10.139 -0.1419 -0.4090 -0.1005
  604MOL0     C81465  10.486   1.679  10.263  0.4441  0.2052  0.3262
  604MOL0     C81466  10.337   1.652  10.250 -0.9282  0.5473  1.0021
  604MOL0     C81467  10.308   1.528  10.160 -0.8664 -0.9791  0.6975
  604MOL0     C81468  10.171   1.483  10.173  0.6422 -0.1395  0.5024
  604MOL0     C81469  10.050   1.463  10.169  1.0193 -0.0486  0.2782
  604MOL0     C81470  10.744   1.746   9.946 -0.8583 -0.7476  0.4938
  604MOL0     C81471  10.845   1.765   9.849  0.0206 -0.5758  0.6308
  604MOL0     C81472  10.805   1.739   9.711  0.5552 -0.3519  0.4467
  604MOL0     H81473  11.375   1.654   9.833  0.0694  1.0107  0.4218
  604MOL0     H81474  11.567   1.654   9.703 -1.4951  1.0855 -3.7995
  604MOL0     H81475  11.658   2.024   9.477 -1.7638 -0.8694  0.4032
  604MOL0     H81476  11.786   2.057   9.590 -0.6090  0.4908 -0.7221
  604MOL0     H81477  11.802   1.853   9.377 -0.7554  0.3069  0.7687
  604MOL0     H81478  11.938   1.897   9.485  0.9744 -0.6148 -1.0251
  604MOL0     H81479  11.921   2.119   9.411 -0.8643  0.0881 -0.3035
  604MOL0     H81480  11.786   2.088   9.300 -1.1169 -3.0769  0.5229
  604MOL0     H81481  12.069   1.969   9.242  0.2809 -0.2278 -3.3138
  604MOL0     H81482  11.929   1.978   9.137 -0.1595  4.4640 -1.9992
  604MOL0     H81483  11.955   2.222   9.133 -0.7382 -1.7760 -1.1813
  604MOL0     H81484  12.075   2.214   9.268  1.2914 -0.1271 -0.9571
  604MOL0     H81485  12.239   2.098   9.128 -0.4698 -0.8201  1.0440
  604MOL0     H81486  12.123   2.083   9.004  1.8025 -0.0903 -0.7078
  604MOL0     H81487  12.228   2.350   9.119  0.0893  0.7584  0.1366
  604MOL0     H81488  12.101   2.337   8.990  1.3133  0.4328 -1.1256
  604MOL0     H81489  12.279   2.255   8.834 -1.5035  0.4967  0.3090
  604MOL0     H81490  12.301   2.415   8.908  0.0594  0.1751 -0.5757
  604MOL0     H81491  12.455   2.045   8.921  1.0283 -0.6752  1.1516
  604MOL0     H81492  12.719   1.985   8.960 -0.2842  2.3366 -1.5338
  604MOL0     H81493  12.808   2.088   9.073  0.5303  0.0490 -0.0586
  604MOL0     H81494  12.590   1.885   9.149 -0.2156 -0.2911  3.0806
  604MOL0     H81495  12.765   1.857   9.161  1.2320  0.0194 -1.1484
  604MOL0     H81496  12.596   1.952   9.366  0.2769  0.6073  1.3661
  604MOL0     H81497  12.635   2.105   9.300 -0.2138 -0.6296 -1.3148
  604MOL0     H81498  12.866   2.089   9.332  1.6684 -0.8756  0.2041
  604MOL0     H81499  12.867   1.920   9.379 -0.5573 -0.8842  5.1693
  604MOL0     H81500  13.068   2.015   9.446  2.4671 -4.5831  0.6601
  604MOL0     H81501  13.261   2.034   9.604 -1.3059  0.5629 -1.9963
  604MOL0     H81502  13.410   2.265  10.039  0.2897 -0.4780 -2.2266
  604MOL0     H81503  13.591   2.257  10.162 -1.2669  0.7932 -0.5464
  604MOL0     H81504  13.720   2.239  10.372  1.0423  0.5156 -0.1295
  604MOL0     H81505  13.598   2.189  10.496  0.5096 -0.2233  1.6583
  604MOL0     H81506  13.809   2.191  10.611 -0.0534  0.3742  0.0931
  604MOL0     H81507  13.742   2.034  10.602 -0.3031  1.0545  0.6177
  604MOL0     H81508  13.908   1.956  10.458  2.5327 -1.5540  0.3572
  604MOL0     H81509  13.938   2.104  10.376 -3.6739  0.9373 -0.0702
  604MOL0     H81510  14.020   2.042  10.666 -2.9695  1.0451 -0.0911
  604MOL0     H81511  14.075   2.178  10.565  1.0710 -0.7442 -1.1847
  604MOL0     H81512  14.190   2.021  10.418  1.0745 -0.1473  0.6226
  604MOL0     H81513  14.112   1.879  10.491 -2.5096  0.7059  0.4997
  604MOL0     H81514  14.312   2.057  10.627 -3.6547  2.5220 -1.0333
  604MOL0     H81515  14.234   1.916  10.698  0.1033 -0.5235 -0.5975
  604MOL0     H81516  14.420   1.884  10.454 -1.7927  0.5853 -0.7695
  604MOL0     H81517  14.343   1.761  10.559  1.2808 -0.8439 -2.1176
  604MOL0     H81518  14.472   1.859  10.755 -0.6530  1.2565  0.1015
  604MOL0     H81519  14.556   1.764  10.629 -0.0845 -0.6656  0.4033
  604MOL0     H81520  13.477   1.865  10.319  0.3081  0.9644  1.9353
  604MOL0     H81521  13.277   1.883  10.175  0.2312 -0.2295  1.5956
  604MOL0     H81522  12.974   2.080   9.931 -0.2009  0.2877 -0.0214
  604MOL0     H81523  12.800   2.078   9.777  0.2084 -3.3014  1.7153
  604MOL0     H81524  11.539   2.099   9.669 -1.8440  0.0182 -0.0157
  604MOL0     H81525  11.313   2.071   9.768 -2.9145 -2.4131  0.4748
  604MOL0     H81526  11.102   1.861  10.052 -0.4130  2.1869  1.1530
  604MOL0     H81527  10.929   1.838  10.221 -1.6193 -1.3266  0.9056
  604MOL0     H81528  10.536   1.662  10.062  1.0775 -0.5733 -0.0026
  604MOL0     H81529  10.491   1.832  10.104 -0.3638 -0.2744  0.5552
  604MOL0     H81530  10.498   1.746  10.348  0.6756 -0.5834  0.9277
  604MOL0     H81531  10.539   1.586  10.284  0.0449 -0.3143 -0.8455
  604MOL0     H81532  10.288   1.741  10.210 -1.5302  0.9237  2.5040
  604MOL0     H81533  10.294   1.636  10.350 -2.2425 -0.6350  0.2870
  604MOL0     H81534  10.331   1.556  10.057  1.3982 -2.3516  0.7444
  604MOL0     H81535  10.378   1.447  10.184  2.5529  0.3279 -3.5579
  604MOL0     H81536   9.944   1.462  10.153  1.2787  2.7650 -3.1590
  604MOL0     H81537  10.648   1.716   9.907 -2.4366  2.5673  1.4656
  604MOL0     H81538  10.698   1.718   9.703  0.4722  0.0220  0.5260
  604MOL0     H81539  10.839   1.823   9.650  4.5589  0.7929  3.7993
  604MOL0     H81540  10.846   1.653   9.657 -0.8957  0.7103 -2.5865
  605MOL0     O81541   0.205  10.262   1.272  1.2945 -0.4736 -0.3410
  605MOL0     C81542   0.154  10.182   1.353 -0.0342 -0.0337 -0.0900
  605MOL0     O81543   0.210  10.143   1.478  0.0826  0.5539  0.4824
  605MOL0     C81544   0.347  10.139   1.492  0.0228 -0.1676 -0.5018
  605MOL0     C81545   0.382  10.099   1.621  1.4586 -0.2916 -0.4257
  605MOL0     C81546   0.512  10.082   1.652  0.1116  0.6897  0.4860
  605MOL0     C81547   0.612  10.094   1.556 -0.3829  0.6301 -0.7891
  605MOL0     O81548   0.748  10.063   1.572  0.1646 -0.1306 -0.0407
  605MOL0     C81549   0.780   9.952   1.656  0.1700 -0.1794  0.1947
  605MOL0     C81550   0.922   9.914   1.631 -0.0081  0.4633  0.0361
  605MOL0     C81551   1.028  10.022   1.670 -0.0921  0.1470 -0.1608
  605MOL0     C81552   1.043  10.031   1.829 -0.8315  1.0000 -0.0025
  605MOL0     C81553   1.156  10.137   1.871  0.3956  0.8058  0.6321
  605MOL0     C81554   1.146  10.274   1.815  0.1578  0.2522  0.2103
  605MOL0     C81555   1.268  10.344   1.857 -0.0589 -0.4706 -0.5407
  605MOL0     C81556   1.255  10.495   1.834  0.1858 -0.0680  0.3032
  605MOL0     N81557   1.148  10.551   1.914 -0.1667  0.7898 -0.3376
  605MOL0     C81558   1.172  10.580   2.047 -0.8567  0.4678 -0.3178
  605MOL0     C81559   1.068  10.659   2.083  0.4548 -0.3648  0.0306
  605MOL0     C81560   1.027  10.714   2.221  0.4104  0.8366  0.6428
  605MOL0     C81561   1.144  10.788   2.292 -0.4196  0.0819 -0.1738
  605MOL0     C81562   1.158  10.933   2.234 -0.8692 -0.1742 -0.1272
  605MOL0     C81563   1.234  10.937   2.103 -1.0263  0.6103  0.6345
  605MOL0     O81564   1.342  10.839   2.087 -0.0147 -0.2648  0.5180
  605MOL0     C81565   1.456  10.861   2.168  0.9535  0.3260  0.0784
  605MOL0     C81566   1.541  10.744   2.192  0.5616  0.1809 -0.0201
  605MOL0     C81567   1.661  10.754   2.266  0.3801 -0.0516  0.1034
  605MOL0     C81568   1.695  10.881   2.326 -0.4471 -0.6612 -0.5264
  605MOL0     C81569   1.820  10.896   2.406  0.6638  0.3097  0.3710
  605MOL0     O81570   1.888  10.785   2.422  0.3925  1.0819 -0.1659
  605MOL0     C81571   2.002  10.788   2.500 -0.3472  0.1291 -0.4043
  605MOL0     C81572   1.998  10.749   2.635 -0.6568 -0.1062  0.1181
  605MOL0     C81573   2.116  10.754   2.721 -0.3305 -0.4551  0.3730
  605MOL0     C81574   2.235  10.803   2.669  0.3173  0.3849 -1.0666
  605MOL0     O81575   2.338  10.812   2.766  0.0423 -0.1808 -0.2809
  605MOL0     C81576   2.441  10.913   2.738 -0.3157 -0.1488  0.4746
  605MOL0     C81577   2.525  10.957   2.860 -1.0441 -0.2969  0.1882
  605MOL0     C81578   2.637  11.068   2.826  0.5113 -0.1804  0.1383
  605MOL0     C81579   2.737  11.074   2.938  0.0187 -0.1644  0.2900
  605MOL0     C81580   2.855  11.165   2.909  1.1930 -0.5946  0.6960
  605MOL0     C81581   2.964  11.139   3.009  0.5452 -0.2517 -0.2067
  605MOL0     C81582   3.089  11.205   2.952  0.6818 -0.3792  0.7538
  605MOL0     C81583   3.219  11.199   3.031 -0.1987  0.0339 -0.4464
  605MOL0    Cl81584   3.352  11.261   2.916  0.0601 -0.1462 -0.6285
  605MOL0     C81585   2.243  10.835   2.533  1.1912  1.0594  0.7252
  605MOL0     C81586   2.127  10.826   2.448 -0.4037  0.3309 -0.3024
  605MOL0     O81587   1.837  11.006   2.459  0.1387 -0.1621 -0.2552
  605MOL0     C81588   1.609  10.992   2.300  0.1276 -0.4555 -0.9830
  605MOL0     C81589   1.487  10.979   2.233 -0.7770 -0.1783 -0.1669
  605MOL0     N81590   0.986  10.673   1.968  0.1881  0.3052  0.7624
  605MOL0     N81591   1.043  10.613   1.867  0.0275 -0.2716 -0.4195
  605MOL0     C81592   0.580  10.139   1.429 -0.2426 -0.1396 -0.1125
  605MOL0     C81593   0.446  10.153   1.397 -0.6425  0.6488  0.2211
  605MOL0     C81594   0.012  10.139   1.324  0.7182 -0.0540  0.1871
  605MOL0     C81595  -0.018  10.001   1.331 -0.2253  0.0406 -0.0350
  605MOL0     C81596  -0.144   9.955   1.290 -0.4131  0.7640  0.1328
  605MOL0     C81597  -0.242  10.038   1.259  0.5151 -0.6357  0.2939
  605MOL0     O81598  -0.363   9.981   1.224 -0.1252 -0.5328 -0.6721
  605MOL0     C81599  -0.481  10.036   1.302  0.1531  0.7207  0.9674
  605MOL0     C81600  -0.578   9.929   1.326  0.2143 -0.4556 -0.5452
  605MOL0     C81601  -0.717   9.979   1.357 -0.2414 -0.1461 -0.1120
  605MOL0     C81602  -0.807   9.869   1.395  1.0058 -0.2563  0.0813
  605MOL0     C81603  -0.944   9.937   1.432 -0.2222 -0.0594  1.2503
  605MOL0     C81604  -1.056   9.971   1.459 -0.5323 -0.2284  0.4698
  605MOL0     C81605  -0.227  10.178   1.252  1.1389  0.1752  0.0309
  605MOL0     C81606  -0.094  10.227   1.276 -0.0195 -0.1688 -0.8576
  605MOL0     C81607  -0.081  10.369   1.242  0.1049  0.0203  1.1383
  605MOL0     H81608   0.300  10.079   1.688  0.9702  0.9017 -0.6427
  605MOL0     H81609   0.536  10.072   1.758 -0.8605  1.8874  0.8364
  605MOL0     H81610   0.781   9.979   1.762  2.8329  1.4403 -0.1300
  605MOL0     H81611   0.723   9.863   1.632 -0.7350  0.2288  0.8080
  605MOL0     H81612   0.944   9.878   1.530  0.5339 -1.1887  0.7238
  605MOL0     H81613   0.947   9.830   1.696 -1.3715  0.6429  0.8144
  605MOL0     H81614   0.996  10.121   1.637 -4.5030 -0.9765  0.1153
  605MOL0     H81615   1.128  10.004   1.630 -0.1744 -1.3746  0.2776
  605MOL0     H81616   0.946  10.056   1.873  0.2942  0.0198  3.3524
  605MOL0     H81617   1.080   9.931   1.853 -0.9544  0.8361 -0.4812
  605MOL0     H81618   1.171  10.135   1.979  2.6154  1.0612  0.3672
  605MOL0     H81619   1.250  10.102   1.828 -0.1532 -0.1917  0.2122
  605MOL0     H81620   1.151  10.267   1.706 -1.0679 -0.9627  0.2058
  605MOL0     H81621   1.046  10.307   1.844 -1.0126 -0.9414 -2.1784
  605MOL0     H81622   1.360  10.302   1.813 -0.5875 -3.8394  1.2156
  605MOL0     H81623   1.290  10.331   1.963  0.3992  1.3115 -0.3836
  605MOL0     H81624   1.344  10.538   1.880 -0.5786  1.5997  0.3043
  605MOL0     H81625   1.249  10.525   1.729 -0.6131 -0.0434  0.3488
  605MOL0     H81626   1.238  10.532   2.119  2.9978  0.5500 -3.5010
  605MOL0     H81627   0.938  10.777   2.216 -0.2510 -0.1949 -1.9267
  605MOL0     H81628   1.007  10.625   2.282  0.1469  0.4852  0.0528
  605MOL0     H81629   1.125  10.799   2.399  0.3409  0.9720 -0.1209
  605MOL0     H81630   1.237  10.733   2.280 -0.0958  0.9223 -1.7349
  605MOL0     H81631   1.202  10.998   2.309 -1.8855  2.6671 -1.8495
  605MOL0     H81632   1.058  10.974   2.215  0.0720  1.1650 -2.7076
  605MOL0     H81633   1.263  11.041   2.087  0.1380  0.6523  2.6874
  605MOL0     H81634   1.171  10.908   2.018  4.1795 -0.3667 -3.3769
  605MOL0     H81635   1.526  10.650   2.139 -0.7451  1.9107 -2.9785
  605MOL0     H81636   1.724  10.674   2.302  0.1572  0.2948  1.2928
  605MOL0     H81637   1.895  10.723   2.659 -1.2969  1.1301 -1.1928
  605MOL0     H81638   2.102  10.722   2.824  1.6345 -0.3679  0.7083
  605MOL0     H81639   2.515  10.886   2.662  1.6795 -0.7331  2.5278
  605MOL0     H81640   2.394  11.004   2.699 -1.8870 -1.2808 -0.3321
  605MOL0     H81641   2.461  11.001   2.937  0.4594 -0.5567  1.6408
  605MOL0     H81642   2.577  10.872   2.903  2.5168  1.8543  0.5110
  605MOL0     H81643   2.696  11.049   2.736 -1.3742 -0.6469 -1.0390
  605MOL0     H81644   2.586  11.165   2.819 -2.4139 -1.2960  3.3134
  605MOL0     H81645   2.778  10.974   2.957 -1.3442 -0.7320  0.3504
  605MOL0     H81646   2.688  11.109   3.029 -1.5244  1.5611 -1.1143
  605MOL0     H81647   2.822  11.269   2.910 -1.5227 -1.3497 -0.0130
  605MOL0     H81648   2.893  11.132   2.812 -0.1266 -0.9085  0.2623
  605MOL0     H81649   2.934  11.168   3.110  0.1720  1.1896 -0.7005
  605MOL0     H81650   2.980  11.031   3.013  0.9229 -0.1750  0.4136
  605MOL0     H81651   3.065  11.309   2.931  0.0415 -0.5996  0.3525
  605MOL0     H81652   3.108  11.149   2.860  0.5944 -0.0751  0.5491
  605MOL0     H81653   3.220  11.257   3.124  2.5712  0.5755 -0.7193
  605MOL0     H81654   3.244  11.095   3.052  1.1417 -0.5984 -4.3588
  605MOL0     H81655   2.332  10.885   2.493  0.5853  1.7660  0.2219
  605MOL0     H81656   2.143  10.860   2.346 -0.0265  0.1142 -0.3176
  605MOL0     H81657   1.625  11.085   2.354 -2.3690 -3.0650  5.1474
  605MOL0     H81658   1.433  11.073   2.224 -1.2197 -0.6275 -3.5219
  605MOL0     H81659   0.658  10.140   1.353 -1.2449 -3.1300 -1.3307
  605MOL0     H81660   0.415  10.175   1.295  1.2015  0.3561 -0.4254
  605MOL0     H81661   0.051   9.920   1.353  0.6366  0.4561 -1.0899
  605MOL0     H81662  -0.167   9.849   1.287  0.7722  0.5140 -1.5816
  605MOL0     H81663  -0.527  10.106   1.232  2.5229 -0.1018 -1.5944
  605MOL0     H81664  -0.457  10.092   1.393  1.2063  1.6768  0.1315
  605MOL0     H81665  -0.534   9.864   1.403  1.6434 -1.4286 -2.1161
  605MOL0     H81666  -0.570   9.872   1.233  2.2517 -1.0979 -0.0421
  605MOL0     H81667  -0.752  10.022   1.262 -0.6569 -2.7407 -1.2031
  605MOL0     H81668  -0.715  10.061   1.430  0.8374 -0.1302 -0.1437
  605MOL0     H81669  -0.817   9.785   1.325 -1.2281 -1.5670  1.7965
  605MOL0     H81670  -0.765   9.821   1.484  0.6826  0.4343  0.6165
  605MOL0     H81671  -1.153  10.005   1.487 -0.4345  1.7047 -1.2415
  605MOL0     H81672  -0.305  10.243   1.215  2.5172  0.8404 -1.8484
  605MOL0     H81673  -0.022  10.425   1.315  1.4447  1.8056 -1.2080
  605MOL0     H81674  -0.026  10.380   1.149 -0.1499  1.8243  1.1598
  605MOL0     H81675  -0.180  10.416   1.235  0.8310  1.3792 -0.5678
  606MOL0     O81676   1.699   1.516   3.484  0.3110  0.2652 -0.1140
  606MOL0     C81677   1.658   1.583   3.572  0.9585 -1.0607 -0.2988
  606MOL0     O81678   1.724   1.618   3.684  0.0268 -0.1156  0.2167
  606MOL0     C81679   1.836   1.542   3.707 -0.1408  0.0093  0.4464
  606MOL0     C81680   1.838   1.402   3.722  0.3741  0.2677  0.3833
  606MOL0     C81681   1.948   1.330   3.766 -0.0031  0.5555 -0.2371
  606MOL0     C81682   2.065   1.406   3.801 -0.4531  0.8756 -0.0092
  606MOL0     O81683   2.174   1.335   3.854  0.4141 -0.8843  0.4011
  606MOL0     C81684   2.280   1.402   3.925  0.6829  0.2986 -0.0602
  606MOL0     C81685   2.360   1.305   3.998 -0.1903  0.2708 -0.4272
  606MOL0     C81686   2.486   1.377   4.067 -0.2494 -0.5483 -0.5011
  606MOL0     C81687   2.614   1.396   3.975  0.4710 -0.0424 -0.2183
  606MOL0     C81688   2.753   1.403   4.055 -0.6047  0.6652 -0.4077
  606MOL0     C81689   2.873   1.464   3.969 -0.4239  0.2718  0.5987
  606MOL0     C81690   3.015   1.430   4.017  0.6417 -0.4128 -0.1972
  606MOL0     C81691   3.062   1.294   3.994  0.3245  0.2201  0.7127
  606MOL0     N81692   3.212   1.289   3.981 -0.3404 -0.4640  0.1760
  606MOL0     C81693   3.282   1.256   3.868 -0.7151 -1.4826  0.1583
  606MOL0     C81694   3.415   1.253   3.901  0.1992  0.4308 -0.0632
  606MOL0     C81695   3.517   1.197   3.812 -0.6096 -0.0821  0.3108
  606MOL0     C81696   3.647   1.266   3.837 -0.1628 -0.8555 -0.8043
  606MOL0     C81697   3.719   1.261   3.704  0.0391  1.0686 -0.0750
  606MOL0     C81698   3.858   1.327   3.715 -0.2640  0.5485 -0.2419
  606MOL0     O81699   3.941   1.294   3.606  0.6990  0.2259  0.0704
  606MOL0     C81700   4.073   1.345   3.612 -0.0605 -0.0595  0.7203
  606MOL0     C81701   4.133   1.405   3.718  1.1003  0.6852 -1.6360
  606MOL0     C81702   4.260   1.456   3.724 -0.0777 -0.6418 -0.1798
  606MOL0     C81703   4.341   1.434   3.614 -0.4607 -0.1932 -0.6140
  606MOL0     C81704   4.486   1.461   3.616  0.1564 -1.1318 -0.1190
  606MOL0     O81705   4.536   1.512   3.730  0.0605  0.6796 -0.3102
  606MOL0     C81706   4.664   1.564   3.731 -0.0622 -0.0914 -0.4806
  606MOL0     C81707   4.744   1.525   3.833 -0.2718  0.2396 -0.1566
  606MOL0     C81708   4.870   1.586   3.850 -0.2812  0.8564 -0.2508
  606MOL0     C81709   4.923   1.680   3.761  0.9358 -0.5916  0.1013
  606MOL0     O81710   5.040   1.746   3.766 -0.1853  0.1008 -0.2980
  606MOL0     C81711   5.150   1.671   3.813 -0.3343 -0.0845  0.8280
  606MOL0     C81712   5.285   1.749   3.785 -0.7270  0.3010 -0.3200
  606MOL0     C81713   5.392   1.703   3.883  0.4569 -0.1054  0.0767
  606MOL0     C81714   5.531   1.738   3.835 -0.3611  0.4605 -0.1646
  606MOL0     C81715   5.639   1.730   3.947  0.5102  0.6435  0.6287
  606MOL0     C81716   5.782   1.742   3.896  0.6904  0.2037 -0.2337
  606MOL0     C81717   5.884   1.753   4.006 -0.0857  0.7229  0.0834
  606MOL0     C81718   6.017   1.809   3.947  0.4824 -0.6346  0.2945
  606MOL0    Cl81719   6.148   1.787   4.072 -0.1669  0.4356 -0.0635
  606MOL0     C81720   4.831   1.729   3.658  0.1008 -0.1102  0.5916
  606MOL0     C81721   4.706   1.668   3.645 -0.1576  0.6112 -0.1321
  606MOL0     O81722   4.555   1.436   3.514  0.2092 -0.3944 -0.4353
  606MOL0     C81723   4.286   1.379   3.501 -0.4585 -0.7299 -0.3670
  606MOL0     C81724   4.154   1.342   3.494  0.6732 -0.4286 -0.2362
  606MOL0     N81725   3.422   1.279   4.038  0.0077 -0.2856 -0.1230
  606MOL0     N81726   3.296   1.294   4.083 -0.3888 -0.3801 -0.3549
  606MOL0     C81727   2.069   1.546   3.771  0.5558  0.1273 -0.5684
  606MOL0     C81728   1.951   1.614   3.730  0.1583 -0.3510  0.2141
  606MOL0     C81729   1.530   1.648   3.554 -0.1980 -0.2367 -0.1975
  606MOL0     C81730   1.471   1.675   3.428 -0.2017 -0.4485  0.0349
  606MOL0     C81731   1.359   1.758   3.411 -0.1187 -0.1073  1.0558
  606MOL0     C81732   1.289   1.802   3.520  0.3517 -0.2002 -0.0202
  606MOL0     O81733   1.168   1.873   3.525 -0.3828  0.3866 -0.4113
  606MOL0     C81734   1.093   1.891   3.401 -0.2595 -0.2743 -0.4082
  606MOL0     C81735   1.138   2.006   3.308  0.1098  0.0301 -0.1372
  606MOL0     C81736   1.154   2.137   3.391  0.0585  0.5330 -0.4300
  606MOL0     C81737   1.151   2.263   3.319  0.1335  0.1676 -0.2663
  606MOL0     C81738   1.245   2.275   3.207  0.4326 -0.0952 -0.2647
  606MOL0     C81739   1.323   2.271   3.116  0.2266  0.1236 -0.5544
  606MOL0     C81740   1.334   1.765   3.648  0.9911 -1.1590  0.5500
  606MOL0     C81741   1.457   1.697   3.668  0.0756  0.4543  0.0891
  606MOL0     C81742   1.488   1.651   3.813  0.3514 -0.1841  0.1764
  606MOL0     H81743   1.743   1.349   3.711 -0.3287  0.9405  2.6484
  606MOL0     H81744   1.950   1.222   3.776 -2.5588  0.3588 -1.3227
  606MOL0     H81745   2.344   1.450   3.851 -0.2669 -0.0128 -1.1249
  606MOL0     H81746   2.243   1.481   3.991 -2.6083 -0.4310 -0.8326
  606MOL0     H81747   2.400   1.233   3.926  3.1091  0.0764  1.4231
  606MOL0     H81748   2.295   1.250   4.066 -0.2418  0.8403 -0.0024
  606MOL0     H81749   2.505   1.329   4.164  0.0551 -1.2129 -0.8831
  606MOL0     H81750   2.449   1.474   4.102 -2.3241 -1.3010 -0.4847
  606MOL0     H81751   2.620   1.314   3.903  0.5674  1.3105 -1.8041
  606MOL0     H81752   2.605   1.495   3.929  1.1866 -0.1934 -0.6865
  606MOL0     H81753   2.750   1.464   4.146  1.0797 -2.3275  1.8676
  606MOL0     H81754   2.775   1.300   4.084 -1.9823  0.9137  1.7594
  606MOL0     H81755   2.854   1.432   3.866 -0.0424 -1.5585  1.0570
  606MOL0     H81756   2.862   1.573   3.979 -0.5484  0.2065  1.1956
  606MOL0     H81757   3.022   1.453   4.124  1.2203  1.4402 -0.5896
  606MOL0     H81758   3.079   1.510   3.978 -1.9354  2.5045  1.1078
  606MOL0     H81759   3.036   1.225   4.075  0.5868  2.9504  3.2635
  606MOL0     H81760   3.013   1.250   3.906 -1.6778  2.0704  0.8115
  606MOL0     H81761   3.240   1.228   3.772  0.4870 -0.9182 -0.5514
  606MOL0     H81762   3.529   1.093   3.841 -2.9820 -0.1458  1.2652
  606MOL0     H81763   3.480   1.202   3.709  1.5275  2.7121 -0.4287
  606MOL0     H81764   3.641   1.374   3.855  0.8574 -0.8194 -0.5941
  606MOL0     H81765   3.704   1.234   3.925  0.8833  0.1473 -1.0919
  606MOL0     H81766   3.660   1.316   3.630  0.3799 -1.3114 -2.2271
  606MOL0     H81767   3.735   1.156   3.678  0.2905  0.8084  1.0775
  606MOL0     H81768   3.909   1.284   3.802 -0.4594 -1.6962 -1.1502
  606MOL0     H81769   3.849   1.436   3.714  1.5984  0.7676  1.4559
  606MOL0     H81770   4.097   1.389   3.819  3.1243 -3.8070 -1.3535
  606MOL0     H81771   4.296   1.513   3.809 -0.3761  2.4044 -1.9354
  606MOL0     H81772   4.716   1.443   3.897 -1.5717 -0.6164 -1.7463
  606MOL0     H81773   4.936   1.561   3.933 -2.4273  1.3454  1.6932
  606MOL0     H81774   5.128   1.662   3.920 -3.3156 -3.0275  0.1611
  606MOL0     H81775   5.144   1.573   3.763  1.7051 -0.8927  2.0637
  606MOL0     H81776   5.319   1.736   3.682  1.7320 -0.8847  0.5664
  606MOL0     H81777   5.270   1.857   3.795  3.7740  1.0434  0.7172
  606MOL0     H81778   5.369   1.742   3.983 -4.0310  0.6759 -1.0548
  606MOL0     H81779   5.386   1.594   3.886 -1.1461 -0.0635 -0.7683
  606MOL0     H81780   5.524   1.842   3.800 -2.9548  1.6222  3.2647
  606MOL0     H81781   5.551   1.668   3.753 -2.2275 -0.8089  0.4119
  606MOL0     H81782   5.618   1.631   3.990 -1.9347  0.7703 -0.1711
  606MOL0     H81783   5.607   1.806   4.018 -0.3154  2.9310 -2.0041
  606MOL0     H81784   5.805   1.653   3.837  1.2238 -1.3352  2.1873
  606MOL0     H81785   5.793   1.830   3.831 -2.7129  0.9370 -0.0103
  606MOL0     H81786   5.908   1.657   4.051  0.0075  1.7872  2.4584
  606MOL0     H81787   5.856   1.829   4.080  2.2889 -1.0505  3.0004
  606MOL0     H81788   6.042   1.749   3.859 -1.1861 -2.1894  0.8129
  606MOL0     H81789   6.001   1.915   3.921 -1.1911 -0.8451  0.3159
  606MOL0     H81790   4.874   1.809   3.599  1.8888  0.5200  2.6238
  606MOL0     H81791   4.635   1.697   3.569 -1.8102  2.0322  1.8716
  606MOL0     H81792   4.343   1.385   3.409  2.0325  1.2837  1.1396
  606MOL0     H81793   4.102   1.317   3.403  1.7650 -2.3013 -0.4004
  606MOL0     H81794   2.162   1.598   3.790  2.5988 -2.4100 -2.7885
  606MOL0     H81795   1.966   1.718   3.705  3.4234 -0.6433  0.5450
  606MOL0     H81796   1.521   1.638   3.338  1.3131 -0.1179  0.7031
  606MOL0     H81797   1.323   1.777   3.310 -3.4388 -2.1293  1.7054
  606MOL0     H81798   0.985   1.893   3.419 -0.4781 -0.7077 -1.5730
  606MOL0     H81799   1.109   1.797   3.347  1.4544 -1.4795  2.0260
  606MOL0     H81800   1.066   2.017   3.227 -1.0172 -1.5365  0.5976
  606MOL0     H81801   1.236   1.992   3.262  1.1124  4.1284  0.3792
  606MOL0     H81802   1.252   2.127   3.439  1.9716  3.7246 -3.2253
  606MOL0     H81803   1.074   2.155   3.464  1.7984 -0.1497  1.7726
  606MOL0     H81804   1.048   2.283   3.290 -0.0687  0.0577  0.3595
  606MOL0     H81805   1.176   2.343   3.390  0.9190 -1.1833  1.0458
  606MOL0     H81806   1.385   2.278   3.030 -1.6827  3.2482 -1.8625
  606MOL0     H81807   1.275   1.803   3.731 -0.0357 -0.3260 -0.5333
  606MOL0     H81808   1.503   1.543   3.820 -2.1629 -0.4682  3.8177
  606MOL0     H81809   1.577   1.695   3.860  1.0911 -0.3353 -1.0585
  606MOL0     H81810   1.401   1.675   3.875 -0.2511  1.3340 -1.1978
  607MOL0     O81811   4.541   1.796  10.351  1.1386 -0.2616 -0.0476
  607MOL0     C81812   4.573   1.811  10.467  0.2412 -0.2048 -0.1088
  607MOL0     O81813   4.668   1.896  10.511 -0.0426 -0.2481 -0.0743
  607MOL0     C81814   4.756   1.962  10.427 -0.1925 -0.0139  0.2802
  607MOL0     C81815   4.783   2.097  10.449  0.3717  0.1968  0.3864
  607MOL0     C81816   4.866   2.166  10.372  0.2156 -0.5021 -0.1478
  607MOL0     C81817   4.936   2.105  10.272  0.0965  0.1882 -0.4929
  607MOL0     O81818   5.039   2.173  10.213  0.1992  0.2840  0.3576
  607MOL0     C81819   5.182   2.129  10.216  0.1365  0.3064  0.4418
  607MOL0     C81820   5.269   2.241  10.181  0.4563 -0.0163 -0.5056
  607MOL0     C81821   5.404   2.185  10.156  0.9913 -0.2978 -0.1894
  607MOL0     C81822   5.510   2.290  10.145 -0.2698 -0.0149  0.2438
  607MOL0     C81823   5.642   2.221  10.094  0.0851  0.1701 -0.0155
  607MOL0     C81824   5.773   2.306  10.089  0.0832 -0.3934  0.1156
  607MOL0     C81825   5.900   2.223  10.107  0.0666 -0.0431 -0.1753
  607MOL0     C81826   5.952   2.138   9.995 -0.6107 -0.0270 -0.2409
  607MOL0     N81827   6.096   2.097  10.003 -0.5584 -0.0258  0.4675
  607MOL0     C81828   6.182   2.098   9.898 -0.6125 -0.2045  0.2594
  607MOL0     C81829   6.292   2.043   9.939  0.5236  0.3824 -0.4210
  607MOL0     C81830   6.416   2.019   9.863  0.0310 -0.8256 -0.1762
  607MOL0     C81831   6.537   2.108   9.908  0.6301  0.4219 -0.9156
  607MOL0     C81832   6.660   2.096   9.815  0.3424  0.3133  0.5924
  607MOL0     C81833   6.790   2.133   9.892 -0.3197 -0.2821  0.4752
  607MOL0     O81834   6.860   2.011   9.937 -0.3822 -0.1826 -0.0304
  607MOL0     C81835   6.995   2.017   9.934  0.4095  0.3232 -1.4494
  607MOL0     C81836   7.069   2.135   9.960  0.0228 -0.1717  1.1514
  607MOL0     C81837   7.205   2.127   9.981  0.0933  0.2937  0.0749
  607MOL0     C81838   7.274   2.008   9.987 -0.6646 -0.4067  0.8365
  607MOL0     C81839   7.413   2.003  10.027 -0.3324  0.1842  0.0784
  607MOL0     O81840   7.468   2.118  10.063  0.6161  1.0125  0.1862
  607MOL0     C81841   7.593   2.108  10.124 -0.3700 -0.0916 -0.8590
  607MOL0     C81842   7.710   2.142  10.059  0.0789 -0.0045 -0.1778
  607MOL0     C81843   7.835   2.130  10.132  0.0542  0.1108  0.1008
  607MOL0     C81844   7.836   2.099  10.270 -0.2520  0.3435 -0.9043
  607MOL0     O81845   7.957   2.102  10.336  0.6989  0.0776  0.1388
  607MOL0     C81846   7.958   2.096  10.480 -0.0585  0.3576  0.0623
  607MOL0     C81847   8.095   2.130  10.535  0.1087  0.0465  1.1121
  607MOL0     C81848   8.156   2.265  10.497 -0.0235  0.1551  0.1116
  607MOL0     C81849   8.307   2.261  10.500  0.2549  0.8967  0.1210
  607MOL0     C81850   8.364   2.401  10.503 -0.3343 -0.4601 -0.1046
  607MOL0     C81851   8.516   2.411  10.519 -0.3408  0.7227  0.2221
  607MOL0     C81852   8.567   2.372  10.658 -0.0806 -0.2728  0.2727
  607MOL0     C81853   8.718   2.339  10.666  0.3114  0.9338 -0.3487
  607MOL0    Cl81854   8.785   2.312  10.836 -0.1861 -0.1035 -0.3198
  607MOL0     C81855   7.715   2.066  10.331  0.0397 -0.0525 -0.0586
  607MOL0     C81856   7.595   2.074  10.262  0.3131 -0.3130  0.1008
  607MOL0     O81857   7.470   1.894  10.035  0.0581 -0.2987  0.9262
  607MOL0     C81858   7.200   1.889   9.967  0.0486  0.2741  0.3556
  607MOL0     C81859   7.061   1.894   9.949 -1.1938  0.7119 -0.1275
  607MOL0     N81860   6.275   1.995  10.064 -0.1454 -0.6869 -0.2647
  607MOL0     N81861   6.163   2.039  10.101  1.3578  0.6298 -0.3336
  607MOL0     C81862   4.903   1.975  10.236 -0.4089 -0.6752  0.0721
  607MOL0     C81863   4.813   1.902  10.316  0.3400 -0.8091 -1.1016
  607MOL0     C81864   4.545   1.697  10.560  0.3729  0.2111  0.7354
  607MOL0     C81865   4.646   1.654  10.647  0.5502 -0.4500 -0.7492
  607MOL0     C81866   4.612   1.564  10.750  0.0349 -0.8157  0.8297
  607MOL0     C81867   4.485   1.509  10.762 -0.0919 -0.4939 -0.1193
  607MOL0     O81868   4.472   1.438  10.880  1.0662 -0.0989 -0.0217
  607MOL0     C81869   4.417   1.307  10.854  0.1193 -0.0200  0.3764
  607MOL0     C81870   4.343   1.251  10.982  0.1502 -1.0139  0.0596
  607MOL0     C81871   4.447   1.214  11.081  0.0267 -0.3058 -0.9054
  607MOL0     C81872   4.394   1.157  11.215  0.2429 -0.3550  0.2901
  607MOL0     C81873   4.314   1.256  11.280 -0.4553 -0.1549 -0.1418
  607MOL0     C81874   4.255   1.344  11.342  0.0122 -0.5229 -0.2460
  607MOL0     C81875   4.386   1.539  10.665 -0.4127  0.4427 -0.4326
  607MOL0     C81876   4.412   1.637  10.572 -0.1153 -0.1005 -0.0942
  607MOL0     C81877   4.296   1.689  10.493  0.1346 -1.0358 -0.4837
  607MOL0     H81878   4.736   2.152  10.529 -1.6316  1.8049 -1.7362
  607MOL0     H81879   4.898   2.264  10.406  1.7049 -1.5949  1.8500
  607MOL0     H81880   5.217   2.085  10.310  2.0745  0.8696  0.0215
  607MOL0     H81881   5.179   2.047  10.143  0.1465  0.3868  0.3515
  607MOL0     H81882   5.274   2.319  10.258 -3.9495 -0.5487  0.5921
  607MOL0     H81883   5.230   2.292  10.092 -0.7926  0.3320  0.2084
  607MOL0     H81884   5.408   2.132  10.061  1.4031  0.1615 -0.4275
  607MOL0     H81885   5.443   2.123  10.237  2.8542 -1.0240 -1.5887
  607MOL0     H81886   5.477   2.367  10.075 -0.5531 -1.7843 -1.6700
  607MOL0     H81887   5.521   2.338  10.242 -2.3163  1.7795 -0.3425
  607MOL0     H81888   5.651   2.128  10.150 -0.9315 -0.0503 -0.1937
  607MOL0     H81889   5.621   2.188   9.992  0.7348 -1.6527  0.4102
  607MOL0     H81890   5.790   2.376  10.007  0.2814  1.2060  1.4566
  607MOL0     H81891   5.762   2.369  10.178 -2.8502  1.0422 -1.1432
  607MOL0     H81892   5.879   2.153  10.188  0.5841  1.4149  1.2807
  607MOL0     H81893   5.978   2.294  10.137  0.8776 -0.4833 -1.2139
  607MOL0     H81894   5.893   2.046   9.989 -0.4407 -0.0446 -4.0842
  607MOL0     H81895   5.938   2.182   9.896 -3.1428 -0.8264 -0.3020
  607MOL0     H81896   6.163   2.133   9.797  1.4457  0.3791  0.0422
  607MOL0     H81897   6.444   1.913   9.861  1.9620 -0.3490 -0.8359
  607MOL0     H81898   6.394   2.040   9.758  0.3164 -0.3208 -0.1380
  607MOL0     H81899   6.497   2.209   9.901 -0.7371 -0.0199  0.1801
  607MOL0     H81900   6.556   2.077  10.011 -0.0787 -0.2487 -0.9817
  607MOL0     H81901   6.649   2.166   9.731 -0.1463 -0.9849 -0.4617
  607MOL0     H81902   6.672   2.004   9.757 -0.3230 -1.7644  3.5274
  607MOL0     H81903   6.768   2.207   9.969  2.2420  1.5137 -0.3952
  607MOL0     H81904   6.857   2.179   9.819 -1.9308 -0.9936 -1.5520
  607MOL0     H81905   7.016   2.230   9.966  1.5763  1.1616 -2.6717
  607MOL0     H81906   7.255   2.223   9.988  0.0472  0.2406  1.2078
  607MOL0     H81907   7.715   2.166   9.954  0.0953 -0.1390 -0.2077
  607MOL0     H81908   7.919   2.143  10.064 -0.0723  0.0305 -0.0738
  607MOL0     H81909   7.875   2.159  10.512 -1.8153 -1.3035 -1.0138
  607MOL0     H81910   7.935   1.991  10.501 -0.7406 -0.9467 -5.6096
  607MOL0     H81911   8.100   2.109  10.642 -1.3138  0.4495  1.2820
  607MOL0     H81912   8.160   2.054  10.492 -0.7383 -0.4075  0.5941
  607MOL0     H81913   8.123   2.299  10.398 -1.9978 -1.5212  0.1462
  607MOL0     H81914   8.116   2.336  10.571 -0.7108 -0.9624  0.8340
  607MOL0     H81915   8.330   2.210  10.406  1.9213  0.5618  0.6796
  607MOL0     H81916   8.340   2.205  10.588  0.7248 -0.5252 -0.9231
  607MOL0     H81917   8.326   2.455  10.590  0.1078  1.4232 -1.0145
  607MOL0     H81918   8.329   2.453  10.413 -2.5405 -0.1524  0.8591
  607MOL0     H81919   8.562   2.345  10.444 -1.3816 -0.3921  0.5495
  607MOL0     H81920   8.543   2.514  10.495  3.0298 -0.4410 -1.8376
  607MOL0     H81921   8.513   2.281  10.684  0.5199 -1.0520 -1.1201
  607MOL0     H81922   8.554   2.458  10.724  1.5139 -1.8225  2.7533
  607MOL0     H81923   8.740   2.247  10.612 -1.5078 -0.7223  1.6005
  607MOL0     H81924   8.782   2.404  10.605 -0.9655 -0.1076 -2.9567
  607MOL0     H81925   7.709   2.020  10.430 -0.7927 -0.0952 -0.1206
  607MOL0     H81926   7.508   2.043  10.319 -0.4838  3.7692  1.5104
  607MOL0     H81927   7.260   1.799   9.955  2.1836  1.8975 -2.2262
  607MOL0     H81928   7.019   1.794   9.952  2.5135 -1.0283 -0.3303
  607MOL0     H81929   4.950   1.925  10.152 -1.3265 -0.8049 -0.3703
  607MOL0     H81930   4.796   1.799  10.285 -0.8649 -0.3697 -1.9482
  607MOL0     H81931   4.748   1.691  10.643  0.5663 -0.3345  0.3424
  607MOL0     H81932   4.688   1.537  10.823  1.6914  0.9757 -0.1245
  607MOL0     H81933   4.503   1.243  10.828  3.1652  1.3955  5.4508
  607MOL0     H81934   4.350   1.315  10.768  1.5712  2.7268 -0.6239
  607MOL0     H81935   4.296   1.161  10.943  3.1595 -3.1063  0.8858
  607MOL0     H81936   4.278   1.331  11.019  1.3890  0.5336 -0.9394
  607MOL0     H81937   4.504   1.305  11.101  0.7018 -0.6834 -1.0920
  607MOL0     H81938   4.516   1.146  11.031 -0.3309  0.7845 -3.0487
  607MOL0     H81939   4.335   1.067  11.198  0.9896 -0.7106 -0.5028
  607MOL0     H81940   4.480   1.120  11.272  0.9809 -0.1502 -0.6634
  607MOL0     H81941   4.193   1.418  11.389 -1.6096 -0.3476 -2.4684
  607MOL0     H81942   4.285   1.499  10.671 -0.8143  1.4080 -0.4294
  607MOL0     H81943   4.294   1.797  10.478 -0.7946 -1.0818 -0.7121
  607MOL0     H81944   4.278   1.630  10.403 -1.4339 -0.7935 -0.3436
  607MOL0     H81945   4.209   1.663  10.553  1.0227 -1.5846  0.6178
  608MOL0     O81946  10.962   3.924   3.761  0.5217  0.4687 -0.1039
  608MOL0     C81947  10.937   3.893   3.879 -0.5986 -0.1498 -0.6782
  608MOL0     O81948  11.022   3.908   3.986  0.2383 -0.8190 -1.1841
  608MOL0     C81949  11.137   3.991   3.981  0.4770 -0.4316  0.2384
  608MOL0     C81950  11.171   4.082   3.874 -0.0416 -0.4627  0.0914
  608MOL0     C81951  11.281   4.170   3.889 -0.0792  0.5610 -0.0809
  608MOL0     C81952  11.350   4.178   4.013 -0.4468  0.0375 -0.2071
  608MOL0     O81953  11.440   4.280   4.027 -0.3877 -0.3115  0.5906
  608MOL0     C81954  11.528   4.288   4.141 -0.5621  0.4503 -0.0684
  608MOL0     C81955  11.638   4.383   4.127 -0.0996  0.6243 -1.2013
  608MOL0     C81956  11.576   4.516   4.085  0.1815 -0.1909 -0.4658
  608MOL0     C81957  11.688   4.616   4.078 -0.1313 -0.0987  0.2437
  608MOL0     C81958  11.655   4.743   4.000  0.1878  0.2059 -0.4610
  608MOL0     C81959  11.532   4.827   4.053 -0.5234 -0.2264 -0.4282
  608MOL0     C81960  11.497   4.953   3.970 -0.3858  0.1624 -0.6045
  608MOL0     C81961  11.584   5.066   4.025  0.3796 -0.1344  0.1099
  608MOL0     N81962  11.577   5.186   3.941 -0.2525  0.6295  0.6113
  608MOL0     C81963  11.689   5.253   3.893  0.5606 -0.0032  0.0869
  608MOL0     C81964  11.636   5.345   3.804 -0.0967 -0.2459  0.7800
  608MOL0     C81965  11.717   5.430   3.714  0.5256 -0.1321 -0.1525
  608MOL0     C81966  11.826   5.349   3.652 -0.2600  0.2598  0.6873
  608MOL0     C81967  11.895   5.412   3.526  0.5945 -0.1773 -0.1580
  608MOL0     C81968  11.999   5.316   3.469 -0.1664  0.6870  0.1513
  608MOL0     O81969  12.111   5.337   3.552 -0.1101  0.6298 -0.5761
  608MOL0     C81970  12.230   5.295   3.494  0.2329 -0.1264 -0.1681
  608MOL0     C81971  12.346   5.351   3.548 -0.9014 -0.0672  0.5597
  608MOL0     C81972  12.469   5.322   3.488 -1.0482 -0.0932  0.1637
  608MOL0     C81973  12.482   5.225   3.387 -0.9028 -0.3507 -0.4106
  608MOL0     C81974  12.614   5.184   3.331 -0.4348  0.3887  0.6989
  608MOL0     O81975  12.614   5.100   3.233 -0.0053 -0.5510 -0.3028
  608MOL0     C81976  12.735   5.044   3.196 -0.6158  0.0688  0.2585
  608MOL0     C81977  12.802   5.091   3.079  0.8332  0.3813  0.4595
  608MOL0     C81978  12.916   5.031   3.026  0.2929 -0.4489 -0.0043
  608MOL0     C81979  12.980   4.922   3.079  0.7470  0.3955  0.2263
  608MOL0     O81980  13.094   4.871   3.010 -0.4340  0.1352 -0.6463
  608MOL0     C81981  13.131   4.732   3.039 -0.7491 -0.1504 -0.6111
  608MOL0     C81982  13.251   4.694   2.956  0.5494 -0.2487 -0.4127
  608MOL0     C81983  13.373   4.776   2.989 -0.4521 -0.6106  0.9386
  608MOL0     C81984  13.493   4.733   2.900  0.0553 -0.9441  0.2008
  608MOL0     C81985  13.621   4.816   2.935 -0.3227  0.4757 -0.2454
  608MOL0     C81986  13.755   4.760   2.879  0.5305 -0.2504 -0.0727
  608MOL0     C81987  13.883   4.838   2.928 -0.0503 -0.9676 -0.1193
  608MOL0     C81988  13.903   4.838   3.082  0.2131 -0.3836 -0.5209
  608MOL0    Cl81989  13.877   4.681   3.151  0.2296  0.1206 -0.6012
  608MOL0     C81990  12.932   4.877   3.201  1.0466  0.8818 -0.3947
  608MOL0     C81991  12.817   4.942   3.261 -0.9557  0.2126 -0.5539
  608MOL0     O81992  12.717   5.235   3.371 -0.0780  0.2453  0.1134
  608MOL0     C81993  12.368   5.161   3.344 -0.2632  0.0573 -0.0336
  608MOL0     C81994  12.240   5.206   3.382  0.6886  0.2481  0.0500
  608MOL0     N81995  11.493   5.327   3.791 -1.3057  0.4544 -0.7405
  608MOL0     N81996  11.469   5.229   3.870  0.2458 -0.0676  0.8568
  608MOL0     C81997  11.309   4.100   4.120 -0.0684  0.5443 -0.4564
  608MOL0     C81998  11.202   4.008   4.099  0.6446 -0.0335 -0.3415
  608MOL0     C81999  10.808   3.828   3.908  0.4010 -0.3501 -0.2272
  608MOL0     C82000  10.752   3.842   4.040  0.1089  0.0784  0.1105
  608MOL0     C82001  10.632   3.782   4.069 -0.7117  0.0179 -0.0609
  608MOL0     C82002  10.565   3.710   3.981  0.0394  0.3068 -0.2686
  608MOL0     O82003  10.445   3.650   4.023  0.1572  0.0995 -0.0453
  608MOL0     C82004  10.377   3.557   3.934 -0.3472 -0.3304  0.5125
  608MOL0     C82005  10.267   3.486   4.011  1.2145 -0.0320 -0.0931
  608MOL0     C82006  10.164   3.385   3.934  0.3458 -0.1633 -0.0844
  608MOL0     C82007  10.069   3.461   3.836  0.4712 -0.2430 -0.3078
  608MOL0     C82008   9.975   3.357   3.783 -0.7544 -0.8282 -0.9386
  608MOL0     C82009   9.894   3.280   3.736  0.6968 -0.1307 -0.1144
  608MOL0     C82010  10.614   3.696   3.855  0.4153  0.4728 -0.0733
  608MOL0     C82011  10.727   3.752   3.811  0.2163 -0.7631  0.4879
  608MOL0     C82012  10.772   3.716   3.666  0.3239 -0.3744  0.0858
  608MOL0     H82013  11.130   4.093   3.774 -1.4826 -1.0223  0.6045
  608MOL0     H82014  11.309   4.228   3.802  1.0804  2.2916  1.3535
  608MOL0     H82015  11.481   4.306   4.238 -2.5165  1.7429 -1.2078
  608MOL0     H82016  11.570   4.187   4.150 -1.5000 -0.2191 -2.4284
  608MOL0     H82017  11.699   4.332   4.053  0.8023 -0.8846  0.5066
  608MOL0     H82018  11.696   4.399   4.219  0.2493 -0.6739 -1.1801
  608MOL0     H82019  11.515   4.548   4.170  0.8287 -2.9853  1.2041
  608MOL0     H82020  11.532   4.503   3.986 -0.8643  1.6651 -0.2813
  608MOL0     H82021  11.730   4.643   4.175  0.1546 -1.2033  0.4384
  608MOL0     H82022  11.763   4.554   4.028 -2.3868 -1.8397 -1.1927
  608MOL0     H82023  11.743   4.808   4.005 -0.6390  1.3041  0.7000
  608MOL0     H82024  11.643   4.707   3.898 -2.1674 -1.8722  0.4530
  608MOL0     H82025  11.444   4.762   4.045 -0.0920 -0.6770 -1.9268
  608MOL0     H82026  11.560   4.859   4.154  2.3266 -1.8833 -0.5892
  608MOL0     H82027  11.391   4.982   3.974 -0.3556  0.3180 -0.8775
  608MOL0     H82028  11.531   4.945   3.867 -0.0817  0.9997 -0.5842
  608MOL0     H82029  11.551   5.095   4.125  0.9893  0.2659  0.2050
  608MOL0     H82030  11.685   5.030   4.049 -0.0646 -0.0786  2.2886
  608MOL0     H82031  11.794   5.235   3.918  0.4933 -1.8381 -0.8023
  608MOL0     H82032  11.649   5.465   3.636 -4.2611 -5.2936  1.0012
  608MOL0     H82033  11.781   5.504   3.763  2.2516 -0.7998 -1.2986
  608MOL0     H82034  11.904   5.337   3.729  1.3086  1.0109 -0.7208
  608MOL0     H82035  11.790   5.248   3.630  0.1052 -0.1644  1.9294
  608MOL0     H82036  11.944   5.502   3.563  1.2758 -0.0597 -1.3261
  608MOL0     H82037  11.828   5.433   3.442 -0.9540 -0.2523  0.9963
  608MOL0     H82038  12.012   5.343   3.364  0.1242  1.8089  0.4584
  608MOL0     H82039  11.958   5.215   3.478  2.8925 -0.8684 -1.6857
  608MOL0     H82040  12.366   5.411   3.636  0.9609  0.8029 -0.4164
  608MOL0     H82041  12.559   5.367   3.530 -0.7080 -0.9453  0.3563
  608MOL0     H82042  12.759   5.178   3.030  0.3931  0.8600  1.6448
  608MOL0     H82043  12.970   5.076   2.944  1.1131 -0.0370  0.7482
  608MOL0     H82044  13.149   4.731   3.147  0.6056 -1.6869 -0.8113
  608MOL0     H82045  13.048   4.662   3.022 -1.3527  1.0137 -2.8493
  608MOL0     H82046  13.267   4.586   2.962 -0.0782 -0.3900 -1.2240
  608MOL0     H82047  13.228   4.717   2.852  0.6752 -0.8237 -0.5738
  608MOL0     H82048  13.360   4.884   2.977  0.8697 -0.5502 -0.3028
  608MOL0     H82049  13.397   4.760   3.094 -0.0941  0.0386  0.9609
  608MOL0     H82050  13.465   4.733   2.794  3.1502 -2.1160 -0.7425
  608MOL0     H82051  13.507   4.631   2.938 -1.1996 -1.1792  0.0891
  608MOL0     H82052  13.615   4.814   3.044 -2.3695  0.6700 -0.3122
  608MOL0     H82053  13.610   4.924   2.918  0.2002  0.9818  2.2826
  608MOL0     H82054  13.762   4.659   2.921 -1.2230  1.0217  3.7853
  608MOL0     H82055  13.753   4.765   2.770 -2.5996 -0.4279 -0.1185
  608MOL0     H82056  13.888   4.937   2.883 -1.3190 -0.6966  0.3081
  608MOL0     H82057  13.967   4.790   2.877 -0.4824 -2.6529  0.6895
  608MOL0     H82058  14.006   4.866   3.105 -0.2911  1.5542 -0.5006
  608MOL0     H82059  13.832   4.905   3.131  0.9636 -1.0474  1.5681
  608MOL0     H82060  12.976   4.794   3.256 -4.1066 -0.3678  2.4828
  608MOL0     H82061  12.784   4.905   3.357  2.0517 -1.5382 -0.0538
  608MOL0     H82062  12.369   5.083   3.268  1.6863 -0.6239  0.6261
  608MOL0     H82063  12.155   5.158   3.336  1.4684  0.2741 -1.4924
  608MOL0     H82064  11.348   4.100   4.222 -0.2909 -3.9831 -0.1686
  608MOL0     H82065  11.165   3.957   4.187  4.2953 -1.7373  0.3883
  608MOL0     H82066  10.804   3.892   4.121 -1.1656  1.4071  0.1468
  608MOL0     H82067  10.592   3.793   4.170  1.1349 -1.2303  0.8866
  608MOL0     H82068  10.447   3.484   3.891  0.0156  0.9146 -1.1236
  608MOL0     H82069  10.330   3.607   3.849 -2.0610 -1.6201  0.6476
  608MOL0     H82070  10.203   3.564   4.053  0.9615 -1.4902  2.4672
  608MOL0     H82071  10.328   3.427   4.080  2.0068 -1.0525 -1.6167
  608MOL0     H82072  10.107   3.338   4.014 -1.3789  2.2802  0.2326
  608MOL0     H82073  10.222   3.312   3.875  0.8918 -1.0014  1.4285
  608MOL0     H82074  10.017   3.542   3.889  0.8504  0.8564 -1.5735
  608MOL0     H82075  10.110   3.503   3.744 -2.5803  1.5686 -0.9870
  608MOL0     H82076   9.815   3.220   3.695  0.1267  1.5436 -1.6330
  608MOL0     H82077  10.564   3.632   3.782  1.6829  1.2988 -1.7281
  608MOL0     H82078  10.864   3.657   3.663 -0.1213 -1.1929  1.3852
  608MOL0     H82079  10.693   3.653   3.623 -1.0320 -0.0080  1.8948
  608MOL0     H82080  10.790   3.811   3.615 -1.7091  0.5132  0.9161
  609MOL0     O82081   8.444   1.212   9.633 -0.7591 -0.1387  0.3560
  609MOL0     C82082   8.366   1.160   9.557  0.0638 -0.1345 -0.8558
  609MOL0     O82083   8.395   1.070   9.464 -0.4885 -0.0722  0.6484
  609MOL0     C82084   8.522   1.014   9.449 -0.4047  0.2949 -0.7069
  609MOL0     C82085   8.590   1.022   9.322 -0.2129  0.1489  0.3976
  609MOL0     C82086   8.723   0.960   9.312 -0.1085 -0.3693  0.5902
  609MOL0     C82087   8.792   0.901   9.414  0.4015 -0.5307  0.1163
  609MOL0     O82088   8.922   0.855   9.407  1.0679 -0.5382  0.2329
  609MOL0     C82089   8.994   0.858   9.286 -0.7544  0.1709 -0.7357
  609MOL0     C82090   8.961   0.748   9.192  0.1178 -0.5739 -0.2209
  609MOL0     C82091   9.004   0.625   9.271  0.3018  0.9618  0.2423
  609MOL0     C82092   9.017   0.503   9.174 -1.0137 -0.0836  0.4470
  609MOL0     C82093   9.085   0.384   9.232 -0.3820 -0.0226 -0.2715
  609MOL0     C82094   9.177   0.292   9.145  0.2971  0.0654 -0.4753
  609MOL0     C82095   9.108   0.241   9.021 -0.1469  0.3056 -0.2457
  609MOL0     C82096   9.183   0.293   8.890  0.2663  1.1541 -0.0771
  609MOL0     N82097   9.145   0.432   8.857  0.7064  0.2182  0.0439
  609MOL0     C82098   9.022   0.456   8.820 -0.2418  0.4514 -0.1914
  609MOL0     C82099   9.023   0.594   8.806  0.4121 -0.2649 -0.3959
  609MOL0     C82100   8.912   0.689   8.757 -0.3885 -0.9945  0.2457
  609MOL0     C82101   8.772   0.639   8.761  0.3418  0.8643 -0.1944
  609MOL0     C82102   8.721   0.617   8.907 -0.7436 -0.1377  0.0551
  609MOL0     C82103   8.585   0.543   8.913 -0.0829 -0.4880  0.2149
  609MOL0     O82104   8.595   0.405   8.860  0.0008 -0.7021  0.2624
  609MOL0     C82105   8.660   0.311   8.929 -0.8100 -0.8897 -0.8867
  609MOL0     C82106   8.707   0.324   9.062  0.2741 -0.2460 -0.4043
  609MOL0     C82107   8.776   0.217   9.126 -0.2129  0.0201 -0.6279
  609MOL0     C82108   8.807   0.098   9.052 -0.7782 -0.2731  0.5403
  609MOL0     C82109   8.882  -0.015   9.111 -0.2028  0.3271 -0.0314
  609MOL0     O82110   8.916  -0.116   9.032 -0.1872 -0.2344 -0.2700
  609MOL0     C82111   8.973  -0.231   9.083 -0.4940  0.7009 -0.0673
  609MOL0     C82112   9.116  -0.233   9.100  0.2578  0.8503  0.9173
  609MOL0     C82113   9.180  -0.350   9.146  0.0837 -0.3359  0.4602
  609MOL0     C82114   9.105  -0.452   9.194  1.2485 -0.6664  1.1011
  609MOL0     O82115   9.155  -0.561   9.257 -0.1693  0.5458  0.0626
  609MOL0     C82116   9.298  -0.598   9.256 -0.2430  0.1922 -0.1088
  609MOL0     C82117   9.312  -0.732   9.327 -0.4013 -0.2451 -0.3088
  609MOL0     C82118   9.454  -0.785   9.328 -0.0611  0.6168  0.1844
  609MOL0     C82119   9.498  -0.866   9.204 -0.0568  0.2563  0.1201
  609MOL0     C82120   9.630  -0.933   9.236  1.0843 -0.2370  1.3192
  609MOL0     C82121   9.744  -0.831   9.260 -0.6368 -0.3267 -0.5608
  609MOL0     C82122   9.865  -0.908   9.286 -0.2663 -0.3349  0.5356
  609MOL0     C82123   9.979  -0.818   9.342  0.2105  0.3923 -0.4287
  609MOL0    Cl82124  10.125  -0.924   9.370 -0.1137 -0.1578 -0.3796
  609MOL0     C82125   8.961  -0.444   9.186  0.0620 -0.3827 -0.1447
  609MOL0     C82126   8.892  -0.345   9.130 -0.4461 -0.6760 -0.4904
  609MOL0     O82127   8.911  -0.003   9.226 -0.3860  0.1883 -0.1222
  609MOL0     C82128   8.762   0.089   8.916 -0.5886 -0.1661 -0.3983
  609MOL0     C82129   8.687   0.192   8.860 -0.3784  0.1189 -0.0636
  609MOL0     N82130   9.139   0.644   8.860 -0.8294  0.3216  0.6655
  609MOL0     N82131   9.225   0.541   8.869 -0.0792 -0.1130 -0.2523
  609MOL0     C82132   8.724   0.884   9.532  0.7634  0.6397 -0.1776
  609MOL0     C82133   8.590   0.942   9.551 -0.6550  0.4494  0.3145
  609MOL0     C82134   8.233   1.212   9.562 -0.3211  0.5488  0.0177
  609MOL0     C82135   8.128   1.121   9.557 -0.5410 -0.7813  0.2121
  609MOL0     C82136   7.999   1.159   9.548 -0.7968  0.2489 -0.6922
  609MOL0     C82137   7.966   1.297   9.556  0.1986 -0.4652  0.1316
  609MOL0     O82138   7.827   1.340   9.570  0.1817  0.0043 -0.1852
  609MOL0     C82139   7.720   1.244   9.562  0.0936  0.1785 -0.8520
  609MOL0     C82140   7.717   1.153   9.687  0.1780 -0.7052  0.4910
  609MOL0     C82141   7.589   1.072   9.675 -0.1155  0.2288 -0.3185
  609MOL0     C82142   7.600   0.970   9.797  0.3014 -1.4891 -0.5815
  609MOL0     C82143   7.492   0.878   9.774 -0.6702  0.5112 -0.3017
  609MOL0     C82144   7.406   0.800   9.750  0.0384 -0.5146  0.4456
  609MOL0     C82145   8.064   1.392   9.568 -0.6068  0.1684 -0.9499
  609MOL0     C82146   8.199   1.350   9.570  0.2765 -0.3715  1.1821
  609MOL0     C82147   8.307   1.453   9.570 -0.3746 -0.4219 -0.3448
  609MOL0     H82148   8.555   1.068   9.230 -0.8813 -0.2935  0.4221
  609MOL0     H82149   8.763   0.960   9.212 -1.3021 -2.2305  0.0544
  609MOL0     H82150   8.970   0.958   9.249 -0.1962  0.9097  0.8182
  609MOL0     H82151   9.099   0.849   9.316 -1.3389  0.5627  1.5727
  609MOL0     H82152   9.011   0.760   9.096 -0.9119  2.5063 -0.4901
  609MOL0     H82153   8.853   0.743   9.176  0.2660 -2.2084 -0.8055
  609MOL0     H82154   8.941   0.610   9.359  0.8868 -2.7534  0.2100
  609MOL0     H82155   9.106   0.632   9.309  0.3614  1.1167  0.0552
  609MOL0     H82156   8.919   0.472   9.135 -1.3633  1.4607  0.0028
  609MOL0     H82157   9.070   0.537   9.085 -1.5750  0.8134  0.4338
  609MOL0     H82158   9.161   0.412   9.306  0.8261 -3.7374  0.1035
  609MOL0     H82159   9.005   0.325   9.277  0.6990 -1.6713 -0.4263
  609MOL0     H82160   9.260   0.355   9.113 -0.4012  0.5525 -1.3919
  609MOL0     H82161   9.212   0.208   9.205 -0.6904 -0.5919 -0.7920
  609MOL0     H82162   9.000   0.260   9.014 -0.2946 -0.3604  0.1489
  609MOL0     H82163   9.120   0.132   9.021  0.1246  0.3313  0.7390
  609MOL0     H82164   9.291   0.285   8.905  0.1069 -0.4116  0.5107
  609MOL0     H82165   9.149   0.224   8.811 -1.4757  2.3507 -0.4240
  609MOL0     H82166   8.945   0.383   8.796 -2.0216  1.9131  0.7589
  609MOL0     H82167   8.912   0.782   8.815 -3.4736  0.6474 -2.1218
  609MOL0     H82168   8.939   0.716   8.655  1.0076  1.9635  1.2807
  609MOL0     H82169   8.700   0.708   8.715  0.2329 -0.3507 -1.9099
  609MOL0     H82170   8.775   0.543   8.709  3.6151 -0.2045  1.6713
  609MOL0     H82171   8.730   0.706   8.971  0.1287 -0.7127  0.7538
  609MOL0     H82172   8.795   0.549   8.950 -1.1470 -2.5155 -2.7013
  609MOL0     H82173   8.517   0.605   8.853  1.0684  1.4273  0.7950
  609MOL0     H82174   8.546   0.541   9.015 -2.4735 -0.1882 -0.6276
  609MOL0     H82175   8.686   0.416   9.116 -0.1241 -1.4419  1.5508
  609MOL0     H82176   8.794   0.224   9.233  0.5956 -0.5507 -0.7148
  609MOL0     H82177   9.183  -0.155   9.064  3.2153 -1.2078  1.5740
  609MOL0     H82178   9.287  -0.348   9.164  0.8404 -1.2043 -3.1856
  609MOL0     H82179   9.323  -0.616   9.151 -1.9030  0.0991 -0.5133
  609MOL0     H82180   9.357  -0.514   9.294 -0.0170  0.0429 -0.1286
  609MOL0     H82181   9.283  -0.727   9.432  0.4236 -0.9460 -0.0327
  609MOL0     H82182   9.257  -0.803   9.265  0.6263  1.5089 -3.4850
  609MOL0     H82183   9.519  -0.701   9.352 -1.5549  1.9602 -0.2971
  609MOL0     H82184   9.465  -0.855   9.412  0.2026  1.3126  0.7399
  609MOL0     H82185   9.503  -0.805   9.113 -2.8392 -0.3116 -0.4989
  609MOL0     H82186   9.424  -0.945   9.188  0.4216  0.0527 -1.2516
  609MOL0     H82187   9.646  -1.005   9.154 -0.9295 -0.4847  1.0822
  609MOL0     H82188   9.612  -0.992   9.327 -2.3635  1.2097  1.7287
  609MOL0     H82189   9.749  -0.763   9.175  1.6191  3.5869  2.3367
  609MOL0     H82190   9.715  -0.769   9.345 -1.1349 -0.0895 -0.8989
  609MOL0     H82191   9.908  -0.952   9.196  0.6105 -2.4955  1.9118
  609MOL0     H82192   9.840  -0.990   9.354 -3.7321 -0.2279 -0.3993
  609MOL0     H82193  10.004  -0.728   9.285  0.0819  1.4224  1.0539
  609MOL0     H82194   9.945  -0.782   9.440  1.5802  2.1146 -0.5455
  609MOL0     H82195   8.911  -0.532   9.224  0.2976  0.0578  1.2114
  609MOL0     H82196   8.786  -0.365   9.127 -0.2593 -1.7248 -3.1693
  609MOL0     H82197   8.776  -0.005   8.863  2.1276 -0.6301  0.9550
  609MOL0     H82198   8.643   0.180   8.762  1.8670 -2.8089 -0.8598
  609MOL0     H82199   8.764   0.831   9.618  1.2751  1.1826 -0.0740
  609MOL0     H82200   8.538   0.919   9.643  0.5898 -0.1108  0.8991
  609MOL0     H82201   8.155   1.016   9.557 -2.4538 -1.3040  0.5657
  609MOL0     H82202   7.925   1.082   9.530 -0.0904 -1.4476  2.8154
  609MOL0     H82203   7.732   1.179   9.475  0.2787 -2.6274  1.1322
  609MOL0     H82204   7.627   1.298   9.544 -0.2590 -0.5498 -1.2175
  609MOL0     H82205   7.710   1.216   9.776 -1.1276  1.0456 -0.7912
  609MOL0     H82206   7.802   1.085   9.696  0.2058 -0.8035 -0.4393
  609MOL0     H82207   7.590   1.019   9.579  1.9710 -4.1895  1.8549
  609MOL0     H82208   7.504   1.141   9.682 -0.7817 -0.4816 -1.1590
  609MOL0     H82209   7.690   0.908   9.788  0.4562 -1.4313  0.4917
  609MOL0     H82210   7.594   1.022   9.893  1.5509  0.5299 -1.5288
  609MOL0     H82211   7.321   0.737   9.731 -0.2777 -0.9368  2.8937
  609MOL0     H82212   8.042   1.496   9.589  1.9766  0.5024  0.4755
  609MOL0     H82213   8.360   1.467   9.665  0.4300 -0.4225 -0.7808
  609MOL0     H82214   8.382   1.424   9.496  0.8121 -0.0813  0.6794
  609MOL0     H82215   8.274   1.557   9.559 -0.4459 -0.1648  1.7926
  610MOL0     O82216  10.543   9.149   6.334  0.5608  0.9128 -0.0223
  610MOL0     C82217  10.518   9.178   6.218 -0.6048  0.2014 -0.1656
  610MOL0     O82218  10.591   9.270   6.151 -0.9982  0.1220  0.1241
  610MOL0     C82219  10.725   9.286   6.189 -0.3956  0.2618 -0.5465
  610MOL0     C82220  10.761   9.344   6.312 -1.0689  0.3538  0.4542
  610MOL0     C82221  10.894   9.342   6.350 -0.9199  0.1429  0.2411
  610MOL0     C82222  10.992   9.301   6.252 -0.0707  0.6948 -0.3573
  610MOL0     O82223  11.134   9.319   6.272 -0.3915 -0.3221 -0.2338
  610MOL0     C82224  11.185   9.401   6.374  0.6121  0.4197 -0.4221
  610MOL0     C82225  11.248   9.298   6.478  0.2279  0.6969 -0.4094
  610MOL0     C82226  11.381   9.234   6.435 -0.1394 -0.4568 -0.6052
  610MOL0     C82227  11.409   9.111   6.529  0.1495 -0.4777  1.0018
  610MOL0     C82228  11.553   9.059   6.523  0.7048  0.1814  0.2045
  610MOL0     C82229  11.594   8.975   6.654 -0.4298 -0.1831  0.0124
  610MOL0     C82230  11.726   8.898   6.626  0.2823  0.3782  0.3140
  610MOL0     C82231  11.811   8.860   6.749  0.6165 -0.7118 -0.7590
  610MOL0     N82232  11.924   8.774   6.714 -0.4759  0.1143 -0.4921
  610MOL0     C82233  12.040   8.821   6.667  0.5533  0.5396  0.3952
  610MOL0     C82234  12.101   8.708   6.624 -0.1100  0.2791 -0.2622
  610MOL0     C82235  12.244   8.703   6.559  0.0196 -0.8270  0.1502
  610MOL0     C82236  12.356   8.641   6.650  0.2475 -1.0413  0.1633
  610MOL0     C82237  12.496   8.632   6.603  0.7728  0.5133  0.2164
  610MOL0     C82238  12.591   8.601   6.711 -0.7106 -0.5990  0.1257
  610MOL0     O82239  12.714   8.564   6.644  0.1826 -0.0523 -0.5897
  610MOL0     C82240  12.811   8.496   6.718 -0.3302  0.4355 -0.6319
  610MOL0     C82241  12.795   8.446   6.849 -0.4449 -0.3098 -0.0345
  610MOL0     C82242  12.892   8.368   6.910  0.1988 -0.0656  0.0396
  610MOL0     C82243  13.013   8.337   6.836  0.0445  0.2909  0.3305
  610MOL0     C82244  13.120   8.253   6.907  0.0426 -0.8984  0.9697
  610MOL0     O82245  13.242   8.252   6.844  0.2025 -0.0828 -0.2031
  610MOL0     C82246  13.337   8.188   6.906  0.3048 -0.3890  0.3709
  610MOL0     C82247  13.336   8.047   6.925  0.0202 -0.3619  0.1118
  610MOL0     C82248  13.442   7.986   6.998  0.0840  0.2174 -0.1175
  610MOL0     C82249  13.556   8.059   7.039  0.1767 -0.5178  0.6085
  610MOL0     O82250  13.678   7.999   7.086  0.1722  0.4872  0.3093
  610MOL0     C82251  13.688   7.859   7.087 -0.2116 -0.5535  0.4167
  610MOL0     C82252  13.838   7.818   7.121  1.1162 -0.5255  0.0043
  610MOL0     C82253  13.851   7.669   7.129 -0.1386  0.3735  0.3961
  610MOL0     C82254  13.998   7.635   7.161  0.0602 -0.4934 -0.4088
  610MOL0     C82255  14.092   7.697   7.058 -0.0778 -0.1024  0.6161
  610MOL0     C82256  14.214   7.616   7.064 -0.5600  0.2193 -0.4165
  610MOL0     C82257  14.325   7.646   6.959  0.6167  0.1270 -0.1812
  610MOL0     C82258  14.450   7.569   7.001  0.5399 -0.0835  0.3637
  610MOL0    Cl82259  14.572   7.644   6.895 -0.4905  0.0592 -0.1436
  610MOL0     C82260  13.554   8.202   7.013 -0.1132  0.2100 -0.9861
  610MOL0     C82261  13.447   8.266   6.946 -0.0161 -0.1152  0.1182
  610MOL0     O82262  13.090   8.191   7.007  0.9117 -0.3148 -0.0158
  610MOL0     C82263  13.025   8.382   6.703  0.0107 -0.1906 -0.3856
  610MOL0     C82264  12.925   8.464   6.646 -0.6328  0.4579  0.8807
  610MOL0     N82265  12.021   8.599   6.638  0.2259  0.1094 -0.3589
  610MOL0     N82266  11.915   8.637   6.703 -0.2642 -0.1091 -0.0053
  610MOL0     C82267  10.950   9.256   6.130  0.0198  0.6559 -0.1250
  610MOL0     C82268  10.821   9.235   6.106  0.2195  0.8129 -0.0511
  610MOL0     C82269  10.381   9.143   6.167 -0.6536  0.4368 -0.3903
  610MOL0     C82270  10.332   9.220   6.059  0.6077 -0.1162 -0.1301
  610MOL0     C82271  10.196   9.210   6.019  0.7248 -0.2207 -0.4278
  610MOL0     C82272  10.126   9.100   6.063 -0.3649  0.3776  0.3099
  610MOL0     O82273  10.003   9.059   6.026  1.0965 -0.2231  0.2132
  610MOL0     C82274   9.944   9.123   5.906 -0.3566 -0.4947 -0.4193
  610MOL0     C82275   9.797   9.085   5.899 -0.7149 -0.6935 -0.2752
  610MOL0     C82276   9.777   8.942   5.865 -0.2915 -0.0840  1.0280
  610MOL0     C82277   9.641   8.892   5.899  0.5946  0.5897 -0.1691
  610MOL0     C82278   9.613   8.767   5.820 -0.3727  0.3772 -0.7196
  610MOL0     C82279   9.584   8.671   5.758  0.0415 -0.3739 -0.0014
  610MOL0     C82280  10.173   9.020   6.167 -0.3572 -0.4584  0.0946
  610MOL0     C82281  10.298   9.037   6.227 -0.0377  0.2846 -0.4558
  610MOL0     C82282  10.328   8.956   6.349  0.3146 -0.0659  0.2467
  610MOL0     H82283  10.687   9.384   6.380 -2.6513 -2.7204  0.7430
  610MOL0     H82284  10.920   9.381   6.448 -0.7847  0.7558 -0.0341
  610MOL0     H82285  11.259   9.466   6.327  0.7781  0.9374  0.5213
  610MOL0     H82286  11.107   9.462   6.420  1.9773  2.0247 -0.1328
  610MOL0     H82287  11.169   9.226   6.499 -0.8468  0.8652 -3.3377
  610MOL0     H82288  11.264   9.345   6.576 -2.5084  0.5984  0.1493
  610MOL0     H82289  11.464   9.305   6.439 -0.8225  0.2874  1.7163
  610MOL0     H82290  11.375   9.206   6.329 -0.8543 -2.6307 -0.0442
  610MOL0     H82291  11.386   9.135   6.633 -1.5918  0.0403  0.5278
  610MOL0     H82292  11.347   9.024   6.507  1.2100 -0.9670 -0.2340
  610MOL0     H82293  11.557   9.002   6.429 -0.8697  2.7161 -1.5377
  610MOL0     H82294  11.615   9.148   6.507 -2.2125  1.7846 -4.0140
  610MOL0     H82295  11.608   9.042   6.739 -0.2118 -0.7744  0.4538
  610MOL0     H82296  11.508   8.913   6.678 -0.0977 -0.8061 -0.3711
  610MOL0     H82297  11.789   8.958   6.560  2.1460 -2.2620 -0.5149
  610MOL0     H82298  11.709   8.811   6.561 -1.6728  1.5328 -0.8309
  610MOL0     H82299  11.858   8.953   6.783 -1.5315  0.9650 -2.1507
  610MOL0     H82300  11.747   8.812   6.824 -1.0744  1.7347 -0.5392
  610MOL0     H82301  12.077   8.923   6.663  0.2616  0.6177 -3.3288
  610MOL0     H82302  12.229   8.643   6.469 -1.9600  0.7121 -0.6098
  610MOL0     H82303  12.272   8.805   6.532  0.7878 -1.2428 -0.6916
  610MOL0     H82304  12.367   8.698   6.743  0.6934  0.3362 -0.7027
  610MOL0     H82305  12.317   8.541   6.668  0.5589 -1.0920  0.5912
  610MOL0     H82306  12.529   8.730   6.566 -2.1343  0.4057 -3.1131
  610MOL0     H82307  12.505   8.559   6.523  0.5921  1.5848 -0.8013
  610MOL0     H82308  12.570   8.507   6.763  1.7806 -1.5022 -0.3926
  610MOL0     H82309  12.608   8.686   6.778 -0.1926  0.5224 -1.3859
  610MOL0     H82310  12.713   8.475   6.915 -1.5837  0.7212 -1.8170
  610MOL0     H82311  12.886   8.322   7.008  1.1582 -1.9878 -0.7641
  610MOL0     H82312  13.255   7.988   6.884  1.4894 -1.4019 -1.4636
  610MOL0     H82313  13.443   7.878   7.011  0.4989  0.3574  1.1705
  610MOL0     H82314  13.609   7.813   7.146  0.3755 -3.6063 -0.9736
  610MOL0     H82315  13.667   7.821   6.986  0.9410 -1.0579  0.3476
  610MOL0     H82316  13.892   7.872   7.043 -1.1842  0.0676 -1.2782
  610MOL0     H82317  13.862   7.857   7.220 -0.0832  0.4921 -0.0766
  610MOL0     H82318  13.782   7.626   7.202  0.4819 -1.4210 -0.0164
  610MOL0     H82319  13.815   7.630   7.033  1.2951 -0.3022  0.1065
  610MOL0     H82320  14.014   7.528   7.179  0.5327 -0.2148  1.0285
  610MOL0     H82321  14.026   7.680   7.258 -1.1156  0.8136 -0.6429
  610MOL0     H82322  14.116   7.803   7.073  0.8509  0.2513 -2.6099
  610MOL0     H82323  14.060   7.689   6.954  0.9888 -1.7299  0.3837
  610MOL0     H82324  14.265   7.636   7.158  1.2298  0.1594 -1.3277
  610MOL0     H82325  14.186   7.511   7.058 -2.3865  0.5752  1.2088
  610MOL0     H82326  14.348   7.753   6.961 -0.0005  0.2769 -0.8162
  610MOL0     H82327  14.284   7.613   6.863 -2.3566 -1.1018  1.3885
  610MOL0     H82328  14.479   7.571   7.107  0.3553 -1.4380  0.4605
  610MOL0     H82329  14.435   7.464   6.975  0.2552  0.3952 -1.5260
  610MOL0     H82330  13.653   8.247   7.022  1.7831 -3.6793 -0.1361
  610MOL0     H82331  13.449   8.372   6.928 -0.3493 -0.2813 -0.9508
  610MOL0     H82332  13.118   8.350   6.656 -1.4930 -2.5863 -1.9566
  610MOL0     H82333  12.932   8.495   6.542 -1.0018  0.5586  0.8844
  610MOL0     H82334  11.023   9.226   6.056  3.2959 -0.0651  3.1214
  610MOL0     H82335  10.779   9.195   6.014 -2.3995  0.4353  1.2174
  610MOL0     H82336  10.390   9.296   6.007 -0.8796  0.8109 -0.4882
  610MOL0     H82337  10.157   9.290   5.957  0.1912  0.8100  1.1759
  610MOL0     H82338   9.987   9.088   5.812 -0.0736  1.0100 -0.8772
  610MOL0     H82339   9.958   9.231   5.915 -2.1863 -0.2056 -0.5467
  610MOL0     H82340   9.743   9.150   5.830  1.3096  0.7441 -0.5909
  610MOL0     H82341   9.750   9.103   5.996 -0.4543  1.6327 -0.5389
  610MOL0     H82342   9.855   8.890   5.921 -0.1353  1.3015  2.1491
  610MOL0     H82343   9.793   8.933   5.757 -0.7403 -0.3265  0.9773
  610MOL0     H82344   9.639   8.870   6.006 -3.7984  0.8480 -0.0374
  610MOL0     H82345   9.551   8.951   5.880 -2.5402 -4.0122 -1.2470
  610MOL0     H82346   9.548   8.586   5.703 -1.4817 -0.1530  0.6040
  610MOL0     H82347  10.104   8.946   6.204 -2.7291  1.1039 -0.9506
  610MOL0     H82348  10.287   8.999   6.440 -0.8868 -1.2317  0.2869
  610MOL0     H82349  10.291   8.853   6.349  2.0106 -0.7236 -0.8632
  610MOL0     H82350  10.436   8.941   6.359  0.5819  1.6451  0.1565
  611MOL0     O82351   6.965   5.906  10.337  0.0341 -0.2019  0.7717
  611MOL0     C82352   7.019   6.020  10.325 -0.1579 -0.0179  0.2766
  611MOL0     O82353   7.150   6.050  10.366 -0.1933  0.0351  0.4527
  611MOL0     C82354   7.246   5.947  10.390 -0.2415  0.0399 -0.7577
  611MOL0     C82355   7.257   5.825  10.313 -0.4826  0.7157  0.1160
  611MOL0     C82356   7.361   5.725  10.343 -0.6917  0.5850 -0.2033
  611MOL0     C82357   7.448   5.746  10.453  0.5421 -0.0554  0.0814
  611MOL0     O82358   7.548   5.652  10.470 -0.0588  0.8748 -0.0468
  611MOL0     C82359   7.609   5.633  10.597 -0.3534  0.8942  0.2872
  611MOL0     C82360   7.715   5.525  10.594 -0.9193 -0.9746 -0.4531
  611MOL0     C82361   7.793   5.510  10.728 -0.1835  0.1643  0.5751
  611MOL0     C82362   7.916   5.423  10.699  0.0943 -0.7248 -0.2146
  611MOL0     C82363   7.994   5.371  10.816  0.6650  0.2618  0.2350
  611MOL0     C82364   8.109   5.267  10.783  0.5476  0.1535  0.3482
  611MOL0     C82365   8.180   5.202  10.902  0.1428 -0.5915 -0.6808
  611MOL0     C82366   8.308   5.281  10.940  0.2268  0.9840  0.1761
  611MOL0     N82367   8.428   5.259  10.854 -0.3169 -0.2473 -0.4419
  611MOL0     C82368   8.476   5.360  10.773  0.1675 -0.3783 -0.2809
  611MOL0     C82369   8.561   5.304  10.687 -0.0110  0.4466 -0.0766
  611MOL0     C82370   8.628   5.384  10.577 -1.1355  0.0307 -0.2241
  611MOL0     C82371   8.783   5.369  10.578 -1.2519 -0.8386 -0.5446
  611MOL0     C82372   8.842   5.401  10.712 -0.3320 -0.7330 -0.7269
  611MOL0     C82373   8.993   5.393  10.718 -0.5420  0.4743  0.5160
  611MOL0     O82374   9.021   5.466  10.837  0.6877  1.0401  0.3613
  611MOL0     C82375   9.150   5.481  10.865 -0.3528  0.7729  0.4550
  611MOL0     C82376   9.258   5.424  10.782  0.9270 -0.5525 -0.0296
  611MOL0     C82377   9.389   5.474  10.807  0.3103 -0.4308  0.3546
  611MOL0     C82378   9.424   5.555  10.917  0.4249  0.0988  0.3724
  611MOL0     C82379   9.561   5.598  10.944 -0.0456 -0.0794 -1.0607
  611MOL0     O82380   9.651   5.546  10.858 -0.8976  0.3182 -0.6974
  611MOL0     C82381   9.785   5.588  10.875 -0.3286 -0.0057  0.2517
  611MOL0     C82382   9.834   5.706  10.813 -0.3648  1.1517 -0.9545
  611MOL0     C82383   9.967   5.751  10.828 -0.1510 -0.4853 -0.9064
  611MOL0     C82384  10.050   5.693  10.931  0.1860 -0.0658  0.9365
  611MOL0     O82385  10.174   5.725  10.956 -0.0095 -0.3430  0.5319
  611MOL0     C82386  10.263   5.782  10.847  0.3753  0.4361  0.2252
  611MOL0     C82387  10.401   5.819  10.899 -1.2847 -0.0448  0.7622
  611MOL0     C82388  10.469   5.712  10.975 -0.1851  0.8106  0.5889
  611MOL0     C82389  10.616   5.758  11.009 -0.0822  0.1978 -0.2832
  611MOL0     C82390  10.676   5.651  11.099  0.2932 -0.1082 -0.1411
  611MOL0     C82391  10.771   5.706  11.210  0.3818 -1.1613 -0.1946
  611MOL0     C82392  10.828   5.579  11.288 -0.0200 -0.6610  1.0123
  611MOL0     C82393  10.979   5.557  11.257  0.0695  0.1812 -0.1186
  611MOL0    Cl82394  11.041   5.410  11.334  0.4513 -0.0243 -0.1190
  611MOL0     C82395   9.999   5.587  10.998  0.3860  0.5905  0.1024
  611MOL0     C82396   9.868   5.533  10.977 -0.6701  0.0664  1.1363
  611MOL0     O82397   9.583   5.684  11.033  0.9673 -0.0895 -0.0632
  611MOL0     C82398   9.313   5.600  10.990 -0.0006 -0.0098 -0.1276
  611MOL0     C82399   9.182   5.563  10.968 -1.9060  0.0370 -0.8628
  611MOL0     N82400   8.570   5.170  10.722  0.6882 -0.5663  1.0580
  611MOL0     N82401   8.489   5.142  10.821 -0.6346 -0.1392 -0.3275
  611MOL0     C82402   7.433   5.858  10.530  1.1603 -0.1899  0.0990
  611MOL0     C82403   7.347   5.960  10.488  0.7007 -0.1188 -0.4001
  611MOL0     C82404   6.935   6.130  10.278  1.1447  1.3017  0.7550
  611MOL0     C82405   6.793   6.102  10.277  0.2390  0.2638  0.2693
  611MOL0     C82406   6.705   6.193  10.225 -0.7990  0.4581  0.0583
  611MOL0     C82407   6.746   6.315  10.172 -0.1974  0.2507  0.2566
  611MOL0     O82408   6.656   6.407  10.121  0.0657 -0.4973  0.7368
  611MOL0     C82409   6.517   6.377  10.112 -0.1067  0.0298  0.8949
  611MOL0     C82410   6.441   6.507  10.094  0.0699  0.1130  0.2489
  611MOL0     C82411   6.292   6.489  10.067  0.0182 -0.1029  0.4249
  611MOL0     C82412   6.258   6.416   9.939  0.3083 -0.5369 -0.0244
  611MOL0     C82413   6.113   6.411   9.901  0.2813 -0.3368 -0.1221
  611MOL0     C82414   5.995   6.396   9.905  0.5111  0.4827 -0.6399
  611MOL0     C82415   6.882   6.342  10.167  0.0169  0.6975 -0.0805
  611MOL0     C82416   6.983   6.252  10.216  0.4435  0.4599  0.6729
  611MOL0     C82417   7.130   6.300  10.204  0.2168  0.5682 -0.0187
  611MOL0     H82418   7.187   5.814  10.231 -0.2397 -2.2445  0.2098
  611MOL0     H82419   7.365   5.638  10.278  0.2034  1.6425 -1.6444
  611MOL0     H82420   7.660   5.725  10.628  0.8884 -0.0215  1.0789
  611MOL0     H82421   7.536   5.610  10.676  0.6821  0.8380  1.2537
  611MOL0     H82422   7.785   5.572  10.524 -3.3158  1.2710 -1.4980
  611MOL0     H82423   7.670   5.432  10.559 -0.4126 -0.0943 -3.7937
  611MOL0     H82424   7.737   5.462  10.809  2.9881 -1.7879  1.8188
  611MOL0     H82425   7.833   5.607  10.761  2.7764 -1.1216  1.0851
  611MOL0     H82426   7.899   5.337  10.635  2.1957 -0.0761 -1.7713
  611MOL0     H82427   7.986   5.490  10.647 -0.1187 -0.4754 -0.1822
  611MOL0     H82428   8.036   5.451  10.878 -0.5120  0.8307  0.3328
  611MOL0     H82429   7.925   5.317  10.882  1.4998 -2.0071 -0.6700
  611MOL0     H82430   8.079   5.182  10.722  3.8889 -1.2176  0.4099
  611MOL0     H82431   8.180   5.323  10.721 -1.0654  0.3086 -1.4354
  611MOL0     H82432   8.223   5.108  10.864  2.5681 -0.0802  0.6226
  611MOL0     H82433   8.111   5.185  10.986 -1.2359  0.5772 -1.5461
  611MOL0     H82434   8.294   5.389  10.935  1.4523  1.1060 -1.4585
  611MOL0     H82435   8.338   5.249  11.040  0.2416 -2.4848 -0.8033
  611MOL0     H82436   8.447   5.465  10.772  1.9717  0.1481 -0.8496
  611MOL0     H82437   8.594   5.340  10.483 -1.4091 -2.3959  0.9225
  611MOL0     H82438   8.605   5.490  10.588 -0.7772  0.2798 -1.7246
  611MOL0     H82439   8.813   5.272  10.536  2.5504  0.2659 -0.7921
  611MOL0     H82440   8.822   5.437  10.501 -1.8168  0.2233  0.0869
  611MOL0     H82441   8.800   5.329  10.783  1.4313 -0.8695  0.2593
  611MOL0     H82442   8.811   5.505  10.726  0.7648 -0.2879 -1.4449
  611MOL0     H82443   9.032   5.453  10.635 -2.7870  2.3942  0.7611
  611MOL0     H82444   9.032   5.291  10.713 -1.0046  0.3170  0.1200
  611MOL0     H82445   9.250   5.361  10.694  2.1871  1.6283 -1.7950
  611MOL0     H82446   9.471   5.446  10.742  0.3433 -1.8042  0.9347
  611MOL0     H82447   9.771   5.761  10.744 -2.6755 -0.4621 -0.2274
  611MOL0     H82448  10.009   5.834  10.772  0.8511  1.0523  1.9305
  611MOL0     H82449  10.279   5.711  10.766 -2.6517  0.7336 -0.7499
  611MOL0     H82450  10.220   5.873  10.805  0.1732  0.7054  0.9830
  611MOL0     H82451  10.471   5.847  10.820 -1.8687 -0.6710  0.0067
  611MOL0     H82452  10.396   5.902  10.969  1.2270  0.7012  0.1563
  611MOL0     H82453  10.406   5.699  11.064 -1.5087  3.1574  0.0903
  611MOL0     H82454  10.472   5.612  10.931 -0.1928  1.3623 -0.7133
  611MOL0     H82455  10.621   5.853  11.063  1.1937 -0.6633  1.1851
  611MOL0     H82456  10.671   5.763  10.915  0.2695 -1.3312 -0.1831
  611MOL0     H82457  10.740   5.586  11.038  0.5792  0.1212 -0.0839
  611MOL0     H82458  10.594   5.601  11.151 -1.3813  0.0989 -2.4765
  611MOL0     H82459  10.844   5.780  11.176  1.9912 -1.8646  1.5236
  611MOL0     H82460  10.702   5.749  11.283 -0.5433 -0.0146 -1.6932
  611MOL0     H82461  10.782   5.491  11.242 -1.8527  0.0246  1.4269
  611MOL0     H82462  10.809   5.577  11.396  0.0469  1.0198  1.0905
  611MOL0     H82463  10.993   5.556  11.148  0.0318  0.8223 -0.1342
  611MOL0     H82464  11.039   5.643  11.291  0.1472 -0.0307  0.2822
  611MOL0     H82465  10.065   5.535  11.067 -0.3592  0.0064  0.3785
  611MOL0     H82466   9.833   5.455  11.044 -3.4633  1.0800  1.0188
  611MOL0     H82467   9.354   5.658  11.071 -0.7227 -0.2470  0.4130
  611MOL0     H82468   9.109   5.613  11.030  0.2901 -0.1616  2.1148
  611MOL0     H82469   7.505   5.873  10.609  0.5490 -0.3379  0.6980
  611MOL0     H82470   7.349   6.054  10.542  1.1343 -0.6195  0.4664
  611MOL0     H82471   6.751   6.014  10.325 -1.1794  1.8882  2.1864
  611MOL0     H82472   6.602   6.161  10.218 -1.0414  1.5824 -3.2150
  611MOL0     H82473   6.479   6.336  10.206 -0.0297  1.6707  1.6768
  611MOL0     H82474   6.513   6.311  10.025 -2.5567  2.3871 -0.9127
  611MOL0     H82475   6.491   6.549  10.006  1.6077 -0.5770  0.7651
  611MOL0     H82476   6.461   6.576  10.176 -0.6931  0.1931  0.3731
  611MOL0     H82477   6.237   6.584  10.074 -2.5670 -1.5449  0.9641
  611MOL0     H82478   6.252   6.432  10.151  3.8876 -1.2239  1.7164
  611MOL0     H82479   6.322   6.464   9.864  0.7888 -0.2902  0.5405
  611MOL0     H82480   6.292   6.312   9.939  0.4839 -0.5058  1.5246
  611MOL0     H82481   5.889   6.389   9.917  0.7824  0.3701  2.2570
  611MOL0     H82482   6.914   6.427  10.109 -0.5597  0.4174 -0.8177
  611MOL0     H82483   7.162   6.257  10.108 -2.2487  0.6541 -0.9331
  611MOL0     H82484   7.132   6.408  10.187 -0.1193  0.2846 -2.3063
  611MOL0     H82485   7.186   6.277  10.295 -1.7044  0.4217  1.1693
  612MOL0     O82486   2.007   6.380   8.014 -0.3848  0.1588  0.0692
  612MOL0     C82487   1.992   6.499   7.993  0.2572 -0.2984 -0.3721
  612MOL0     O82488   2.085   6.592   8.024  0.1011  0.0003 -0.7756
  612MOL0     C82489   2.195   6.559   8.109  2.1761 -0.3413 -0.0759
  612MOL0     C82490   2.190   6.583   8.249 -0.8248 -0.0330 -0.2250
  612MOL0     C82491   2.295   6.538   8.326 -0.3471  0.4324 -0.4061
  612MOL0     C82492   2.410   6.479   8.265  0.0720  0.4006 -0.1962
  612MOL0     O82493   2.512   6.432   8.334  0.0773 -0.1301 -0.5259
  612MOL0     C82494   2.505   6.423   8.477 -0.4152 -0.0929 -1.3152
  612MOL0     C82495   2.634   6.358   8.527  0.0774  0.3818 -0.3797
  612MOL0     C82496   2.755   6.443   8.483  0.1529  0.1614 -0.2738
  612MOL0     C82497   2.883   6.407   8.561 -0.0927  0.2975 -0.6713
  612MOL0     C82498   3.002   6.501   8.535 -0.4881 -0.0113  0.3500
  612MOL0     C82499   3.122   6.456   8.621  1.1567  0.3675  0.5862
  612MOL0     C82500   3.216   6.570   8.639  0.0079 -0.3204 -0.2197
  612MOL0     C82501   3.269   6.633   8.513  0.8930  0.1998  0.8503
  612MOL0     N82502   3.373   6.549   8.448 -0.3637  0.6150  0.2507
  612MOL0     C82503   3.496   6.507   8.514  1.3406 -0.0185  0.3500
  612MOL0     C82504   3.574   6.457   8.422 -0.4909  0.3738 -0.1815
  612MOL0     C82505   3.709   6.384   8.446  0.9936  0.0356  0.6122
  612MOL0     C82506   3.824   6.480   8.458  0.7849  0.1080 -0.1358
  612MOL0     C82507   3.954   6.413   8.442  0.1074  0.0108  0.3499
  612MOL0     C82508   4.073   6.511   8.467  0.3503 -0.1271  0.4601
  612MOL0     O82509   4.088   6.619   8.378 -0.7018 -0.4966 -0.1350
  612MOL0     C82510   4.024   6.736   8.418  0.7584  0.4130  0.2922
  612MOL0     C82511   4.055   6.800   8.535 -0.0289  0.4363 -0.1230
  612MOL0     C82512   3.996   6.926   8.561  0.0319 -1.0572 -0.7281
  612MOL0     C82513   3.903   6.985   8.484  0.1612 -0.8183 -0.1429
  612MOL0     C82514   3.843   7.122   8.517  0.3215  1.1412  0.1957
  612MOL0     O82515   3.750   7.167   8.430  0.3934  0.6624 -0.5082
  612MOL0     C82516   3.675   7.278   8.462  0.7554  0.2377  0.5020
  612MOL0     C82517   3.595   7.276   8.582 -0.4930 -0.0870 -0.6178
  612MOL0     C82518   3.522   7.388   8.610  0.2181  0.5241  0.3492
  612MOL0     C82519   3.523   7.494   8.528 -0.1997 -0.7838  0.5513
  612MOL0     O82520   3.469   7.614   8.585  0.3430  0.1456 -0.4786
  612MOL0     C82521   3.439   7.729   8.497  0.1442  0.2486  0.1266
  612MOL0     C82522   3.565   7.814   8.509 -0.5317 -0.6579 -0.6184
  612MOL0     C82523   3.549   7.961   8.462 -0.2563  0.2508  0.4410
  612MOL0     C82524   3.497   7.960   8.323  0.3508  0.2398  0.2602
  612MOL0     C82525   3.473   8.107   8.276  0.4340  0.2094 -0.1867
  612MOL0     C82526   3.479   8.128   8.130 -0.4762 -0.8160  1.0407
  612MOL0     C82527   3.626   8.149   8.081  0.0061  0.4244  0.6097
  612MOL0     C82528   3.629   8.138   7.932  0.7408  0.7581 -0.1456
  612MOL0    Cl82529   3.788   8.165   7.851  0.0817 -0.2194  0.1510
  612MOL0     C82530   3.593   7.496   8.409 -0.9041  0.1405 -0.4880
  612MOL0     C82531   3.668   7.385   8.367  0.1243  0.4691  0.5540
  612MOL0     O82532   3.870   7.172   8.625 -0.0331  0.2588  0.0893
  612MOL0     C82533   3.868   6.912   8.364 -0.3234 -0.3285  0.0700
  612MOL0     C82534   3.935   6.798   8.332  0.1297 -0.2151  0.8689
  612MOL0     N82535   3.503   6.452   8.308 -0.1643  0.6046 -0.0069
  612MOL0     N82536   3.387   6.509   8.318  0.5489  0.3701 -0.0039
  612MOL0     C82537   2.409   6.454   8.127  0.0675  0.9336 -0.1425
  612MOL0     C82538   2.303   6.498   8.050 -0.5373 -0.8505 -0.5233
  612MOL0     C82539   1.872   6.552   7.920 -0.5524  0.1846 -0.1333
  612MOL0     C82540   1.887   6.669   7.838 -0.5102  1.1558  0.6082
  612MOL0     C82541   1.784   6.731   7.781  0.0289 -0.0231 -0.4436
  612MOL0     C82542   1.654   6.681   7.790 -0.9508 -0.3452 -1.0244
  612MOL0     O82543   1.557   6.758   7.729  0.0976  0.2037  0.1348
  612MOL0     C82544   1.416   6.724   7.752  0.5012 -0.2947 -0.3936
  612MOL0     C82545   1.334   6.827   7.676  0.2809  0.2990  0.5099
  612MOL0     C82546   1.343   6.790   7.525 -0.4521 -0.2525 -0.2293
  612MOL0     C82547   1.279   6.895   7.439  0.8641  0.3191  0.0378
  612MOL0     C82548   1.246   6.841   7.306 -0.1335  0.1988 -0.1051
  612MOL0     C82549   1.222   6.794   7.198 -0.1277  0.2362  1.1852
  612MOL0     C82550   1.635   6.572   7.872  0.2372  0.5654  0.1457
  612MOL0     C82551   1.742   6.511   7.941  0.3910  0.5429 -0.0805
  612MOL0     C82552   1.721   6.404   8.048  0.8763  0.2623  0.0158
  612MOL0     H82553   2.110   6.640   8.294 -1.2416  0.9029 -2.0801
  612MOL0     H82554   2.292   6.562   8.432 -0.2437 -1.1802 -0.0113
  612MOL0     H82555   2.494   6.522   8.522 -1.9800 -1.0039  0.4378
  612MOL0     H82556   2.423   6.358   8.509 -0.5495  0.5766 -0.2566
  612MOL0     H82557   2.643   6.257   8.486 -1.2661  0.9660 -2.2378
  612MOL0     H82558   2.628   6.353   8.636  0.0561 -0.5363 -0.4199
  612MOL0     H82559   2.742   6.550   8.504  1.1356  0.4088 -0.8827
  612MOL0     H82560   2.768   6.425   8.376  1.6255 -1.5042  0.1328
  612MOL0     H82561   2.863   6.402   8.669  2.5542 -2.7987 -0.1766
  612MOL0     H82562   2.903   6.303   8.536  2.3321  0.4037  0.5611
  612MOL0     H82563   3.033   6.511   8.430  2.4771  2.5980  1.3334
  612MOL0     H82564   2.974   6.602   8.566  0.9697  0.4769  0.1628
  612MOL0     H82565   3.092   6.418   8.719  3.0625  0.8952  1.4276
  612MOL0     H82566   3.179   6.371   8.580  2.8166  1.6231  0.1999
  612MOL0     H82567   3.303   6.557   8.703 -0.4603 -0.6126  0.3744
  612MOL0     H82568   3.158   6.642   8.699 -1.2491 -3.0074  2.0371
  612MOL0     H82569   3.189   6.668   8.447 -0.2854  1.0254  2.6306
  612MOL0     H82570   3.312   6.727   8.547  2.6566 -1.2891  3.0185
  612MOL0     H82571   3.524   6.516   8.619  3.3319  1.1509 -0.2325
  612MOL0     H82572   3.701   6.319   8.534 -1.0140 -0.3523  0.1905
  612MOL0     H82573   3.722   6.319   8.359  0.5066 -0.1560  0.6762
  612MOL0     H82574   3.805   6.555   8.381 -1.8674 -1.2086 -0.8641
  612MOL0     H82575   3.814   6.526   8.557 -2.0325 -1.5666  0.4366
  612MOL0     H82576   3.968   6.393   8.335 -1.4410  0.7121 -0.0164
  612MOL0     H82577   3.953   6.319   8.498 -0.6240 -1.5653 -2.1339
  612MOL0     H82578   4.163   6.448   8.462 -0.3774 -1.4400  2.4427
  612MOL0     H82579   4.059   6.544   8.570  0.3328  0.4895  0.2623
  612MOL0     H82580   4.130   6.751   8.596 -2.0610 -2.0961  0.5454
  612MOL0     H82581   4.032   6.971   8.653 -2.0372 -0.9462  0.0903
  612MOL0     H82582   3.601   7.205   8.663 -1.1558  2.3959  1.7708
  612MOL0     H82583   3.461   7.386   8.700  1.1592  0.3131  0.9909
  612MOL0     H82584   3.415   7.705   8.393  2.5660  0.8159 -0.6346
  612MOL0     H82585   3.349   7.773   8.542  2.0418  3.6770  0.9297
  612MOL0     H82586   3.589   7.818   8.616  1.7359 -0.7747 -1.0596
  612MOL0     H82587   3.646   7.767   8.453  1.4309  1.5881  0.1642
  612MOL0     H82588   3.486   8.015   8.532  1.7260  2.5089  0.6129
  612MOL0     H82589   3.646   8.011   8.474 -0.1866  0.8649 -2.1804
  612MOL0     H82590   3.405   7.903   8.311  1.3836 -1.0795 -1.9694
  612MOL0     H82591   3.571   7.913   8.257  1.4052 -0.2082  1.7116
  612MOL0     H82592   3.557   8.165   8.316  0.7832 -0.4669  0.0743
  612MOL0     H82593   3.382   8.152   8.316  1.1528  1.1383  0.4508
  612MOL0     H82594   3.413   8.064   8.072 -0.5862  0.0102  0.2396
  612MOL0     H82595   3.449   8.233   8.126  3.5090  0.4773 -2.1882
  612MOL0     H82596   3.690   8.069   8.119  0.6780 -0.0149 -1.3071
  612MOL0     H82597   3.682   8.242   8.097  4.5398 -1.7791 -0.6627
  612MOL0     H82598   3.594   8.040   7.899  1.6848  0.2203  0.3973
  612MOL0     H82599   3.547   8.197   7.891  0.7401  0.4496 -0.5881
  612MOL0     H82600   3.601   7.583   8.345  0.6189  1.4114  1.3203
  612MOL0     H82601   3.736   7.379   8.282  0.1394 -0.4465  0.6170
  612MOL0     H82602   3.785   6.943   8.302  0.4570  1.3463 -0.1833
  612MOL0     H82603   3.916   6.760   8.232 -0.3159 -1.7073  1.4955
  612MOL0     H82604   2.497   6.400   8.092 -0.5382  1.8361 -3.4530
  612MOL0     H82605   2.289   6.472   7.945 -0.5457 -2.1656 -0.2135
  612MOL0     H82606   1.988   6.704   7.822  1.0501 -2.9468  0.1556
  612MOL0     H82607   1.797   6.822   7.723 -0.4660  0.4837  0.2314
  612MOL0     H82608   1.380   6.731   7.854 -0.7011  1.5926 -0.8939
  612MOL0     H82609   1.397   6.622   7.718  0.4814 -0.8742  1.3108
  612MOL0     H82610   1.376   6.928   7.678  0.2789  0.3152 -0.0081
  612MOL0     H82611   1.232   6.817   7.715  0.2742  0.1076  0.4447
  612MOL0     H82612   1.296   6.693   7.511  0.4864 -1.4493  3.5759
  612MOL0     H82613   1.447   6.787   7.493 -0.7680 -1.3171 -1.1934
  612MOL0     H82614   1.190   6.935   7.488  1.6815  1.6224  0.4886
  612MOL0     H82615   1.351   6.976   7.425 -0.1635  1.4400  1.0185
  612MOL0     H82616   1.197   6.748   7.104  0.4557 -1.8522  2.0190
  612MOL0     H82617   1.533   6.542   7.894  0.6621 -0.7253  0.4319
  612MOL0     H82618   1.748   6.300   8.024 -0.3562 -0.0315 -0.1698
  612MOL0     H82619   1.778   6.434   8.137 -1.2982 -2.7500  2.6926
  612MOL0     H82620   1.615   6.414   8.075  0.4610  0.0033 -1.4592
  613MOL0     O82621   8.596   8.939   8.220 -0.0694  0.6150 -0.7060
  613MOL0     C82622   8.528   8.884   8.307  0.1588  0.9061  0.5718
  613MOL0     O82623   8.580   8.802   8.406 -0.3245 -0.2814 -0.2896
  613MOL0     C82624   8.707   8.795   8.459 -0.9071  0.3577 -0.7083
  613MOL0     C82625   8.718   8.713   8.579 -0.2183  0.0925 -0.0295
  613MOL0     C82626   8.842   8.705   8.652 -0.3246 -0.0273 -0.1995
  613MOL0     C82627   8.961   8.776   8.596 -0.2862  0.0276 -0.9821
  613MOL0     O82628   9.067   8.749   8.674  0.2428 -0.1532  0.1616
  613MOL0     C82629   9.170   8.848   8.665 -0.5764  1.1696 -0.6138
  613MOL0     C82630   9.277   8.800   8.766 -0.1237 -0.3030 -0.4698
  613MOL0     C82631   9.390   8.738   8.683 -0.9479 -0.2652 -0.4677
  613MOL0     C82632   9.493   8.847   8.632 -0.2029 -0.0769 -0.0409
  613MOL0     C82633   9.601   8.778   8.547 -0.3236  0.5843  0.3642
  613MOL0     C82634   9.701   8.879   8.474  0.9788 -0.4072 -1.0771
  613MOL0     C82635   9.779   8.967   8.573 -0.3071 -0.3703 -0.9048
  613MOL0     C82636   9.893   9.040   8.503 -0.2798 -0.0562 -0.5291
  613MOL0     N82637  10.010   8.962   8.464  0.3330  0.1357  0.0143
  613MOL0     C82638  10.106   8.929   8.551 -0.3029 -0.4738  0.1059
  613MOL0     C82639  10.200   8.858   8.481  0.2207  0.4858  0.3151
  613MOL0     C82640  10.328   8.787   8.520 -1.0394 -0.5271  0.3340
  613MOL0     C82641  10.371   8.821   8.666 -0.2754 -0.5059  0.1552
  613MOL0     C82642  10.497   8.742   8.707 -0.6973 -0.2717  0.2169
  613MOL0     C82643  10.559   8.761   8.851 -0.1520 -0.7451  0.6047
  613MOL0     O82644  10.663   8.662   8.872  0.7964 -0.2749  0.3114
  613MOL0     C82645  10.788   8.673   8.823  0.4357 -0.5552 -0.4680
  613MOL0     C82646  10.835   8.773   8.741 -0.2436  0.1175  0.1327
  613MOL0     C82647  10.964   8.760   8.693  0.2943  0.3739 -1.2472
  613MOL0     C82648  11.045   8.640   8.719  0.5640 -0.0283  0.0998
  613MOL0     C82649  11.186   8.631   8.663  0.4012  1.2668  0.0752
  613MOL0     O82650  11.205   8.692   8.541  0.1627  0.4119 -0.1085
  613MOL0     C82651  11.324   8.662   8.472 -0.0837  0.0094 -1.1126
  613MOL0     C82652  11.427   8.571   8.508  0.2027  0.4034 -0.1993
  613MOL0     C82653  11.547   8.569   8.434  0.3477 -0.7334 -0.0449
  613MOL0     C82654  11.557   8.638   8.312  0.2047  0.0518  0.8482
  613MOL0     O82655  11.667   8.632   8.224  0.6041  0.2712  0.3282
  613MOL0     C82656  11.765   8.725   8.250 -0.7342 -0.3400  0.4519
  613MOL0     C82657  11.864   8.765   8.132 -0.9691  0.8232  0.0508
  613MOL0     C82658  11.950   8.652   8.070  0.2069 -0.6480 -0.7402
  613MOL0     C82659  12.040   8.583   8.175 -0.1097  0.4774  0.3814
  613MOL0     C82660  12.148   8.675   8.225 -0.3962  0.3963 -0.5621
  613MOL0     C82661  12.255   8.719   8.129  0.2664  0.4556  0.7343
  613MOL0     C82662  12.316   8.608   8.050 -0.6816 -0.0794  0.4475
  613MOL0     C82663  12.369   8.499   8.143  0.2278  0.5948 -0.4091
  613MOL0    Cl82664  12.495   8.558   8.262  0.3005  0.1989  0.1709
  613MOL0     C82665  11.451   8.722   8.270 -0.0994 -0.2558 -0.2673
  613MOL0     C82666  11.334   8.734   8.356 -0.7656 -0.4898 -0.6252
  613MOL0     O82667  11.263   8.545   8.713 -0.0656 -0.5154  0.1320
  613MOL0     C82668  10.997   8.547   8.811 -0.5452  0.4574  0.4983
  613MOL0     C82669  10.866   8.566   8.859  0.1582 -0.2847  0.7827
  613MOL0     N82670  10.159   8.856   8.354 -0.2079 -0.2818  0.1272
  613MOL0     N82671  10.042   8.914   8.340 -0.7152 -0.5492  0.0955
  613MOL0     C82672   8.939   8.865   8.486 -0.4152  0.7556 -0.3793
  613MOL0     C82673   8.817   8.862   8.413  0.6610  0.3418 -0.4479
  613MOL0     C82674   8.376   8.883   8.289  0.4595 -0.3424 -0.4659
  613MOL0     C82675   8.304   8.763   8.288 -0.4034 -0.1827 -0.0341
  613MOL0     C82676   8.168   8.758   8.259  0.2282  1.0128  0.2083
  613MOL0     C82677   8.093   8.870   8.234 -1.1491 -0.5811  0.0831
  613MOL0     O82678   7.965   8.841   8.188  1.0175 -0.0523 -0.2574
  613MOL0     C82679   7.858   8.935   8.217 -0.1903 -0.1299 -0.4994
  613MOL0     C82680   7.844   9.052   8.118 -0.1780  0.0806  0.3287
  613MOL0     C82681   7.746   9.171   8.150 -0.6189 -0.5764  0.3343
  613MOL0     C82682   7.808   9.263   8.250  0.0431 -0.4716 -0.1063
  613MOL0     C82683   7.923   9.340   8.188 -0.5068  0.6992 -1.0823
  613MOL0     C82684   8.029   9.386   8.148 -0.1006  0.6135  0.4257
  613MOL0     C82685   8.158   8.989   8.240  0.3030 -0.3324 -0.6888
  613MOL0     C82686   8.293   9.002   8.278  0.5225  0.1999  0.5148
  613MOL0     C82687   8.359   9.131   8.266 -0.0145  0.3380  0.3589
  613MOL0     H82688   8.628   8.660   8.612 -0.9592 -0.3021 -2.5129
  613MOL0     H82689   8.854   8.642   8.740  0.0826 -1.0148 -0.9327
  613MOL0     H82690   9.203   8.852   8.561  1.1341  4.0223 -0.0672
  613MOL0     H82691   9.135   8.947   8.699  1.2801  1.2995  1.0680
  613MOL0     H82692   9.227   8.730   8.834 -0.4881  1.6566  1.3741
  613MOL0     H82693   9.317   8.886   8.820 -2.1970 -0.0729  0.8131
  613MOL0     H82694   9.355   8.674   8.602 -0.4034  1.1891 -1.9051
  613MOL0     H82695   9.445   8.681   8.758  1.8968  3.3116  0.4145
  613MOL0     H82696   9.432   8.915   8.571 -0.9070 -0.1479  0.5708
  613MOL0     H82697   9.531   8.903   8.717  1.0784  0.1863 -0.7624
  613MOL0     H82698   9.662   8.715   8.613 -1.5970 -0.2682  0.7881
  613MOL0     H82699   9.560   8.718   8.465  2.3330  1.3252 -1.6502
  613MOL0     H82700   9.761   8.819   8.406  0.2434 -2.8989  0.3684
  613MOL0     H82701   9.635   8.946   8.417 -1.3882 -0.1913  1.6833
  613MOL0     H82702   9.819   8.901   8.650  1.0988 -0.7502 -1.9074
  613MOL0     H82703   9.724   9.042   8.630 -0.5047 -1.7111  0.7606
  613MOL0     H82704   9.848   9.087   8.415  0.7401  3.1429  0.5360
  613MOL0     H82705   9.937   9.116   8.568  1.9465 -1.3189 -0.4505
  613MOL0     H82706  10.108   8.964   8.653 -0.9993  1.5247 -0.5298
  613MOL0     H82707  10.314   8.681   8.498  3.5619 -0.9548 -1.8458
  613MOL0     H82708  10.402   8.823   8.448 -0.5474 -0.1098  1.0327
  613MOL0     H82709  10.401   8.925   8.672  0.3372 -0.6363 -0.5421
  613MOL0     H82710  10.292   8.806   8.740 -0.9854 -0.4241 -0.5772
  613MOL0     H82711  10.584   8.751   8.642 -0.9775  3.6622  0.1385
  613MOL0     H82712  10.478   8.635   8.700 -0.4529 -0.3453  0.6487
  613MOL0     H82713  10.481   8.745   8.926 -2.0910  1.0569 -0.8953
  613MOL0     H82714  10.611   8.858   8.858 -0.2437 -0.5413 -1.2098
  613MOL0     H82715  10.771   8.853   8.705  0.1839 -0.6135 -2.4680
  613MOL0     H82716  11.005   8.842   8.634 -0.3019  3.1245  1.8769
  613MOL0     H82717  11.423   8.489   8.579 -0.2327 -0.3626 -1.0870
  613MOL0     H82718  11.641   8.521   8.460  1.9347  1.9388 -0.4889
  613MOL0     H82719  11.726   8.816   8.295 -2.4480 -1.0065  0.3833
  613MOL0     H82720  11.825   8.691   8.336 -2.1683 -1.8086  0.9340
  613MOL0     H82721  11.804   8.811   8.054  0.5820  1.0757 -1.0353
  613MOL0     H82722  11.933   8.843   8.168  2.4969 -2.4487  1.2495
  613MOL0     H82723  11.892   8.572   8.023 -0.9081 -0.1805 -0.1929
  613MOL0     H82724  12.003   8.694   7.984  0.7154 -1.0383 -0.6226
  613MOL0     H82725  12.079   8.488   8.137  2.5420  1.8641 -0.6890
  613MOL0     H82726  11.971   8.553   8.253 -3.6296  1.6756 -2.0372
  613MOL0     H82727  12.199   8.621   8.306  1.5732  0.3502 -1.7805
  613MOL0     H82728  12.114   8.765   8.278  2.4578 -1.0482  4.3904
  613MOL0     H82729  12.203   8.782   8.056 -0.4808  0.1142  0.9637
  613MOL0     H82730  12.326   8.786   8.178  0.0709  1.9133 -0.8701
  613MOL0     H82731  12.412   8.645   8.014 -0.4723 -0.7780  0.2736
  613MOL0     H82732  12.248   8.568   7.974 -1.4625  0.2887  0.9426
  613MOL0     H82733  12.289   8.440   8.187  1.4138 -0.0526  0.9671
  613MOL0     H82734  12.428   8.433   8.079  0.9501  0.6666  0.1684
  613MOL0     H82735  11.458   8.787   8.184 -0.7264 -2.3291 -1.9559
  613MOL0     H82736  11.252   8.795   8.322 -0.6127  0.3578  0.4840
  613MOL0     H82737  11.056   8.460   8.836 -2.1591 -1.4432 -1.8193
  613MOL0     H82738  10.829   8.489   8.927  3.6313 -1.4520  1.6030
  613MOL0     H82739   9.019   8.924   8.443 -0.5414  2.4901  1.6456
  613MOL0     H82740   8.813   8.926   8.325  2.0772  2.7797  1.1509
  613MOL0     H82741   8.356   8.669   8.300 -2.2464 -1.2169  0.1513
  613MOL0     H82742   8.128   8.658   8.247 -0.1513  1.1877  0.0043
  613MOL0     H82743   7.880   8.974   8.317 -2.4861 -2.3373  0.9863
  613MOL0     H82744   7.764   8.880   8.215  0.3272 -1.0109 -0.7680
  613MOL0     H82745   7.811   9.009   8.023  5.2434 -3.0227 -0.5856
  613MOL0     H82746   7.944   9.091   8.098 -0.3693  0.9749  1.0483
  613MOL0     H82747   7.655   9.131   8.196 -0.8336  1.1110  1.4671
  613MOL0     H82748   7.723   9.226   8.059 -0.5586  1.0142  1.2405
  613MOL0     H82749   7.734   9.337   8.281  0.5293 -0.0512  0.0714
  613MOL0     H82750   7.848   9.204   8.333 -0.6736 -1.5439 -0.5051
  613MOL0     H82751   8.126   9.420   8.117 -0.3626 -0.3326 -1.5505
  613MOL0     H82752   8.098   9.076   8.215 -2.5301 -1.8335  0.4127
  613MOL0     H82753   8.414   9.150   8.173  2.1694  0.7803  1.6658
  613MOL0     H82754   8.295   9.219   8.282  0.8958  1.1480 -0.2844
  613MOL0     H82755   8.425   9.141   8.353 -3.8618  0.9863  3.4474
  614MOL0     O82756   1.917   4.110   0.145 -0.3204 -0.7098  0.4675
  614MOL0     C82757   1.904   4.212   0.214  0.4521 -0.0624  0.0725
  614MOL0     O82758   2.004   4.279   0.282 -0.4792  0.2078  0.1258
  614MOL0     C82759   2.130   4.234   0.285  0.7013 -0.8178  0.5821
  614MOL0     C82760   2.237   4.331   0.294  0.7370  0.8004 -0.7857
  614MOL0     C82761   2.370   4.293   0.301  0.7360 -0.2268 -0.3771
  614MOL0     C82762   2.407   4.158   0.290 -1.3405  0.2395 -0.7638
  614MOL0     O82763   2.544   4.117   0.313 -0.7587  0.3898  0.1976
  614MOL0     C82764   2.591   4.045   0.196 -0.3916 -0.3551  0.2033
  614MOL0     C82765   2.743   4.052   0.195  0.2436  0.1363 -0.0329
  614MOL0     C82766   2.806   4.009   0.059  0.2728 -0.5828 -0.0504
  614MOL0     C82767   2.944   4.070   0.045  0.3033  1.1166 -0.5428
  614MOL0     C82768   3.006   4.028  -0.088  0.5392 -0.5256 -0.2654
  614MOL0     C82769   3.146   4.099  -0.092 -0.7664  0.4051  0.9345
  614MOL0     C82770   3.226   4.034  -0.208 -0.0295  0.2382 -0.3860
  614MOL0     C82771   3.282   3.898  -0.155  0.0421  0.3999 -0.0063
  614MOL0     N82772   3.384   3.861  -0.247 -0.6897  0.0602 -0.2877
  614MOL0     C82773   3.370   3.833  -0.384 -0.3088  0.3929  0.2275
  614MOL0     C82774   3.497   3.825  -0.435  0.9878 -0.1755  0.5515
  614MOL0     C82775   3.525   3.791  -0.587  0.0044 -0.3003 -0.7121
  614MOL0     C82776   3.659   3.843  -0.633 -0.8743  0.3246  0.3293
  614MOL0     C82777   3.778   3.746  -0.615  0.0588 -0.4245  0.0133
  614MOL0     C82778   3.917   3.812  -0.638  0.7075 -0.8943 -0.3792
  614MOL0     O82779   3.910   3.894  -0.753 -0.1263 -1.1136  0.2211
  614MOL0     C82780   4.024   3.937  -0.812  0.6746 -0.5132  0.3042
  614MOL0     C82781   4.144   3.965  -0.743  0.3643 -0.3737 -0.0313
  614MOL0     C82782   4.249   4.011  -0.817  0.9237 -0.8792  0.0755
  614MOL0     C82783   4.241   4.056  -0.953  0.2564  0.1871 -0.7245
  614MOL0     C82784   4.356   4.106  -1.028  0.5008 -0.5869 -0.7722
  614MOL0     O82785   4.459   4.156  -0.961  0.1346 -0.8623  0.0359
  614MOL0     C82786   4.573   4.214  -1.016 -0.0080 -0.0686  0.2069
  614MOL0     C82787   4.664   4.257  -0.923 -0.1696  0.3570  0.3796
  614MOL0     C82788   4.792   4.295  -0.973 -0.3757  1.0779 -0.2410
  614MOL0     C82789   4.821   4.299  -1.109  0.2615 -0.0196  0.0718
  614MOL0     O82790   4.948   4.351  -1.142  0.6383 -0.0120  0.2808
  614MOL0     C82791   4.998   4.330  -1.272 -0.5964 -0.4394 -0.4207
  614MOL0     C82792   5.150   4.350  -1.274 -0.1098  0.1480 -1.0049
  614MOL0     C82793   5.208   4.238  -1.183 -0.3656  0.7178 -0.9413
  614MOL0     C82794   5.357   4.244  -1.148 -0.9823  0.1243  1.0299
  614MOL0     C82795   5.451   4.256  -1.266 -0.2341  0.3311  0.0095
  614MOL0     C82796   5.598   4.240  -1.216 -0.2244  0.6007 -0.1136
  614MOL0     C82797   5.699   4.229  -1.322 -0.3553 -0.5634  0.2165
  614MOL0     C82798   5.835   4.224  -1.251 -0.4747  0.2809  0.5747
  614MOL0    Cl82799   5.857   4.065  -1.186  0.1021  0.3424  0.4880
  614MOL0     C82800   4.722   4.263  -1.201 -0.1999 -0.3551 -0.1059
  614MOL0     C82801   4.603   4.226  -1.154 -0.2785  0.4088  0.9857
  614MOL0     O82802   4.342   4.121  -1.148 -0.5427 -0.5505  0.5129
  614MOL0     C82803   4.117   4.044  -1.013 -0.8306  0.7951  0.4637
  614MOL0     C82804   4.012   3.984  -0.940 -0.2490 -0.5643  0.6372
  614MOL0     N82805   3.580   3.856  -0.333  0.6934 -0.3393  0.1709
  614MOL0     N82806   3.511   3.894  -0.224  0.2098  0.2637  0.3008
  614MOL0     C82807   2.309   4.063   0.270 -0.2692  0.8381 -1.0320
  614MOL0     C82808   2.172   4.098   0.264  0.9786  0.0528  0.1124
  614MOL0     C82809   1.776   4.283   0.232 -0.0279  0.3724 -0.1321
  614MOL0     C82810   1.665   4.199   0.212 -0.2763  0.7340  0.1194
  614MOL0     C82811   1.539   4.249   0.235  0.7860 -0.5230 -0.0004
  614MOL0     C82812   1.518   4.390   0.251  0.2530 -0.0776  0.8158
  614MOL0     O82813   1.396   4.457   0.267 -0.2518 -0.0614 -0.5078
  614MOL0     C82814   1.282   4.372   0.247  0.0610  0.1085 -0.3780
  614MOL0     C82815   1.153   4.453   0.279 -0.5245  0.7897  0.3061
  614MOL0     C82816   1.031   4.368   0.243  0.4358  0.0947 -0.1093
  614MOL0     C82817   0.899   4.426   0.275  0.8035 -0.2019 -0.1931
  614MOL0     C82818   0.798   4.335   0.237 -0.6963  0.7217 -0.3911
  614MOL0     C82819   0.691   4.270   0.215 -0.5620  0.5281  0.0153
  614MOL0     C82820   1.630   4.471   0.263  0.3204  0.1830 -0.4725
  614MOL0     C82821   1.761   4.421   0.251  0.5943  0.5942  0.3886
  614MOL0     C82822   1.870   4.523   0.243  0.1580 -1.1226  0.7011
  614MOL0     H82823   2.213   4.436   0.305  0.5384  0.5227  2.2844
  614MOL0     H82824   2.442   4.373   0.319  0.2401  0.2996 -0.7042
  614MOL0     H82825   2.559   3.940   0.201 -0.3236 -0.3130  1.8897
  614MOL0     H82826   2.542   4.086   0.107 -3.3173  2.4386  2.8450
  614MOL0     H82827   2.783   3.973   0.259  2.2171  0.3989 -0.8578
  614MOL0     H82828   2.774   4.152   0.230 -2.3047  1.6379 -1.7153
  614MOL0     H82829   2.740   4.033  -0.025  0.0155 -0.0413  0.3035
  614MOL0     H82830   2.811   3.901   0.038 -0.8579  0.0068 -4.3701
  614MOL0     H82831   2.930   4.178   0.045  1.1218  1.2227 -0.0532
  614MOL0     H82832   3.001   4.037   0.132  0.9041 -0.4956 -1.5030
  614MOL0     H82833   3.011   3.918  -0.090  0.8479 -0.5075 -0.4457
  614MOL0     H82834   2.939   4.068  -0.163  0.4781  1.6819  0.8940
  614MOL0     H82835   3.129   4.203  -0.121  4.3134  0.7263 -2.1097
  614MOL0     H82836   3.205   4.106  -0.000 -0.5329  3.5886  0.6337
  614MOL0     H82837   3.300   4.105  -0.246 -1.1858  1.9655  0.4575
  614MOL0     H82838   3.159   4.016  -0.293 -0.7185  1.1990 -0.0520
  614MOL0     H82839   3.338   3.912  -0.063  3.2712 -0.7987 -1.6295
  614MOL0     H82840   3.204   3.823  -0.137  1.8009 -1.1652  1.5383
  614MOL0     H82841   3.273   3.823  -0.431 -2.0757 -1.1245  3.7835
  614MOL0     H82842   3.527   3.685  -0.613  0.7933 -0.8659  1.4152
  614MOL0     H82843   3.449   3.843  -0.646 -0.9508 -1.3878 -0.4928
  614MOL0     H82844   3.656   3.875  -0.737  0.6751  1.5389  0.6290
  614MOL0     H82845   3.676   3.936  -0.577 -0.9162 -0.3283  1.4611
  614MOL0     H82846   3.762   3.658  -0.678 -0.0347 -1.3946  1.3505
  614MOL0     H82847   3.785   3.707  -0.513  0.8014  2.7168  1.2762
  614MOL0     H82848   3.996   3.737  -0.650  1.4815  0.1644 -2.4494
  614MOL0     H82849   3.942   3.886  -0.561 -0.6649  0.3501 -1.0640
  614MOL0     H82850   4.160   3.937  -0.639  0.7488  1.2909  0.3770
  614MOL0     H82851   4.340   4.014  -0.759  1.2056 -2.5186 -0.2259
  614MOL0     H82852   4.647   4.254  -0.815  0.6772 -0.0260  0.5087
  614MOL0     H82853   4.872   4.316  -0.903  0.7735 -0.4234 -1.0559
  614MOL0     H82854   4.971   4.234  -1.317 -0.5451  0.6720 -3.0428
  614MOL0     H82855   4.951   4.397  -1.345  0.3340  1.2878  0.4994
  614MOL0     H82856   5.180   4.340  -1.379 -1.7396  0.5799 -1.5432
  614MOL0     H82857   5.174   4.443  -1.221 -2.2648  0.4566 -0.4991
  614MOL0     H82858   5.153   4.222  -1.090  0.4831 -0.8299 -0.6806
  614MOL0     H82859   5.200   4.145  -1.240 -3.1908 -0.5703  1.3521
  614MOL0     H82860   5.395   4.161  -1.089  0.9986  2.3663  3.1538
  614MOL0     H82861   5.370   4.338  -1.093 -3.0512  0.2318  1.4491
  614MOL0     H82862   5.438   4.352  -1.318 -1.1260 -0.2197 -0.8062
  614MOL0     H82863   5.423   4.175  -1.333  0.6460  1.0193 -1.2550
  614MOL0     H82864   5.619   4.317  -1.142 -0.5297  2.9943 -2.3459
  614MOL0     H82865   5.600   4.140  -1.171 -2.9472  0.0232 -1.0134
  614MOL0     H82866   5.700   4.319  -1.384  1.4448 -0.3667  0.4714
  614MOL0     H82867   5.686   4.142  -1.386 -1.9357  1.1594 -1.9671
  614MOL0     H82868   5.917   4.252  -1.318 -1.7153  2.2849 -0.1940
  614MOL0     H82869   5.844   4.295  -1.168  2.9827  1.7692 -0.8477
  614MOL0     H82870   4.739   4.292  -1.304 -0.5401  0.4482  0.0554
  614MOL0     H82871   4.536   4.184  -1.228 -0.9231  1.1050  1.1607
  614MOL0     H82872   4.110   4.039  -1.121  0.1347 -2.1026  0.4370
  614MOL0     H82873   3.917   3.963  -0.988  0.5558  0.6932 -1.6611
  614MOL0     H82874   2.328   3.957   0.258 -1.7376  0.7414 -2.9018
  614MOL0     H82875   2.103   4.015   0.252  0.1802  0.7182  0.0075
  614MOL0     H82876   1.673   4.092   0.202  0.3538  0.7327  0.5767
  614MOL0     H82877   1.456   4.183   0.213 -0.7866  1.7077 -1.2433
  614MOL0     H82878   1.284   4.278   0.303  0.5780 -0.6610 -1.6363
  614MOL0     H82879   1.275   4.352   0.140 -1.2479  1.5353 -0.5799
  614MOL0     H82880   1.146   4.545   0.220  0.9877  0.7969  0.1137
  614MOL0     H82881   1.158   4.469   0.388  1.1969 -0.7736  0.5000
  614MOL0     H82882   1.038   4.275   0.300 -0.9977 -2.2780 -3.4727
  614MOL0     H82883   1.039   4.350   0.136  1.6897 -1.3272  0.1735
  614MOL0     H82884   0.897   4.428   0.385  2.5464  0.2159 -0.1395
  614MOL0     H82885   0.885   4.525   0.230  2.6586  0.4692  0.5896
  614MOL0     H82886   0.597   4.219   0.211 -0.8731  0.8076  2.2325
  614MOL0     H82887   1.621   4.577   0.286 -0.3623  0.2861 -1.1905
  614MOL0     H82888   1.951   4.505   0.314  2.7127 -1.1144 -2.0158
  614MOL0     H82889   1.915   4.525   0.143  2.7019 -0.5040  1.7884
  614MOL0     H82890   1.844   4.626   0.269  2.4431 -0.9850  2.7637
  615MOL0     O82891   5.058   6.927   7.626  0.0475 -0.6242  0.3315
  615MOL0     C82892   5.058   6.883   7.510 -0.0384 -0.1023  0.4652
  615MOL0     O82893   5.171   6.869   7.430  1.0016 -0.8688 -0.2419
  615MOL0     C82894   5.287   6.925   7.473 -0.4410  0.1928  0.8999
  615MOL0     C82895   5.392   6.838   7.503 -0.3061 -0.2943 -0.6036
  615MOL0     C82896   5.500   6.897   7.569  0.0757 -0.0202 -0.1287
  615MOL0     C82897   5.521   7.035   7.578  0.0386  0.3571  0.3795
  615MOL0     O82898   5.624   7.082   7.654  0.0446 -0.6136 -0.6216
  615MOL0     C82899   5.609   7.217   7.717  0.0180  0.3153  0.5092
  615MOL0     C82900   5.712   7.232   7.828 -1.0187 -0.1661  0.3159
  615MOL0     C82901   5.853   7.221   7.767  0.7545  0.1647  0.2877
  615MOL0     C82902   5.968   7.224   7.875  0.5682 -0.3138 -0.9067
  615MOL0     C82903   5.998   7.093   7.961  0.4588  0.3807  0.8754
  615MOL0     C82904   6.149   7.087   7.996  0.5662 -0.5946  1.5197
  615MOL0     C82905   6.183   6.951   8.060  0.4926  0.5429  0.5544
  615MOL0     C82906   6.136   6.937   8.203  0.3053 -0.1308 -0.1046
  615MOL0     N82907   6.163   6.803   8.266  0.2465  0.6526  0.0193
  615MOL0     C82908   6.291   6.763   8.313  0.4493 -0.5012  0.4239
  615MOL0     C82909   6.265   6.642   8.363  0.1182  0.8224  0.5056
  615MOL0     C82910   6.367   6.559   8.434 -0.7471  0.5207 -0.0054
  615MOL0     C82911   6.343   6.411   8.409  0.1244 -0.0275  0.1488
  615MOL0     C82912   6.444   6.311   8.479  0.7435  0.1323 -0.7640
  615MOL0     C82913   6.585   6.347   8.498 -0.4214 -0.0598 -0.4100
  615MOL0     O82914   6.646   6.244   8.581 -0.5316  0.1735  0.3219
  615MOL0     C82915   6.779   6.262   8.595 -0.2896 -0.1388 -0.4401
  615MOL0     C82916   6.813   6.330   8.714  0.0103 -0.0871  0.2388
  615MOL0     C82917   6.947   6.343   8.756 -0.4489 -0.9034 -0.1075
  615MOL0     C82918   7.045   6.286   8.675  0.7197 -0.0799  0.4415
  615MOL0     C82919   7.186   6.275   8.725 -0.1018 -1.0333 -0.3463
  615MOL0     O82920   7.280   6.276   8.625  0.3698  0.3734  0.2938
  615MOL0     C82921   7.414   6.251   8.651  0.4349  0.1080 -0.0539
  615MOL0     C82922   7.508   6.326   8.579  0.2817 -0.6746  0.8424
  615MOL0     C82923   7.644   6.290   8.580 -0.1777 -0.0570 -0.1327
  615MOL0     C82924   7.686   6.191   8.665  0.3067 -0.4864 -1.0286
  615MOL0     O82925   7.818   6.169   8.683 -0.0114 -0.1581  0.2459
  615MOL0     C82926   7.908   6.189   8.571 -0.7330  0.7944  0.2084
  615MOL0     C82927   8.046   6.134   8.602 -0.6575  0.6783  0.9938
  615MOL0     C82928   8.118   6.095   8.479 -0.0501 -0.5404 -0.1267
  615MOL0     C82929   8.256   6.028   8.503  0.5079 -0.1934  0.4270
  615MOL0     C82930   8.359   6.047   8.394 -0.4690  0.5495 -0.2096
  615MOL0     C82931   8.483   5.948   8.417  0.3824 -0.3992  0.4327
  615MOL0     C82932   8.586   5.975   8.305 -0.3316 -0.5300 -0.5707
  615MOL0     C82933   8.696   5.869   8.284 -0.7497  1.0812  0.6178
  615MOL0    Cl82934   8.772   5.920   8.129 -0.0715 -0.0619 -0.0705
  615MOL0     C82935   7.592   6.116   8.735  1.2450 -0.1697  0.4966
  615MOL0     C82936   7.461   6.152   8.735  0.4410 -0.8183  0.0354
  615MOL0     O82937   7.210   6.275   8.844  0.0030  0.2478  0.0869
  615MOL0     C82938   7.010   6.233   8.548  0.6305 -0.1619 -0.3255
  615MOL0     C82939   6.874   6.215   8.514 -0.1869  0.3725 -0.1695
  615MOL0     N82940   6.138   6.605   8.344  0.3053 -0.4768  0.6239
  615MOL0     N82941   6.076   6.698   8.287  0.0330 -0.9673 -0.2331
  615MOL0     C82942   5.421   7.120   7.527  0.3386  0.2963 -0.0666
  615MOL0     C82943   5.308   7.065   7.465  0.0296  0.0014  0.0540
  615MOL0     C82944   4.939   6.813   7.468 -0.4064 -0.8877  0.0679
  615MOL0     C82945   4.955   6.684   7.405  0.2972 -0.4842  0.0541
  615MOL0     C82946   4.843   6.609   7.373  0.3226  0.3610  0.0042
  615MOL0     C82947   4.712   6.661   7.406 -1.1547 -1.0998  0.2735
  615MOL0     O82948   4.596   6.600   7.376 -0.5173 -0.6762  0.3912
  615MOL0     C82949   4.581   6.461   7.394  0.0220 -0.1283  0.3501
  615MOL0     C82950   4.472   6.415   7.311  1.1086 -0.8990  0.3064
  615MOL0     C82951   4.343   6.504   7.321 -0.4082  1.0639 -0.0407
  615MOL0     C82952   4.220   6.438   7.253  0.8151  0.0450 -0.7405
  615MOL0     C82953   4.110   6.534   7.237 -0.7267  0.3750  0.5961
  615MOL0     C82954   4.015   6.605   7.252 -0.7421  0.9509 -0.9004
  615MOL0     C82955   4.706   6.779   7.473 -0.0548 -0.4882 -0.2460
  615MOL0     C82956   4.817   6.856   7.504 -0.9784 -0.4880 -0.8735
  615MOL0     C82957   4.798   7.004   7.552 -0.5653  0.1951 -0.1282
  615MOL0     H82958   5.392   6.730   7.491 -1.5124 -0.2378 -1.1993
  615MOL0     H82959   5.578   6.833   7.609  0.8043  0.3947 -0.8609
  615MOL0     H82960   5.616   7.303   7.650  0.2308 -0.7971 -0.9486
  615MOL0     H82961   5.515   7.227   7.773 -0.9076  0.3246 -0.9972
  615MOL0     H82962   5.693   7.155   7.903 -3.8311  0.0804 -0.0522
  615MOL0     H82963   5.697   7.330   7.874 -2.3656 -0.8138  1.3148
  615MOL0     H82964   5.854   7.310   7.703  0.8104 -0.1425 -0.1437
  615MOL0     H82965   5.860   7.135   7.700  0.2978 -1.3569  2.0846
  615MOL0     H82966   6.061   7.245   7.822  1.9153  1.2094  1.8286
  615MOL0     H82967   5.953   7.310   7.941 -3.8193 -0.2661 -1.6818
  615MOL0     H82968   5.927   7.102   8.045 -0.6114  3.2202 -0.1934
  615MOL0     H82969   5.974   7.003   7.905  3.3932 -0.7251  1.2575
  615MOL0     H82970   6.215   7.097   7.910 -0.1106  1.2916  1.1812
  615MOL0     H82971   6.166   7.172   8.063 -0.1076  1.4179 -0.7165
  615MOL0     H82972   6.289   6.925   8.072 -0.1432 -2.0723  1.0676
  615MOL0     H82973   6.128   6.880   7.998  1.2448  1.5042 -1.2847
  615MOL0     H82974   6.184   7.021   8.254 -0.0162  0.3613 -0.6004
  615MOL0     H82975   6.029   6.959   8.205  0.3217  0.0044 -0.5367
  615MOL0     H82976   6.387   6.813   8.318  0.9382 -1.5011  1.4846
  615MOL0     H82977   6.461   6.585   8.386 -1.1420 -1.3389 -1.9249
  615MOL0     H82978   6.375   6.571   8.543  0.4703  0.4324 -0.0677
  615MOL0     H82979   6.242   6.377   8.434  0.8113 -1.6041  0.9109
  615MOL0     H82980   6.351   6.396   8.301  1.5911  0.6652  0.1432
  615MOL0     H82981   6.435   6.221   8.416 -0.6476  1.5665 -2.7413
  615MOL0     H82982   6.408   6.281   8.578  0.7237 -0.6050 -0.9836
  615MOL0     H82983   6.592   6.437   8.560  2.3824 -1.0820  0.9264
  615MOL0     H82984   6.632   6.373   8.402 -1.1752  0.0565 -0.7551
  615MOL0     H82985   6.727   6.364   8.771 -0.8904  1.9639 -2.1497
  615MOL0     H82986   6.966   6.382   8.856  2.6400  0.8236 -1.2327
  615MOL0     H82987   7.476   6.401   8.508  1.2679 -1.2239 -0.2198
  615MOL0     H82988   7.719   6.351   8.531  0.3328 -0.8944 -0.4181
  615MOL0     H82989   7.858   6.143   8.485 -3.0241  1.8928  0.8717
  615MOL0     H82990   7.932   6.293   8.547  1.8565 -0.0653 -1.3745
  615MOL0     H82991   8.104   6.215   8.648 -1.0772  1.1029  0.7951
  615MOL0     H82992   8.033   6.047   8.667 -1.8276  1.2412  1.5471
  615MOL0     H82993   8.060   6.021   8.424  0.0282 -0.6350 -0.0823
  615MOL0     H82994   8.116   6.187   8.420 -1.4079  0.6359  1.6706
  615MOL0     H82995   8.227   5.923   8.507 -0.1939  0.0220  2.3306
  615MOL0     H82996   8.294   6.048   8.604  2.1398 -0.4615 -0.0997
  615MOL0     H82997   8.409   6.144   8.404 -0.1077  0.4476 -0.9334
  615MOL0     H82998   8.320   6.045   8.292 -1.1308  0.6308  0.0373
  615MOL0     H82999   8.528   5.972   8.514  0.8261  1.0813 -0.1169
  615MOL0     H83000   8.461   5.841   8.423  0.6210 -0.4706  0.0822
  615MOL0     H83001   8.635   6.070   8.331  2.2418 -1.5402 -1.4183
  615MOL0     H83002   8.529   5.987   8.212 -2.0262 -1.9414  0.2329
  615MOL0     H83003   8.777   5.866   8.357 -0.5996  1.8607  0.4925
  615MOL0     H83004   8.648   5.773   8.263  2.4239 -0.4673 -0.1729
  615MOL0     H83005   7.637   6.035   8.791 -1.4593 -1.9368  0.3050
  615MOL0     H83006   7.388   6.107   8.802 -0.4275  2.3353  1.4079
  615MOL0     H83007   7.091   6.196   8.485 -0.3637 -4.0216  0.4082
  615MOL0     H83008   6.836   6.168   8.424 -1.2568  0.4209  0.2423
  615MOL0     H83009   5.424   7.227   7.545  0.3481 -0.0225  2.2396
  615MOL0     H83010   5.232   7.133   7.429  1.0811 -1.0218 -4.7358
  615MOL0     H83011   5.056   6.658   7.379  0.4464 -0.9553  1.0603
  615MOL0     H83012   4.855   6.514   7.321  0.6536 -1.1065  2.5980
  615MOL0     H83013   4.562   6.435   7.498 -0.7009 -2.2087 -0.2313
  615MOL0     H83014   4.669   6.400   7.373  0.2856 -0.5372  2.4803
  615MOL0     H83015   4.450   6.310   7.334  1.5346 -0.5955  2.2335
  615MOL0     H83016   4.505   6.417   7.207 -0.3420 -3.9196 -0.3429
  615MOL0     H83017   4.364   6.598   7.269  0.8984  0.8245  0.0290
  615MOL0     H83018   4.321   6.530   7.425  1.3116  0.9680  0.3632
  615MOL0     H83019   4.254   6.387   7.162  0.9466 -2.7277  0.7407
  615MOL0     H83020   4.185   6.358   7.319 -1.5938  1.7431  0.1996
  615MOL0     H83021   3.924   6.660   7.266 -0.2292  1.5844  0.1132
  615MOL0     H83022   4.609   6.823   7.494 -0.2226 -1.5252  1.3678
  615MOL0     H83023   4.885   7.063   7.522 -1.7812  0.6239 -3.3010
  615MOL0     H83024   4.713   7.049   7.498 -1.8279 -1.0498  0.7518
  615MOL0     H83025   4.784   7.009   7.660 -0.4175  0.2706 -0.1130
  616MOL0     O83026  10.669   6.455   4.106  0.1057 -0.3432  0.5103
  616MOL0     C83027  10.594   6.396   4.034  0.5055 -0.4264  0.1145
  616MOL0     O83028  10.629   6.281   3.969 -0.1960  1.2982  0.0571
  616MOL0     C83029  10.755   6.231   3.992  0.1627 -0.2121 -0.1054
  616MOL0     C83030  10.781   6.170   4.115 -0.2344 -0.0375  0.0185
  616MOL0     C83031  10.898   6.111   4.144 -0.9601 -0.1843 -0.0714
  616MOL0     C83032  11.002   6.130   4.045 -0.3017 -0.1605  0.3721
  616MOL0     O83033  11.131   6.086   4.055 -0.0669 -0.0893  0.2240
  616MOL0     C83034  11.193   6.099   4.186 -0.3100 -0.2030 -0.8237
  616MOL0     C83035  11.316   6.017   4.187  0.0647  0.4028 -0.6407
  616MOL0     C83036  11.413   6.058   4.299  0.1215 -0.1225 -0.5969
  616MOL0     C83037  11.559   6.016   4.250 -0.4223  0.7522 -0.2472
  616MOL0     C83038  11.676   6.052   4.352  0.5537 -0.1630 -0.7885
  616MOL0     C83039  11.699   6.199   4.374 -0.8098 -0.4259  0.3123
  616MOL0     C83040  11.803   6.220   4.491 -0.1188 -0.7074 -0.7986
  616MOL0     C83041  11.810   6.367   4.527 -0.2516 -0.2919  0.1378
  616MOL0     N83042  11.929   6.398   4.615  0.1787  1.2169  0.4695
  616MOL0     C83043  11.932   6.367   4.747 -0.2902  0.3156 -0.2620
  616MOL0     C83044  12.057   6.367   4.779 -0.5638  0.5335 -0.3285
  616MOL0     C83045  12.118   6.320   4.915  0.5342 -0.2391 -0.1236
  616MOL0     C83046  12.167   6.438   5.001 -1.1840  0.3036 -0.5539
  616MOL0     C83047  12.254   6.424   5.129  0.8194 -0.1597 -0.3825
  616MOL0     C83048  12.394   6.380   5.099  0.1942 -0.3199 -0.9607
  616MOL0     O83049  12.468   6.460   5.012 -0.4031 -0.4519  1.0064
  616MOL0     C83050  12.599   6.421   4.992  0.4298 -0.0176  0.5180
  616MOL0     C83051  12.681   6.517   4.943 -0.5061 -0.5093  0.8603
  616MOL0     C83052  12.810   6.493   4.892  0.4649 -0.0628 -0.2538
  616MOL0     C83053  12.857   6.365   4.897  0.6588  0.3357  0.9033
  616MOL0     C83054  12.994   6.335   4.856 -0.0707 -1.1932  0.3135
  616MOL0     O83055  13.032   6.206   4.888  0.4681  0.2129 -0.8311
  616MOL0     C83056  13.164   6.172   4.861  0.8973  0.9246 -0.1441
  616MOL0     C83057  13.196   6.096   4.746  0.2670  0.2551 -0.2709
  616MOL0     C83058  13.327   6.050   4.738  0.2828  1.1421 -0.2104
  616MOL0     C83059  13.427   6.078   4.828 -0.0324 -0.8207 -0.4678
  616MOL0     O83060  13.552   6.026   4.804 -0.0361  0.9050  0.0311
  616MOL0     C83061  13.663   6.061   4.874  0.3362 -0.5283 -0.2800
  616MOL0     C83062  13.771   5.973   4.814 -0.0452 -0.0334 -1.0873
  616MOL0     C83063  13.909   6.027   4.842  0.1229 -1.0544 -0.5824
  616MOL0     C83064  14.031   5.927   4.846  0.2566  0.7267 -0.6207
  616MOL0     C83065  14.162   6.004   4.855  0.3437 -0.4645 -0.4276
  616MOL0     C83066  14.280   5.909   4.882  0.3539 -0.1265  0.0601
  616MOL0     C83067  14.356   5.854   4.763 -0.3148 -0.2145 -0.3983
  616MOL0     C83068  14.342   5.702   4.753 -0.5006 -0.1091 -0.7097
  616MOL0    Cl83069  14.447   5.633   4.618 -0.1722 -0.0182 -0.2283
  616MOL0     C83070  13.391   6.164   4.938 -0.1559  0.0310  0.1776
  616MOL0     C83071  13.260   6.209   4.952  0.2275  0.0222 -0.4217
  616MOL0     O83072  13.066   6.428   4.811 -0.0569 -1.1035 -0.1542
  616MOL0     C83073  12.778   6.262   4.960  0.0409  0.4112  0.0868
  616MOL0     C83074  12.651   6.292   5.007  0.3562 -0.7082 -0.0212
  616MOL0     N83075  12.136   6.387   4.664  0.5867 -0.1235 -0.4188
  616MOL0     N83076  12.053   6.405   4.567  0.1729  0.2948  0.2342
  616MOL0     C83077  10.983   6.198   3.922 -0.2905 -0.1475  0.4456
  616MOL0     C83078  10.861   6.247   3.897 -0.2273 -0.0055  0.4447
  616MOL0     C83079  10.454   6.441   4.012  0.0999  0.0935 -0.5551
  616MOL0     C83080  10.384   6.381   3.908 -0.0217  0.4542 -0.0832
  616MOL0     C83081  10.250   6.411   3.885 -0.5517 -0.0237  0.9689
  616MOL0     C83082  10.172   6.495   3.960 -0.0351  0.2552 -0.7316
  616MOL0     O83083  10.046   6.527   3.919  0.4904  0.4353  0.4267
  616MOL0     C83084   9.947   6.584   4.007  0.9675  0.5993 -0.5808
  616MOL0     C83085   9.802   6.557   3.977 -0.1136  1.5831  0.3661
  616MOL0     C83086   9.750   6.623   3.854  0.4176  0.0629 -0.0402
  616MOL0     C83087   9.599   6.630   3.848  0.1307 -0.6068 -0.4796
  616MOL0     C83088   9.527   6.511   3.887 -0.1334 -1.0603  0.4246
  616MOL0     C83089   9.439   6.430   3.909 -1.3168  0.4580 -0.3217
  616MOL0     C83090  10.238   6.556   4.071 -0.8227 -0.6857  0.1903
  616MOL0     C83091  10.376   6.537   4.092 -0.3079  0.9924  1.1553
  616MOL0     C83092  10.437   6.598   4.218  0.2364  0.2848 -0.0942
  616MOL0     H83093  10.695   6.165   4.182  0.2543  0.1217  0.6724
  616MOL0     H83094  10.923   6.039   4.222 -1.4134 -2.1792 -1.6776
  616MOL0     H83095  11.207   6.206   4.200  0.5338 -0.5897  1.9957
  616MOL0     H83096  11.131   6.071   4.272 -0.3463 -0.5094 -0.9469
  616MOL0     H83097  11.363   6.030   4.089 -1.6206  0.1875 -1.5106
  616MOL0     H83098  11.301   5.910   4.205  1.4441  0.0735 -1.3389
  616MOL0     H83099  11.391   6.005   4.391 -0.9287  0.6902 -0.3616
  616MOL0     H83100  11.402   6.166   4.313 -1.3180 -0.0529 -1.9927
  616MOL0     H83101  11.559   5.911   4.221  0.1817  1.3507 -2.6116
  616MOL0     H83102  11.579   6.066   4.154 -1.2236  1.3746 -0.1030
  616MOL0     H83103  11.650   6.013   4.451  0.7436  2.4880  0.3788
  616MOL0     H83104  11.771   6.014   4.314  0.8857 -1.2496  1.0121
  616MOL0     H83105  11.739   6.232   4.278 -2.0741 -1.8597 -0.7448
  616MOL0     H83106  11.608   6.248   4.408 -2.0747 -2.7806  0.5084
  616MOL0     H83107  11.899   6.174   4.467  0.5467  1.1321 -1.8571
  616MOL0     H83108  11.766   6.170   4.581  1.3061 -2.0256 -0.9061
  616MOL0     H83109  11.831   6.419   4.433  1.1197 -2.3037 -0.7504
  616MOL0     H83110  11.709   6.391   4.562 -0.8683 -3.5173  0.8543
  616MOL0     H83111  11.845   6.337   4.805 -1.4053 -1.0730 -2.4965
  616MOL0     H83112  12.037   6.258   4.954 -0.0228  0.2171 -0.5295
  616MOL0     H83113  12.212   6.267   4.899  0.2293 -0.8509  0.1052
  616MOL0     H83114  12.228   6.505   4.939 -0.1691 -1.7708 -1.8905
  616MOL0     H83115  12.082   6.504   5.020 -0.2654  1.2133  0.5396
  616MOL0     H83116  12.209   6.358   5.204  0.3497  0.6050  0.0225
  616MOL0     H83117  12.263   6.522   5.175 -0.4595 -0.7101  1.1348
  616MOL0     H83118  12.396   6.274   5.071 -0.3969 -0.9338  1.1282
  616MOL0     H83119  12.443   6.382   5.197 -1.4140 -2.2723 -0.0265
  616MOL0     H83120  12.643   6.616   4.921  0.7260 -0.3913 -0.9783
  616MOL0     H83121  12.861   6.580   4.852 -4.1548  2.6137 -1.1324
  616MOL0     H83122  13.123   6.073   4.669 -2.0885  1.2738  1.5230
  616MOL0     H83123  13.349   5.985   4.654  2.3736  0.5470  0.7244
  616MOL0     H83124  13.683   6.167   4.859  0.0610 -0.2044  1.3903
  616MOL0     H83125  13.640   6.037   4.979  0.2212 -2.0452 -0.6273
  616MOL0     H83126  13.762   5.875   4.862 -1.6162  0.6359  0.0692
  616MOL0     H83127  13.749   5.960   4.707  1.0501  0.7470 -1.4223
  616MOL0     H83128  13.940   6.090   4.759  1.2593 -2.1204 -1.0036
  616MOL0     H83129  13.904   6.091   4.931 -1.1961 -3.1967  0.9871
  616MOL0     H83130  14.036   5.858   4.761 -0.3055  0.5334 -0.4990
  616MOL0     H83131  14.015   5.857   4.928  0.8126 -0.0797 -1.1808
  616MOL0     H83132  14.161   6.072   4.941  2.6023  1.1718 -1.5824
  616MOL0     H83133  14.181   6.061   4.763  0.0547 -0.5707 -0.5534
  616MOL0     H83134  14.356   5.965   4.938  0.3855  0.8057 -0.8960
  616MOL0     H83135  14.243   5.828   4.945 -0.5579 -0.2972 -0.6842
  616MOL0     H83136  14.465   5.866   4.773 -0.3224 -0.2523 -0.2785
  616MOL0     H83137  14.315   5.906   4.676  2.8430  1.4041 -1.0996
  616MOL0     H83138  14.369   5.652   4.847 -0.3887 -0.2139 -0.7983
  616MOL0     H83139  14.237   5.688   4.725 -1.0346 -2.4279  1.9542
  616MOL0     H83140  13.458   6.196   5.017 -0.9613 -1.9961  1.7637
  616MOL0     H83141  13.229   6.278   5.030 -1.1443  0.0806 -0.9856
  616MOL0     H83142  12.812   6.160   4.976 -2.2050 -0.6692 -1.5117
  616MOL0     H83143  12.599   6.212   5.058 -0.0318 -0.2471  0.3092
  616MOL0     H83144  11.068   6.206   3.855 -0.4996 -0.7665  0.1052
  616MOL0     H83145  10.848   6.291   3.799  0.0909 -2.3772 -0.7473
  616MOL0     H83146  10.423   6.302   3.844  0.0949 -0.0886  0.6391
  616MOL0     H83147  10.215   6.374   3.790 -0.3206  1.9209  0.0870
  616MOL0     H83148   9.972   6.690   4.015  2.9391  0.0199  2.4004
  616MOL0     H83149   9.960   6.540   4.107  2.7654 -0.2462 -1.1555
  616MOL0     H83150   9.740   6.579   4.065 -0.8264 -0.8248  0.5397
  616MOL0     H83151   9.797   6.447   3.982 -1.2384  1.6294  0.6029
  616MOL0     H83152   9.774   6.573   3.760  0.4421 -1.9786  1.0108
  616MOL0     H83153   9.779   6.729   3.861  0.7745 -0.1261  1.8114
  616MOL0     H83154   9.572   6.711   3.916  0.8707 -1.1065  0.4406
  616MOL0     H83155   9.574   6.647   3.742  0.9219  1.1288 -0.4258
  616MOL0     H83156   9.377   6.352   3.947  1.5028  0.4686  5.5111
  616MOL0     H83157  10.183   6.626   4.133 -0.3970 -0.4741  0.3325
  616MOL0     H83158  10.511   6.677   4.200  0.1299  0.3968 -0.0448
  616MOL0     H83159  10.362   6.641   4.285  1.1068 -0.2035  1.2186
  616MOL0     H83160  10.484   6.523   4.282 -0.1649  0.5889  0.5601
  617MOL0     O83161   4.405   7.731   5.412  0.6911  0.4398  0.6229
  617MOL0     C83162   4.395   7.647   5.323  0.5310 -0.2690  0.8498
  617MOL0     O83163   4.506   7.577   5.267  0.2981  0.4479  0.5547
  617MOL0     C83164   4.628   7.629   5.302  0.1104  0.5279  0.3126
  617MOL0     C83165   4.683   7.730   5.218 -0.0948  0.0509  0.2824
  617MOL0     C83166   4.811   7.793   5.242 -0.2178  0.6441  0.2435
  617MOL0     C83167   4.881   7.746   5.356  0.1156  0.2491 -0.3419
  617MOL0     O83168   4.997   7.815   5.386 -0.3341 -0.0393  0.1100
  617MOL0     C83169   5.090   7.799   5.280 -0.3581 -0.2054 -0.0928
  617MOL0     C83170   5.146   7.653   5.278 -0.1937 -0.3319  0.6176
  617MOL0     C83171   5.229   7.616   5.407 -0.2108 -0.4772 -0.0745
  617MOL0     C83172   5.285   7.471   5.398  0.8751 -0.1212 -0.5019
  617MOL0     C83173   5.429   7.454   5.461 -1.1392 -0.2108  0.0823
  617MOL0     C83174   5.443   7.500   5.604  0.0055 -0.2874  0.9715
  617MOL0     C83175   5.587   7.484   5.653 -1.1135  0.2845  0.4850
  617MOL0     C83176   5.664   7.620   5.643  0.2104  0.6146 -0.2893
  617MOL0     N83177   5.811   7.593   5.681  0.0590 -0.1464  0.1241
  617MOL0     C83178   5.837   7.537   5.802  0.5877  0.3125  0.3403
  617MOL0     C83179   5.966   7.525   5.801 -0.3215  0.3712 -0.0975
  617MOL0     C83180   6.061   7.457   5.898 -0.2548  0.1530  0.0017
  617MOL0     C83181   6.155   7.545   5.970  0.9240  0.0694  0.3002
  617MOL0     C83182   6.231   7.459   6.072 -0.0652 -0.1168  0.5601
  617MOL0     C83183   6.301   7.565   6.153 -0.1025 -0.3496  0.6732
  617MOL0     O83184   6.357   7.486   6.265  0.7470 -0.8541 -0.5122
  617MOL0     C83185   6.447   7.553   6.349  0.1745 -0.5435  0.1331
  617MOL0     C83186   6.410   7.666   6.419 -0.4251  0.2452  0.2198
  617MOL0     C83187   6.509   7.732   6.495  0.8998 -1.2668 -0.1558
  617MOL0     C83188   6.640   7.679   6.509 -0.5696  0.0168  0.0611
  617MOL0     C83189   6.747   7.756   6.591 -0.5713  0.0657 -0.0975
  617MOL0     O83190   6.873   7.698   6.606 -0.2473 -0.0451  0.0828
  617MOL0     C83191   6.977   7.778   6.653  0.4667 -0.3125 -0.7414
  617MOL0     C83192   6.969   7.844   6.784  0.5134  0.5018  0.3599
  617MOL0     C83193   7.077   7.923   6.836  0.0248 -0.0962  0.5605
  617MOL0     C83194   7.203   7.914   6.769 -0.0781 -0.2915 -0.2954
  617MOL0     O83195   7.300   8.004   6.811  0.3833 -0.1288  0.3185
  617MOL0     C83196   7.371   8.073   6.717 -0.5149  0.0653  0.3789
  617MOL0     C83197   7.484   8.157   6.771  0.3211 -0.0239 -0.6745
  617MOL0     C83198   7.608   8.076   6.830 -0.1448  0.3447 -0.3176
  617MOL0     C83199   7.716   8.157   6.904 -0.7461 -0.1896  0.7208
  617MOL0     C83200   7.797   8.066   6.989  0.3764 -0.3413 -0.1677
  617MOL0     C83201   7.899   8.153   7.070  0.3254 -0.6785 -0.0625
  617MOL0     C83202   7.827   8.243   7.174 -0.0154  0.2186 -0.6586
  617MOL0     C83203   7.912   8.308   7.283 -0.8301 -1.0123 -0.1967
  617MOL0    Cl83204   7.974   8.183   7.384  0.1182  0.2585 -0.1482
  617MOL0     C83205   7.207   7.848   6.642 -0.0962  1.0561 -0.1184
  617MOL0     C83206   7.100   7.784   6.585 -0.1766 -0.1749 -0.1372
  617MOL0     O83207   6.715   7.865   6.626 -0.2656 -0.1918  0.8805
  617MOL0     C83208   6.671   7.546   6.458  0.8108  0.9335 -0.8525
  617MOL0     C83209   6.570   7.493   6.379 -0.1016 -0.4612  1.0374
  617MOL0     N83210   6.017   7.562   5.680  0.0935  0.5595 -0.0236
  617MOL0     N83211   5.919   7.605   5.603  0.7038  0.6181 -0.8713
  617MOL0     C83212   4.832   7.642   5.430 -0.1462 -0.0868 -0.0374
  617MOL0     C83213   4.704   7.581   5.405  0.1691  0.1145  0.0024
  617MOL0     C83214   4.256   7.590   5.290 -0.4894  0.8986  0.1605
  617MOL0     C83215   4.215   7.578   5.158 -0.1929 -1.2761  1.2023
  617MOL0     C83216   4.093   7.532   5.114  0.1497 -0.9611 -0.4190
  617MOL0     C83217   4.001   7.496   5.214 -1.2603  0.3812  0.0121
  617MOL0     O83218   3.875   7.472   5.171  0.6347 -0.1427 -0.7207
  617MOL0     C83219   3.772   7.434   5.267 -0.5641  0.9799  0.1977
  617MOL0     C83220   3.626   7.464   5.217  0.6229  0.8992  0.5137
  617MOL0     C83221   3.521   7.419   5.317  0.1321  0.3644 -0.3078
  617MOL0     C83222   3.384   7.473   5.284 -0.6585 -0.2635 -0.0165
  617MOL0     C83223   3.286   7.385   5.341  0.5495  1.1029  0.1258
  617MOL0     C83224   3.216   7.292   5.393  0.2551 -0.1309  0.6613
  617MOL0     C83225   4.052   7.493   5.351  0.3401  0.5917  0.4945
  617MOL0     C83226   4.170   7.546   5.390  0.4638 -0.2724 -0.3300
  617MOL0     C83227   4.207   7.566   5.534 -0.7891 -1.0295 -0.0045
  617MOL0     H83228   4.612   7.762   5.143  1.3891 -0.9534 -1.6113
  617MOL0     H83229   4.833   7.872   5.171  0.9348 -0.2848 -0.4591
  617MOL0     H83230   5.056   7.822   5.179  0.5062 -2.3046 -0.9314
  617MOL0     H83231   5.171   7.870   5.301  0.5541 -1.2469  0.0267
  617MOL0     H83232   5.217   7.649   5.195  0.0281  2.1809  0.6217
  617MOL0     H83233   5.072   7.581   5.242  0.6594 -0.9336  0.0125
  617MOL0     H83234   5.169   7.611   5.499  0.2183  1.2489  0.3454
  617MOL0     H83235   5.309   7.689   5.420  0.7467 -1.4370 -0.4738
  617MOL0     H83236   5.224   7.396   5.448  0.4410 -0.1407 -1.0505
  617MOL0     H83237   5.287   7.441   5.293  2.3903  0.9993 -0.8269
  617MOL0     H83238   5.465   7.351   5.462  3.8522  1.2594  1.6456
  617MOL0     H83239   5.503   7.508   5.401  0.6420 -0.5040  1.8884
  617MOL0     H83240   5.418   7.607   5.608  0.7294  0.0116 -1.3650
  617MOL0     H83241   5.385   7.439   5.674 -1.8249  1.7940  1.3930
  617MOL0     H83242   5.635   7.409   5.589 -1.7281  0.2912  0.0144
  617MOL0     H83243   5.590   7.446   5.756  1.2992 -2.4410 -0.4480
  617MOL0     H83244   5.667   7.660   5.541  3.3941  2.2397  0.3130
  617MOL0     H83245   5.613   7.687   5.712 -0.8386  1.9862 -2.2944
  617MOL0     H83246   5.768   7.511   5.882  0.2921  0.1089  0.0207
  617MOL0     H83247   5.997   7.403   5.968  0.3635  0.3805  0.7562
  617MOL0     H83248   6.118   7.377   5.850  0.8445 -0.9119  2.8732
  617MOL0     H83249   6.233   7.576   5.899  0.3967  0.2393 -0.2210
  617MOL0     H83250   6.108   7.637   6.006 -2.7543 -1.1833 -0.7849
  617MOL0     H83251   6.315   7.400   6.035  0.9201 -0.0405  2.5494
  617MOL0     H83252   6.159   7.408   6.137 -0.2297  0.0880  0.5424
  617MOL0     H83253   6.243   7.652   6.184  0.7702  0.7821 -0.7500
  617MOL0     H83254   6.389   7.609   6.106  0.5236 -2.6222 -0.4466
  617MOL0     H83255   6.309   7.706   6.418 -0.3353  0.5121  1.1333
  617MOL0     H83256   6.487   7.826   6.544  2.6393 -1.4534  1.0492
  617MOL0     H83257   6.873   7.840   6.833  0.3830  1.6113  0.2108
  617MOL0     H83258   7.060   7.986   6.922 -0.3563 -1.0299  1.1796
  617MOL0     H83259   7.430   8.007   6.653  1.2599  2.3634 -0.5187
  617MOL0     H83260   7.310   8.134   6.650 -0.2357 -0.7876 -0.6795
  617MOL0     H83261   7.519   8.221   6.690  1.5213 -1.3561 -1.2485
  617MOL0     H83262   7.435   8.198   6.860 -3.1044 -3.3029 -0.8125
  617MOL0     H83263   7.567   8.002   6.899  1.6745 -0.1985  0.2332
  617MOL0     H83264   7.660   8.023   6.750 -1.7948 -0.7957 -0.6903
  617MOL0     H83265   7.657   8.234   6.956 -1.3986  1.6288 -2.4280
  617MOL0     H83266   7.782   8.206   6.832 -0.1599 -0.1430  1.2874
  617MOL0     H83267   7.850   7.994   6.927  0.2815 -1.5838  1.1339
  617MOL0     H83268   7.729   8.014   7.057  0.4876 -0.8419 -0.4434
  617MOL0     H83269   7.962   8.078   7.119  0.4953  0.6524  1.8426
  617MOL0     H83270   7.957   8.218   7.004 -2.8626  2.2495 -0.2306
  617MOL0     H83271   7.743   8.183   7.210 -1.3370  1.4061 -1.6533
  617MOL0     H83272   7.785   8.330   7.123  2.5134  0.0422 -3.3141
  617MOL0     H83273   7.981   8.377   7.233 -3.0370  0.3167 -1.5975
  617MOL0     H83274   7.854   8.376   7.347 -0.2442 -0.1446 -0.5675
  617MOL0     H83275   7.297   7.859   6.583 -0.3168 -0.1895 -0.7169
  617MOL0     H83276   7.097   7.742   6.485 -3.9348  2.5225 -1.3791
  617MOL0     H83277   6.768   7.503   6.482  0.8911  0.7719 -1.4449
  617MOL0     H83278   6.570   7.396   6.331 -1.0707  0.2166 -0.4167
  617MOL0     H83279   4.891   7.603   5.513 -0.7560  1.3689  1.1494
  617MOL0     H83280   4.667   7.496   5.462 -2.0107  0.8784 -0.1704
  617MOL0     H83281   4.291   7.607   5.087  0.5506  0.1264  2.5056
  617MOL0     H83282   4.061   7.523   5.010 -1.9819 -3.5618  0.3540
  617MOL0     H83283   3.775   7.504   5.351 -1.7321  0.1725  0.9422
  617MOL0     H83284   3.782   7.329   5.296  1.0641  0.9493 -0.3701
  617MOL0     H83285   3.611   7.413   5.121  0.6041  0.6180  0.6646
  617MOL0     H83286   3.629   7.572   5.205  0.5989  0.8626  0.1764
  617MOL0     H83287   3.545   7.433   5.423  2.4346 -1.2868 -0.5473
  617MOL0     H83288   3.510   7.311   5.304  1.1472  0.3132 -0.8162
  617MOL0     H83289   3.377   7.576   5.320  1.3155 -0.3025  0.5726
  617MOL0     H83290   3.366   7.475   5.176 -0.8280  3.4813 -0.0493
  617MOL0     H83291   3.138   7.219   5.403 -2.8411  2.7556 -0.5358
  617MOL0     H83292   3.986   7.457   5.430  0.5596  0.6646  0.7135
  617MOL0     H83293   4.311   7.540   5.557 -1.1569 -0.9145  1.9629
  617MOL0     H83294   4.198   7.673   5.557  0.5913  0.0235 -3.6885
  617MOL0     H83295   4.148   7.501   5.599 -0.1920 -0.7535  0.8421
  618MOL0     O83296   5.962   0.870  10.409  0.3389 -0.1002  0.1616
  618MOL0     C83297   5.924   0.770  10.469 -0.1797 -1.1853  0.0384
  618MOL0     O83298   6.003   0.658  10.482  0.7372  0.2727 -0.0816
  618MOL0     C83299   6.143   0.678  10.477 -0.0946  0.2038 -0.1606
  618MOL0     C83300   6.210   0.618  10.367 -0.3271  0.4282  0.4600
  618MOL0     C83301   6.355   0.617  10.373  1.1375  0.2559 -0.1170
  618MOL0     C83302   6.427   0.664  10.482  0.6709 -0.0361 -0.1743
  618MOL0     O83303   6.567   0.678  10.485  0.1766  0.5373 -0.4989
  618MOL0     C83304   6.627   0.684  10.357 -0.4579  0.2353  0.3911
  618MOL0     C83305   6.782   0.705  10.372 -0.4442  0.2009 -0.3039
  618MOL0     C83306   6.851   0.746  10.245 -0.5704 -0.0153  0.3801
  618MOL0     C83307   7.005   0.757  10.251  0.2558 -0.1266 -0.6939
  618MOL0     C83308   7.062   0.783  10.112  0.4019  0.3545 -0.6876
  618MOL0     C83309   7.204   0.831  10.125 -0.2505  0.0588  0.3246
  618MOL0     C83310   7.303   0.730  10.159  1.0741 -0.5018  0.1748
  618MOL0     C83311   7.452   0.777  10.149 -0.8149  0.4616 -0.2460
  618MOL0     N83312   7.538   0.657  10.156 -0.3520 -0.2011  0.0812
  618MOL0     C83313   7.579   0.603  10.274  0.4908  0.3354 -0.1843
  618MOL0     C83314   7.659   0.500  10.241  0.1737  0.6370 -0.7918
  618MOL0     C83315   7.716   0.413  10.353  0.2122  0.0643 -0.0517
  618MOL0     C83316   7.862   0.467  10.378 -0.5421 -0.0474  0.1709
  618MOL0     C83317   7.854   0.603  10.461 -0.2858  0.0800  0.3806
  618MOL0     C83318   7.988   0.651  10.522 -0.5037 -0.3076 -0.1603
  618MOL0     O83319   8.043   0.743  10.426 -0.4001  0.5564  0.2922
  618MOL0     C83320   8.163   0.811  10.446  0.0910 -0.5086  0.2934
  618MOL0     C83321   8.240   0.805  10.565  0.1785 -0.1879  1.0594
  618MOL0     C83322   8.371   0.851  10.565  0.7822 -1.4587 -0.4737
  618MOL0     C83323   8.428   0.915  10.448 -0.7878  1.4979  0.5687
  618MOL0     C83324   8.575   0.946  10.438  0.5019 -0.4336 -0.1049
  618MOL0     O83325   8.647   0.928  10.555 -0.0877 -0.2253  0.3630
  618MOL0     C83326   8.782   0.950  10.556  0.1950 -0.0481 -0.8810
  618MOL0     C83327   8.875   0.853  10.562 -0.3431  0.2014 -0.2223
  618MOL0     C83328   9.009   0.880  10.571  0.2978 -0.5159  0.0569
  618MOL0     C83329   9.064   1.009  10.562  0.5922  0.6323 -0.4771
  618MOL0     O83330   9.197   1.034  10.563 -0.0022 -0.9511 -0.1279
  618MOL0     C83331   9.294   0.931  10.580  0.7220 -0.6445  0.8440
  618MOL0     C83332   9.417   1.001  10.574  0.0379  0.0553 -0.5124
  618MOL0     C83333   9.534   0.908  10.593 -0.6732  0.3538  0.1479
  618MOL0     C83334   9.661   0.981  10.532 -0.5868  0.1635  0.0228
  618MOL0     C83335   9.781   0.901  10.583  0.1765 -1.2540 -0.0928
  618MOL0     C83336   9.909   0.921  10.494 -0.3791 -0.2348  0.1894
  618MOL0     C83337   9.937   1.067  10.476  0.9062 -0.9168  0.4063
  618MOL0     C83338  10.059   1.085  10.391 -0.6735  0.4536  0.7747
  618MOL0    Cl83339  10.051   1.023  10.221 -0.4813 -0.5914  0.1175
  618MOL0     C83340   8.973   1.112  10.555  0.3054  0.0677  0.3844
  618MOL0     C83341   8.836   1.081  10.550 -0.1074  0.0951  0.3624
  618MOL0     O83342   8.620   0.974  10.328  0.0546 -0.2832 -0.3681
  618MOL0     C83343   8.342   0.938  10.344 -0.4146 -0.3979 -0.1409
  618MOL0     C83344   8.213   0.878  10.332  0.0825 -0.0925  0.0285
  618MOL0     N83345   7.680   0.500  10.099  0.4693  0.6252  0.3348
  618MOL0     N83346   7.611   0.608  10.054  0.5187 -0.1009 -0.9404
  618MOL0     C83347   6.354   0.737  10.587 -0.3595  0.5019 -0.9049
  618MOL0     C83348   6.216   0.734  10.584  0.5946  0.0778  0.6471
  618MOL0     C83349   5.785   0.773  10.532 -0.4076 -0.2571  0.2733
  618MOL0     C83350   5.751   0.882  10.609  0.3306  0.0181 -0.0078
  618MOL0     C83351   5.627   0.894  10.674 -0.3134 -0.5692 -0.9152
  618MOL0     C83352   5.531   0.795  10.661 -0.2262  0.1692 -0.5589
  618MOL0     O83353   5.412   0.778  10.736  0.4323 -0.5274 -0.1798
  618MOL0     C83354   5.367   0.876  10.832  0.1768 -0.5857  0.4678
  618MOL0     C83355   5.218   0.872  10.859 -0.2464  0.4072  0.6393
  618MOL0     C83356   5.171   0.981  10.960 -0.8031 -0.7360  0.3130
  618MOL0     C83357   5.043   0.942  11.037  0.4293  0.4586 -0.6456
  618MOL0     C83358   5.022   1.020  11.154 -0.7572 -0.7307  0.6759
  618MOL0     C83359   4.993   1.085  11.243  0.0724 -0.3436 -0.3789
  618MOL0     C83360   5.572   0.682  10.586 -0.1221 -0.3613  0.1658
  618MOL0     C83361   5.696   0.668  10.523  0.2945  0.1316  0.3139
  618MOL0     C83362   5.726   0.543  10.452  0.6020 -0.5094 -0.3572
  618MOL0     H83363   6.160   0.566  10.287  0.6068 -1.0323  0.7930
  618MOL0     H83364   6.396   0.576  10.281  3.4221 -0.2855  1.0614
  618MOL0     H83365   6.611   0.595  10.296 -1.5773 -1.8914  3.5158
  618MOL0     H83366   6.587   0.773  10.308  0.6928 -0.2200 -1.4614
  618MOL0     H83367   6.820   0.610  10.412 -0.3771  0.1932 -0.3859
  618MOL0     H83368   6.803   0.782  10.447  1.9882  2.3175 -2.9526
  618MOL0     H83369   6.814   0.846  10.219 -0.4799  0.1211  0.7601
  618MOL0     H83370   6.821   0.679  10.164  0.2568 -1.1904  1.0166
  618MOL0     H83371   7.030   0.842  10.315 -3.0581 -0.2986  1.0757
  618MOL0     H83372   7.041   0.666  10.299  0.2061  1.4667  2.6190
  618MOL0     H83373   7.055   0.700  10.041  0.8790 -0.5065  0.2499
  618MOL0     H83374   7.003   0.871  10.085 -0.5563  0.0149  0.2031
  618MOL0     H83375   7.231   0.868  10.026 -1.1294  1.3774  0.5528
  618MOL0     H83376   7.216   0.917  10.191 -0.9057  1.1658 -0.9559
  618MOL0     H83377   7.297   0.652  10.082 -0.7211  0.3757 -0.6219
  618MOL0     H83378   7.275   0.691  10.258 -0.4230 -1.2435 -0.5096
  618MOL0     H83379   7.463   0.832  10.055 -2.5268  1.2413 -0.0277
  618MOL0     H83380   7.479   0.849  10.228 -1.4783 -0.2279  0.6274
  618MOL0     H83381   7.552   0.623  10.377 -0.8956  1.8307 -0.7859
  618MOL0     H83382   7.654   0.430  10.441  2.2341  1.9574  1.1102
  618MOL0     H83383   7.717   0.306  10.328 -0.7004 -0.1522  0.7831
  618MOL0     H83384   7.908   0.392  10.443 -1.6597 -2.4913 -1.6838
  618MOL0     H83385   7.924   0.476  10.288  1.9697  1.3281  1.9268
  618MOL0     H83386   7.785   0.585  10.543 -0.5225 -3.8925 -0.4750
  618MOL0     H83387   7.818   0.680  10.392  2.8861  0.9277 -0.5047
  618MOL0     H83388   8.049   0.562  10.539  1.5544  0.6347 -2.1883
  618MOL0     H83389   7.977   0.699  10.620 -2.1587 -0.6304 -0.1555
  618MOL0     H83390   8.191   0.754  10.647 -1.4909 -1.8590 -0.8575
  618MOL0     H83391   8.425   0.839  10.658 -2.3147  0.9252  1.8830
  618MOL0     H83392   8.831   0.754  10.559  0.0265 -0.0457  1.2484
  618MOL0     H83393   9.070   0.792  10.587  0.7342  0.0940  2.0038
  618MOL0     H83394   9.276   0.886  10.678 -0.5459  1.3662  1.5868
  618MOL0     H83395   9.284   0.857  10.500 -0.1869  0.5094 -0.1311
  618MOL0     H83396   9.418   1.042  10.473  0.3518 -1.4304 -1.1393
  618MOL0     H83397   9.423   1.074  10.655  1.5699 -0.3909 -0.1994
  618MOL0     H83398   9.564   0.891  10.697  1.1653 -2.1729 -0.6988
  618MOL0     H83399   9.515   0.814  10.542 -0.0812 -0.3459  1.1851
  618MOL0     H83400   9.668   1.088  10.557 -1.0367  1.3838 -4.2692
  618MOL0     H83401   9.657   0.969  10.424  2.2304 -1.9497  0.0346
  618MOL0     H83402   9.758   0.795  10.582  1.0795 -1.6285  3.6195
  618MOL0     H83403   9.803   0.941  10.682  1.1168 -0.4065 -0.6161
  618MOL0     H83404   9.993   0.872  10.544 -0.5925  1.3396  2.2465
  618MOL0     H83405   9.884   0.885  10.394  1.2292  0.7526 -0.6173
  618MOL0     H83406   9.951   1.113  10.574 -2.0183  1.7521 -0.2688
  618MOL0     H83407   9.859   1.115  10.417  0.5998  1.8459  2.8338
  618MOL0     H83408  10.075   1.192  10.376  2.3924 -0.2187 -1.9421
  618MOL0     H83409  10.152   1.051  10.439 -0.2718 -0.6209 -0.6958
  618MOL0     H83410   9.007   1.214  10.539 -0.5591  0.6758  2.2005
  618MOL0     H83411   8.766   1.161  10.531  0.8897  1.4449  2.0639
  618MOL0     H83412   8.385   0.991  10.260  0.8956  1.1099  1.3958
  618MOL0     H83413   8.143   0.889  10.250 -0.8554 -2.0312  0.4976
  618MOL0     H83414   6.418   0.800  10.648 -0.5383 -0.0208 -0.1642
  618MOL0     H83415   6.165   0.764  10.675  1.8020 -2.7396  2.4009
  618MOL0     H83416   5.821   0.964  10.622  1.0205 -0.4749 -0.5654
  618MOL0     H83417   5.608   0.985  10.731  1.2105  0.7428 -2.4084
  618MOL0     H83418   5.394   0.978  10.802  0.5091 -0.0591  2.4582
  618MOL0     H83419   5.418   0.850  10.925  3.9831  2.5685 -0.4495
  618MOL0     H83420   5.204   0.779  10.914  1.0709  0.1791  0.6116
  618MOL0     H83421   5.159   0.885  10.768 -0.3276 -0.3553  0.5812
  618MOL0     H83422   5.148   1.073  10.906 -0.0651 -0.5603  0.2798
  618MOL0     H83423   5.256   0.999  11.028 -0.6346 -0.2085 -0.0313
  618MOL0     H83424   4.955   0.934  10.973 -1.4854 -0.8590  1.9818
  618MOL0     H83425   5.050   0.841  11.077  1.6583  0.8498  0.1631
  618MOL0     H83426   4.966   1.145  11.327  0.5552  1.1648 -1.2594
  618MOL0     H83427   5.496   0.606  10.576 -0.2726 -0.3997  1.3984
  618MOL0     H83428   5.773   0.478  10.527  1.1914  1.4015  0.9899
  618MOL0     H83429   5.640   0.499  10.402 -0.4513  0.2221  0.7495
  618MOL0     H83430   5.790   0.574  10.369  0.6119  6.1990  1.5728
  619MOL0     O83431   9.180   8.702   9.954 -0.5336  0.5442  0.1960
  619MOL0     C83432   9.171   8.820   9.985 -0.4804  0.1289 -0.3311
  619MOL0     O83433   9.281   8.911   9.980 -0.1693 -0.5871 -0.0877
  619MOL0     C83434   9.410   8.858   9.969 -0.5035 -0.4699 -0.3373
  619MOL0     C83435   9.492   8.887   9.864  0.7174 -0.7832  0.5346
  619MOL0     C83436   9.621   8.847   9.851 -0.2119 -0.1516 -0.7042
  619MOL0     C83437   9.669   8.763   9.952 -0.1992  0.0802  0.5093
  619MOL0     O83438   9.798   8.714   9.953  0.3944  0.1571  0.2534
  619MOL0     C83439   9.898   8.756   9.853  0.2233  0.9320 -0.0693
  619MOL0     C83440  10.038   8.737   9.919 -0.2303 -0.2199  0.0080
  619MOL0     C83441  10.147   8.735   9.810  0.3238 -0.1735 -0.0482
  619MOL0     C83442  10.275   8.716   9.885  0.5056 -0.1323  0.5018
  619MOL0     C83443  10.396   8.729   9.787  0.0460 -0.3179  1.0279
  619MOL0     C83444  10.528   8.703   9.846  1.2517 -0.4555 -0.2602
  619MOL0     C83445  10.634   8.787   9.781  0.0757 -0.0243  0.1921
  619MOL0     C83446  10.788   8.787   9.833  0.3769 -0.3995  0.2694
  619MOL0     N83447  10.866   8.853   9.733  0.2461  0.6626 -0.6159
  619MOL0     C83448  10.952   8.797   9.646 -0.0293  0.0012  0.8784
  619MOL0     C83449  10.982   8.893   9.559  0.9136  0.0508  0.1559
  619MOL0     C83450  11.071   8.860   9.446  0.5845 -0.1296  0.6221
  619MOL0     C83451  11.213   8.839   9.495  0.4006  0.4846  0.9009
  619MOL0     C83452  11.309   8.799   9.377 -0.0986  0.1613 -0.7580
  619MOL0     C83453  11.451   8.821   9.428 -0.6543 -0.7500  1.0872
  619MOL0     O83454  11.539   8.750   9.338  0.4173 -0.3625  0.1708
  619MOL0     C83455  11.664   8.733   9.389  0.3542  1.0972 -0.1826
  619MOL0     C83456  11.734   8.631   9.331 -0.1642 -0.3439 -0.4757
  619MOL0     C83457  11.862   8.588   9.376  0.7567 -0.2712  0.2150
  619MOL0     C83458  11.911   8.654   9.490 -0.2976  0.1433 -0.1231
  619MOL0     C83459  12.041   8.619   9.537  0.7930 -0.1620  0.1937
  619MOL0     O83460  12.121   8.700   9.602  0.3192 -0.8825 -0.4068
  619MOL0     C83461  12.237   8.649   9.652 -0.0826  0.4760  0.2456
  619MOL0     C83462  12.339   8.613   9.560 -0.2935  0.1712 -0.3175
  619MOL0     C83463  12.471   8.588   9.599  0.1224  0.9730  1.0527
  619MOL0     C83464  12.495   8.577   9.739 -1.2154  0.0529 -1.2145
  619MOL0     O83465  12.618   8.540   9.795  0.1483 -0.1926  0.4128
  619MOL0     C83466  12.734   8.569   9.701 -0.7154  1.0851 -0.0292
  619MOL0     C83467  12.862   8.556   9.794  0.1071  0.9892  0.4037
  619MOL0     C83468  12.999   8.542   9.720 -0.3628 -0.1351  0.2617
  619MOL0     C83469  13.111   8.522   9.828  1.3047  0.2782  0.5697
  619MOL0     C83470  13.259   8.506   9.770  0.3020 -0.5959 -1.0484
  619MOL0     C83471  13.290   8.602   9.651  0.0626 -0.0510 -0.3049
  619MOL0     C83472  13.426   8.593   9.593 -0.5502 -0.0494  0.3409
  619MOL0     C83473  13.444   8.664   9.458  0.0117  0.1725 -0.6443
  619MOL0    Cl83474  13.407   8.564   9.320 -0.5833  0.0522  0.2811
  619MOL0     C83475  12.394   8.608   9.829 -0.9574 -0.2387 -0.7144
  619MOL0     C83476  12.264   8.640   9.787 -0.5915  0.1396 -0.0556
  619MOL0     O83477  12.061   8.503   9.524  0.0530 -0.1603 -0.4528
  619MOL0     C83478  11.837   8.749   9.553  0.3763 -0.1467 -0.6979
  619MOL0     C83479  11.718   8.796   9.500  0.3649 -0.3669 -0.8248
  619MOL0     N83480  10.917   9.007   9.596  0.1560 -0.2034 -1.4350
  619MOL0     N83481  10.858   8.987   9.711  0.0963  0.2162  0.2513
  619MOL0     C83482   9.586   8.718  10.053  0.9656  0.2417  0.8709
  619MOL0     C83483   9.453   8.769  10.060  0.2307 -1.0311 -0.7238
  619MOL0     C83484   9.037   8.875  10.015 -0.4643 -0.4979 -0.4745
  619MOL0     C83485   9.026   9.015  10.051 -0.3382  0.1197  0.6802
  619MOL0     C83486   8.906   9.064  10.100 -0.1839 -0.0976  0.2490
  619MOL0     C83487   8.796   8.989  10.107  0.0313  0.4739  0.0722
  619MOL0     O83488   8.688   9.059  10.156 -0.0340  0.6550  0.4962
  619MOL0     C83489   8.560   9.004  10.167  0.5984  0.3446 -0.1379
  619MOL0     C83490   8.456   9.110  10.192  0.5534 -0.0356 -0.0428
  619MOL0     C83491   8.455   9.211  10.074  0.4570  0.1866 -0.0835
  619MOL0     C83492   8.331   9.306  10.091 -0.1758  0.3966  0.5320
  619MOL0     C83493   8.207   9.253  10.034  1.5800  0.0581  0.8747
  619MOL0     C83494   8.092   9.213  10.009 -0.0972  0.3664  0.1884
  619MOL0     C83495   8.796   8.855  10.059 -0.0645 -0.8524  0.2808
  619MOL0     C83496   8.913   8.800  10.016 -0.4637 -0.3810  0.0040
  619MOL0     C83497   8.909   8.649   9.992 -0.8339  0.4423  0.1151
  619MOL0     H83498   9.442   8.934   9.780 -1.0332 -2.9888  0.2560
  619MOL0     H83499   9.683   8.883   9.769  1.3463 -0.5310  0.2830
  619MOL0     H83500   9.895   8.691   9.765 -2.8138  1.9793 -0.8595
  619MOL0     H83501   9.888   8.858   9.815 -0.7190  1.2834  1.0701
  619MOL0     H83502  10.034   8.642   9.972 -0.5977 -0.0411  0.3014
  619MOL0     H83503  10.057   8.825   9.981 -0.8749  1.4438 -2.0225
  619MOL0     H83504  10.156   8.822   9.745 -0.1311  0.6816  0.9898
  619MOL0     H83505  10.122   8.653   9.743  0.9129  0.5636 -1.1991
  619MOL0     H83506  10.284   8.792   9.963 -1.1281  0.3683  0.2402
  619MOL0     H83507  10.277   8.616   9.929  1.6336  0.1257  1.0685
  619MOL0     H83508  10.378   8.663   9.703 -0.1275 -0.9800  1.5775
  619MOL0     H83509  10.402   8.832   9.748  4.4390 -0.3596  1.0580
  619MOL0     H83510  10.535   8.725   9.953 -1.3864  2.0568 -0.4972
  619MOL0     H83511  10.550   8.601   9.813 -0.9725 -1.0316 -0.1171
  619MOL0     H83512  10.609   8.894   9.784  1.3061  0.3539 -1.8017
  619MOL0     H83513  10.643   8.755   9.677 -1.6399 -0.4500  0.1433
  619MOL0     H83514  10.795   8.837   9.930 -1.1307  0.2378  0.0680
  619MOL0     H83515  10.820   8.683   9.845 -0.1233 -0.6915 -0.8618
  619MOL0     H83516  10.988   8.695   9.647  3.7923  1.1790 -0.2975
  619MOL0     H83517  11.052   8.762   9.402  0.0040 -0.0982  0.8033
  619MOL0     H83518  11.055   8.935   9.368 -0.3703  2.3245  3.0373
  619MOL0     H83519  11.238   8.939   9.530 -0.8825  1.0185  0.3301
  619MOL0     H83520  11.220   8.755   9.565  1.3462  0.8747  1.2955
  619MOL0     H83521  11.291   8.861   9.288 -2.2071  1.0312  0.1874
  619MOL0     H83522  11.293   8.695   9.347  1.4473 -0.0595 -0.8573
  619MOL0     H83523  11.463   8.778   9.528  1.4703 -0.5955  0.9448
  619MOL0     H83524  11.473   8.928   9.423  1.7264 -1.2299 -0.1992
  619MOL0     H83525  11.699   8.577   9.243 -0.0073  1.1946 -1.5178
  619MOL0     H83526  11.916   8.503   9.336  0.9557 -0.9480  1.8622
  619MOL0     H83527  12.305   8.624   9.458 -0.1351  0.5414 -0.3314
  619MOL0     H83528  12.549   8.574   9.525 -0.6827 -1.3270  0.5719
  619MOL0     H83529  12.741   8.495   9.621 -1.5262 -0.5768  1.3764
  619MOL0     H83530  12.728   8.670   9.661 -1.6289  1.2625  0.5514
  619MOL0     H83531  12.865   8.628   9.876  1.8311  0.3507  0.9341
  619MOL0     H83532  12.847   8.454   9.831  5.1227 -1.1686 -2.5337
  619MOL0     H83533  13.001   8.465   9.642 -0.8023  0.5320 -0.4228
  619MOL0     H83534  13.022   8.639   9.675 -0.2894 -0.3951 -0.2713
  619MOL0     H83535  13.086   8.435   9.890  5.2465  0.3036  2.5097
  619MOL0     H83536  13.116   8.603   9.901  2.9280 -1.0936  2.0902
  619MOL0     H83537  13.272   8.405   9.732  0.5682 -1.2587  0.6935
  619MOL0     H83538  13.330   8.518   9.853 -1.0317  1.2857 -0.0990
  619MOL0     H83539  13.221   8.570   9.572  1.2399 -1.3645 -0.8461
  619MOL0     H83540  13.268   8.704   9.685 -2.3161 -0.4439 -0.4354
  619MOL0     H83541  13.436   8.487   9.568  0.8819  0.2030 -0.2584
  619MOL0     H83542  13.495   8.631   9.670  0.5123 -2.9292  0.9317
  619MOL0     H83543  13.382   8.754   9.447 -1.0029 -0.7013 -2.5167
  619MOL0     H83544  13.547   8.699   9.451 -0.2221  0.6553 -2.1510
  619MOL0     H83545  12.417   8.593   9.934 -0.6952  0.7415 -0.6229
  619MOL0     H83546  12.195   8.666   9.866  1.7634 -1.2455  2.6550
  619MOL0     H83547  11.873   8.782   9.651 -0.3838  0.5664 -0.6502
  619MOL0     H83548  11.665   8.874   9.553  0.2960 -0.9877  0.0360
  619MOL0     H83549   9.628   8.649  10.125 -2.1221  1.2533  3.8711
  619MOL0     H83550   9.391   8.733  10.141  0.4602  3.0601  1.5442
  619MOL0     H83551   9.109   9.085  10.053 -0.7856  0.7058 -0.3947
  619MOL0     H83552   8.918   9.166  10.136  2.9167 -1.0041  2.1504
  619MOL0     H83553   8.560   8.922  10.240 -0.7366  1.0355  0.6811
  619MOL0     H83554   8.549   8.949  10.074 -1.3329 -0.2465  0.3999
  619MOL0     H83555   8.462   9.160  10.289  3.1540 -0.0417 -0.1238
  619MOL0     H83556   8.358   9.062  10.185 -0.3402  1.7360 -0.3611
  619MOL0     H83557   8.444   9.162   9.976 -0.0962  1.1942 -0.5445
  619MOL0     H83558   8.549   9.267  10.065  1.9873 -2.2969 -0.5271
  619MOL0     H83559   8.312   9.329  10.196 -2.4124 -0.8677  0.4600
  619MOL0     H83560   8.368   9.394  10.037  1.5617 -0.2008  0.6889
  619MOL0     H83561   7.993   9.186   9.975 -0.0829  0.4262  0.0989
  619MOL0     H83562   8.702   8.800  10.053 -0.8772  0.6543 -1.3651
  619MOL0     H83563   8.982   8.584  10.041 -1.1795 -2.8632 -3.3340
  619MOL0     H83564   8.806   8.613  10.003 -0.6609  0.2115  1.0984
  619MOL0     H83565   8.917   8.625   9.886  0.7131 -1.4414  0.5988
  620MOL0     O83566   9.050  10.953   5.733  0.0140  0.5117 -0.7755
  620MOL0     C83567   9.066  10.966   5.857 -0.7392  0.6749 -0.0296
  620MOL0     O83568   9.179  11.011   5.917  0.2530  0.9210  1.0799
  620MOL0     C83569   9.302  10.980   5.856 -0.0075 -0.1885  0.8007
  620MOL0     C83570   9.325  10.887   5.753 -0.4591 -0.7617  0.6695
  620MOL0     C83571   9.450  10.867   5.700 -0.4507  0.4017 -0.4277
  620MOL0     C83572   9.557  10.947   5.749  1.3177 -0.8993  1.1284
  620MOL0     O83573   9.680  10.928   5.696 -0.6476  0.0679 -0.0037
  620MOL0     C83574   9.689  10.979   5.565 -0.3432  0.0939  0.6798
  620MOL0     C83575   9.836  11.010   5.532  0.0889 -0.5183 -0.0686
  620MOL0     C83576   9.895  11.133   5.615 -0.2910 -0.7554 -0.3508
  620MOL0     C83577  10.037  11.177   5.553  0.2840 -0.2609 -0.6184
  620MOL0     C83578  10.102  11.292   5.636 -0.5124 -0.3995  0.5115
  620MOL0     C83579  10.242  11.329   5.577 -0.6950 -0.2035  0.1132
  620MOL0     C83580  10.323  11.413   5.683  0.6400  0.1306  0.0886
  620MOL0     C83581  10.452  11.475   5.625  0.1871 -0.5024 -0.1475
  620MOL0     N83582  10.415  11.560   5.504 -0.0326 -0.1769  0.1511
  620MOL0     C83583  10.371  11.693   5.520  0.4116  0.0374 -0.7742
  620MOL0     C83584  10.390  11.745   5.400  0.0723  1.1892  0.2903
  620MOL0     C83585  10.365  11.885   5.375 -0.0556 -0.0329 -0.1239
  620MOL0     C83586  10.501  11.953   5.339 -0.4388 -0.1569  0.4981
  620MOL0     C83587  10.472  12.090   5.282 -0.3085  0.3359  0.2127
  620MOL0     C83588  10.608  12.172   5.283 -0.4324  0.4803 -0.8135
  620MOL0     O83589  10.607  12.254   5.168  0.0732 -0.7397  0.4878
  620MOL0     C83590  10.714  12.333   5.142 -0.1549  0.0721  0.3943
  620MOL0     C83591  10.821  12.352   5.227 -0.5615 -0.7049  0.2941
  620MOL0     C83592  10.910  12.457   5.213  0.8402 -0.1985 -0.2728
  620MOL0     C83593  10.903  12.536   5.093  0.2403 -0.8033 -0.5233
  620MOL0     C83594  10.995  12.645   5.078 -0.3350 -0.0555 -0.3066
  620MOL0     O83595  11.099  12.657   5.165  0.0439 -0.2808  0.0263
  620MOL0     C83596  11.201  12.751   5.149 -0.4729 -0.0323  0.1150
  620MOL0     C83597  11.296  12.750   5.248 -0.6152  0.2622  0.4955
  620MOL0     C83598  11.423  12.825   5.239  0.5232  0.0893 -0.0099
  620MOL0     C83599  11.441  12.916   5.132  0.9764 -0.8434  0.2339
  620MOL0     O83600  11.557  12.983   5.134 -0.7587 -0.3553 -0.2265
  620MOL0     C83601  11.592  13.069   5.029 -0.2027 -0.1106 -0.6218
  620MOL0     C83602  11.736  13.121   5.030  0.0558  0.0297 -0.3051
  620MOL0     C83603  11.787  13.130   5.180  0.2316  0.4951  0.8059
  620MOL0     C83604  11.928  13.193   5.190 -1.1663  0.4079  0.1130
  620MOL0     C83605  11.979  13.194   5.327 -1.1322 -0.1970 -0.1853
  620MOL0     C83606  12.112  13.263   5.333 -0.7194  0.5826  0.4197
  620MOL0     C83607  12.186  13.252   5.466  0.6533  0.5221 -0.2734
  620MOL0     C83608  12.319  13.331   5.451 -0.2758 -0.3676 -0.0369
  620MOL0    Cl83609  12.398  13.367   5.609  0.1981 -0.5420 -0.1213
  620MOL0     C83610  11.330  12.934   5.041  0.4052  0.8805  0.5641
  620MOL0     C83611  11.219  12.848   5.045  0.2062  0.1746 -1.0638
  620MOL0     O83612  10.991  12.699   4.969 -0.2524 -0.1073 -0.0111
  620MOL0     C83613  10.798  12.510   4.995  0.4247 -0.0962  0.1176
  620MOL0     C83614  10.708  12.410   5.028  0.1326  0.3189  0.8047
  620MOL0     N83615  10.427  11.654   5.307 -0.1800  0.1769 -0.1935
  620MOL0     N83616  10.455  11.545   5.376  0.2849 -0.3954  0.8857
  620MOL0     C83617   9.539  11.048   5.852 -0.3029  1.3512  0.4570
  620MOL0     C83618   9.407  11.061   5.902  0.0906 -0.0878 -0.9211
  620MOL0     C83619   8.936  10.967   5.939  0.2741  0.5487  0.2054
  620MOL0     C83620   8.929  11.042   6.053 -0.3400  0.0999 -0.6010
  620MOL0     C83621   8.813  11.042   6.134 -0.2190  0.9211 -0.7938
  620MOL0     C83622   8.694  10.973   6.096 -0.6071 -0.4118 -0.0890
  620MOL0     O83623   8.582  10.969   6.180 -0.6770 -0.5922 -0.2906
  620MOL0     C83624   8.462  10.908   6.134 -0.9550 -0.4682 -0.2605
  620MOL0     C83625   8.342  10.944   6.229  0.4649 -0.0313  0.4072
  620MOL0     C83626   8.353  10.870   6.365  0.1315 -0.7165  0.1013
  620MOL0     C83627   8.318  10.716   6.345  0.5620 -0.0337 -0.4149
  620MOL0     C83628   8.367  10.636   6.460  0.2411 -0.4789  0.4370
  620MOL0     C83629   8.415  10.569   6.548  0.2321 -0.3410 -0.5708
  620MOL0     C83630   8.706  10.895   5.979 -0.8330  0.0483  0.8099
  620MOL0     C83631   8.823  10.887   5.906 -0.2544  0.0418  0.7132
  620MOL0     C83632   8.826  10.791   5.794 -0.6076 -0.6855 -0.1916
  620MOL0     H83633   9.253  10.813   5.719 -0.4135 -0.3882 -0.2494
  620MOL0     H83634   9.472  10.786   5.631  0.6648  0.7753 -0.5194
  620MOL0     H83635   9.662  10.914   5.481  2.3858 -0.4845  0.1436
  620MOL0     H83636   9.630  11.069   5.549 -0.3591 -0.4490 -3.3155
  620MOL0     H83637   9.840  11.039   5.426 -0.7631 -2.8921 -0.8300
  620MOL0     H83638   9.892  10.920   5.557 -0.1124 -0.4054  0.7931
  620MOL0     H83639   9.910  11.089   5.714 -0.2953  1.2592  0.5786
  620MOL0     H83640   9.816  11.208   5.618  0.2131 -0.2286 -0.2403
  620MOL0     H83641  10.104  11.092   5.549 -0.2734 -0.6961 -0.8025
  620MOL0     H83642  10.003  11.212   5.455 -4.2776  0.8439  1.0885
  620MOL0     H83643  10.036  11.379   5.641  0.4071  0.3042  0.6896
  620MOL0     H83644  10.126  11.256   5.736  0.1890 -1.8671 -0.1405
  620MOL0     H83645  10.292  11.234   5.553 -3.9534 -1.9071 -0.5372
  620MOL0     H83646  10.230  11.362   5.474  1.4038  0.1989 -0.0573
  620MOL0     H83647  10.351  11.345   5.765 -1.4454 -3.8466 -2.1576
  620MOL0     H83648  10.248  11.483   5.721  0.1212 -0.4723  0.2137
  620MOL0     H83649  10.504  11.542   5.695 -2.1470  0.7033  0.5523
  620MOL0     H83650  10.528  11.400   5.602 -1.3697 -1.5870 -2.0876
  620MOL0     H83651  10.323  11.750   5.598  0.7787 -0.0751 -0.4604
  620MOL0     H83652  10.293  11.882   5.293 -3.8878 -1.3874  3.0282
  620MOL0     H83653  10.312  11.932   5.458  0.2616  0.2747 -0.0897
  620MOL0     H83654  10.564  11.971   5.426  0.3204 -0.7866  0.0885
  620MOL0     H83655  10.558  11.893   5.268 -1.2177 -0.3517  0.0190
  620MOL0     H83656  10.399  12.146   5.341 -0.6510 -0.6829  0.7735
  620MOL0     H83657  10.426  12.082   5.182  0.5200 -2.3291 -0.0312
  620MOL0     H83658  10.696  12.112   5.258 -0.7121 -0.1576 -0.3025
  620MOL0     H83659  10.625  12.224   5.378 -1.3880 -1.0994  0.2796
  620MOL0     H83660  10.838  12.292   5.316 -1.4850 -0.6615  0.5081
  620MOL0     H83661  10.991  12.471   5.284  1.0251 -2.1173 -0.0444
  620MOL0     H83662  11.297  12.674   5.325  4.5093 -0.2202  0.2827
  620MOL0     H83663  11.501  12.801   5.311  1.6958 -0.2061 -1.3299
  620MOL0     H83664  11.573  13.021   4.933  0.7953  2.0005 -1.9404
  620MOL0     H83665  11.533  13.160   5.046  0.5339  0.0152  1.6538
  620MOL0     H83666  11.804  13.062   4.968 -0.4409  2.2738 -3.1603
  620MOL0     H83667  11.727  13.224   4.993 -0.7680 -0.2363 -0.8885
  620MOL0     H83668  11.720  13.190   5.242  0.7219  1.1768  0.6826
  620MOL0     H83669  11.789  13.025   5.209  2.6857  0.4170  0.5574
  620MOL0     H83670  11.923  13.297   5.157 -0.3151  0.5983  0.5457
  620MOL0     H83671  12.000  13.145   5.123  1.0037  0.9156  1.9478
  620MOL0     H83672  11.994  13.091   5.360  2.6811  0.5349  0.8185
  620MOL0     H83673  11.920  13.246   5.403  1.0046  3.0677 -0.5453
  620MOL0     H83674  12.179  13.236   5.252 -0.5863  0.0461  0.7063
  620MOL0     H83675  12.093  13.369   5.313 -1.5806 -0.0584 -2.7264
  620MOL0     H83676  12.199  13.150   5.501  0.3760  1.0140  1.3534
  620MOL0     H83677  12.133  13.313   5.541 -0.2709  0.3081 -0.7449
  620MOL0     H83678  12.382  13.278   5.379  0.9281 -1.2156  1.5704
  620MOL0     H83679  12.295  13.424   5.398  1.5735 -0.4910 -1.1723
  620MOL0     H83680  11.326  13.010   4.964 -0.4198  0.3553  0.0735
  620MOL0     H83681  11.149  12.871   4.965 -0.0806  1.9634 -0.3438
  620MOL0     H83682  10.793  12.570   4.905 -0.7945  0.9310  0.8433
  620MOL0     H83683  10.620  12.392   4.967  0.1515  2.6935 -0.0287
  620MOL0     H83684   9.625  11.108   5.877  1.6538 -1.2477  0.4286
  620MOL0     H83685   9.387  11.137   5.976  2.1802 -0.6333  0.3008
  620MOL0     H83686   9.014  11.103   6.081  1.0546 -1.3452 -1.5256
  620MOL0     H83687   8.807  11.101   6.224 -1.5899  1.2557 -1.0741
  620MOL0     H83688   8.486  10.801   6.129  1.8130  0.0669  0.0511
  620MOL0     H83689   8.435  10.945   6.035  0.1296  1.5861  0.1688
  620MOL0     H83690   8.249  10.923   6.175  1.0733 -2.7255  0.2617
  620MOL0     H83691   8.327  11.051   6.241 -0.7821  0.1453 -2.1276
  620MOL0     H83692   8.290  10.921   6.438 -0.7157 -0.9806 -0.4336
  620MOL0     H83693   8.458  10.880   6.396 -0.2003  0.5989  0.8782
  620MOL0     H83694   8.210  10.697   6.342  0.3520  0.5594  1.6321
  620MOL0     H83695   8.360  10.673   6.254 -2.6903 -2.3818 -1.0116
  620MOL0     H83696   8.444  10.536   6.646 -0.6239  1.7615  0.4443
  620MOL0     H83697   8.631  10.818   5.966 -1.5430  0.5604  1.7272
  620MOL0     H83698   8.817  10.844   5.699  1.1640  1.1586  0.5794
  620MOL0     H83699   8.923  10.740   5.800 -0.6512 -0.9533 -1.4730
  620MOL0     H83700   8.747  10.717   5.805  0.1272 -1.5584 -0.6286
  621MOL0     O83701   5.861   2.464   7.780 -0.4816  0.2256 -0.2763
  621MOL0     C83702   5.762   2.459   7.711  1.4563 -0.5000  0.1817
  621MOL0     O83703   5.757   2.403   7.585  0.0303 -0.5118 -0.2924
  621MOL0     C83704   5.875   2.356   7.534  0.4766  0.1234 -0.1944
  621MOL0     C83705   5.930   2.242   7.594  0.6446  0.5037  0.5230
  621MOL0     C83706   6.043   2.194   7.527 -0.4330  0.2101 -0.2780
  621MOL0     C83707   6.096   2.260   7.412 -0.2106 -0.4528 -0.3897
  621MOL0     O83708   6.199   2.208   7.343 -0.0451  0.0395 -0.5318
  621MOL0     C83709   6.324   2.252   7.386  0.6230 -0.4583  0.5788
  621MOL0     C83710   6.394   2.312   7.264 -0.1690  0.0730  0.4161
  621MOL0     C83711   6.539   2.360   7.277  0.2772  1.2424  0.5176
  621MOL0     C83712   6.634   2.246   7.312 -0.0442  0.3269 -0.4766
  621MOL0     C83713   6.772   2.324   7.310  0.8979 -0.2306  0.3149
  621MOL0     C83714   6.879   2.224   7.360  0.3418 -1.0057 -0.1615
  621MOL0     C83715   7.016   2.292   7.396 -0.4350  0.6085  0.6582
  621MOL0     C83716   7.004   2.384   7.517 -0.4128  0.7235 -0.1087
  621MOL0     N83717   7.136   2.376   7.598  0.5624  0.3084 -0.4995
  621MOL0     C83718   7.190   2.473   7.679 -0.1904  0.5471  0.7237
  621MOL0     C83719   7.275   2.417   7.765  0.6922  1.1906 -0.1650
  621MOL0     C83720   7.345   2.476   7.878  0.7186 -0.0743 -0.3374
  621MOL0     C83721   7.500   2.502   7.858  0.5009 -0.2172  0.0967
  621MOL0     C83722   7.575   2.583   7.965  0.1012 -0.2455 -0.9834
  621MOL0     C83723   7.554   2.535   8.112  0.7998 -0.9479  0.0201
  621MOL0     O83724   7.607   2.621   8.206 -0.3573 -0.0269 -0.4430
  621MOL0     C83725   7.740   2.623   8.237 -0.2525 -0.1086 -0.2020
  621MOL0     C83726   7.830   2.533   8.176 -0.0134  0.6331 -0.2514
  621MOL0     C83727   7.963   2.523   8.217 -0.1018 -0.1395 -0.3404
  621MOL0     C83728   8.016   2.617   8.311  0.1312 -0.1438  0.0713
  621MOL0     C83729   8.155   2.616   8.356 -0.0495  0.8211  0.8130
  621MOL0     O83730   8.230   2.507   8.330  0.5228  0.3810  0.6290
  621MOL0     C83731   8.350   2.493   8.402  0.2446  0.4923  0.1412
  621MOL0     C83732   8.387   2.361   8.433  0.4729 -0.0702  0.7321
  621MOL0     C83733   8.514   2.339   8.487  0.3975 -0.5308 -0.5469
  621MOL0     C83734   8.600   2.446   8.509 -0.0379  0.8186 -0.1791
  621MOL0     O83735   8.722   2.411   8.570  0.1379  0.5626 -0.4547
  621MOL0     C83736   8.851   2.462   8.515 -0.2215  0.9360  0.2565
  621MOL0     C83737   8.966   2.446   8.605  0.0398  0.3213  0.2373
  621MOL0     C83738   9.024   2.314   8.625 -0.8883 -0.0022  0.0229
  621MOL0     C83739   9.131   2.319   8.740  0.5344  0.0648 -0.0723
  621MOL0     C83740   9.203   2.192   8.785 -0.3472 -0.2678  0.1717
  621MOL0     C83741   9.273   2.105   8.676  0.2175  0.5208 -1.1603
  621MOL0     C83742   9.300   1.963   8.725  0.4068  0.1183  0.0803
  621MOL0     C83743   9.381   1.963   8.855  0.0489  0.1205 -0.3544
  621MOL0    Cl83744   9.542   2.044   8.835  0.1398  0.2090  0.3313
  621MOL0     C83745   8.558   2.571   8.476 -0.0985 -0.4009  0.5428
  621MOL0     C83746   8.438   2.593   8.419 -0.2637  0.8132  0.4043
  621MOL0     O83747   8.181   2.703   8.437  0.0497  0.4679  0.9232
  621MOL0     C83748   7.927   2.705   8.374  0.6072  0.0129  0.4211
  621MOL0     C83749   7.792   2.699   8.343  0.5881 -0.0299  1.0343
  621MOL0     N83750   7.280   2.287   7.722  0.5418 -0.0215 -0.2580
  621MOL0     N83751   7.201   2.256   7.631 -0.1901 -0.0358  1.8130
  621MOL0     C83752   6.047   2.383   7.372  0.0698 -0.7985 -0.1951
  621MOL0     C83753   5.937   2.431   7.435 -0.5333 -0.1533  0.8314
  621MOL0     C83754   5.628   2.520   7.743  0.4690  0.9750 -0.5627
  621MOL0     C83755   5.505   2.488   7.670 -0.4759  0.6318 -0.6347
  621MOL0     C83756   5.381   2.534   7.697  0.5695  0.4782  0.2979
  621MOL0     C83757   5.357   2.621   7.814 -0.0954  0.3731 -0.7418
  621MOL0     O83758   5.229   2.655   7.842 -0.7644 -0.0966 -0.0322
  621MOL0     C83759   5.208   2.692   7.979  0.4959 -0.4502 -0.3279
  621MOL0     C83760   5.056   2.709   8.006  0.2593 -0.0840 -0.1986
  621MOL0     C83761   4.988   2.823   7.935  0.4040  0.0795 -0.1872
  621MOL0     C83762   4.865   2.869   8.011  0.2468 -0.1674 -0.3284
  621MOL0     C83763   4.759   2.769   7.999  0.1746  0.5225 -0.1101
  621MOL0     C83764   4.662   2.687   7.993 -0.0191  0.0196  0.1373
  621MOL0     C83765   5.473   2.650   7.891  0.8950  0.2747  0.4269
  621MOL0     C83766   5.599   2.601   7.856  0.5230 -0.0429  0.4560
  621MOL0     C83767   5.718   2.652   7.940 -0.2260 -0.0795  0.0691
  621MOL0     H83768   5.892   2.184   7.677 -0.0215 -1.8901 -1.3331
  621MOL0     H83769   6.085   2.096   7.547  3.3436  1.5327 -0.7912
  621MOL0     H83770   6.310   2.337   7.454 -0.3149  1.1084 -1.4671
  621MOL0     H83771   6.386   2.170   7.423 -0.2766 -1.3791  0.0675
  621MOL0     H83772   6.346   2.401   7.222  0.8110  0.6983  0.5857
  621MOL0     H83773   6.396   2.236   7.185  0.9540  2.8580 -2.4804
  621MOL0     H83774   6.534   2.436   7.356 -0.0056  0.9307  0.8042
  621MOL0     H83775   6.560   2.399   7.177 -0.9445  0.3729 -0.1108
  621MOL0     H83776   6.616   2.212   7.414  0.2825 -2.1724 -1.1846
  621MOL0     H83777   6.629   2.167   7.236 -0.1676  0.9459 -1.1272
  621MOL0     H83778   6.814   2.353   7.213  1.6916 -0.2905  0.6253
  621MOL0     H83779   6.771   2.417   7.368  1.0471 -0.6977  1.0887
  621MOL0     H83780   6.847   2.174   7.451 -0.9387 -4.1780 -2.1965
  621MOL0     H83781   6.900   2.146   7.286 -0.0841 -0.0941 -1.2919
  621MOL0     H83782   7.039   2.348   7.305  1.0947 -1.3912 -0.2663
  621MOL0     H83783   7.098   2.219   7.400  0.1151  0.8152 -3.2790
  621MOL0     H83784   6.988   2.489   7.491  1.7765  0.6320 -2.1142
  621MOL0     H83785   6.932   2.348   7.592  0.9421  1.1998  1.4844
  621MOL0     H83786   7.161   2.577   7.685 -1.8487  0.3101 -1.7368
  621MOL0     H83787   7.298   2.566   7.919 -0.6779 -2.1262  3.0592
  621MOL0     H83788   7.328   2.407   7.962  1.3772 -0.2231 -0.3216
  621MOL0     H83789   7.534   2.398   7.847 -0.0124 -0.2651 -1.3528
  621MOL0     H83790   7.507   2.558   7.764 -0.0652 -2.9716 -1.7388
  621MOL0     H83791   7.550   2.689   7.956  2.7933  0.4283 -1.3132
  621MOL0     H83792   7.678   2.580   7.927  0.4083  3.8894 -0.8472
  621MOL0     H83793   7.591   2.432   8.122  2.3308 -0.6414 -1.7599
  621MOL0     H83794   7.446   2.541   8.124  0.7883  2.1840 -0.7781
  621MOL0     H83795   7.804   2.463   8.097  0.3009 -1.4314  1.3904
  621MOL0     H83796   8.046   2.471   8.169  3.1934  4.8681 -0.7962
  621MOL0     H83797   8.326   2.277   8.400 -2.5652  2.8299 -1.7510
  621MOL0     H83798   8.551   2.239   8.508  1.8128 -0.4309 -2.3013
  621MOL0     H83799   8.873   2.402   8.426 -1.3842  0.0477  0.5406
  621MOL0     H83800   8.847   2.569   8.494  0.1396  0.9808  0.4217
  621MOL0     H83801   9.060   2.490   8.570  1.0097  0.3400  2.7038
  621MOL0     H83802   8.935   2.493   8.698 -2.3359 -1.1783  0.2748
  621MOL0     H83803   8.945   2.240   8.639 -0.7946 -0.9846 -3.7752
  621MOL0     H83804   9.077   2.276   8.538 -0.8304 -0.7170  0.3641
  621MOL0     H83805   9.075   2.349   8.829 -1.1950  2.3863 -1.8314
  621MOL0     H83806   9.204   2.399   8.725 -0.0161  1.8012  4.7497
  621MOL0     H83807   9.133   2.120   8.828 -0.7142  0.6014  1.0716
  621MOL0     H83808   9.278   2.236   8.851 -0.3500  0.7716 -0.4923
  621MOL0     H83809   9.207   2.095   8.589  0.7224  2.0213 -1.7539
  621MOL0     H83810   9.361   2.158   8.636  2.0157 -1.8432 -0.6168
  621MOL0     H83811   9.342   1.912   8.638 -2.1156  0.6209 -1.5196
  621MOL0     H83812   9.209   1.905   8.737  0.5885 -0.0887  0.5282
  621MOL0     H83813   9.321   2.020   8.926 -1.9608  0.2033 -2.0313
  621MOL0     H83814   9.400   1.867   8.902  1.4201  1.6605  2.4731
  621MOL0     H83815   8.632   2.650   8.482 -0.1909 -0.3223  0.6465
  621MOL0     H83816   8.413   2.693   8.383 -1.6833  0.2426 -0.2755
  621MOL0     H83817   7.954   2.771   8.456  1.3878  1.3614 -0.8686
  621MOL0     H83818   7.721   2.769   8.385 -1.1323 -1.8750  1.3513
  621MOL0     H83819   6.107   2.436   7.299 -0.3497  0.4156  0.3201
  621MOL0     H83820   5.895   2.524   7.400 -2.7580 -0.0472  3.4240
  621MOL0     H83821   5.511   2.420   7.586 -3.2206 -0.1066 -0.3434
  621MOL0     H83822   5.291   2.511   7.642  0.8441 -2.6218  0.9591
  621MOL0     H83823   5.246   2.794   7.995 -1.9067  0.2369  1.6967
  621MOL0     H83824   5.247   2.616   8.047 -0.9482 -0.1416  0.9116
  621MOL0     H83825   5.050   2.715   8.115  0.8558  0.4952 -0.1935
  621MOL0     H83826   5.008   2.613   7.984  1.2927 -0.7672  0.4466
  621MOL0     H83827   4.975   2.799   7.829 -0.0205 -1.2676  0.1547
  621MOL0     H83828   5.058   2.907   7.942 -0.4721  0.7679  0.5757
  621MOL0     H83829   4.879   2.906   8.113 -1.5376 -1.3832  0.3979
  621MOL0     H83830   4.828   2.962   7.967 -1.0739 -0.5256 -0.0150
  621MOL0     H83831   4.579   2.619   7.992 -1.6759  1.9136 -0.1631
  621MOL0     H83832   5.467   2.726   7.968  1.8643 -0.4322  1.2333
  621MOL0     H83833   5.769   2.723   7.875 -0.2286 -1.5832 -1.6454
  621MOL0     H83834   5.681   2.709   8.026  0.9112 -1.1166  1.2864
  621MOL0     H83835   5.781   2.573   7.981  0.1533  0.1199 -0.1227
  622MOL0     O83836   1.426   9.625   6.860 -0.0296  0.6805  0.1388
  622MOL0     C83837   1.384   9.512   6.879 -0.0184  1.0348 -0.1325
  622MOL0     O83838   1.449   9.406   6.943 -0.2053  0.0896  0.2645
  622MOL0     C83839   1.580   9.420   6.988  0.1748  0.2361  0.5053
  622MOL0     C83840   1.599   9.359   7.111 -0.0430 -0.1417 -0.2839
  622MOL0     C83841   1.731   9.365   7.165 -0.4973  0.1822  0.0343
  622MOL0     C83842   1.836   9.422   7.104 -0.0298 -0.9688  0.8707
  622MOL0     O83843   1.962   9.404   7.161  1.1503 -0.4928  0.1945
  622MOL0     C83844   2.064   9.375   7.069 -0.2712  0.7680  0.2842
  622MOL0     C83845   2.184   9.309   7.141  0.4019  0.1924 -0.1891
  622MOL0     C83846   2.314   9.309   7.051 -0.1433 -0.0117  0.4238
  622MOL0     C83847   2.437   9.248   7.116  0.0613 -0.4268 -0.4103
  622MOL0     C83848   2.493   9.321   7.237 -0.3497 -0.8527  1.0025
  622MOL0     C83849   2.617   9.248   7.299  0.2192  0.0465 -0.8019
  622MOL0     C83850   2.744   9.234   7.214  0.4995  0.7781 -0.3633
  622MOL0     C83851   2.814   9.368   7.203 -0.3346 -0.5377  0.3388
  622MOL0     N83852   2.947   9.368   7.131 -0.4138 -0.5318 -0.4703
  622MOL0     C83853   3.079   9.364   7.193  1.0812 -1.0972 -0.0838
  622MOL0     C83854   3.167   9.382   7.100 -0.3714  0.3693  0.2742
  622MOL0     C83855   3.313   9.398   7.105  0.5236  0.7326  0.1332
  622MOL0     C83856   3.380   9.313   6.991 -0.2258 -0.5762 -0.7314
  622MOL0     C83857   3.533   9.278   7.024 -0.3058 -0.3109  0.3003
  622MOL0     C83858   3.614   9.398   6.980 -0.3295 -0.3908 -0.7317
  622MOL0     O83859   3.730   9.341   6.919  0.2401 -0.4621  0.3261
  622MOL0     C83860   3.847   9.416   6.904 -0.0410  0.1101 -0.7841
  622MOL0     C83861   3.968   9.348   6.881 -1.0499  0.8146  0.5621
  622MOL0     C83862   4.093   9.407   6.877 -0.3148 -0.2689  1.1568
  622MOL0     C83863   4.102   9.548   6.882  0.2952  1.2819  0.2381
  622MOL0     C83864   4.230   9.620   6.895  0.4279 -1.1377 -0.3306
  622MOL0     O83865   4.337   9.539   6.891 -1.2772  0.9617 -0.1129
  622MOL0     C83866   4.470   9.569   6.943  0.6074 -0.6462 -0.3113
  622MOL0     C83867   4.573   9.475   6.941  0.1009 -0.1920 -0.2984
  622MOL0     C83868   4.705   9.507   6.977 -0.2306 -0.6918 -0.6158
  622MOL0     C83869   4.743   9.628   7.036  0.8594 -0.3890 -0.4200
  622MOL0     O83870   4.878   9.642   7.082 -0.1717 -0.5567 -0.1489
  622MOL0     C83871   4.916   9.769   7.122  0.1310  0.6847  0.8704
  622MOL0     C83872   5.066   9.766   7.159  0.2879  0.2736  0.8206
  622MOL0     C83873   5.145   9.655   7.091 -0.7829  0.2823 -0.5670
  622MOL0     C83874   5.294   9.651   7.143 -0.4148  0.0555 -0.6756
  622MOL0     C83875   5.397   9.543   7.090 -0.3892  0.0829  0.2747
  622MOL0     C83876   5.539   9.585   7.125 -0.5499 -0.7084 -0.5591
  622MOL0     C83877   5.650   9.473   7.101  0.3307  0.3707 -0.2310
  622MOL0     C83878   5.784   9.499   7.160 -1.0752  0.4119 -0.7841
  622MOL0    Cl83879   5.782   9.440   7.330 -0.2198 -0.1670  0.1640
  622MOL0     C83880   4.634   9.716   7.043  0.3727 -0.4346 -0.6297
  622MOL0     C83881   4.500   9.695   7.003 -0.3106 -0.5088 -0.0174
  622MOL0     O83882   4.223   9.748   6.907 -0.2554 -0.3717 -0.7982
  622MOL0     C83883   3.981   9.614   6.909  0.0458  0.2737  0.2950
  622MOL0     C83884   3.861   9.552   6.913  0.9525  0.3528  1.2623
  622MOL0     N83885   3.087   9.402   6.984 -0.2308 -0.1273 -0.8387
  622MOL0     N83886   2.959   9.392   7.002 -0.1575  0.6557 -0.0001
  622MOL0     C83887   1.816   9.482   6.984 -0.8130 -0.2405  1.5432
  622MOL0     C83888   1.688   9.484   6.927  0.0173  0.1741 -0.5577
  622MOL0     C83889   1.242   9.483   6.840 -0.3341  0.2924 -0.4094
  622MOL0     C83890   1.171   9.371   6.901  0.4624 -0.7629 -0.2146
  622MOL0     C83891   1.034   9.345   6.854 -0.0329  0.2611  0.3135
  622MOL0     C83892   0.968   9.432   6.763  0.2301 -0.0595 -0.5951
  622MOL0     O83893   0.831   9.424   6.732  0.2215  0.8321  0.3345
  622MOL0     C83894   0.758   9.298   6.745 -0.4468  0.2503  0.4959
  622MOL0     C83895   0.621   9.314   6.679  0.0043  0.7467 -0.5527
  622MOL0     C83896   0.524   9.410   6.758 -0.5208  0.3623 -0.1124
  622MOL0     C83897   0.384   9.359   6.734 -0.0618  0.7601 -0.3934
  622MOL0     C83898   0.276   9.443   6.787  0.5416  0.3691 -1.1633
  622MOL0     C83899   0.170   9.509   6.814  0.0543  0.5389  0.6106
  622MOL0     C83900   1.043   9.533   6.703 -0.6174  0.2060 -0.1436
  622MOL0     C83901   1.182   9.551   6.728 -0.3052  0.0252  0.2529
  622MOL0     C83902   1.264   9.634   6.628  0.0491 -0.6682  0.5122
  622MOL0     H83903   1.522   9.310   7.169  1.4489 -1.0093  1.0708
  622MOL0     H83904   1.749   9.327   7.265  1.9821 -1.0434 -0.7897
  622MOL0     H83905   2.024   9.304   6.996  0.7870  0.1869  0.2523
  622MOL0     H83906   2.110   9.462   7.020  2.1778 -0.6253 -0.0741
  622MOL0     H83907   2.157   9.204   7.160  3.6913 -1.0874 -1.7429
  622MOL0     H83908   2.202   9.363   7.234 -2.4595 -2.0008  1.8266
  622MOL0     H83909   2.340   9.412   7.024 -2.3668  0.7741  1.1274
  622MOL0     H83910   2.294   9.262   6.954  4.7578 -3.8668  0.8533
  622MOL0     H83911   2.423   9.141   7.137  1.0189 -0.6729 -0.9231
  622MOL0     H83912   2.525   9.256   7.051  1.3733 -0.8358  1.2313
  622MOL0     H83913   2.524   9.421   7.206 -1.3609 -0.4822  1.1544
  622MOL0     H83914   2.411   9.323   7.309 -2.4372 -2.2392 -1.1889
  622MOL0     H83915   2.646   9.303   7.389  1.6617  2.0551 -2.4299
  622MOL0     H83916   2.579   9.148   7.322 -4.3740  1.5932 -0.4942
  622MOL0     H83917   2.727   9.178   7.122  0.4016 -0.4232  0.3670
  622MOL0     H83918   2.817   9.164   7.256  0.7274 -0.4365 -2.6213
  622MOL0     H83919   2.740   9.439   7.166 -2.7585 -2.7146  0.6885
  622MOL0     H83920   2.836   9.403   7.304 -4.1276  0.0096  1.1273
  622MOL0     H83921   3.105   9.358   7.298  2.8588 -0.5343 -0.4485
  622MOL0     H83922   3.339   9.504   7.099 -1.2001  1.1749 -0.2041
  622MOL0     H83923   3.361   9.360   7.196  1.7694 -0.8675 -1.1378
  622MOL0     H83924   3.332   9.215   6.989  0.1037 -0.7298 -1.6118
  622MOL0     H83925   3.370   9.347   6.888 -1.6985 -0.4008 -0.5476
  622MOL0     H83926   3.547   9.196   6.953  1.7191  0.0787  0.1954
  622MOL0     H83927   3.555   9.260   7.130  2.4660  2.8266  0.4299
  622MOL0     H83928   3.639   9.462   7.065 -1.0601  0.6928 -1.3158
  622MOL0     H83929   3.556   9.466   6.917 -0.9265  2.0913  2.3044
  622MOL0     H83930   3.957   9.242   6.864  0.9326  0.8733 -1.5219
  622MOL0     H83931   4.184   9.348   6.874  0.1103  0.3834  0.9886
  622MOL0     H83932   4.540   9.375   6.912  2.3631 -0.5941 -1.7639
  622MOL0     H83933   4.783   9.432   6.966  0.1428 -0.3581 -0.2500
  622MOL0     H83934   4.898   9.839   7.040 -1.8676  1.3234  1.7955
  622MOL0     H83935   4.858   9.799   7.210 -0.0790 -1.6482  1.5877
  622MOL0     H83936   5.106   9.866   7.145  1.9319 -0.2453  1.5004
  622MOL0     H83937   5.083   9.747   7.266  0.7929 -4.0183  0.1832
  622MOL0     H83938   5.096   9.558   7.104  0.5440 -0.3203  0.1177
  622MOL0     H83939   5.147   9.669   6.982 -3.1032  1.5371 -0.5385
  622MOL0     H83940   5.285   9.645   7.252 -0.4164 -0.3065 -0.6963
  622MOL0     H83941   5.329   9.753   7.121 -3.5093  0.9766 -1.8707
  622MOL0     H83942   5.383   9.538   6.981 -1.0411  0.1667  0.3516
  622MOL0     H83943   5.371   9.451   7.143 -0.9038  1.1865  2.0223
  622MOL0     H83944   5.564   9.678   7.073  0.7940 -1.6975 -1.7819
  622MOL0     H83945   5.543   9.606   7.233 -0.3076 -4.6292  0.3376
  622MOL0     H83946   5.669   9.450   6.996 -0.0604 -1.2105  0.0166
  622MOL0     H83947   5.602   9.384   7.142 -0.1540 -0.0174 -1.6096
  622MOL0     H83948   5.869   9.449   7.112  0.9415  2.8689  0.0154
  622MOL0     H83949   5.805   9.606   7.155  1.1560  0.0459 -0.1994
  622MOL0     H83950   4.646   9.818   7.077  1.7961 -0.8185  0.1110
  622MOL0     H83951   4.426   9.773   6.995  0.3674  0.0650 -0.9117
  622MOL0     H83952   3.975   9.721   6.923 -0.1010  0.2058  0.7574
  622MOL0     H83953   3.766   9.605   6.922 -1.3984 -3.2360 -0.0540
  622MOL0     H83954   1.891   9.532   6.924  0.9958 -2.2868  1.9796
  622MOL0     H83955   1.680   9.532   6.830  1.6198 -0.4142 -1.0082
  622MOL0     H83956   1.210   9.312   6.983 -0.2072 -0.0943  0.6147
  622MOL0     H83957   0.981   9.257   6.889 -0.3521 -0.0377 -0.8851
  622MOL0     H83958   0.752   9.263   6.848  1.1731 -0.3900  0.4022
  622MOL0     H83959   0.817   9.225   6.688  1.4688  1.3347  1.0252
  622MOL0     H83960   0.574   9.216   6.667  0.8025  0.0131  1.8479
  622MOL0     H83961   0.633   9.350   6.576  0.5480  2.2205 -0.0015
  622MOL0     H83962   0.538   9.506   6.709  0.9442 -0.4034 -1.2745
  622MOL0     H83963   0.548   9.419   6.864 -3.2366  0.1430  0.5939
  622MOL0     H83964   0.367   9.344   6.627 -4.1266  0.9651  0.0497
  622MOL0     H83965   0.380   9.262   6.785  2.6394  0.1049 -1.2669
  622MOL0     H83966   0.078   9.565   6.818 -1.5615 -1.8325 -0.8417
  622MOL0     H83967   1.017   9.601   6.622 -0.5091  0.1671 -0.2118
  622MOL0     H83968   1.352   9.577   6.599  0.2968 -0.0946  0.1371
  622MOL0     H83969   1.213   9.650   6.533  0.9942 -2.2866 -0.2998
  622MOL0     H83970   1.285   9.734   6.668 -3.2491  1.1767 -1.8285
  623MOL0     O83971   9.019   4.479   9.591  0.0492  0.3599  0.3535
  623MOL0     C83972   8.976   4.430   9.487 -0.2291 -0.2409 -0.2949
  623MOL0     O83973   9.054   4.357   9.401 -0.3265 -0.1829 -0.1789
  623MOL0     C83974   9.176   4.319   9.456  0.8434  0.0591 -0.2821
  623MOL0     C83975   9.295   4.357   9.396 -0.2056  1.1529 -0.4005
  623MOL0     C83976   9.418   4.305   9.444 -0.0472 -0.2314  0.0898
  623MOL0     C83977   9.425   4.229   9.559  0.3329  0.1051  0.5108
  623MOL0     O83978   9.549   4.190   9.597 -0.1690  0.5664 -0.3405
  623MOL0     C83979   9.555   4.133   9.725  0.2234 -0.7497  0.2812
  623MOL0     C83980   9.710   4.124   9.752  0.5998  1.3781  0.4577
  623MOL0     C83981   9.792   4.043   9.653 -0.3491 -0.0700  0.5058
  623MOL0     C83982   9.935   4.041   9.695 -0.6367  0.3650  0.1557
  623MOL0     C83983  10.035   3.980   9.601 -0.4535  0.5120 -0.5619
  623MOL0     C83984  10.169   3.987   9.677  0.4759 -0.0449  0.2902
  623MOL0     C83985  10.267   3.893   9.638 -0.5055 -0.2643 -0.6328
  623MOL0     C83986  10.395   3.916   9.729  0.3122 -0.3892 -0.3238
  623MOL0     N83987  10.519   3.884   9.657  0.1940  0.1559 -0.9435
  623MOL0     C83988  10.575   3.762   9.644 -0.0819 -0.2337 -0.2283
  623MOL0     C83989  10.685   3.777   9.573  0.1573  0.5886 -0.8312
  623MOL0     C83990  10.786   3.662   9.538  0.1250 -0.6166 -0.2408
  623MOL0     C83991  10.924   3.729   9.490 -0.2771  1.0383 -0.1173
  623MOL0     C83992  11.019   3.618   9.441  0.2843 -0.2084  0.1819
  623MOL0     C83993  11.163   3.669   9.427 -0.1897  0.3649 -0.3278
  623MOL0     O83994  11.197   3.666   9.289  0.1924 -0.5011 -0.3780
  623MOL0     C83995  11.327   3.653   9.253 -0.6494 -0.6018 -0.0800
  623MOL0     C83996  11.349   3.717   9.128 -0.3783  0.0956  0.1317
  623MOL0     C83997  11.474   3.722   9.071  0.3524 -0.2218 -0.1315
  623MOL0     C83998  11.583   3.668   9.129  0.3797 -1.1915 -0.2158
  623MOL0     C83999  11.717   3.669   9.065 -0.0871  0.1045 -0.0646
  623MOL0     O84000  11.730   3.737   8.945 -0.1573  0.2054  0.5494
  623MOL0     C84001  11.859   3.744   8.889 -0.8919  0.4523  0.0127
  623MOL0     C84002  11.908   3.662   8.783 -0.3665 -0.4737 -0.7296
  623MOL0     C84003  12.042   3.672   8.739 -0.3673  0.4207  0.6325
  623MOL0     C84004  12.135   3.755   8.799 -0.0548 -0.3458 -0.2353
  623MOL0     O84005  12.263   3.763   8.761  0.3330  0.1586  0.4025
  623MOL0     C84006  12.351   3.874   8.788  0.4885  0.5304 -0.4589
  623MOL0     C84007  12.495   3.869   8.730 -0.3675 -1.1291 -0.1167
  623MOL0     C84008  12.570   3.745   8.787  0.4352  0.1564  0.2509
  623MOL0     C84009  12.718   3.750   8.746  0.1090 -0.3876 -0.4033
  623MOL0     C84010  12.797   3.844   8.845 -0.7829  0.5083  0.4081
  623MOL0     C84011  12.943   3.840   8.802 -1.1707 -0.7384 -0.5734
  623MOL0     C84012  13.030   3.912   8.902 -0.0399  0.1191 -0.1417
  623MOL0     C84013  13.152   3.982   8.830 -1.0558 -0.2877 -0.0830
  623MOL0    Cl84014  13.260   3.863   8.750  0.0990  0.1732  0.4670
  623MOL0     C84015  12.077   3.851   8.890 -0.8447  0.0156  0.1031
  623MOL0     C84016  11.940   3.844   8.928 -0.2159  0.3309  0.3150
  623MOL0     O84017  11.813   3.641   9.145 -0.3630 -0.3871  0.2863
  623MOL0     C84018  11.565   3.597   9.254 -1.1738 -1.2029 -0.4449
  623MOL0     C84019  11.440   3.589   9.319  0.0374 -0.3472 -0.1321
  623MOL0     N84020  10.695   3.910   9.537 -0.8920  1.0542  0.3004
  623MOL0     N84021  10.584   3.965   9.564  0.3153 -0.0989  0.4146
  623MOL0     C84022   9.301   4.199   9.624  0.1427 -0.3635  0.3496
  623MOL0     C84023   9.176   4.241   9.567 -0.6386 -0.2451 -0.1825
  623MOL0     C84024   8.835   4.449   9.450 -0.7013 -0.2833 -0.1752
  623MOL0     C84025   8.804   4.508   9.326  0.1630  0.2264  0.7201
  623MOL0     C84026   8.669   4.533   9.291 -0.3983  0.8364  0.9314
  623MOL0     C84027   8.571   4.496   9.374  0.3079  0.2334 -0.2054
  623MOL0     O84028   8.443   4.504   9.310  0.2219  0.1840 -0.4144
  623MOL0     C84029   8.333   4.438   9.364  0.8092  0.4295 -0.2096
  623MOL0     C84030   8.216   4.477   9.283  0.6645 -0.5507  0.3386
  623MOL0     C84031   8.080   4.450   9.358 -0.7567 -0.2017 -0.1489
  623MOL0     C84032   7.964   4.435   9.252  0.2304  0.6582  0.2774
  623MOL0     C84033   7.951   4.558   9.177 -0.0329  0.1609 -0.6766
  623MOL0     C84034   7.915   4.662   9.126  0.1534 -0.8033 -0.9437
  623MOL0     C84035   8.598   4.443   9.501  0.4182  0.0584 -0.7607
  623MOL0     C84036   8.729   4.436   9.541  0.0132  0.7528 -0.0421
  623MOL0     C84037   8.751   4.369   9.680  0.6351 -0.2932 -0.3997
  623MOL0     H84038   9.284   4.410   9.302  1.1005  1.7488 -0.2326
  623MOL0     H84039   9.501   4.341   9.384 -0.8881  0.4654 -0.6813
  623MOL0     H84040   9.510   4.196   9.802  1.3696  2.9376 -1.8357
  623MOL0     H84041   9.517   4.030   9.726 -2.7085  0.1044 -2.7882
  623MOL0     H84042   9.722   4.088   9.854 -0.2166  4.1410  1.6341
  623MOL0     H84043   9.747   4.227   9.741 -0.1038  1.5307 -0.6668
  623MOL0     H84044   9.789   4.089   9.553 -1.2119  1.2260  1.0994
  623MOL0     H84045   9.762   3.938   9.649 -0.4775 -0.0891  1.6222
  623MOL0     H84046   9.976   4.141   9.710  3.5187 -1.2829  1.4539
  623MOL0     H84047   9.944   4.002   9.797  1.1039  0.9240  0.2504
  623MOL0     H84048  10.004   3.877   9.583 -2.0891  0.7887  0.4833
  623MOL0     H84049  10.031   4.035   9.506 -0.7224 -2.4085 -2.3497
  623MOL0     H84050  10.207   4.088   9.659 -0.4598  0.0741 -1.2524
  623MOL0     H84051  10.161   3.984   9.786  6.1745  0.1344  0.9992
  623MOL0     H84052  10.300   3.905   9.534  2.2905 -1.0391  0.0779
  623MOL0     H84053  10.240   3.787   9.644 -2.1776  0.1562 -0.3054
  623MOL0     H84054  10.402   4.020   9.764  1.3084 -0.5303 -0.0809
  623MOL0     H84055  10.379   3.845   9.811  0.9451 -1.4960 -1.1466
  623MOL0     H84056  10.544   3.668   9.688 -1.4140  0.9093  1.4142
  623MOL0     H84057  10.792   3.614   9.636  0.2737 -0.8191 -0.3499
  623MOL0     H84058  10.753   3.587   9.466  2.3396 -1.2827 -0.6511
  623MOL0     H84059  10.899   3.806   9.417 -2.9523  1.5921  1.2470
  623MOL0     H84060  10.979   3.781   9.569  0.1923 -0.8996  0.8741
  623MOL0     H84061  10.978   3.578   9.348  0.4539 -3.6842  1.4553
  623MOL0     H84062  11.009   3.535   9.511 -0.6298 -0.2947 -0.0407
  623MOL0     H84063  11.218   3.586   9.473 -0.2780  0.3607 -0.2319
  623MOL0     H84064  11.176   3.763   9.480 -3.4496  0.5689  0.2782
  623MOL0     H84065  11.261   3.756   9.079  0.9473  1.1224 -1.5638
  623MOL0     H84066  11.475   3.760   8.970 -0.4095 -0.5258 -0.2586
  623MOL0     H84067  11.840   3.591   8.737  1.9028 -2.7848 -0.7874
  623MOL0     H84068  12.083   3.616   8.655  1.6372  0.9887  1.1622
  623MOL0     H84069  12.298   3.963   8.753 -1.3057  0.9215  2.8818
  623MOL0     H84070  12.366   3.890   8.895 -3.8701  1.1078  0.2582
  623MOL0     H84071  12.483   3.866   8.621 -2.0072  2.0713 -0.1343
  623MOL0     H84072  12.557   3.957   8.750 -1.3107 -0.6856  0.9434
  623MOL0     H84073  12.560   3.738   8.895 -0.3204  1.7389  0.3165
  623MOL0     H84074  12.537   3.651   8.742 -1.5329 -0.0871  2.0651
  623MOL0     H84075  12.730   3.773   8.640  1.4299 -1.9677 -0.6384
  623MOL0     H84076  12.767   3.653   8.759  0.4988  0.0420  1.7640
  623MOL0     H84077  12.791   3.812   8.949 -1.9287  1.7467  0.7583
  623MOL0     H84078  12.769   3.949   8.830 -3.0418 -0.2596 -1.5029
  623MOL0     H84079  12.981   3.737   8.798  1.5945  0.1674  0.1552
  623MOL0     H84080  12.965   3.881   8.703 -0.0957 -1.1416 -0.5080
  623MOL0     H84081  13.066   3.839   8.975  0.3759 -0.2385 -0.6952
  623MOL0     H84082  12.968   3.992   8.943  1.3597  2.3575 -2.1228
  623MOL0     H84083  13.128   4.063   8.760  0.6394 -0.4050 -0.8607
  623MOL0     H84084  13.221   4.020   8.906  1.6144 -0.9304 -2.0082
  623MOL0     H84085  12.132   3.935   8.931 -2.8918  0.7487  1.5197
  623MOL0     H84086  11.900   3.916   8.998  2.6231  0.9666  1.3810
  623MOL0     H84087  11.657   3.565   9.300 -0.9496 -1.2039 -0.8869
  623MOL0     H84088  11.433   3.513   9.397  0.1914 -2.3819 -1.9998
  623MOL0     H84089   9.293   4.133   9.710 -0.8408  1.2468  1.5392
  623MOL0     H84090   9.083   4.204   9.609 -0.0259 -1.3781  0.2180
  623MOL0     H84091   8.885   4.524   9.256  0.7847 -0.5597  1.2547
  623MOL0     H84092   8.643   4.568   9.191  2.2003  0.5308  0.0765
  623MOL0     H84093   8.314   4.476   9.465  0.8435  1.9005 -0.7254
  623MOL0     H84094   8.344   4.330   9.371  3.7306  0.7202  0.9559
  623MOL0     H84095   8.211   4.432   9.183 -0.7463  0.6634 -0.1815
  623MOL0     H84096   8.219   4.585   9.260  1.6107 -0.7970 -0.8196
  623MOL0     H84097   8.054   4.523   9.435 -0.9887  0.2629 -0.6603
  623MOL0     H84098   8.089   4.358   9.417  0.2847  0.1871  0.3149
  623MOL0     H84099   7.994   4.354   9.186 -1.8406 -0.5839  0.7728
  623MOL0     H84100   7.875   4.406   9.308  1.0276 -1.7469  0.3951
  623MOL0     H84101   7.864   4.742   9.077 -2.0243 -0.6772  1.3756
  623MOL0     H84102   8.523   4.416   9.574 -0.5947  1.2654 -1.3075
  623MOL0     H84103   8.833   4.410   9.740 -0.2402  1.1250 -0.1415
  623MOL0     H84104   8.660   4.392   9.736  0.0915 -0.8260 -1.0544
  623MOL0     H84105   8.774   4.262   9.675  0.8553 -0.2915  0.4027
  624MOL0     O84106  10.575   3.568   0.190 -0.1278 -0.2966 -0.3726
  624MOL0     C84107  10.455   3.548   0.171 -0.6483  0.2336 -0.9471
  624MOL0     O84108  10.390   3.434   0.220  0.2279 -0.5610 -0.3153
  624MOL0     C84109  10.469   3.333   0.272 -0.1655 -0.0302 -1.0271
  624MOL0     C84110  10.500   3.329   0.412 -1.1471 -0.3391  0.0092
  624MOL0     C84111  10.569   3.222   0.470 -0.1404  0.2172 -1.0500
  624MOL0     C84112  10.600   3.109   0.387  0.2872  0.9536  0.1547
  624MOL0     O84113  10.653   2.999   0.447 -0.2818  0.1415  0.2186
  624MOL0     C84114  10.783   2.952   0.405 -0.2518  0.2250 -0.1020
  624MOL0     C84115  10.908   3.047   0.429  0.4701 -0.4332  0.6040
  624MOL0     C84116  11.039   2.985   0.372  0.1658 -0.0675 -0.9917
  624MOL0     C84117  11.160   3.080   0.361  0.1999  0.3119  0.2363
  624MOL0     C84118  11.283   3.020   0.283  0.0643  1.2616 -0.4246
  624MOL0     C84119  11.316   2.878   0.346 -0.1270  0.1637 -0.3628
  624MOL0     C84120  11.453   2.829   0.304  0.3589 -0.5041  0.4969
  624MOL0     C84121  11.455   2.744   0.180  0.6821  0.0568  0.8514
  624MOL0     N84122  11.401   2.798   0.058 -1.3272  0.1707 -0.4371
  624MOL0     C84123  11.463   2.906  -0.008  0.0704  1.1692  0.1494
  624MOL0     C84124  11.384   2.918  -0.124 -0.5177  0.1878 -0.2503
  624MOL0     C84125  11.431   3.016  -0.238 -0.3065  0.0722 -0.8752
  624MOL0     C84126  11.463   2.918  -0.358 -0.3936  0.8004 -0.2087
  624MOL0     C84127  11.479   2.993  -0.493  0.2866  0.7071  0.1712
  624MOL0     C84128  11.610   3.065  -0.505 -0.3926 -0.1042  0.0502
  624MOL0     O84129  11.716   2.974  -0.512 -0.3386 -0.4475  0.3615
  624MOL0     C84130  11.847   3.010  -0.496 -0.4950 -0.0809 -0.1640
  624MOL0     C84131  11.897   3.142  -0.503  1.2091 -0.1773 -0.1437
  624MOL0     C84132  12.032   3.177  -0.484  0.0913 -0.1666 -0.0190
  624MOL0     C84133  12.122   3.078  -0.446 -0.5131 -0.4611 -0.1791
  624MOL0     C84134  12.268   3.116  -0.428 -0.3092  0.1025  0.2389
  624MOL0     O84135  12.345   3.021  -0.375  0.0814 -0.2427 -0.5759
  624MOL0     C84136  12.484   3.020  -0.365 -0.1469  0.0071  0.2540
  624MOL0     C84137  12.568   3.133  -0.352  0.3028  0.0023  0.5189
  624MOL0     C84138  12.704   3.130  -0.338  0.0031  0.2605 -0.1497
  624MOL0     C84139  12.770   3.004  -0.334  0.4828 -0.2456  0.0673
  624MOL0     O84140  12.904   3.002  -0.327 -0.0782  0.2492 -0.2236
  624MOL0     C84141  12.964   2.883  -0.274 -0.2804  0.4329  0.3536
  624MOL0     C84142  13.108   2.913  -0.234 -0.1068 -0.3163 -0.3814
  624MOL0     C84143  13.195   2.934  -0.361  0.6190 -0.6566  0.0671
  624MOL0     C84144  13.337   2.967  -0.328 -0.0216  0.4140  0.6665
  624MOL0     C84145  13.429   2.974  -0.451 -0.4453 -0.8290  0.2424
  624MOL0     C84146  13.556   3.043  -0.418 -0.2981 -0.2727 -0.2991
  624MOL0     C84147  13.667   3.023  -0.518  0.1836  0.4606 -0.7304
  624MOL0     C84148  13.810   3.065  -0.480  1.2051 -0.3780  0.7633
  624MOL0    Cl84149  13.881   2.940  -0.390 -0.0750 -0.1459 -0.3834
  624MOL0     C84150  12.686   2.891  -0.343  0.2539  0.1776 -0.3561
  624MOL0     C84151  12.551   2.900  -0.350  0.6160  0.4201  0.2943
  624MOL0     O84152  12.302   3.231  -0.455 -0.2785  0.3462  0.5552
  624MOL0     C84153  12.077   2.948  -0.430  0.1024  0.3360  0.5689
  624MOL0     C84154  11.939   2.912  -0.468 -0.0286  1.1750  0.2865
  624MOL0     N84155  11.285   2.826  -0.127 -0.0079  0.7655 -0.1427
  624MOL0     N84156  11.290   2.754  -0.016 -0.2480  0.3147 -0.4134
  624MOL0     C84157  10.571   3.112   0.250 -0.5755 -0.1451  0.7569
  624MOL0     C84158  10.499   3.225   0.193  0.3859  0.7568 -0.0477
  624MOL0     C84159  10.375   3.654   0.109  0.3160 -0.6827  0.2903
  624MOL0     C84160  10.240   3.658   0.150  0.0305  0.7327  0.0794
  624MOL0     C84161  10.143   3.728   0.075  0.6949  0.6119 -0.0935
  624MOL0     C84162  10.178   3.821  -0.021 -0.3776  0.5232  0.2878
  624MOL0     O84163  10.089   3.909  -0.080  0.0283 -0.1058  0.2992
  624MOL0     C84164  10.009   3.987   0.012  0.1223  0.3233 -1.6057
  624MOL0     C84165  10.064   4.124   0.039 -1.1474  0.6288 -0.6335
  624MOL0     C84166  10.114   4.205  -0.086  0.3370  0.7361 -0.0209
  624MOL0     C84167  10.199   4.327  -0.035 -1.6084 -0.2400 -0.1745
  624MOL0     C84168  10.342   4.289  -0.014 -0.4150  0.7634 -0.5128
  624MOL0     C84169  10.454   4.252  -0.005  0.2280 -0.2949 -0.2931
  624MOL0     C84170  10.317   3.824  -0.052  0.7507  0.0113 -0.0811
  624MOL0     C84171  10.414   3.743   0.003  0.7771 -0.7208  0.1212
  624MOL0     C84172  10.551   3.736  -0.063 -0.1290  0.4425 -0.5628
  624MOL0     H84173  10.471   3.411   0.476 -1.8986 -1.8091  1.6394
  624MOL0     H84174  10.604   3.236   0.571 -3.7475  3.7624 -0.0530
  624MOL0     H84175  10.799   2.857   0.456  1.4628  0.8954  0.7011
  624MOL0     H84176  10.779   2.925   0.300  1.3340  1.4480 -0.5044
  624MOL0     H84177  10.917   3.103   0.523 -1.7820  1.3230 -0.1283
  624MOL0     H84178  10.892   3.125   0.354 -1.9332 -0.9377  0.5215
  624MOL0     H84179  11.023   2.914   0.291  1.3455 -2.1825  0.5165
  624MOL0     H84180  11.059   2.918   0.456 -0.9972 -0.3030 -0.8737
  624MOL0     H84181  11.137   3.161   0.291 -0.5888 -1.8439 -2.1918
  624MOL0     H84182  11.183   3.116   0.461 -2.8190 -0.4479  1.3307
  624MOL0     H84183  11.256   3.012   0.178  1.2981 -2.1337 -0.6153
  624MOL0     H84184  11.370   3.083   0.306 -0.2953  1.8291 -0.6126
  624MOL0     H84185  11.312   2.884   0.455  0.7089  0.8371 -0.3594
  624MOL0     H84186  11.251   2.795   0.316  0.6310 -0.2565 -0.8684
  624MOL0     H84187  11.487   2.773   0.391 -1.9699 -3.4574 -0.3294
  624MOL0     H84188  11.523   2.914   0.296  0.0733 -0.1313  1.7317
  624MOL0     H84189  11.560   2.721   0.159  0.9623  1.0414  1.0909
  624MOL0     H84190  11.400   2.651   0.191 -0.8281  0.6215 -1.2498
  624MOL0     H84191  11.549   2.963   0.026  0.7179 -0.2368  1.0005
  624MOL0     H84192  11.342   3.077  -0.257 -1.7831 -1.3907  0.9229
  624MOL0     H84193  11.526   3.062  -0.212 -0.3483  0.7922 -1.9541
  624MOL0     H84194  11.549   2.856  -0.332  0.2398  2.5877  2.4108
  624MOL0     H84195  11.370   2.861  -0.365  0.5403 -1.1160  1.7159
  624MOL0     H84196  11.400   3.067  -0.510  1.1867  1.6476  0.0625
  624MOL0     H84197  11.469   2.916  -0.570  0.1367  0.4732  0.4207
  624MOL0     H84198  11.632   3.129  -0.419 -2.0284 -2.7990  2.7137
  624MOL0     H84199  11.599   3.125  -0.596  0.0982  0.5677  0.4290
  624MOL0     H84200  11.836   3.222  -0.544 -0.8421 -2.2129 -1.2805
  624MOL0     H84201  12.075   3.274  -0.505  4.2743 -1.6877  0.6041
  624MOL0     H84202  12.519   3.230  -0.360  1.3450  0.9491  3.9213
  624MOL0     H84203  12.756   3.225  -0.329 -2.8984  1.8700  1.0360
  624MOL0     H84204  12.905   2.842  -0.191  1.5241 -3.8717 -0.2433
  624MOL0     H84205  12.964   2.802  -0.347 -1.4197  1.6572 -1.0780
  624MOL0     H84206  13.115   2.998  -0.166  0.9091  1.7823 -2.9518
  624MOL0     H84207  13.157   2.832  -0.179 -1.9823 -1.3792 -0.2126
  624MOL0     H84208  13.192   2.846  -0.425  0.4590 -1.3482  1.0081
  624MOL0     H84209  13.148   3.016  -0.416 -0.0614 -0.2162  1.2484
  624MOL0     H84210  13.369   2.887  -0.261 -0.5280  1.1089  1.7492
  624MOL0     H84211  13.345   3.064  -0.279  1.4664  2.3061 -2.9600
  624MOL0     H84212  13.379   3.036  -0.527 -2.7109  0.5436  2.6686
  624MOL0     H84213  13.458   2.876  -0.489  3.5756  0.4858 -0.5768
  624MOL0     H84214  13.538   3.151  -0.417  1.8204  0.1894  2.6033
  624MOL0     H84215  13.607   3.018  -0.324 -2.1327  0.5610  0.9792
  624MOL0     H84216  13.632   3.057  -0.615 -0.6162 -3.1398 -1.8471
  624MOL0     H84217  13.671   2.915  -0.534  1.3355  0.3976 -0.1397
  624MOL0     H84218  13.865   3.082  -0.573 -1.2430 -2.6300 -1.2463
  624MOL0     H84219  13.810   3.155  -0.416 -3.2605  1.5910 -1.5228
  624MOL0     H84220  12.718   2.787  -0.344 -0.4263 -0.0419 -1.5948
  624MOL0     H84221  12.494   2.807  -0.353  1.7343 -0.4763  3.3339
  624MOL0     H84222  12.150   2.873  -0.402 -1.6986 -0.6552  2.9882
  624MOL0     H84223  11.899   2.812  -0.449 -2.5127  1.2824 -3.4078
  624MOL0     H84224  10.578   3.018   0.195 -1.7161  0.3153 -0.2428
  624MOL0     H84225  10.459   3.230   0.092 -3.9510 -0.7155  1.3832
  624MOL0     H84226  10.211   3.589   0.228  0.5664  0.2749 -0.1144
  624MOL0     H84227  10.039   3.714   0.101  0.8585  1.5493  1.1866
  624MOL0     H84228   9.989   3.940   0.109  2.5911  3.0088  0.3683
  624MOL0     H84229   9.908   4.001  -0.028 -0.6024  0.2086  0.1189
  624MOL0     H84230  10.148   4.106   0.106 -1.6692 -2.0046 -0.5721
  624MOL0     H84231   9.982   4.175   0.089 -1.4431 -1.3865  1.0800
  624MOL0     H84232  10.020   4.250  -0.118 -1.3000 -1.7902  0.9685
  624MOL0     H84233  10.153   4.141  -0.165  0.4172 -0.6243  1.0815
  624MOL0     H84234  10.190   4.402  -0.114  0.0141 -1.3222 -1.4496
  624MOL0     H84235  10.152   4.363   0.057 -3.9338  0.1485 -1.4349
  624MOL0     H84236  10.550   4.208   0.012 -1.4021 -3.6604  1.2099
  624MOL0     H84237  10.347   3.900  -0.124  1.2459  0.4365  0.5704
  624MOL0     H84238  10.555   3.768  -0.167 -1.2744 -0.0438 -0.7714
  624MOL0     H84239  10.627   3.783  -0.000  0.7383 -3.5492  1.7561
  624MOL0     H84240  10.568   3.629  -0.074  0.0216  0.5906 -1.9365
  625MOL0     O84241   7.882   3.443  10.173  0.2598  0.0349  0.3351
  625MOL0     C84242   7.869   3.460  10.052 -0.4480  1.0013  0.3214
  625MOL0     O84243   7.972   3.495   9.972 -0.0821 -0.3673 -1.2298
  625MOL0     C84244   8.083   3.553  10.025 -0.3524  0.0067  0.8977
  625MOL0     C84245   8.208   3.514   9.969 -0.0800 -0.2936 -0.2595
  625MOL0     C84246   8.326   3.551  10.027  0.1126 -0.0947  0.1623
  625MOL0     C84247   8.327   3.630  10.150 -0.0058 -0.4125 -0.3992
  625MOL0     O84248   8.446   3.665  10.203 -0.0621  0.2849 -0.3473
  625MOL0     C84249   8.548   3.557  10.204  0.2237  0.0506  1.1253
  625MOL0     C84250   8.678   3.631  10.168 -0.5709  0.1770  0.1796
  625MOL0     C84251   8.796   3.542  10.181  0.2131 -1.1653 -0.2923
  625MOL0     C84252   8.919   3.592  10.119 -0.3504  0.0079 -0.5429
  625MOL0     C84253   9.044   3.496  10.133 -0.3056 -0.5310 -0.2060
  625MOL0     C84254   9.016   3.358  10.075 -0.0816  0.6295 -0.4253
  625MOL0     C84255   9.133   3.268  10.082 -0.6961  0.2227 -0.0178
  625MOL0     C84256   9.152   3.190  10.221  0.3606 -0.1103  0.6900
  625MOL0     N84257   9.284   3.139  10.240 -0.3893  0.7211  0.2667
  625MOL0     C84258   9.335   3.077  10.352  0.7026  0.0238 -0.8424
  625MOL0     C84259   9.459   3.042  10.322 -0.0388 -0.0594 -0.2042
  625MOL0     C84260   9.549   2.978  10.426 -0.0277  0.2712  0.3530
  625MOL0     C84261   9.695   2.996  10.372 -0.4026 -0.3032 -0.2309
  625MOL0     C84262   9.800   2.912  10.448 -0.1997 -0.0385  0.0685
  625MOL0     C84263   9.937   2.931  10.378  0.0438 -0.5492 -0.6474
  625MOL0     O84264  10.019   2.847  10.450  0.5037  0.3782  0.4060
  625MOL0     C84265  10.148   2.846  10.408 -0.2653 -0.4119 -0.0424
  625MOL0     C84266  10.239   2.778  10.482 -0.2908  1.0205  0.0040
  625MOL0     C84267  10.377   2.767  10.456  0.2556  0.0040  0.3825
  625MOL0     C84268  10.417   2.841  10.345  0.5909  0.1062  0.2573
  625MOL0     C84269  10.560   2.819  10.301  0.8118  0.4167  0.9643
  625MOL0     O84270  10.641   2.785  10.406 -0.6159 -0.1933 -0.4073
  625MOL0     C84271  10.774   2.756  10.383 -0.6080 -0.4468 -0.3301
  625MOL0     C84272  10.834   2.637  10.436  0.4033 -0.0884 -0.6941
  625MOL0     C84273  10.964   2.601  10.398  0.4932 -0.8455 -0.5607
  625MOL0     C84274  11.044   2.690  10.328 -0.8794  0.2576  0.0527
  625MOL0     O84275  11.169   2.646  10.286 -0.0849  0.3658 -0.7559
  625MOL0     C84276  11.222   2.705  10.171 -0.6131  0.3260  0.2116
  625MOL0     C84277  11.325   2.608  10.103 -0.0295  0.1106  0.5597
  625MOL0     C84278  11.402   2.673   9.987  0.6132  0.3011  0.0054
  625MOL0     C84279  11.531   2.732  10.038 -0.6789 -0.0587  0.4130
  625MOL0     C84280  11.624   2.745   9.913  0.4772  0.3547  0.9298
  625MOL0     C84281  11.765   2.790   9.951  0.3414  0.6475 -0.4914
  625MOL0     C84282  11.771   2.916  10.044 -0.4536  0.4787  0.4878
  625MOL0     C84283  11.915   2.965  10.040 -0.8184  0.7942 -0.5250
  625MOL0    Cl84284  12.036   2.841  10.077  0.2548  0.5060  0.0908
  625MOL0     C84285  10.992   2.812  10.289 -0.2897 -0.7557 -0.6646
  625MOL0     C84286  10.859   2.847  10.311 -0.1989 -0.2875  1.3213
  625MOL0     O84287  10.588   2.824  10.179 -0.2858 -0.4118 -0.0999
  625MOL0     C84288  10.329   2.901  10.252  0.1519  0.6703 -0.3747
  625MOL0     C84289  10.194   2.908  10.289 -0.6662  0.2046 -0.7943
  625MOL0     N84290   9.478   3.060  10.192 -0.2467 -0.5356  1.2955
  625MOL0     N84291   9.379   3.122  10.137 -0.2025 -0.5532  0.1890
  625MOL0     C84292   8.208   3.673  10.206 -0.5629  0.3439 -0.4273
  625MOL0     C84293   8.087   3.645  10.139  0.0377  0.0251 -0.1172
  625MOL0     C84294   7.748   3.411   9.978 -0.9372 -0.5877 -0.5074
  625MOL0     C84295   7.746   3.441   9.843  0.6825  0.6070  0.4290
  625MOL0     C84296   7.640   3.403   9.752  0.2451  0.6099  0.0429
  625MOL0     C84297   7.540   3.322   9.804  1.1376  0.0526  0.4607
  625MOL0     O84298   7.443   3.266   9.727  0.4438  0.0046 -0.3289
  625MOL0     C84299   7.415   3.313   9.590 -0.0751 -0.0396  0.1391
  625MOL0     C84300   7.295   3.230   9.531 -0.1711 -0.2655  0.1376
  625MOL0     C84301   7.257   3.301   9.410 -0.5845 -1.0499 -0.2316
  625MOL0     C84302   7.174   3.211   9.313 -0.2502 -0.0264 -0.1487
  625MOL0     C84303   7.125   3.272   9.194  1.0948  0.0750  0.5496
  625MOL0     C84304   7.085   3.323   9.096 -0.0272 -0.1822  0.0623
  625MOL0     C84305   7.543   3.286   9.939  0.4533  1.2456 -0.1991
  625MOL0     C84306   7.647   3.329  10.028  0.6254  1.1075  0.0379
  625MOL0     C84307   7.631   3.289  10.170 -0.1212 -0.3111 -0.3103
  625MOL0     H84308   8.222   3.448   9.883  0.1839 -0.9471  0.2747
  625MOL0     H84309   8.415   3.529   9.968 -0.0992 -2.0613  0.4986
  625MOL0     H84310   8.568   3.526  10.307  0.1579  1.1676  1.4838
  625MOL0     H84311   8.531   3.469  10.141 -3.0475  0.2812  1.5152
  625MOL0     H84312   8.682   3.722  10.227  2.5290  1.3892 -1.6655
  625MOL0     H84313   8.668   3.661  10.063  2.8492  1.3292  0.0566
  625MOL0     H84314   8.769   3.441  10.150 -1.5992 -0.8564  0.1353
  625MOL0     H84315   8.820   3.549  10.288  3.3636  2.4541 -1.0237
  625MOL0     H84316   8.897   3.615  10.015  0.3257  2.1246 -0.2803
  625MOL0     H84317   8.933   3.690  10.166  0.5375  0.3970 -1.5798
  625MOL0     H84318   9.125   3.551  10.084  1.7680 -2.1917  1.1735
  625MOL0     H84319   9.073   3.478  10.237  0.1686  0.8461 -0.0739
  625MOL0     H84320   8.929   3.310  10.119 -0.5636 -0.6618 -2.6314
  625MOL0     H84321   8.982   3.363   9.971 -2.7055 -1.0132  0.2797
  625MOL0     H84322   9.226   3.318  10.054  1.2745 -2.2861  1.5323
  625MOL0     H84323   9.111   3.192  10.007 -1.5334  1.3161 -0.8963
  625MOL0     H84324   9.130   3.252  10.309 -0.3161  0.9871 -0.2223
  625MOL0     H84325   9.082   3.106  10.230 -0.6494 -0.1270 -4.4123
  625MOL0     H84326   9.293   3.092  10.450  1.8597  0.9051 -0.4520
  625MOL0     H84327   9.542   3.022  10.526 -0.1571 -0.7338  0.7984
  625MOL0     H84328   9.517   2.873  10.434  0.4730  0.0687 -0.2542
  625MOL0     H84329   9.694   2.966  10.267 -0.3491  0.0459 -0.3305
  625MOL0     H84330   9.723   3.100  10.390 -0.1962 -0.4509  0.3313
  625MOL0     H84331   9.769   2.807  10.448 -5.0774  1.1650  0.1731
  625MOL0     H84332   9.809   2.952  10.549  1.5143  3.4129 -1.2953
  625MOL0     H84333   9.966   3.036  10.390 -3.5717  0.3321  2.0496
  625MOL0     H84334   9.924   2.897  10.275  0.6228 -2.3955 -0.1515
  625MOL0     H84335  10.200   2.721  10.567  1.9537  1.9899  1.7869
  625MOL0     H84336  10.439   2.711  10.525 -0.2626  0.2527  1.0698
  625MOL0     H84337  10.784   2.567  10.503  2.6668 -1.6528 -0.5535
  625MOL0     H84338  11.004   2.509  10.441  0.9927 -0.4906 -0.2561
  625MOL0     H84339  11.145   2.724  10.096  0.8972 -1.6184 -1.9765
  625MOL0     H84340  11.273   2.800  10.191 -1.4457  0.5185  1.5760
  625MOL0     H84341  11.404   2.579  10.172  2.0620 -0.5904 -1.9769
  625MOL0     H84342  11.272   2.518  10.072 -0.7762  0.7888 -0.2082
  625MOL0     H84343  11.429   2.592   9.919 -1.2424  0.1094 -0.5399
  625MOL0     H84344  11.350   2.756   9.939  2.2787  0.7137 -1.1839
  625MOL0     H84345  11.586   2.673  10.112 -0.2288  2.3430  2.0998
  625MOL0     H84346  11.502   2.828  10.081 -2.5162 -1.2407  1.9852
  625MOL0     H84347  11.590   2.818   9.840  2.0165 -0.7159 -0.9394
  625MOL0     H84348  11.642   2.645   9.873 -2.0991 -0.1200  0.7933
  625MOL0     H84349  11.809   2.710  10.012  1.5171  1.8409  0.2962
  625MOL0     H84350  11.826   2.793   9.860  3.2854 -2.4278  1.1433
  625MOL0     H84351  11.727   2.908  10.144  0.2993  2.8566  1.0811
  625MOL0     H84352  11.703   2.992  10.005 -3.6343 -2.3009  0.2211
  625MOL0     H84353  11.947   3.004   9.943 -1.2670  2.2290 -0.1106
  625MOL0     H84354  11.922   3.041  10.117  0.1941 -1.5223  1.8300
  625MOL0     H84355  11.057   2.881  10.235  0.5987 -0.8738  0.2299
  625MOL0     H84356  10.819   2.941  10.276  2.3095  0.6626  0.7792
  625MOL0     H84357  10.352   2.948  10.157 -2.2102  3.4415  0.2767
  625MOL0     H84358  10.138   2.967  10.218 -0.4694  0.5890 -0.6333
  625MOL0     H84359   8.206   3.717  10.305  1.4445  0.7364 -0.5290
  625MOL0     H84360   7.990   3.684  10.167 -0.7650 -0.6659 -1.8242
  625MOL0     H84361   7.828   3.495   9.797  1.4474 -0.7676  0.1430
  625MOL0     H84362   7.643   3.434   9.648 -0.6678 -2.7265 -1.0798
  625MOL0     H84363   7.506   3.292   9.532  0.2786 -1.0938  1.0366
  625MOL0     H84364   7.390   3.419   9.582  0.2664 -0.0726 -1.7357
  625MOL0     H84365   7.214   3.243   9.603 -1.7966 -0.5855 -1.5728
  625MOL0     H84366   7.320   3.125   9.512 -1.3232 -0.8314  1.5527
  625MOL0     H84367   7.351   3.327   9.361 -0.2080 -4.0749 -1.3011
  625MOL0     H84368   7.212   3.397   9.438  0.0217 -1.6741  3.2411
  625MOL0     H84369   7.231   3.122   9.282  0.1861  0.6467 -1.3311
  625MOL0     H84370   7.092   3.172   9.374  1.0607 -0.5613  1.3744
  625MOL0     H84371   7.037   3.365   9.010  1.6868  1.4110 -0.1741
  625MOL0     H84372   7.466   3.217   9.972  0.7232  0.4111 -1.2340
  625MOL0     H84373   7.547   3.221  10.187  1.3581 -1.5555  2.7916
  625MOL0     H84374   7.719   3.228  10.193 -2.5870 -3.7492  0.8205
  625MOL0     H84375   7.616   3.382  10.225  0.5622  0.0264 -0.6857
  626MOL0     O84376   0.146   7.276   3.047  0.1336 -0.1896  0.1334
  626MOL0     C84377   0.081   7.259   3.146  0.3938 -0.4118 -0.7857
  626MOL0     O84378   0.126   7.264   3.273  1.0675 -0.1686 -0.1540
  626MOL0     C84379   0.253   7.315   3.295 -0.6852 -0.6719  0.6414
  626MOL0     C84380   0.369   7.249   3.271  0.3239  0.0161 -0.6936
  626MOL0     C84381   0.497   7.295   3.309 -0.3072  1.1614  0.5398
  626MOL0     C84382   0.512   7.419   3.365  0.3991  0.2367 -1.0262
  626MOL0     O84383   0.643   7.462   3.387 -0.4756 -0.6315 -0.0444
  626MOL0     C84384   0.668   7.601   3.373 -0.6692 -0.5870  0.1215
  626MOL0     C84385   0.818   7.624   3.347 -0.4404  0.4227 -0.1963
  626MOL0     C84386   0.862   7.762   3.307 -0.3259 -0.3448 -0.3473
  626MOL0     C84387   1.019   7.771   3.311  0.4956  0.5307 -0.5524
  626MOL0     C84388   1.047   7.908   3.252  0.2833  0.0096  0.2961
  626MOL0     C84389   1.185   7.955   3.270 -0.2148  0.4107  0.2097
  626MOL0     C84390   1.201   8.102   3.236  0.3979  0.4964  0.4422
  626MOL0     C84391   1.344   8.151   3.266 -0.3425 -0.0753  0.3875
  626MOL0     N84392   1.359   8.288   3.215  0.4217  0.3454 -0.1884
  626MOL0     C84393   1.349   8.320   3.084  0.2299 -0.4472 -0.5230
  626MOL0     C84394   1.344   8.455   3.068 -0.3851 -0.1608 -0.9774
  626MOL0     C84395   1.335   8.546   2.949  0.9109  0.4386  0.3496
  626MOL0     C84396   1.463   8.630   2.928  0.3993  0.2592  0.1070
  626MOL0     C84397   1.588   8.545   2.942 -0.3831 -0.1347  0.3492
  626MOL0     C84398   1.605   8.422   2.847  0.1354  0.5553  0.2142
  626MOL0     O84399   1.613   8.455   2.705 -0.4680  0.4062  0.4874
  626MOL0     C84400   1.741   8.484   2.653  0.5385  0.4512  0.5802
  626MOL0     C84401   1.863   8.481   2.723 -0.1869 -0.5077 -0.2915
  626MOL0     C84402   1.979   8.527   2.658 -0.2964 -0.1683 -0.1666
  626MOL0     C84403   1.976   8.562   2.523 -0.3296  0.2122 -0.1298
  626MOL0     C84404   2.110   8.592   2.448 -0.8181 -0.7526  0.6473
  626MOL0     O84405   2.225   8.585   2.525 -0.3796  0.4173  0.0084
  626MOL0     C84406   2.346   8.599   2.466 -0.4645  0.0740 -1.0756
  626MOL0     C84407   2.417   8.483   2.442 -0.8470 -0.1165  1.2080
  626MOL0     C84408   2.543   8.490   2.383 -0.5090 -0.7245 -0.2550
  626MOL0     C84409   2.601   8.616   2.345  0.4616  0.3530  0.0796
  626MOL0     O84410   2.731   8.631   2.296  0.1833 -0.1390 -0.3147
  626MOL0     C84411   2.829   8.530   2.319 -0.2285 -0.1615  0.1484
  626MOL0     C84412   2.948   8.595   2.245 -0.1500 -0.1938  0.1394
  626MOL0     C84413   3.085   8.523   2.275 -0.2342  0.6784 -0.0187
  626MOL0     C84414   3.203   8.603   2.229  0.3712 -1.0849 -0.4518
  626MOL0     C84415   3.326   8.555   2.302 -0.3322 -0.1613  0.2217
  626MOL0     C84416   3.436   8.648   2.253 -0.1124  0.4135  0.7904
  626MOL0     C84417   3.564   8.619   2.327  0.4421  0.3429 -0.0783
  626MOL0     C84418   3.697   8.680   2.274 -0.9407 -0.7346 -0.2249
  626MOL0    Cl84419   3.793   8.581   2.167  0.3146 -0.3382  0.0028
  626MOL0     C84420   2.519   8.733   2.348  0.2378 -0.4776 -0.4349
  626MOL0     C84421   2.400   8.724   2.419 -0.5309 -0.1100  0.6038
  626MOL0     O84422   2.099   8.631   2.336 -0.6926  0.5748  0.5884
  626MOL0     C84423   1.859   8.572   2.453  0.2933 -0.2907  0.2625
  626MOL0     C84424   1.740   8.540   2.524 -0.0263  0.3883 -0.7251
  626MOL0     N84425   1.347   8.509   3.197  0.7341 -0.6460 -0.1372
  626MOL0     N84426   1.351   8.408   3.281 -0.5708 -0.4802 -0.9063
  626MOL0     C84427   0.396   7.489   3.390  1.3528  0.7481 -0.2497
  626MOL0     C84428   0.271   7.439   3.353 -0.5878 -0.4855 -0.1687
  626MOL0     C84429  -0.066   7.242   3.129 -0.9173  0.3016  0.0690
  626MOL0     C84430  -0.148   7.245   3.242 -0.1561 -0.2229 -0.9047
  626MOL0     C84431  -0.286   7.225   3.238 -0.0503  0.5614  0.6756
  626MOL0     C84432  -0.340   7.179   3.121 -0.2999  0.1466  0.1840
  626MOL0     O84433  -0.471   7.133   3.134  0.2961  0.2971 -0.5004
  626MOL0     C84434  -0.547   7.107   3.020 -0.2527 -0.1652 -0.1151
  626MOL0     C84435  -0.676   7.037   3.066  0.2259 -0.4344  0.1832
  626MOL0     C84436  -0.793   7.133   3.104  0.1709  0.3671 -0.4441
  626MOL0     C84437  -0.893   7.060   3.191 -0.1104  0.3103 -0.5409
  626MOL0     C84438  -0.988   6.993   3.099  0.5053 -0.1352  0.5230
  626MOL0     C84439  -1.068   6.949   3.020  0.2725  0.2162 -0.0939
  626MOL0     C84440  -0.256   7.168   3.000  0.4659  0.2227 -0.1260
  626MOL0     C84441  -0.117   7.204   3.005  0.8521 -0.9527 -0.2049
  626MOL0     C84442  -0.054   7.191   2.867 -0.1707 -0.0473 -0.4178
  626MOL0     H84443   0.351   7.157   3.218  0.4711 -0.7316  0.5196
  626MOL0     H84444   0.578   7.234   3.271  0.9784  3.1967 -0.1717
  626MOL0     H84445   0.611   7.627   3.284 -0.1134 -0.7683 -0.3002
  626MOL0     H84446   0.653   7.658   3.464  2.5580  1.3938 -0.4203
  626MOL0     H84447   0.853   7.556   3.269 -0.3935 -2.3013  2.0562
  626MOL0     H84448   0.861   7.594   3.443 -3.7723 -0.8430  1.0409
  626MOL0     H84449   0.826   7.829   3.386  1.7743 -0.1186  0.5014
  626MOL0     H84450   0.820   7.784   3.209 -0.7890 -5.6052 -1.6617
  626MOL0     H84451   1.055   7.759   3.414 -3.7166 -4.4483  0.7040
  626MOL0     H84452   1.057   7.688   3.251 -2.9629 -2.1101  0.6341
  626MOL0     H84453   1.027   7.922   3.145  5.2872  0.2324 -0.8333
  626MOL0     H84454   0.979   7.971   3.310 -0.2982 -0.5002  0.1845
  626MOL0     H84455   1.202   7.929   3.375 -3.4160 -0.2739  0.6581
  626MOL0     H84456   1.255   7.902   3.205 -0.7921  1.6408 -1.5017
  626MOL0     H84457   1.136   8.167   3.296  1.5582  2.4375 -0.2947
  626MOL0     H84458   1.170   8.118   3.132 -0.2812 -1.7898  0.2407
  626MOL0     H84459   1.366   8.154   3.373 -1.3190 -0.2037  0.5994
  626MOL0     H84460   1.417   8.081   3.226 -0.5443  0.1714 -0.4199
  626MOL0     H84461   1.351   8.251   3.001  0.9438 -1.0048 -0.0536
  626MOL0     H84462   1.310   8.475   2.869 -2.4724  0.0879  1.5252
  626MOL0     H84463   1.253   8.619   2.951  0.4876 -0.0376  1.1752
  626MOL0     H84464   1.466   8.670   2.827  0.0723  0.2796  0.1056
  626MOL0     H84465   1.459   8.710   3.001 -2.9601  2.0789 -1.8458
  626MOL0     H84466   1.606   8.513   3.045  0.3271 -0.8039  0.0230
  626MOL0     H84467   1.668   8.615   2.916 -0.7798  0.7761  1.4846
  626MOL0     H84468   1.519   8.357   2.864 -1.3779  2.5863  0.7662
  626MOL0     H84469   1.694   8.369   2.884 -1.2677 -1.3876  0.9791
  626MOL0     H84470   1.865   8.453   2.828 -3.2894  2.2845  0.6746
  626MOL0     H84471   2.074   8.528   2.711 -1.2962  1.0093  1.7235
  626MOL0     H84472   2.363   8.392   2.468 -1.4326 -0.5954 -1.3624
  626MOL0     H84473   2.610   8.406   2.371  1.9347  1.2541 -1.5449
  626MOL0     H84474   2.851   8.516   2.425  1.6664  3.6582  0.4315
  626MOL0     H84475   2.796   8.437   2.272 -2.2395  1.6749 -2.3903
  626MOL0     H84476   2.936   8.591   2.137 -1.0941  0.7802  0.1997
  626MOL0     H84477   2.950   8.698   2.283 -0.5020 -0.6368  1.4250
  626MOL0     H84478   3.083   8.515   2.384 -2.4495 -2.0405 -0.1168
  626MOL0     H84479   3.083   8.420   2.238 -2.0020  1.3178 -1.9059
  626MOL0     H84480   3.178   8.707   2.254  2.1216 -0.3080 -1.7160
  626MOL0     H84481   3.212   8.595   2.120  1.4169 -1.0509 -0.3787
  626MOL0     H84482   3.356   8.451   2.285  1.8173  0.3289  0.6631
  626MOL0     H84483   3.305   8.578   2.407  1.1212  2.0736  0.1184
  626MOL0     H84484   3.459   8.635   2.147  1.4849  1.1618  1.0185
  626MOL0     H84485   3.396   8.750   2.257  1.5911  1.0848  1.5208
  626MOL0     H84486   3.572   8.510   2.333  1.4462  0.4974  2.3963
  626MOL0     H84487   3.542   8.657   2.427  0.3889  2.5572 -0.8642
  626MOL0     H84488   3.670   8.769   2.216 -0.1089  0.0543  0.5600
  626MOL0     H84489   3.762   8.704   2.359  1.8411 -2.6107 -1.6572
  626MOL0     H84490   2.551   8.830   2.312 -1.2379 -0.0666 -0.6749
  626MOL0     H84491   2.330   8.806   2.426  2.0784  2.2133  1.3352
  626MOL0     H84492   1.845   8.599   2.349  0.3193  2.0559  0.8037
  626MOL0     H84493   1.641   8.544   2.481 -0.4543 -2.7559 -0.2716
  626MOL0     H84494   0.405   7.587   3.435 -1.0218  1.6967 -1.6532
  626MOL0     H84495   0.180   7.492   3.380 -0.7278 -0.5112 -0.5731
  626MOL0     H84496  -0.116   7.278   3.341  0.3223  1.0796 -1.4753
  626MOL0     H84497  -0.345   7.249   3.325 -1.6052 -0.5076 -0.0465
  626MOL0     H84498  -0.479   7.040   2.967  2.8559  3.1304 -0.6869
  626MOL0     H84499  -0.561   7.198   2.961 -0.3680 -0.5351 -0.6756
  626MOL0     H84500  -0.646   6.974   3.150  0.5370 -1.2043 -0.4976
  626MOL0     H84501  -0.716   6.982   2.980 -3.4686  4.1898 -1.5253
  626MOL0     H84502  -0.834   7.178   3.013 -1.2419 -3.2933 -1.7711
  626MOL0     H84503  -0.750   7.216   3.162  2.1371 -0.2223 -1.0069
  626MOL0     H84504  -0.846   6.982   3.252 -0.5812 -1.3673 -2.2152
  626MOL0     H84505  -0.951   7.122   3.260 -1.1787  1.4210 -2.3609
  626MOL0     H84506  -1.143   6.918   2.950  0.5574  0.0062 -0.3075
  626MOL0     H84507  -0.297   7.125   2.909  1.3182 -0.9678  0.0258
  626MOL0     H84508  -0.138   7.178   2.799 -1.7479 -0.5622  1.5221
  626MOL0     H84509   0.008   7.279   2.846  2.6084 -1.4347  1.4053
  626MOL0     H84510   0.010   7.102   2.861  0.6024  0.4056  0.7250
  627MOL0     O84511   4.056  10.375   1.946  0.5229  0.9612 -0.0803
  627MOL0     C84512   4.025  10.486   1.920 -0.8147 -0.3986  0.4178
  627MOL0     O84513   4.113  10.581   1.913 -0.0942 -0.1215  0.2839
  627MOL0     C84514   4.242  10.558   1.954 -0.3690 -0.0568 -0.1785
  627MOL0     C84515   4.358  10.575   1.869 -0.0950 -0.0524 -0.2627
  627MOL0     C84516   4.490  10.562   1.916 -0.6791 -0.1599 -0.1073
  627MOL0     C84517   4.514  10.527   2.047  0.9774  0.5229  0.3056
  627MOL0     O84518   4.649  10.510   2.076 -0.0275  0.0870 -0.3388
  627MOL0     C84519   4.685  10.485   2.216 -0.2852 -0.7820  0.0089
  627MOL0     C84520   4.833  10.491   2.235  0.1109  0.4764  0.1429
  627MOL0     C84521   4.872  10.486   2.378  0.9365 -0.0607  0.3292
  627MOL0     C84522   5.023  10.467   2.385  0.5338 -0.4904 -0.1399
  627MOL0     C84523   5.077  10.454   2.526  0.6432 -0.2866  0.2755
  627MOL0     C84524   5.135  10.314   2.547  0.3582  0.2444 -0.2954
  627MOL0     C84525   5.176  10.268   2.689 -0.2130 -0.1420  0.5452
  627MOL0     C84526   5.313  10.342   2.728  0.1410 -0.1089  0.5901
  627MOL0     N84527   5.420  10.276   2.649  0.6066 -0.9875 -0.3271
  627MOL0     C84528   5.499  10.338   2.559 -0.1793  0.3218  0.1070
  627MOL0     C84529   5.612  10.257   2.545  0.2154 -1.0940  0.3627
  627MOL0     C84530   5.717  10.287   2.452  0.1271  0.3611  0.2885
  627MOL0     C84531   5.707  10.180   2.341 -0.6184  0.0680 -0.7166
  627MOL0     C84532   5.785  10.212   2.217 -0.3989  0.0163 -0.3783
  627MOL0     C84533   5.928  10.271   2.230 -0.2892 -0.3790  0.4473
  627MOL0     O84534   6.011  10.281   2.107  0.0612 -0.4448 -0.3990
  627MOL0     C84535   6.142  10.313   2.133 -0.4191  0.3083 -0.8195
  627MOL0     C84536   6.213  10.362   2.028 -0.0651  0.6125  0.5197
  627MOL0     C84537   6.350  10.370   2.023 -0.0117  0.5604  0.5319
  627MOL0     C84538   6.424  10.350   2.141  0.4998  0.1492 -0.7566
  627MOL0     C84539   6.569  10.364   2.146 -0.0219 -0.1489  0.5106
  627MOL0     O84540   6.624  10.426   2.261 -0.4066  0.7605  0.9242
  627MOL0     C84541   6.734  10.506   2.259  0.4554 -0.9830  0.0865
  627MOL0     C84542   6.798  10.522   2.381  0.5092 -0.9918  0.1911
  627MOL0     C84543   6.925  10.577   2.393 -0.5608  0.0826  0.1017
  627MOL0     C84544   6.999  10.617   2.277  0.0035 -0.2856 -0.0354
  627MOL0     O84545   7.126  10.661   2.291 -0.1458  0.0798  0.1530
  627MOL0     C84546   7.205  10.676   2.176 -1.0877 -0.3795  0.4117
  627MOL0     C84547   7.345  10.715   2.225  0.1046 -0.4858 -0.2059
  627MOL0     C84548   7.432  10.765   2.114 -0.6619 -1.3391  0.3867
  627MOL0     C84549   7.580  10.775   2.151 -0.6018  0.5941 -0.3355
  627MOL0     C84550   7.686  10.766   2.044 -0.0368  0.4666 -0.4612
  627MOL0     C84551   7.830  10.796   2.103  0.0459 -1.0755  0.4592
  627MOL0     C84552   7.877  10.704   2.225  0.0158  0.2177  1.3119
  627MOL0     C84553   8.010  10.655   2.187  1.2276  0.4120 -0.2061
  627MOL0    Cl84554   8.115  10.793   2.201  0.0687 -0.0586 -0.0445
  627MOL0     C84555   6.930  10.610   2.151 -0.6441  0.3703 -0.1334
  627MOL0     C84556   6.810  10.544   2.148  0.4252 -0.2890 -0.4720
  627MOL0     O84557   6.617  10.358   2.034 -0.2792 -0.6183  0.1982
  627MOL0     C84558   6.357  10.333   2.261 -0.5009  0.9449 -0.3033
  627MOL0     C84559   6.217  10.314   2.260 -0.6633  0.4438  0.5510
  627MOL0     N84560   5.600  10.147   2.630 -0.1158 -0.6654  0.1320
  627MOL0     N84561   5.481  10.161   2.685  0.6124  0.2851 -0.4381
  627MOL0     C84562   4.403  10.504   2.136 -0.5049  0.3135 -0.0636
  627MOL0     C84563   4.274  10.530   2.087 -0.1832  0.6991 -0.0028
  627MOL0     C84564   3.882  10.512   1.900  0.3111  0.3104  0.5563
  627MOL0     C84565   3.801  10.559   2.004 -0.8353  1.2250  0.5349
  627MOL0     C84566   3.670  10.566   1.993  0.0727  0.4232 -0.4700
  627MOL0     C84567   3.607  10.539   1.870  0.7964  0.1320  0.3182
  627MOL0     O84568   3.472  10.556   1.852  0.4699 -0.1987 -0.4505
  627MOL0     C84569   3.376  10.614   1.948  0.4763 -0.5287 -0.3434
  627MOL0     C84570   3.238  10.640   1.874 -0.0037  0.2784 -0.4874
  627MOL0     C84571   3.171  10.503   1.827 -0.3600 -0.1914  0.3327
  627MOL0     C84572   3.076  10.506   1.699  0.7404 -0.6502 -0.1846
  627MOL0     C84573   2.966  10.607   1.719 -0.8324  0.8402 -0.3411
  627MOL0     C84574   2.884  10.699   1.725 -0.2430  0.1554  0.6802
  627MOL0     C84575   3.684  10.498   1.752 -0.9662 -0.7870  0.0597
  627MOL0     C84576   3.823  10.484   1.775  0.3132 -0.6305 -0.1072
  627MOL0     C84577   3.903  10.436   1.661  0.1262 -0.1863  0.4113
  627MOL0     H84578   4.347  10.614   1.768 -3.4682 -0.7031 -0.2585
  627MOL0     H84579   4.576  10.564   1.849 -0.8448  0.6866 -0.3021
  627MOL0     H84580   4.635  10.561   2.278 -3.1216 -0.9420 -1.9259
  627MOL0     H84581   4.657  10.383   2.245  0.5133 -1.1564 -0.5060
  627MOL0     H84582   4.871  10.583   2.190  3.3362 -0.4067  0.8476
  627MOL0     H84583   4.875  10.403   2.185  0.7105  1.2383 -0.7250
  627MOL0     H84584   4.825  10.399   2.426 -1.0792  0.5232 -0.4576
  627MOL0     H84585   4.841  10.580   2.424  2.5377  2.3560 -3.0585
  627MOL0     H84586   5.057  10.379   2.330  1.5314  0.2581 -0.7797
  627MOL0     H84587   5.073  10.547   2.330  0.0809 -0.9936 -1.3228
  627MOL0     H84588   5.155  10.529   2.539  1.1160 -0.3548 -1.8207
  627MOL0     H84589   4.996  10.475   2.597 -2.2469 -3.4181 -1.7883
  627MOL0     H84590   5.060  10.237   2.526 -0.0450  0.8667 -1.2216
  627MOL0     H84591   5.220  10.299   2.480 -0.8640 -4.7733 -1.1341
  627MOL0     H84592   5.179  10.159   2.702 -0.1545 -0.1266  0.6680
  627MOL0     H84593   5.095  10.298   2.756  0.2116 -1.6813  1.8271
  627MOL0     H84594   5.314  10.450   2.711  0.9777 -0.1096  0.5701
  627MOL0     H84595   5.333  10.328   2.835  1.5505 -1.3228  0.2025
  627MOL0     H84596   5.470  10.423   2.499 -2.0509 -0.2259  0.1664
  627MOL0     H84597   5.708  10.389   2.416  0.4065  0.3191  0.0983
  627MOL0     H84598   5.814  10.282   2.502 -1.0928 -0.2484  2.7416
  627MOL0     H84599   5.742  10.082   2.378 -1.4627  0.1296  0.2979
  627MOL0     H84600   5.604  10.168   2.305 -0.7915  0.4930 -0.3608
  627MOL0     H84601   5.733  10.298   2.173  0.2991  1.4747  1.5228
  627MOL0     H84602   5.785  10.122   2.154 -0.3600 -0.9180  0.9268
  627MOL0     H84603   5.978  10.199   2.295  1.0590  0.3842  0.2933
  627MOL0     H84604   5.931  10.364   2.287  2.1394 -0.0822 -0.0295
  627MOL0     H84605   6.155  10.361   1.936  1.5660 -0.5593 -0.5552
  627MOL0     H84606   6.397  10.384   1.926 -1.0063  0.7124  0.0650
  627MOL0     H84607   6.749  10.486   2.472 -2.5025  0.2196 -0.8238
  627MOL0     H84608   6.976  10.581   2.489  0.4570 -1.9326 -0.2996
  627MOL0     H84609   7.208  10.586   2.114 -0.1533 -0.2902  0.3076
  627MOL0     H84610   7.163  10.761   2.122  0.2583 -0.4537 -0.8006
  627MOL0     H84611   7.362  10.788   2.305  1.5557  0.1002 -1.0013
  627MOL0     H84612   7.396  10.624   2.257  1.4535  1.4767  3.8934
  627MOL0     H84613   7.425  10.694   2.031 -0.1541  0.1870 -1.0094
  627MOL0     H84614   7.407  10.862   2.070 -1.0255 -0.9817  1.3715
  627MOL0     H84615   7.599  10.704   2.232 -1.2460  1.5304  0.6741
  627MOL0     H84616   7.582  10.875   2.196 -2.5331 -0.4280  2.3305
  627MOL0     H84617   7.672  10.835   1.960  0.2121 -1.1727 -1.9056
  627MOL0     H84618   7.675  10.667   1.998  0.7544  0.6290 -1.0236
  627MOL0     H84619   7.914  10.797   2.033  0.4763 -1.8755  0.9597
  627MOL0     H84620   7.825  10.899   2.138  2.6229 -0.1472 -1.5708
  627MOL0     H84621   7.801  10.630   2.249 -2.2199  0.7108 -3.1125
  627MOL0     H84622   7.866  10.756   2.320  0.8840  0.9274  1.0463
  627MOL0     H84623   8.050  10.575   2.249  2.7350 -0.2480 -1.9202
  627MOL0     H84624   7.990  10.615   2.087 -0.4824 -1.6063  0.8678
  627MOL0     H84625   6.974  10.640   2.056  3.0585 -0.3721  1.1646
  627MOL0     H84626   6.775  10.531   2.046  1.8819 -2.8173 -0.7310
  627MOL0     H84627   6.408  10.329   2.357 -2.0221  1.0997  0.5450
  627MOL0     H84628   6.174  10.280   2.354 -0.3432  0.2601  0.6328
  627MOL0     H84629   4.427  10.479   2.239  3.7642  0.9244 -0.7448
  627MOL0     H84630   4.195  10.517   2.160  0.5601 -2.2332  0.4073
  627MOL0     H84631   3.849  10.592   2.096  0.7052  1.1681 -0.2302
  627MOL0     H84632   3.617  10.604   2.080  1.5540 -1.3129  1.3172
  627MOL0     H84633   3.403  10.707   1.998 -0.6742 -0.4368  0.1256
  627MOL0     H84634   3.344  10.541   2.023  0.0619  0.3510  0.3460
  627MOL0     H84635   3.258  10.693   1.781 -0.1549  1.6872  0.2582
  627MOL0     H84636   3.171  10.693   1.942 -1.3480 -1.6166 -0.2693
  627MOL0     H84637   3.135  10.448   1.915  1.1504 -0.5432  0.7640
  627MOL0     H84638   3.256  10.443   1.794 -0.1875  0.7676 -1.0232
  627MOL0     H84639   3.138  10.525   1.611  2.1223  0.1346  0.9293
  627MOL0     H84640   3.034  10.410   1.667 -0.2235 -0.8750  1.6288
  627MOL0     H84641   2.812  10.777   1.743  1.0853  1.4967  0.3709
  627MOL0     H84642   3.647  10.472   1.653 -0.2898  0.2121 -0.4754
  627MOL0     H84643   3.999  10.488   1.657 -1.1820  2.3622  0.2748
  627MOL0     H84644   3.916  10.327   1.658  1.0712 -0.1126  1.3882
  627MOL0     H84645   3.852  10.455   1.566 -0.9112  2.8240  1.4864
  628MOL0     O84646   7.547  10.518   2.515 -0.0235  0.0092 -0.0299
  628MOL0     C84647   7.524  10.489   2.628  0.3364  0.0270 -0.4006
  628MOL0     O84648   7.615  10.440   2.723  0.2549 -0.0691  0.4109
  628MOL0     C84649   7.746  10.452   2.684  0.3832  0.5025  0.3873
  628MOL0     C84650   7.821  10.363   2.603  0.3835  1.3775  0.0727
  628MOL0     C84651   7.960  10.376   2.586 -0.2300 -1.3531  0.1864
  628MOL0     C84652   8.027  10.493   2.650  0.7315  0.1492  0.1535
  628MOL0     O84653   8.161  10.518   2.630  0.0172  0.1855 -0.1978
  628MOL0     C84654   8.213  10.539   2.499  0.7266 -0.0020  0.4562
  628MOL0     C84655   8.359  10.600   2.509 -0.0973  0.1923 -0.2512
  628MOL0     C84656   8.400  10.677   2.386  0.0392 -0.9909 -0.5783
  628MOL0     C84657   8.393  10.600   2.253 -0.7524 -0.2720 -0.6110
  628MOL0     C84658   8.439  10.682   2.137  0.2993 -0.3723 -0.5174
  628MOL0     C84659   8.576  10.754   2.145  0.2215 -0.7893 -0.1495
  628MOL0     C84660   8.700  10.671   2.167  0.8440  0.2203  0.5886
  628MOL0     C84661   8.745  10.583   2.052  0.1732  0.0178  0.6374
  628MOL0     N84662   8.881  10.532   2.069  0.6416  0.1094 -0.2547
  628MOL0     C84663   8.991  10.598   2.044  0.0428  0.1643 -0.4873
  628MOL0     C84664   9.095  10.510   2.072  0.1034  0.4229  1.1774
  628MOL0     C84665   9.236  10.548   2.062 -0.6815 -0.1765  0.1428
  628MOL0     C84666   9.308  10.518   2.201  0.0023 -0.8377 -0.7002
  628MOL0     C84667   9.462  10.545   2.215 -0.1716  0.5243  0.1033
  628MOL0     C84668   9.559  10.453   2.136 -0.3313  0.6617  0.1639
  628MOL0     O84669   9.589  10.511   2.007  0.4067 -0.3812 -0.4457
  628MOL0     C84670   9.723  10.523   1.980  0.0928  0.4621  1.3145
  628MOL0     C84671   9.800  10.619   2.043  1.1591  0.8987 -0.0276
  628MOL0     C84672   9.929  10.641   2.018 -0.6501 -0.5206  0.8592
  628MOL0     C84673   9.986  10.557   1.915 -0.2575  0.2145 -0.0317
  628MOL0     C84674  10.112  10.600   1.856  0.5840 -0.8178 -0.4589
  628MOL0     O84675  10.146  10.727   1.882  0.0896  0.6500  0.5245
  628MOL0     C84676  10.265  10.774   1.837 -0.7300  0.7226 -0.3510
  628MOL0     C84677  10.275  10.861   1.732 -0.8339  0.0383  0.5163
  628MOL0     C84678  10.404  10.902   1.691  0.3788  0.7611  0.0017
  628MOL0     C84679  10.518  10.866   1.754  0.9344 -0.2337  0.9905
  628MOL0     O84680  10.630  10.928   1.716  0.3656  0.8324 -0.0219
  628MOL0     C84681  10.754  10.900   1.787  0.2872 -0.1459 -0.2899
  628MOL0     C84682  10.852  10.996   1.737 -0.1127  0.6350  0.0582
  628MOL0     C84683  10.991  10.982   1.802  0.2445 -0.0957 -0.1757
  628MOL0     C84684  11.088  11.093   1.769  1.3484 -0.3142 -0.6252
  628MOL0     C84685  11.218  11.078   1.848  0.5439  0.8302 -1.0915
  628MOL0     C84686  11.322  11.164   1.767 -0.4452  0.4209 -0.6727
  628MOL0     C84687  11.461  11.157   1.836  0.2913  0.1021 -0.5253
  628MOL0     C84688  11.556  11.265   1.798 -0.4978  0.7775  0.2143
  628MOL0    Cl84689  11.719  11.189   1.801  0.2144  0.0459  0.1950
  628MOL0     C84690  10.513  10.786   1.864 -0.1140 -0.3496 -0.3046
  628MOL0     C84691  10.384  10.741   1.910 -0.4974  0.9640  0.4173
  628MOL0     O84692  10.173  10.517   1.791  0.0042 -0.0655  0.4281
  628MOL0     C84693   9.907  10.447   1.850 -0.4390 -0.3519 -0.1795
  628MOL0     C84694   9.771  10.436   1.896 -0.0876 -0.3353  0.1232
  628MOL0     N84695   9.035  10.391   2.108 -0.3071 -0.1971  0.3143
  628MOL0     N84696   8.900  10.405   2.104 -0.3543 -0.2247  0.6695
  628MOL0     C84697   7.950  10.577   2.724 -0.2443 -0.1357  0.6721
  628MOL0     C84698   7.816  10.552   2.750 -0.0911 -0.3560 -0.4726
  628MOL0     C84699   7.385  10.485   2.671 -0.2360  0.9016 -0.2475
  628MOL0     C84700   7.297  10.425   2.582 -0.4888 -0.0619  0.4754
  628MOL0     C84701   7.162  10.419   2.609 -1.0429 -0.3422  1.2293
  628MOL0     C84702   7.119  10.452   2.730  0.3233 -0.8582 -0.9935
  628MOL0     O84703   6.986  10.447   2.738  0.4200  0.5070  0.0877
  628MOL0     C84704   6.917  10.445   2.874 -0.1953 -0.4080 -0.2852
  628MOL0     C84705   6.773  10.416   2.839 -0.5157 -0.6048 -0.1672
  628MOL0     C84706   6.682  10.395   2.962  0.0956 -0.8112 -0.8539
  628MOL0     C84707   6.539  10.393   2.934 -0.9302  0.2127  0.5079
  628MOL0     C84708   6.463  10.387   3.057  0.1445 -0.1763  0.3282
  628MOL0     C84709   6.396  10.395   3.151  0.1090  0.9211 -1.1752
  628MOL0     C84710   7.205  10.510   2.825 -0.0012 -0.3269 -0.4687
  628MOL0     C84711   7.339  10.529   2.795  0.0685  0.2222  0.4078
  628MOL0     C84712   7.432  10.588   2.895 -0.2909 -0.2762  0.6738
  628MOL0     H84713   7.768  10.280   2.557  0.4493  1.3277  0.0884
  628MOL0     H84714   8.020  10.299   2.539  1.0465 -0.3947  0.2127
  628MOL0     H84715   8.214  10.445   2.443 -1.0379 -0.8183  1.6816
  628MOL0     H84716   8.150  10.613   2.448 -0.6649 -1.0250  0.6470
  628MOL0     H84717   8.418  10.509   2.522 -0.2776  0.2439  1.0976
  628MOL0     H84718   8.371  10.662   2.598  2.5885 -1.4667  0.6531
  628MOL0     H84719   8.508  10.692   2.395 -0.1347  1.3084 -1.5495
  628MOL0     H84720   8.374  10.782   2.377  2.9185 -0.0995  0.2417
  628MOL0     H84721   8.466  10.518   2.264  0.2380  0.7491  0.8420
  628MOL0     H84722   8.292  10.560   2.241 -1.9666  2.4771 -0.3506
  628MOL0     H84723   8.449  10.618   2.049  1.4278 -1.1128  0.1287
  628MOL0     H84724   8.363  10.759   2.118 -0.5585 -1.4989 -1.8681
  628MOL0     H84725   8.592  10.799   2.047  1.6104 -1.7042 -0.3645
  628MOL0     H84726   8.565  10.832   2.221 -3.9227 -0.1512 -1.1437
  628MOL0     H84727   8.697  10.616   2.261 -1.2969 -1.2600 -0.2681
  628MOL0     H84728   8.778  10.747   2.182  1.8201 -1.0614  2.3157
  628MOL0     H84729   8.667  10.509   2.031 -0.5901  0.5813  1.3979
  628MOL0     H84730   8.747  10.646   1.963 -2.7311 -0.9074 -0.2154
  628MOL0     H84731   9.020  10.699   2.014 -1.8364  0.9891  0.3044
  628MOL0     H84732   9.273  10.484   1.982 -1.5121  1.5352 -1.7175
  628MOL0     H84733   9.248  10.651   2.025 -2.1248 -0.1151 -0.1966
  628MOL0     H84734   9.270  10.581   2.282  2.8348  2.7983 -1.9379
  628MOL0     H84735   9.295  10.414   2.233  1.4836 -0.3353  1.8054
  628MOL0     H84736   9.482  10.534   2.322  1.8342 -1.2482 -0.3771
  628MOL0     H84737   9.469  10.649   2.181 -1.8171  0.0782 -1.7515
  628MOL0     H84738   9.514  10.357   2.110  0.3220  0.0796  1.1279
  628MOL0     H84739   9.647  10.439   2.199  0.5516  0.8786 -0.9791
  628MOL0     H84740   9.733  10.668   2.113 -2.2399 -2.4596 -0.5859
  628MOL0     H84741   9.982  10.728   2.057 -2.2225  2.1347 -2.4018
  628MOL0     H84742  10.194  10.889   1.666  1.9985 -0.1031 -3.4283
  628MOL0     H84743  10.407  10.984   1.620  1.1858  0.3481 -0.4537
  628MOL0     H84744  10.744  10.908   1.895  0.5378 -1.0698 -0.1833
  628MOL0     H84745  10.776  10.796   1.760 -1.5907 -0.7602  0.3966
  628MOL0     H84746  10.862  10.979   1.630  4.7174  1.8695  0.0600
  628MOL0     H84747  10.810  11.097   1.750  0.0659  1.2211 -3.1959
  628MOL0     H84748  10.963  10.970   1.907  0.1563 -0.8207 -0.2764
  628MOL0     H84749  11.044  10.890   1.774 -0.9001 -1.8360  2.8321
  628MOL0     H84750  11.035  11.187   1.791 -1.1841 -2.0269  1.1756
  628MOL0     H84751  11.110  11.082   1.662 -2.3107  0.4142 -1.6086
  628MOL0     H84752  11.252  10.975   1.856 -0.7439  0.5326  3.0342
  628MOL0     H84753  11.210  11.118   1.949  3.3886  2.2213 -1.3295
  628MOL0     H84754  11.333  11.118   1.669  1.8164  0.2152 -0.3846
  628MOL0     H84755  11.285  11.266   1.755 -1.5771 -0.0550 -1.3890
  628MOL0     H84756  11.503  11.062   1.802  0.6756  1.0959 -3.0366
  628MOL0     H84757  11.459  11.157   1.946  1.7981 -0.2329 -0.4831
  628MOL0     H84758  11.525  11.304   1.701 -2.0214  1.2599  0.8747
  628MOL0     H84759  11.552  11.348   1.870  1.3277  1.3660 -0.2931
  628MOL0     H84760  10.603  10.762   1.919  0.3035 -2.2768 -1.7028
  628MOL0     H84761  10.366  10.678   1.996 -0.0670  0.6814  0.3024
  628MOL0     H84762   9.946  10.394   1.763 -1.1714  1.5297 -1.7254
  628MOL0     H84763   9.712  10.356   1.851  0.5914 -2.1171  2.2086
  628MOL0     H84764   8.002  10.654   2.780  2.1382 -2.1645  1.4495
  628MOL0     H84765   7.763  10.615   2.820 -0.3513 -0.7479 -0.3120
  628MOL0     H84766   7.337  10.382   2.491 -1.3996 -0.5780  0.3120
  628MOL0     H84767   7.103  10.372   2.530 -1.7442  1.1712  0.8114
  628MOL0     H84768   6.923  10.535   2.936 -2.8407 -1.4927  1.7275
  628MOL0     H84769   6.963  10.362   2.929 -0.4591  0.8944  2.0385
  628MOL0     H84770   6.776  10.321   2.785 -5.2463 -2.1782  1.8014
  628MOL0     H84771   6.736  10.496   2.773 -0.9009 -0.9420 -0.3694
  628MOL0     H84772   6.705  10.486   3.017 -1.6588 -1.3237  0.8586
  628MOL0     H84773   6.714  10.305   3.016  1.1784 -0.0628 -0.2111
  628MOL0     H84774   6.512  10.480   2.873 -1.2213 -0.6162 -0.5583
  628MOL0     H84775   6.520  10.307   2.870 -0.2627  1.2461 -1.1731
  628MOL0     H84776   6.325  10.398   3.232  1.4943  0.1479  0.1203
  628MOL0     H84777   7.170  10.542   2.923  1.2469  1.5478 -0.5688
  628MOL0     H84778   7.520  10.637   2.852 -1.6918  1.0971 -0.7543
  628MOL0     H84779   7.380  10.666   2.952  0.0927  3.3745 -3.4584
  628MOL0     H84780   7.460  10.504   2.960 -2.5525  0.1126  2.2727
  629MOL0     O84781   4.406   0.296   7.002 -0.1354  0.1115 -0.4915
  629MOL0     C84782   4.303   0.367   7.014 -0.6954  0.0076 -0.2883
  629MOL0     O84783   4.294   0.486   7.085 -0.3744  0.4778 -0.2917
  629MOL0     C84784   4.411   0.514   7.155  0.0581 -0.3320 -0.1909
  629MOL0     C84785   4.417   0.476   7.287  0.6980 -0.0379 -0.0810
  629MOL0     C84786   4.513   0.522   7.373  0.9469  0.1802 -0.3824
  629MOL0     C84787   4.617   0.603   7.321  0.2797  0.3466 -0.2933
  629MOL0     O84788   4.715   0.646   7.409  0.1762  0.8783 -0.1654
  629MOL0     C84789   4.820   0.725   7.356  0.4860  0.0681 -0.0314
  629MOL0     C84790   4.901   0.781   7.471  0.2915 -0.2052  0.4030
  629MOL0     C84791   4.999   0.883   7.426  0.4359  0.5706  0.1398
  629MOL0     C84792   5.102   0.822   7.314 -0.7526 -0.4417 -0.1708
  629MOL0     C84793   5.216   0.920   7.282 -0.5698  0.6069 -0.4485
  629MOL0     C84794   5.171   1.042   7.189 -1.4402  0.0692 -0.7454
  629MOL0     C84795   5.291   1.127   7.149  0.5369 -0.0028  0.5055
  629MOL0     C84796   5.376   1.073   7.033 -0.1112 -0.3653  0.9515
  629MOL0     N84797   5.512   1.136   7.037  0.5562 -0.2156 -0.3517
  629MOL0     C84798   5.540   1.269   7.016  0.8721  0.2456  0.3903
  629MOL0     C84799   5.668   1.286   7.044 -0.3063  0.8880  0.6128
  629MOL0     C84800   5.740   1.408   7.021 -0.3485 -0.6064  1.1534
  629MOL0     C84801   5.860   1.374   6.923 -0.3326  0.1870  0.4421
  629MOL0     C84802   5.931   1.500   6.886  0.2044 -0.3587 -0.0058
  629MOL0     C84803   6.028   1.479   6.767  0.1310 -0.5036  0.1951
  629MOL0     O84804   6.130   1.381   6.800  0.1591 -0.0853  0.5520
  629MOL0     C84805   6.244   1.418   6.860  0.7209  0.0821 -0.4698
  629MOL0     C84806   6.344   1.319   6.857  0.2959  0.0539  0.1821
  629MOL0     C84807   6.465   1.321   6.927 -0.5092  0.3675  0.0584
  629MOL0     C84808   6.496   1.437   6.995  0.0249 -0.1433 -1.2564
  629MOL0     C84809   6.627   1.432   7.058 -0.4962 -0.2015  0.2423
  629MOL0     O84810   6.683   1.318   7.104 -0.4080 -0.8289 -0.0541
  629MOL0     C84811   6.805   1.339   7.160 -0.3198  0.6929 -0.4488
  629MOL0     C84812   6.924   1.323   7.084 -0.2617  0.5267  0.2684
  629MOL0     C84813   7.051   1.338   7.140 -0.1395  0.7063  1.1975
  629MOL0     C84814   7.068   1.384   7.274  0.9036  0.2889  0.8685
  629MOL0     O84815   7.191   1.401   7.326 -0.0877 -0.2711  0.2317
  629MOL0     C84816   7.213   1.436   7.463 -0.2793 -0.2089 -0.0602
  629MOL0     C84817   7.356   1.494   7.468 -0.2162 -0.3277  0.2110
  629MOL0     C84818   7.451   1.380   7.496 -1.0831 -0.1495 -0.3908
  629MOL0     C84819   7.601   1.413   7.461 -0.0025  0.7890 -0.4247
  629MOL0     C84820   7.708   1.335   7.544 -0.4678 -0.0627  0.5184
  629MOL0     C84821   7.849   1.394   7.530 -0.0419 -0.1652  0.2712
  629MOL0     C84822   7.895   1.419   7.389 -0.3828  0.6778  0.1299
  629MOL0     C84823   8.041   1.442   7.388  0.1847 -0.5041 -0.1425
  629MOL0    Cl84824   8.074   1.603   7.448 -0.1100  0.2176 -0.2519
  629MOL0     C84825   6.945   1.405   7.345  0.5345  0.3434 -0.9866
  629MOL0     C84826   6.814   1.388   7.288  0.3492  0.9319 -0.0232
  629MOL0     O84827   6.686   1.540   7.048 -0.0070  0.4186 -0.0808
  629MOL0     C84828   6.405   1.550   7.001  0.3505  0.7433 -0.5618
  629MOL0     C84829   6.275   1.535   6.936  0.7008 -0.4494 -0.1456
  629MOL0     N84830   5.721   1.161   7.085 -0.1250 -0.4661 -0.3785
  629MOL0     N84831   5.628   1.074   7.080  0.2562 -0.2991  0.0515
  629MOL0     C84832   4.612   0.636   7.181 -0.3732  0.0959  0.9504
  629MOL0     C84833   4.502   0.602   7.103  0.3633  0.4179  0.1942
  629MOL0     C84834   4.178   0.322   6.944  0.3593  0.5188 -0.7516
  629MOL0     C84835   4.093   0.425   6.890 -0.3811  0.3859  0.5792
  629MOL0     C84836   3.972   0.401   6.825  0.1341 -0.5220  0.3102
  629MOL0     C84837   3.915   0.272   6.816 -0.7122 -0.6263 -0.7233
  629MOL0     O84838   3.786   0.232   6.772  0.6265  0.2701  0.5374
  629MOL0     C84839   3.707   0.328   6.702 -0.1135  0.3149  0.2475
  629MOL0     C84840   3.598   0.250   6.622 -0.2651 -0.0972 -0.1073
  629MOL0     C84841   3.481   0.341   6.581 -0.5866 -0.1546  0.0674
  629MOL0     C84842   3.364   0.259   6.531  0.1631 -0.1000 -0.0454
  629MOL0     C84843   3.261   0.348   6.491 -0.2272  1.2777 -0.2466
  629MOL0     C84844   3.183   0.442   6.462  0.1861 -0.7636  0.8695
  629MOL0     C84845   3.995   0.179   6.879  1.0066 -1.0676 -0.2226
  629MOL0     C84846   4.115   0.197   6.943 -0.5275 -0.1719 -0.1562
  629MOL0     C84847   4.180   0.075   7.002  0.1300  0.2825 -0.0899
  629MOL0     H84848   4.332   0.424   7.329  0.3404  0.5475 -0.0670
  629MOL0     H84849   4.516   0.494   7.478  0.0731  3.4323  0.6194
  629MOL0     H84850   4.885   0.669   7.289 -0.2694 -3.1780  1.7437
  629MOL0     H84851   4.780   0.809   7.298  2.9445  2.0593  0.9513
  629MOL0     H84852   4.945   0.701   7.532  0.4758 -0.4324 -0.0207
  629MOL0     H84853   4.833   0.824   7.545  1.2207  0.3967  0.9338
  629MOL0     H84854   5.060   0.909   7.513  0.6610 -0.6043  0.3443
  629MOL0     H84855   4.946   0.964   7.375  0.0553  0.4076  0.2720
  629MOL0     H84856   5.136   0.722   7.345 -1.7125 -1.2582 -1.6137
  629MOL0     H84857   5.050   0.799   7.220 -1.8384 -1.8549  0.7345
  629MOL0     H84858   5.258   0.949   7.378  0.2621 -0.5853 -0.4304
  629MOL0     H84859   5.287   0.859   7.224  0.7983  0.6512  1.1211
  629MOL0     H84860   5.118   1.013   7.098  0.5121 -0.4099 -1.7753
  629MOL0     H84861   5.113   1.113   7.249  1.0850  3.3684 -1.9231
  629MOL0     H84862   5.351   1.150   7.237 -0.4808 -3.1938  2.1782
  629MOL0     H84863   5.239   1.218   7.117  1.6354  0.5383  0.1652
  629MOL0     H84864   5.390   0.970   7.068 -1.6239 -1.0577 -0.3528
  629MOL0     H84865   5.324   1.057   6.939  1.9369  0.7153 -0.4394
  629MOL0     H84866   5.468   1.348   6.996 -2.3914 -2.3184  1.0106
  629MOL0     H84867   5.677   1.484   6.973 -1.4844 -1.5858  1.0432
  629MOL0     H84868   5.789   1.440   7.113 -0.2367 -4.7349  2.7490
  629MOL0     H84869   5.933   1.310   6.973  0.7406  1.2844  0.3197
  629MOL0     H84870   5.816   1.324   6.836  1.4239  1.6123 -1.3645
  629MOL0     H84871   5.978   1.527   6.981  0.2165  0.6046 -0.2778
  629MOL0     H84872   5.854   1.574   6.864 -0.9999 -1.4536  0.3962
  629MOL0     H84873   6.074   1.577   6.753 -0.6159 -0.3446 -1.2833
  629MOL0     H84874   5.969   1.454   6.679  0.1833 -0.5990  0.1859
  629MOL0     H84875   6.320   1.229   6.801 -1.1349 -0.3617  1.4354
  629MOL0     H84876   6.522   1.229   6.916  1.5194  1.6625 -0.7626
  629MOL0     H84877   6.911   1.300   6.979  0.2113 -2.4637  0.7695
  629MOL0     H84878   7.129   1.326   7.066 -0.2403  2.4211  0.7708
  629MOL0     H84879   7.136   1.508   7.491  0.2111  0.2006  0.2389
  629MOL0     H84880   7.208   1.347   7.526  0.5379 -0.6536 -0.6077
  629MOL0     H84881   7.381   1.555   7.380 -0.6786 -0.7834 -0.2407
  629MOL0     H84882   7.359   1.557   7.558  0.9711 -1.6964  1.1599
  629MOL0     H84883   7.452   1.352   7.602  0.8199 -0.1508 -0.3750
  629MOL0     H84884   7.438   1.292   7.433  1.7487 -2.3739  1.8218
  629MOL0     H84885   7.605   1.519   7.488 -0.6284  1.1152 -1.5322
  629MOL0     H84886   7.623   1.397   7.355  0.4001 -0.2241 -0.2010
  629MOL0     H84887   7.712   1.232   7.506  0.3949 -0.9323  2.7976
  629MOL0     H84888   7.687   1.323   7.650 -2.7860  1.8327  0.3422
  629MOL0     H84889   7.839   1.488   7.583 -3.0204 -0.1296 -0.1832
  629MOL0     H84890   7.926   1.331   7.577  1.1458  0.2496 -1.0597
  629MOL0     H84891   7.848   1.500   7.333  0.5880  0.8539 -0.4478
  629MOL0     H84892   7.877   1.330   7.328  4.7914 -0.3140 -0.3982
  629MOL0     H84893   8.107   1.378   7.448  1.7560  1.9369  0.9076
  629MOL0     H84894   8.079   1.442   7.285  0.2342  2.1964 -0.2121
  629MOL0     H84895   6.937   1.432   7.450 -3.3748  0.8714 -1.2686
  629MOL0     H84896   6.731   1.402   7.357  0.4743  1.9885 -0.0600
  629MOL0     H84897   6.427   1.634   7.066 -1.1538  2.0105 -1.6341
  629MOL0     H84898   6.204   1.613   6.959  2.4967  0.6421  2.1157
  629MOL0     H84899   4.687   0.701   7.138  1.2295 -1.0705  1.8373
  629MOL0     H84900   4.483   0.645   7.006  1.7666  0.8485  0.0955
  629MOL0     H84901   4.138   0.523   6.895 -0.4143  0.5724 -1.7614
  629MOL0     H84902   3.917   0.485   6.783 -1.3795 -0.5335  2.1730
  629MOL0     H84903   3.766   0.386   6.630  1.8159 -0.3341  1.2436
  629MOL0     H84904   3.655   0.401   6.765 -0.0683  2.5394 -2.1032
  629MOL0     H84905   3.560   0.177   6.694 -1.3346  2.4225  2.0516
  629MOL0     H84906   3.646   0.205   6.534 -1.3883 -0.8804 -0.3433
  629MOL0     H84907   3.508   0.400   6.493  0.5813 -1.7633 -0.6900
  629MOL0     H84908   3.461   0.408   6.665 -0.7226 -1.1598  0.8518
  629MOL0     H84909   3.401   0.198   6.448  1.6755  0.5433  0.1315
  629MOL0     H84910   3.325   0.191   6.607 -1.1184  1.8912  1.1711
  629MOL0     H84911   3.110   0.519   6.448  1.2506  0.6480  2.8230
  629MOL0     H84912   3.952   0.079   6.877 -2.4429  0.2785 -1.9141
  629MOL0     H84913   4.120   0.034   7.085 -0.0056  0.0741 -0.2900
  629MOL0     H84914   4.202  -0.002   6.928  1.7586  1.2727 -0.6847
  629MOL0     H84915   4.279   0.093   7.045  1.2846 -3.3048 -0.9573
  630MOL0     O84916   9.859   3.487   7.851  0.1056 -1.0087  0.7874
  630MOL0     C84917   9.846   3.601   7.806 -0.4100 -0.5634 -0.5062
  630MOL0     O84918   9.891   3.713   7.865 -0.1829  0.5721  0.0275
  630MOL0     C84919   9.958   3.693   7.987 -0.6599 -0.0796 -0.0054
  630MOL0     C84920   9.899   3.696   8.109  0.3231 -0.2123 -0.3214
  630MOL0     C84921   9.970   3.689   8.231  0.0821  0.3098 -0.0752
  630MOL0     C84922  10.115   3.680   8.228  0.0591 -0.4614  0.0976
  630MOL0     O84923  10.199   3.658   8.333  0.5999  0.2484  0.3403
  630MOL0     C84924  10.142   3.687   8.462 -0.2342 -1.0886 -0.5104
  630MOL0     C84925  10.245   3.673   8.577 -0.6200 -0.3583  0.0228
  630MOL0     C84926  10.386   3.733   8.535  0.5847 -0.9676  0.2095
  630MOL0     C84927  10.493   3.721   8.643 -0.4865  0.0589  0.6182
  630MOL0     C84928  10.631   3.744   8.581 -0.5910 -0.4832 -0.7471
  630MOL0     C84929  10.740   3.718   8.688  0.4241  0.0295 -0.3450
  630MOL0     C84930  10.876   3.774   8.631 -0.4581  0.0742  0.0416
  630MOL0     C84931  10.989   3.741   8.731 -0.1374 -0.7256  0.0701
  630MOL0     N84932  11.119   3.806   8.706  0.2318 -0.0364  0.5917
  630MOL0     C84933  11.162   3.865   8.590 -0.5411  0.3414 -0.3433
  630MOL0     C84934  11.291   3.892   8.617  0.5398  1.1451  0.1773
  630MOL0     C84935  11.376   3.978   8.526 -0.2680  0.0834  0.0657
  630MOL0     C84936  11.529   3.968   8.560  0.4839 -0.3850 -0.4758
  630MOL0     C84937  11.595   4.089   8.497  0.2389 -0.7236 -0.1428
  630MOL0     C84938  11.744   4.109   8.533 -0.4871 -1.0648 -0.8492
  630MOL0     O84939  11.808   4.229   8.464 -0.5750  0.1423 -0.8023
  630MOL0     C84940  11.941   4.260   8.488 -0.8498  0.8688 -0.3905
  630MOL0     C84941  11.993   4.388   8.453 -1.3184  0.2894  0.5968
  630MOL0     C84942  12.135   4.417   8.470  0.2746 -0.0068  0.4049
  630MOL0     C84943  12.225   4.311   8.518 -0.1569 -0.9020 -0.0042
  630MOL0     C84944  12.373   4.332   8.527 -0.1605  0.1582  0.1660
  630MOL0     O84945  12.447   4.221   8.524 -0.2502 -0.6650 -0.2189
  630MOL0     C84946  12.580   4.243   8.548 -0.5009 -0.2210  0.3629
  630MOL0     C84947  12.668   4.268   8.446  0.3964 -0.0289  0.6926
  630MOL0     C84948  12.800   4.263   8.470 -0.0937  0.3797  0.4246
  630MOL0     C84949  12.858   4.229   8.592 -0.2116 -0.0407  0.2679
  630MOL0     O84950  12.995   4.206   8.612 -0.7937 -0.2676  0.0190
  630MOL0     C84951  13.078   4.266   8.505  0.9970  0.1903 -0.6122
  630MOL0     C84952  13.225   4.244   8.537  0.3967 -0.4827 -0.1261
  630MOL0     C84953  13.327   4.297   8.436  0.0081  0.0247  0.2306
  630MOL0     C84954  13.476   4.278   8.478  0.7923 -0.5636 -0.9549
  630MOL0     C84955  13.570   4.349   8.381 -0.1625 -0.7962 -0.0158
  630MOL0     C84956  13.716   4.307   8.392 -0.1401  1.0483 -0.0430
  630MOL0     C84957  13.783   4.373   8.511  0.5135  0.5378  0.4310
  630MOL0     C84958  13.922   4.327   8.529  0.1095 -0.0105 -0.3884
  630MOL0    Cl84959  14.024   4.417   8.637  0.2155 -0.1494  0.3539
  630MOL0     C84960  12.767   4.197   8.700  0.0388  0.1763 -0.4814
  630MOL0     C84961  12.630   4.209   8.680 -1.0123 -0.4100  0.3603
  630MOL0     O84962  12.406   4.449   8.544  1.0520  0.2039  0.2715
  630MOL0     C84963  12.168   4.193   8.555 -0.5052 -0.5463 -0.7967
  630MOL0     C84964  12.032   4.162   8.542  0.4329 -0.8745  0.0246
  630MOL0     N84965  11.325   3.861   8.746 -0.0147  0.4994 -0.5955
  630MOL0     N84966  11.214   3.817   8.798 -1.1684 -0.0493  1.1478
  630MOL0     C84967  10.175   3.682   8.101 -0.2234  0.4189 -0.4444
  630MOL0     C84968  10.098   3.681   7.984  0.7692 -0.2175 -0.2460
  630MOL0     C84969   9.766   3.615   7.679 -0.1441  0.1573 -0.0570
  630MOL0     C84970   9.672   3.718   7.683 -0.1629 -0.4026  0.1565
  630MOL0     C84971   9.579   3.734   7.586  0.2008  0.2501 -0.3911
  630MOL0     C84972   9.568   3.645   7.483 -0.1950 -0.3563  0.0319
  630MOL0     O84973   9.482   3.664   7.379 -0.9120  0.6268  0.1777
  630MOL0     C84974   9.354   3.719   7.403 -0.7624  0.1604 -0.5913
  630MOL0     C84975   9.266   3.669   7.285 -0.3521 -0.0578  0.1387
  630MOL0     C84976   9.143   3.751   7.251 -0.0381 -0.5392  0.8657
  630MOL0     C84977   9.057   3.690   7.134 -0.2598 -0.1183 -0.2105
  630MOL0     C84978   9.011   3.548   7.160  0.2402 -0.2195 -0.2463
  630MOL0     C84979   8.975   3.432   7.170  0.0174 -0.1291 -0.4740
  630MOL0     C84980   9.667   3.541   7.472 -0.0963 -0.1064  0.5589
  630MOL0     C84981   9.770   3.524   7.576  0.4629 -0.1443 -0.4086
  630MOL0     C84982   9.874   3.406   7.572  1.0169 -0.1519 -0.4840
  630MOL0     H84983   9.792   3.715   8.112  0.4752  0.6149  2.2034
  630MOL0     H84984   9.903   3.689   8.317 -1.0827 -1.2253 -0.9491
  630MOL0     H84985  10.093   3.785   8.461 -3.0429 -2.3879  0.4759
  630MOL0     H84986  10.061   3.619   8.491 -0.8625  0.8757  2.8495
  630MOL0     H84987  10.262   3.567   8.595 -0.3400 -0.5624 -1.3612
  630MOL0     H84988  10.214   3.724   8.669  1.2829  1.7173 -0.3766
  630MOL0     H84989  10.376   3.835   8.497 -0.5041 -1.1110  0.0893
  630MOL0     H84990  10.412   3.682   8.442 -0.3943  0.3709 -0.8247
  630MOL0     H84991  10.484   3.787   8.730  1.0653  2.2881 -0.8203
  630MOL0     H84992  10.497   3.620   8.686 -2.1490 -1.4480 -2.4129
  630MOL0     H84993  10.659   3.689   8.491  2.1339 -1.4088  0.5505
  630MOL0     H84994  10.633   3.849   8.549 -3.0656 -0.6963 -1.7823
  630MOL0     H84995  10.711   3.773   8.778 -0.9684 -2.9966  1.1900
  630MOL0     H84996  10.750   3.613   8.714  0.8060  0.7395  2.7997
  630MOL0     H84997  10.873   3.883   8.619  2.4648  0.1335 -1.2673
  630MOL0     H84998  10.900   3.722   8.538  1.9629 -0.6962  1.0049
  630MOL0     H84999  10.964   3.762   8.836  2.0713 -1.5651  0.8340
  630MOL0     H85000  10.999   3.632   8.735 -1.8970 -0.9037  0.6746
  630MOL0     H85001  11.112   3.879   8.494 -0.0780 -0.7932 -0.7751
  630MOL0     H85002  11.354   3.951   8.423 -0.1087 -0.9269  0.2870
  630MOL0     H85003  11.343   4.078   8.558  1.0884  0.1188  1.5269
  630MOL0     H85004  11.543   3.971   8.669  0.3043 -1.1843 -0.4288
  630MOL0     H85005  11.559   3.872   8.517 -0.4943 -0.5821 -0.7294
  630MOL0     H85006  11.539   4.181   8.516  0.6927  0.0156 -2.0954
  630MOL0     H85007  11.595   4.081   8.388  2.8035  0.0301 -0.2690
  630MOL0     H85008  11.790   4.014   8.502 -1.3881 -1.1642 -1.9688
  630MOL0     H85009  11.754   4.120   8.641  1.2745 -2.3451 -0.8307
  630MOL0     H85010  11.921   4.462   8.418 -0.7062  1.0800  0.9813
  630MOL0     H85011  12.165   4.515   8.432  3.7887 -0.1138  2.4303
  630MOL0     H85012  12.638   4.276   8.342  0.2227 -1.0415  0.6510
  630MOL0     H85013  12.867   4.279   8.386  0.2537 -0.5380  0.5150
  630MOL0     H85014  13.062   4.204   8.416  2.3911 -0.5230 -0.3793
  630MOL0     H85015  13.059   4.373   8.491  2.2468  0.5895  0.5539
  630MOL0     H85016  13.234   4.300   8.631 -1.0196 -2.4872  1.2768
  630MOL0     H85017  13.249   4.140   8.561 -4.2452 -1.1469  2.8615
  630MOL0     H85018  13.318   4.250   8.337 -0.5843  2.1473 -0.7679
  630MOL0     H85019  13.304   4.401   8.412  1.6976 -0.1454 -2.5993
  630MOL0     H85020  13.502   4.172   8.487  0.1854 -0.5322  3.2858
  630MOL0     H85021  13.494   4.320   8.578  1.7498  0.2694 -1.4618
  630MOL0     H85022  13.573   4.457   8.396  1.0562 -0.5515 -1.6898
  630MOL0     H85023  13.545   4.328   8.276  2.6901  0.3325 -1.0168
  630MOL0     H85024  13.727   4.199   8.408  1.2509  1.2768  0.6669
  630MOL0     H85025  13.771   4.327   8.299 -0.7752  2.2942 -0.1599
  630MOL0     H85026  13.727   4.338   8.598  3.2922 -1.7493  1.4423
  630MOL0     H85027  13.779   4.482   8.505  3.7652  0.8068  1.3758
  630MOL0     H85028  13.938   4.222   8.552 -0.3045  0.1421  0.6515
  630MOL0     H85029  13.970   4.346   8.433  3.7527  0.1780  1.3149
  630MOL0     H85030  12.804   4.166   8.798  0.6728 -0.8729 -1.0388
  630MOL0     H85031  12.557   4.193   8.759 -0.1093  2.2587  1.8966
  630MOL0     H85032  12.233   4.110   8.582  0.6652  0.6196  0.0634
  630MOL0     H85033  11.981   4.070   8.566 -1.1497 -0.3867 -1.2594
  630MOL0     H85034  10.283   3.691   8.104 -0.2593  0.7256  0.0053
  630MOL0     H85035  10.149   3.678   7.888  0.3864  3.2312 -0.6965
  630MOL0     H85036   9.664   3.792   7.763  0.7458  1.1622 -1.1391
  630MOL0     H85037   9.512   3.819   7.586 -1.1729 -0.7012 -3.7281
  630MOL0     H85038   9.361   3.829   7.405 -1.6772  0.2252 -0.7112
  630MOL0     H85039   9.318   3.687   7.501  3.7055  0.4372  1.3733
  630MOL0     H85040   9.236   3.564   7.289  2.4008 -0.9211  0.0235
  630MOL0     H85041   9.331   3.662   7.198 -0.6802 -2.1280  0.0277
  630MOL0     H85042   9.171   3.851   7.217 -0.7425 -0.3118  0.9304
  630MOL0     H85043   9.085   3.753   7.344 -1.5803  0.6899 -0.0808
  630MOL0     H85044   8.971   3.752   7.107  1.7162  1.7955 -2.5431
  630MOL0     H85045   9.130   3.687   7.053  1.4997 -1.0539  1.3078
  630MOL0     H85046   8.944   3.329   7.170  1.8787 -0.7836  2.0087
  630MOL0     H85047   9.651   3.484   7.382  0.5953 -0.8748  0.9148
  630MOL0     H85048   9.975   3.440   7.598  1.6631 -3.1549  1.4338
  630MOL0     H85049   9.847   3.339   7.655 -0.4094  1.0741  0.0839
  630MOL0     H85050   9.880   3.350   7.478 -2.2866 -2.8708  0.7130
  631MOL0     O85051   9.861   9.483   3.004  0.2295  0.8250 -0.6787
  631MOL0     C85052   9.855   9.380   2.932 -0.1786 -0.5326  0.0162
  631MOL0     O85053   9.956   9.334   2.850  0.8492 -0.0520 -0.2117
  631MOL0     C85054  10.070   9.402   2.862 -0.9362  0.7842 -0.3281
  631MOL0     C85055  10.104   9.504   2.773 -0.2529 -0.2184  0.4403
  631MOL0     C85056  10.218   9.583   2.787  0.2306  0.0589 -0.6443
  631MOL0     C85057  10.302   9.569   2.894 -0.7035 -0.6690  0.1999
  631MOL0     O85058  10.424   9.641   2.917  0.0453  1.1692  0.8985
  631MOL0     C85059  10.459   9.681   3.049 -0.8738 -0.0071  1.5917
  631MOL0     C85060  10.579   9.769   3.039 -0.9185 -0.1357  0.2080
  631MOL0     C85061  10.708   9.719   2.987  0.8351  0.4743 -0.0436
  631MOL0     C85062  10.806   9.846   2.975 -0.5078 -0.9314  0.5476
  631MOL0     C85063  10.949   9.803   2.927  0.0322 -0.1357 -0.4010
  631MOL0     C85064  11.026   9.924   2.900 -0.9828 -0.4023  0.2375
  631MOL0     C85065  11.160   9.887   2.823  0.1706 -0.3816 -0.1216
  631MOL0     C85066  11.209  10.022   2.757  0.3732 -0.9096 -0.5879
  631MOL0     N85067  11.347  10.008   2.719  0.3734 -0.3701  0.5068
  631MOL0     C85068  11.425  10.120   2.705 -0.7353  0.8916  0.2428
  631MOL0     C85069  11.543  10.063   2.678 -0.2566  0.0530  0.3494
  631MOL0     C85070  11.673  10.124   2.640 -0.1124 -0.4838  0.0768
  631MOL0     C85071  11.654  10.246   2.559 -0.1009 -0.0534  0.5300
  631MOL0     C85072  11.784  10.313   2.519 -0.2487 -0.5485 -0.1843
  631MOL0     C85073  11.763  10.444   2.438  0.2622  0.3714  0.2071
  631MOL0     O85074  11.880  10.519   2.416 -0.2506  0.6294  1.0235
  631MOL0     C85075  11.933  10.591   2.520  0.1809  0.7140  0.0969
  631MOL0     C85076  12.055  10.642   2.481  0.8645  1.1524 -0.6026
  631MOL0     C85077  12.134  10.704   2.567 -0.8466  0.6741  0.0963
  631MOL0     C85078  12.099  10.721   2.701 -0.5409 -0.5540  0.5090
  631MOL0     C85079  12.190  10.804   2.795  0.8584 -0.1000  0.4528
  631MOL0     O85080  12.299  10.868   2.745 -0.7406 -0.4697 -0.4842
  631MOL0     C85081  12.349  10.958   2.838  0.8042  0.1840  0.4650
  631MOL0     C85082  12.446  10.913   2.930  1.0429 -0.1507 -0.2512
  631MOL0     C85083  12.506  11.010   3.016 -0.3671  0.5426  0.8185
  631MOL0     C85084  12.484  11.149   2.992  0.3194 -0.2298 -0.5787
  631MOL0     O85085  12.553  11.250   3.047 -0.2953  0.7990 -0.2172
  631MOL0     C85086  12.679  11.220   3.100  0.5474 -0.3318  0.4099
  631MOL0     C85087  12.763  11.347   3.122 -0.0479  0.6908  0.2962
  631MOL0     C85088  12.818  11.395   2.984 -0.5643  0.3891 -0.7951
  631MOL0     C85089  12.894  11.535   2.995  0.5674  0.3476  0.5614
  631MOL0     C85090  13.006  11.543   3.091  0.4093  0.3022 -0.6453
  631MOL0     C85091  13.083  11.672   3.086  0.2665 -0.2139  0.0237
  631MOL0     C85092  13.220  11.662   3.152  0.4293 -0.2442 -0.2424
  631MOL0     C85093  13.304  11.792   3.168  0.4292 -0.2969  0.1670
  631MOL0    Cl85094  13.438  11.765   3.278  0.4363 -0.5435  0.3661
  631MOL0     C85095  12.393  11.185   2.901 -0.0393 -0.4287 -0.6898
  631MOL0     C85096  12.336  11.092   2.816  0.7182  0.8168 -0.7950
  631MOL0     O85097  12.152  10.802   2.910  0.4198 -0.5350  0.3319
  631MOL0     C85098  11.974  10.679   2.745  0.0893  0.3938 -0.0323
  631MOL0     C85099  11.888  10.617   2.652 -0.2655  0.4308 -0.4430
  631MOL0     N85100  11.528   9.926   2.649  0.4591 -0.5025  0.2274
  631MOL0     N85101  11.405   9.890   2.682 -0.1229  0.1397 -0.1285
  631MOL0     C85102  10.270   9.470   2.987  0.2295 -0.3470  0.2728
  631MOL0     C85103  10.155   9.387   2.969  0.1139 -0.5807 -0.0592
  631MOL0     C85104   9.733   9.293   2.931 -0.1233  0.4900 -0.0010
  631MOL0     C85105   9.689   9.226   3.048 -0.0562  0.3992 -0.2868
  631MOL0     C85106   9.570   9.159   3.051 -0.1664  0.5357  0.6232
  631MOL0     C85107   9.490   9.154   2.936  0.3305  0.6377  0.4858
  631MOL0     O85108   9.376   9.077   2.956  0.6505  0.0460  0.2401
  631MOL0     C85109   9.269   9.095   2.864  0.4940 -0.5558 -1.0190
  631MOL0     C85110   9.143   9.036   2.925 -0.4582  0.2983 -0.3859
  631MOL0     C85111   9.034   9.039   2.818 -0.1167 -0.7274 -0.2309
  631MOL0     C85112   8.903   8.972   2.870  0.0498  0.7617 -0.8335
  631MOL0     C85113   8.923   8.830   2.903 -0.3528  0.4011 -0.2912
  631MOL0     C85114   8.956   8.715   2.916  1.3433 -0.2513  0.3436
  631MOL0     C85115   9.534   9.223   2.814  0.1809  0.2914  0.0552
  631MOL0     C85116   9.646   9.303   2.819  0.0772  0.5655 -0.3620
  631MOL0     C85117   9.655   9.409   2.709  0.3910  0.6959  0.2749
  631MOL0     H85118  10.053   9.517   2.678 -0.0493 -3.2236 -0.1659
  631MOL0     H85119  10.246   9.658   2.713  3.6566 -0.2633  0.1386
  631MOL0     H85120  10.380   9.744   3.091  0.3354  0.7362  2.8423
  631MOL0     H85121  10.475   9.602   3.123  0.9495 -0.9556  0.2831
  631MOL0     H85122  10.604   9.794   3.142 -0.8788 -3.2414  1.0578
  631MOL0     H85123  10.556   9.853   2.972 -0.9145 -1.0956 -1.0309
  631MOL0     H85124  10.705   9.672   2.888 -0.6251 -2.5263  1.3174
  631MOL0     H85125  10.743   9.649   3.063  2.6630  0.9710 -0.3574
  631MOL0     H85126  10.765   9.921   2.906  0.6178 -2.1466 -1.5095
  631MOL0     H85127  10.819   9.899   3.070 -1.6085  0.6783 -0.1381
  631MOL0     H85128  11.002   9.752   3.008  0.6909 -1.9944 -1.8918
  631MOL0     H85129  10.936   9.736   2.841 -0.4866 -0.6959  0.0991
  631MOL0     H85130  10.966   9.987   2.834 -1.6215 -1.0058  0.2272
  631MOL0     H85131  11.052   9.979   2.990 -1.0648 -3.1007  2.0306
  631MOL0     H85132  11.143   9.822   2.737  0.8415 -2.0115  0.9298
  631MOL0     H85133  11.228   9.848   2.899  0.8594 -0.8246 -0.9536
  631MOL0     H85134  11.148  10.051   2.672 -1.5771 -0.8828  0.7618
  631MOL0     H85135  11.203  10.096   2.837 -0.3442 -1.9636  0.3768
  631MOL0     H85136  11.399  10.225   2.703  0.1050  1.2522  2.9130
  631MOL0     H85137  11.718  10.161   2.733 -1.5562  1.4688  0.0687
  631MOL0     H85138  11.733  10.055   2.581 -0.9917 -0.9347 -0.3144
  631MOL0     H85139  11.589  10.223   2.474  0.4560  1.2552 -0.3033
  631MOL0     H85140  11.593  10.315   2.618 -0.2887 -0.9561  1.4262
  631MOL0     H85141  11.841  10.249   2.450 -2.3574  0.2890 -2.8889
  631MOL0     H85142  11.838  10.338   2.610 -1.1989 -0.9968  0.5124
  631MOL0     H85143  11.697  10.508   2.498 -0.1149  0.4458 -0.2741
  631MOL0     H85144  11.709  10.425   2.345 -0.7521 -1.5344  1.1083
  631MOL0     H85145  12.081  10.651   2.376 -0.8343  0.5618 -1.1115
  631MOL0     H85146  12.225  10.752   2.531 -0.4764 -0.8788 -1.1736
  631MOL0     H85147  12.463  10.807   2.942 -0.3293 -0.6610 -2.2162
  631MOL0     H85148  12.585  10.964   3.073  2.2254 -2.1533 -4.2165
  631MOL0     H85149  12.671  11.169   3.197  2.5022  0.0585  0.8217
  631MOL0     H85150  12.733  11.150   3.035 -0.5319  1.2300 -2.3198
  631MOL0     H85151  12.697  11.423   3.164  1.3710 -0.3710  5.0135
  631MOL0     H85152  12.851  11.337   3.186  1.6419 -0.6842 -2.0738
  631MOL0     H85153  12.904  11.333   2.956  2.2132  2.7615  1.7475
  631MOL0     H85154  12.746  11.395   2.902 -0.5187  1.7647 -0.8543
  631MOL0     H85155  12.816  11.609   3.018  0.6803  0.7354 -0.2668
  631MOL0     H85156  12.931  11.554   2.894 -1.6609 -0.9544 -0.5990
  631MOL0     H85157  13.075  11.470   3.050 -2.5632 -2.9625 -0.2639
  631MOL0     H85158  12.970  11.525   3.192  4.1111  1.5981  1.0968
  631MOL0     H85159  13.096  11.701   2.981 -1.4022 -1.4790 -0.6027
  631MOL0     H85160  13.022  11.749   3.134  0.7109  0.3734 -0.3341
  631MOL0     H85161  13.280  11.592   3.094 -0.0375 -2.0399  1.3410
  631MOL0     H85162  13.209  11.624   3.254  0.6300  1.3025  0.3899
  631MOL0     H85163  13.342  11.821   3.070 -0.6915 -0.2891 -0.2787
  631MOL0     H85164  13.246  11.878   3.202  2.8472  0.4216  2.9698
  631MOL0     H85165  12.389  11.294   2.894  0.7627 -0.4366 -1.7305
  631MOL0     H85166  12.265  11.110   2.736 -3.9898 -1.4370  2.3640
  631MOL0     H85167  11.925  10.697   2.841 -0.8200 -1.0253 -0.1927
  631MOL0     H85168  11.799  10.570   2.693  1.0889 -1.8030  0.1274
  631MOL0     H85169  10.336   9.450   3.071  0.1169  0.7913  0.6452
  631MOL0     H85170  10.135   9.315   3.049 -1.1462 -1.1829 -0.8913
  631MOL0     H85171   9.756   9.229   3.133  0.8244 -0.0193 -0.9505
  631MOL0     H85172   9.542   9.115   3.146  2.3257 -2.0432  0.3100
  631MOL0     H85173   9.293   9.041   2.772 -0.2294 -0.8140 -1.0644
  631MOL0     H85174   9.255   9.200   2.837  2.1796 -0.0581 -0.0873
  631MOL0     H85175   9.118   9.089   3.017  2.3891  4.9178 -1.9682
  631MOL0     H85176   9.169   8.933   2.952  1.8983  0.4007 -1.9056
  631MOL0     H85177   9.067   8.988   2.727  2.3871 -0.8387  0.6507
  631MOL0     H85178   9.020   9.144   2.791  1.1589  0.0050  1.7284
  631MOL0     H85179   8.865   9.027   2.956 -0.2600  0.3380 -0.7010
  631MOL0     H85180   8.828   8.979   2.791 -1.3499 -0.7688  0.3112
  631MOL0     H85181   8.983   8.614   2.940 -0.7325 -0.9566 -0.0829
  631MOL0     H85182   9.471   9.216   2.726 -1.4066 -1.0653  1.2238
  631MOL0     H85183   9.603   9.502   2.737  1.3359  0.5199  2.9125
  631MOL0     H85184   9.758   9.422   2.673  0.3272  0.2673 -0.0743
  631MOL0     H85185   9.612   9.367   2.618  0.9091  1.6444 -0.4275
  632MOL0     O85186   1.986   0.204   7.601 -0.6111  0.2336 -0.3739
  632MOL0     C85187   1.870   0.164   7.626 -1.1834  0.7088 -0.0297
  632MOL0     O85188   1.838   0.067   7.719 -0.4305  0.8171 -0.2384
  632MOL0     C85189   1.939   0.035   7.804 -0.6330 -0.7455 -0.6358
  632MOL0     C85190   2.065  -0.017   7.767  0.6317 -0.6613  0.0422
  632MOL0     C85191   2.165  -0.046   7.867  0.2799  0.1492  0.0110
  632MOL0     C85192   2.138  -0.015   8.005 -0.4081  0.7408 -0.6441
  632MOL0     O85193   2.220  -0.048   8.108  0.2817  0.0797  0.6391
  632MOL0     C85194   2.274  -0.185   8.099  0.3204  0.0970 -0.5535
  632MOL0     C85195   2.364  -0.216   8.223  0.2948  0.0717  0.0116
  632MOL0     C85196   2.485  -0.129   8.218 -0.4518 -0.4472 -0.2760
  632MOL0     C85197   2.585  -0.184   8.326  0.6087 -0.1868  0.3328
  632MOL0     C85198   2.725  -0.106   8.318 -0.3549 -0.5387  0.4280
  632MOL0     C85199   2.722   0.041   8.345  0.8454 -0.1047 -0.3907
  632MOL0     C85200   2.837   0.116   8.283  0.4417  0.3689 -0.5484
  632MOL0     C85201   2.805   0.261   8.243 -0.2206  0.1687 -0.3440
  632MOL0     N85202   2.922   0.319   8.167 -0.3079  0.4535 -0.7135
  632MOL0     C85203   3.028   0.369   8.233 -0.0697 -0.2092 -0.0788
  632MOL0     C85204   3.118   0.393   8.135  0.5338  0.3442  0.1640
  632MOL0     C85205   3.271   0.420   8.163 -0.8422  0.8186  1.1591
  632MOL0     C85206   3.348   0.289   8.176 -0.0903 -0.0024  0.0834
  632MOL0     C85207   3.358   0.211   8.040 -0.1934  0.5671  0.4749
  632MOL0     C85208   3.448   0.089   8.044 -0.4609 -0.5127 -0.8497
  632MOL0     O85209   3.424   0.024   7.923 -0.5495  0.7172 -0.1955
  632MOL0     C85210   3.517  -0.080   7.904  0.2108  0.1952 -0.1304
  632MOL0     C85211   3.471  -0.190   7.843  0.3969  0.2140  0.0058
  632MOL0     C85212   3.551  -0.301   7.821  0.3803  0.0397  0.9342
  632MOL0     C85213   3.688  -0.303   7.845  0.1810  0.2769 -0.0313
  632MOL0     C85214   3.761  -0.432   7.826 -0.7039 -0.0871 -0.3396
  632MOL0     O85215   3.898  -0.419   7.815  0.0587 -0.0514  0.3654
  632MOL0     C85216   3.987  -0.519   7.777 -0.1977 -0.0180  0.3196
  632MOL0     C85217   3.952  -0.632   7.702  0.5948  0.7920  0.1548
  632MOL0     C85218   4.050  -0.723   7.666  0.4587  0.2756  0.3321
  632MOL0     C85219   4.184  -0.707   7.710 -0.6900 -0.1973  0.0611
  632MOL0     O85220   4.285  -0.794   7.660  0.2156 -0.5179  0.1690
  632MOL0     C85221   4.414  -0.799   7.721  0.5731 -0.2338 -0.1879
  632MOL0     C85222   4.507  -0.905   7.644  0.6920  0.4071 -0.5948
  632MOL0     C85223   4.437  -1.034   7.630  0.6523  0.7785  0.9858
  632MOL0     C85224   4.340  -1.054   7.508 -0.2312 -0.2188  0.4980
  632MOL0     C85225   4.269  -1.196   7.504 -0.5288  0.0853 -0.5057
  632MOL0     C85226   4.171  -1.211   7.617  0.6813  0.2944 -0.3898
  632MOL0     C85227   4.086  -1.338   7.590  0.7569  0.6070 -0.0744
  632MOL0     C85228   3.972  -1.328   7.478 -0.7613 -0.2906  0.1942
  632MOL0    Cl85229   3.909  -1.506   7.461 -0.2531 -0.1478 -0.0672
  632MOL0     C85230   4.220  -0.594   7.789  0.0783 -0.5301  0.0355
  632MOL0     C85231   4.118  -0.497   7.827 -0.3828  0.0247 -0.0702
  632MOL0     O85232   3.699  -0.533   7.846 -0.1046 -0.1888  0.3985
  632MOL0     C85233   3.743  -0.183   7.893 -0.6013  0.4137  1.0316
  632MOL0     C85234   3.657  -0.075   7.928 -0.1851  0.5352  0.4719
  632MOL0     N85235   3.058   0.365   8.011 -0.5842  1.0088  0.1592
  632MOL0     N85236   2.938   0.314   8.032 -0.5248 -0.2302  0.4545
  632MOL0     C85237   2.013   0.032   8.041  0.6757  0.6867  0.2229
  632MOL0     C85238   1.926   0.075   7.944  0.2628 -1.2651  0.2225
  632MOL0     C85239   1.754   0.226   7.562 -0.4207  0.0933 -0.3061
  632MOL0     C85240   1.763   0.367   7.539  0.8303 -0.3789  0.3790
  632MOL0     C85241   1.672   0.440   7.462  0.1186  0.1737 -0.3612
  632MOL0     C85242   1.557   0.371   7.410 -0.4606  1.1903 -0.7952
  632MOL0     O85243   1.453   0.427   7.331 -0.1436 -0.4699 -0.2743
  632MOL0     C85244   1.473   0.558   7.278 -0.5791 -0.3934  1.5587
  632MOL0     C85245   1.376   0.596   7.170 -0.4709  0.4085  0.1696
  632MOL0     C85246   1.236   0.627   7.218  0.0868 -0.4363  0.6926
  632MOL0     C85247   1.237   0.733   7.333  0.1164  0.0435  0.1804
  632MOL0     C85248   1.110   0.795   7.336  0.7436 -0.1639  0.7860
  632MOL0     C85249   1.000   0.838   7.342  0.8679 -0.3363  0.9308
  632MOL0     C85250   1.548   0.232   7.434 -0.2778 -0.5454 -0.3293
  632MOL0     C85251   1.640   0.160   7.509 -0.1974  0.3761  0.0121
  632MOL0     C85252   1.626   0.013   7.516 -0.1553  0.4886  0.1118
  632MOL0     H85253   2.080  -0.037   7.661  1.6536  0.3892 -0.0297
  632MOL0     H85254   2.254  -0.093   7.825 -0.6766  0.4432 -2.5035
  632MOL0     H85255   2.196  -0.262   8.096  1.2455 -0.8848 -0.2868
  632MOL0     H85256   2.335  -0.183   8.008 -2.7317  2.5497 -2.7569
  632MOL0     H85257   2.406  -0.317   8.222  0.2491  0.0215  1.4849
  632MOL0     H85258   2.316  -0.195   8.319  2.4049 -0.5562  1.2526
  632MOL0     H85259   2.460  -0.028   8.252  0.5614 -1.3711  3.8584
  632MOL0     H85260   2.531  -0.132   8.119 -0.6802 -1.7669 -0.3621
  632MOL0     H85261   2.545  -0.172   8.427  2.1528  0.7172  0.8790
  632MOL0     H85262   2.601  -0.291   8.310  0.3525  0.0717 -2.0988
  632MOL0     H85263   2.791  -0.152   8.392  1.5218  0.5080 -0.5252
  632MOL0     H85264   2.765  -0.132   8.219 -2.9584 -2.4504 -0.2294
  632MOL0     H85265   2.624   0.075   8.309 -0.0423  0.3471  2.2377
  632MOL0     H85266   2.726   0.053   8.454 -2.1052  1.1913 -0.3290
  632MOL0     H85267   2.872   0.066   8.192  1.3435 -0.3447  0.1610
  632MOL0     H85268   2.930   0.106   8.340 -0.5360 -1.2657  0.8582
  632MOL0     H85269   2.718   0.265   8.177 -0.1320  1.4516 -0.4055
  632MOL0     H85270   2.782   0.332   8.322  1.7244  0.3495  0.1184
  632MOL0     H85271   3.056   0.376   8.338  0.4282 -1.3134 -0.1192
  632MOL0     H85272   3.317   0.481   8.085  0.8078  0.6564  1.9607
  632MOL0     H85273   3.285   0.469   8.260  1.2984 -0.3077  1.4668
  632MOL0     H85274   3.452   0.305   8.205 -0.5942  1.5748  1.1862
  632MOL0     H85275   3.311   0.239   8.265 -0.4775  3.6499  2.2028
  632MOL0     H85276   3.391   0.281   7.963  1.3704  0.7267  1.2363
  632MOL0     H85277   3.257   0.177   8.015  0.0729  0.5660 -0.6520
  632MOL0     H85278   3.420   0.026   8.129  0.9490 -0.6540 -0.4799
  632MOL0     H85279   3.549   0.127   8.059 -0.0994 -1.6007 -0.4135
  632MOL0     H85280   3.366  -0.193   7.815  0.5621  0.6872 -0.6950
  632MOL0     H85281   3.508  -0.385   7.767  2.0882  0.9472 -2.1004
  632MOL0     H85282   3.852  -0.644   7.661  0.5435  2.1243 -0.1789
  632MOL0     H85283   4.021  -0.807   7.603 -2.5694  1.3020  0.1701
  632MOL0     H85284   4.463  -0.701   7.717  0.6476 -0.3258 -2.4366
  632MOL0     H85285   4.399  -0.830   7.825 -0.1756  1.6752  0.3244
  632MOL0     H85286   4.526  -0.864   7.545 -1.6291 -3.6966 -2.9769
  632MOL0     H85287   4.595  -0.920   7.709  0.2206  1.8326  0.4284
  632MOL0     H85288   4.510  -1.112   7.608 -0.3726  0.2020 -0.4854
  632MOL0     H85289   4.390  -1.067   7.723 -0.1518 -1.9529 -0.2889
  632MOL0     H85290   4.400  -1.040   7.417  0.7577  1.7357  1.3999
  632MOL0     H85291   4.257  -0.983   7.500 -0.4812 -0.3605  1.7195
  632MOL0     H85292   4.343  -1.277   7.507  0.1425  0.7101  1.2499
  632MOL0     H85293   4.211  -1.210   7.412  1.1389 -0.6833 -1.5021
  632MOL0     H85294   4.215  -1.231   7.715 -0.6183 -1.0966 -0.0578
  632MOL0     H85295   4.110  -1.120   7.622 -1.7078 -1.2390 -0.1123
  632MOL0     H85296   4.043  -1.361   7.687  0.3312 -1.5078 -0.7110
  632MOL0     H85297   4.146  -1.424   7.559  1.0018  0.9073 -0.4480
  632MOL0     H85298   3.881  -1.281   7.515 -2.9508 -2.7369 -1.7297
  632MOL0     H85299   3.998  -1.272   7.388 -4.0254  0.2667 -0.5279
  632MOL0     H85300   4.320  -0.564   7.820  0.0412  1.3113 -1.4771
  632MOL0     H85301   4.152  -0.415   7.889 -2.1510 -0.1970  1.2896
  632MOL0     H85302   3.847  -0.202   7.915 -1.1718 -3.5167  1.1175
  632MOL0     H85303   3.705   0.005   7.983  0.3141  1.7326 -1.5908
  632MOL0     H85304   1.992   0.063   8.143  2.7002 -1.0336  1.2466
  632MOL0     H85305   1.828   0.115   7.965  0.6936  1.1047 -1.8296
  632MOL0     H85306   1.849   0.425   7.573 -1.3252  1.8658  2.3946
  632MOL0     H85307   1.691   0.545   7.441 -0.2043  0.5917  1.3218
  632MOL0     H85308   1.569   0.560   7.226 -0.0029 -0.5038  2.5847
  632MOL0     H85309   1.484   0.632   7.358  0.1349 -0.1417  1.2369
  632MOL0     H85310   1.360   0.509   7.106 -1.8484  0.3560  0.5425
  632MOL0     H85311   1.410   0.675   7.103  2.0693 -0.1264  0.7019
  632MOL0     H85312   1.185   0.532   7.237 -0.5958 -0.2687 -0.1916
  632MOL0     H85313   1.190   0.668   7.127  1.8312 -0.8530 -0.4329
  632MOL0     H85314   1.267   0.679   7.423  3.4944 -3.4708 -2.6916
  632MOL0     H85315   1.307   0.814   7.313  0.9031 -0.4110  1.0515
  632MOL0     H85316   0.903   0.883   7.344  0.2570 -1.6153  1.6183
  632MOL0     H85317   1.459   0.189   7.388 -1.6102  1.0849  0.6094
  632MOL0     H85318   1.657  -0.024   7.418  1.8993 -0.7051  1.1479
  632MOL0     H85319   1.678  -0.045   7.593 -1.0898  0.0214  0.4144
  632MOL0     H85320   1.523  -0.006   7.547 -0.6153  1.6655 -0.6320
  633MOL0     O85321   0.497   2.822   7.080 -0.1371 -0.0643  0.4108
  633MOL0     C85322   0.447   2.910   7.011 -0.1980  0.1109  0.6945
  633MOL0     O85323   0.505   3.024   6.968  0.5746  1.1640 -1.0686
  633MOL0     C85324   0.641   3.029   6.975 -0.0432 -0.4816  0.5030
  633MOL0     C85325   0.725   2.922   6.957 -0.4223  0.4205 -0.0450
  633MOL0     C85326   0.865   2.933   6.936  0.8119 -0.6886 -0.2880
  633MOL0     C85327   0.923   3.064   6.939  0.2183  0.3001 -0.3301
  633MOL0     O85328   1.059   3.079   6.938 -0.2198 -0.3043  0.1172
  633MOL0     C85329   1.147   2.967   6.909 -0.1144  0.0861 -0.1988
  633MOL0     C85330   1.301   3.008   6.936 -0.2108  0.1283 -0.4766
  633MOL0     C85331   1.365   3.109   6.842  0.5317 -0.8366 -0.9808
  633MOL0     C85332   1.511   3.144   6.877 -0.1735  0.1635 -0.0223
  633MOL0     C85333   1.582   3.224   6.768 -0.5319 -0.4808  0.2198
  633MOL0     C85334   1.733   3.250   6.800  0.1832  0.3788  0.3802
  633MOL0     C85335   1.816   3.130   6.837  0.4230 -0.1397 -0.6713
  633MOL0     C85336   1.956   3.177   6.854  0.0147  0.3051  0.1248
  633MOL0     N85337   1.990   3.264   6.978  1.0095  0.1753 -0.0182
  633MOL0     C85338   1.969   3.219   7.105 -0.8418  0.1086  0.5566
  633MOL0     C85339   2.007   3.329   7.173 -0.7534  0.7278 -0.0354
  633MOL0     C85340   2.018   3.327   7.323 -0.2883 -0.3549 -0.0620
  633MOL0     C85341   2.144   3.389   7.383  0.4053 -0.1633 -0.3593
  633MOL0     C85342   2.152   3.546   7.382 -0.3171 -0.1085 -0.0663
  633MOL0     C85343   2.276   3.588   7.450 -0.4630 -0.7005  0.3190
  633MOL0     O85344   2.392   3.525   7.394  0.1398 -0.1597  0.6188
  633MOL0     C85345   2.512   3.532   7.461 -0.2358  0.2912 -0.3390
  633MOL0     C85346   2.618   3.468   7.403  0.4094  0.1499  0.4848
  633MOL0     C85347   2.747   3.465   7.457 -0.8412  0.2600 -0.1856
  633MOL0     C85348   2.773   3.517   7.588 -0.7346  0.2784  0.4465
  633MOL0     C85349   2.909   3.520   7.638 -1.0274  0.2468 -0.5098
  633MOL0     O85350   2.933   3.607   7.746 -0.7306 -0.1005 -0.5247
  633MOL0     C85351   3.056   3.596   7.804 -0.1332  0.7325  0.3389
  633MOL0     C85352   3.167   3.641   7.729  0.5733 -0.1368 -0.6672
  633MOL0     C85353   3.295   3.633   7.801  0.6649 -0.7354 -0.6624
  633MOL0     C85354   3.304   3.584   7.930 -0.1264 -0.0984 -0.2520
  633MOL0     O85355   3.417   3.578   8.006 -0.5257 -0.7121 -0.2377
  633MOL0     C85356   3.536   3.645   7.953 -0.3668 -0.1581 -0.0531
  633MOL0     C85357   3.659   3.598   8.038 -0.3214 -0.2533  0.5012
  633MOL0     C85358   3.666   3.448   8.029  0.1317  0.4083  0.0657
  633MOL0     C85359   3.768   3.373   8.110 -0.2796  0.1523  0.2202
  633MOL0     C85360   3.800   3.229   8.060  0.4309 -0.4526  0.3961
  633MOL0     C85361   3.909   3.183   8.155 -0.0815 -0.1638 -0.0637
  633MOL0     C85362   3.942   3.032   8.133  1.0730 -0.1385 -1.0153
  633MOL0     C85363   4.031   2.966   8.243 -0.3829  0.0831 -0.2819
  633MOL0    Cl85364   4.193   3.052   8.280  0.6603  0.2065  0.2912
  633MOL0     C85365   3.185   3.543   7.992 -0.4081  0.0162  0.6148
  633MOL0     C85366   3.060   3.545   7.928  0.0422  0.0496 -0.0378
  633MOL0     O85367   2.991   3.435   7.590 -0.9507 -0.0240 -0.0055
  633MOL0     C85368   2.662   3.563   7.655  0.5366  0.9072 -0.1494
  633MOL0     C85369   2.537   3.580   7.590 -0.6318  0.1804  0.3736
  633MOL0     N85370   2.010   3.441   7.088 -0.1679 -0.2924  0.0257
  633MOL0     N85371   1.994   3.400   6.971  0.5754  0.0858  0.7866
  633MOL0     C85372   0.835   3.167   6.964  0.1068 -0.7480 -0.9662
  633MOL0     C85373   0.696   3.156   6.984 -0.5002  0.8285  0.0158
  633MOL0     C85374   0.300   2.894   6.990  0.5265  0.3253 -0.2371
  633MOL0     C85375   0.223   3.012   6.999 -0.5109 -0.2109 -0.2767
  633MOL0     C85376   0.089   2.998   6.976 -0.4966 -0.4300  0.1284
  633MOL0     C85377   0.020   2.879   6.949  0.0015 -0.0985 -0.6608
  633MOL0     O85378  -0.119   2.878   6.929 -0.4389  0.0876 -0.2356
  633MOL0     C85379  -0.187   2.743   6.924  0.0839  0.4112  0.4136
  633MOL0     C85380  -0.337   2.773   6.900  0.3125 -0.4025  0.6896
  633MOL0     C85381  -0.424   2.653   6.936  0.3982  0.1590  0.3668
  633MOL0     C85382  -0.576   2.679   6.926 -0.3638  0.1858  1.0204
  633MOL0     C85383  -0.610   2.764   7.040 -0.3887 -0.0688 -0.6902
  633MOL0     C85384  -0.636   2.835   7.142  0.5225  0.7391  0.4268
  633MOL0     C85385   0.098   2.759   6.957  0.0123  0.5851  0.1859
  633MOL0     C85386   0.236   2.767   6.977  0.0487  0.4638 -0.2079
  633MOL0     C85387   0.314   2.633   6.964  0.0145 -0.2463  0.2745
  633MOL0     H85388   0.688   2.820   6.950 -1.2226  0.3656  3.3492
  633MOL0     H85389   0.924   2.844   6.919 -0.4942 -1.7476  0.5109
  633MOL0     H85390   1.121   2.893   6.985  0.6923 -0.6358 -0.6199
  633MOL0     H85391   1.133   2.924   6.809 -1.3232  3.4944 -1.6530
  633MOL0     H85392   1.358   2.915   6.932  1.5158  1.1120  0.1519
  633MOL0     H85393   1.311   3.048   7.037  0.9287 -0.3617 -0.3769
  633MOL0     H85394   1.307   3.200   6.859  1.7071 -0.2535  0.0723
  633MOL0     H85395   1.365   3.077   6.738  4.1451 -0.4409 -1.2297
  633MOL0     H85396   1.515   3.179   6.981  3.7422  0.4471 -0.1007
  633MOL0     H85397   1.569   3.051   6.880 -1.9590 -1.0199 -0.7331
  633MOL0     H85398   1.582   3.165   6.676  2.6028  1.1644 -0.9864
  633MOL0     H85399   1.521   3.313   6.754 -1.1631 -0.8641  0.4751
  633MOL0     H85400   1.784   3.285   6.709  1.0295  0.5117  0.8966
  633MOL0     H85401   1.741   3.323   6.881 -0.9116  0.2996  0.5761
  633MOL0     H85402   1.805   3.050   6.764 -0.4189  0.6471 -1.4227
  633MOL0     H85403   1.786   3.089   6.934  0.3392  0.0210 -0.6275
  633MOL0     H85404   2.018   3.088   6.867 -1.5307 -0.7341  0.6589
  633MOL0     H85405   1.989   3.222   6.760  0.7669  4.3511  2.0717
  633MOL0     H85406   1.960   3.115   7.135 -0.1175 -0.1274  0.0045
  633MOL0     H85407   1.927   3.376   7.359  0.3575 -0.0256  1.1751
  633MOL0     H85408   2.011   3.224   7.358 -3.9808  0.3172  1.7062
  633MOL0     H85409   2.150   3.355   7.487  1.8090  0.6413 -0.1417
  633MOL0     H85410   2.234   3.363   7.327  1.5604  0.8869  0.9217
  633MOL0     H85411   2.071   3.586   7.443 -0.8172  0.2971 -0.9754
  633MOL0     H85412   2.144   3.575   7.277 -1.1497 -1.9234 -0.5496
  633MOL0     H85413   2.269   3.563   7.556 -2.1121 -2.4905 -0.1645
  633MOL0     H85414   2.281   3.697   7.443  1.0079 -0.5748  2.4356
  633MOL0     H85415   2.605   3.403   7.317  0.7323  0.8297 -0.0820
  633MOL0     H85416   2.808   3.399   7.396 -1.0566 -0.4929  0.3884
  633MOL0     H85417   3.157   3.676   7.627  0.3982  1.3309 -0.1700
  633MOL0     H85418   3.378   3.668   7.741 -0.9877  1.8769 -1.6282
  633MOL0     H85419   3.565   3.619   7.851  1.5605 -1.2754  0.7218
  633MOL0     H85420   3.520   3.752   7.972 -3.4899 -0.4489 -0.5914
  633MOL0     H85421   3.747   3.639   7.989 -2.9856  1.1861 -3.5994
  633MOL0     H85422   3.652   3.625   8.143  1.5398  1.2391  0.2874
  633MOL0     H85423   3.570   3.401   8.053 -0.1403  1.6508  1.5500
  633MOL0     H85424   3.689   3.441   7.922 -0.5317  1.3770 -0.1545
  633MOL0     H85425   3.749   3.369   8.218  1.4599 -0.8018  0.5288
  633MOL0     H85426   3.865   3.422   8.104 -1.8073  3.3463 -1.0859
  633MOL0     H85427   3.833   3.226   7.955  3.2373 -2.6471  1.2262
  633MOL0     H85428   3.716   3.160   8.055  0.3262 -0.2660 -2.0273
  633MOL0     H85429   4.004   3.237   8.144  0.5626 -1.3941 -0.7860
  633MOL0     H85430   3.872   3.201   8.257  1.0097 -1.2773  0.5685
  633MOL0     H85431   4.002   3.031   8.042  1.9604 -1.9136 -0.4604
  633MOL0     H85432   3.857   2.966   8.120 -0.3156  1.4714 -0.4875
  633MOL0     H85433   3.973   2.964   8.336  1.3404  2.5531  0.9674
  633MOL0     H85434   4.069   2.869   8.211  0.0322  0.2204 -0.2101
  633MOL0     H85435   3.193   3.502   8.092  1.6271  1.7081  1.2226
  633MOL0     H85436   2.966   3.521   7.978 -1.9091  0.2913 -3.3375
  633MOL0     H85437   2.676   3.635   7.735 -1.2856  2.9593 -1.5692
  633MOL0     H85438   2.460   3.618   7.656 -0.4276 -1.7392  1.7857
  633MOL0     H85439   0.883   3.264   6.968 -0.9717 -0.1630 -1.7575
  633MOL0     H85440   0.636   3.247   6.994  0.1908  1.5735 -1.9829
  633MOL0     H85441   0.273   3.106   7.022 -1.1390  0.2545 -0.7984
  633MOL0     H85442   0.034   3.092   6.978 -1.0921 -0.6459 -2.6870
  633MOL0     H85443  -0.172   2.686   7.016  1.8586  0.4294  0.1704
  633MOL0     H85444  -0.142   2.689   6.841  0.3719  0.3911  0.5798
  633MOL0     H85445  -0.349   2.810   6.798 -0.7101  1.5977  1.4857
  633MOL0     H85446  -0.368   2.859   6.960 -1.7068 -1.2868  1.0092
  633MOL0     H85447  -0.404   2.628   7.040  3.1757  1.0916  0.1218
  633MOL0     H85448  -0.381   2.570   6.879  0.1340 -1.0997  1.9544
  633MOL0     H85449  -0.600   2.725   6.829  1.5613  2.0807  1.3665
  633MOL0     H85450  -0.626   2.584   6.947 -1.3295 -0.1612 -2.2254
  633MOL0     H85451  -0.652   2.884   7.236  1.9305 -0.8774  1.5661
  633MOL0     H85452   0.051   2.668   6.920 -0.4236  1.7322 -2.2935
  633MOL0     H85453   0.395   2.638   6.890 -1.4134 -1.5171 -1.4633
  633MOL0     H85454   0.360   2.599   7.057  1.8930 -2.5065 -1.3639
  633MOL0     H85455   0.245   2.555   6.931  0.0644 -0.3903  0.5141
  634MOL0     O85456   2.115   6.346   1.530 -0.6287 -0.8513 -0.2344
  634MOL0     C85457   2.036   6.328   1.622 -1.3820  0.0526  0.0749
  634MOL0     O85458   2.062   6.262   1.738  0.1510 -0.7704 -0.0856
  634MOL0     C85459   2.193   6.264   1.771  0.4588  0.5654 -0.4019
  634MOL0     C85460   2.247   6.357   1.853 -0.1741  0.6295 -0.2699
  634MOL0     C85461   2.380   6.337   1.892 -0.1413  0.0256 -0.2854
  634MOL0     C85462   2.470   6.235   1.840  0.5438  0.4794 -0.0469
  634MOL0     O85463   2.599   6.214   1.881 -0.1710  0.5554 -0.5726
  634MOL0     C85464   2.668   6.311   1.958 -0.6577  0.7079  0.0457
  634MOL0     C85465   2.813   6.286   1.956  0.0642 -0.0789 -0.5187
  634MOL0     C85466   2.885   6.389   2.030 -0.0920 -0.6114  1.0666
  634MOL0     C85467   3.026   6.349   2.053  0.7043  0.0220 -0.2501
  634MOL0     C85468   3.107   6.458   2.120  0.0214  0.1808 -0.2639
  634MOL0     C85469   3.243   6.402   2.159  0.9171  0.5632 -0.3577
  634MOL0     C85470   3.314   6.505   2.239 -1.0603 -0.5370 -0.8010
  634MOL0     C85471   3.457   6.453   2.293  0.0504  0.1239 -0.2647
  634MOL0     N85472   3.532   6.577   2.318  0.5889  0.1728 -0.6480
  634MOL0     C85473   3.610   6.640   2.225  0.1487 -0.3648  0.2799
  634MOL0     C85474   3.690   6.721   2.300  0.1698 -0.8613 -0.6334
  634MOL0     C85475   3.805   6.813   2.250  0.1022  0.1388 -0.3376
  634MOL0     C85476   3.948   6.764   2.286  0.3086 -0.8166  0.1368
  634MOL0     C85477   3.997   6.636   2.217  0.7102  0.7685  0.2884
  634MOL0     C85478   4.147   6.605   2.227 -0.2389 -0.4285 -0.7665
  634MOL0     O85479   4.232   6.690   2.149 -0.0274 -0.5623  0.2096
  634MOL0     C85480   4.353   6.649   2.109 -0.7359  1.2760  0.0620
  634MOL0     C85481   4.432   6.551   2.175 -0.3399 -1.0071  0.5883
  634MOL0     C85482   4.553   6.506   2.129 -0.4545  0.1800 -0.5013
  634MOL0     C85483   4.603   6.562   2.000 -0.0242  0.4081  0.2915
  634MOL0     C85484   4.738   6.527   1.954 -0.0814  0.4900 -0.3274
  634MOL0     O85485   4.827   6.464   2.039 -0.2212  0.0376 -0.0203
  634MOL0     C85486   4.949   6.440   1.978 -0.0947 -0.4209 -0.8850
  634MOL0     C85487   4.969   6.351   1.873  0.4849 -0.3617  0.0790
  634MOL0     C85488   5.095   6.340   1.823 -0.0632 -0.5307 -0.2680
  634MOL0     C85489   5.204   6.406   1.880  0.3915 -0.1221  0.3852
  634MOL0     O85490   5.326   6.380   1.815  0.2489  0.0522 -0.5649
  634MOL0     C85491   5.431   6.467   1.846 -0.1596 -0.1377 -0.0992
  634MOL0     C85492   5.553   6.431   1.771 -0.0085 -0.6626  0.0273
  634MOL0     C85493   5.586   6.279   1.795  0.6940  0.7162  0.9550
  634MOL0     C85494   5.706   6.228   1.709 -0.4953  0.4859  0.0613
  634MOL0     C85495   5.742   6.084   1.762  0.0673 -0.9922  0.3494
  634MOL0     C85496   5.855   6.029   1.677  0.3991 -0.0166  0.4472
  634MOL0     C85497   5.912   5.908   1.741  0.0657 -0.2669  0.0212
  634MOL0     C85498   6.057   5.867   1.720 -0.1118  1.1239  0.7270
  634MOL0    Cl85499   6.165   5.988   1.797 -0.3995  0.5232  0.2835
  634MOL0     C85500   5.187   6.495   1.983 -0.0236 -0.1066  0.1004
  634MOL0     C85501   5.062   6.502   2.043  0.3926  0.8800 -0.4158
  634MOL0     O85502   4.762   6.562   1.842 -0.3531  0.1835  0.9519
  634MOL0     C85503   4.518   6.664   1.936  0.0217 -0.1419  0.8651
  634MOL0     C85504   4.390   6.694   1.984  0.3940 -0.4802  0.3094
  634MOL0     N85505   3.645   6.718   2.432 -0.3511  0.1213  1.1193
  634MOL0     N85506   3.551   6.629   2.444  0.5920  0.4659  0.0106
  634MOL0     C85507   2.412   6.144   1.756  0.0519 -0.2573 -0.7601
  634MOL0     C85508   2.274   6.156   1.730  0.5967  0.1178  0.3509
  634MOL0     C85509   1.891   6.334   1.594  0.4930  0.6501  0.0721
  634MOL0     C85510   1.813   6.354   1.710 -0.0172  0.2224  0.5427
  634MOL0     C85511   1.677   6.356   1.702 -0.1512 -0.4511  0.6294
  634MOL0     C85512   1.611   6.347   1.573 -0.0312  0.3497  0.3944
  634MOL0     O85513   1.476   6.347   1.572  0.2526 -0.5570 -0.2135
  634MOL0     C85514   1.394   6.358   1.458 -0.2940  0.9303  0.4682
  634MOL0     C85515   1.387   6.230   1.379 -0.0282  0.8261 -0.1812
  634MOL0     C85516   1.304   6.131   1.448  1.2648  0.6396  1.5664
  634MOL0     C85517   1.324   5.980   1.403  0.5296  0.3089  0.2691
  634MOL0     C85518   1.442   5.905   1.463  0.2795 -0.0414  0.9596
  634MOL0     C85519   1.545   5.863   1.498 -0.5187  0.7446  0.0392
  634MOL0     C85520   1.688   6.345   1.454 -0.1049 -0.0907 -0.3958
  634MOL0     C85521   1.825   6.336   1.468  0.0134  0.7215  0.6783
  634MOL0     C85522   1.905   6.319   1.345  1.1072 -0.3192  0.0805
  634MOL0     H85523   2.185   6.433   1.899  2.1425  1.1730  2.2011
  634MOL0     H85524   2.417   6.409   1.964 -1.1183 -1.1923  1.5072
  634MOL0     H85525   2.660   6.412   1.916 -0.4730 -0.2738 -2.4941
  634MOL0     H85526   2.632   6.302   2.061 -1.2440  1.2018 -0.1104
  634MOL0     H85527   2.857   6.279   1.855  0.5871 -0.3119 -0.2796
  634MOL0     H85528   2.819   6.183   1.993  2.0227 -0.4128 -1.6111
  634MOL0     H85529   2.846   6.404   2.131 -2.9036 -3.9365  0.6556
  634MOL0     H85530   2.875   6.484   1.976  0.2698  0.1340  2.2790
  634MOL0     H85531   3.024   6.264   2.121  0.8424 -0.3046 -0.6539
  634MOL0     H85532   3.083   6.319   1.965  1.8484  2.0873 -0.2888
  634MOL0     H85533   3.119   6.541   2.050 -3.3668  0.9027 -0.1500
  634MOL0     H85534   3.054   6.492   2.210  2.0876  0.3187  0.9738
  634MOL0     H85535   3.221   6.311   2.216 -0.1884  0.2875 -1.1763
  634MOL0     H85536   3.299   6.371   2.070 -0.3756 -0.4947 -0.8516
  634MOL0     H85537   3.253   6.533   2.326  0.8320 -0.4027  0.5381
  634MOL0     H85538   3.330   6.600   2.187 -0.8269 -0.4416 -0.5543
  634MOL0     H85539   3.453   6.396   2.387 -2.0249 -1.3607 -1.1636
  634MOL0     H85540   3.492   6.390   2.211 -2.6593 -0.1520 -1.3369
  634MOL0     H85541   3.623   6.624   2.118 -0.7940  0.3148  0.0503
  634MOL0     H85542   3.795   6.842   2.145  0.1258 -0.6390 -0.5635
  634MOL0     H85543   3.791   6.908   2.301  2.3143 -1.5003  3.7906
  634MOL0     H85544   4.027   6.837   2.269  0.9289 -1.9333 -2.3987
  634MOL0     H85545   3.954   6.760   2.395  0.6991 -0.8504  0.1138
  634MOL0     H85546   3.971   6.636   2.111  1.9216 -2.5936 -0.1367
  634MOL0     H85547   3.935   6.556   2.259 -1.8635  2.8998  0.7431
  634MOL0     H85548   4.155   6.504   2.184  2.2771 -0.4931 -0.2667
  634MOL0     H85549   4.177   6.602   2.332  2.8109  5.3846 -1.0650
  634MOL0     H85550   4.402   6.509   2.270  0.4121 -1.1699  0.7552
  634MOL0     H85551   4.606   6.430   2.186  0.3063  1.6427  0.8331
  634MOL0     H85552   4.888   6.300   1.823  0.7200 -1.4111  0.7370
  634MOL0     H85553   5.118   6.279   1.736  0.5919  1.4874 -1.5909
  634MOL0     H85554   5.412   6.570   1.816  0.2489 -0.4967 -1.6933
  634MOL0     H85555   5.449   6.447   1.952  1.0437 -2.7070 -0.7098
  634MOL0     H85556   5.558   6.455   1.665  1.0056 -1.8860 -0.2177
  634MOL0     H85557   5.633   6.491   1.816  0.2117  0.1409 -1.3691
  634MOL0     H85558   5.607   6.268   1.902  1.0812  0.4371  0.8540
  634MOL0     H85559   5.503   6.213   1.768  1.2632  1.0274 -1.7810
  634MOL0     H85560   5.797   6.286   1.726  1.5976 -2.2488 -1.1179
  634MOL0     H85561   5.689   6.231   1.601 -0.4519 -0.1862  0.0334
  634MOL0     H85562   5.651   6.024   1.767 -0.2746 -0.5985 -0.9671
  634MOL0     H85563   5.778   6.091   1.865  0.8420 -2.0485  0.1743
  634MOL0     H85564   5.818   6.003   1.577 -2.1764  1.7621  0.8523
  634MOL0     H85565   5.936   6.102   1.666  0.0175  0.3113 -0.3180
  634MOL0     H85566   5.844   5.825   1.717 -1.1292  1.3642 -2.6867
  634MOL0     H85567   5.918   5.924   1.849  0.5261  0.7794 -0.1568
  634MOL0     H85568   6.067   5.772   1.772 -3.5179  1.1436  1.6185
  634MOL0     H85569   6.087   5.853   1.615  0.2681 -0.5158  1.0213
  634MOL0     H85570   5.267   6.545   2.036 -1.7315 -0.3768  3.1642
  634MOL0     H85571   5.043   6.548   2.139 -2.8396 -1.5192  0.2719
  634MOL0     H85572   4.558   6.712   1.847  0.7875 -0.6489  0.9231
  634MOL0     H85573   4.330   6.774   1.942 -1.1892 -0.8170  1.8501
  634MOL0     H85574   2.465   6.053   1.730 -0.9725 -0.7103 -1.2821
  634MOL0     H85575   2.226   6.075   1.676 -0.5327  0.8133  0.2920
  634MOL0     H85576   1.853   6.353   1.811  0.0139  1.6801  0.5719
  634MOL0     H85577   1.606   6.362   1.784 -0.1927 -0.7353  0.6166
  634MOL0     H85578   1.447   6.430   1.395  1.8167  1.6464  2.8926
  634MOL0     H85579   1.301   6.407   1.487  1.5329  3.6765  2.1454
  634MOL0     H85580   1.483   6.178   1.376 -1.3858 -1.8327 -3.2357
  634MOL0     H85581   1.352   6.259   1.280 -0.5684 -1.1822 -0.6277
  634MOL0     H85582   1.201   6.157   1.423  0.2772 -4.3682 -0.9072
  634MOL0     H85583   1.313   6.138   1.557 -0.4714  0.9556  1.7206
  634MOL0     H85584   1.226   5.944   1.436  0.0421  2.7040  1.7184
  634MOL0     H85585   1.327   5.967   1.294 -2.5454  0.1958  0.0863
  634MOL0     H85586   1.638   5.811   1.509 -1.1915  0.1086  4.2574
  634MOL0     H85587   1.632   6.336   1.360  1.8802 -0.6109 -1.5836
  634MOL0     H85588   1.966   6.227   1.340  0.7632 -0.5227 -0.5178
  634MOL0     H85589   1.840   6.317   1.257  2.5894 -0.4661 -1.0659
  634MOL0     H85590   1.968   6.406   1.324 -1.5763  1.3978 -1.3488
  635MOL0     O85591   6.110   8.551   4.239  0.0094 -0.1068  0.2924
  635MOL0     C85592   6.039   8.521   4.145  0.4447  0.8152 -0.0616
  635MOL0     O85593   6.030   8.580   4.020 -0.2736  0.1963 -0.2150
  635MOL0     C85594   6.127   8.663   3.989 -0.0657  0.6562 -0.0196
  635MOL0     C85595   6.108   8.781   3.924 -0.2192 -0.5167  0.4009
  635MOL0     C85596   6.207   8.868   3.873  0.4330  0.5054 -0.0651
  635MOL0     C85597   6.344   8.828   3.899  0.0385 -0.4515 -0.0657
  635MOL0     O85598   6.453   8.913   3.881 -0.0748  1.3011  0.1644
  635MOL0     C85599   6.429   9.048   3.855  0.4497  1.0623  0.5141
  635MOL0     C85600   6.380   9.129   3.974 -0.0276 -0.7905  0.0763
  635MOL0     C85601   6.461   9.107   4.103  0.7753 -0.4345 -0.0602
  635MOL0     C85602   6.605   9.159   4.089  1.3479  0.3983 -0.3246
  635MOL0     C85603   6.680   9.145   4.218  0.1780  0.4599  0.8623
  635MOL0     C85604   6.828   9.165   4.191 -0.2267 -0.2030  0.7010
  635MOL0     C85605   6.863   9.311   4.154 -0.0441  0.2200 -0.2380
  635MOL0     C85606   7.018   9.322   4.131 -0.5859  0.1289  0.4518
  635MOL0     N85607   7.089   9.320   4.262  0.3676  0.0431  0.2599
  635MOL0     C85608   7.130   9.219   4.334  0.7261 -0.1425 -0.8933
  635MOL0     C85609   7.208   9.265   4.432  0.1069 -0.0242  0.0628
  635MOL0     C85610   7.299   9.195   4.530  0.0897  0.9323 -0.0964
  635MOL0     C85611   7.412   9.143   4.451 -0.8945 -0.5184 -0.2930
  635MOL0     C85612   7.492   9.044   4.533 -0.0943 -0.1068  0.2360
  635MOL0     C85613   7.625   9.008   4.487  0.1229  0.7348 -0.1641
  635MOL0     O85614   7.702   9.122   4.447  0.5389  0.1393  0.8718
  635MOL0     C85615   7.839   9.092   4.456 -0.2415  0.0273  0.1853
  635MOL0     C85616   7.890   8.971   4.406 -0.2751  0.3655  0.0975
  635MOL0     C85617   8.024   8.932   4.429 -0.2503  0.5312  0.7596
  635MOL0     C85618   8.113   9.027   4.482  0.1493  0.2645 -0.3886
  635MOL0     C85619   8.264   8.996   4.502 -1.0694  0.3876 -0.3545
  635MOL0     O85620   8.350   9.101   4.495 -0.1586  0.3856 -0.1352
  635MOL0     C85621   8.481   9.093   4.541  0.0897  0.7751  0.7532
  635MOL0     C85622   8.539   9.211   4.577 -0.4737  0.0010  0.2180
  635MOL0     C85623   8.671   9.207   4.612 -1.4608 -0.8914  0.5361
  635MOL0     C85624   8.749   9.094   4.611 -0.4592 -0.6184  0.1078
  635MOL0     O85625   8.879   9.114   4.639 -0.6015  0.6127 -0.5250
  635MOL0     C85626   8.966   9.008   4.603 -0.1692 -0.6685 -0.4138
  635MOL0     C85627   9.112   9.058   4.618 -0.4195 -0.7844 -0.4703
  635MOL0     C85628   9.161   9.097   4.755  0.0376 -0.0226 -0.2829
  635MOL0     C85629   9.173   8.976   4.846  0.5904  0.5544  0.4101
  635MOL0     C85630   9.321   8.940   4.872 -0.5509 -0.8273  0.1951
  635MOL0     C85631   9.406   9.025   4.973 -0.3114  0.1146  0.3085
  635MOL0     C85632   9.526   8.947   5.022  0.7670 -0.5443  0.0853
  635MOL0     C85633   9.620   8.892   4.905 -0.2958  0.2702 -0.6627
  635MOL0    Cl85634   9.645   9.014   4.786  0.4216  0.2156  0.6207
  635MOL0     C85635   8.691   8.976   4.563 -0.3095 -0.1690  0.0297
  635MOL0     C85636   8.559   8.980   4.521 -0.0856  0.1705 -0.3097
  635MOL0     O85637   8.287   8.880   4.543  0.0112 -0.2968 -0.1682
  635MOL0     C85638   8.055   9.140   4.543 -0.4584  0.6029 -0.6614
  635MOL0     C85639   7.920   9.179   4.528 -0.4685  0.6776  0.4277
  635MOL0     N85640   7.202   9.401   4.424  1.1385  0.8811 -0.4310
  635MOL0     N85641   7.133   9.432   4.329  0.2712 -0.7302  0.3451
  635MOL0     C85642   6.368   8.712   3.959  0.2750  0.3483  0.1126
  635MOL0     C85643   6.261   8.625   4.004  1.1330 -0.0379  0.6181
  635MOL0     C85644   5.932   8.418   4.166 -0.3247  0.5563  0.6348
  635MOL0     C85645   5.827   8.408   4.067 -0.1612 -0.0818  0.1941
  635MOL0     C85646   5.726   8.320   4.079 -0.2043  0.3635 -0.9887
  635MOL0     C85647   5.703   8.250   4.208  0.2097 -0.0009  0.7473
  635MOL0     O85648   5.597   8.162   4.231  0.4481 -0.5864 -0.1557
  635MOL0     C85649   5.510   8.196   4.337 -0.2202  0.5930  0.4502
  635MOL0     C85650   5.368   8.213   4.283  0.3463  0.1655  0.0812
  635MOL0     C85651   5.295   8.083   4.242 -0.2921  0.6530 -0.2620
  635MOL0     C85652   5.149   8.105   4.235  0.4607  0.8782  0.2774
  635MOL0     C85653   5.069   7.984   4.196  0.0516  0.4289  0.5787
  635MOL0     C85654   5.000   7.903   4.146 -0.4747  0.2104  0.5853
  635MOL0     C85655   5.800   8.260   4.299  0.8144 -0.3448  0.0035
  635MOL0     C85656   5.911   8.345   4.285  0.1354 -0.4814 -0.1733
  635MOL0     C85657   5.989   8.360   4.425  0.2429  0.0757  1.1597
  635MOL0     H85658   6.004   8.806   3.909 -0.5172 -0.9071  1.7016
  635MOL0     H85659   6.182   8.958   3.818  0.0028 -0.9697 -2.4033
  635MOL0     H85660   6.528   9.084   3.825  1.0927 -1.8918 -1.2939
  635MOL0     H85661   6.358   9.071   3.774  0.7646 -0.9459 -0.3922
  635MOL0     H85662   6.276   9.099   3.987  0.3650 -2.1958  0.1976
  635MOL0     H85663   6.384   9.237   3.956  0.1166 -0.8018  0.0377
  635MOL0     H85664   6.459   8.999   4.121 -1.9076 -0.4400 -0.0730
  635MOL0     H85665   6.413   9.149   4.192 -1.1473 -1.2447 -0.6735
  635MOL0     H85666   6.654   9.103   4.008 -0.9538  1.0013 -2.2476
  635MOL0     H85667   6.608   9.264   4.061  2.5652  1.4729  3.2636
  635MOL0     H85668   6.641   9.219   4.288  1.5493  3.0821 -0.9455
  635MOL0     H85669   6.667   9.043   4.257 -1.4723 -1.1726 -3.3775
  635MOL0     H85670   6.888   9.123   4.273  1.8580 -2.4534 -1.7786
  635MOL0     H85671   6.854   9.105   4.104 -1.1452  0.4095 -0.0048
  635MOL0     H85672   6.816   9.382   4.223  1.1995  0.2795  0.5672
  635MOL0     H85673   6.809   9.338   4.062  0.0223 -0.1115 -0.3751
  635MOL0     H85674   7.051   9.238   4.070  0.1457  0.8895 -0.2278
  635MOL0     H85675   7.036   9.414   4.075  1.5496  0.5686  1.7450
  635MOL0     H85676   7.128   9.111   4.323  0.5044 -0.6541  2.8153
  635MOL0     H85677   7.340   9.260   4.607 -2.7748  1.3565  1.1986
  635MOL0     H85678   7.231   9.119   4.572  0.5578 -0.2139 -1.3148
  635MOL0     H85679   7.384   9.102   4.354  1.7447  0.3931 -1.5057
  635MOL0     H85680   7.470   9.233   4.431 -2.0496  1.0905  2.8737
  635MOL0     H85681   7.439   8.950   4.552  1.6048 -1.0881  0.3512
  635MOL0     H85682   7.501   9.091   4.631 -0.7936  1.2987 -0.3471
  635MOL0     H85683   7.612   8.931   4.410  1.6397  1.1889 -0.9255
  635MOL0     H85684   7.681   8.964   4.571  0.9756  1.7061 -0.2040
  635MOL0     H85685   7.833   8.904   4.343 -1.0359  0.3914  0.7420
  635MOL0     H85686   8.060   8.834   4.399  0.0687  0.5055  1.2160
  635MOL0     H85687   8.484   9.304   4.562 -0.6302 -0.4449 -2.3385
  635MOL0     H85688   8.709   9.304   4.643 -2.9866 -0.1545  0.1810
  635MOL0     H85689   8.959   8.915   4.661  0.9004 -0.3674  0.2256
  635MOL0     H85690   8.951   8.988   4.497 -0.6094 -1.6883 -0.1676
  635MOL0     H85691   9.181   8.984   4.577  0.7798  0.4385 -0.7158
  635MOL0     H85692   9.112   9.152   4.561 -2.7420  0.1378  0.8752
  635MOL0     H85693   9.261   9.140   4.747  0.0623 -0.2149 -1.0110
  635MOL0     H85694   9.087   9.171   4.787  1.3123  2.4815 -2.7845
  635MOL0     H85695   9.140   8.881   4.803  0.9028 -0.1741  1.7139
  635MOL0     H85696   9.112   8.979   4.937 -3.4928 -1.1267 -2.0201
  635MOL0     H85697   9.375   8.919   4.779  1.7957  0.2695  1.2430
  635MOL0     H85698   9.312   8.844   4.925  3.3854 -0.6422  1.5095
  635MOL0     H85699   9.437   9.119   4.927 -0.5658 -0.4121 -0.9678
  635MOL0     H85700   9.349   9.047   5.064  0.4527 -1.9255  1.3592
  635MOL0     H85701   9.492   8.862   5.082  4.3406 -2.6948 -0.6976
  635MOL0     H85702   9.574   9.014   5.093 -0.4363 -1.0014  1.3883
  635MOL0     H85703   9.719   8.872   4.947 -0.5170  0.3727 -0.0878
  635MOL0     H85704   9.571   8.807   4.858  0.2814 -0.1094 -0.5880
  635MOL0     H85705   8.745   8.884   4.544 -0.5395 -0.3813  0.3730
  635MOL0     H85706   8.519   8.884   4.492 -2.9032  1.8008 -2.3646
  635MOL0     H85707   8.124   9.196   4.605 -0.6566 -2.1174  2.2712
  635MOL0     H85708   7.878   9.269   4.572 -1.5098  0.5474 -0.3012
  635MOL0     H85709   6.470   8.674   3.967  0.3556  0.4477 -0.4440
  635MOL0     H85710   6.284   8.535   4.059 -2.6443 -1.5827  0.0060
  635MOL0     H85711   5.841   8.453   3.969  0.2030  0.7853  0.6398
  635MOL0     H85712   5.650   8.293   4.007 -0.7937 -0.1406 -0.1920
  635MOL0     H85713   5.532   8.292   4.385 -2.3139  0.9910  0.7168
  635MOL0     H85714   5.518   8.117   4.413 -0.3833  0.6396  0.5179
  635MOL0     H85715   5.378   8.281   4.198  0.9171  0.7877  0.6376
  635MOL0     H85716   5.304   8.260   4.358 -0.0934  1.0802 -0.8467
  635MOL0     H85717   5.317   8.008   4.318 -0.5170  0.0364 -0.8024
  635MOL0     H85718   5.338   8.044   4.150 -0.2652 -3.8764  1.4348
  635MOL0     H85719   5.117   8.143   4.332 -1.6293  0.1741 -0.0805
  635MOL0     H85720   5.124   8.184   4.164  0.0670  1.5016  1.1041
  635MOL0     H85721   4.959   7.819   4.092 -0.5163  0.1283  0.7442
  635MOL0     H85722   5.794   8.206   4.393  0.9516 -0.4652 -0.0564
  635MOL0     H85723   5.983   8.268   4.483  0.4674 -1.4143 -1.0876
  635MOL0     H85724   6.095   8.386   4.411  0.6913 -2.5289 -0.9912
  635MOL0     H85725   5.942   8.443   4.478 -0.5480  0.3810  0.0061
  636MOL0     O85726  10.704  10.160  10.379  0.5347  0.3809 -0.0667
  636MOL0     C85727  10.668  10.106  10.480 -0.0316  0.3038  0.9901
  636MOL0     O85728  10.743  10.078  10.583  0.2759 -0.0934 -0.4292
  636MOL0     C85729  10.866  10.136  10.597 -0.6157 -0.3908  0.8532
  636MOL0     C85730  10.975  10.112  10.509  0.1098  0.3113 -0.0923
  636MOL0     C85731  11.094  10.181  10.529 -0.1213 -0.4201 -1.1092
  636MOL0     C85732  11.113  10.265  10.639  0.7958 -0.2206 -0.0206
  636MOL0     O85733  11.225  10.332  10.668  0.2730  0.1070  0.5427
  636MOL0     C85734  11.296  10.390  10.560 -0.2317  0.5504  0.5570
  636MOL0     C85735  11.420  10.295  10.553  0.2892 -0.4260 -0.0814
  636MOL0     C85736  11.521  10.339  10.668 -0.7579 -0.2993  1.0677
  636MOL0     C85737  11.660  10.293  10.653 -0.9943  0.2030 -0.0726
  636MOL0     C85738  11.755  10.359  10.761  1.3675  0.0458 -0.6525
  636MOL0     C85739  11.898  10.321  10.739 -0.3386 -0.4114 -0.0637
  636MOL0     C85740  11.999  10.383  10.838 -0.9891 -0.6919  0.0951
  636MOL0     C85741  11.993  10.314  10.977 -0.8064  0.4813 -0.5828
  636MOL0     N85742  12.087  10.372  11.077 -0.4191  0.2974 -0.5056
  636MOL0     C85743  12.172  10.305  11.158  0.5737 -1.3618 -0.2259
  636MOL0     C85744  12.207  10.383  11.260 -0.0056  0.1624  0.3111
  636MOL0     C85745  12.290  10.345  11.378  1.0533 -0.0636 -0.8742
  636MOL0     C85746  12.435  10.316  11.339 -0.0858 -0.1752 -0.0357
  636MOL0     C85747  12.509  10.457  11.324  0.0917  0.7096  0.4501
  636MOL0     C85748  12.649  10.436  11.272  0.4355 -0.6786  1.0651
  636MOL0     O85749  12.723  10.364  11.368  0.0149 -0.7032  0.0424
  636MOL0     C85750  12.853  10.334  11.338  0.1085  0.0259 -0.6564
  636MOL0     C85751  12.921  10.378  11.220 -0.6157 -0.0156  0.7617
  636MOL0     C85752  13.054  10.322  11.193  0.0189  0.4545 -0.2212
  636MOL0     C85753  13.114  10.239  11.280 -0.2031 -0.0910 -0.5621
  636MOL0     C85754  13.256  10.202  11.251  1.1825 -0.8246  0.6042
  636MOL0     O85755  13.306  10.233  11.127  0.2995  0.7277 -0.0686
  636MOL0     C85756  13.395  10.150  11.068 -0.1397  0.1366  0.1809
  636MOL0     C85757  13.403  10.019  11.086 -0.3696 -0.2023 -0.2807
  636MOL0     C85758  13.483   9.928  11.008  0.4550  0.0824 -0.3457
  636MOL0     C85759  13.556   9.982  10.902 -0.3325  0.2579 -0.1535
  636MOL0     O85760  13.642   9.900  10.836 -0.1137  0.3703  0.1622
  636MOL0     C85761  13.704   9.948  10.715 -0.9545 -0.0710  0.6538
  636MOL0     C85762  13.769   9.831  10.643 -0.4638 -0.3100  0.8083
  636MOL0     C85763  13.831   9.889  10.513 -0.0961  0.1327  0.5659
  636MOL0     C85764  13.892   9.769  10.431 -0.2302  1.0105 -1.2524
  636MOL0     C85765  13.897   9.810  10.282 -0.5802  0.7365  0.4165
  636MOL0     C85766  13.933   9.687  10.201  0.7463 -0.9111  0.3044
  636MOL0     C85767  13.942   9.731  10.061 -0.5725 -0.2436 -0.0665
  636MOL0     C85768  14.011   9.620   9.987  0.4489 -0.7568  0.1321
  636MOL0    Cl85769  14.031   9.675   9.815  0.0428 -0.0247 -0.1511
  636MOL0     C85770  13.546  10.125  10.881 -0.7531 -0.4840 -0.3942
  636MOL0     C85771  13.467  10.208  10.969 -1.2179  0.1160 -0.0282
  636MOL0     O85772  13.308  10.139  11.339 -0.0125  0.1237  0.4849
  636MOL0     C85773  13.052  10.201  11.401  0.2201 -0.3089 -0.0214
  636MOL0     C85774  12.923  10.244  11.426 -0.0820 -0.3250 -0.6563
  636MOL0     N85775  12.142  10.507  11.233  0.1733  1.0779 -0.5305
  636MOL0     N85776  12.070  10.496  11.126 -0.7247 -0.1272  0.8915
  636MOL0     C85777  11.014  10.260  10.741 -0.0451 -0.2233  0.6990
  636MOL0     C85778  10.889  10.202  10.714  0.5207  0.5165  0.8402
  636MOL0     C85779  10.522  10.062  10.489  0.7368 -0.0045 -0.7736
  636MOL0     C85780  10.478   9.993  10.607 -0.5611  0.4620  0.5878
  636MOL0     C85781  10.339   9.962  10.628  0.3600 -0.1120  0.4438
  636MOL0     C85782  10.249   9.985  10.525 -0.7635  0.0961  0.7600
  636MOL0     O85783  10.121   9.957  10.537  0.2308 -0.1950  0.1377
  636MOL0     C85784  10.056  10.061  10.615 -0.7972  0.5008  0.6930
  636MOL0     C85785   9.935  10.021  10.697 -0.2733  0.6134 -0.2611
  636MOL0     C85786   9.853  10.143  10.725 -0.3306 -0.3536 -0.3236
  636MOL0     C85787   9.741  10.115  10.823 -0.2847  0.3580  0.6707
  636MOL0     C85788   9.685  10.245  10.848 -0.1302 -0.3567  0.2611
  636MOL0     C85789   9.634  10.355  10.862  0.3148  0.0102 -0.3855
  636MOL0     C85790  10.284  10.053  10.411 -0.8289  0.9335 -0.0291
  636MOL0     C85791  10.423  10.089  10.395  0.3380 -1.0419 -0.1246
  636MOL0     C85792  10.457  10.149  10.261 -0.5588 -0.9963 -0.4130
  636MOL0     H85793  10.965  10.047  10.423  1.8433  0.0814 -0.1496
  636MOL0     H85794  11.167  10.174  10.449 -0.1067 -1.0317 -1.0441
  636MOL0     H85795  11.238  10.391  10.467 -0.7142  0.6237  0.8571
  636MOL0     H85796  11.325  10.493  10.583  0.1231  0.5513  0.1174
  636MOL0     H85797  11.471  10.313  10.458 -1.0569 -1.3695 -1.0052
  636MOL0     H85798  11.400  10.188  10.553 -1.0055 -0.2907 -3.2764
  636MOL0     H85799  11.476  10.300  10.760  0.9431 -1.8517  1.3030
  636MOL0     H85800  11.517  10.448  10.676 -0.2914 -0.1426 -0.4946
  636MOL0     H85801  11.669  10.184  10.654  0.3665  0.2804  1.3051
  636MOL0     H85802  11.693  10.337  10.559  0.0733 -1.3056 -0.4331
  636MOL0     H85803  11.739  10.466  10.746 -0.6502 -0.1272 -0.0670
  636MOL0     H85804  11.730  10.328  10.863  1.6441  2.2904  0.1491
  636MOL0     H85805  11.906  10.212  10.738 -0.8969 -0.4542 -1.0734
  636MOL0     H85806  11.926  10.349  10.637 -0.6639  1.3074  0.2899
  636MOL0     H85807  11.990  10.491  10.856 -1.7663 -1.3343  4.6190
  636MOL0     H85808  12.095  10.369  10.788 -0.9134  0.3570 -0.0871
  636MOL0     H85809  11.890  10.335  11.006  0.2793  3.1795  1.8051
  636MOL0     H85810  12.018  10.210  10.956  0.1849  1.2970 -4.2127
  636MOL0     H85811  12.209  10.206  11.133  2.0640 -0.7200 -0.7328
  636MOL0     H85812  12.286  10.422  11.456  2.8299 -0.9998  0.2062
  636MOL0     H85813  12.249  10.257  11.429  3.4114 -1.2017 -0.8260
  636MOL0     H85814  12.481  10.260  11.421 -0.0774  0.6909  0.5594
  636MOL0     H85815  12.430  10.256  11.247 -3.1799 -0.9685  0.5154
  636MOL0     H85816  12.511  10.521  11.413 -0.8092  1.1021  0.2004
  636MOL0     H85817  12.443  10.511  11.256 -1.6021 -0.6657  0.9083
  636MOL0     H85818  12.682  10.539  11.262 -4.7113  1.0552 -1.8490
  636MOL0     H85819  12.649  10.390  11.173 -1.4196 -0.4718  0.9188
  636MOL0     H85820  12.876  10.442  11.145 -0.0209  1.0358  1.2730
  636MOL0     H85821  13.091  10.369  11.103  0.3513 -1.1386 -0.9487
  636MOL0     H85822  13.339   9.982  11.165 -1.6315  3.2445  0.4684
  636MOL0     H85823  13.489   9.823  11.033  1.2915 -0.0426 -1.0223
  636MOL0     H85824  13.619   9.984  10.655  1.0758  2.5274 -0.8841
  636MOL0     H85825  13.773  10.028  10.744  1.9334 -2.8058  1.9496
  636MOL0     H85826  13.845   9.777  10.701 -1.3854 -0.3114  2.0684
  636MOL0     H85827  13.698   9.749  10.628 -1.1113  0.5494 -1.0756
  636MOL0     H85828  13.750   9.922  10.447  0.1173 -2.2810 -0.9835
  636MOL0     H85829  13.903   9.968  10.536 -1.3739  1.7990 -0.8461
  636MOL0     H85830  13.833   9.678  10.442 -0.6450  1.3654 -0.4361
  636MOL0     H85831  13.990   9.745  10.472 -0.6354  1.6912  0.1939
  636MOL0     H85832  13.964   9.895  10.266  0.9113 -0.0349  2.1441
  636MOL0     H85833  13.799   9.841  10.245  0.1425  1.0870 -1.2701
  636MOL0     H85834  14.022   9.638  10.243  2.0246  1.5713  0.6771
  636MOL0     H85835  13.840   9.629  10.199 -1.6299  2.6063 -0.6623
  636MOL0     H85836  13.996   9.826  10.055  3.0924 -2.2042 -1.1980
  636MOL0     H85837  13.845   9.746  10.013  1.2678  1.8601 -3.5748
  636MOL0     H85838  14.108   9.590  10.026  1.1310 -0.5044 -1.3019
  636MOL0     H85839  13.948   9.530   9.984 -0.0377 -0.5167  1.9264
  636MOL0     H85840  13.617  10.158  10.806 -0.6996  0.1969 -0.0546
  636MOL0     H85841  13.452  10.314  10.952  4.2137  1.2046  0.0241
  636MOL0     H85842  13.110  10.143  11.473  0.3895  1.8106  1.6513
  636MOL0     H85843  12.873  10.211  11.517  1.7242 -2.3097 -0.2885
  636MOL0     H85844  11.031  10.306  10.838 -1.2608 -2.0097  1.8280
  636MOL0     H85845  10.815  10.214  10.793 -1.5528  0.6644 -1.0333
  636MOL0     H85846  10.540   9.977  10.695 -1.6468  0.0498  1.3050
  636MOL0     H85847  10.314   9.908  10.718  0.0344  1.5559  1.3948
  636MOL0     H85848  10.024  10.136  10.542  0.8806  2.2765  1.6831
  636MOL0     H85849  10.127  10.118  10.676  0.8369  0.1957 -0.8240
  636MOL0     H85850   9.973   9.989  10.795  1.7097  1.5454 -0.6801
  636MOL0     H85851   9.877   9.937  10.659 -1.6784  1.3063  0.2771
  636MOL0     H85852   9.809  10.174  10.630 -2.5325  0.8770  1.0115
  636MOL0     H85853   9.920  10.220  10.763  0.2047 -1.5590  1.2591
  636MOL0     H85854   9.675  10.044  10.772 -0.4754  0.9448  0.0966
  636MOL0     H85855   9.772  10.075  10.920 -3.6997 -0.2724  1.6333
  636MOL0     H85856   9.574  10.443  10.876 -0.1751 -0.4592  0.5659
  636MOL0     H85857  10.214  10.063  10.329 -1.4685  0.7200  0.4830
  636MOL0     H85858  10.495  10.250  10.276  3.8517 -2.4771  0.0127
  636MOL0     H85859  10.537  10.090  10.216 -0.0746  0.1181 -1.0330
  636MOL0     H85860  10.374  10.164  10.191 -0.2995 -0.7930 -0.6768
  637MOL0     O85861   0.123   9.173   0.071 -0.2776 -0.2930 -0.0025
  637MOL0     C85862   0.146   9.289   0.046  0.1374 -0.2054  0.1716
  637MOL0     O85863   0.235   9.327  -0.050 -0.2048  0.1491 -0.2066
  637MOL0     C85864   0.294   9.231  -0.130 -0.5157  1.3196 -1.0587
  637MOL0     C85865   0.277   9.255  -0.264 -0.1613 -0.1837  0.2755
  637MOL0     C85866   0.327   9.160  -0.359  0.3999 -0.0458 -0.3168
  637MOL0     C85867   0.386   9.036  -0.309  0.3612 -1.1194 -1.1944
  637MOL0     O85868   0.446   8.947  -0.394  0.2095 -0.4091 -0.2785
  637MOL0     C85869   0.407   8.812  -0.369 -0.7135  0.1313  0.2204
  637MOL0     C85870   0.478   8.714  -0.464  0.3408  0.8675  0.1758
  637MOL0     C85871   0.629   8.728  -0.463  0.3598 -0.1007 -0.1356
  637MOL0     C85872   0.680   8.638  -0.582  0.2182 -0.0829  0.6561
  637MOL0     C85873   0.837   8.648  -0.609 -0.6423 -0.8297 -0.7973
  637MOL0     C85874   0.881   8.792  -0.649 -0.8323  0.4351 -0.0432
  637MOL0     C85875   1.034   8.814  -0.684  0.3856  0.1915 -0.2101
  637MOL0     C85876   1.104   8.706  -0.770 -0.5007  0.3885  0.0491
  637MOL0     N85877   1.225   8.763  -0.824  0.7429 -0.0577 -0.1170
  637MOL0     C85878   1.233   8.859  -0.924  0.2999  0.4679  0.4951
  637MOL0     C85879   1.368   8.872  -0.953  0.6569  0.5103 -0.4877
  637MOL0     C85880   1.428   8.962  -1.059  0.1407  0.6619 -0.2442
  637MOL0     C85881   1.469   8.868  -1.177 -0.0927 -0.1472 -1.3136
  637MOL0     C85882   1.355   8.834  -1.274  1.3990  0.1971  0.8604
  637MOL0     C85883   1.343   8.946  -1.385 -0.5371 -0.3019  0.8574
  637MOL0     O85884   1.436   8.919  -1.503  0.5877 -0.0560 -0.3170
  637MOL0     C85885   1.567   8.956  -1.499  0.2140 -0.9358 -0.0533
  637MOL0     C85886   1.615   9.059  -1.418 -0.1231 -0.1594  0.1268
  637MOL0     C85887   1.744   9.112  -1.426  0.4502 -0.3133 -1.0139
  637MOL0     C85888   1.833   9.054  -1.522  0.5545  0.9076  0.0401
  637MOL0     C85889   1.971   9.102  -1.549 -0.0502 -1.0502  0.2975
  637MOL0     O85890   2.055   9.024  -1.628  0.6416  0.2145 -0.5530
  637MOL0     C85891   2.176   9.074  -1.662  0.7100  0.3147  0.7613
  637MOL0     C85892   2.208   9.073  -1.798 -0.1884  0.0876 -0.0348
  637MOL0     C85893   2.332   9.124  -1.835 -0.6136  0.0501  0.6441
  637MOL0     C85894   2.434   9.161  -1.753 -0.6104 -0.1698  0.1373
  637MOL0     O85895   2.559   9.189  -1.807 -0.0557 -0.6663 -0.5109
  637MOL0     C85896   2.682   9.169  -1.725 -0.2991  0.6245 -0.5301
  637MOL0     C85897   2.698   9.019  -1.690  0.1504  0.6878 -0.1733
  637MOL0     C85898   2.851   8.981  -1.683 -0.6700 -0.0406 -0.4638
  637MOL0     C85899   2.931   9.045  -1.575  0.1248 -0.3030  0.5803
  637MOL0     C85900   3.073   8.987  -1.580 -0.1801  0.0536 -1.3603
  637MOL0     C85901   3.139   9.035  -1.452 -0.6057 -0.6968 -0.5533
  637MOL0     C85902   3.286   9.017  -1.450 -0.1459  0.1677 -0.7437
  637MOL0     C85903   3.327   8.878  -1.490  0.3386  0.5016  0.2551
  637MOL0    Cl85904   3.502   8.861  -1.479  0.0934  0.2292 -0.2311
  637MOL0     C85905   2.401   9.168  -1.614 -0.4080 -0.2618  0.0290
  637MOL0     C85906   2.278   9.119  -1.570 -0.5387  0.1428  0.0136
  637MOL0     O85907   2.002   9.207  -1.496  0.6679  0.1770 -0.0642
  637MOL0     C85908   1.792   8.940  -1.599  1.0691 -0.4734 -0.4757
  637MOL0     C85909   1.659   8.891  -1.583  0.2943 -0.0138  0.0623
  637MOL0     N85910   1.442   8.782  -0.872  0.4371 -0.8861 -0.3402
  637MOL0     N85911   1.353   8.717  -0.802  0.4406 -0.2451 -0.1240
  637MOL0     C85912   0.404   9.024  -0.170 -0.1614  0.7246  0.0430
  637MOL0     C85913   0.358   9.117  -0.083  0.5948  0.2754 -0.2679
  637MOL0     C85914   0.065   9.386   0.131 -0.0216 -0.8803 -0.5877
  637MOL0     C85915  -0.022   9.342   0.228  0.0424  0.4882  0.3285
  637MOL0     C85916  -0.100   9.420   0.307  0.1728  0.8183 -0.3757
  637MOL0     C85917  -0.088   9.557   0.295 -0.0529 -0.2195 -0.1291
  637MOL0     O85918  -0.150   9.650   0.370  0.0720  0.1822 -0.2056
  637MOL0     C85919  -0.090   9.662   0.497  0.0426 -0.3980 -0.1338
  637MOL0     C85920  -0.099   9.803   0.552  0.8317 -0.4544 -0.3747
  637MOL0     C85921  -0.240   9.837   0.604 -0.7004 -0.1771 -0.3210
  637MOL0     C85922  -0.254   9.978   0.671  0.7084 -1.3814 -0.5820
  637MOL0     C85923  -0.212  10.100   0.586  0.4170  0.2906 -1.0690
  637MOL0     C85924  -0.160  10.185   0.521 -0.7347  0.5155 -0.6400
  637MOL0     C85925  -0.003   9.612   0.208  0.2267 -0.2413 -0.6658
  637MOL0     C85926   0.074   9.532   0.124 -0.0615  0.8272  0.1718
  637MOL0     C85927   0.181   9.598   0.039 -0.6864 -0.2423  0.1256
  637MOL0     H85928   0.215   9.339  -0.295 -0.5533  0.2992  2.2631
  637MOL0     H85929   0.312   9.175  -0.465 -0.4178 -0.6284 -0.2920
  637MOL0     H85930   0.426   8.776  -0.267  3.0233 -1.1619 -0.7498
  637MOL0     H85931   0.301   8.795  -0.388 -0.2803 -1.3552 -1.1127
  637MOL0     H85932   0.443   8.727  -0.567 -0.3441 -0.6166  0.1926
  637MOL0     H85933   0.452   8.613  -0.433  1.7183  0.7347  0.9213
  637MOL0     H85934   0.684   8.710  -0.370  0.7865  1.8564  0.0467
  637MOL0     H85935   0.655   8.833  -0.484 -1.3132  0.1488 -1.1480
  637MOL0     H85936   0.662   8.535  -0.550 -2.5367  0.1508  0.0807
  637MOL0     H85937   0.624   8.662  -0.673 -1.6230 -0.6948  1.5836
  637MOL0     H85938   0.894   8.623  -0.519 -0.4391  0.3850 -0.5725
  637MOL0     H85939   0.872   8.577  -0.684  2.1606 -0.9340  0.4744
  637MOL0     H85940   0.825   8.810  -0.741 -0.7275  0.2875 -0.1371
  637MOL0     H85941   0.854   8.863  -0.570 -0.2265 -3.8990  4.5537
  637MOL0     H85942   1.093   8.830  -0.593 -4.0074 -1.1894  3.2713
  637MOL0     H85943   1.049   8.904  -0.743  4.4798  0.4538  0.9476
  637MOL0     H85944   1.137   8.620  -0.711 -0.9329  0.0769 -0.1617
  637MOL0     H85945   1.028   8.686  -0.846 -1.8512  0.3655  1.3679
  637MOL0     H85946   1.150   8.907  -0.974 -1.3283 -0.6637  1.9965
  637MOL0     H85947   1.361   9.045  -1.084 -1.0198 -0.0760  0.3445
  637MOL0     H85948   1.520   9.007  -1.021  0.8047 -2.6950  2.6662
  637MOL0     H85949   1.550   8.928  -1.219 -0.2101  1.5543  0.6960
  637MOL0     H85950   1.514   8.775  -1.142  0.5421  0.9777  1.1044
  637MOL0     H85951   1.263   8.820  -1.216 -0.2070  0.1045 -1.5496
  637MOL0     H85952   1.373   8.736  -1.319 -0.6932 -0.2079  0.8213
  637MOL0     H85953   1.350   9.045  -1.340  0.0478  0.8566 -1.6332
  637MOL0     H85954   1.240   8.954  -1.423 -0.0544  4.1570  0.0301
  637MOL0     H85955   1.553   9.119  -1.353  0.8866  0.1904  0.7926
  637MOL0     H85956   1.776   9.196  -1.366 -3.6618 -0.2477  1.4949
  637MOL0     H85957   2.127   9.050  -1.867 -0.5568  0.6347  0.2069
  637MOL0     H85958   2.352   9.113  -1.941 -0.7913 -2.9900  0.8283
  637MOL0     H85959   2.760   9.188  -1.800 -0.8678  0.1942 -1.2451
  637MOL0     H85960   2.699   9.232  -1.637  0.5785  2.6696 -2.0761
  637MOL0     H85961   2.649   8.994  -1.595 -0.2005  1.0374 -0.2553
  637MOL0     H85962   2.642   8.964  -1.766  0.5269 -1.4967  1.0354
  637MOL0     H85963   2.858   8.873  -1.663 -3.8218 -0.1933  0.3435
  637MOL0     H85964   2.895   9.001  -1.781  0.3518  2.5410  0.4517
  637MOL0     H85965   2.888   9.021  -1.478  1.7131 -1.9074  0.9234
  637MOL0     H85966   2.935   9.154  -1.582 -0.1270 -0.1715  2.1411
  637MOL0     H85967   3.127   9.019  -1.669  2.8424 -3.6954 -1.1677
  637MOL0     H85968   3.071   8.878  -1.581 -3.0253  0.0088 -0.0203
  637MOL0     H85969   3.115   9.142  -1.450  0.5815 -0.3853 -1.6746
  637MOL0     H85970   3.105   9.005  -1.352  1.9634  0.4076  0.7285
  637MOL0     H85971   3.323   9.044  -1.350 -1.7457 -0.5657  0.0779
  637MOL0     H85972   3.331   9.084  -1.524 -0.0652 -0.6633 -1.4497
  637MOL0     H85973   3.288   8.810  -1.414  2.7111 -0.9228  0.3108
  637MOL0     H85974   3.287   8.853  -1.589 -0.4603 -1.0399  0.9275
  637MOL0     H85975   2.478   9.203  -1.546 -0.4077  1.5547 -0.8357
  637MOL0     H85976   2.251   9.128  -1.465 -0.2730 -2.5246  0.3819
  637MOL0     H85977   1.856   8.899  -1.676  2.5703 -0.6164  0.7979
  637MOL0     H85978   1.617   8.811  -1.643 -0.2575  1.1577 -1.1961
  637MOL0     H85979   0.468   8.946  -0.129 -1.4570 -0.1442  0.4745
  637MOL0     H85980   0.366   9.098   0.023 -1.4077 -1.2043 -0.3145
  637MOL0     H85981  -0.028   9.236   0.252  2.1144  0.7629  2.4827
  637MOL0     H85982  -0.180   9.376   0.365  0.4140  1.2437  0.2913
  637MOL0     H85983   0.019   9.654   0.493  0.4409  3.6316 -0.8951
  637MOL0     H85984  -0.136   9.593   0.569 -2.3708 -1.3772 -2.4301
  637MOL0     H85985  -0.076   9.880   0.477 -2.4590  1.9365  0.8500
  637MOL0     H85986  -0.024   9.821   0.630  2.8411  1.1813 -2.5245
  637MOL0     H85987  -0.268   9.762   0.679  1.1071 -0.7427 -0.1698
  637MOL0     H85988  -0.308   9.829   0.518  0.0330  0.4995 -0.9721
  637MOL0     H85989  -0.362   9.983   0.689  0.9751 -0.9931  1.1431
  637MOL0     H85990  -0.204   9.979   0.768  0.3985  1.1451 -0.3715
  637MOL0     H85991  -0.106  10.266   0.475  2.3892 -2.2700 -2.3373
  637MOL0     H85992   0.011   9.720   0.204 -1.3679  0.0341  0.1349
  637MOL0     H85993   0.275   9.549   0.064  0.0560  0.7731 -0.5730
  637MOL0     H85994   0.165   9.575  -0.067  0.9110 -0.4761 -0.0959
  637MOL0     H85995   0.199   9.703   0.065  1.3965 -0.0067 -1.9705
  638MOL0     O85996   1.755   4.886   2.100  0.2611 -0.3092 -0.6011
  638MOL0     C85997   1.756   5.004   2.063  0.0563 -0.5276  0.0733
  638MOL0     O85998   1.858   5.063   1.985  0.0966 -0.5796 -0.2001
  638MOL0     C85999   1.976   4.992   1.980  0.0148  0.1020 -1.0825
  638MOL0     C86000   1.979   4.877   1.906 -0.8621  0.5658  0.1247
  638MOL0     C86001   2.093   4.797   1.909 -0.3844  0.0528  0.2897
  638MOL0     C86002   2.194   4.821   2.004  0.9332  0.9632  0.3227
  638MOL0     O86003   2.293   4.724   2.011  0.1388  0.1712 -0.1428
  638MOL0     C86004   2.374   4.708   2.132 -0.2296 -0.1923 -0.3439
  638MOL0     C86005   2.448   4.580   2.130  0.2670  0.4633  0.1909
  638MOL0     C86006   2.563   4.586   2.038  0.0725 -0.3939 -0.0301
  638MOL0     C86007   2.676   4.488   2.078 -0.7058  0.7125  1.3964
  638MOL0     C86008   2.779   4.497   1.966 -0.2593  0.1775 -0.2992
  638MOL0     C86009   2.753   4.441   1.832  0.6272  1.0751  0.0790
  638MOL0     C86010   2.883   4.444   1.746 -0.1127 -0.4350  0.8296
  638MOL0     C86011   2.856   4.378   1.608 -0.9689 -0.8777  0.7294
  638MOL0     N86012   2.980   4.358   1.525  0.0231  0.5894  0.0512
  638MOL0     C86013   3.065   4.459   1.477 -0.5275 -0.1310 -0.7395
  638MOL0     C86014   3.171   4.396   1.420  0.7525  0.5858  0.3199
  638MOL0     C86015   3.287   4.468   1.351  0.2117  0.2122 -0.4050
  638MOL0     C86016   3.387   4.383   1.261 -0.0804 -0.0618  0.6395
  638MOL0     C86017   3.490   4.481   1.186 -0.0456  0.7616 -0.5894
  638MOL0     C86018   3.600   4.412   1.111  0.3993  0.4779  0.1067
  638MOL0     O86019   3.703   4.502   1.052 -0.2315  0.2774  0.2748
  638MOL0     C86020   3.822   4.443   1.012 -0.3191  0.3554 -0.3927
  638MOL0     C86021   3.862   4.309   1.024 -0.0849 -0.9986  0.0919
  638MOL0     C86022   3.983   4.258   0.976 -0.2709 -0.3828 -0.9898
  638MOL0     C86023   4.076   4.345   0.910 -0.0443  0.1247 -0.4435
  638MOL0     C86024   4.208   4.289   0.852  0.3182  0.0025  0.2645
  638MOL0     O86025   4.219   4.158   0.834 -0.3332  0.4234 -0.4384
  638MOL0     C86026   4.348   4.125   0.796  0.2822 -0.1245  0.2991
  638MOL0     C86027   4.464   4.147   0.872  0.3945  0.2283  0.1272
  638MOL0     C86028   4.586   4.115   0.822 -0.3451  0.6854  0.9430
  638MOL0     C86029   4.594   4.055   0.694 -0.6843  0.4522 -0.0896
  638MOL0     O86030   4.719   4.026   0.654 -0.1794  0.0160 -0.1052
  638MOL0     C86031   4.764   4.094   0.540  0.6721  0.3186  0.1020
  638MOL0     C86032   4.908   4.143   0.560 -0.2039  0.0885  0.5640
  638MOL0     C86033   4.964   4.203   0.420  0.0636 -0.2992 -0.1792
  638MOL0     C86034   5.117   4.176   0.422 -0.0861  0.8653  0.6144
  638MOL0     C86035   5.203   4.242   0.313  0.6735  0.4838  0.2935
  638MOL0     C86036   5.351   4.212   0.326 -0.0804  0.1811  0.2548
  638MOL0     C86037   5.421   4.249   0.462  0.7434 -1.3277 -0.1252
  638MOL0     C86038   5.566   4.246   0.462 -0.5585  0.1566 -0.3533
  638MOL0    Cl86039   5.631   4.080   0.437 -0.4141  0.1958 -0.0897
  638MOL0     C86040   4.484   4.027   0.615 -0.2218  0.5477 -0.3871
  638MOL0     C86041   4.357   4.062   0.668  0.0015 -0.7667  0.3753
  638MOL0     O86042   4.280   4.378   0.804  0.1408  0.0595 -0.1136
  638MOL0     C86043   4.030   4.472   0.884 -0.8867  0.1511  0.2837
  638MOL0     C86044   3.904   4.519   0.926  0.4536  0.3712  0.8101
  638MOL0     N86045   3.148   4.260   1.437  0.8234 -0.4683  0.4493
  638MOL0     N86046   3.036   4.234   1.504 -0.4907 -0.4680 -0.8011
  638MOL0     C86047   2.188   4.932   2.077 -0.5918 -0.6814 -0.5470
  638MOL0     C86048   2.085   5.025   2.064 -0.2440  0.6481 -0.2561
  638MOL0     C86049   1.617   5.087   2.093 -0.1226  0.1957 -0.3447
  638MOL0     C86050   1.569   5.176   1.998 -0.0489  0.1607 -0.4921
  638MOL0     C86051   1.444   5.243   2.013  0.4299 -0.2103 -0.0069
  638MOL0     C86052   1.362   5.224   2.133 -0.3294 -0.4291 -0.0549
  638MOL0     O86053   1.236   5.279   2.152 -0.0138  0.0377  0.4130
  638MOL0     C86054   1.241   5.399   2.229 -0.6298  0.7175 -0.6579
  638MOL0     C86055   1.112   5.430   2.294 -0.0927 -1.1082 -0.0118
  638MOL0     C86056   1.001   5.470   2.198  0.4030 -1.0144  0.1743
  638MOL0     C86057   0.892   5.372   2.193 -0.5530  0.4198 -0.5058
  638MOL0     C86058   0.789   5.405   2.084 -0.2933 -1.0772 -0.5113
  638MOL0     C86059   0.702   5.413   2.005  0.0309  0.4613 -0.7152
  638MOL0     C86060   1.428   5.147   2.231 -0.4402  0.5986 -0.4332
  638MOL0     C86061   1.552   5.072   2.216  0.9605 -0.7495 -0.3333
  638MOL0     C86062   1.587   4.983   2.332  0.8273 -0.2896 -0.7829
  638MOL0     H86063   1.888   4.851   1.852  0.0664  0.3150 -1.3867
  638MOL0     H86064   2.092   4.703   1.855 -0.7483  0.1585  0.1144
  638MOL0     H86065   2.449   4.782   2.161  1.3760 -2.6545  2.2057
  638MOL0     H86066   2.299   4.714   2.211 -1.9196 -1.4697 -1.7650
  638MOL0     H86067   2.375   4.503   2.108  0.2299  0.5999 -0.1645
  638MOL0     H86068   2.476   4.557   2.234 -0.4044 -2.8951 -0.2593
  638MOL0     H86069   2.602   4.686   2.018  1.2585 -0.9083 -0.3653
  638MOL0     H86070   2.521   4.558   1.941 -0.0315  0.0048 -0.0999
  638MOL0     H86071   2.727   4.517   2.171  0.1337  1.3205  0.7685
  638MOL0     H86072   2.627   4.392   2.094 -0.5839  0.8421  2.7454
  638MOL0     H86073   2.821   4.598   1.964 -1.0610  0.4996 -1.4671
  638MOL0     H86074   2.847   4.431   2.021 -1.1594  2.2263  3.6173
  638MOL0     H86075   2.731   4.335   1.849  0.8881  1.4915  3.7332
  638MOL0     H86076   2.668   4.480   1.776  1.6941  0.2437 -2.2829
  638MOL0     H86077   2.967   4.394   1.794  1.9681 -0.5420 -2.5834
  638MOL0     H86078   2.919   4.546   1.730 -0.0332 -0.5846 -0.0103
  638MOL0     H86079   2.811   4.279   1.620 -2.8451 -0.2810 -0.7887
  638MOL0     H86080   2.776   4.435   1.560  0.7128  2.8662  2.0286
  638MOL0     H86081   3.049   4.566   1.481  0.5056  0.0064  0.4180
  638MOL0     H86082   3.248   4.558   1.303  0.3304 -0.2139 -1.3024
  638MOL0     H86083   3.350   4.505   1.433  1.1875 -0.4960 -0.8264
  638MOL0     H86084   3.439   4.310   1.323 -1.0775 -1.0191  0.3639
  638MOL0     H86085   3.328   4.330   1.186  0.9720 -3.5488  2.0992
  638MOL0     H86086   3.531   4.549   1.261 -0.1187  0.8355 -0.6166
  638MOL0     H86087   3.434   4.547   1.118  1.1250  2.7636  0.2962
  638MOL0     H86088   3.567   4.344   1.032  0.6529 -1.9215  1.9253
  638MOL0     H86089   3.648   4.353   1.191 -1.5605 -1.0500  0.2241
  638MOL0     H86090   3.793   4.241   1.072  0.1269 -2.2739 -1.3252
  638MOL0     H86091   4.021   4.158   0.991 -0.5731 -0.7038 -2.2585
  638MOL0     H86092   4.463   4.188   0.972  2.6780 -0.2709  0.4117
  638MOL0     H86093   4.671   4.135   0.886 -1.1136 -0.4634  2.3711
  638MOL0     H86094   4.758   4.026   0.455  2.1477  1.1353 -0.7012
  638MOL0     H86095   4.698   4.177   0.515 -0.6614 -0.2518  1.5584
  638MOL0     H86096   4.920   4.211   0.644 -3.7656 -0.3229  1.5644
  638MOL0     H86097   4.960   4.050   0.587 -3.8850 -2.6135 -0.8361
  638MOL0     H86098   4.907   4.161   0.337  0.5157 -0.5622 -0.3655
  638MOL0     H86099   4.951   4.312   0.421 -0.9856 -0.3446  3.0317
  638MOL0     H86100   5.142   4.070   0.411  0.2682  1.2092 -2.7827
  638MOL0     H86101   5.148   4.205   0.523 -0.8214 -2.2091  1.8343
  638MOL0     H86102   5.190   4.350   0.323  0.9475  0.6447 -0.9698
  638MOL0     H86103   5.175   4.214   0.211  1.3923  2.0291 -0.3626
  638MOL0     H86104   5.363   4.106   0.302 -1.5167 -0.0638  0.4952
  638MOL0     H86105   5.401   4.263   0.243 -2.1571 -0.3866 -1.4481
  638MOL0     H86106   5.392   4.172   0.534  0.8930 -0.9503  0.3438
  638MOL0     H86107   5.375   4.344   0.491  1.3323 -1.1940  0.4011
  638MOL0     H86108   5.619   4.314   0.395 -0.7458 -0.5631 -1.2479
  638MOL0     H86109   5.598   4.283   0.560  0.2889 -1.6312  0.0991
  638MOL0     H86110   4.481   3.981   0.517 -1.0686 -0.9605  0.3247
  638MOL0     H86111   4.275   4.044   0.600  0.6370  0.0816 -0.6490
  638MOL0     H86112   4.087   4.536   0.817 -3.0023 -0.1433 -1.9771
  638MOL0     H86113   3.868   4.621   0.917 -1.5665 -0.4096 -1.1645
  638MOL0     H86114   2.269   4.949   2.148  0.5997  0.7584 -2.1495
  638MOL0     H86115   2.089   5.113   2.128 -0.6978 -0.6132  1.5588
  638MOL0     H86116   1.613   5.198   1.901 -0.9519  2.2537 -0.4588
  638MOL0     H86117   1.406   5.308   1.935 -1.3704 -0.1211  0.9041
  638MOL0     H86118   1.263   5.489   2.171 -1.6924  1.5391  0.1754
  638MOL0     H86119   1.309   5.388   2.313 -1.1098  1.4546 -0.1570
  638MOL0     H86120   1.123   5.499   2.378 -0.7779  0.2473 -1.0045
  638MOL0     H86121   1.092   5.336   2.346 -0.3010 -0.2496  1.4985
  638MOL0     H86122   1.044   5.491   2.100 -0.3287 -0.1867  0.0108
  638MOL0     H86123   0.967   5.571   2.223 -0.6347 -0.6671 -2.3596
  638MOL0     H86124   0.930   5.272   2.173  2.4980  1.8103 -2.4768
  638MOL0     H86125   0.842   5.373   2.290 -0.7140  2.9681 -0.5364
  638MOL0     H86126   0.616   5.429   1.944  1.0093  1.2434 -1.9338
  638MOL0     H86127   1.373   5.127   2.322 -2.3054  1.5084 -1.2980
  638MOL0     H86128   1.696   4.983   2.334  0.8685  0.8520 -1.6638
  638MOL0     H86129   1.539   5.028   2.419 -1.3431 -1.0145 -1.5350
  638MOL0     H86130   1.533   4.888   2.321  1.4173 -0.7065 -0.1277
  639MOL0     O86131   1.299   4.299   2.664 -0.3660 -0.2874 -0.8553
  639MOL0     C86132   1.310   4.397   2.591  0.6183 -0.0657 -0.4816
  639MOL0     O86133   1.388   4.405   2.485 -0.3091  0.0888  0.5000
  639MOL0     C86134   1.494   4.326   2.462  0.0319  0.0835  1.1522
  639MOL0     C86135   1.584   4.269   2.554 -0.3636 -0.5849  0.3422
  639MOL0     C86136   1.708   4.208   2.512  0.9129 -0.5970 -0.4215
  639MOL0     C86137   1.743   4.214   2.375  0.0079  0.2224  0.1225
  639MOL0     O86138   1.861   4.151   2.332 -0.0405 -0.0180  0.2030
  639MOL0     C86139   1.986   4.215   2.365  0.2057  0.2869 -0.0261
  639MOL0     C86140   2.106   4.147   2.298 -0.5853 -0.0124  0.6320
  639MOL0     C86141   2.150   4.014   2.352 -0.7633  0.2229 -0.9189
  639MOL0     C86142   2.262   3.945   2.272  0.6376 -0.2558 -0.5192
  639MOL0     C86143   2.272   3.796   2.327 -0.1891 -0.4124 -0.5506
  639MOL0     C86144   2.388   3.725   2.248  0.5935  0.2134  0.0136
  639MOL0     C86145   2.414   3.587   2.304  0.3070 -0.2772 -0.4138
  639MOL0     C86146   2.525   3.527   2.222 -0.1792  0.2117  0.4796
  639MOL0     N86147   2.561   3.396   2.273  0.9728  0.2689 -0.0365
  639MOL0     C86148   2.464   3.287   2.284  0.3218 -0.0608 -0.0999
  639MOL0     C86149   2.545   3.187   2.326 -0.1522  0.8253  0.0116
  639MOL0     C86150   2.482   3.048   2.353 -0.5878 -0.8541 -0.8735
  639MOL0     C86151   2.494   2.955   2.231 -0.0710  0.7322  0.3209
  639MOL0     C86152   2.639   2.922   2.188  0.1435 -0.2674  0.4760
  639MOL0     C86153   2.719   2.839   2.288  0.1035 -0.6382  0.1015
  639MOL0     O86154   2.855   2.815   2.236  0.3262  0.2609 -0.5611
  639MOL0     C86155   2.961   2.898   2.264 -0.2520  0.0449 -0.2709
  639MOL0     C86156   3.083   2.845   2.255 -0.0162 -0.5753  0.5924
  639MOL0     C86157   3.198   2.915   2.284 -0.1138  0.5188  0.0382
  639MOL0     C86158   3.195   3.053   2.306  0.3950 -0.6682 -0.6615
  639MOL0     C86159   3.320   3.130   2.321 -0.4444 -0.4679 -0.1954
  639MOL0     O86160   3.435   3.073   2.272 -0.0344  0.0408  0.6767
  639MOL0     C86161   3.554   3.135   2.306  0.6002 -0.2089  0.1772
  639MOL0     C86162   3.652   3.046   2.364 -0.1255 -0.3433  0.4043
  639MOL0     C86163   3.771   3.097   2.414  0.5008  0.6333 -0.1064
  639MOL0     C86164   3.791   3.239   2.406 -0.6202 -0.3893  0.2124
  639MOL0     O86165   3.902   3.288   2.469  0.3642 -0.8041  0.4391
  639MOL0     C86166   3.975   3.401   2.405 -0.1609  0.5676 -0.1919
  639MOL0     C86167   4.120   3.394   2.464  0.2964 -0.4310  0.4054
  639MOL0     C86168   4.215   3.499   2.410  0.0563  0.2396 -0.4987
  639MOL0     C86169   4.348   3.498   2.488  1.2687 -0.0493 -0.8126
  639MOL0     C86170   4.433   3.619   2.454 -0.2918 -0.1349 -0.7347
  639MOL0     C86171   4.539   3.624   2.564  0.6222 -0.1233 -0.5393
  639MOL0     C86172   4.627   3.749   2.556 -1.2499 -1.5754  0.7598
  639MOL0     C86173   4.711   3.771   2.685  0.5378  0.3857  0.0267
  639MOL0    Cl86174   4.852   3.874   2.658 -0.3072 -0.1487  0.3100
  639MOL0     C86175   3.703   3.322   2.339  0.0250 -0.4903 -0.4097
  639MOL0     C86176   3.582   3.275   2.293 -0.1739 -1.1294  0.4397
  639MOL0     O86177   3.319   3.239   2.377 -0.2077 -0.0243  0.1038
  639MOL0     C86178   3.066   3.115   2.321  0.3034  0.7173  0.0541
  639MOL0     C86179   2.952   3.031   2.298 -0.4307  0.1730  0.2170
  639MOL0     N86180   2.676   3.230   2.345  0.0889  0.5020  0.5969
  639MOL0     N86181   2.683   3.356   2.320  0.0994 -0.0822  0.1523
  639MOL0     C86182   1.658   4.273   2.279  0.8054  1.0242  0.0945
  639MOL0     C86183   1.530   4.317   2.326 -0.3124 -0.2357 -0.0555
  639MOL0     C86184   1.202   4.502   2.619 -0.0939  0.1718 -0.6087
  639MOL0     C86185   1.179   4.598   2.516  0.4620  0.1024 -0.3598
  639MOL0     C86186   1.071   4.686   2.529  0.9419  0.3008 -0.1575
  639MOL0     C86187   0.991   4.679   2.640  0.1722  0.0748 -0.3215
  639MOL0     O86188   0.873   4.745   2.650 -0.3487  0.0314 -0.1054
  639MOL0     C86189   0.815   4.820   2.541  0.1642 -0.0253 -0.3600
  639MOL0     C86190   0.674   4.878   2.564 -0.8137  0.1389  0.2550
  639MOL0     C86191   0.648   5.032   2.583 -0.3098  0.2640 -0.5449
  639MOL0     C86192   0.491   5.051   2.585 -0.1240 -0.4161  0.8015
  639MOL0     C86193   0.426   5.002   2.709  0.2686 -0.4222 -0.1903
  639MOL0     C86194   0.372   4.957   2.814  0.0447  0.8230  0.0309
  639MOL0     C86195   1.014   4.594   2.747 -0.1148 -0.0162 -0.0236
  639MOL0     C86196   1.118   4.504   2.736 -1.0192 -0.0354  0.0849
  639MOL0     C86197   1.151   4.425   2.860  0.0752  0.2194  0.2309
  639MOL0     H86198   1.563   4.274   2.661 -0.8135 -0.7722  0.2646
  639MOL0     H86199   1.778   4.156   2.577  0.3870 -1.6114 -0.6413
  639MOL0     H86200   1.982   4.321   2.340 -2.4854  0.4499  0.8738
  639MOL0     H86201   2.012   4.212   2.471  0.8901  0.5392 -0.1798
  639MOL0     H86202   2.191   4.216   2.308 -2.6154  2.8139 -0.1465
  639MOL0     H86203   2.075   4.131   2.194  0.3224 -1.5957  0.5819
  639MOL0     H86204   2.063   3.954   2.377 -1.3225  1.4393  0.1575
  639MOL0     H86205   2.209   4.030   2.443  0.6256 -2.5649 -1.2385
  639MOL0     H86206   2.236   3.938   2.167  0.3281 -1.8803 -0.3534
  639MOL0     H86207   2.349   4.010   2.285  0.2641  0.2217 -0.3676
  639MOL0     H86208   2.281   3.791   2.436 -1.4189 -2.3420 -0.4927
  639MOL0     H86209   2.180   3.741   2.307 -1.7086  0.7229  2.7633
  639MOL0     H86210   2.369   3.710   2.142  2.3950  2.6931 -0.7538
  639MOL0     H86211   2.470   3.796   2.261  1.0667  0.0409 -1.8423
  639MOL0     H86212   2.323   3.526   2.305  0.6151 -0.9718 -3.6346
  639MOL0     H86213   2.460   3.591   2.403 -0.0282 -1.0493 -0.2217
  639MOL0     H86214   2.485   3.515   2.121  0.6477  1.8464 -0.0711
  639MOL0     H86215   2.614   3.590   2.222  2.9176 -3.5980 -2.7257
  639MOL0     H86216   2.358   3.276   2.268  0.5380 -1.7337 -0.5831
  639MOL0     H86217   2.536   3.011   2.441 -0.6167  0.4751 -0.2767
  639MOL0     H86218   2.377   3.075   2.367 -0.1639  0.8653 -0.7379
  639MOL0     H86219   2.447   2.859   2.255  0.5101  0.1252 -0.8666
  639MOL0     H86220   2.445   3.007   2.148 -2.4793 -1.0542  0.5080
  639MOL0     H86221   2.688   3.014   2.153  1.3062 -1.2979 -0.7281
  639MOL0     H86222   2.637   2.859   2.098 -1.1609  0.1576  0.1883
  639MOL0     H86223   2.675   2.741   2.306 -0.0368 -0.9826 -1.9703
  639MOL0     H86224   2.724   2.890   2.385 -2.4151 -0.7032  0.3198
  639MOL0     H86225   3.087   2.742   2.224  0.6953 -0.2503 -0.4291
  639MOL0     H86226   3.292   2.860   2.288 -1.0854 -1.2394 -0.0202
  639MOL0     H86227   3.629   2.941   2.378 -2.1037 -0.0923 -0.6236
  639MOL0     H86228   3.839   3.035   2.471 -0.2413  0.4516  0.6054
  639MOL0     H86229   3.976   3.403   2.296 -0.4675  2.3630 -0.1970
  639MOL0     H86230   3.935   3.497   2.441  5.2238  3.6320 -1.2756
  639MOL0     H86231   4.099   3.400   2.571 -1.3215  0.7187  0.0677
  639MOL0     H86232   4.161   3.294   2.454  1.8953 -0.0047  2.1953
  639MOL0     H86233   4.249   3.474   2.309  1.0450 -1.6698  0.2402
  639MOL0     H86234   4.171   3.599   2.412  1.4637  0.9060 -1.0142
  639MOL0     H86235   4.399   3.403   2.473 -0.7414 -1.1795 -0.8145
  639MOL0     H86236   4.321   3.512   2.593 -1.2940  1.8826 -1.6246
  639MOL0     H86237   4.376   3.712   2.450  1.2201  0.9054  0.4290
  639MOL0     H86238   4.484   3.609   2.358  0.7253  1.5435 -0.4197
  639MOL0     H86239   4.485   3.618   2.659  2.5326 -3.5770  0.4965
  639MOL0     H86240   4.601   3.534   2.567  0.4354 -0.2667  2.8540
  639MOL0     H86241   4.559   3.834   2.545 -0.2798 -0.6044  1.9689
  639MOL0     H86242   4.699   3.742   2.474  0.3792 -3.3164  2.2369
  639MOL0     H86243   4.643   3.804   2.764 -2.0419 -1.8848 -1.0489
  639MOL0     H86244   4.744   3.671   2.717 -0.5912 -0.6421 -1.8164
  639MOL0     H86245   3.732   3.424   2.317 -2.0989  0.2332 -0.0775
  639MOL0     H86246   3.519   3.340   2.233  0.0141 -0.4542  0.9633
  639MOL0     H86247   3.059   3.220   2.348  0.8129  0.0717  3.0010
  639MOL0     H86248   2.853   3.077   2.297 -0.0643  0.9915 -1.3825
  639MOL0     H86249   1.682   4.277   2.173  1.5311 -0.8087  0.1659
  639MOL0     H86250   1.457   4.369   2.265 -1.1255 -0.6799  0.5341
  639MOL0     H86251   1.238   4.597   2.425  0.1496  0.5532 -0.5709
  639MOL0     H86252   1.039   4.750   2.447 -1.6105 -1.5701 -0.7185
  639MOL0     H86253   0.804   4.751   2.457  1.2134 -1.7982  0.8628
  639MOL0     H86254   0.886   4.901   2.522  0.3102 -0.2365 -0.7235
  639MOL0     H86255   0.629   4.824   2.649 -3.2680 -3.1368 -2.8236
  639MOL0     H86256   0.626   4.848   2.470 -0.7704  2.6350 -0.6266
  639MOL0     H86257   0.687   5.089   2.498 -1.8339 -0.3598 -1.7126
  639MOL0     H86258   0.704   5.060   2.673  1.0308  0.2752 -1.3596
  639MOL0     H86259   0.461   5.156   2.570 -1.5146 -0.5507  2.3501
  639MOL0     H86260   0.443   4.993   2.505  0.6074 -1.5607  1.1796
  639MOL0     H86261   0.325   4.906   2.895  0.1790  1.2586  0.3851
  639MOL0     H86262   0.948   4.578   2.832  0.5332  1.5763  0.8136
  639MOL0     H86263   1.088   4.448   2.947 -0.2802 -0.1773  0.0780
  639MOL0     H86264   1.143   4.320   2.833  2.4869  0.0027  0.1042
  639MOL0     H86265   1.255   4.441   2.890 -0.1982  0.1064  1.2904
  640MOL0     O86266   1.099   1.061   1.779 -0.4455  0.1394 -0.0112
  640MOL0     C86267   1.158   1.073   1.673  0.0472 -0.2608  0.8391
  640MOL0     O86268   1.087   1.114   1.561  0.1446 -0.0348  0.7076
  640MOL0     C86269   0.954   1.156   1.563 -0.1246  0.4686 -0.1309
  640MOL0     C86270   0.905   1.259   1.653  0.4821  0.0274 -0.0223
  640MOL0     C86271   0.779   1.314   1.638 -0.2184 -0.3614 -0.2540
  640MOL0     C86272   0.688   1.267   1.532  0.4273  0.6706  0.0868
  640MOL0     O86273   0.553   1.308   1.515  0.0573  0.6984  0.6436
  640MOL0     C86274   0.501   1.416   1.579 -0.2119  0.2206  0.7936
  640MOL0     C86275   0.415   1.485   1.475 -0.2039  0.5345  0.4631
  640MOL0     C86276   0.493   1.527   1.348  0.2142  0.4313  0.1685
  640MOL0     C86277   0.499   1.419   1.227 -0.0656  0.3001  0.4495
  640MOL0     C86278   0.572   1.463   1.098 -0.1874 -0.2162  0.5167
  640MOL0     C86279   0.695   1.534   1.110  0.7091 -0.2114 -0.1018
  640MOL0     C86280   0.818   1.474   1.181 -0.0523  0.7136 -0.1552
  640MOL0     C86281   0.932   1.573   1.188 -0.1854 -0.2522  0.1414
  640MOL0     N86282   1.036   1.514   1.282  0.3193 -0.4593 -0.6874
  640MOL0     C86283   1.090   1.583   1.391  1.4690  0.4457 -0.7900
  640MOL0     C86284   1.171   1.494   1.450  0.0413  0.1138 -0.0334
  640MOL0     C86285   1.256   1.505   1.575  0.4609 -0.6712  0.9367
  640MOL0     C86286   1.407   1.509   1.534 -0.1898  0.1479 -0.7232
  640MOL0     C86287   1.501   1.522   1.654  0.0160  0.7346 -0.1360
  640MOL0     C86288   1.648   1.480   1.619 -0.1244  0.0933 -0.1524
  640MOL0     O86289   1.731   1.450   1.736 -0.0057 -0.2387 -1.3154
  640MOL0     C86290   1.843   1.374   1.729  0.2782 -0.2806  0.3906
  640MOL0     C86291   1.901   1.351   1.846 -0.0455 -0.2647  0.0411
  640MOL0     C86292   2.007   1.262   1.856 -0.4231 -0.6048 -0.7529
  640MOL0     C86293   2.069   1.212   1.739  0.0977 -0.4078 -0.8314
  640MOL0     C86294   2.179   1.115   1.733  0.5939  0.2029 -0.5832
  640MOL0     O86295   2.226   1.078   1.608 -0.4829 -0.1487 -0.2681
  640MOL0     C86296   2.319   0.981   1.598 -0.7327  0.3828  0.8259
  640MOL0     C86297   2.425   1.010   1.508 -0.8107 -0.2405  0.0994
  640MOL0     C86298   2.521   0.919   1.480 -0.4405 -0.5371 -0.1997
  640MOL0     C86299   2.532   0.798   1.552  0.0418  0.1705  0.3598
  640MOL0     O86300   2.614   0.698   1.499 -0.4357  0.7488 -0.2211
  640MOL0     C86301   2.651   0.594   1.590 -0.3037  0.2754  0.5371
  640MOL0     C86302   2.783   0.531   1.536  0.6022 -0.5069 -0.1819
  640MOL0     C86303   2.901   0.637   1.521  0.4634  0.5534 -1.2977
  640MOL0     C86304   2.990   0.590   1.410  0.4407 -0.6581 -0.6239
  640MOL0     C86305   3.125   0.658   1.406 -0.4669  0.1759 -0.5383
  640MOL0     C86306   3.205   0.620   1.530  0.4469 -0.3363 -0.7674
  640MOL0     C86307   3.357   0.662   1.520 -0.0152  0.8800 -0.0244
  640MOL0     C86308   3.381   0.812   1.490  0.6370  0.1077 -0.0638
  640MOL0    Cl86309   3.369   0.844   1.316  0.7903 -0.4183 -0.1946
  640MOL0     C86310   2.434   0.776   1.648  0.2810  0.1465 -1.0495
  640MOL0     C86311   2.327   0.861   1.671  0.3541  0.7403 -0.2536
  640MOL0     O86312   2.221   1.078   1.842 -0.2750  0.2306  0.1179
  640MOL0     C86313   2.014   1.245   1.614  0.7080 -0.4886 -0.7721
  640MOL0     C86314   1.900   1.322   1.607 -0.7536  0.5504 -0.2383
  640MOL0     N86315   1.174   1.376   1.372  1.1214 -0.2833  0.1254
  640MOL0     N86316   1.090   1.392   1.270 -0.4075  0.2719 -0.1580
  640MOL0     C86317   0.732   1.158   1.450 -0.7126 -0.2578  0.2371
  640MOL0     C86318   0.862   1.110   1.468 -0.5835  0.1497  0.6625
  640MOL0     C86319   1.302   1.039   1.658  0.0765 -0.1653 -0.2836
  640MOL0     C86320   1.369   1.116   1.566 -0.3992  0.0084  0.6710
  640MOL0     C86321   1.510   1.098   1.547  0.1773  1.0455 -0.9803
  640MOL0     C86322   1.579   0.999   1.619  0.0348 -0.2395 -0.8203
  640MOL0     O86323   1.712   0.986   1.578 -0.3596 -0.3464 -0.8374
  640MOL0     C86324   1.809   0.940   1.682 -0.4927 -0.1668 -0.0529
  640MOL0     C86325   1.855   0.798   1.647 -0.1381 -0.3479 -0.2133
  640MOL0     C86326   1.973   0.808   1.549  0.0321  0.2114 -0.0691
  640MOL0     C86327   1.948   0.855   1.407 -0.8334  0.3606  0.4220
  640MOL0     C86328   2.069   0.831   1.334  0.0836 -0.3432  0.0394
  640MOL0     C86329   2.175   0.811   1.286 -0.7002  0.5219  0.0890
  640MOL0     C86330   1.502   0.919   1.719 -1.0399 -0.0904 -0.0382
  640MOL0     C86331   1.366   0.944   1.742 -0.8694  0.0761 -0.0890
  640MOL0     C86332   1.287   0.851   1.835 -0.5834 -0.1503 -0.1004
  640MOL0     H86333   0.975   1.304   1.721  1.6693 -1.5742 -0.1369
  640MOL0     H86334   0.762   1.396   1.708  3.4725 -0.3637  0.8329
  640MOL0     H86335   0.439   1.392   1.666 -0.2143 -2.2649  0.1753
  640MOL0     H86336   0.578   1.481   1.619 -0.8457  0.9647  0.8301
  640MOL0     H86337   0.371   1.576   1.517 -1.9342  0.2308 -0.5578
  640MOL0     H86338   0.327   1.426   1.448 -0.4426 -1.0657  4.1362
  640MOL0     H86339   0.598   1.546   1.372  1.1875 -2.8346 -0.9660
  640MOL0     H86340   0.449   1.614   1.299 -0.3557 -0.3510 -0.7295
  640MOL0     H86341   0.547   1.324   1.252 -0.0202  0.0080 -0.7065
  640MOL0     H86342   0.394   1.396   1.207 -0.6257  1.6699  1.5946
  640MOL0     H86343   0.600   1.374   1.040 -0.6863 -0.1651  0.1948
  640MOL0     H86344   0.508   1.533   1.045  0.8933 -1.1854 -2.2283
  640MOL0     H86345   0.717   1.557   1.005 -1.3371  2.9415  0.0074
  640MOL0     H86346   0.680   1.632   1.157  3.1691  0.0881  0.1910
  640MOL0     H86347   0.834   1.382   1.123 -2.9382  0.3395 -0.4948
  640MOL0     H86348   0.795   1.441   1.283  1.6220  3.2454  1.1378
  640MOL0     H86349   0.967   1.586   1.085  1.2109  1.1808  0.7583
  640MOL0     H86350   0.890   1.665   1.228 -4.1254 -1.9750  0.3878
  640MOL0     H86351   1.080   1.686   1.424 -1.3432 -0.8105  2.9395
  640MOL0     H86352   1.228   1.597   1.627 -2.0599 -1.1194  0.4974
  640MOL0     H86353   1.229   1.419   1.637 -1.5690 -0.7303  0.0472
  640MOL0     H86354   1.434   1.419   1.478 -3.3782 -1.0900 -0.4970
  640MOL0     H86355   1.412   1.602   1.477 -1.0667 -0.2563 -1.4858
  640MOL0     H86356   1.472   1.465   1.742 -1.5332  0.3020 -0.8876
  640MOL0     H86357   1.504   1.628   1.680  2.7843  0.8930 -0.7879
  640MOL0     H86358   1.695   1.548   1.548  0.6661  0.7004  0.9239
  640MOL0     H86359   1.645   1.387   1.561  0.6304  2.3852 -4.2037
  640MOL0     H86360   1.860   1.409   1.928 -0.7282 -1.8065  0.8473
  640MOL0     H86361   2.064   1.248   1.948  1.1950  0.1334 -1.5982
  640MOL0     H86362   2.419   1.108   1.461  1.2894  0.0504  0.3560
  640MOL0     H86363   2.594   0.947   1.405 -0.7901  0.6827 -0.0989
  640MOL0     H86364   2.662   0.639   1.689  3.3996 -0.8581  0.7939
  640MOL0     H86365   2.571   0.519   1.598 -3.0005  2.6937 -1.6331
  640MOL0     H86366   2.805   0.460   1.617 -0.5261 -0.6879 -0.0141
  640MOL0     H86367   2.768   0.479   1.441  1.2273 -2.3386  0.6611
  640MOL0     H86368   2.864   0.737   1.497  1.7170  2.5771  3.7818
  640MOL0     H86369   2.953   0.635   1.617 -0.7658 -0.1350 -0.6247
  640MOL0     H86370   2.946   0.613   1.313 -4.2788 -1.5565  1.0542
  640MOL0     H86371   3.001   0.481   1.415  0.6737 -0.6348 -0.6071
  640MOL0     H86372   3.113   0.766   1.389  0.5375  0.2798 -0.6693
  640MOL0     H86373   3.177   0.618   1.319  1.2837 -0.4070  0.7062
  640MOL0     H86374   3.174   0.678   1.617 -0.7481  1.5605 -2.3717
  640MOL0     H86375   3.195   0.513   1.555  2.0578 -0.2889  0.2068
  640MOL0     H86376   3.405   0.598   1.446 -2.7059 -4.0420  2.0545
  640MOL0     H86377   3.410   0.637   1.613  1.1009 -0.1600 -0.9185
  640MOL0     H86378   3.315   0.876   1.549  1.5876  3.1548 -2.0853
  640MOL0     H86379   3.482   0.842   1.518  0.2138 -1.0641  3.0833
  640MOL0     H86380   2.425   0.676   1.689  0.5756  0.8549  0.8351
  640MOL0     H86381   2.249   0.833   1.741  0.2583  2.6924  0.5050
  640MOL0     H86382   2.055   1.195   1.526  3.4183 -0.9084  0.6215
  640MOL0     H86383   1.851   1.331   1.510  0.2160 -2.1643 -1.0721
  640MOL0     H86384   0.668   1.129   1.367 -1.4604  0.7335  0.4371
  640MOL0     H86385   0.898   1.029   1.405 -1.2795 -0.1437  0.6352
  640MOL0     H86386   1.327   1.201   1.513  0.3684 -0.4290 -0.6784
  640MOL0     H86387   1.572   1.166   1.489  2.5276 -1.3175 -1.4460
  640MOL0     H86388   1.759   0.952   1.779 -1.9158  0.8216 -0.8674
  640MOL0     H86389   1.898   1.003   1.680 -1.0877  0.7013 -2.1612
  640MOL0     H86390   1.774   0.737   1.605 -0.0364  0.0022 -0.9435
  640MOL0     H86391   1.885   0.739   1.734  2.1951 -3.8495 -3.1272
  640MOL0     H86392   2.023   0.711   1.550  0.0310  0.1942 -0.8989
  640MOL0     H86393   2.046   0.883   1.582  0.0684  1.3203 -2.4660
  640MOL0     H86394   1.862   0.805   1.362 -1.4396  0.5751  1.3136
  640MOL0     H86395   1.938   0.964   1.410  1.2580  0.6217 -0.2291
  640MOL0     H86396   2.274   0.794   1.248  0.7822 -0.6649  4.0177
  640MOL0     H86397   1.545   0.836   1.774  2.2477  0.9378 -0.8427
  640MOL0     H86398   1.338   0.767   1.884 -0.9477 -0.5587 -0.4155
  640MOL0     H86399   1.243   0.916   1.911  0.3767  1.0390 -0.5371
  640MOL0     H86400   1.211   0.809   1.769 -0.9818 -0.1840  0.3765
  641MOL0     O86401   8.119   7.947   7.779 -0.4454 -0.5755  0.8860
  641MOL0     C86402   8.000   7.983   7.765 -0.2906 -0.0322 -0.5946
  641MOL0     O86403   7.949   8.114   7.777 -0.8055  0.2972 -0.0495
  641MOL0     C86404   8.050   8.198   7.812  0.4830 -0.6499  0.4143
  641MOL0     C86405   8.138   8.239   7.716  0.5051  0.4326  1.0155
  641MOL0     C86406   8.242   8.330   7.740  0.9333  0.0635 -0.3604
  641MOL0     C86407   8.253   8.384   7.865 -0.5294 -0.8535  1.2452
  641MOL0     O86408   8.345   8.494   7.880 -0.8496 -0.2080  0.0853
  641MOL0     C86409   8.408   8.544   8.000 -0.4736  0.4726 -0.5514
  641MOL0     C86410   8.522   8.454   8.047  0.5316 -0.0879  0.5481
  641MOL0     C86411   8.623   8.430   7.941 -0.4196  0.0186 -0.1824
  641MOL0     C86412   8.735   8.336   7.988  0.6285 -0.0135 -0.5275
  641MOL0     C86413   8.827   8.305   7.870 -0.2791  0.3090 -0.3654
  641MOL0     C86414   8.963   8.245   7.914  0.4946 -0.5218 -0.3228
  641MOL0     C86415   9.044   8.229   7.787 -0.1867  0.5050 -0.6590
  641MOL0     C86416   9.144   8.119   7.802 -0.1301  0.0317  0.2125
  641MOL0     N86417   9.213   8.106   7.927 -0.1354 -0.8815 -0.3898
  641MOL0     C86418   9.305   8.198   7.969  1.3628 -0.0046 -0.8673
  641MOL0     C86419   9.333   8.173   8.099  0.3748 -0.0609 -0.0430
  641MOL0     C86420   9.419   8.268   8.186 -0.5683  0.5571 -0.4670
  641MOL0     C86421   9.397   8.246   8.334 -0.9020 -0.7025 -0.6852
  641MOL0     C86422   9.486   8.321   8.438  0.3240 -1.1750  0.2394
  641MOL0     C86423   9.633   8.297   8.417  0.3377 -0.2775 -0.5748
  641MOL0     O86424   9.711   8.419   8.403  0.1058  0.5812 -0.2031
  641MOL0     C86425   9.838   8.411   8.358 -0.5748 -0.8406 -0.1534
  641MOL0     C86426   9.898   8.308   8.293  0.2264  0.9834 -0.2478
  641MOL0     C86427  10.033   8.316   8.247  0.8843  0.7514 -0.4572
  641MOL0     C86428  10.110   8.428   8.282  0.5020  0.8567  0.0462
  641MOL0     C86429  10.259   8.431   8.258  0.4486 -0.2105 -0.0058
  641MOL0     O86430  10.314   8.309   8.212  0.0142  0.1832 -0.9007
  641MOL0     C86431  10.445   8.296   8.182  0.4475 -0.1048  0.3633
  641MOL0     C86432  10.476   8.171   8.137  0.3640  0.0492 -0.2586
  641MOL0     C86433  10.605   8.136   8.099 -0.5271 -0.4863 -0.4919
  641MOL0     C86434  10.705   8.238   8.094  0.4746  0.4011 -0.2621
  641MOL0     O86435  10.841   8.214   8.056 -0.3187  0.2539 -0.8526
  641MOL0     C86436  10.875   8.117   7.956  0.7315 -0.7534  0.0165
  641MOL0     C86437  10.936   7.992   8.023  0.3280  0.1126  0.1128
  641MOL0     C86438  11.075   8.006   8.085  0.2494 -0.0458  0.0525
  641MOL0     C86439  11.115   7.873   8.149  0.2455  0.6882 -0.0771
  641MOL0     C86440  11.260   7.879   8.192 -0.9219 -0.2355 -0.3634
  641MOL0     C86441  11.360   7.881   8.076 -0.7220  1.1145  0.0350
  641MOL0     C86442  11.513   7.878   8.123  0.2711  0.3386 -0.5234
  641MOL0     C86443  11.608   7.854   7.996  0.1078 -0.9343 -0.1671
  641MOL0    Cl86444  11.776   7.838   8.048 -0.2399 -0.2427  0.1349
  641MOL0     C86445  10.678   8.360   8.151  0.1086 -0.1583 -0.6526
  641MOL0     C86446  10.550   8.390   8.196 -0.4560 -0.4640  0.1757
  641MOL0     O86447  10.311   8.536   8.287 -0.8093  0.5132  0.3489
  641MOL0     C86448  10.044   8.534   8.349 -0.5593 -0.2829  0.2933
  641MOL0     C86449   9.913   8.528   8.386 -0.2429  0.2444 -0.6198
  641MOL0     N86450   9.249   8.067   8.136  0.3858  0.0938  0.3313
  641MOL0     N86451   9.182   8.024   8.030 -0.3526 -0.2678 -0.2050
  641MOL0     C86452   8.175   8.348   7.965  0.2160 -0.0042  0.2033
  641MOL0     C86453   8.071   8.252   7.942 -0.0515 -0.0377 -0.2012
  641MOL0     C86454   7.900   7.885   7.717 -0.0560  0.2326  1.0026
  641MOL0     C86455   7.791   7.921   7.628 -0.3807 -0.0866 -0.1383
  641MOL0     C86456   7.695   7.837   7.577 -0.0823 -0.6469  0.2773
  641MOL0     C86457   7.690   7.709   7.631 -0.0381 -0.8918  1.0004
  641MOL0     O86458   7.582   7.618   7.597  0.3084  0.1725  0.6397
  641MOL0     C86459   7.455   7.669   7.644 -0.0441  0.3828 -0.5118
  641MOL0     C86460   7.455   7.661   7.797  0.0368  0.4453  1.0634
  641MOL0     C86461   7.447   7.521   7.851  0.8764 -0.4939  0.2500
  641MOL0     C86462   7.481   7.530   8.001 -0.5402  1.4766  0.1098
  641MOL0     C86463   7.446   7.396   8.062 -1.2236 -0.5512 -0.0110
  641MOL0     C86464   7.430   7.296   8.129  0.1230  0.3616  0.0827
  641MOL0     C86465   7.792   7.664   7.718 -0.1916  0.6615  0.7663
  641MOL0     C86466   7.898   7.744   7.754  0.3354 -1.1947  0.3670
  641MOL0     C86467   8.008   7.672   7.827 -0.7287  0.0765 -0.2895
  641MOL0     H86468   8.140   8.209   7.612  0.9238 -1.3611  1.5111
  641MOL0     H86469   8.319   8.364   7.672  2.6443 -1.8480  0.4642
  641MOL0     H86470   8.460   8.639   7.986  0.8865  0.2815  2.3742
  641MOL0     H86471   8.324   8.554   8.070 -1.1180 -0.1833 -1.2115
  641MOL0     H86472   8.480   8.360   8.083  0.2374  0.5620  1.9682
  641MOL0     H86473   8.573   8.504   8.130 -1.7265  0.2256  1.8497
  641MOL0     H86474   8.661   8.525   7.904  0.2745 -0.4466 -0.6826
  641MOL0     H86475   8.575   8.379   7.857 -1.7071 -0.2107  0.6530
  641MOL0     H86476   8.800   8.380   8.065 -3.9586  2.3807  2.4539
  641MOL0     H86477   8.686   8.252   8.039 -1.8036  1.6619  0.0665
  641MOL0     H86478   8.786   8.228   7.804  0.2108 -0.1717 -0.1154
  641MOL0     H86479   8.839   8.396   7.810 -2.4077  2.4375  2.2180
  641MOL0     H86480   9.014   8.309   7.986  2.7057  2.0566 -3.8641
  641MOL0     H86481   8.950   8.145   7.958  3.3224  0.1281  2.3626
  641MOL0     H86482   9.101   8.320   7.768 -0.4405  0.4908 -1.5134
  641MOL0     H86483   8.975   8.220   7.703 -0.6971  1.4670 -0.3495
  641MOL0     H86484   9.099   8.020   7.792  1.5719 -0.5991 -1.7918
  641MOL0     H86485   9.216   8.140   7.723 -1.5286 -0.0802 -1.1398
  641MOL0     H86486   9.336   8.284   7.910  0.4263  1.2910  0.4574
  641MOL0     H86487   9.519   8.248   8.147 -1.7641 -2.0487 -2.4112
  641MOL0     H86488   9.390   8.373   8.171 -3.1273 -0.2444 -1.6343
  641MOL0     H86489   9.294   8.267   8.365 -0.0565  2.8960  0.1490
  641MOL0     H86490   9.420   8.142   8.361  0.0483  0.0273  1.4835
  641MOL0     H86491   9.439   8.299   8.534 -0.3914 -0.2382  0.1261
  641MOL0     H86492   9.478   8.430   8.429  1.9012 -0.8069  2.5884
  641MOL0     H86493   9.651   8.239   8.326 -0.7415 -1.2117 -0.2178
  641MOL0     H86494   9.670   8.230   8.496 -1.3612 -1.4691 -0.7400
  641MOL0     H86495   9.845   8.218   8.264 -1.0407  1.3024  0.9824
  641MOL0     H86496  10.072   8.231   8.191 -2.9183 -0.7639 -1.1469
  641MOL0     H86497  10.397   8.098   8.152 -2.5304  3.1332  0.7682
  641MOL0     H86498  10.612   8.038   8.053  0.6532  0.5897 -2.8331
  641MOL0     H86499  10.784   8.084   7.904  0.0459  0.5620  0.3173
  641MOL0     H86500  10.946   8.160   7.886 -0.3444  0.4563 -0.3829
  641MOL0     H86501  10.867   7.945   8.094 -0.1189 -2.0609 -1.6387
  641MOL0     H86502  10.942   7.914   7.947  2.4537 -0.7672  1.1183
  641MOL0     H86503  11.139   8.021   7.997  1.4281  1.9039  1.1571
  641MOL0     H86504  11.078   8.092   8.153 -3.0982  0.6935 -0.5286
  641MOL0     H86505  11.098   7.789   8.082  1.8016 -0.6382  1.0982
  641MOL0     H86506  11.064   7.864   8.245  1.5698 -1.0683  0.5217
  641MOL0     H86507  11.275   7.787   8.250 -2.5411 -1.6235 -2.0379
  641MOL0     H86508  11.279   7.966   8.256  1.2106  2.4142 -4.2065
  641MOL0     H86509  11.343   7.795   8.011 -0.9041  1.6153 -0.6034
  641MOL0     H86510  11.347   7.969   8.011 -1.0793 -0.6195 -2.3874
  641MOL0     H86511  11.529   7.805   8.202 -2.1852  0.2121 -0.0662
  641MOL0     H86512  11.530   7.974   8.173 -0.6830 -0.2008  0.8649
  641MOL0     H86513  11.585   7.759   7.947  1.1819 -2.1004  1.4430
  641MOL0     H86514  11.593   7.929   7.919  0.6665  0.2459  0.8369
  641MOL0     H86515  10.758   8.432   8.164 -1.9171  1.9951  0.7037
  641MOL0     H86516  10.546   8.485   8.248  0.6638  0.3947 -1.2171
  641MOL0     H86517  10.105   8.618   8.380 -1.6043 -0.2676  2.5241
  641MOL0     H86518   9.869   8.617   8.428 -1.2583  0.6825 -2.5028
  641MOL0     H86519   8.187   8.397   8.061  3.4458  1.8043 -0.9859
  641MOL0     H86520   8.017   8.208   8.025 -0.0762  0.3729  0.0042
  641MOL0     H86521   7.796   8.023   7.591  2.4352  0.2330  0.9010
  641MOL0     H86522   7.620   7.875   7.509 -0.0105  0.0158  0.5581
  641MOL0     H86523   7.380   7.601   7.602  0.1886  0.6945 -1.4533
  641MOL0     H86524   7.435   7.771   7.608  3.3100  2.4385  2.6590
  641MOL0     H86525   7.383   7.728   7.844 -0.2782  0.4519  0.5749
  641MOL0     H86526   7.550   7.709   7.826  0.2108  1.2268 -0.6876
  641MOL0     H86527   7.514   7.446   7.808 -2.3559 -2.9636 -0.9587
  641MOL0     H86528   7.340   7.501   7.837  1.0575 -1.1046 -0.3338
  641MOL0     H86529   7.588   7.548   8.018 -1.0203  3.6731  1.1650
  641MOL0     H86530   7.429   7.614   8.048 -1.8783  0.2762  0.8230
  641MOL0     H86531   7.419   7.213   8.196  0.0106 -0.6134 -1.1028
  641MOL0     H86532   7.795   7.563   7.757  2.5542  0.4945  0.3566
  641MOL0     H86533   7.989   7.564   7.830  1.2694 -0.2975  2.1606
  641MOL0     H86534   8.103   7.683   7.774  0.3145  0.3627  1.5515
  641MOL0     H86535   8.015   7.703   7.931  0.3878 -0.0338 -0.3168
  642MOL0     O86536   9.052   9.629   1.301  0.7945  0.3026  0.2704
  642MOL0     C86537   9.000   9.524   1.270 -0.3938 -0.1643  0.5030
  642MOL0     O86538   9.066   9.414   1.225 -0.5111  0.3994  0.0069
  642MOL0     C86539   9.202   9.413   1.236 -0.5426  0.5846  0.1495
  642MOL0     C86540   9.283   9.473   1.333 -0.6219  0.0043 -0.0760
  642MOL0     C86541   9.421   9.472   1.325  0.9465 -0.6511  0.6026
  642MOL0     C86542   9.482   9.393   1.226  0.1884 -0.5264  0.3868
  642MOL0     O86543   9.620   9.398   1.240  0.5332 -0.0681 -0.1191
  642MOL0     C86544   9.700   9.308   1.166 -0.0067 -0.0799 -0.1674
  642MOL0     C86545   9.845   9.331   1.210  0.7131 -0.4668 -0.1187
  642MOL0     C86546   9.948   9.250   1.126  0.0785  0.2813 -0.6077
  642MOL0     C86547  10.089   9.304   1.164  0.0977 -0.5337  0.8212
  642MOL0     C86548  10.182   9.203   1.091 -0.0025 -0.0527  0.6863
  642MOL0     C86549  10.321   9.217   1.150 -0.3165 -0.1662  0.5672
  642MOL0     C86550  10.433   9.153   1.066 -0.2406  0.8742  0.8284
  642MOL0     C86551  10.502   9.249   0.972  0.1587  0.3756  0.5138
  642MOL0     N86552  10.604   9.171   0.896 -0.1400 -0.1379 -0.7143
  642MOL0     C86553  10.710   9.105   0.955  0.0969 -0.3903 -0.4400
  642MOL0     C86554  10.771   9.049   0.845  0.1773 -0.4906 -0.1326
  642MOL0     C86555  10.903   8.967   0.863  0.3335 -0.2063  0.6669
  642MOL0     C86556  10.928   8.866   0.753 -0.1186  0.8076 -0.1808
  642MOL0     C86557  11.044   8.774   0.788 -0.4379  0.5088  0.9005
  642MOL0     C86558  11.184   8.823   0.743  0.1304 -0.5009 -0.3926
  642MOL0     O86559  11.189   8.865   0.607 -0.4482 -0.1661  0.5010
  642MOL0     C86560  11.299   8.862   0.523 -0.7754 -0.7464  0.1347
  642MOL0     C86561  11.294   8.902   0.388 -0.7062  0.0021  1.0459
  642MOL0     C86562  11.410   8.909   0.313  0.0345 -0.3222 -0.8619
  642MOL0     C86563  11.534   8.890   0.377  0.7824  1.0600  0.1050
  642MOL0     C86564  11.658   8.902   0.295  0.0821  0.0553  1.4427
  642MOL0     O86565  11.775   8.926   0.370 -0.1371 -0.0357 -0.1708
  642MOL0     C86566  11.897   8.957   0.309  0.0385 -0.1847  0.1181
  642MOL0     C86567  11.990   9.024   0.381  0.2452  0.1156  0.4684
  642MOL0     C86568  12.124   9.045   0.333  0.5651  0.1315  0.0836
  642MOL0     C86569  12.158   8.997   0.209  0.2070  1.0204  0.5552
  642MOL0     O86570  12.279   9.037   0.167 -0.3613 -0.2340  0.2616
  642MOL0     C86571  12.354   8.959   0.069  0.6942  0.0630  0.6378
  642MOL0     C86572  12.500   9.028   0.058 -0.3757  0.1932 -0.1528
  642MOL0     C86573  12.602   8.931  -0.009 -1.4378  0.1560  0.2147
  642MOL0     C86574  12.744   8.988  -0.030 -0.1095  0.3171 -0.2858
  642MOL0     C86575  12.849   8.874  -0.058  0.1909  0.7129  0.0386
  642MOL0     C86576  12.975   8.938  -0.139  0.4534  0.1328  0.8044
  642MOL0     C86577  13.104   8.859  -0.120  0.1872 -0.3453  0.1779
  642MOL0     C86578  13.209   8.890  -0.218 -0.1212  0.3096  0.1024
  642MOL0    Cl86579  13.233   9.078  -0.221 -0.0514  0.1960 -0.0136
  642MOL0     C86580  12.063   8.923   0.134 -0.4920  0.1480  0.2277
  642MOL0     C86581  11.939   8.902   0.186  0.4365 -0.0126  1.0809
  642MOL0     O86582  11.655   8.900   0.167 -0.2857  1.0870 -1.0882
  642MOL0     C86583  11.543   8.854   0.510 -0.2183  0.0713 -0.6202
  642MOL0     C86584  11.422   8.835   0.579  0.1806 -0.1631  0.5747
  642MOL0     N86585  10.720   9.095   0.728  0.6001 -0.6566 -0.5134
  642MOL0     N86586  10.625   9.178   0.763  0.1013 -0.6876 -0.1351
  642MOL0     C86587   9.404   9.334   1.127  0.9284  0.5617  0.4847
  642MOL0     C86588   9.265   9.334   1.141  0.7595  0.4913  0.9433
  642MOL0     C86589   8.852   9.522   1.279  1.0945 -0.1522 -0.0086
  642MOL0     C86590   8.780   9.644   1.285 -0.1514  0.5457  0.3651
  642MOL0     C86591   8.641   9.654   1.273 -0.5200 -0.6021  0.8693
  642MOL0     C86592   8.564   9.534   1.280 -0.0243  0.2263 -0.0719
  642MOL0     O86593   8.429   9.557   1.291  0.0207  0.4941 -0.6281
  642MOL0     C86594   8.343   9.438   1.292 -0.1520  0.3897  0.0697
  642MOL0     C86595   8.317   9.384   1.149 -0.6410 -0.6408 -0.3423
  642MOL0     C86596   8.228   9.258   1.148 -0.6704  0.2054 -0.2816
  642MOL0     C86597   8.078   9.291   1.189 -0.2751  0.3735 -0.1957
  642MOL0     C86598   8.000   9.169   1.196 -0.0387 -0.6444 -0.0978
  642MOL0     C86599   7.947   9.062   1.207  0.2495  0.2441  0.0273
  642MOL0     C86600   8.635   9.419   1.294 -0.3549  0.3970 -0.1886
  642MOL0     C86601   8.775   9.402   1.281  0.4603 -0.4933  0.1632
  642MOL0     C86602   8.823   9.258   1.288  0.4394 -0.0925 -0.0087
  642MOL0     H86603   9.230   9.524   1.413  1.1177 -3.0751  3.3535
  642MOL0     H86604   9.476   9.528   1.400  0.1923 -0.8961  1.3636
  642MOL0     H86605   9.675   9.205   1.196  2.2341 -0.4806  0.5359
  642MOL0     H86606   9.693   9.335   1.061 -1.4364  1.5353  0.3158
  642MOL0     H86607   9.843   9.296   1.314  0.4692 -1.8942 -0.5846
  642MOL0     H86608   9.870   9.438   1.219  0.3441 -0.2516 -1.4578
  642MOL0     H86609   9.928   9.269   1.020 -0.3480  0.8889 -0.4260
  642MOL0     H86610   9.926   9.144   1.136 -0.0591  0.0729 -2.6466
  642MOL0     H86611  10.112   9.406   1.134  3.5227 -1.5404 -0.4575
  642MOL0     H86612  10.112   9.299   1.271 -1.5187  0.8073  1.2693
  642MOL0     H86613  10.146   9.100   1.100 -1.1225  0.4006  1.6053
  642MOL0     H86614  10.174   9.228   0.985  1.7130 -0.8141  0.3258
  642MOL0     H86615  10.340   9.324   1.148  1.1494 -0.4092 -0.6322
  642MOL0     H86616  10.319   9.180   1.253 -2.7119 -2.1382 -0.0896
  642MOL0     H86617  10.394   9.062   1.019  2.1464  0.0034  0.4098
  642MOL0     H86618  10.509   9.127   1.141 -0.8615  0.8516  1.4604
  642MOL0     H86619  10.433   9.294   0.900 -0.8993 -0.2489  1.1094
  642MOL0     H86620  10.551   9.330   1.027 -0.0038  0.3949  0.6336
  642MOL0     H86621  10.735   9.082   1.058 -0.1813 -2.1225 -0.7252
  642MOL0     H86622  10.992   9.029   0.874  1.5721 -2.0759  1.8139
  642MOL0     H86623  10.895   8.916   0.960 -2.1355 -1.6041 -0.1929
  642MOL0     H86624  10.843   8.797   0.749  0.5957 -0.2215 -5.3322
  642MOL0     H86625  10.949   8.909   0.655  3.0877 -1.8270 -0.8520
  642MOL0     H86626  11.035   8.680   0.732  2.9648  0.2764  0.5314
  642MOL0     H86627  11.043   8.744   0.893  1.8659 -2.2626  0.2612
  642MOL0     H86628  11.252   8.738   0.756 -1.1364 -1.6262 -0.9454
  642MOL0     H86629  11.221   8.905   0.806  0.5039 -1.2181  0.3509
  642MOL0     H86630  11.200   8.935   0.345  0.3123  1.2306 -0.3144
  642MOL0     H86631  11.406   8.950   0.212 -2.1675  1.2289 -0.2370
  642MOL0     H86632  11.956   9.086   0.462 -0.2040 -0.8766  1.0607
  642MOL0     H86633  12.196   9.093   0.398  0.6122 -0.8706  0.7899
  642MOL0     H86634  12.369   8.860   0.113 -0.3578  0.6963  2.5208
  642MOL0     H86635  12.309   8.963  -0.031  2.1611  4.6118 -0.1057
  642MOL0     H86636  12.486   9.121   0.002  1.5575  1.8113  1.8737
  642MOL0     H86637  12.522   9.052   0.163 -0.3667 -0.7083  0.0556
  642MOL0     H86638  12.613   8.842   0.053 -3.2027 -1.0205 -1.0979
  642MOL0     H86639  12.564   8.903  -0.107 -2.0176  3.0926 -0.5122
  642MOL0     H86640  12.781   9.037   0.060  0.4108 -0.0500 -0.2974
  642MOL0     H86641  12.745   9.059  -0.114  0.4747  1.1307  0.3999
  642MOL0     H86642  12.811   8.798  -0.126  0.7563  0.2062  0.2834
  642MOL0     H86643  12.886   8.823   0.031  1.6002  0.6867 -0.5300
  642MOL0     H86644  12.974   8.939  -0.248  2.4950 -0.2302  0.7428
  642MOL0     H86645  12.997   9.035  -0.093  0.3938 -0.7255  2.7435
  642MOL0     H86646  13.090   8.751  -0.114 -0.7628 -0.1669  1.9585
  642MOL0     H86647  13.148   8.889  -0.024  3.3068 -2.0187 -0.6031
  642MOL0     H86648  13.297   8.837  -0.182  0.9497  0.3116 -2.3481
  642MOL0     H86649  13.198   8.853  -0.320 -2.6270 -0.3053  0.5117
  642MOL0     H86650  12.086   8.890   0.033 -0.2499 -2.2565  1.0037
  642MOL0     H86651  11.872   8.863   0.110  2.5036  1.6138 -1.8073
  642MOL0     H86652  11.637   8.840   0.563 -1.2267  1.4275  1.6787
  642MOL0     H86653  11.438   8.796   0.679 -1.1866 -0.8538  0.5507
  642MOL0     H86654   9.444   9.282   1.040  1.6280  1.7799  0.0657
  642MOL0     H86655   9.209   9.282   1.063 -0.8196 -1.1373  3.0575
  642MOL0     H86656   8.833   9.739   1.289 -0.8979  0.9226  1.9917
  642MOL0     H86657   8.588   9.748   1.262 -2.7838 -2.0679 -2.2882
  642MOL0     H86658   8.252   9.491   1.320  0.5533  1.8020 -0.2210
  642MOL0     H86659   8.365   9.360   1.365 -4.6687  0.6743  2.0912
  642MOL0     H86660   8.412   9.353   1.106 -0.1287 -3.7354  2.5647
  642MOL0     H86661   8.273   9.462   1.086 -2.4771 -0.5532  0.9486
  642MOL0     H86662   8.276   9.193   1.223  0.9265  0.5980 -0.9131
  642MOL0     H86663   8.235   9.208   1.051 -1.9806  0.6249 -0.6071
  642MOL0     H86664   8.083   9.339   1.288 -0.7580  1.8707 -0.8723
  642MOL0     H86665   8.035   9.360   1.116 -0.9434 -0.5201 -0.6708
  642MOL0     H86666   7.917   8.960   1.219  0.6718 -0.1375 -1.9661
  642MOL0     H86667   8.578   9.327   1.300  1.1092 -0.5907 -0.8021
  642MOL0     H86668   8.845   9.215   1.190 -0.9299 -1.3605  0.2191
  642MOL0     H86669   8.910   9.261   1.354 -0.4850  1.6148  1.2168
  642MOL0     H86670   8.747   9.199   1.339 -1.2289 -0.1442 -2.4039
  643MOL0     O86671   9.622   7.416   2.461 -0.0227 -0.5668  0.3576
  643MOL0     C86672   9.597   7.461   2.571 -0.4696 -0.5326  0.2167
  643MOL0     O86673   9.684   7.532   2.654  0.1629 -0.1644 -0.0946
  643MOL0     C86674   9.820   7.525   2.633  0.6948 -0.8656 -0.1682
  643MOL0     C86675   9.909   7.494   2.735 -0.1842  0.5198  0.3794
  643MOL0     C86676  10.043   7.480   2.717 -1.1220  0.5033 -0.4135
  643MOL0     C86677  10.097   7.490   2.589 -0.5422 -1.0137  0.1171
  643MOL0     O86678  10.230   7.489   2.565  0.2329 -0.1158 -0.3855
  643MOL0     C86679  10.305   7.411   2.660  0.0274 -0.7437 -0.2375
  643MOL0     C86680  10.455   7.400   2.605 -0.1700  0.1998 -0.1584
  643MOL0     C86681  10.549   7.339   2.720 -0.1722 -0.1027  0.4589
  643MOL0     C86682  10.693   7.299   2.665  0.0734  0.1872 -0.5699
  643MOL0     C86683  10.788   7.422   2.645 -0.4942  0.4408  0.1169
  643MOL0     C86684  10.922   7.368   2.599 -0.1158 -0.1860 -0.5191
  643MOL0     C86685  11.036   7.465   2.574  0.1657 -0.1927  0.1761
  643MOL0     C86686  11.154   7.370   2.521  0.1080  0.0962  0.2629
  643MOL0     N86687  11.262   7.453   2.488 -0.5135 -0.3339 -0.6911
  643MOL0     C86688  11.330   7.538   2.573 -0.2674  0.2232 -0.1907
  643MOL0     C86689  11.422   7.596   2.493 -0.1375 -0.4150 -0.1901
  643MOL0     C86690  11.518   7.707   2.534 -0.0548 -0.5689  0.4396
  643MOL0     C86691  11.667   7.673   2.540  0.9035 -0.1061 -0.6581
  643MOL0     C86692  11.760   7.786   2.588  0.4108  0.2245 -0.3222
  643MOL0     C86693  11.907   7.744   2.604  0.4623  0.5397  0.5760
  643MOL0     O86694  11.961   7.758   2.472 -0.6234  0.2683 -0.0085
  643MOL0     C86695  12.059   7.855   2.457  0.1485  0.4040  0.7829
  643MOL0     C86696  12.034   7.988   2.477 -0.5303 -0.1886 -0.4700
  643MOL0     C86697  12.142   8.085   2.470  0.1041  0.6137 -0.2539
  643MOL0     C86698  12.275   8.037   2.435  0.3399 -0.0223 -0.0941
  643MOL0     C86699  12.382   8.131   2.412  0.0218  0.1634  0.0613
  643MOL0     O86700  12.370   8.255   2.472  0.7735 -0.7685 -0.2543
  643MOL0     C86701  12.462   8.355   2.433  0.1528  0.1777  1.0207
  643MOL0     C86702  12.507   8.372   2.300 -0.5646 -0.6198  1.5782
  643MOL0     C86703  12.609   8.468   2.262 -0.5368 -0.7376 -1.0448
  643MOL0     C86704  12.665   8.544   2.361 -0.2540  0.1137 -0.0006
  643MOL0     O86705  12.765   8.636   2.331  0.5046  0.5628 -0.0505
  643MOL0     C86706  12.717   8.768   2.321 -0.5809 -0.2522  0.0564
  643MOL0     C86707  12.829   8.871   2.341 -1.1373  0.1022  0.0380
  643MOL0     C86708  12.957   8.838   2.253 -0.4061 -0.9360 -0.6990
  643MOL0     C86709  13.059   8.950   2.264 -0.5748  0.3372  0.9358
  643MOL0     C86710  13.185   8.904   2.189  0.1518  0.7464  0.1345
  643MOL0     C86711  13.300   8.994   2.229  0.4613 -0.0690  0.0879
  643MOL0     C86712  13.439   8.958   2.177 -0.3376 -0.0571  0.6784
  643MOL0     C86713  13.546   9.053   2.221 -0.3911  0.1660 -0.0833
  643MOL0    Cl86714  13.692   9.004   2.144 -0.2784 -0.1730 -0.3294
  643MOL0     C86715  12.615   8.529   2.486  0.6305 -0.0068  0.6886
  643MOL0     C86716  12.519   8.437   2.527  0.1361 -0.0663  0.1122
  643MOL0     O86717  12.471   8.093   2.344 -0.0429 -0.0832  0.3516
  643MOL0     C86718  12.294   7.897   2.426  0.2540 -0.2920  0.3453
  643MOL0     C86719  12.187   7.810   2.434 -0.0257  0.2438  0.6568
  643MOL0     N86720  11.397   7.544   2.364 -0.0012  0.4578 -0.0234
  643MOL0     N86721  11.307   7.463   2.365  0.6655  0.2664 -0.1024
  643MOL0     C86722  10.014   7.557   2.491  0.3644  1.0857 -0.0082
  643MOL0     C86723   9.878   7.567   2.508  0.1429  0.2223  0.0698
  643MOL0     C86724   9.459   7.445   2.629 -0.8064  0.3494  0.1100
  643MOL0     C86725   9.441   7.459   2.771  0.3261 -0.0000  0.6915
  643MOL0     C86726   9.316   7.442   2.827 -0.0318 -0.2735  0.2895
  643MOL0     C86727   9.201   7.416   2.755  0.5843 -0.1872 -0.5104
  643MOL0     O86728   9.088   7.431   2.834  0.2736  0.2355 -0.2757
  643MOL0     C86729   8.960   7.473   2.773 -0.3672  0.1520 -0.2944
  643MOL0     C86730   8.845   7.454   2.871 -0.3041 -0.8233 -0.4370
  643MOL0     C86731   8.700   7.470   2.821  0.1404  0.3929 -0.5375
  643MOL0     C86732   8.598   7.407   2.912  0.2733  1.2757 -0.2877
  643MOL0     C86733   8.469   7.438   2.855  0.1131  0.1164  0.5940
  643MOL0     C86734   8.367   7.484   2.815  1.2331  0.1904  0.4911
  643MOL0     C86735   9.209   7.397   2.617 -0.4775  0.4365 -0.4084
  643MOL0     C86736   9.343   7.399   2.558  0.5321 -0.0742  0.2167
  643MOL0     C86737   9.339   7.375   2.410  0.1387 -0.0185  0.1310
  643MOL0     H86738   9.856   7.489   2.830 -3.4288 -1.7232 -1.3780
  643MOL0     H86739  10.107   7.449   2.799  0.4937 -0.4419 -1.9618
  643MOL0     H86740  10.312   7.483   2.742  1.3103  1.4131 -2.1445
  643MOL0     H86741  10.262   7.311   2.678  1.6241 -1.7676 -1.8201
  643MOL0     H86742  10.480   7.498   2.565 -0.5030  0.7216  0.8795
  643MOL0     H86743  10.454   7.328   2.522 -0.6918 -0.8106  0.6994
  643MOL0     H86744  10.491   7.253   2.756  0.1100 -2.8363 -4.5866
  643MOL0     H86745  10.571   7.416   2.795  1.7104  0.7051 -0.8391
  643MOL0     H86746  10.739   7.229   2.735  1.2398  0.1604 -1.3489
  643MOL0     H86747  10.667   7.254   2.569  2.4932  0.3337 -1.3556
  643MOL0     H86748  10.753   7.477   2.558 -1.0308 -0.7303 -0.4295
  643MOL0     H86749  10.800   7.483   2.736 -0.3748  0.2687  0.2184
  643MOL0     H86750  10.961   7.305   2.679  1.1040  0.6529 -0.4230
  643MOL0     H86751  10.914   7.311   2.506  2.4282 -1.5854  0.0317
  643MOL0     H86752  11.065   7.515   2.667 -0.3426 -0.3609  0.4307
  643MOL0     H86753  11.006   7.543   2.504 -0.2555 -1.9082 -1.6264
  643MOL0     H86754  11.187   7.296   2.595  0.1348 -2.4185 -2.1080
  643MOL0     H86755  11.126   7.320   2.428 -0.1513  1.4017 -0.3947
  643MOL0     H86756  11.306   7.555   2.677 -0.2381 -2.8216  0.4071
  643MOL0     H86757  11.502   7.777   2.451  0.7420  0.7223  1.3530
  643MOL0     H86758  11.479   7.736   2.632  0.1281 -2.3216  1.0606
  643MOL0     H86759  11.685   7.583   2.600 -0.3458  0.0224 -0.0425
  643MOL0     H86760  11.691   7.637   2.440 -0.8924 -1.7060 -0.5793
  643MOL0     H86761  11.731   7.812   2.691 -0.2003 -1.5407 -0.0159
  643MOL0     H86762  11.748   7.874   2.524  1.8244 -0.0520 -0.9991
  643MOL0     H86763  11.912   7.642   2.643 -0.9270  0.4793  0.6692
  643MOL0     H86764  11.955   7.812   2.674  1.1213 -0.2489  0.8977
  643MOL0     H86765  11.937   8.026   2.509 -1.2485 -1.6462 -0.8104
  643MOL0     H86766  12.130   8.189   2.496  1.2246  0.8069 -0.4628
  643MOL0     H86767  12.467   8.321   2.213  0.7049  0.6361  0.1867
  643MOL0     H86768  12.639   8.480   2.158  3.1592  0.2569  0.0128
  643MOL0     H86769  12.666   8.773   2.225 -3.7900 -1.1976  1.6026
  643MOL0     H86770  12.635   8.792   2.389 -2.2355  0.8639 -2.2076
  643MOL0     H86771  12.799   8.974   2.323  2.4648  1.3667  0.4609
  643MOL0     H86772  12.865   8.871   2.445 -2.2334  3.5810  0.5341
  643MOL0     H86773  13.011   8.748   2.284 -0.8222 -0.6090  1.1347
  643MOL0     H86774  12.933   8.817   2.149 -1.8696  2.3226 -1.1503
  643MOL0     H86775  13.081   8.985   2.365  0.8651  0.2556  0.6630
  643MOL0     H86776  13.016   9.039   2.216  1.9815  2.5861  2.4921
  643MOL0     H86777  13.160   8.904   2.083 -1.6974 -0.9236  0.5059
  643MOL0     H86778  13.231   8.809   2.219 -2.4388 -0.6824 -0.0594
  643MOL0     H86779  13.278   9.096   2.196 -1.6943 -0.5892 -0.2646
  643MOL0     H86780  13.310   8.997   2.338  0.8176  2.1228  0.0247
  643MOL0     H86781  13.449   8.946   2.068  2.0310 -0.5873  0.9012
  643MOL0     H86782  13.461   8.859   2.217  1.3909 -0.1728 -0.4474
  643MOL0     H86783  13.536   9.149   2.170 -0.3529 -0.3090 -1.0052
  643MOL0     H86784  13.559   9.071   2.328 -1.2655  0.0606  0.0469
  643MOL0     H86785  12.653   8.594   2.564 -2.0959  2.2142  0.3218
  643MOL0     H86786  12.484   8.419   2.629 -0.5004 -1.3714 -0.3075
  643MOL0     H86787  12.396   7.870   2.402 -0.0714 -0.4662 -0.8944
  643MOL0     H86788  12.222   7.708   2.424  0.9080  0.6733 -0.6809
  643MOL0     H86789  10.063   7.593   2.400 -0.3410 -2.4670 -1.9968
  643MOL0     H86790   9.813   7.604   2.430 -0.5924 -2.3154 -0.6125
  643MOL0     H86791   9.528   7.483   2.831  2.4942 -0.9651 -1.8272
  643MOL0     H86792   9.308   7.472   2.931  1.2592  1.7148 -0.1422
  643MOL0     H86793   8.937   7.403   2.692 -1.7646 -2.0035  1.8118
  643MOL0     H86794   8.969   7.574   2.732 -0.1926  0.0476 -0.5131
  643MOL0     H86795   8.862   7.527   2.950 -0.9331 -0.3429 -0.7265
  643MOL0     H86796   8.849   7.353   2.912 -1.0861 -0.9991 -0.7734
  643MOL0     H86797   8.692   7.427   2.721  0.8187  3.2407 -1.9381
  643MOL0     H86798   8.678   7.576   2.802  2.3518  0.9904 -0.1243
  643MOL0     H86799   8.601   7.298   2.905 -0.6355  1.1392  1.0042
  643MOL0     H86800   8.602   7.440   3.017  1.4879 -0.6005  0.2980
  643MOL0     H86801   8.275   7.534   2.791  1.0328  0.1680  1.2085
  643MOL0     H86802   9.120   7.373   2.560  0.5600  1.0145 -2.3642
  643MOL0     H86803   9.388   7.282   2.379  0.8551 -0.2946  1.9979
  643MOL0     H86804   9.237   7.366   2.371 -0.6517  1.5755  1.7089
  643MOL0     H86805   9.386   7.460   2.359  0.2084  0.0894  0.3769
  644MOL0     O86806   7.053   8.477   5.710  0.4835  0.1291 -0.5781
  644MOL0     C86807   7.010   8.590   5.678  0.6888  0.4483 -0.7015
  644MOL0     O86808   7.044   8.712   5.750 -0.3525  0.2450 -0.3927
  644MOL0     C86809   7.118   8.714   5.871  0.5926  0.5528  0.8945
  644MOL0     C86810   7.068   8.800   5.964  0.1108 -1.0506  1.8358
  644MOL0     C86811   7.115   8.797   6.093  0.3987  0.9439 -1.1483
  644MOL0     C86812   7.204   8.701   6.143  0.5970 -1.1285 -0.3927
  644MOL0     O86813   7.232   8.708   6.282 -0.4581  0.2163  0.0888
  644MOL0     C86814   7.364   8.664   6.323  0.8813  0.2576  0.8723
  644MOL0     C86815   7.384   8.693   6.471 -0.0653 -0.2629 -0.3320
  644MOL0     C86816   7.526   8.654   6.524  0.5813  0.0635 -0.4004
  644MOL0     C86817   7.570   8.511   6.510  0.3678 -0.1025 -0.3919
  644MOL0     C86818   7.666   8.485   6.626  0.0722  0.3522  0.6087
  644MOL0     C86819   7.795   8.566   6.598 -0.7851 -0.0542  0.3201
  644MOL0     C86820   7.886   8.540   6.717  0.3701  0.3437  0.2628
  644MOL0     C86821   8.014   8.613   6.698 -0.7971 -0.5862  0.2299
  644MOL0     N86822   8.104   8.591   6.810  0.2862 -0.3327 -1.0774
  644MOL0     C86823   8.096   8.654   6.935 -0.1159  0.0071 -0.2847
  644MOL0     C86824   8.169   8.575   7.020  0.1348  0.5078 -1.4585
  644MOL0     C86825   8.188   8.592   7.169 -0.2339 -1.0455  0.0039
  644MOL0     C86826   8.283   8.715   7.190 -0.5893  0.3676 -0.5418
  644MOL0     C86827   8.436   8.699   7.162  0.0135 -0.1935 -0.8258
  644MOL0     C86828   8.506   8.596   7.256  0.9123 -0.6171 -0.1624
  644MOL0     O86829   8.541   8.664   7.385 -0.4603  0.6027  0.4473
  644MOL0     C86830   8.679   8.663   7.414  0.1487 -0.2239  0.4807
  644MOL0     C86831   8.788   8.674   7.324  0.2966 -0.0496  1.3539
  644MOL0     C86832   8.926   8.681   7.363  1.0052 -0.5949 -0.2366
  644MOL0     C86833   8.950   8.675   7.508 -0.0537 -0.0458  0.9636
  644MOL0     C86834   9.095   8.673   7.543  0.5036  0.7763 -0.4032
  644MOL0     O86835   9.114   8.689   7.678  0.3424  0.7963 -0.3986
  644MOL0     C86836   9.245   8.693   7.724 -0.2030  0.1372 -0.3894
  644MOL0     C86837   9.353   8.607   7.681  0.1849  0.4710  0.0822
  644MOL0     C86838   9.481   8.616   7.743  1.3580  0.0151  0.0020
  644MOL0     C86839   9.508   8.701   7.845 -0.1038  0.0416  0.6112
  644MOL0     O86840   9.628   8.689   7.897 -0.6293  0.4483  0.2202
  644MOL0     C86841   9.661   8.752   8.018  0.2861  0.2834 -0.7034
  644MOL0     C86842   9.804   8.729   8.057  0.4320 -0.0780  0.0773
  644MOL0     C86843   9.896   8.787   7.948 -0.2107 -0.1970 -0.0759
  644MOL0     C86844  10.038   8.744   7.988 -0.6850 -0.0714 -0.7541
  644MOL0     C86845  10.143   8.805   7.901 -0.2488 -0.1168  0.9393
  644MOL0     C86846  10.279   8.739   7.926  1.3878  0.2628  0.3654
  644MOL0     C86847  10.331   8.789   8.061  0.6212 -0.2549  0.0930
  644MOL0     C86848  10.471   8.735   8.095 -0.0639  0.1370 -0.5823
  644MOL0    Cl86849  10.600   8.803   7.994  0.1572 -0.3358 -0.0892
  644MOL0     C86850   9.412   8.802   7.870  0.1780 -0.6356 -0.0290
  644MOL0     C86851   9.285   8.798   7.814  0.2521 -0.1245 -0.4421
  644MOL0     O86852   9.183   8.649   7.461 -0.5713  0.9073 -0.2305
  644MOL0     C86853   8.839   8.660   7.595 -0.7674 -0.1396  0.4438
  644MOL0     C86854   8.704   8.655   7.549  0.4432 -0.5967  0.3016
  644MOL0     N86855   8.230   8.482   6.949 -0.9516 -0.8663  0.3179
  644MOL0     N86856   8.189   8.489   6.828  0.5543 -0.2329  0.0464
  644MOL0     C86857   7.263   8.616   6.041  0.4901 -0.1745 -0.0948
  644MOL0     C86858   7.227   8.627   5.908  0.0789 -0.0221  0.6364
  644MOL0     C86859   6.908   8.605   5.574  0.4292  0.1327 -0.5615
  644MOL0     C86860   6.877   8.740   5.550 -1.0384  0.0296 -1.0076
  644MOL0     C86861   6.772   8.769   5.464 -1.2128 -0.3964 -0.2221
  644MOL0     C86862   6.703   8.681   5.395  0.1786  0.2929 -0.3767
  644MOL0     O86863   6.596   8.727   5.325 -0.0548 -0.7738 -0.8866
  644MOL0     C86864   6.492   8.640   5.285  0.3268 -0.1793 -0.5427
  644MOL0     C86865   6.399   8.619   5.408 -0.5124 -0.0826  0.0065
  644MOL0     C86866   6.362   8.746   5.471  0.4105 -0.2890 -0.5145
  644MOL0     C86867   6.258   8.830   5.390  0.5492 -0.1658 -0.7376
  644MOL0     C86868   6.125   8.773   5.396  0.1627 -0.2090  0.3032
  644MOL0     C86869   6.016   8.725   5.401  0.6622 -0.3464  0.5003
  644MOL0     C86870   6.733   8.546   5.414 -0.4563 -0.1189 -0.2999
  644MOL0     C86871   6.830   8.504   5.513  0.1495  0.1670  0.1640
  644MOL0     C86872   6.843   8.370   5.559  0.4469 -0.2866 -0.3818
  644MOL0     H86873   6.992   8.869   5.930  2.4086  1.2893  1.0351
  644MOL0     H86874   7.075   8.863   6.170  0.7974 -1.4574  1.2539
  644MOL0     H86875   7.374   8.558   6.300 -0.2463  0.3974 -0.4353
  644MOL0     H86876   7.443   8.714   6.265  0.1207  1.0300  0.4644
  644MOL0     H86877   7.308   8.636   6.524  1.7160 -1.0458  1.5246
  644MOL0     H86878   7.373   8.800   6.491  0.0799 -0.2896 -0.1129
  644MOL0     H86879   7.529   8.680   6.631  2.1534 -2.0927  0.1436
  644MOL0     H86880   7.594   8.718   6.468  1.2928 -0.5669 -0.2689
  644MOL0     H86881   7.484   8.443   6.512  1.6695 -1.8335  2.0896
  644MOL0     H86882   7.617   8.498   6.412  0.6367  3.7014 -0.8939
  644MOL0     H86883   7.626   8.515   6.723 -0.6337  1.0986  0.1044
  644MOL0     H86884   7.679   8.378   6.610 -4.3158 -0.0894 -1.4486
  644MOL0     H86885   7.843   8.533   6.506 -1.4072  2.2249 -0.8915
  644MOL0     H86886   7.773   8.673   6.593 -0.9582  0.0404  2.2584
  644MOL0     H86887   7.900   8.435   6.744 -0.5727  1.1534  4.6880
  644MOL0     H86888   7.837   8.576   6.808 -0.8058  0.4612 -0.3947
  644MOL0     H86889   8.069   8.594   6.606  1.2357  1.2953  0.9680
  644MOL0     H86890   7.981   8.717   6.689  3.3154  0.7976 -1.1339
  644MOL0     H86891   8.040   8.744   6.960  1.2030  0.4218  1.3868
  644MOL0     H86892   8.093   8.604   7.221  0.1235 -2.6648  1.0765
  644MOL0     H86893   8.228   8.501   7.214 -1.8508 -2.5052 -1.3734
  644MOL0     H86894   8.243   8.794   7.127  3.0710 -1.6135 -6.1533
  644MOL0     H86895   8.281   8.739   7.297  0.9591 -0.7609 -0.2289
  644MOL0     H86896   8.491   8.793   7.169 -0.7089  0.2250 -0.6238
  644MOL0     H86897   8.452   8.664   7.060 -0.4423 -0.1549 -0.9116
  644MOL0     H86898   8.588   8.549   7.201  3.0635  2.4556  0.1388
  644MOL0     H86899   8.427   8.524   7.278 -0.1028 -0.4740 -2.9422
  644MOL0     H86900   8.760   8.676   7.219  0.3665 -1.7552  1.2798
  644MOL0     H86901   9.003   8.687   7.287  2.0551  2.1945  0.9150
  644MOL0     H86902   9.341   8.534   7.602  1.8491 -1.4859  1.5181
  644MOL0     H86903   9.563   8.553   7.711 -2.7816 -3.7680 -4.8839
  644MOL0     H86904   9.641   8.858   8.000 -1.1854 -0.2392 -2.4271
  644MOL0     H86905   9.593   8.715   8.096  0.0587  2.9171  0.4374
  644MOL0     H86906   9.815   8.790   8.147  0.9745 -2.5407  1.7849
  644MOL0     H86907   9.832   8.630   8.093  2.8918 -0.1552 -1.8024
  644MOL0     H86908   9.872   8.748   7.849  0.8825 -1.4418  0.1245
  644MOL0     H86909   9.877   8.895   7.948 -0.5838 -0.2206 -2.1604
  644MOL0     H86910  10.036   8.635   7.994 -2.5531 -0.1445 -1.9593
  644MOL0     H86911  10.052   8.780   8.090  0.7483  1.2054 -1.3618
  644MOL0     H86912  10.144   8.914   7.915 -0.6069 -0.1981  1.6606
  644MOL0     H86913  10.121   8.782   7.796  1.6707 -1.7433  0.8365
  644MOL0     H86914  10.272   8.630   7.918 -2.6434  0.4435 -1.4022
  644MOL0     H86915  10.349   8.776   7.850 -1.0710  0.5758 -1.8977
  644MOL0     H86916  10.265   8.764   8.145  0.4059 -1.1293 -0.3262
  644MOL0     H86917  10.341   8.898   8.064  2.1813 -0.3047 -1.5730
  644MOL0     H86918  10.501   8.731   8.200 -1.5035 -0.7741 -0.1828
  644MOL0     H86919  10.481   8.628   8.073  4.1874  0.8355 -3.2160
  644MOL0     H86920   9.431   8.881   7.942  2.4736 -1.3997  0.2897
  644MOL0     H86921   9.221   8.882   7.839  0.3559 -0.7671  2.2314
  644MOL0     H86922   8.853   8.655   7.702  2.8059 -0.4405  0.0729
  644MOL0     H86923   8.620   8.650   7.618 -1.0893  2.0909 -1.1980
  644MOL0     H86924   7.338   8.543   6.069  1.0899 -0.0106 -1.1892
  644MOL0     H86925   7.275   8.568   5.830  1.5392  2.3657 -0.3656
  644MOL0     H86926   6.935   8.826   5.582 -0.0103  0.4540 -3.6970
  644MOL0     H86927   6.750   8.875   5.451  2.7489  0.5979  0.0052
  644MOL0     H86928   6.533   8.544   5.255 -1.0321 -0.7143 -0.7718
  644MOL0     H86929   6.434   8.687   5.204  1.8413  1.6846 -0.6140
  644MOL0     H86930   6.453   8.569   5.489 -0.0114 -1.2539 -1.0140
  644MOL0     H86931   6.312   8.560   5.381 -0.0669 -2.0311  2.4370
  644MOL0     H86932   6.451   8.798   5.507 -1.0465  1.6522  0.4854
  644MOL0     H86933   6.305   8.725   5.562  0.9845  1.2939  0.2424
  644MOL0     H86934   6.257   8.930   5.434 -2.5098 -0.3115 -0.2954
  644MOL0     H86935   6.278   8.837   5.283  1.5022 -2.4046 -0.7582
  644MOL0     H86936   5.916   8.686   5.404  1.0037 -1.6731 -2.6153
  644MOL0     H86937   6.686   8.471   5.351  0.1843 -1.2030  0.4933
  644MOL0     H86938   6.939   8.325   5.531  0.0731 -1.3266 -0.0585
  644MOL0     H86939   6.819   8.349   5.663 -2.3897 -2.6459 -1.3606
  644MOL0     H86940   6.762   8.314   5.510 -1.4428  1.9352  0.0754
  645MOL0     O86941  10.169  10.095   8.044 -0.0603  0.7369  0.3613
  645MOL0     C86942  10.155  10.061   7.924 -0.3948 -0.2053 -0.6481
  645MOL0     O86943  10.260  10.036   7.842 -0.4346 -0.4201  0.1132
  645MOL0     C86944  10.393  10.036   7.894  0.1667  0.3228  0.6429
  645MOL0     C86945  10.427   9.930   7.974  0.0102 -1.1722 -0.3156
  645MOL0     C86946  10.557   9.920   8.024  0.3300 -0.2982  0.3783
  645MOL0     C86947  10.647  10.022   8.001 -0.7280 -0.4680  1.0313
  645MOL0     O86948  10.771  10.027   8.070 -0.0917  0.0596  0.5683
  645MOL0     C86949  10.844   9.902   8.062 -0.1239  0.1993 -0.5257
  645MOL0     C86950  10.994   9.903   8.052  0.1477  0.3681 -0.1659
  645MOL0     C86951  11.028   9.957   7.910  1.2780 -0.6955  0.6148
  645MOL0     C86952  11.176   9.989   7.905  0.1215  0.1550 -0.2791
  645MOL0     C86953  11.209  10.138   7.940  0.8426 -0.2870 -0.2421
  645MOL0     C86954  11.359  10.160   7.918 -1.1813 -0.5845 -0.1937
  645MOL0     C86955  11.416  10.285   7.990  1.1090  0.6148  0.3049
  645MOL0     C86956  11.483  10.381   7.898  0.7961  0.6356  0.1136
  645MOL0     N86957  11.551  10.477   7.978 -0.7548 -0.3595  0.1643
  645MOL0     C86958  11.630  10.454   8.091  0.5155  0.7163 -0.3714
  645MOL0     C86959  11.673  10.575   8.131  0.4259  0.0286 -0.7243
  645MOL0     C86960  11.760  10.606   8.250 -0.6377 -0.0978  0.0253
  645MOL0     C86961  11.901  10.602   8.214 -0.0682 -0.6877 -1.0874
  645MOL0     C86962  11.944  10.736   8.162 -0.2377 -0.9000  0.6168
  645MOL0     C86963  12.086  10.741   8.119 -0.0588 -0.3941 -0.2448
  645MOL0     O86964  12.173  10.713   8.225 -0.1689 -0.7710 -0.2412
  645MOL0     C86965  12.260  10.611   8.213  0.8266  0.7588  0.8206
  645MOL0     C86966  12.258  10.513   8.312 -0.3671  0.1865 -0.3476
  645MOL0     C86967  12.343  10.399   8.302 -0.3607 -0.3744  0.5827
  645MOL0     C86968  12.432  10.386   8.196  0.5414 -0.3363  0.3724
  645MOL0     C86969  12.526  10.275   8.189 -0.5228 -1.3716  0.1109
  645MOL0     O86970  12.633  10.292   8.106  0.0325  0.4357  0.0062
  645MOL0     C86971  12.744  10.212   8.105 -0.9390 -0.0052  0.4497
  645MOL0     C86972  12.771  10.089   8.177  0.4185 -0.4684 -0.4692
  645MOL0     C86973  12.890  10.026   8.156 -0.1448 -0.5828  0.6514
  645MOL0     C86974  12.982  10.071   8.065  0.8533 -0.5182  0.6526
  645MOL0     O86975  13.099  10.004   8.057  0.2608  0.0856  0.0233
  645MOL0     C86976  13.204  10.066   7.989 -0.6230 -0.7381  0.7447
  645MOL0     C86977  13.199  10.045   7.838  0.4618 -0.3084 -0.1996
  645MOL0     C86978  13.333  10.079   7.766 -0.6040  0.3686  0.0986
  645MOL0     C86979  13.339  10.017   7.621 -0.3378 -0.5874 -0.0198
  645MOL0     C86980  13.483   9.969   7.582 -0.2010  0.0095  0.2814
  645MOL0     C86981  13.586  10.081   7.563  0.3527 -0.4159 -0.8184
  645MOL0     C86982  13.716  10.035   7.491 -0.7122  0.3625 -0.6263
  645MOL0     C86983  13.797  10.158   7.456  0.2557 -0.3668  0.5550
  645MOL0    Cl86984  13.974  10.127   7.424 -0.1644  0.2240 -0.1352
  645MOL0     C86985  12.957  10.186   7.997  0.7863 -0.2269  0.4146
  645MOL0     C86986  12.844  10.265   8.011  0.3180  0.2513 -0.0859
  645MOL0     O86987  12.510  10.182   8.263 -0.3371  0.8558 -0.2138
  645MOL0     C86988  12.427  10.480   8.096 -0.1282  0.0954  0.5472
  645MOL0     C86989  12.345  10.594   8.103 -0.0505  0.1619 -0.4474
  645MOL0     N86990  11.621  10.669   8.044  0.5209 -0.2329  0.0785
  645MOL0     N86991  11.552  10.608   7.950 -0.4232  0.3503 -0.0803
  645MOL0     C86992  10.609  10.135   7.925 -0.2671  0.1729  0.1627
  645MOL0     C86993  10.483  10.146   7.870  0.1133 -0.5964  0.5132
  645MOL0     C86994  10.016  10.056   7.859  0.1925 -0.6951  0.3724
  645MOL0     C86995  10.007  10.037   7.715 -0.2610  0.2774  0.0711
  645MOL0     C86996   9.877  10.033   7.656  0.7899 -0.0466  0.0046
  645MOL0     C86997   9.757  10.052   7.721  0.2924 -0.4673 -0.2988
  645MOL0     O86998   9.643  10.073   7.645  0.6088  0.0645  0.5602
  645MOL0     C86999   9.520  10.079   7.718  0.0551 -0.5052 -0.3405
  645MOL0     C87000   9.468   9.947   7.770 -0.2819 -0.4020 -0.2182
  645MOL0     C87001   9.458   9.844   7.657  0.8566 -0.8184 -0.0331
  645MOL0     C87002   9.376   9.885   7.537 -0.0894  0.3324  0.4010
  645MOL0     C87003   9.243   9.923   7.580 -0.7045  0.6194  0.3490
  645MOL0     C87004   9.141   9.987   7.597  0.7728  0.8020 -0.4590
  645MOL0     C87005   9.767  10.063   7.858 -0.4435  0.8195 -0.1827
  645MOL0     C87006   9.891  10.062   7.929  0.9667  0.2965 -0.1846
  645MOL0     C87007   9.877  10.069   8.077 -0.2672  0.4410 -0.6431
  645MOL0     H87008  10.356   9.849   7.987  0.8030 -1.9369 -0.6871
  645MOL0     H87009  10.577   9.837   8.091 -0.3912  0.4209  1.5147
  645MOL0     H87010  10.815   9.840   8.148 -1.0725 -0.5723 -1.3801
  645MOL0     H87011  10.810   9.852   7.971  0.1949 -3.5350  1.2108
  645MOL0     H87012  11.033   9.802   8.061 -1.6830 -0.4892 -1.3501
  645MOL0     H87013  11.038   9.958   8.136  0.1290 -1.6221  1.2222
  645MOL0     H87014  10.969  10.047   7.891  0.3296 -1.6376 -1.0742
  645MOL0     H87015  11.005   9.888   7.829 -1.6134  0.6606  0.1883
  645MOL0     H87016  11.237   9.927   7.971 -1.5998 -0.0062  1.2607
  645MOL0     H87017  11.217   9.966   7.806 -0.8005 -3.0125 -0.0475
  645MOL0     H87018  11.148  10.207   7.881  1.9787  1.8122  0.9382
  645MOL0     H87019  11.179  10.155   8.043 -0.0767  1.1768 -0.7161
  645MOL0     H87020  11.409  10.076   7.966  0.5593 -0.8313 -2.3021
  645MOL0     H87021  11.390  10.170   7.814 -2.3579  3.9451 -0.3521
  645MOL0     H87022  11.495  10.234   8.047  1.1170 -0.6323 -0.7813
  645MOL0     H87023  11.350  10.331   8.064  0.9429 -2.9599  2.6308
  645MOL0     H87024  11.562  10.340   7.834  0.6990 -0.4084  0.6547
  645MOL0     H87025  11.399  10.420   7.840  2.0118  2.5057 -0.5066
  645MOL0     H87026  11.661  10.359   8.134  0.2460  1.4566  1.5549
  645MOL0     H87027  11.725  10.698   8.298 -2.0738  0.2066 -1.5075
  645MOL0     H87028  11.758  10.518   8.316  2.8133 -2.0891 -2.2094
  645MOL0     H87029  11.957  10.564   8.301 -0.7826 -0.4531 -0.5151
  645MOL0     H87030  11.922  10.526   8.138 -1.2503 -1.0073 -1.1061
  645MOL0     H87031  11.941  10.808   8.244  0.5425  1.4679 -1.3128
  645MOL0     H87032  11.879  10.759   8.078  2.4354  0.0368 -1.3433
  645MOL0     H87033  12.112  10.834   8.068 -1.8284  0.2355 -0.0504
  645MOL0     H87034  12.098  10.660   8.046  0.8517  1.1079 -1.8384
  645MOL0     H87035  12.188  10.520   8.395 -2.9320 -2.4691 -2.0760
  645MOL0     H87036  12.332  10.324   8.380 -1.2024  1.8577  2.7327
  645MOL0     H87037  12.699  10.041   8.242 -1.2329 -0.8498 -2.4743
  645MOL0     H87038  12.925   9.937   8.207  1.0028 -0.4143  0.1941
  645MOL0     H87039  13.206  10.170   8.023  0.2639 -1.3572  2.6930
  645MOL0     H87040  13.295  10.016   8.022  1.2231 -0.0269 -2.7453
  645MOL0     H87041  13.159   9.947   7.811 -1.2762  0.1600  0.5250
  645MOL0     H87042  13.123  10.111   7.795 -0.0269 -1.3763 -1.0442
  645MOL0     H87043  13.344  10.188   7.763  2.5878  0.2051  1.5377
  645MOL0     H87044  13.424  10.043   7.815 -1.9457 -2.2662  0.8834
  645MOL0     H87045  13.295  10.085   7.547  2.1724 -0.1573 -1.2497
  645MOL0     H87046  13.278   9.927   7.619 -1.0976 -0.1231  1.1621
  645MOL0     H87047  13.478   9.906   7.493 -0.9659  2.0990 -1.2422
  645MOL0     H87048  13.523   9.904   7.661  1.2493  0.3728 -0.1274
  645MOL0     H87049  13.547  10.162   7.502  0.0914  1.2065  1.3852
  645MOL0     H87050  13.592  10.120   7.665  0.5666 -1.4263 -0.4278
  645MOL0     H87051  13.688   9.983   7.399 -0.6898 -4.7065  1.9217
  645MOL0     H87052  13.779   9.973   7.555  1.9482  2.5174 -0.9490
  645MOL0     H87053  13.743  10.222   7.386  1.0984  1.9608  1.9093
  645MOL0     H87054  13.793  10.221   7.545 -0.2319  0.5977 -0.1341
  645MOL0     H87055  13.030  10.233   7.931 -0.1339  2.3781  1.1214
  645MOL0     H87056  12.821  10.359   7.963 -1.8293  1.0000  2.1869
  645MOL0     H87057  12.491  10.478   8.008  0.8006 -2.3602  1.1956
  645MOL0     H87058  12.350  10.681   8.039 -0.7377  1.0785  0.7056
  645MOL0     H87059  10.684  10.213   7.912  0.6549 -0.5017  1.1728
  645MOL0     H87060  10.461  10.232   7.807  1.0670  0.5252  1.6618
  645MOL0     H87061  10.091  10.025   7.647 -0.4665  0.0773 -0.1478
  645MOL0     H87062   9.864  10.009   7.551  0.9266 -1.0429  0.2079
  645MOL0     H87063   9.450  10.122   7.646 -0.2476  1.6147  1.1331
  645MOL0     H87064   9.502  10.156   7.793  1.3307  0.0795 -0.6043
  645MOL0     H87065   9.369   9.975   7.806 -0.3791  1.2673 -1.6398
  645MOL0     H87066   9.526   9.908   7.854  0.9836 -0.2619 -1.0054
  645MOL0     H87067   9.422   9.749   7.697 -1.2127 -0.3243 -0.5903
  645MOL0     H87068   9.558   9.820   7.619  1.4097  0.6085  0.4227
  645MOL0     H87069   9.432   9.963   7.484 -3.2777  1.6615 -1.2752
  645MOL0     H87070   9.374   9.797   7.472  1.1714  1.3791 -1.1247
  645MOL0     H87071   9.049  10.040   7.594  1.4733  2.1841  0.9000
  645MOL0     H87072   9.679  10.063   7.922  0.0399 -3.1646  0.6888
  645MOL0     H87073   9.904  10.171   8.108  2.7933 -0.4021 -0.1482
  645MOL0     H87074   9.776  10.044   8.109  0.3296 -1.5369 -0.1808
  645MOL0     H87075   9.941  10.004   8.138  0.7126  2.6552  0.8557
  646MOL0     O87076   8.003   0.116   0.073 -0.4628  0.3079 -0.6498
  646MOL0     C87077   7.902   0.160   0.111  0.4561 -1.0318 -0.5531
  646MOL0     O87078   7.885   0.238   0.226 -0.2782 -0.3776 -0.1421
  646MOL0     C87079   7.997   0.243   0.301 -0.6130  0.9439 -0.2202
  646MOL0     C87080   7.968   0.207   0.430  0.2747 -0.3106 -0.1894
  646MOL0     C87081   8.063   0.211   0.532  0.2786  0.3327  0.5728
  646MOL0     C87082   8.198   0.250   0.494 -0.2612  0.6136  0.6006
  646MOL0     O87083   8.290   0.269   0.588 -0.1161 -0.8238 -0.3946
  646MOL0     C87084   8.276   0.202   0.712  0.1932  0.1922 -0.1672
  646MOL0     C87085   8.387   0.233   0.802  0.2667 -0.2699  0.3421
  646MOL0     C87086   8.376   0.379   0.843 -0.6822 -1.0112  0.6524
  646MOL0     C87087   8.490   0.424   0.931 -0.2250  0.1620 -0.0213
  646MOL0     C87088   8.488   0.572   0.959  0.7694 -0.0372 -0.4787
  646MOL0     C87089   8.368   0.623   1.037 -0.1515 -0.0541 -0.3668
  646MOL0     C87090   8.383   0.775   1.069  0.1332 -0.0676 -0.4167
  646MOL0     C87091   8.289   0.819   1.175 -0.1535 -0.3737 -0.7364
  646MOL0     N87092   8.145   0.788   1.150 -0.2350 -1.5295 -0.3027
  646MOL0     C87093   8.059   0.879   1.089 -0.8771  0.3658  0.3828
  646MOL0     C87094   7.936   0.829   1.097 -0.0956  0.4903  0.1908
  646MOL0     C87095   7.812   0.894   1.055  0.3797 -0.4308 -0.1683
  646MOL0     C87096   7.797   1.050   1.079 -0.8351  0.9660 -0.6190
  646MOL0     C87097   7.809   1.072   1.230 -0.4671  0.1073 -0.3901
  646MOL0     C87098   7.820   1.218   1.271  0.4858 -0.9153 -0.1905
  646MOL0     O87099   7.922   1.286   1.202  0.7721  0.3644  0.6042
  646MOL0     C87100   8.054   1.255   1.221 -0.2370 -0.5504  0.3198
  646MOL0     C87101   8.134   1.300   1.118 -0.9325  0.1662 -0.8390
  646MOL0     C87102   8.272   1.275   1.106  0.1801 -0.2408 -0.7318
  646MOL0     C87103   8.333   1.199   1.214  0.3780 -0.0217 -0.1109
  646MOL0     C87104   8.469   1.153   1.206  0.8711  0.3162 -0.7595
  646MOL0     O87105   8.530   1.116   1.320  0.1557  0.1376 -0.6296
  646MOL0     C87106   8.663   1.125   1.313 -0.1670  0.1587 -0.4574
  646MOL0     C87107   8.728   1.207   1.399  0.3962  0.2029 -0.0327
  646MOL0     C87108   8.864   1.192   1.400  0.2350  0.0252  0.7179
  646MOL0     C87109   8.944   1.131   1.300 -0.0202 -0.1567 -0.4386
  646MOL0     O87110   9.080   1.128   1.291 -0.4401 -0.2470  0.5918
  646MOL0     C87111   9.157   1.133   1.414  0.2083 -0.4212 -0.0200
  646MOL0     C87112   9.281   1.040   1.416 -0.0748  0.0368 -0.6566
  646MOL0     C87113   9.401   1.084   1.339  0.0288 -0.2874  0.7566
  646MOL0     C87114   9.470   1.219   1.368  0.4452 -0.0498  0.1426
  646MOL0     C87115   9.559   1.211   1.498  0.4344 -0.0029  0.6465
  646MOL0     C87116   9.635   1.338   1.522  0.1792 -0.2464  0.5312
  646MOL0     C87117   9.734   1.335   1.631  0.2988  0.1397  0.1703
  646MOL0     C87118   9.823   1.461   1.645  0.1985  0.0029  0.0464
  646MOL0    Cl87119   9.737   1.614   1.634 -0.6139 -0.1798  0.2317
  646MOL0     C87120   8.875   1.049   1.217  0.0417  0.7296 -0.9890
  646MOL0     C87121   8.738   1.048   1.226 -0.4514 -0.1345 -0.5144
  646MOL0     O87122   8.525   1.169   1.100  0.6435 -0.5811  0.4190
  646MOL0     C87123   8.253   1.155   1.328 -0.6538  0.1301  0.6275
  646MOL0     C87124   8.110   1.182   1.328  0.1066 -0.5664 -0.2406
  646MOL0     N87125   7.949   0.716   1.169 -0.0843 -0.2951  0.0724
  646MOL0     N87126   8.071   0.688   1.201  0.5387  0.0546  1.6278
  646MOL0     C87127   8.226   0.282   0.359 -0.0215 -0.0355 -0.2639
  646MOL0     C87128   8.128   0.280   0.263  0.4143 -0.2952 -0.2223
  646MOL0     C87129   7.781   0.135   0.033  0.4867 -0.5090 -0.7590
  646MOL0     C87130   7.750  -0.005   0.004 -0.0237  0.0884  0.2239
  646MOL0     C87131   7.629  -0.037  -0.057  0.0958 -0.5428 -0.6868
  646MOL0     C87132   7.528   0.055  -0.072 -0.2002  0.6029  0.2146
  646MOL0     O87133   7.401   0.028  -0.128  0.4103  1.1203 -0.1040
  646MOL0     C87134   7.346  -0.095  -0.087  0.1874  0.1332  0.3456
  646MOL0     C87135   7.197  -0.098  -0.127  0.0324  0.2951  0.2061
  646MOL0     C87136   7.120   0.013  -0.068 -0.5049 -0.6807 -0.3434
  646MOL0     C87137   6.974   0.027  -0.102  0.3919 -0.8981  0.5034
  646MOL0     C87138   6.971   0.072  -0.239 -0.0596  0.2474 -0.1075
  646MOL0     C87139   6.924   0.111  -0.349 -0.3375 -0.0306 -0.3041
  646MOL0     C87140   7.552   0.187  -0.044  0.8155 -0.3996  0.0340
  646MOL0     C87141   7.676   0.226   0.002  0.6718  0.3506 -0.3792
  646MOL0     C87142   7.695   0.375   0.020  0.4279  0.7326 -0.0068
  646MOL0     H87143   7.863   0.185   0.447 -0.5506  0.5226 -3.4766
  646MOL0     H87144   8.024   0.198   0.633 -5.0429  0.0070 -1.2171
  646MOL0     H87145   8.185   0.238   0.762  0.6411  1.2576 -0.0820
  646MOL0     H87146   8.283   0.094   0.698  1.5670  0.0667  1.2525
  646MOL0     H87147   8.480   0.220   0.747  0.4056 -0.6396  0.6607
  646MOL0     H87148   8.387   0.169   0.891  2.2478 -0.1182  0.4820
  646MOL0     H87149   8.282   0.397   0.897 -2.5895  0.1969 -2.7470
  646MOL0     H87150   8.368   0.446   0.757  1.8993 -0.4028  0.8206
  646MOL0     H87151   8.500   0.376   1.029  1.6503  0.9524  0.2192
  646MOL0     H87152   8.584   0.406   0.877 -0.7233 -1.9435 -0.2868
  646MOL0     H87153   8.582   0.593   1.011  2.1166  1.5756 -3.3430
  646MOL0     H87154   8.493   0.624   0.863  1.6811 -1.4656 -1.2463
  646MOL0     H87155   8.279   0.621   0.972  0.2645 -0.5288 -0.9356
  646MOL0     H87156   8.361   0.562   1.127  1.5832  3.4457  2.3590
  646MOL0     H87157   8.367   0.828   0.975 -0.1477  2.2122  0.8464
  646MOL0     H87158   8.484   0.800   1.103  0.6927  2.4292 -3.4538
  646MOL0     H87159   8.315   0.775   1.272  0.4099 -1.6757 -1.4544
  646MOL0     H87160   8.304   0.927   1.180 -2.5675 -0.0099  0.2259
  646MOL0     H87161   8.088   0.970   1.038  0.6959  0.5881  1.6077
  646MOL0     H87162   7.808   0.884   0.947  1.9006 -0.8503 -0.2107
  646MOL0     H87163   7.727   0.834   1.089  0.5411 -0.9484 -0.6634
  646MOL0     H87164   7.880   1.090   1.020 -1.5825  2.1861 -0.8828
  646MOL0     H87165   7.704   1.085   1.033 -0.7970  3.3008  0.8799
  646MOL0     H87166   7.903   1.024   1.258  1.6757  0.5520 -5.6026
  646MOL0     H87167   7.726   1.030   1.287 -1.5527 -0.5583 -2.3534
  646MOL0     H87168   7.840   1.220   1.378  1.6945 -2.2281 -0.3615
  646MOL0     H87169   7.723   1.261   1.246  1.1851 -0.8511 -3.2692
  646MOL0     H87170   8.093   1.353   1.033 -0.7342 -1.3917 -1.9343
  646MOL0     H87171   8.330   1.302   1.018  3.0452 -0.3491  1.0078
  646MOL0     H87172   8.672   1.263   1.473  0.9823  1.2881 -0.3900
  646MOL0     H87173   8.913   1.248   1.479 -0.9787  3.5188 -0.7914
  646MOL0     H87174   9.196   1.232   1.437  0.0978  0.1701 -2.1571
  646MOL0     H87175   9.088   1.113   1.496  1.0674  0.9928  1.1078
  646MOL0     H87176   9.319   1.015   1.516  0.8810 -3.0910 -1.6805
  646MOL0     H87177   9.250   0.944   1.375  0.8023 -1.2481  1.4894
  646MOL0     H87178   9.482   1.010   1.338  0.4090  0.1268  0.5458
  646MOL0     H87179   9.371   1.085   1.234  0.9527  1.0211  0.4796
  646MOL0     H87180   9.400   1.301   1.384 -1.6179 -1.8454  0.8358
  646MOL0     H87181   9.539   1.231   1.284 -1.2369 -2.6913 -1.8053
  646MOL0     H87182   9.627   1.126   1.489  0.8151  0.3852 -0.3579
  646MOL0     H87183   9.499   1.175   1.582 -0.1681 -1.6089 -0.4194
  646MOL0     H87184   9.692   1.345   1.429 -2.0102 -1.9150 -1.0538
  646MOL0     H87185   9.567   1.421   1.541  1.9216  0.6115  3.6071
  646MOL0     H87186   9.804   1.253   1.612  2.8743  2.7612 -2.8103
  646MOL0     H87187   9.677   1.315   1.722 -0.2805 -1.1287 -0.4603
  646MOL0     H87188   9.870   1.445   1.742  1.5295 -3.2433 -0.9833
  646MOL0     H87189   9.911   1.454   1.581  0.7656  0.3757  0.7735
  646MOL0     H87190   8.926   0.982   1.148 -0.0136 -2.3006  1.6601
  646MOL0     H87191   8.685   0.978   1.163  0.0983  1.1555 -2.5490
  646MOL0     H87192   8.292   1.090   1.405  0.5147  0.1300  0.0612
  646MOL0     H87193   8.056   1.156   1.419 -0.9079  0.9517 -0.3708
  646MOL0     H87194   8.324   0.317   0.329  1.3735 -1.6304  2.1367
  646MOL0     H87195   8.144   0.302   0.157  0.8204 -2.2417 -0.6007
  646MOL0     H87196   7.827  -0.080   0.012  1.6278  1.3762 -2.2881
  646MOL0     H87197   7.613  -0.141  -0.083  1.2954 -0.8342 -0.3320
  646MOL0     H87198   7.361  -0.105   0.020  0.8770  0.3430  0.2727
  646MOL0     H87199   7.402  -0.172  -0.141  0.8965  0.9840 -0.1637
  646MOL0     H87200   7.140  -0.188  -0.101  0.2360  0.3728  0.9629
  646MOL0     H87201   7.196  -0.104  -0.236  0.4344 -2.8700  0.2990
  646MOL0     H87202   7.173   0.105  -0.093 -0.9000  0.5133  2.8146
  646MOL0     H87203   7.120   0.005   0.041 -2.2861 -0.0287 -0.2563
  646MOL0     H87204   6.927  -0.071  -0.091 -0.9997 -0.3369 -0.2036
  646MOL0     H87205   6.923   0.097  -0.036  0.0596  0.0334 -0.7054
  646MOL0     H87206   6.887   0.171  -0.430  1.0943  1.8657  0.3720
  646MOL0     H87207   7.479   0.264  -0.066  0.1401 -1.2128 -0.6211
  646MOL0     H87208   7.679   0.397   0.126  0.2870  0.2459  0.0756
  646MOL0     H87209   7.794   0.416   0.000  1.9033 -1.0789  2.9031
  646MOL0     H87210   7.617   0.430  -0.034 -0.1309 -0.9933 -1.0307
  647MOL0     O87211   9.636   0.906   3.543 -0.5832 -0.0802  0.4530
  647MOL0     C87212   9.602   1.018   3.558  0.0446 -0.4508 -0.3460
  647MOL0     O87213   9.687   1.126   3.585  0.3705 -0.0196  0.1483
  647MOL0     C87214   9.824   1.113   3.596  1.4234 -0.1034 -0.2414
  647MOL0     C87215   9.890   1.213   3.663 -0.1543  0.0425  0.4604
  647MOL0     C87216  10.028   1.207   3.684 -0.0401 -0.5525  0.0996
  647MOL0     C87217  10.112   1.108   3.634  0.5202 -0.3978  0.8146
  647MOL0     O87218  10.249   1.125   3.647  0.1490  0.0599 -0.6955
  647MOL0     C87219  10.331   1.046   3.560 -0.6708 -0.7429 -0.1939
  647MOL0     C87220  10.478   1.103   3.571  0.6444 -0.0647 -0.2209
  647MOL0     C87221  10.576   1.005   3.501 -0.2075  0.7977  0.0525
  647MOL0     C87222  10.712   1.074   3.457 -0.3113 -0.8375 -0.5074
  647MOL0     C87223  10.783   1.146   3.573 -0.9090 -0.0181 -0.4620
  647MOL0     C87224  10.860   1.052   3.674  1.1590  0.3652 -0.0546
  647MOL0     C87225  10.950   1.136   3.759  0.0591  0.8528 -0.1417
  647MOL0     C87226  11.016   1.056   3.869 -0.8771 -0.4713  0.3931
  647MOL0     N87227  11.068   0.918   3.833  0.2013 -0.7236 -0.0034
  647MOL0     C87228  11.170   0.896   3.747  0.2887 -0.2111  0.7462
  647MOL0     C87229  11.199   0.769   3.761  0.5024 -0.6365 -0.0814
  647MOL0     C87230  11.316   0.710   3.697  0.0298 -0.0309  0.2138
  647MOL0     C87231  11.436   0.721   3.790 -0.3476 -0.0936 -0.1192
  647MOL0     C87232  11.575   0.695   3.726 -0.2686 -0.0156  0.6609
  647MOL0     C87233  11.591   0.562   3.640 -0.5478 -0.2123  0.2876
  647MOL0     O87234  11.719   0.554   3.585 -0.2933  0.2283 -0.5123
  647MOL0     C87235  11.825   0.513   3.668  0.6765  0.6706 -0.0848
  647MOL0     C87236  11.825   0.499   3.810 -0.4925  0.4989  0.2848
  647MOL0     C87237  11.944   0.474   3.875 -0.0570 -0.1095  0.5713
  647MOL0     C87238  12.069   0.456   3.814 -0.7086  0.9060 -0.1037
  647MOL0     C87239  12.195   0.443   3.896 -0.9823  0.7575 -0.0494
  647MOL0     O87240  12.322   0.467   3.832 -0.4003  0.2718 -0.0401
  647MOL0     C87241  12.440   0.432   3.890 -0.2950 -0.0943  0.0944
  647MOL0     C87242  12.483   0.469   4.023 -0.3120 -0.5129  0.7618
  647MOL0     C87243  12.600   0.425   4.083  0.6228  0.1079  0.4056
  647MOL0     C87244  12.691   0.340   4.017  0.0095 -0.6301  0.0592
  647MOL0     O87245  12.802   0.300   4.081 -0.0392  1.0404 -0.1627
  647MOL0     C87246  12.911   0.251   4.008 -0.4626 -0.1106  0.0036
  647MOL0     C87247  13.041   0.274   4.090  0.5957  0.7936  0.1175
  647MOL0     C87248  13.165   0.304   3.997  0.1163 -0.6650  0.2784
  647MOL0     C87249  13.291   0.317   4.083 -0.6801  0.1498  0.7401
  647MOL0     C87250  13.410   0.349   4.003  0.1696 -0.0206  0.2145
  647MOL0     C87251  13.545   0.324   4.083  0.6321 -0.4967 -0.4229
  647MOL0     C87252  13.671   0.289   4.005  0.0804 -0.1689 -0.5322
  647MOL0     C87253  13.795   0.323   4.083 -0.0825 -0.0792  0.4571
  647MOL0    Cl87254  13.805   0.230   4.238  0.2905 -0.0453  0.0268
  647MOL0     C87255  12.653   0.309   3.885  0.5798  0.9861  0.4736
  647MOL0     C87256  12.526   0.339   3.829 -0.3330  0.1272  0.1690
  647MOL0     O87257  12.188   0.415   4.009  0.2409 -0.2423 -0.5598
  647MOL0     C87258  12.071   0.463   3.674 -0.0557 -0.6813  1.3168
  647MOL0     C87259  11.950   0.491   3.601 -0.4137  1.2230  0.8291
  647MOL0     N87260  11.112   0.707   3.845  0.3258  0.0639 -0.4639
  647MOL0     N87261  11.030   0.799   3.890  0.6549 -0.1271  0.4978
  647MOL0     C87262  10.048   1.003   3.571 -0.0241  1.5821 -0.3909
  647MOL0     C87263   9.907   1.006   3.550  0.3242  0.3934  0.3447
  647MOL0     C87264   9.456   1.044   3.533  0.9519  0.1553  0.7151
  647MOL0     C87265   9.412   1.173   3.564  0.4950  0.5540  0.0762
  647MOL0     C87266   9.274   1.190   3.565 -1.0881 -0.6211 -0.5672
  647MOL0     C87267   9.177   1.095   3.532 -0.8079 -0.4669 -0.2270
  647MOL0     O87268   9.044   1.121   3.534  0.5767 -0.7945 -0.6986
  647MOL0     C87269   8.991   1.232   3.607 -0.0333 -0.3135  0.2673
  647MOL0     C87270   8.837   1.241   3.612 -0.0983 -0.0665  0.7358
  647MOL0     C87271   8.770   1.259   3.478  0.0754  0.2787 -0.6887
  647MOL0     C87272   8.619   1.260   3.505 -0.2459 -1.1176  0.4219
  647MOL0     C87273   8.542   1.227   3.380 -0.1563  0.1773 -0.3828
  647MOL0     C87274   8.488   1.189   3.286  0.3149 -0.5657 -0.0399
  647MOL0     C87275   9.220   0.973   3.478  0.3499 -0.2912 -0.5021
  647MOL0     C87276   9.356   0.951   3.477  0.5283 -0.2072  0.1647
  647MOL0     C87277   9.401   0.827   3.411 -0.3759  0.4105  0.0133
  647MOL0     H87278   9.832   1.290   3.713  0.2500  0.0286  0.9540
  647MOL0     H87279  10.076   1.285   3.741  0.6309 -0.8565 -0.0344
  647MOL0     H87280  10.335   0.946   3.603 -2.9883 -0.3426  1.0967
  647MOL0     H87281  10.301   1.043   3.455 -0.1752 -0.7861 -0.3377
  647MOL0     H87282  10.498   1.112   3.678 -1.5774  0.5673  0.1987
  647MOL0     H87283  10.493   1.199   3.522 -2.9889  0.8681  0.1937
  647MOL0     H87284  10.529   0.947   3.421 -1.3661 -0.0426  1.2903
  647MOL0     H87285  10.613   0.938   3.580  2.3220 -0.2233 -1.8648
  647MOL0     H87286  10.782   1.011   3.400  1.3764 -0.4156  1.0283
  647MOL0     H87287  10.688   1.157   3.389  1.3032 -2.1736 -2.8708
  647MOL0     H87288  10.855   1.211   3.523  1.1111 -1.2963  0.6623
  647MOL0     H87289  10.714   1.213   3.626 -1.1215 -1.3327  0.9983
  647MOL0     H87290  10.789   1.014   3.748  0.5299  1.2925 -0.1678
  647MOL0     H87291  10.910   0.974   3.616  2.2580  0.9449  0.0898
  647MOL0     H87292  10.896   1.219   3.803  0.6178 -0.1546  2.6258
  647MOL0     H87293  11.028   1.172   3.691 -0.7653  1.8970 -0.5453
  647MOL0     H87294  11.100   1.118   3.902 -1.7083  2.2218 -2.0607
  647MOL0     H87295  10.938   1.051   3.945 -1.5531  0.6170 -0.2020
  647MOL0     H87296  11.215   0.970   3.682 -0.3809 -1.7409 -1.6003
  647MOL0     H87297  11.303   0.604   3.673  2.1511 -0.1669 -0.5808
  647MOL0     H87298  11.343   0.757   3.602 -0.2998 -1.7645 -0.7860
  647MOL0     H87299  11.445   0.825   3.824  1.9286 -0.5121  0.7781
  647MOL0     H87300  11.418   0.662   3.880 -2.4379 -0.0918 -0.4944
  647MOL0     H87301  11.657   0.692   3.797  0.4469 -2.0340 -0.1718
  647MOL0     H87302  11.593   0.775   3.654 -0.2821 -1.3355 -0.8848
  647MOL0     H87303  11.523   0.570   3.554  0.4771  3.1364 -0.3470
  647MOL0     H87304  11.562   0.470   3.692 -3.1368  0.2570 -0.1628
  647MOL0     H87305  11.736   0.508   3.871 -0.2103  1.4281  0.5797
  647MOL0     H87306  11.941   0.471   3.984 -2.5255  1.9007  0.6435
  647MOL0     H87307  12.429   0.549   4.072 -0.2181  0.6365 -0.9149
  647MOL0     H87308  12.626   0.472   4.178 -0.5875  0.5111  0.5561
  647MOL0     H87309  12.899   0.142   4.003  0.7941 -0.4652  2.8738
  647MOL0     H87310  12.917   0.300   3.910 -3.7126  1.5623  0.4907
  647MOL0     H87311  13.036   0.363   4.153  3.4968 -0.3407  2.1452
  647MOL0     H87312  13.057   0.189   4.157 -3.4224  0.0912  0.4784
  647MOL0     H87313  13.183   0.219   3.930 -0.5997 -2.1963  1.9567
  647MOL0     H87314  13.157   0.392   3.933  1.3927 -0.5663  0.2210
  647MOL0     H87315  13.303   0.225   4.141  0.0433 -1.7406 -2.1740
  647MOL0     H87316  13.284   0.396   4.159 -1.2824 -1.0183  1.9361
  647MOL0     H87317  13.402   0.454   3.972  0.0734  0.1686  0.8529
  647MOL0     H87318  13.416   0.294   3.909  1.0770  1.9086 -0.9292
  647MOL0     H87319  13.564   0.423   4.125 -0.4527 -0.6533  0.4733
  647MOL0     H87320  13.533   0.255   4.167 -1.1784 -1.3566 -1.3274
  647MOL0     H87321  13.679   0.358   3.921 -0.0522  4.0599  2.5472
  647MOL0     H87322  13.677   0.187   3.966  0.2827 -0.8815  1.2298
  647MOL0     H87323  13.878   0.300   4.015  0.7923 -1.3553  1.9166
  647MOL0     H87324  13.785   0.432   4.094 -2.2855 -0.1842 -0.0758
  647MOL0     H87325  12.715   0.243   3.824  0.2597 -1.0835  2.2540
  647MOL0     H87326  12.491   0.292   3.738 -0.6740  1.3650 -0.3600
  647MOL0     H87327  12.156   0.435   3.613  0.7890  2.7894  0.6857
  647MOL0     H87328  11.963   0.498   3.494 -3.1099 -1.6194  0.1685
  647MOL0     H87329  10.100   0.917   3.530  0.4028  2.2183 -1.2341
  647MOL0     H87330   9.856   0.923   3.502 -0.5406  1.2479 -0.2385
  647MOL0     H87331   9.485   1.241   3.606  1.2275 -0.5598  0.6687
  647MOL0     H87332   9.238   1.287   3.598  2.6935 -0.1827  3.0833
  647MOL0     H87333   9.026   1.320   3.552 -1.5869 -0.0029 -0.2693
  647MOL0     H87334   9.033   1.239   3.707  1.5408 -1.0092 -0.3152
  647MOL0     H87335   8.808   1.326   3.676  1.5275  1.7011 -0.7275
  647MOL0     H87336   8.802   1.150   3.660  0.9979  1.1580  4.1716
  647MOL0     H87337   8.799   1.176   3.413 -2.4285 -0.4394 -0.9974
  647MOL0     H87338   8.800   1.356   3.437 -2.1078  1.0849 -0.5247
  647MOL0     H87339   8.581   1.189   3.580  0.0082 -1.2394  0.4351
  647MOL0     H87340   8.584   1.357   3.540 -3.3962 -1.8031 -0.4981
  647MOL0     H87341   8.448   1.171   3.188  1.3297  0.9959 -0.7870
  647MOL0     H87342   9.148   0.906   3.433 -1.7674  1.0484  0.6817
  647MOL0     H87343   9.499   0.843   3.364  0.6282 -2.2458  1.0352
  647MOL0     H87344   9.414   0.747   3.484 -1.1092 -0.2296 -0.5391
  647MOL0     H87345   9.331   0.785   3.338 -0.1267 -2.5731  1.3300
  648MOL0     O87346   6.023   3.874   8.851  0.6937  0.4170 -0.3432
  648MOL0     C87347   5.996   3.877   8.972  0.1794 -1.0835  0.5644
  648MOL0     O87348   6.093   3.902   9.064  0.0817  0.2857 -0.3621
  648MOL0     C87349   6.217   3.938   9.030 -0.6097 -0.4366 -0.5475
  648MOL0     C87350   6.257   4.059   8.986  0.5485 -0.0811 -0.6098
  648MOL0     C87351   6.390   4.092   8.967 -0.8814  0.6581  0.3621
  648MOL0     C87352   6.495   3.993   9.004  0.2414  0.1167 -0.5276
  648MOL0     O87353   6.623   4.024   8.998 -0.1490 -0.1900 -0.3397
  648MOL0     C87354   6.719   3.937   9.059 -0.9677 -0.7530  0.4847
  648MOL0     C87355   6.848   4.004   9.106 -0.1110  0.6822 -0.1109
  648MOL0     C87356   6.926   3.888   9.182 -0.5327 -0.2341  0.6770
  648MOL0     C87357   7.076   3.935   9.174 -0.1124  0.9289 -1.0221
  648MOL0     C87358   7.160   3.832   9.251  0.2834  0.7331  0.0599
  648MOL0     C87359   7.303   3.875   9.251  0.2425  0.4263  0.3733
  648MOL0     C87360   7.394   3.761   9.312  0.0319  0.0280 -0.2696
  648MOL0     C87361   7.542   3.794   9.293 -0.7219 -0.1761  0.4476
  648MOL0     N87362   7.628   3.681   9.322  0.7123  0.2714 -0.3021
  648MOL0     C87363   7.761   3.682   9.308 -0.4879 -0.2039 -0.1915
  648MOL0     C87364   7.809   3.566   9.354  0.5907  0.2298 -0.1446
  648MOL0     C87365   7.953   3.525   9.378  0.0870  1.3567 -0.2165
  648MOL0     C87366   7.993   3.564   9.520 -0.3016 -0.7010  0.1386
  648MOL0     C87367   8.063   3.700   9.527 -0.3625 -0.3417  0.2244
  648MOL0     C87368   8.126   3.731   9.660 -0.1668  0.6005 -0.0756
  648MOL0     O87369   8.171   3.865   9.645  0.2411  0.2865  0.1023
  648MOL0     C87370   8.288   3.905   9.720  0.1126  0.5069 -0.4377
  648MOL0     C87371   8.364   4.006   9.668  0.7599  0.0538  0.0952
  648MOL0     C87372   8.487   4.044   9.728  0.5376  0.1224  0.2447
  648MOL0     C87373   8.525   3.989   9.855  0.6265 -0.0385  0.0403
  648MOL0     C87374   8.657   4.008   9.919  0.0933 -0.1107  0.7112
  648MOL0     O87375   8.743   4.100   9.864  0.0438  0.2539  0.1566
  648MOL0     C87376   8.876   4.071   9.883 -0.3637  0.0867 -0.0444
  648MOL0     C87377   8.968   4.168   9.878  0.0657  0.4003 -0.0377
  648MOL0     C87378   9.108   4.147   9.894  0.0573  0.4252 -1.0247
  648MOL0     C87379   9.166   4.021   9.920  0.1103 -0.1777  0.1266
  648MOL0     O87380   9.303   4.013   9.931  0.1836  0.3968  0.4224
  648MOL0     C87381   9.335   3.910  10.024 -1.3788  0.3124  0.4043
  648MOL0     C87382   9.494   3.907  10.042  0.3043  0.4566 -0.4188
  648MOL0     C87383   9.570   3.812   9.959  0.3314 -0.1798 -0.9455
  648MOL0     C87384   9.709   3.779  10.025  0.1102  0.3753  0.2812
  648MOL0     C87385   9.795   3.712   9.910  0.4878  0.3270  0.0454
  648MOL0     C87386   9.934   3.657   9.954  0.8065 -0.7044 -0.3747
  648MOL0     C87387  10.013   3.593   9.835  0.1424 -0.4394  0.3629
  648MOL0     C87388  10.144   3.527   9.887 -0.4389  0.4398  0.2411
  648MOL0    Cl87389  10.256   3.651   9.937  0.0889 -0.1035  0.0405
  648MOL0     C87390   9.073   3.913   9.922 -0.2137 -0.2422  0.3989
  648MOL0     C87391   8.931   3.939   9.908 -0.4874 -0.5832  0.8104
  648MOL0     O87392   8.675   3.950  10.024 -0.0177  0.2791 -0.0116
  648MOL0     C87393   8.437   3.889   9.914 -0.3458 -0.2700  0.2811
  648MOL0     C87394   8.327   3.846   9.845  0.5981 -1.1732 -0.1512
  648MOL0     N87395   7.695   3.493   9.399 -0.5696  0.1314  0.1701
  648MOL0     N87396   7.586   3.559   9.370 -0.0594 -0.2829  0.0682
  648MOL0     C87397   6.455   3.869   9.062 -0.1300  0.4760 -0.4292
  648MOL0     C87398   6.315   3.844   9.078  0.8208 -0.6180  0.1955
  648MOL0     C87399   5.852   3.863   9.017  0.1394 -0.4245  0.1987
  648MOL0     C87400   5.758   3.839   8.910 -0.1172  0.3382  0.3862
  648MOL0     C87401   5.623   3.828   8.937  0.5355  0.0165 -0.0958
  648MOL0     C87402   5.580   3.839   9.072  0.2841  0.2389 -0.5162
  648MOL0     O87403   5.448   3.821   9.095 -0.0532 -0.3712 -0.1636
  648MOL0     C87404   5.359   3.891   9.013  0.2336 -0.1908 -0.1403
  648MOL0     C87405   5.266   3.789   8.957  0.5520  0.0532  0.3868
  648MOL0     C87406   5.131   3.786   9.030 -0.1495 -0.7298 -0.0352
  648MOL0     C87407   5.041   3.669   8.991  0.2818 -0.3197  0.6399
  648MOL0     C87408   4.922   3.679   9.078 -0.1080  0.0922 -0.5060
  648MOL0     C87409   4.815   3.684   9.132 -0.2093 -0.4389 -0.4540
  648MOL0     C87410   5.663   3.865   9.173  0.6600 -0.1111  0.2985
  648MOL0     C87411   5.804   3.883   9.150  0.2371 -0.1371  1.0093
  648MOL0     C87412   5.889   3.903   9.273  0.6516 -0.1556  0.0851
  648MOL0     H87413   6.175   4.126   8.962  1.0741  1.7339  2.1844
  648MOL0     H87414   6.411   4.192   8.931  2.3877  0.4434  1.3404
  648MOL0     H87415   6.677   3.885   9.146 -1.0402  0.3068  1.0964
  648MOL0     H87416   6.756   3.862   8.989  1.3011  1.5230 -0.9427
  648MOL0     H87417   6.819   4.089   9.167 -0.0888 -0.7862  2.0597
  648MOL0     H87418   6.913   4.037   9.024 -1.5662 -0.6109 -1.8802
  648MOL0     H87419   6.910   3.793   9.131 -0.1349 -1.9555  3.5436
  648MOL0     H87420   6.896   3.867   9.285  0.6107 -0.5096  0.9689
  648MOL0     H87421   7.103   3.949   9.069  1.8487 -2.5472 -1.1155
  648MOL0     H87422   7.080   4.032   9.226 -1.4526  0.7233 -0.4773
  648MOL0     H87423   7.126   3.816   9.353 -0.0668  3.4966  0.4553
  648MOL0     H87424   7.149   3.733   9.207  0.9548  0.1445  1.1577
  648MOL0     H87425   7.334   3.879   9.146 -0.1029 -3.4687 -0.0363
  648MOL0     H87426   7.332   3.968   9.301  2.2186 -0.4628  0.9463
  648MOL0     H87427   7.367   3.663   9.270 -0.4370  0.9914 -2.3709
  648MOL0     H87428   7.371   3.743   9.417  0.2706 -1.0960 -0.3995
  648MOL0     H87429   7.559   3.830   9.191 -0.0570 -2.3053 -0.2483
  648MOL0     H87430   7.573   3.874   9.361 -1.1154  0.9286 -0.6361
  648MOL0     H87431   7.830   3.755   9.267  0.3588 -0.9507 -0.1105
  648MOL0     H87432   7.955   3.418   9.354 -1.1283  1.1504  0.5280
  648MOL0     H87433   8.014   3.578   9.304 -2.5056 -0.7129 -4.1787
  648MOL0     H87434   7.906   3.551   9.585 -1.3513  0.7573 -0.9056
  648MOL0     H87435   8.075   3.501   9.555 -0.4009 -0.5018  0.7528
  648MOL0     H87436   7.992   3.776   9.495 -0.7670  0.3683  2.6579
  648MOL0     H87437   8.144   3.706   9.453 -0.6562  1.4221  0.0148
  648MOL0     H87438   8.207   3.660   9.674  1.0900  1.9800 -0.0588
  648MOL0     H87439   8.052   3.727   9.740 -1.3644 -3.0589 -1.1892
  648MOL0     H87440   8.339   4.042   9.569 -3.6177 -1.7069  0.3406
  648MOL0     H87441   8.559   4.105   9.675  1.9457  1.3979  3.3449
  648MOL0     H87442   8.923   4.267   9.870 -0.8240 -0.0904 -1.4264
  648MOL0     H87443   9.162   4.240   9.879  0.8224 -0.4991 -5.2451
  648MOL0     H87444   9.304   3.912  10.129  0.9604  0.0509  1.1716
  648MOL0     H87445   9.307   3.812   9.984 -0.6732 -0.8352  2.5358
  648MOL0     H87446   9.536   4.005  10.020  2.1932  1.0045  4.3747
  648MOL0     H87447   9.524   3.888  10.146  0.3252 -0.2784 -0.5520
  648MOL0     H87448   9.509   3.722   9.965 -0.5015  0.4059 -0.4802
  648MOL0     H87449   9.576   3.838   9.853  1.3613  1.8394 -0.4407
  648MOL0     H87450   9.704   3.731  10.123  1.0319  1.8212  1.0794
  648MOL0     H87451   9.752   3.879  10.042  0.1712  0.7745 -1.8580
  648MOL0     H87452   9.810   3.776   9.823  2.7336  0.6103  0.5712
  648MOL0     H87453   9.747   3.623   9.869  2.0482 -0.9959  0.9868
  648MOL0     H87454   9.993   3.743   9.988  2.1735 -1.5708 -0.4902
  648MOL0     H87455   9.930   3.589  10.039  0.9454 -2.0125 -1.3872
  648MOL0     H87456  10.030   3.672   9.761  0.7476 -0.2227  0.7250
  648MOL0     H87457   9.942   3.523   9.791 -2.5806  2.3947 -0.0939
  648MOL0     H87458  10.120   3.453   9.964  0.2215 -0.7384 -0.6370
  648MOL0     H87459  10.182   3.456   9.813 -0.5203 -0.7033  1.2567
  648MOL0     H87460   9.101   3.812   9.949 -0.9235 -1.1198 -1.8930
  648MOL0     H87461   8.874   3.847   9.905  1.1178 -1.7743 -4.7983
  648MOL0     H87462   8.449   3.844  10.012 -0.3008  1.5367  1.1439
  648MOL0     H87463   8.258   3.774   9.888 -2.1743  1.7224  0.6206
  648MOL0     H87464   6.527   3.791   9.084 -0.5367  0.6894  1.7974
  648MOL0     H87465   6.274   3.752   9.120 -0.3186 -0.1169  0.2277
  648MOL0     H87466   5.807   3.834   8.813 -0.7305  2.8071 -0.1066
  648MOL0     H87467   5.557   3.805   8.854  1.7874  0.8457 -1.3639
  648MOL0     H87468   5.404   3.941   8.927  0.8748 -2.1057 -0.9897
  648MOL0     H87469   5.302   3.965   9.070  1.1052  2.3015 -2.2954
  648MOL0     H87470   5.307   3.688   8.961 -0.1242 -0.5085 -3.5303
  648MOL0     H87471   5.238   3.794   8.852 -2.0147 -2.0867  0.8668
  648MOL0     H87472   5.080   3.880   9.008 -1.1253 -1.1766  0.2635
  648MOL0     H87473   5.152   3.766   9.135  0.8746 -3.4177 -0.6619
  648MOL0     H87474   4.997   3.672   8.890 -1.2124  0.5780  1.2880
  648MOL0     H87475   5.094   3.576   9.012  1.5701  0.3340  0.3281
  648MOL0     H87476   4.717   3.689   9.175  0.5636 -3.8319  2.1700
  648MOL0     H87477   5.617   3.887   9.269 -0.4407  1.3410 -0.5128
  648MOL0     H87478   5.959   3.984   9.250  0.7544 -1.0244 -3.1989
  648MOL0     H87479   5.823   3.922   9.358  0.1352 -1.0470 -0.0991
  648MOL0     H87480   5.944   3.813   9.300  1.7155  0.3382 -0.3884
  649MOL0     O87481   9.875   4.421   0.039 -0.8003 -0.0744  0.3609
  649MOL0     C87482   9.789   4.501   0.083 -0.2021 -0.0086  0.7847
  649MOL0     O87483   9.809   4.618   0.144  0.2423  0.6101 -0.1185
  649MOL0     C87484   9.922   4.687   0.138 -0.1737  0.3827  0.2274
  649MOL0     C87485  10.026   4.671   0.032  0.5462  0.0305  0.5470
  649MOL0     C87486  10.141   4.747   0.031  0.2481 -0.5586 -0.5840
  649MOL0     C87487  10.150   4.848   0.137  0.6381  0.4424 -0.9136
  649MOL0     O87488  10.260   4.924   0.156 -1.0614  0.6594  0.2615
  649MOL0     C87489  10.307   5.006   0.052  0.2153  0.1909 -0.2836
  649MOL0     C87490  10.454   4.976   0.023  0.2354 -0.4683  0.4727
  649MOL0     C87491  10.558   4.979   0.140 -0.7560  0.9966 -0.2986
  649MOL0     C87492  10.700   4.950   0.089  0.9522  0.6526 -0.4887
  649MOL0     C87493  10.808   5.023   0.169  0.6707 -0.2253 -0.1469
  649MOL0     C87494  10.939   4.997   0.099 -0.1977 -0.2907  0.6078
  649MOL0     C87495  11.059   5.071   0.156  0.1734 -0.4638  0.2276
  649MOL0     C87496  11.079   5.051   0.305 -0.5746  0.5565 -1.0410
  649MOL0     N87497  11.224   5.055   0.341 -0.6056  0.5468 -0.2626
  649MOL0     C87498  11.288   4.976   0.436  0.4579 -0.1593 -0.0658
  649MOL0     C87499  11.418   5.004   0.439  0.1140 -0.3334  1.0159
  649MOL0     C87500  11.521   4.934   0.518  0.0694 -0.0629  0.4646
  649MOL0     C87501  11.662   4.980   0.478 -0.9442 -0.8989  0.3212
  649MOL0     C87502  11.787   4.935   0.556  0.0299  0.4885 -0.3698
  649MOL0     C87503  11.802   4.987   0.702  0.4149 -0.0490 -0.1279
  649MOL0     O87504  11.906   4.907   0.773  0.8662  0.9166  0.0236
  649MOL0     C87505  12.032   4.955   0.790  0.1327 -0.1507  0.2154
  649MOL0     C87506  12.134   4.858   0.835  0.1345 -0.2654 -0.7454
  649MOL0     C87507  12.263   4.896   0.854  0.1187 -0.9507  0.4228
  649MOL0     C87508  12.295   5.028   0.826 -0.5912  0.5019  0.1199
  649MOL0     C87509  12.436   5.068   0.855  0.3216 -0.6465 -0.3384
  649MOL0     O87510  12.524   4.966   0.891  0.2366  0.5425 -0.8608
  649MOL0     C87511  12.646   5.011   0.939  0.0616  0.3394 -0.1740
  649MOL0     C87512  12.758   5.016   0.857 -0.3204 -0.5440 -0.5171
  649MOL0     C87513  12.886   5.056   0.911  0.6616  0.1901  0.4687
  649MOL0     C87514  12.894   5.099   1.046 -0.1901 -0.6616  0.4062
  649MOL0     O87515  13.022   5.135   1.090 -0.4170  0.3937 -0.2142
  649MOL0     C87516  13.034   5.169   1.231  0.0465 -0.3284  1.4896
  649MOL0     C87517  13.188   5.177   1.253 -0.2644  0.3130  0.7410
  649MOL0     C87518  13.257   5.286   1.171 -0.7345 -0.8016  0.0207
  649MOL0     C87519  13.397   5.327   1.209  0.4946  0.0856  0.0116
  649MOL0     C87520  13.496   5.215   1.165  0.1509 -0.2509 -0.3964
  649MOL0     C87521  13.641   5.261   1.203  0.5333 -0.2009 -0.1887
  649MOL0     C87522  13.752   5.156   1.182 -0.1446 -0.1483 -0.3375
  649MOL0     C87523  13.869   5.180   1.277  0.3624 -0.5584 -0.4854
  649MOL0    Cl87524  13.908   5.356   1.272 -0.1715 -0.5592  0.1726
  649MOL0     C87525  12.776   5.100   1.131  0.0901 -0.0459  0.0986
  649MOL0     C87526  12.650   5.057   1.075 -0.6325  0.0769  0.0904
  649MOL0     O87527  12.465   5.187   0.847 -0.5998 -0.2090 -0.3873
  649MOL0     C87528  12.205   5.120   0.784  0.4677  0.2335 -0.0799
  649MOL0     C87529  12.075   5.080   0.761  0.4085 -1.0765 -0.8342
  649MOL0     N87530  11.440   5.091   0.331  0.0272  0.5156 -1.0249
  649MOL0     N87531  11.324   5.123   0.276  0.2283  0.4937 -0.5203
  649MOL0     C87532  10.046   4.865   0.239 -0.3718  0.2539 -0.2211
  649MOL0     C87533   9.940   4.783   0.235  0.4385  0.4354 -0.8011
  649MOL0     C87534   9.653   4.454   0.058 -0.4442 -0.2681 -0.9454
  649MOL0     C87535   9.630   4.355  -0.046 -0.2658  0.1494  0.0026
  649MOL0     C87536   9.505   4.315  -0.078  1.7185 -0.5031 -0.2262
  649MOL0     C87537   9.389   4.374  -0.011  0.5365  0.1787 -0.2828
  649MOL0     O87538   9.262   4.336  -0.049  0.9084  0.6376 -0.3621
  649MOL0     C87539   9.146   4.399   0.033 -0.7755 -0.4475  0.4055
  649MOL0     C87540   9.133   4.330   0.171  1.0393  0.6004  0.1914
  649MOL0     C87541   8.996   4.363   0.244 -0.3249  0.9367 -0.0462
  649MOL0     C87542   9.022   4.350   0.396 -0.8074 -0.3945 -0.2213
  649MOL0     C87543   8.899   4.372   0.471 -1.2839 -0.6565 -0.6095
  649MOL0     C87544   8.797   4.419   0.532 -0.0054  0.5583  0.0916
  649MOL0     C87545   9.415   4.473   0.088 -0.7180 -0.0350  0.2538
  649MOL0     C87546   9.543   4.498   0.132 -0.0056  0.0495  0.4191
  649MOL0     C87547   9.573   4.578   0.262 -0.1093 -0.0545 -0.3109
  649MOL0     H87548  10.002   4.610  -0.055  0.8889 -0.0165  0.4828
  649MOL0     H87549  10.227   4.737  -0.035  1.6508  1.5518  0.7690
  649MOL0     H87550  10.249   4.994  -0.039  0.7365 -0.9621 -0.4814
  649MOL0     H87551  10.297   5.114   0.067 -2.3097  0.3739 -2.6531
  649MOL0     H87552  10.469   5.049  -0.056 -1.3692  0.2332  0.7879
  649MOL0     H87553  10.462   4.873  -0.015  2.9885 -0.8005  1.6646
  649MOL0     H87554  10.534   4.900   0.212  2.5850 -1.1673 -1.3164
  649MOL0     H87555  10.555   5.073   0.195  0.0511  0.8186  0.0748
  649MOL0     H87556  10.721   4.843   0.092  4.6439  1.2271 -0.8870
  649MOL0     H87557  10.724   4.973  -0.015  3.5192 -1.3614 -0.4348
  649MOL0     H87558  10.788   5.130   0.164 -1.8346 -0.5436  1.3778
  649MOL0     H87559  10.803   4.990   0.274 -0.7196 -0.3123 -0.2334
  649MOL0     H87560  10.946   4.888   0.094 -1.6753 -0.4284  1.0615
  649MOL0     H87561  10.944   5.035  -0.004  0.1151 -1.4592  0.1829
  649MOL0     H87562  11.045   5.177   0.135 -0.8275 -0.6515 -0.1507
  649MOL0     H87563  11.149   5.038   0.105  2.4064  1.0706  2.9255
  649MOL0     H87564  11.021   5.125   0.359 -1.2239  0.4013 -1.5177
  649MOL0     H87565  11.035   4.954   0.331 -0.2178  1.2564  2.6335
  649MOL0     H87566  11.242   4.908   0.507  0.0538  0.6866  0.4946
  649MOL0     H87567  11.500   4.975   0.617  0.3771 -0.2515  0.6084
  649MOL0     H87568  11.511   4.826   0.523 -0.5745  0.0422  1.7607
  649MOL0     H87569  11.693   4.951   0.377  3.6047 -0.4990  1.3766
  649MOL0     H87570  11.668   5.088   0.496 -0.6239 -1.0791  1.3386
  649MOL0     H87571  11.874   4.977   0.503  1.3334  0.0041  1.3118
  649MOL0     H87572  11.796   4.827   0.544 -0.1316  0.4895 -0.4964
  649MOL0     H87573  11.710   4.975   0.760  0.2917  0.5123 -0.2075
  649MOL0     H87574  11.819   5.094   0.688  0.6261 -0.2177 -1.2432
  649MOL0     H87575  12.103   4.754   0.844 -3.4778  0.2987 -3.9347
  649MOL0     H87576  12.327   4.818   0.894  0.8369 -0.2540  0.6770
  649MOL0     H87577  12.743   4.980   0.755 -1.5108  0.3664 -0.6887
  649MOL0     H87578  12.975   5.068   0.850 -0.9213 -1.5341 -2.4164
  649MOL0     H87579  12.987   5.261   1.265  1.0417  0.2185  1.4205
  649MOL0     H87580  12.984   5.092   1.291 -3.5154 -0.4415 -1.3379
  649MOL0     H87581  13.213   5.176   1.359  3.8595 -1.9531 -0.0646
  649MOL0     H87582  13.231   5.083   1.217 -2.5719 -1.0876  1.4193
  649MOL0     H87583  13.251   5.241   1.071 -0.8347 -0.6147 -0.0572
  649MOL0     H87584  13.198   5.378   1.167  1.9237  0.9524 -1.0800
  649MOL0     H87585  13.400   5.330   1.318 -2.2859 -0.1094  0.1590
  649MOL0     H87586  13.427   5.420   1.158 -3.6175  1.0948 -0.9354
  649MOL0     H87587  13.483   5.176   1.064 -1.3262 -2.2812  0.4934
  649MOL0     H87588  13.472   5.130   1.230  1.2238 -1.8013 -1.9336
  649MOL0     H87589  13.664   5.353   1.148  0.9302  0.5536  1.1934
  649MOL0     H87590  13.633   5.279   1.311  2.0493 -2.1434  0.3141
  649MOL0     H87591  13.798   5.172   1.084  2.8699 -2.4200  0.5620
  649MOL0     H87592  13.715   5.054   1.190 -1.9956  0.3439 -1.7650
  649MOL0     H87593  13.844   5.164   1.383  0.5748 -0.2644 -0.3918
  649MOL0     H87594  13.955   5.121   1.245  1.1606  0.1496  0.3089
  649MOL0     H87595  12.772   5.141   1.231 -3.8521 -2.4841  1.1826
  649MOL0     H87596  12.564   5.061   1.141 -0.6893  1.5552 -0.0267
  649MOL0     H87597  12.231   5.225   0.772 -0.1383  0.9171  3.5909
  649MOL0     H87598  12.002   5.153   0.727  0.7404  0.4003  1.3988
  649MOL0     H87599  10.060   4.928   0.326 -1.8776  0.9910 -0.4796
  649MOL0     H87600   9.869   4.796   0.316  2.9996  0.8788  1.5079
  649MOL0     H87601   9.714   4.309  -0.098  0.2492 -0.5863  1.4307
  649MOL0     H87602   9.500   4.250  -0.165  1.9735 -0.6445 -0.1346
  649MOL0     H87603   9.057   4.365  -0.021 -0.5109 -0.0416 -0.2941
  649MOL0     H87604   9.147   4.508   0.042  2.3687 -0.5429  2.5626
  649MOL0     H87605   9.217   4.349   0.239 -0.7821  3.0875  1.8973
  649MOL0     H87606   9.143   4.222   0.157  2.3677  0.5955  1.0445
  649MOL0     H87607   8.920   4.292   0.209  2.1366 -0.4768 -3.0201
  649MOL0     H87608   8.956   4.464   0.234 -0.9703  0.9015  1.7833
  649MOL0     H87609   9.068   4.255   0.425 -2.6666 -0.9011  1.3229
  649MOL0     H87610   9.093   4.428   0.426  0.6272 -1.2920 -1.2148
  649MOL0     H87611   8.712   4.462   0.581  0.6355 -0.1727  1.9164
  649MOL0     H87612   9.336   4.524   0.141  0.4935  3.7097 -1.1608
  649MOL0     H87613   9.599   4.683   0.242  0.6110  0.1598  1.5651
  649MOL0     H87614   9.483   4.578   0.324  1.3579  0.3171  1.9172
  649MOL0     H87615   9.654   4.534   0.320 -1.1192  1.4470  2.4174
  650MOL0     O87616   8.768   9.744   8.843 -0.2344 -0.2592  0.3881
  650MOL0     C87617   8.697   9.764   8.940  0.1195  0.1741 -0.0823
  650MOL0     O87618   8.735   9.831   9.057  0.6566  0.0345  1.3000
  650MOL0     C87619   8.871   9.864   9.068  0.3651 -0.6574  0.4588
  650MOL0     C87620   8.970   9.776   9.113  0.1162  0.5368 -0.5271
  650MOL0     C87621   9.105   9.813   9.107  0.2019  0.0819 -0.0633
  650MOL0     C87622   9.133   9.943   9.060  0.2201 -0.8021  0.6075
  650MOL0     O87623   9.260   9.993   9.078  0.2683  0.6789 -0.4127
  650MOL0     C87624   9.350   9.922   9.172 -0.4886 -0.1819  0.4598
  650MOL0     C87625   9.474  10.004   9.191 -1.0624  0.3160 -0.4155
  650MOL0     C87626   9.580   9.922   9.268 -0.8551  0.0007  0.3709
  650MOL0     C87627   9.714   9.978   9.279 -0.1312  0.4620 -0.1603
  650MOL0     C87628   9.813   9.873   9.342  0.1405 -0.3448 -0.4082
  650MOL0     C87629   9.938   9.948   9.383 -0.5426  0.4139  0.8029
  650MOL0     C87630  10.043   9.837   9.429  0.0297 -0.7108  0.5421
  650MOL0     C87631  10.039   9.789   9.571 -0.5410  0.4393  0.3024
  650MOL0     N87632  10.157   9.698   9.581  0.6412  0.6899 -0.1822
  650MOL0     C87633  10.280   9.754   9.606 -0.3608 -0.3063  0.3107
  650MOL0     C87634  10.357   9.645   9.620  0.5525 -0.5813 -0.9277
  650MOL0     C87635  10.503   9.660   9.618 -0.3577 -0.3361 -0.8160
  650MOL0     C87636  10.575   9.529   9.587 -1.0592 -0.4646  0.4164
  650MOL0     C87637  10.724   9.555   9.532 -0.2005 -0.5947 -0.6278
  650MOL0     C87638  10.777   9.438   9.442 -0.0400 -1.0085  0.2410
  650MOL0     O87639  10.907   9.475   9.391  0.3558  0.3946  0.6490
  650MOL0     C87640  11.031   9.405   9.410  0.6927 -0.6463 -0.0891
  650MOL0     C87641  11.144   9.466   9.354  0.0349 -0.1367  0.9300
  650MOL0     C87642  11.273   9.404   9.361  0.3125 -0.5541 -0.0371
  650MOL0     C87643  11.294   9.288   9.437  0.0366 -0.5457  0.1734
  650MOL0     C87644  11.424   9.227   9.455 -0.1024 -0.2240 -0.2178
  650MOL0     O87645  11.525   9.284   9.384  0.1942  0.3589  0.3466
  650MOL0     C87646  11.646   9.237   9.415 -0.1324 -0.8281  1.1240
  650MOL0     C87647  11.716   9.152   9.332  0.2093  0.4802 -0.4052
  650MOL0     C87648  11.853   9.122   9.365 -0.4593 -0.1531 -0.2233
  650MOL0     C87649  11.914   9.183   9.474 -0.3231 -0.1593  0.3482
  650MOL0     O87650  12.052   9.160   9.512  0.8527 -0.6156 -0.7487
  650MOL0     C87651  12.109   9.037   9.470  0.6276  0.7862  0.1604
  650MOL0     C87652  12.236   9.023   9.558 -0.4260 -0.0537 -0.7573
  650MOL0     C87653  12.363   9.100   9.508 -0.3544  0.0272 -1.3335
  650MOL0     C87654  12.473   9.081   9.607  0.0169 -0.0254 -0.6244
  650MOL0     C87655  12.600   9.140   9.562 -0.4997 -0.3530 -0.2479
  650MOL0     C87656  12.669   9.071   9.442  0.6686  0.1981  0.4265
  650MOL0     C87657  12.811   9.109   9.416  0.0358  0.1301 -1.1358
  650MOL0     C87658  12.893   8.999   9.335  0.3029  0.2382  0.4575
  650MOL0    Cl87659  13.074   9.019   9.347  0.2122  0.1918  0.0931
  650MOL0     C87660  11.841   9.267   9.548 -0.8557  0.1731 -0.1246
  650MOL0     C87661  11.710   9.292   9.522 -0.4310  0.1111 -0.2240
  650MOL0     O87662  11.439   9.139   9.541  0.1397  0.0325  0.0081
  650MOL0     C87663  11.180   9.236   9.504  0.4340  0.1221  0.0430
  650MOL0     C87664  11.046   9.288   9.490 -0.1826 -0.2032 -0.2153
  650MOL0     N87665  10.293   9.529   9.592  0.3936 -0.5235 -0.2920
  650MOL0     N87666  10.174   9.564   9.558  0.1152  0.5869 -0.6702
  650MOL0     C87667   9.032  10.033   9.008 -0.5992 -0.0992  0.8543
  650MOL0     C87668   8.901   9.990   9.015  0.4288  0.4130  0.1547
  650MOL0     C87669   8.556   9.728   8.934 -0.1862 -0.0423 -0.4845
  650MOL0     C87670   8.518   9.627   8.842  0.2263 -0.7812 -0.2557
  650MOL0     C87671   8.386   9.582   8.831  0.2204 -0.1530  0.3157
  650MOL0     C87672   8.281   9.647   8.899 -0.4999  0.9049 -0.3533
  650MOL0     O87673   8.149   9.607   8.887 -0.5716  0.2133 -0.4199
  650MOL0     C87674   8.081   9.670   8.780 -0.1769  0.8724 -0.8616
  650MOL0     C87675   8.039   9.813   8.792 -0.9432  0.3662 -0.4951
  650MOL0     C87676   8.146   9.921   8.757 -0.2438 -0.1979  0.0115
  650MOL0     C87677   8.158  10.027   8.872  0.9894 -0.0844 -0.3099
  650MOL0     C87678   8.037  10.122   8.861 -1.3063  1.1954  0.7532
  650MOL0     C87679   7.958  10.211   8.890  0.4213  0.2019  0.6499
  650MOL0     C87680   8.317   9.740   8.991  0.8122 -0.6540 -0.2489
  650MOL0     C87681   8.448   9.793   9.005  0.3461 -0.3213  0.2133
  650MOL0     C87682   8.458   9.919   9.094  1.0062  0.1372 -0.0025
  650MOL0     H87683   8.954   9.673   9.143 -1.1042  1.7444  3.5003
  650MOL0     H87684   9.185   9.746   9.137 -0.9592 -1.3162 -0.0076
  650MOL0     H87685   9.304   9.907   9.270  2.3422 -3.5592  1.4533
  650MOL0     H87686   9.378   9.818   9.155 -0.3261 -0.6091  2.9327
  650MOL0     H87687   9.456  10.102   9.237  0.4824  0.6789 -0.5530
  650MOL0     H87688   9.527  10.026   9.097 -0.6681  0.4001 -0.1730
  650MOL0     H87689   9.588   9.821   9.227  0.6904 -0.1397  0.9253
  650MOL0     H87690   9.545   9.925   9.371  0.6681 -0.3753  0.9230
  650MOL0     H87691   9.761   9.995   9.182 -0.6566 -1.6294 -0.8323
  650MOL0     H87692   9.715  10.071   9.337  2.4222  2.4922 -3.1200
  650MOL0     H87693   9.769   9.821   9.428  1.3813  1.7257  1.5798
  650MOL0     H87694   9.828   9.799   9.264 -0.7010 -1.6002  0.5787
  650MOL0     H87695   9.975  10.008   9.299  1.6746  0.7060  1.9142
  650MOL0     H87696   9.926  10.021   9.464 -0.5752  2.7055 -1.1511
  650MOL0     H87697  10.139   9.879   9.399 -0.9203 -0.8701 -3.2421
  650MOL0     H87698  10.028   9.752   9.362  0.8065  0.3915 -1.0934
  650MOL0     H87699  10.045   9.874   9.641 -1.4375  0.4477  0.3752
  650MOL0     H87700   9.947   9.734   9.590 -0.8422  0.0603 -1.9740
  650MOL0     H87701  10.310   9.858   9.599  0.5859 -0.6852 -3.2974
  650MOL0     H87702  10.541   9.745   9.560  0.3310 -0.2117 -0.2051
  650MOL0     H87703  10.530   9.674   9.723  1.1407 -3.0116 -0.7531
  650MOL0     H87704  10.573   9.474   9.682  0.1554  1.3487  1.5684
  650MOL0     H87705  10.526   9.469   9.511 -0.0184 -0.7419 -0.0576
  650MOL0     H87706  10.791   9.566   9.617  0.8441 -1.6920 -1.2785
  650MOL0     H87707  10.729   9.651   9.478 -0.9516  1.2216  2.2815
  650MOL0     H87708  10.713   9.428   9.354  2.5436  1.5532 -2.1709
  650MOL0     H87709  10.777   9.344   9.498  0.5579 -0.3492  1.3987
  650MOL0     H87710  11.146   9.553   9.288  1.5636 -2.7563 -2.8662
  650MOL0     H87711  11.355   9.453   9.309 -0.4798  0.4584 -0.3849
  650MOL0     H87712  11.669   9.112   9.243  1.8845 -0.4192 -0.9193
  650MOL0     H87713  11.907   9.053   9.301 -1.0739 -0.5953 -0.2674
  650MOL0     H87714  12.043   8.949   9.478  0.4610  0.9640  0.8074
  650MOL0     H87715  12.145   9.051   9.367  0.3763 -1.2318 -0.2475
  650MOL0     H87716  12.203   9.062   9.655 -0.3167  1.8133 -1.4260
  650MOL0     H87717  12.263   8.917   9.564  1.4546  0.2432 -2.7735
  650MOL0     H87718  12.377   9.063   9.406 -0.1192  2.9323 -2.4416
  650MOL0     H87719  12.340   9.207   9.514 -3.1337 -0.5551  0.4468
  650MOL0     H87720  12.489   8.973   9.612 -1.0216 -0.2904 -2.1370
  650MOL0     H87721  12.433   9.138   9.692 -4.2187 -0.5014 -2.0355
  650MOL0     H87722  12.664   9.131   9.650 -2.0971 -0.3227  0.9651
  650MOL0     H87723  12.583   9.247   9.543  0.6266  0.3573  2.2574
  650MOL0     H87724  12.671   8.963   9.457 -1.8230 -0.6309 -3.5796
  650MOL0     H87725  12.603   9.079   9.355 -0.3485 -0.5229  1.1101
  650MOL0     H87726  12.858   9.110   9.514  1.9631  0.6122 -2.0252
  650MOL0     H87727  12.819   9.214   9.384 -3.4880  2.1629  3.3089
  650MOL0     H87728  12.873   8.904   9.385  1.2513  0.1331  0.6506
  650MOL0     H87729  12.857   8.991   9.232  1.7414  1.4604 -0.1871
  650MOL0     H87730  11.897   9.322   9.623 -1.4501  1.5391 -0.6432
  650MOL0     H87731  11.652   9.349   9.593  0.9874  0.4245  0.7377
  650MOL0     H87732  11.192   9.148   9.566  1.1029 -0.5090 -0.9471
  650MOL0     H87733  10.956   9.248   9.535 -0.4318 -1.2572 -1.5918
  650MOL0     H87734   9.063  10.124   8.957  1.3423 -0.2712  1.6291
  650MOL0     H87735   8.819  10.049   8.974 -0.2137  0.1285  0.9947
  650MOL0     H87736   8.601   9.577   8.793  1.3782  1.0654 -0.2735
  650MOL0     H87737   8.365   9.495   8.770 -0.8866 -0.0722  0.5591
  650MOL0     H87738   7.988   9.617   8.758 -0.4150  1.3398 -1.0093
  650MOL0     H87739   8.137   9.666   8.686 -2.2793  0.9309 -2.2036
  650MOL0     H87740   7.982   9.833   8.884  0.0690  0.7174  0.0747
  650MOL0     H87741   7.973   9.821   8.705  0.3897  0.5469 -1.5231
  650MOL0     H87742   8.117   9.965   8.661  0.8360 -1.4788 -0.9436
  650MOL0     H87743   8.236   9.863   8.737 -1.7098 -1.8789 -2.3299
  650MOL0     H87744   8.145   9.971   8.965  0.1617 -4.6421 -2.8762
  650MOL0     H87745   8.255  10.078   8.875  2.7730 -3.1483  3.3396
  650MOL0     H87746   7.891  10.294   8.897 -2.6628 -1.9688 -1.0452
  650MOL0     H87747   8.234   9.779   9.048  1.0999  1.8554 -1.4276
  650MOL0     H87748   8.445   9.879   9.194  0.6737  1.6731  0.5953
  650MOL0     H87749   8.554   9.972   9.091  1.4767 -0.2850  3.6996
  650MOL0     H87750   8.373   9.987   9.081 -0.4152 -1.0882  2.3283
  651MOL0     O87751   1.980   9.265   3.974  0.5224  0.4828 -0.4976
  651MOL0     C87752   1.903   9.364   3.953  0.0148 -0.6149  0.0294
  651MOL0     O87753   1.948   9.485   3.913 -0.0533  0.7403  0.1867
  651MOL0     C87754   2.077   9.493   3.866 -0.2868  0.1230 -0.0221
  651MOL0     C87755   2.163   9.556   3.957  0.2460 -0.2423 -0.4723
  651MOL0     C87756   2.296   9.583   3.912 -0.3730 -0.0810  0.8533
  651MOL0     C87757   2.352   9.538   3.790  0.6049  0.2344 -1.3424
  651MOL0     O87758   2.479   9.570   3.769 -0.7563  0.1748  0.3043
  651MOL0     C87759   2.559   9.480   3.688 -0.4091 -0.8502  0.3239
  651MOL0     C87760   2.706   9.494   3.730 -0.0504 -0.9060 -0.2057
  651MOL0     C87761   2.807   9.417   3.650 -0.4127  0.2118 -0.5931
  651MOL0     C87762   2.948   9.465   3.695  0.1699  0.6881  0.0387
  651MOL0     C87763   3.050   9.383   3.613  0.2058 -0.3914  0.2873
  651MOL0     C87764   3.197   9.403   3.673 -0.0147 -0.0102 -0.9061
  651MOL0     C87765   3.300   9.309   3.606 -0.5741  0.4683 -0.4307
  651MOL0     C87766   3.446   9.328   3.666 -0.5747 -0.0847  0.2891
  651MOL0     N87767   3.467   9.278   3.803 -0.6375 -0.0719 -0.4349
  651MOL0     C87768   3.374   9.191   3.865 -0.4001 -0.1540  0.3166
  651MOL0     C87769   3.446   9.136   3.969  0.0874  0.0422  0.0634
  651MOL0     C87770   3.408   9.027   4.061  0.1286  0.3088 -0.0732
  651MOL0     C87771   3.389   9.070   4.202 -0.0534  0.6851 -0.5201
  651MOL0     C87772   3.333   8.949   4.282  0.3702 -0.0179 -0.9345
  651MOL0     C87773   3.198   8.985   4.358  0.4065 -0.5983  0.0094
  651MOL0     O87774   3.154   8.873   4.434 -0.5116 -0.0969  0.3441
  651MOL0     C87775   3.029   8.873   4.482  0.1537  0.3012 -0.0985
  651MOL0     C87776   2.965   8.983   4.543 -0.8012  0.1517 -0.7057
  651MOL0     C87777   2.832   8.987   4.572 -0.3077  0.8558 -0.3439
  651MOL0     C87778   2.751   8.868   4.551  0.3653  0.2008 -0.1682
  651MOL0     C87779   2.608   8.873   4.594 -0.6481  0.0241  0.5545
  651MOL0     O87780   2.542   8.759   4.577  0.6465 -0.6138 -0.3139
  651MOL0     C87781   2.409   8.747   4.627  0.3967 -0.3812 -0.5598
  651MOL0     C87782   2.382   8.794   4.755 -0.6782  0.2143 -0.3694
  651MOL0     C87783   2.256   8.764   4.809 -0.0509 -0.7396 -0.2511
  651MOL0     C87784   2.154   8.690   4.736  0.3774  0.3236  0.0156
  651MOL0     O87785   2.018   8.671   4.770 -0.1584 -0.6310 -0.4307
  651MOL0     C87786   1.966   8.760   4.880  0.4082  0.1932  0.1396
  651MOL0     C87787   1.820   8.718   4.910  1.0308  0.0719 -1.0400
  651MOL0     C87788   1.728   8.754   4.788 -0.2683  0.0544 -0.8257
  651MOL0     C87789   1.590   8.699   4.818  0.6218 -0.4024 -0.6645
  651MOL0     C87790   1.503   8.707   4.686  0.0688 -0.5977 -0.3293
  651MOL0     C87791   1.364   8.667   4.722  0.4902  0.7339 -0.5773
  651MOL0     C87792   1.271   8.703   4.618  0.9115 -0.4880  0.1568
  651MOL0     C87793   1.148   8.616   4.613 -0.3092 -0.3608  0.5258
  651MOL0    Cl87794   1.047   8.702   4.484  0.3758 -0.3342  0.2623
  651MOL0     C87795   2.187   8.638   4.609  0.6509  0.4197 -0.0972
  651MOL0     C87796   2.312   8.670   4.564  0.4779  0.3666  0.0142
  651MOL0     O87797   2.560   8.973   4.645  0.0039 -0.2513 -0.1290
  651MOL0     C87798   2.814   8.750   4.494  0.3013 -0.1521  0.9036
  651MOL0     C87799   2.956   8.751   4.464  0.2341 -0.0644 -0.7103
  651MOL0     N87800   3.570   9.181   3.963 -0.0791  0.0339 -0.3739
  651MOL0     N87801   3.586   9.264   3.875  0.1290 -0.4345  0.4086
  651MOL0     C87802   2.263   9.477   3.708  0.5487 -0.3004  0.1351
  651MOL0     C87803   2.128   9.457   3.741  0.3422 -0.4229 -0.5615
  651MOL0     C87804   1.759   9.362   3.971 -0.1246  0.7313  0.5878
  651MOL0     C87805   1.678   9.361   3.855 -0.3236 -0.5591  0.7312
  651MOL0     C87806   1.534   9.343   3.866 -0.0951  0.8567 -0.0360
  651MOL0     C87807   1.474   9.341   3.994  0.6141  0.6508 -0.4384
  651MOL0     O87808   1.339   9.346   4.026  0.0727  0.7698  0.0478
  651MOL0     C87809   1.257   9.417   3.933  0.3929  0.6243 -0.7252
  651MOL0     C87810   1.189   9.312   3.847  0.7853  0.3405  0.0374
  651MOL0     C87811   1.079   9.373   3.752  0.8326  0.6885  0.1842
  651MOL0     C87812   1.035   9.283   3.640 -0.2546  0.1554  0.5334
  651MOL0     C87813   1.123   9.281   3.521  0.5905 -0.6831 -0.3573
  651MOL0     C87814   1.174   9.259   3.414  0.4599 -0.8415 -0.2816
  651MOL0     C87815   1.557   9.337   4.111  0.1220  0.6993  0.6270
  651MOL0     C87816   1.696   9.350   4.097  0.1882  0.1165  0.7307
  651MOL0     C87817   1.784   9.357   4.222  0.8463  0.1559  0.3515
  651MOL0     H87818   2.122   9.593   4.050  0.4079  1.0988 -0.9083
  651MOL0     H87819   2.357   9.656   3.965  1.5769 -0.1313 -1.1677
  651MOL0     H87820   2.535   9.373   3.685  0.1595 -1.0253 -3.4361
  651MOL0     H87821   2.547   9.514   3.585  2.8421 -1.4442 -0.3709
  651MOL0     H87822   2.718   9.466   3.835  1.5689 -1.6551 -0.5626
  651MOL0     H87823   2.734   9.600   3.732 -1.3626 -0.5282 -0.7561
  651MOL0     H87824   2.794   9.426   3.542  0.8543  1.5416 -0.6588
  651MOL0     H87825   2.809   9.310   3.672  0.2238  0.1118 -1.1259
  651MOL0     H87826   2.954   9.567   3.657  0.0152 -0.0030 -1.9607
  651MOL0     H87827   2.963   9.465   3.803 -0.8019 -0.1544  0.1937
  651MOL0     H87828   3.036   9.275   3.627  0.7415 -0.5130 -0.0922
  651MOL0     H87829   3.051   9.415   3.509  3.0765  1.4347  0.7645
  651MOL0     H87830   3.230   9.508   3.665  1.9461 -0.5021  0.1434
  651MOL0     H87831   3.176   9.382   3.778 -1.4407  1.2521 -0.9043
  651MOL0     H87832   3.295   9.330   3.499 -1.8599  1.5667 -0.1872
  651MOL0     H87833   3.282   9.205   3.632  1.1159  0.3257  0.3164
  651MOL0     H87834   3.516   9.267   3.608  0.0846  0.8392  0.0842
  651MOL0     H87835   3.479   9.432   3.655  1.9082 -0.7398  0.8768
  651MOL0     H87836   3.273   9.171   3.831  0.7262 -1.2306 -2.7075
  651MOL0     H87837   3.324   8.982   4.006  1.8725  2.5826 -5.2552
  651MOL0     H87838   3.484   8.949   4.064 -0.2623 -0.0893 -0.3550
  651MOL0     H87839   3.483   9.113   4.239  0.2279  1.1412 -1.7213
  651MOL0     H87840   3.321   9.155   4.212 -3.0645 -1.8848  3.6621
  651MOL0     H87841   3.408   8.926   4.358  1.4127  1.6126 -1.4295
  651MOL0     H87842   3.308   8.864   4.217  0.3692 -0.2476 -0.6327
  651MOL0     H87843   3.120   9.019   4.290  0.4361 -1.6687 -0.5861
  651MOL0     H87844   3.223   9.061   4.433  0.2427 -0.1034 -0.4365
  651MOL0     H87845   3.010   9.080   4.560  0.5929 -0.5052 -0.5664
  651MOL0     H87846   2.793   9.079   4.613  1.5728  1.5349  0.0379
  651MOL0     H87847   2.456   8.848   4.813 -2.6382  0.1957  2.3527
  651MOL0     H87848   2.244   8.799   4.911  2.1808  1.8933 -0.7869
  651MOL0     H87849   2.029   8.749   4.968 -0.2433 -3.3739  0.2900
  651MOL0     H87850   1.970   8.866   4.854  0.6374  0.0778 -0.3129
  651MOL0     H87851   1.825   8.610   4.928  0.5913  0.6565  3.6584
  651MOL0     H87852   1.784   8.759   5.005  0.0170 -2.8307 -0.0683
  651MOL0     H87853   1.719   8.863   4.779 -0.8686 -0.1063 -2.6518
  651MOL0     H87854   1.780   8.723   4.697  0.8311  3.5818 -1.5372
  651MOL0     H87855   1.539   8.760   4.894 -1.2737 -0.1511 -2.0738
  651MOL0     H87856   1.587   8.598   4.860 -0.9482  0.1899  0.7492
  651MOL0     H87857   1.537   8.632   4.614 -0.3459  1.7446 -3.1290
  651MOL0     H87858   1.494   8.808   4.645  0.7229 -0.7957 -0.9870
  651MOL0     H87859   1.363   8.562   4.755  0.5209  1.2471  1.1914
  651MOL0     H87860   1.343   8.724   4.813 -0.0706 -1.3638  0.6940
  651MOL0     H87861   1.315   8.686   4.520 -1.1961 -0.4547 -0.8552
  651MOL0     H87862   1.244   8.809   4.633  0.0277 -1.0320  3.1866
  651MOL0     H87863   1.178   8.513   4.594 -1.6659 -0.8341  0.8678
  651MOL0     H87864   1.105   8.624   4.714  0.3083  0.7421  0.7212
  651MOL0     H87865   2.116   8.586   4.546 -1.0641  1.4192  0.9121
  651MOL0     H87866   2.327   8.649   4.458  0.7330  2.3396 -0.3787
  651MOL0     H87867   2.755   8.659   4.484 -0.5043  0.3518  0.9925
  651MOL0     H87868   3.019   8.667   4.436 -0.5516 -0.8070 -0.2987
  651MOL0     H87869   2.296   9.447   3.609 -3.5387  1.1401 -1.9110
  651MOL0     H87870   2.065   9.397   3.675  0.5942  0.0555 -1.2544
  651MOL0     H87871   1.727   9.383   3.761 -0.7299  1.8888  1.0177
  651MOL0     H87872   1.476   9.345   3.774 -0.6466 -0.6888  0.2502
  651MOL0     H87873   1.312   9.489   3.871  1.1407  0.0161 -0.7967
  651MOL0     H87874   1.176   9.461   3.991 -0.0980 -1.3227  0.1458
  651MOL0     H87875   1.142   9.226   3.897  1.8879  0.1685  0.8109
  651MOL0     H87876   1.267   9.271   3.782 -1.0775 -2.5216 -0.5782
  651MOL0     H87877   1.126   9.467   3.720 -0.2229  0.8451 -0.9726
  651MOL0     H87878   0.993   9.395   3.815  0.5504 -0.5166  0.2316
  651MOL0     H87879   1.028   9.182   3.683  1.0327 -0.7529 -1.2253
  651MOL0     H87880   0.935   9.314   3.610  0.1644  0.7562 -0.2849
  651MOL0     H87881   1.211   9.247   3.314 -1.3690 -0.8958 -0.9832
  651MOL0     H87882   1.530   9.336   4.216 -1.3477 -0.2054  0.2758
  651MOL0     H87883   1.728   9.295   4.292 -0.2659  0.9253  0.1597
  651MOL0     H87884   1.890   9.328   4.220  0.8049 -0.1975  2.1246
  651MOL0     H87885   1.786   9.458   4.264  2.0171 -0.0797  0.9047
  652MOL0     O87886   0.482   6.996   4.704 -0.8923  0.0952  0.2085
  652MOL0     C87887   0.458   6.885   4.738 -0.3442 -0.0765  0.1630
  652MOL0     O87888   0.558   6.794   4.762 -0.7335  0.3967  0.8256
  652MOL0     C87889   0.692   6.828   4.753  0.3200 -0.4627 -0.3665
  652MOL0     C87890   0.748   6.956   4.778 -0.2092  1.2485 -0.5204
  652MOL0     C87891   0.883   6.970   4.757  0.0676 -0.3374  0.1855
  652MOL0     C87892   0.960   6.856   4.717 -0.4957  0.2729 -0.2598
  652MOL0     O87893   1.092   6.872   4.696  0.2999  0.4367 -0.3156
  652MOL0     C87894   1.137   6.981   4.614 -0.5619  1.3014  0.2324
  652MOL0     C87895   1.288   6.955   4.578 -0.4197  0.5259  0.5494
  652MOL0     C87896   1.379   6.916   4.699  0.0996 -0.9397  0.3750
  652MOL0     C87897   1.529   6.914   4.678 -0.2645 -0.1507  0.2258
  652MOL0     C87898   1.601   6.892   4.817  0.7135 -0.1875  0.1811
  652MOL0     C87899   1.743   6.947   4.813  0.5218  0.3330  0.2433
  652MOL0     C87900   1.846   6.875   4.720  0.3231  0.1429 -0.0684
  652MOL0     C87901   1.906   6.743   4.769  0.2556  0.5903  0.2800
  652MOL0     N87902   2.003   6.695   4.677  0.5149  0.8063  0.4717
  652MOL0     C87903   2.037   6.736   4.553 -0.8273 -0.3249  0.5790
  652MOL0     C87904   2.141   6.656   4.501 -0.0834 -0.8603  0.0223
  652MOL0     C87905   2.200   6.665   4.362  1.4044 -0.2436 -0.3258
  652MOL0     C87906   2.356   6.656   4.360  0.7620 -0.4213 -0.1368
  652MOL0     C87907   2.419   6.656   4.221  0.4881 -0.1995  0.5632
  652MOL0     C87908   2.559   6.709   4.223  0.2545  0.3573 -0.2509
  652MOL0     O87909   2.610   6.733   4.092 -0.4186 -0.2444  0.2070
  652MOL0     C87910   2.735   6.699   4.056  0.9640 -0.4970 -0.5844
  652MOL0     C87911   2.825   6.618   4.127  0.2325 -1.1374 -0.1111
  652MOL0     C87912   2.951   6.596   4.068  0.9033  0.2775 -0.5925
  652MOL0     C87913   2.986   6.644   3.942 -0.1128 -0.5442  0.1349
  652MOL0     C87914   3.126   6.618   3.899  0.1797 -1.0835  0.3954
  652MOL0     O87915   3.152   6.686   3.781  0.4987  0.0765  0.0636
  652MOL0     C87916   3.256   6.629   3.710  0.2808 -1.3314 -0.0451
  652MOL0     C87917   3.252   6.519   3.629  0.1999 -0.9277 -0.0583
  652MOL0     C87918   3.370   6.496   3.547  0.3564 -0.1023 -0.2359
  652MOL0     C87919   3.478   6.580   3.544  0.3860  0.4909  0.5460
  652MOL0     O87920   3.578   6.534   3.468  0.2425  0.1426  0.1336
  652MOL0     C87921   3.682   6.622   3.428  0.3462 -0.2232  0.8841
  652MOL0     C87922   3.787   6.530   3.373  0.0691  0.0121 -0.4638
  652MOL0     C87923   3.935   6.583   3.358 -0.0012  0.1009 -1.1305
  652MOL0     C87924   4.005   6.635   3.487  0.1183 -0.2192 -0.5109
  652MOL0     C87925   4.148   6.596   3.496 -0.2723 -0.0863  0.4151
  652MOL0     C87926   4.233   6.670   3.400  0.0578 -1.0724 -0.3378
  652MOL0     C87927   4.381   6.627   3.407 -0.1540 -0.0033 -0.0757
  652MOL0     C87928   4.464   6.676   3.533  0.6258 -0.3054 -0.0066
  652MOL0    Cl87929   4.458   6.853   3.559 -0.1303  0.1573  0.3291
  652MOL0     C87930   3.488   6.683   3.636 -0.4115 -0.0664 -0.1346
  652MOL0     C87931   3.372   6.712   3.715 -0.2419  0.5915 -0.8534
  652MOL0     O87932   3.196   6.522   3.945  0.5696  0.1627  0.4050
  652MOL0     C87933   2.891   6.705   3.861  0.6626 -0.7076  0.1756
  652MOL0     C87934   2.766   6.735   3.929 -0.4492  0.7925  0.6997
  652MOL0     N87935   2.173   6.570   4.602 -0.2388  0.1285 -0.2868
  652MOL0     N87936   2.088   6.591   4.698 -0.9652  0.0520  0.5830
  652MOL0     C87937   0.901   6.730   4.696 -0.9564 -0.5393 -0.9027
  652MOL0     C87938   0.765   6.717   4.718  0.5682 -0.0122 -0.0359
  652MOL0     C87939   0.312   6.848   4.750 -0.7924  0.0324  0.3746
  652MOL0     C87940   0.223   6.953   4.765 -0.0415 -0.0415 -0.5961
  652MOL0     C87941   0.089   6.934   4.784  0.1916 -0.4637  0.4724
  652MOL0     C87942   0.033   6.802   4.795 -0.3562 -0.1051  0.0384
  652MOL0     O87943  -0.103   6.789   4.794  1.4989 -0.1192  0.6350
  652MOL0     C87944  -0.201   6.891   4.830 -0.9410 -0.1386  0.0142
  652MOL0     C87945  -0.337   6.832   4.861  0.8103  0.0308  0.3643
  652MOL0     C87946  -0.434   6.946   4.901  0.6419 -0.4839 -0.0467
  652MOL0     C87947  -0.545   6.909   4.993 -0.0554 -0.3681 -0.3463
  652MOL0     C87948  -0.643   6.818   4.947  0.1622 -0.8705 -1.3180
  652MOL0     C87949  -0.742   6.753   4.931  0.0273  0.4947  0.2273
  652MOL0     C87950   0.120   6.691   4.788 -0.6521  0.3940 -1.0155
  652MOL0     C87951   0.264   6.715   4.761 -0.6275  0.2981 -0.4419
  652MOL0     C87952   0.337   6.590   4.742 -0.2963 -0.0992 -0.3887
  652MOL0     H87953   0.688   7.036   4.820 -1.8472 -0.8569  1.3264
  652MOL0     H87954   0.929   7.068   4.764  2.1551 -1.3633  1.7907
  652MOL0     H87955   1.069   6.994   4.529 -3.9375 -1.8821  2.0867
  652MOL0     H87956   1.134   7.074   4.672 -0.4641 -0.3689  3.1463
  652MOL0     H87957   1.327   7.048   4.534 -2.8133  1.2695 -0.1436
  652MOL0     H87958   1.295   6.876   4.503 -1.1066  0.2799  0.7348
  652MOL0     H87959   1.345   6.819   4.738 -1.1381 -1.2149 -1.2573
  652MOL0     H87960   1.365   6.996   4.773  2.4735  0.0052 -0.1312
  652MOL0     H87961   1.545   6.829   4.612 -2.2823  0.5209 -1.2374
  652MOL0     H87962   1.555   7.011   4.633 -2.4586  0.6488  0.5512
  652MOL0     H87963   1.544   6.942   4.897  2.1672  0.7432  0.6707
  652MOL0     H87964   1.592   6.785   4.842 -0.2940 -0.3977 -1.0027
  652MOL0     H87965   1.736   7.053   4.786 -1.3623  0.1242 -0.2522
  652MOL0     H87966   1.786   6.948   4.914 -0.3473  0.5325  0.6201
  652MOL0     H87967   1.919   6.955   4.704  0.8876 -0.2770  0.3964
  652MOL0     H87968   1.791   6.855   4.628 -0.2310 -0.2252  0.3420
  652MOL0     H87969   1.961   6.756   4.863  3.2756 -2.0318 -0.9399
  652MOL0     H87970   1.827   6.668   4.777 -0.6261  1.4697  0.0935
  652MOL0     H87971   1.996   6.815   4.492  2.5370 -1.1234 -3.1754
  652MOL0     H87972   2.152   6.593   4.295 -0.4691 -0.2804  0.9638
  652MOL0     H87973   2.163   6.759   4.320  4.8531  0.9261 -1.0633
  652MOL0     H87974   2.393   6.742   4.416 -1.1830  0.3676 -0.0160
  652MOL0     H87975   2.373   6.567   4.422 -4.9659 -0.6608  1.6819
  652MOL0     H87976   2.363   6.727   4.159  1.9692 -1.0163 -1.8172
  652MOL0     H87977   2.415   6.552   4.188 -0.1149 -0.5003  1.5456
  652MOL0     H87978   2.625   6.644   4.282  1.7916  0.4851 -1.7638
  652MOL0     H87979   2.564   6.801   4.281 -0.1103  0.2133  0.0175
  652MOL0     H87980   2.818   6.594   4.233 -1.7123 -0.4967 -0.0519
  652MOL0     H87981   3.029   6.547   4.125 -0.6625 -1.9794 -0.2724
  652MOL0     H87982   3.163   6.457   3.628  1.1540 -2.3791  0.9156
  652MOL0     H87983   3.372   6.407   3.485  0.5167  0.1802 -0.6356
  652MOL0     H87984   3.649   6.691   3.349 -2.9675  0.9793  3.1326
  652MOL0     H87985   3.717   6.677   3.516 -2.3933  1.0864  1.2664
  652MOL0     H87986   3.792   6.439   3.432 -2.0926 -1.8754 -2.9295
  652MOL0     H87987   3.748   6.496   3.276 -3.3271 -0.6119  0.9752
  652MOL0     H87988   3.992   6.500   3.316  0.7830 -0.6566  1.2727
  652MOL0     H87989   3.924   6.663   3.284  0.3134 -1.5100 -3.0089
  652MOL0     H87990   3.948   6.611   3.577  0.0678  1.6224 -0.0134
  652MOL0     H87991   3.995   6.744   3.487 -0.8728 -0.2539  2.1278
  652MOL0     H87992   4.159   6.489   3.481 -0.5090 -0.6413  3.4466
  652MOL0     H87993   4.186   6.602   3.599  0.2310 -1.7545  0.3515
  652MOL0     H87994   4.194   6.653   3.299  0.6806  0.6971 -0.9190
  652MOL0     H87995   4.243   6.779   3.403 -0.8426 -0.7777 -3.6681
  652MOL0     H87996   4.426   6.670   3.317 -0.1668 -4.2693 -2.3627
  652MOL0     H87997   4.388   6.518   3.401  0.6071  0.0028  0.5186
  652MOL0     H87998   4.412   6.626   3.616  1.2233 -1.7272 -0.4604
  652MOL0     H87999   4.566   6.638   3.523  1.1432  1.3711 -1.4238
  652MOL0     H88000   3.586   6.730   3.642 -0.2725 -0.4032  0.2830
  652MOL0     H88001   3.375   6.784   3.796  0.1499 -0.6357  0.2535
  652MOL0     H88002   2.920   6.738   3.762  0.9490 -0.9831  0.1654
  652MOL0     H88003   2.696   6.781   3.860  1.0808 -0.2015 -1.6405
  652MOL0     H88004   0.960   6.651   4.649 -1.4523 -1.9721  0.7494
  652MOL0     H88005   0.718   6.623   4.690  2.9609 -1.3471  0.2042
  652MOL0     H88006   0.258   7.056   4.756  0.2105  0.0571  1.1261
  652MOL0     H88007   0.028   7.020   4.810  0.0356 -0.5328  0.3405
  652MOL0     H88008  -0.217   6.969   4.755  0.3384 -0.6332 -0.8143
  652MOL0     H88009  -0.168   6.936   4.924 -4.0484  1.0946  0.6486
  652MOL0     H88010  -0.331   6.751   4.934 -1.4541 -1.2220 -0.7286
  652MOL0     H88011  -0.386   6.783   4.776 -2.1713  0.2675  1.8108
  652MOL0     H88012  -0.473   6.995   4.811 -0.6432 -2.7090 -0.7689
  652MOL0     H88013  -0.377   7.026   4.950  0.5311  0.9338 -2.0904
  652MOL0     H88014  -0.503   6.875   5.088  0.8107  1.4938 -0.0177
  652MOL0     H88015  -0.595   7.001   5.023  0.6943  0.2643 -0.9599
  652MOL0     H88016  -0.822   6.689   4.901  0.0280  1.5188 -2.2052
  652MOL0     H88017   0.088   6.589   4.802  3.1586 -0.9125 -0.6502
  652MOL0     H88018   0.409   6.592   4.661  0.3529  0.5504  0.1900
  652MOL0     H88019   0.395   6.571   4.833  0.1922  0.6100 -0.5468
  652MOL0     H88020   0.267   6.509   4.721 -1.0719  1.3715 -4.1986
  653MOL0     O88021   4.465  10.541  11.228 -0.4046  0.1352 -0.6719
  653MOL0     C88022   4.402  10.445  11.266  0.2332 -0.4243 -0.2087
  653MOL0     O88023   4.443  10.351  11.360  0.3526 -0.0669 -0.7978
  653MOL0     C88024   4.577  10.344  11.386 -0.2043 -0.0121  0.0237
  653MOL0     C88025   4.651  10.226  11.351  0.6690  0.1774 -0.5150
  653MOL0     C88026   4.783  10.218  11.387 -0.1742 -0.3529  0.3085
  653MOL0     C88027   4.848  10.316  11.452 -0.2912 -0.2675  0.5469
  653MOL0     O88028   4.986  10.306  11.477  0.1694 -0.6310 -0.0147
  653MOL0     C88029   5.070  10.420  11.509  1.3392  0.0162  1.4893
  653MOL0     C88030   5.212  10.379  11.507 -0.2252 -0.3145  0.3106
  653MOL0     C88031   5.274  10.352  11.367 -0.3158 -0.5755  0.0569
  653MOL0     C88032   5.297  10.205  11.323  0.1238  0.1798 -0.6036
  653MOL0     C88033   5.164  10.135  11.288 -0.4459 -0.5959  0.1555
  653MOL0     C88034   5.180  10.025  11.183  0.4583 -0.4128 -0.6671
  653MOL0     C88035   5.058   9.940  11.188 -0.2860 -0.1946  0.9593
  653MOL0     C88036   5.090   9.804  11.119  0.4095 -0.0732 -0.5799
  653MOL0     N88037   5.126   9.706  11.225  0.3451 -0.1814  0.5672
  653MOL0     C88038   5.055   9.588  11.265  0.1603  0.2590  0.2645
  653MOL0     C88039   5.124   9.535  11.373 -0.3653 -0.3720  0.1251
  653MOL0     C88040   5.098   9.411  11.461  0.0605 -0.1220 -0.3319
  653MOL0     C88041   5.146   9.413  11.603 -0.5029 -0.5954  0.3278
  653MOL0     C88042   5.074   9.519  11.689 -0.5153  0.0746  0.0583
  653MOL0     C88043   5.124   9.531  11.829  0.0599  0.6022  0.2992
  653MOL0     O88044   5.100   9.408  11.898 -0.1321  0.6279 -0.4034
  653MOL0     C88045   4.987   9.405  11.975  0.6033 -0.7659 -0.2386
  653MOL0     C88046   4.883   9.306  11.965 -0.0532  0.1621  0.3707
  653MOL0     C88047   4.761   9.335  12.030  0.2002 -0.2180  0.9509
  653MOL0     C88048   4.746   9.441  12.118 -0.6044 -0.3875 -0.3184
  653MOL0     C88049   4.622   9.462  12.194  0.4689  0.5095 -0.3220
  653MOL0     O88050   4.531   9.355  12.194 -0.1079 -0.1155  0.6502
  653MOL0     C88051   4.404   9.371  12.247  1.0710 -0.0978  0.1757
  653MOL0     C88052   4.385   9.424  12.374  0.0941 -0.3831 -0.8953
  653MOL0     C88053   4.256   9.436  12.429  0.5707 -0.1444 -0.4107
  653MOL0     C88054   4.147   9.389  12.352  0.7171  0.1870  0.4897
  653MOL0     O88055   4.027   9.395  12.411  0.2459  0.1522  0.4170
  653MOL0     C88056   3.941   9.503  12.358 -0.1109 -0.0021 -0.2640
  653MOL0     C88057   3.787   9.461  12.343  0.3564  0.2014 -0.7351
  653MOL0     C88058   3.722   9.407  12.473  0.1473  0.1437 -0.1081
  653MOL0     C88059   3.575   9.357  12.444 -0.8186  0.3763  0.1523
  653MOL0     C88060   3.507   9.271  12.554 -0.4835  0.2154 -0.6659
  653MOL0     C88061   3.526   9.323  12.696 -0.3222 -0.0381 -0.6595
  653MOL0     C88062   3.501   9.481  12.706  0.4372 -0.4587  0.2125
  653MOL0     C88063   3.353   9.532  12.698 -0.4895 -0.5559 -0.0695
  653MOL0    Cl88064   3.276   9.527  12.536  0.1583  0.0833  0.1881
  653MOL0     C88065   4.173   9.324  12.223  0.0193  0.4890  0.3232
  653MOL0     C88066   4.306   9.315  12.168  0.2376 -0.6676 -0.3300
  653MOL0     O88067   4.609   9.563  12.248  0.8249 -0.5575  0.3357
  653MOL0     C88068   4.851   9.525  12.134 -0.2302  0.3071  0.6173
  653MOL0     C88069   4.975   9.504  12.068 -0.3033 -0.7036 -0.1090
  653MOL0     N88070   5.239   9.619  11.397 -0.2839 -0.1137  0.6880
  653MOL0     N88071   5.231   9.720  11.315 -0.8722 -0.8929  0.1460
  653MOL0     C88072   4.782  10.440  11.469 -0.5834 -0.3147  0.0490
  653MOL0     C88073   4.650  10.452  11.441  0.2886  0.2065  0.3956
  653MOL0     C88074   4.264  10.438  11.204  0.7194 -0.2305  0.6873
  653MOL0     C88075   4.192  10.321  11.215 -0.5969 -0.3469 -0.5607
  653MOL0     C88076   4.057  10.305  11.187 -0.2428  0.1445  0.3945
  653MOL0     C88077   3.987  10.416  11.145  0.2500 -0.1483 -0.1814
  653MOL0     O88078   3.846  10.396  11.133 -0.4846  0.0712  0.0619
  653MOL0     C88079   3.771  10.516  11.148 -1.5777 -0.6998 -0.5044
  653MOL0     C88080   3.625  10.466  11.167 -0.0528  0.4322  0.5253
  653MOL0     C88081   3.527  10.581  11.186  0.6274 -0.4450 -0.6614
  653MOL0     C88082   3.390  10.520  11.194  0.0240  0.3507 -0.2369
  653MOL0     C88083   3.301  10.638  11.183  0.5589 -0.1188 -0.1304
  653MOL0     C88084   3.215  10.724  11.185 -0.4790 -0.0139  0.7363
  653MOL0     C88085   4.059  10.540  11.123  0.3690  0.0733  0.3076
  653MOL0     C88086   4.191  10.557  11.154 -0.2294  0.2864 -0.4483
  653MOL0     C88087   4.249  10.699  11.152  0.6309 -0.0771 -0.0487
  653MOL0     H88088   4.594  10.146  11.304 -1.1516 -0.0352  1.8977
  653MOL0     H88089   4.839  10.135  11.347  0.9361  0.0725  0.9437
  653MOL0     H88090   5.070  10.497  11.432 -1.3741  1.9790  3.2608
  653MOL0     H88091   5.037  10.465  11.603  0.0034  0.1589  0.9889
  653MOL0     H88092   5.222  10.283  11.559  4.4483 -0.2411  0.0234
  653MOL0     H88093   5.275  10.442  11.571  1.6243 -0.4981 -1.2372
  653MOL0     H88094   5.373  10.399  11.363 -1.5316  2.1241 -0.9109
  653MOL0     H88095   5.208  10.381  11.285 -1.3440 -1.9770  0.3468
  653MOL0     H88096   5.359  10.193  11.234  0.4727 -0.6447 -0.2583
  653MOL0     H88097   5.344  10.154  11.408 -0.1670  1.2621  0.2252
  653MOL0     H88098   5.106  10.095  11.372 -1.5397  0.9092  0.1645
  653MOL0     H88099   5.103  10.200  11.225 -1.7346 -2.5418 -0.6700
  653MOL0     H88100   5.201  10.075  11.088  1.7429  1.5582  0.5703
  653MOL0     H88101   5.272   9.974  11.213 -0.1216 -0.3530  1.3611
  653MOL0     H88102   4.983   9.995  11.131 -1.2758 -2.0485  0.3887
  653MOL0     H88103   5.029   9.909  11.288  0.5256 -0.4866  1.1176
  653MOL0     H88104   5.005   9.765  11.062  1.1875 -1.8874 -0.5650
  653MOL0     H88105   5.171   9.833  11.052  1.9531 -2.2413  0.2042
  653MOL0     H88106   4.967   9.547  11.217  1.0725 -0.1331 -1.1219
  653MOL0     H88107   4.992   9.384  11.469  0.1172  0.1795  4.0635
  653MOL0     H88108   5.139   9.329  11.402 -1.2253 -1.2406  0.2577
  653MOL0     H88109   5.117   9.313  11.635 -2.9138  0.1058  0.5721
  653MOL0     H88110   5.255   9.415  11.606 -0.3602 -1.3147 -2.3800
  653MOL0     H88111   4.965   9.506  11.683 -0.7233  1.5270  0.2176
  653MOL0     H88112   5.088   9.619  11.646 -0.8674  1.0014  2.0143
  653MOL0     H88113   5.073   9.620  11.865 -0.8420  0.5656 -0.8318
  653MOL0     H88114   5.232   9.544  11.823  0.4722 -0.7941  3.1636
  653MOL0     H88115   4.891   9.225  11.894  1.6597  3.0830 -3.0931
  653MOL0     H88116   4.681   9.262  12.032 -1.7330  1.6127 -2.0232
  653MOL0     H88117   4.466   9.472  12.427  0.6099 -0.4446 -1.6148
  653MOL0     H88118   4.228   9.480  12.525 -0.4514 -1.1905 -0.1948
  653MOL0     H88119   3.930   9.581  12.434 -1.7223 -1.7278  1.3926
  653MOL0     H88120   3.986   9.556  12.274  1.2780 -0.3932  0.2028
  653MOL0     H88121   3.724   9.541  12.304  1.3070  1.6691  0.6102
  653MOL0     H88122   3.788   9.379  12.270 -0.9632 -0.5034 -0.0062
  653MOL0     H88123   3.784   9.321  12.503  0.9010  0.8498  0.4179
  653MOL0     H88124   3.722   9.485  12.549 -1.3529  1.9143 -1.8312
  653MOL0     H88125   3.578   9.303  12.349 -0.9240  1.9101 -0.7635
  653MOL0     H88126   3.516   9.449  12.432 -0.7498  0.6807  1.9684
  653MOL0     H88127   3.532   9.165  12.543  1.3547  0.6653 -1.1950
  653MOL0     H88128   3.402   9.271  12.526 -0.1497 -2.0737 -2.2138
  653MOL0     H88129   3.456   9.266  12.759 -0.5829 -0.2088 -1.1023
  653MOL0     H88130   3.629   9.302  12.725 -0.5363 -1.3195 -0.7513
  653MOL0     H88131   3.558   9.538  12.632 -0.2080 -2.1460 -1.6842
  653MOL0     H88132   3.535   9.503  12.808  0.4621 -3.0302  0.8202
  653MOL0     H88133   3.296   9.478  12.774  0.0867 -2.7123 -1.1109
  653MOL0     H88134   3.360   9.637  12.729 -0.9873 -0.1088 -1.4053
  653MOL0     H88135   4.086   9.283  12.174 -0.0954 -2.3118  2.6349
  653MOL0     H88136   4.334   9.288  12.067 -0.5131  1.4803 -1.1804
  653MOL0     H88137   4.853   9.607  12.205 -1.5710  1.3250 -0.4545
  653MOL0     H88138   5.055   9.575  12.088  0.0722 -0.8173 -1.1536
  653MOL0     H88139   4.836  10.525  11.509 -1.4101  0.5014 -0.5066
  653MOL0     H88140   4.604  10.550  11.445 -1.0892 -0.1574 -3.1101
  653MOL0     H88141   4.243  10.234  11.255 -1.4250 -1.6139 -2.1362
  653MOL0     H88142   4.026  10.202  11.198  1.3282 -0.9357 -3.5672
  653MOL0     H88143   3.774  10.595  11.073 -0.2743 -0.7597 -0.5324
  653MOL0     H88144   3.798  10.559  11.245 -1.2183  0.1388 -0.9674
  653MOL0     H88145   3.636  10.396  11.250 -3.8927  1.1802  1.8459
  653MOL0     H88146   3.592  10.411  11.078 -0.0415  1.5762 -0.2012
  653MOL0     H88147   3.538  10.648  11.099  0.4369  2.4441  1.3950
  653MOL0     H88148   3.544  10.638  11.278 -2.1582  1.5888 -1.2704
  653MOL0     H88149   3.367  10.444  11.118 -3.7715  0.5591  0.4684
  653MOL0     H88150   3.376  10.466  11.288  0.9340  0.2685 -0.1470
  653MOL0     H88151   3.137  10.794  11.164 -0.2888  0.0641  0.2561
  653MOL0     H88152   4.011  10.632  11.091  1.4928  0.6417  0.2389
  653MOL0     H88153   4.171  10.768  11.118  0.4263 -0.6859 -0.8550
  653MOL0     H88154   4.277  10.727  11.254 -1.2938 -0.7943  0.7228
  653MOL0     H88155   4.334  10.695  11.084  0.5072 -1.0761 -0.1599
  654MOL0     O88156   0.052   0.351   6.747  0.0748  0.2389 -0.7851
  654MOL0     C88157   0.010   0.454   6.806 -0.0627  0.2857 -0.0107
  654MOL0     O88158   0.087   0.567   6.829 -0.0398 -0.0306 -0.2774
  654MOL0     C88159   0.208   0.571   6.765 -0.7946 -0.0499 -0.1215
  654MOL0     C88160   0.226   0.567   6.626  0.5134 -0.2827 -0.4205
  654MOL0     C88161   0.357   0.577   6.575 -0.2547  0.1111  0.2902
  654MOL0     C88162   0.464   0.585   6.662  0.7606 -0.2013  0.1208
  654MOL0     O88163   0.593   0.599   6.614  0.2562  0.3689 -0.4710
  654MOL0     C88164   0.671   0.714   6.663 -0.8526  0.5531  0.4759
  654MOL0     C88165   0.723   0.784   6.536  0.7821  0.0573 -0.5773
  654MOL0     C88166   0.634   0.903   6.486  0.0460 -0.1388 -0.2786
  654MOL0     C88167   0.511   0.847   6.429  0.6772 -0.0337  0.7722
  654MOL0     C88168   0.426   0.949   6.344 -0.2275 -0.0498 -1.0108
  654MOL0     C88169   0.275   0.926   6.347 -0.1391  0.1317  0.6300
  654MOL0     C88170   0.213   0.975   6.480  0.1847  0.1572 -0.0196
  654MOL0     C88171   0.063   0.937   6.483 -0.0019  0.4151  0.0463
  654MOL0     N88172   0.001   1.001   6.597  0.4497  0.1129  0.2126
  654MOL0     C88173  -0.022   0.948   6.722 -0.5342  0.3868 -0.2126
  654MOL0     C88174  -0.074   1.049   6.791 -0.1508 -0.2839 -0.1075
  654MOL0     C88175  -0.095   1.033   6.940 -0.4070 -0.0307 -0.1178
  654MOL0     C88176  -0.234   0.977   6.964  0.7201  0.6180  0.2862
  654MOL0     C88177  -0.249   0.926   7.101  0.3444 -1.5339  0.1390
  654MOL0     C88178  -0.400   0.890   7.109 -0.6348 -0.0109 -0.6568
  654MOL0     O88179  -0.444   0.821   6.994 -0.8109  0.0177  0.5324
  654MOL0     C88180  -0.575   0.787   6.979  0.3444  0.6567 -0.4445
  654MOL0     C88181  -0.673   0.797   7.089 -0.5293  0.7268  0.4410
  654MOL0     C88182  -0.799   0.747   7.071  0.3579  0.5343  0.1048
  654MOL0     C88183  -0.841   0.691   6.949  0.4411 -0.3971 -0.2338
  654MOL0     C88184  -0.973   0.624   6.938 -0.1674 -0.5163  0.1282
  654MOL0     O88185  -1.057   0.638   7.050 -0.6857 -0.2595  0.2346
  654MOL0     C88186  -1.189   0.596   7.041  0.5247  0.0874  0.7482
  654MOL0     C88187  -1.230   0.459   7.056 -0.5023 -0.1436  0.4639
  654MOL0     C88188  -1.367   0.432   7.050 -0.0746  0.6104 -0.9892
  654MOL0     C88189  -1.467   0.528   7.040 -0.8825  0.5926 -0.1646
  654MOL0     O88190  -1.602   0.493   7.045  0.5179 -0.3002 -0.2244
  654MOL0     C88191  -1.698   0.584   7.104  0.4960  0.3022  0.6618
  654MOL0     C88192  -1.836   0.515   7.122 -0.2780  0.1102  0.1115
  654MOL0     C88193  -1.945   0.587   7.198 -0.2495 -0.7671 -0.3892
  654MOL0     C88194  -2.060   0.492   7.249 -0.5874 -0.3947 -0.0294
  654MOL0     C88195  -2.190   0.555   7.264  0.5272 -0.6747  0.6987
  654MOL0     C88196  -2.291   0.445   7.308 -0.0097  0.2697  0.3637
  654MOL0     C88197  -2.431   0.482   7.315  0.2958 -0.3623  0.2357
  654MOL0     C88198  -2.452   0.609   7.387 -0.6010  0.3625 -0.2583
  654MOL0    Cl88199  -2.460   0.746   7.263 -0.0243 -0.1297  0.2317
  654MOL0     C88200  -1.427   0.658   7.027 -0.7672 -0.1819 -0.6812
  654MOL0     C88201  -1.291   0.697   7.031 -0.3081 -0.6567 -0.6884
  654MOL0     O88202  -1.000   0.577   6.828 -0.2652 -0.0217 -0.3189
  654MOL0     C88203  -0.753   0.688   6.841 -0.0698  0.4799  0.2526
  654MOL0     C88204  -0.624   0.731   6.853  0.3820 -0.4518 -0.6427
  654MOL0     N88205  -0.107   1.150   6.705 -0.1496 -0.9997  0.0370
  654MOL0     N88206  -0.071   1.112   6.592  0.4376  0.4078  0.0768
  654MOL0     C88207   0.440   0.590   6.798  0.1884  0.6426 -0.4321
  654MOL0     C88208   0.314   0.586   6.851 -0.1267 -0.8596  0.1509
  654MOL0     C88209  -0.124   0.442   6.865  0.9245  0.2392 -0.0822
  654MOL0     C88210  -0.217   0.345   6.815 -0.9712 -0.6401 -0.1308
  654MOL0     C88211  -0.336   0.308   6.880  0.7036  1.0342 -0.0687
  654MOL0     C88212  -0.374   0.382   6.995  0.2411  0.4010  0.8255
  654MOL0     O88213  -0.465   0.314   7.078  0.6505  0.6152  0.4760
  654MOL0     C88214  -0.546   0.395   7.159  0.1669 -0.7363  0.4496
  654MOL0     C88215  -0.669   0.314   7.204  0.2936 -0.7360  0.5019
  654MOL0     C88216  -0.768   0.285   7.078  0.3791 -0.4750  0.4566
  654MOL0     C88217  -0.867   0.172   7.111  0.4536 -0.2368  0.1572
  654MOL0     C88218  -0.940   0.130   6.988 -0.6331  0.0943 -1.0431
  654MOL0     C88219  -0.992   0.091   6.884  0.3403 -0.1776  0.6626
  654MOL0     C88220  -0.300   0.486   7.034 -0.8380 -0.0091 -0.7603
  654MOL0     C88221  -0.169   0.506   6.979  0.1069 -0.1135 -0.4438
  654MOL0     C88222  -0.076   0.602   7.061 -0.9773 -0.2478 -0.3205
  654MOL0     H88223   0.145   0.554   6.555  1.0115 -1.9076 -0.7379
  654MOL0     H88224   0.364   0.580   6.466  2.0009  2.5128  0.3991
  654MOL0     H88225   0.617   0.770   6.739  2.2415  3.1208  0.9658
  654MOL0     H88226   0.760   0.672   6.710 -0.3836 -1.0088 -1.6362
  654MOL0     H88227   0.712   0.711   6.456  0.9587 -0.1897 -0.3799
  654MOL0     H88228   0.827   0.820   6.534  0.8363  0.3953  2.4120
  654MOL0     H88229   0.698   0.962   6.420  2.9305 -2.6397  0.0844
  654MOL0     H88230   0.607   0.965   6.573  0.3831  1.0650 -1.0087
  654MOL0     H88231   0.518   0.758   6.366  2.5406  0.6315 -0.0289
  654MOL0     H88232   0.442   0.826   6.511 -2.0667 -0.1305 -1.3994
  654MOL0     H88233   0.437   1.055   6.371  1.4055  0.0443 -1.9096
  654MOL0     H88234   0.463   0.952   6.241  1.4830  0.4658 -0.4017
  654MOL0     H88235   0.227   0.991   6.272  1.3264  2.0318  1.2536
  654MOL0     H88236   0.248   0.822   6.329 -2.2100  0.4204  1.7465
  654MOL0     H88237   0.225   1.083   6.488  5.0995  0.0558 -2.2446
  654MOL0     H88238   0.260   0.933   6.570  2.5285  1.2276 -0.6699
  654MOL0     H88239   0.024   0.965   6.384 -0.1427  3.8273  0.9352
  654MOL0     H88240   0.054   0.829   6.491  0.0650  0.4015 -0.0512
  654MOL0     H88241   0.019   0.854   6.758 -3.0280  0.1778  2.4456
  654MOL0     H88242  -0.022   0.960   6.977  1.7531  0.4560 -3.1309
  654MOL0     H88243  -0.078   1.126   6.995  1.4559 -0.8326  0.7645
  654MOL0     H88244  -0.307   1.056   6.949  0.2575  0.4503  1.5863
  654MOL0     H88245  -0.245   0.891   6.897  1.4442  0.2707  0.5965
  654MOL0     H88246  -0.209   1.003   7.167  0.9840 -1.7383  0.0041
  654MOL0     H88247  -0.178   0.844   7.118  1.7768 -0.4628 -0.4931
  654MOL0     H88248  -0.451   0.987   7.110 -0.2278  0.2309 -2.0114
  654MOL0     H88249  -0.424   0.838   7.203 -1.6435 -1.4233 -1.6486
  654MOL0     H88250  -0.644   0.827   7.189  2.2557 -0.9475  0.2399
  654MOL0     H88251  -0.866   0.749   7.157  0.1679  2.2706 -0.0446
  654MOL0     H88252  -1.161   0.378   7.075  0.7352  1.2630  2.3276
  654MOL0     H88253  -1.395   0.327   7.055  1.5843  0.1932  1.5008
  654MOL0     H88254  -1.664   0.624   7.200 -0.1115  1.6809  0.3292
  654MOL0     H88255  -1.711   0.666   7.032 -3.1240 -1.4888 -0.9983
  654MOL0     H88256  -1.880   0.479   7.028 -2.8015  0.2061  1.1765
  654MOL0     H88257  -1.809   0.424   7.177  2.4511  0.6439 -0.2490
  654MOL0     H88258  -1.909   0.634   7.290 -1.0290 -1.6613  0.3959
  654MOL0     H88259  -1.986   0.667   7.136  3.1634  0.5735 -1.1530
  654MOL0     H88260  -2.030   0.457   7.348  0.1178 -2.6119 -0.9648
  654MOL0     H88261  -2.067   0.408   7.179 -1.1242 -2.5462  2.4635
  654MOL0     H88262  -2.226   0.584   7.165  0.5061 -1.9728  0.3041
  654MOL0     H88263  -2.193   0.647   7.323  3.2036  0.7206 -1.1005
  654MOL0     H88264  -2.277   0.361   7.239  1.5398  0.1167  0.8142
  654MOL0     H88265  -2.254   0.411   7.405  0.6635  0.2642  0.1161
  654MOL0     H88266  -2.491   0.407   7.368 -0.0611  0.2444  0.7001
  654MOL0     H88267  -2.487   0.486   7.221 -0.1300 -1.9394  0.3866
  654MOL0     H88268  -2.550   0.614   7.436  0.1672  2.2812  1.2019
  654MOL0     H88269  -2.375   0.623   7.463 -2.0400 -2.1677  1.8852
  654MOL0     H88270  -1.497   0.741   7.018 -0.3585  0.4977  1.7788
  654MOL0     H88271  -1.261   0.800   7.013  1.6834 -0.6900  1.9453
  654MOL0     H88272  -0.759   0.634   6.747  2.3209  0.3572  0.1083
  654MOL0     H88273  -0.559   0.718   6.767  0.2516 -3.4979 -0.3910
  654MOL0     H88274   0.525   0.608   6.863  0.8839 -1.2835 -0.7291
  654MOL0     H88275   0.296   0.592   6.958  0.9386 -0.0358  0.3074
  654MOL0     H88276  -0.184   0.289   6.727  5.3261  1.6359  0.2540
  654MOL0     H88277  -0.383   0.214   6.853  0.6781  0.4468  1.8516
  654MOL0     H88278  -0.572   0.483   7.099 -3.4559 -2.6457 -1.1462
  654MOL0     H88279  -0.496   0.438   7.246 -1.7222  3.1575 -0.1359
  654MOL0     H88280  -0.721   0.372   7.281 -0.6075  0.0771 -0.6828
  654MOL0     H88281  -0.630   0.226   7.256  0.2462 -1.1315 -0.1204
  654MOL0     H88282  -0.707   0.255   6.992 -0.7797 -0.0938 -0.5324
  654MOL0     H88283  -0.822   0.374   7.044  0.6877 -1.5034 -3.2354
  654MOL0     H88284  -0.819   0.080   7.145  1.8346 -0.6218 -2.5642
  654MOL0     H88285  -0.929   0.214   7.191  2.3740  2.4186  0.4137
  654MOL0     H88286  -1.030   0.067   6.787 -2.1496  2.5566  0.8344
  654MOL0     H88287  -0.333   0.533   7.126 -1.4819 -2.1043  0.1552
  654MOL0     H88288   0.019   0.549   7.073  0.4614  1.9374 -1.3405
  654MOL0     H88289  -0.057   0.701   7.017 -2.6168  1.8532  3.2440
  654MOL0     H88290  -0.115   0.619   7.161 -2.6789 -3.5419 -0.2936
  655MOL0     O88291   1.250   5.349   3.866 -0.2432 -0.0425 -0.1267
  655MOL0     C88292   1.229   5.304   3.976  0.5118  0.0564 -0.6820
  655MOL0     O88293   1.318   5.220   4.037 -0.8529  0.0549  0.2972
  655MOL0     C88294   1.438   5.189   3.977  0.1482 -0.4672 -0.5558
  655MOL0     C88295   1.541   5.284   3.991  0.2270 -0.7870  1.0447
  655MOL0     C88296   1.667   5.255   3.955  0.4630  1.0138 -0.4252
  655MOL0     C88297   1.701   5.127   3.910  0.0423  0.7146  0.3011
  655MOL0     O88298   1.835   5.106   3.898  0.4290  0.0373 -0.3103
  655MOL0     C88299   1.880   5.068   3.768  0.0817 -1.3666 -0.5085
  655MOL0     C88300   2.027   5.035   3.774 -0.1431  0.2342  0.5344
  655MOL0     C88301   2.109   5.158   3.761  0.2845 -0.2745 -0.3404
  655MOL0     C88302   2.258   5.136   3.765  0.4758  0.5907  0.3990
  655MOL0     C88303   2.346   5.257   3.753 -0.0838 -0.0775 -0.2951
  655MOL0     C88304   2.313   5.330   3.618 -0.8299  0.2549 -0.0282
  655MOL0     C88305   2.419   5.425   3.574  0.1246  0.1727 -1.0014
  655MOL0     C88306   2.504   5.391   3.451 -0.8964  0.0339 -0.0944
  655MOL0     N88307   2.569   5.261   3.465 -0.1353  0.1806  0.3131
  655MOL0     C88308   2.673   5.231   3.541  0.7403 -1.2191 -0.3766
  655MOL0     C88309   2.713   5.105   3.504  0.0842 -0.1174 -0.5942
  655MOL0     C88310   2.847   5.052   3.540 -0.0072 -0.1525 -0.3065
  655MOL0     C88311   2.925   4.981   3.428 -0.6696 -0.0718 -0.2508
  655MOL0     C88312   2.950   5.065   3.308 -0.6862  0.3628  0.1128
  655MOL0     C88313   3.060   5.011   3.210 -0.2329 -0.0332 -0.7170
  655MOL0     O88314   3.014   4.883   3.178  0.1286 -0.3766 -1.1099
  655MOL0     C88315   3.069   4.815   3.076  0.0024  0.8035  0.5122
  655MOL0     C88316   2.987   4.725   3.014 -0.0093 -0.3218  0.3391
  655MOL0     C88317   3.028   4.645   2.907 -0.1445 -0.1333 -0.0747
  655MOL0     C88318   3.171   4.659   2.865 -0.1464  0.4867 -0.0931
  655MOL0     C88319   3.233   4.589   2.747 -0.8811 -0.3101  0.5568
  655MOL0     O88320   3.373   4.584   2.739  0.1459  0.0920 -0.3238
  655MOL0     C88321   3.419   4.547   2.617  0.2443 -0.6480 -0.2655
  655MOL0     C88322   3.457   4.652   2.535  0.1393  0.3696 -0.1443
  655MOL0     C88323   3.502   4.625   2.410 -0.2920 -0.7044  0.1604
  655MOL0     C88324   3.510   4.496   2.351 -0.1693 -0.4060 -0.0651
  655MOL0     O88325   3.542   4.493   2.219  0.1529  0.7490 -0.3919
  655MOL0     C88326   3.491   4.380   2.134 -0.1039 -0.3115 -0.6033
  655MOL0     C88327   3.336   4.370   2.135 -0.5568  0.1076  0.4083
  655MOL0     C88328   3.270   4.243   2.179 -0.0416  0.3351  0.3481
  655MOL0     C88329   3.116   4.262   2.172 -0.5286  0.5863  0.0040
  655MOL0     C88330   3.039   4.145   2.230  0.5820  0.2694  0.2226
  655MOL0     C88331   2.891   4.180   2.233  0.1052 -0.0559 -0.0596
  655MOL0     C88332   2.796   4.058   2.275 -0.0356  0.1241 -0.0124
  655MOL0     C88333   2.660   4.060   2.204  0.7596 -0.3959  0.1904
  655MOL0    Cl88334   2.570   4.199   2.255  0.3847 -0.1928 -0.1165
  655MOL0     C88335   3.481   4.387   2.437  1.2965  0.8279 -0.6120
  655MOL0     C88336   3.433   4.414   2.565 -0.0898  0.2574 -0.1027
  655MOL0     O88337   3.150   4.543   2.670  0.0555 -0.0468  0.7060
  655MOL0     C88338   3.250   4.753   2.936 -0.0805 -0.5609  0.3643
  655MOL0     C88339   3.200   4.832   3.038 -0.3229 -0.2040  0.7375
  655MOL0     N88340   2.612   5.054   3.424  0.3248  0.3892 -0.4914
  655MOL0     N88341   2.533   5.154   3.387  0.5997 -0.2361 -0.0230
  655MOL0     C88342   1.598   5.035   3.896 -0.4230  0.2000  0.9108
  655MOL0     C88343   1.468   5.061   3.936  0.1834 -0.5196  0.5279
  655MOL0     C88344   1.093   5.320   4.037 -0.5504  0.0514 -0.5152
  655MOL0     C88345   0.987   5.373   3.966 -0.8823 -0.5877 -0.9364
  655MOL0     C88346   0.859   5.381   4.016  0.6769  0.1254  0.4545
  655MOL0     C88347   0.827   5.325   4.136 -1.2258  0.7322 -0.4954
  655MOL0     O88348   0.693   5.330   4.172  0.2037 -0.5843  0.2687
  655MOL0     C88349   0.657   5.281   4.301 -0.0716 -0.1207 -0.0406
  655MOL0     C88350   0.506   5.304   4.314 -0.0537  0.2930 -0.6005
  655MOL0     C88351   0.462   5.253   4.451 -1.0332 -0.2717 -0.0308
  655MOL0     C88352   0.317   5.295   4.474  0.2085 -0.3322 -0.8858
  655MOL0     C88353   0.281   5.268   4.620  0.1548  0.5280  1.0513
  655MOL0     C88354   0.247   5.242   4.731 -0.1314 -0.6219  0.4512
  655MOL0     C88355   0.934   5.265   4.215  0.6002 -0.0637 -0.5182
  655MOL0     C88356   1.066   5.262   4.163  0.2008 -0.0309 -0.0949
  655MOL0     C88357   1.169   5.212   4.261 -0.5878  0.4336  0.0424
  655MOL0     H88358   1.510   5.383   4.021 -2.2614 -0.7078 -1.4196
  655MOL0     H88359   1.748   5.324   3.972  0.4060  0.9624  0.0639
  655MOL0     H88360   1.820   4.982   3.738  1.7970 -2.4562 -0.9882
  655MOL0     H88361   1.858   5.154   3.704 -1.2451 -1.7965 -0.6669
  655MOL0     H88362   2.050   4.965   3.693 -0.4446  1.1875 -0.3978
  655MOL0     H88363   2.046   4.987   3.870 -0.6535 -0.7467  0.1512
  655MOL0     H88364   2.083   5.227   3.842  1.5485 -0.9289  0.6666
  655MOL0     H88365   2.076   5.207   3.669  1.5803 -1.5003 -1.4966
  655MOL0     H88366   2.265   5.092   3.865 -0.6700  1.0290  0.6962
  655MOL0     H88367   2.285   5.064   3.687  0.0789 -0.1567  0.9424
  655MOL0     H88368   2.346   5.334   3.831 -2.2770  0.1959 -0.5213
  655MOL0     H88369   2.448   5.218   3.749 -0.4027 -1.1642  1.3296
  655MOL0     H88370   2.293   5.256   3.540  0.3770 -1.8413  1.5312
  655MOL0     H88371   2.220   5.386   3.625 -2.7513 -2.6416 -0.6586
  655MOL0     H88372   2.480   5.446   3.663 -0.5525 -0.5160 -0.3630
  655MOL0     H88373   2.376   5.520   3.542  0.4359  0.4539 -0.5932
  655MOL0     H88374   2.426   5.396   3.375  0.1990  2.2789 -1.1505
  655MOL0     H88375   2.566   5.476   3.423  0.9765 -0.9304  0.8914
  655MOL0     H88376   2.722   5.293   3.616  2.4128 -2.9494  0.0238
  655MOL0     H88377   2.909   5.139   3.565  3.1766 -2.3924  0.1971
  655MOL0     H88378   2.854   4.991   3.631  0.4610  1.3393  0.7046
  655MOL0     H88379   3.019   4.946   3.472 -1.5434 -0.2252  1.5785
  655MOL0     H88380   2.868   4.895   3.393 -0.2288  0.2404 -1.8028
  655MOL0     H88381   2.987   5.160   3.348  3.6285 -0.2618 -1.8384
  655MOL0     H88382   2.858   5.072   3.248 -1.8119 -2.1815  1.3675
  655MOL0     H88383   3.152   5.004   3.268  0.3146  1.1528 -1.4031
  655MOL0     H88384   3.078   5.075   3.123  0.7063  0.9134  0.1349
  655MOL0     H88385   2.883   4.707   3.042 -0.2662 -1.3837 -1.1893
  655MOL0     H88386   2.957   4.572   2.870  0.1246 -2.9200  4.1399
  655MOL0     H88387   3.445   4.757   2.561 -2.3668  0.6491 -2.0514
  655MOL0     H88388   3.536   4.708   2.350  3.9900 -2.1822  0.1877
  655MOL0     H88389   3.527   4.382   2.031  2.8418 -2.1092  0.2612
  655MOL0     H88390   3.527   4.287   2.179 -0.7060 -0.2526  0.0129
  655MOL0     H88391   3.300   4.451   2.199 -0.0660 -2.6634  4.5410
  655MOL0     H88392   3.294   4.397   2.038 -2.1598  3.2285  1.8285
  655MOL0     H88393   3.292   4.159   2.113 -1.2051  1.2275 -1.2555
  655MOL0     H88394   3.310   4.227   2.280 -0.4284 -0.8776  0.3192
  655MOL0     H88395   3.080   4.288   2.071  2.3576 -1.4686 -1.6878
  655MOL0     H88396   3.096   4.355   2.226  1.6963  0.3895  1.2808
  655MOL0     H88397   3.069   4.130   2.334 -0.4435  1.5746  0.7397
  655MOL0     H88398   3.051   4.054   2.171  1.0386  0.3829  0.1344
  655MOL0     H88399   2.885   4.265   2.301 -1.3846  2.3145 -2.9382
  655MOL0     H88400   2.858   4.217   2.136 -1.3747  0.6538  0.6785
  655MOL0     H88401   2.779   4.064   2.383 -0.2318 -0.8485  0.0245
  655MOL0     H88402   2.852   3.965   2.256 -1.9958 -1.3539  1.0398
  655MOL0     H88403   2.660   4.061   2.095  0.3848 -0.6825  0.1870
  655MOL0     H88404   2.616   3.966   2.237  1.0612 -0.6732 -0.1994
  655MOL0     H88405   3.502   4.288   2.399 -0.0343  1.1396 -2.2836
  655MOL0     H88406   3.401   4.330   2.627 -0.0419 -0.3310 -0.8705
  655MOL0     H88407   3.350   4.787   2.912 -1.1176  1.3351 -1.6621
  655MOL0     H88408   3.271   4.899   3.086  1.3689 -1.3279 -0.0781
  655MOL0     H88409   1.617   4.935   3.858  0.3360  0.6253  0.1155
  655MOL0     H88410   1.389   4.988   3.922  0.2921 -0.5117 -0.1474
  655MOL0     H88411   1.007   5.415   3.868  2.2110 -0.6655 -0.4087
  655MOL0     H88412   0.776   5.416   3.956  1.1345  0.2318 -0.1377
  655MOL0     H88413   0.698   5.334   4.388 -1.6217  0.6574  0.2579
  655MOL0     H88414   0.668   5.172   4.301 -2.2013 -0.3958 -0.7082
  655MOL0     H88415   0.439   5.256   4.243 -2.2603  1.7094  0.4063
  655MOL0     H88416   0.487   5.411   4.300  0.3225  0.5374  0.5950
  655MOL0     H88417   0.520   5.307   4.527 -0.2732 -0.7706 -0.2531
  655MOL0     H88418   0.473   5.145   4.456 -0.2071 -0.1674  0.5617
  655MOL0     H88419   0.298   5.400   4.450  0.4848 -0.5638 -2.1719
  655MOL0     H88420   0.257   5.230   4.411 -1.2371 -0.3639  0.4524
  655MOL0     H88421   0.220   5.217   4.832 -0.1024 -0.9741  0.3705
  655MOL0     H88422   0.905   5.230   4.314 -0.1783  1.7072 -0.0678
  655MOL0     H88423   1.130   5.185   4.359 -2.4470  2.6556  0.0029
  655MOL0     H88424   1.220   5.122   4.226 -2.0673  0.1134 -1.4110
  655MOL0     H88425   1.238   5.295   4.279 -0.4404  0.0202  1.4892
  656MOL0     O88426   3.277   2.552  10.883  0.3615  0.4293  0.1677
  656MOL0     C88427   3.190   2.641  10.869 -0.7899  0.0409 -0.4268
  656MOL0     O88428   3.211   2.774  10.879  0.5634  0.2714 -0.0691
  656MOL0     C88429   3.325   2.838  10.877  0.2377 -0.5192  0.1390
  656MOL0     C88430   3.420   2.804  10.794 -0.3405 -0.5707 -0.5337
  656MOL0     C88431   3.539   2.868  10.802 -1.2786  0.4229 -0.3907
  656MOL0     C88432   3.554   2.991  10.874 -0.4721  0.3933 -0.7309
  656MOL0     O88433   3.670   3.061  10.882 -0.5666 -0.0035 -0.3946
  656MOL0     C88434   3.755   3.076  10.760  0.1051  0.4215 -0.1669
  656MOL0     C88435   3.864   3.176  10.768 -0.4526 -0.2824  0.0355
  656MOL0     C88436   3.983   3.127  10.858 -0.3150  0.0410 -0.4405
  656MOL0     C88437   4.060   3.010  10.799  0.3520  0.3887  0.1225
  656MOL0     C88438   4.188   2.970  10.863 -0.1817 -0.2308  0.7239
  656MOL0     C88439   4.279   2.891  10.771  0.4551  0.0893 -0.2255
  656MOL0     C88440   4.388   2.836  10.858 -0.0200 -0.6143  0.4898
  656MOL0     C88441   4.493   2.758  10.767  0.1231 -0.3424  0.5099
  656MOL0     N88442   4.626   2.740  10.837  1.0361  0.6052 -0.2204
  656MOL0     C88443   4.645   2.671  10.964 -0.2633 -1.0530  0.1352
  656MOL0     C88444   4.779   2.670  10.988  1.0133  1.3782  0.3598
  656MOL0     C88445   4.827   2.600  11.110 -0.4248  0.6019  1.0216
  656MOL0     C88446   4.980   2.616  11.133  0.3121 -0.1182 -0.8433
  656MOL0     C88447   5.051   2.549  11.023 -0.3904  0.0656 -0.3642
  656MOL0     C88448   5.205   2.545  11.055  0.9744 -0.0326  0.2364
  656MOL0     O88449   5.279   2.474  10.951  0.6151  0.0548  0.1391
  656MOL0     C88450   5.409   2.475  10.965 -0.3545 -0.1018 -0.2696
  656MOL0     C88451   5.469   2.360  10.917 -0.8459 -0.5817 -0.1158
  656MOL0     C88452   5.608   2.357  10.886 -1.3527  0.1851  0.2255
  656MOL0     C88453   5.693   2.464  10.904  0.2402 -0.1926  0.7042
  656MOL0     C88454   5.834   2.461  10.868 -0.8002 -0.0075 -0.5024
  656MOL0     O88455   5.881   2.568  10.793 -0.3148 -0.5522 -0.0424
  656MOL0     C88456   6.018   2.578  10.773 -0.5032 -0.4370  0.1339
  656MOL0     C88457   6.091   2.671  10.851  0.0656 -0.7298  0.9065
  656MOL0     C88458   6.228   2.679  10.831 -0.4093 -0.2536  0.3812
  656MOL0     C88459   6.296   2.586  10.752 -0.1493 -0.3159 -0.9392
  656MOL0     O88460   6.426   2.608  10.731  0.5257 -0.0772 -0.1432
  656MOL0     C88461   6.519   2.541  10.810  0.4075  0.6131 -0.6913
  656MOL0     C88462   6.636   2.641  10.827  0.4726 -0.0420  0.0268
  656MOL0     C88463   6.746   2.575  10.912 -0.2596  0.0015  0.3557
  656MOL0     C88464   6.888   2.636  10.891  0.5809 -0.1576  0.3811
  656MOL0     C88465   6.998   2.538  10.851 -0.9799 -0.3757  0.7923
  656MOL0     C88466   7.126   2.628  10.838  0.7054  0.0496 -0.3447
  656MOL0     C88467   7.259   2.557  10.789  1.0736 -0.1294 -0.2768
  656MOL0     C88468   7.368   2.653  10.742 -0.5810 -0.4478  1.1387
  656MOL0    Cl88469   7.515   2.565  10.703 -0.3165 -0.1175  0.0491
  656MOL0     C88470   6.222   2.503  10.670 -0.1539  0.5723 -0.6385
  656MOL0     C88471   6.084   2.495  10.685  0.2222 -0.1727  0.0846
  656MOL0     O88472   5.905   2.370  10.917 -0.0439 -0.0991  0.1809
  656MOL0     C88473   5.634   2.583  10.952  0.1015  0.4826  0.0785
  656MOL0     C88474   5.492   2.588  10.982  0.4522  0.9998 -0.3692
  656MOL0     N88475   4.838   2.730  10.877  0.6851 -1.0317 -0.6393
  656MOL0     N88476   4.748   2.775  10.793 -0.3978  0.6297  0.2002
  656MOL0     C88477   3.454   3.018  10.966  0.4494 -0.0966  0.2863
  656MOL0     C88478   3.339   2.942  10.973  0.8084  0.5164  1.1375
  656MOL0     C88479   3.056   2.596  10.815 -0.5236  0.1830 -0.1393
  656MOL0     C88480   2.959   2.692  10.822  0.3163  0.5347  0.4805
  656MOL0     C88481   2.835   2.672  10.756 -0.3824 -0.5915 -0.7882
  656MOL0     C88482   2.811   2.546  10.704  0.1571  0.0777  0.2167
  656MOL0     O88483   2.696   2.525  10.628 -0.5695 -0.0491  0.6562
  656MOL0     C88484   2.573   2.586  10.671 -0.4658 -0.5418 -0.6540
  656MOL0     C88485   2.469   2.503  10.603  0.2545  0.1256  0.2372
  656MOL0     C88486   2.330   2.559  10.639 -1.2062  0.1195 -0.1154
  656MOL0     C88487   2.223   2.495  10.565 -0.0457 -0.1947  0.2241
  656MOL0     C88488   2.220   2.519  10.425 -0.5316  0.2200 -0.1252
  656MOL0     C88489   2.228   2.531  10.304 -0.5297  0.5675 -0.2617
  656MOL0     C88490   2.902   2.448  10.703 -1.1152  0.1495  0.3203
  656MOL0     C88491   3.032   2.472  10.757 -0.7046 -0.4929  0.3737
  656MOL0     C88492   3.128   2.347  10.773  0.1786 -0.5052 -0.1433
  656MOL0     H88493   3.411   2.713  10.735 -0.1913 -2.2602  1.8690
  656MOL0     H88494   3.625   2.822  10.755 -0.3370 -0.3302  1.9278
  656MOL0     H88495   3.807   2.984  10.732 -0.2090  0.6971 -1.7899
  656MOL0     H88496   3.692   3.104  10.675  1.0620  2.6582 -0.2002
  656MOL0     H88497   3.819   3.271  10.797 -0.4806  0.4251 -2.1177
  656MOL0     H88498   3.913   3.202  10.674 -0.3597  0.7236  0.3587
  656MOL0     H88499   3.947   3.097  10.956  0.7161  1.2321  0.3291
  656MOL0     H88500   4.053   3.211  10.867 -0.7748  0.2301  1.8749
  656MOL0     H88501   3.993   2.925  10.786  2.3784 -1.4688  1.2187
  656MOL0     H88502   4.093   3.043  10.699  2.4561  3.1810  1.5865
  656MOL0     H88503   4.234   3.054  10.915 -2.3357  0.9366  0.8626
  656MOL0     H88504   4.150   2.901  10.939 -0.5101 -1.3246 -0.3767
  656MOL0     H88505   4.218   2.812  10.726 -2.2127  1.8610  0.0871
  656MOL0     H88506   4.328   2.944  10.689  2.1419 -1.3769 -0.2191
  656MOL0     H88507   4.344   2.769  10.932 -0.0447 -0.0417  1.0075
  656MOL0     H88508   4.447   2.914  10.907 -2.3010 -0.0214  2.4789
  656MOL0     H88509   4.443   2.661  10.756  1.8673 -1.2315 -0.0446
  656MOL0     H88510   4.508   2.812  10.673  0.8527  1.3311  1.5464
  656MOL0     H88511   4.576   2.615  11.026  2.2894  0.2660  4.5954
  656MOL0     H88512   4.760   2.632  11.191 -1.5227 -0.0476  0.3980
  656MOL0     H88513   4.802   2.495  11.090  1.1779  0.7158 -2.3432
  656MOL0     H88514   5.005   2.722  11.134  0.6036 -0.0933 -3.6774
  656MOL0     H88515   5.000   2.577  11.233  0.4476  1.4856 -0.2214
  656MOL0     H88516   5.038   2.605  10.930  0.5711  2.3651  0.8148
  656MOL0     H88517   5.030   2.442  11.013  0.5201 -0.0617 -1.0774
  656MOL0     H88518   5.225   2.488  11.146  0.4856  1.4666  1.3207
  656MOL0     H88519   5.240   2.648  11.067  0.3892  0.2704 -0.5674
  656MOL0     H88520   5.408   2.275  10.887 -0.9482 -0.1989 -1.0304
  656MOL0     H88521   5.655   2.262  10.861 -0.2763  0.7253  0.1465
  656MOL0     H88522   6.043   2.748  10.911 -0.6178  0.0191 -0.5426
  656MOL0     H88523   6.286   2.755  10.882  1.7991 -2.0863  0.7315
  656MOL0     H88524   6.481   2.523  10.911 -2.5359  0.6827 -1.6622
  656MOL0     H88525   6.547   2.445  10.765  2.8747  0.5949  0.7576
  656MOL0     H88526   6.686   2.652  10.730 -0.1793 -1.4873 -0.4972
  656MOL0     H88527   6.610   2.736  10.874 -2.9233  0.3587 -2.2979
  656MOL0     H88528   6.720   2.587  11.018  1.7476  1.0069  0.7855
  656MOL0     H88529   6.754   2.469  10.888 -1.3394  0.2838 -1.4671
  656MOL0     H88530   6.919   2.671  10.990 -0.1330  3.5922 -0.5323
  656MOL0     H88531   6.884   2.713  10.813 -0.6812 -1.0822 -0.5066
  656MOL0     H88532   6.976   2.502  10.750  1.6244 -1.2189  0.4501
  656MOL0     H88533   7.014   2.468  10.934  3.5518  0.4100  0.8606
  656MOL0     H88534   7.107   2.702  10.760  1.1269 -1.1234 -1.6151
  656MOL0     H88535   7.140   2.681  10.932  0.8185 -1.1550  0.3319
  656MOL0     H88536   7.235   2.490  10.706  1.7040 -1.0348  0.2599
  656MOL0     H88537   7.300   2.499  10.873 -0.4663 -3.7418 -1.8119
  656MOL0     H88538   7.335   2.706  10.652  0.2291 -1.6240  0.1213
  656MOL0     H88539   7.381   2.724  10.825 -3.3798  0.2426  1.0794
  656MOL0     H88540   6.271   2.444  10.593 -0.7841 -1.1842  0.2663
  656MOL0     H88541   6.025   2.428  10.622 -0.6603  0.9024 -0.2480
  656MOL0     H88542   5.689   2.676  10.967  1.0087  0.0533 -0.5079
  656MOL0     H88543   5.430   2.677  10.994 -1.4118  0.2236 -3.0586
  656MOL0     H88544   3.465   3.103  11.032 -1.7902  0.4807  0.0021
  656MOL0     H88545   3.277   2.976  11.055  0.1366  1.4407  0.2805
  656MOL0     H88546   2.982   2.787  10.871  3.9668  0.5673 -0.9747
  656MOL0     H88547   2.758   2.748  10.764 -0.8845 -1.1423 -0.2837
  656MOL0     H88548   2.564   2.687  10.629  2.2677  0.3748  0.7737
  656MOL0     H88549   2.563   2.592  10.779  2.3304 -2.2001 -0.1993
  656MOL0     H88550   2.465   2.402  10.645 -1.8864  0.2625  0.5172
  656MOL0     H88551   2.478   2.497  10.494 -0.3540  0.1225  0.1821
  656MOL0     H88552   2.326   2.665  10.616  0.4367 -0.2013 -2.1442
  656MOL0     H88553   2.323   2.544  10.747  1.1501  4.3688  0.8605
  656MOL0     H88554   2.227   2.386  10.569  1.7611 -0.3292 -2.5371
  656MOL0     H88555   2.125   2.527  10.601 -0.6357 -0.2341 -1.2538
  656MOL0     H88556   2.232   2.549  10.198 -2.7874 -1.4167 -0.7694
  656MOL0     H88557   2.880   2.354  10.652  0.7249 -0.1884  0.0990
  656MOL0     H88558   3.225   2.360  10.725 -0.3826 -2.3027 -1.9435
  656MOL0     H88559   3.139   2.315  10.877  2.2634 -0.6693 -0.3788
  656MOL0     H88560   3.088   2.259  10.722  1.1224 -2.4594  2.2631
  657MOL0     O88561   5.200   8.352   5.463  0.0402 -0.7007 -0.1911
  657MOL0     C88562   5.144   8.250   5.439 -0.0376  0.3138  0.5918
  657MOL0     O88563   5.209   8.131   5.416  0.3039  0.4189  0.4593
  657MOL0     C88564   5.341   8.110   5.437  0.1397  0.3978  0.5956
  657MOL0     C88565   5.396   8.001   5.507 -0.1203  0.8517 -0.3988
  657MOL0     C88566   5.535   7.979   5.535  0.9747 -0.2969  0.2193
  657MOL0     C88567   5.629   8.073   5.487  0.2711  0.4991  0.7202
  657MOL0     O88568   5.764   8.058   5.487 -0.2582 -0.8778  0.3579
  657MOL0     C88569   5.808   7.923   5.497 -0.2111  0.5377  0.5377
  657MOL0     C88570   5.960   7.910   5.482 -0.4342  0.4331  0.1754
  657MOL0     C88571   6.037   7.931   5.610 -0.7061  0.3048  0.0599
  657MOL0     C88572   6.191   7.918   5.609  0.1989  0.5268 -0.1764
  657MOL0     C88573   6.250   7.879   5.743 -0.0433 -0.2291 -0.3356
  657MOL0     C88574   6.399   7.909   5.739  0.6121  0.2507  0.4666
  657MOL0     C88575   6.438   8.054   5.762 -0.6572 -0.0235 -0.2664
  657MOL0     C88576   6.592   8.063   5.764  0.0580  0.0725 -0.2982
  657MOL0     N88577   6.649   8.000   5.886  0.0312 -0.0263 -0.1372
  657MOL0     C88578   6.626   8.026   6.021 -0.3465  0.0388 -0.5926
  657MOL0     C88579   6.695   7.921   6.085  0.2313 -0.4156  0.1080
  657MOL0     C88580   6.718   7.888   6.231  0.3091 -0.3680  0.1882
  657MOL0     C88581   6.807   7.980   6.314 -1.4288 -0.5355 -0.5422
  657MOL0     C88582   6.749   8.124   6.308  0.1035 -0.3955 -0.1080
  657MOL0     C88583   6.757   8.203   6.442 -0.8332  0.1506  0.2326
  657MOL0     O88584   6.885   8.268   6.450 -0.7806  0.3240 -0.1643
  657MOL0     C88585   6.950   8.297   6.575  0.1689 -0.1152  0.3305
  657MOL0     C88586   6.931   8.234   6.696 -0.1674  0.2657  0.8323
  657MOL0     C88587   7.008   8.258   6.808 -0.0060 -0.1300 -0.1797
  657MOL0     C88588   7.120   8.345   6.800  0.7270  0.4741 -0.0466
  657MOL0     C88589   7.200   8.368   6.929 -0.0387  0.3160 -0.7375
  657MOL0     O88590   7.315   8.438   6.902  0.4844 -0.0116  0.4706
  657MOL0     C88591   7.404   8.475   6.999  0.2155 -0.4611  0.0316
  657MOL0     C88592   7.491   8.574   6.959  1.1237  1.3381  0.2700
  657MOL0     C88593   7.590   8.616   7.046 -0.3673 -0.7072  0.1677
  657MOL0     C88594   7.591   8.564   7.178 -1.4118 -0.0350  0.1318
  657MOL0     O88595   7.690   8.599   7.270  0.2671  0.3480 -0.4588
  657MOL0     C88596   7.774   8.714   7.236  0.0865 -0.1724  0.8860
  657MOL0     C88597   7.856   8.770   7.356  0.9220 -0.4094  0.6679
  657MOL0     C88598   7.940   8.882   7.302 -0.2842  0.1126 -0.0211
  657MOL0     C88599   8.012   8.955   7.417 -0.1667 -0.5973  0.6525
  657MOL0     C88600   8.106   9.064   7.363  0.3330  0.5210 -0.2449
  657MOL0     C88601   8.222   9.096   7.462  0.4160  0.7058  0.1863
  657MOL0     C88602   8.165   9.173   7.580  0.6560 -0.2250 -0.3380
  657MOL0     C88603   8.282   9.206   7.675  1.0202 -0.4012 -1.1690
  657MOL0    Cl88604   8.208   9.285   7.826 -0.0047  0.1427 -0.4899
  657MOL0     C88605   7.496   8.481   7.226 -1.1045 -0.4136  0.0500
  657MOL0     C88606   7.401   8.430   7.135 -0.1155 -0.1939 -0.8207
  657MOL0     O88607   7.164   8.327   7.043 -0.0773 -0.0379 -0.0305
  657MOL0     C88608   7.146   8.410   6.673 -0.9250  0.3706  0.2461
  657MOL0     C88609   7.060   8.389   6.563 -0.0274 -0.7210 -0.4068
  657MOL0     N88610   6.749   7.835   5.986 -0.2579 -0.2639 -0.0957
  657MOL0     N88611   6.727   7.888   5.873  0.0029 -0.1323 -0.3033
  657MOL0     C88612   5.571   8.183   5.398  0.5229  0.0977 -0.5066
  657MOL0     C88613   5.431   8.199   5.386  0.4255  0.4633  0.3697
  657MOL0     C88614   4.997   8.251   5.438 -0.4153 -0.0119 -0.2846
  657MOL0     C88615   4.924   8.133   5.392 -0.7617  0.2180 -0.2755
  657MOL0     C88616   4.790   8.130   5.390  0.4839 -0.6207 -0.2861
  657MOL0     C88617   4.715   8.244   5.419  0.1496  0.3193 -0.3444
  657MOL0     O88618   4.576   8.244   5.416 -0.2772 -0.0158 -0.7180
  657MOL0     C88619   4.499   8.126   5.377 -0.2458 -0.0728 -0.1766
  657MOL0     C88620   4.345   8.145   5.373 -1.0655 -0.5499 -0.2850
  657MOL0     C88621   4.273   8.018   5.351  0.5484  0.7895 -0.0390
  657MOL0     C88622   4.121   8.036   5.374  0.6400 -0.1467 -0.9686
  657MOL0     C88623   4.035   7.932   5.315 -0.4503  0.0060 -0.1039
  657MOL0     C88624   3.968   7.846   5.255  0.7311 -0.3441 -0.7047
  657MOL0     C88625   4.778   8.360   5.458  0.2615  1.0510 -0.8656
  657MOL0     C88626   4.917   8.367   5.462 -0.2950  0.6694 -0.1109
  657MOL0     C88627   4.968   8.502   5.487  0.0266 -0.2885 -1.0484
  657MOL0     H88628   5.326   7.921   5.529 -1.3020  1.7627 -0.7391
  657MOL0     H88629   5.566   7.900   5.602  0.4655 -0.6435  0.0475
  657MOL0     H88630   5.780   7.885   5.596 -1.9930 -0.9766 -0.4866
  657MOL0     H88631   5.755   7.860   5.425 -0.2074 -0.6013  1.4858
  657MOL0     H88632   5.985   7.977   5.400  1.5126 -0.7259 -0.2226
  657MOL0     H88633   5.986   7.813   5.439  0.7686  1.2875 -1.0705
  657MOL0     H88634   6.012   7.854   5.683  1.7789  0.8217  1.5534
  657MOL0     H88635   5.999   8.021   5.659  2.5734  0.7066  2.1620
  657MOL0     H88636   6.232   7.850   5.533 -0.0068 -0.9137  0.9479
  657MOL0     H88637   6.224   8.015   5.573 -1.1751  1.1750  0.2379
  657MOL0     H88638   6.202   7.941   5.819 -0.3979 -0.1030 -0.6574
  657MOL0     H88639   6.234   7.772   5.757 -0.2115 -0.2285 -0.5145
  657MOL0     H88640   6.443   7.840   5.812  1.9066 -2.9320 -3.0302
  657MOL0     H88641   6.446   7.884   5.644 -0.1321 -0.2998  0.2396
  657MOL0     H88642   6.399   8.084   5.860 -1.8736 -0.7461 -0.5117
  657MOL0     H88643   6.394   8.125   5.691 -0.7549  0.1792 -0.0054
  657MOL0     H88644   6.642   8.020   5.676  0.8743 -0.6299  0.4798
  657MOL0     H88645   6.621   8.168   5.769 -1.1395  0.4095 -0.1414
  657MOL0     H88646   6.574   8.105   6.075  1.4273  0.2905  0.8254
  657MOL0     H88647   6.618   7.869   6.270  0.6333 -3.5809 -0.2894
  657MOL0     H88648   6.757   7.786   6.242 -0.4824 -0.5693  1.4075
  657MOL0     H88649   6.817   7.937   6.414 -1.3460  2.3382  0.7892
  657MOL0     H88650   6.904   7.975   6.265 -0.9790 -0.4018  0.3087
  657MOL0     H88651   6.642   8.122   6.282 -0.5956  1.9332  2.1348
  657MOL0     H88652   6.803   8.180   6.230  3.3980 -3.6872 -0.4411
  657MOL0     H88653   6.747   8.136   6.528  3.7336 -1.0513  0.1260
  657MOL0     H88654   6.678   8.277   6.429 -1.6084 -0.9330 -1.5017
  657MOL0     H88655   6.858   8.154   6.702  0.4304 -0.2892  0.7906
  657MOL0     H88656   6.985   8.201   6.897 -0.1571  0.0077 -0.1313
  657MOL0     H88657   7.481   8.607   6.856  2.0111 -0.4220 -0.4361
  657MOL0     H88658   7.647   8.698   7.004  0.2823 -1.3953 -0.3379
  657MOL0     H88659   7.841   8.668   7.162 -0.2547  1.0855 -0.2345
  657MOL0     H88660   7.711   8.791   7.192  1.4379 -0.3055 -1.4544
  657MOL0     H88661   7.786   8.814   7.428  0.5081  0.7712 -0.4152
  657MOL0     H88662   7.917   8.688   7.395 -1.2891 -3.4012 -1.6344
  657MOL0     H88663   8.010   8.840   7.228 -1.3128  0.4596 -1.2297
  657MOL0     H88664   7.877   8.949   7.243 -0.7223 -1.1852 -1.1057
  657MOL0     H88665   8.072   8.880   7.469  2.5034 -0.3175 -1.7791
  657MOL0     H88666   7.939   8.997   7.488 -0.3378 -2.4167  1.6333
  657MOL0     H88667   8.062   9.160   7.337  0.7516  1.1491  1.2916
  657MOL0     H88668   8.150   9.013   7.277 -2.2746  0.2353 -1.5149
  657MOL0     H88669   8.254   8.997   7.497 -0.4665  0.5389  0.5585
  657MOL0     H88670   8.311   9.146   7.425  3.1922 -2.9746  1.2488
  657MOL0     H88671   8.098   9.104   7.633 -0.5949  2.2799  1.5306
  657MOL0     H88672   8.107   9.261   7.551  1.7286  1.1159  1.3624
  657MOL0     H88673   8.327   9.109   7.699 -0.0183 -0.4729  0.6728
  657MOL0     H88674   8.348   9.273   7.619 -0.2571  1.0857 -0.9676
  657MOL0     H88675   7.493   8.463   7.333  0.8738 -0.4850  0.1470
  657MOL0     H88676   7.325   8.373   7.188  0.5689 -0.0174  0.3969
  657MOL0     H88677   7.241   8.457   6.652 -0.9389 -0.5654 -2.2780
  657MOL0     H88678   7.082   8.438   6.469  2.5849  3.4374  2.0719
  657MOL0     H88679   5.631   8.255   5.343 -0.2078  1.8643  0.9354
  657MOL0     H88680   5.402   8.280   5.319  1.1712  0.9357  0.6016
  657MOL0     H88681   4.979   8.043   5.363  1.0277  1.1842 -0.0433
  657MOL0     H88682   4.744   8.041   5.348 -2.7488  1.4366 -1.3907
  657MOL0     H88683   4.515   8.044   5.448  1.7131  0.1095 -0.3458
  657MOL0     H88684   4.538   8.095   5.280 -1.4565  2.9344 -1.7135
  657MOL0     H88685   4.319   8.221   5.299  0.1039  1.3651  1.1533
  657MOL0     H88686   4.315   8.195   5.465 -0.0127 -0.0503 -0.1927
  657MOL0     H88687   4.310   7.947   5.425 -0.6706 -1.0722 -1.1224
  657MOL0     H88688   4.291   7.965   5.257  0.7602 -1.4890  1.2390
  657MOL0     H88689   4.095   8.035   5.481 -0.8942  3.0347 -1.1916
  657MOL0     H88690   4.088   8.136   5.345  0.6424  0.1997  0.1763
  657MOL0     H88691   3.912   7.767   5.209  1.8822 -2.0819  0.7631
  657MOL0     H88692   4.716   8.445   5.487  0.4523  1.3717 -1.3941
  657MOL0     H88693   5.042   8.530   5.413  1.3561  0.2664  0.4428
  657MOL0     H88694   4.888   8.577   5.484 -0.4899 -0.7395  0.4298
  657MOL0     H88695   5.009   8.505   5.588 -1.7347 -4.0766 -0.0072
  658MOL0     O88696   3.539   6.789   0.963 -0.4154  0.4204  0.2788
  658MOL0     C88697   3.519   6.899   0.922 -0.7602 -0.9303 -0.2378
  658MOL0     O88698   3.612   6.986   0.891 -0.1309  0.0632 -0.1183
  658MOL0     C88699   3.744   6.970   0.916 -1.1801  1.1074  0.5760
  658MOL0     C88700   3.811   7.017   1.030 -0.2095 -0.2392  0.4922
  658MOL0     C88701   3.946   6.981   1.044  0.0477 -0.5954  0.0963
  658MOL0     C88702   4.018   6.893   0.956 -0.1916 -0.1906 -0.6255
  658MOL0     O88703   4.155   6.859   0.973 -0.4314  0.1431 -0.0426
  658MOL0     C88704   4.208   6.848   1.112  0.1536  1.3112 -0.2230
  658MOL0     C88705   4.281   6.711   1.121  0.0437  0.4372  0.6630
  658MOL0     C88706   4.390   6.687   1.011  0.5541 -0.6809  0.2558
  658MOL0     C88707   4.495   6.792   1.008  1.0235  0.1161  0.2442
  658MOL0     C88708   4.597   6.766   0.901  0.1026 -0.1784  0.1202
  658MOL0     C88709   4.710   6.865   0.915 -0.0505 -0.2000  0.5735
  658MOL0     C88710   4.825   6.848   0.824 -0.1589 -0.5306  0.6531
  658MOL0     C88711   4.793   6.877   0.671  1.4013 -0.1106 -0.7878
  658MOL0     N88712   4.912   6.845   0.590  0.4848  0.3873 -0.2205
  658MOL0     C88713   5.048   6.859   0.616  0.9564 -0.0793 -0.4731
  658MOL0     C88714   5.108   6.777   0.517 -1.4545 -0.2741  0.6693
  658MOL0     C88715   5.261   6.757   0.494 -0.1692 -0.0432  0.5903
  658MOL0     C88716   5.299   6.803   0.354  1.0612 -0.3977  0.6004
  658MOL0     C88717   5.451   6.780   0.330  0.5050  0.5766 -0.3146
  658MOL0     C88718   5.503   6.815   0.190 -0.1000  0.4007  0.6613
  658MOL0     O88719   5.465   6.947   0.155 -0.4359 -0.2775  0.8507
  658MOL0     C88720   5.548   7.038   0.215  0.8408  0.5907  0.6314
  658MOL0     C88721   5.529   7.087   0.348  0.5542 -0.2778 -0.9414
  658MOL0     C88722   5.610   7.191   0.392 -0.7349  0.2148 -0.5083
  658MOL0     C88723   5.720   7.241   0.318 -0.3198 -0.0096 -0.6243
  658MOL0     C88724   5.813   7.335   0.381  0.6995  0.5985  0.1236
  658MOL0     O88725   5.927   7.357   0.319  0.1041 -0.7437  0.9894
  658MOL0     C88726   6.017   7.427   0.395 -0.3133  0.4141  0.8297
  658MOL0     C88727   6.126   7.362   0.447  0.4718  0.3067 -0.7609
  658MOL0     C88728   6.217   7.442   0.518 -0.2882 -0.0351 -0.2549
  658MOL0     C88729   6.212   7.587   0.532  0.0350 -0.3170 -0.0104
  658MOL0     O88730   6.314   7.657   0.597  0.0378  0.4202  0.0774
  658MOL0     C88731   6.309   7.792   0.623  0.6105 -0.4674 -0.0859
  658MOL0     C88732   6.404   7.836   0.726 -0.0798  0.7293 -0.1072
  658MOL0     C88733   6.548   7.803   0.700 -0.2708  0.1412 -1.5200
  658MOL0     C88734   6.642   7.836   0.816 -0.1610  0.1144 -0.4882
  658MOL0     C88735   6.787   7.822   0.794  0.2729  0.2128  0.1261
  658MOL0     C88736   6.832   7.672   0.782 -0.0430  0.8552  0.1415
  658MOL0     C88737   6.984   7.646   0.780 -0.1520  0.3482 -0.8130
  658MOL0     C88738   7.029   7.509   0.733 -0.3652 -0.5899  0.1462
  658MOL0    Cl88739   7.002   7.502   0.559  0.0202 -0.1145 -0.2447
  658MOL0     C88740   6.110   7.648   0.460  0.2761 -0.3125 -0.3851
  658MOL0     C88741   6.018   7.566   0.392 -0.1574 -0.2958 -0.4462
  658MOL0     O88742   5.783   7.397   0.483 -0.0750  0.0286  0.9061
  658MOL0     C88743   5.743   7.182   0.188 -0.4321 -0.1241 -0.2346
  658MOL0     C88744   5.658   7.086   0.137  0.3357  1.6883  1.0993
  658MOL0     N88745   5.004   6.728   0.439 -0.2610 -0.7136 -0.8721
  658MOL0     N88746   4.900   6.765   0.484 -0.2469  0.7064  0.1320
  658MOL0     C88747   3.950   6.844   0.846 -0.4844 -0.6997 -0.0893
  658MOL0     C88748   3.817   6.882   0.827 -1.0597  0.2488 -0.9235
  658MOL0     C88749   3.385   6.936   0.879 -0.0840  0.0410  0.4137
  658MOL0     C88750   3.371   7.017   0.759 -0.0761  0.1776 -0.2756
  658MOL0     C88751   3.250   7.041   0.708  0.9670 -0.2424 -0.0120
  658MOL0     C88752   3.132   7.002   0.776 -0.2698 -0.1710 -0.5456
  658MOL0     O88753   3.004   7.041   0.726 -0.2787  0.4284 -0.4508
  658MOL0     C88754   2.895   7.050   0.822 -0.3008  0.1667  0.1315
  658MOL0     C88755   2.915   7.168   0.919  0.4423  0.2107 -0.4663
  658MOL0     C88756   2.807   7.193   1.031  0.0159 -0.1379  0.0904
  658MOL0     C88757   2.673   7.251   0.980 -0.2056  0.4060  0.1383
  658MOL0     C88758   2.598   7.138   0.927 -0.7904  0.3159 -0.0927
  658MOL0     C88759   2.541   7.042   0.868  1.1905 -0.2468  0.1474
  658MOL0     C88760   3.147   6.934   0.901 -0.4394 -0.0934 -0.3143
  658MOL0     C88761   3.271   6.905   0.959 -0.1531 -0.2701  0.0315
  658MOL0     C88762   3.268   6.807   1.078 -0.5137 -0.5864  0.3121
  658MOL0     H88763   3.761   7.075   1.107 -1.1388  0.0480 -0.3037
  658MOL0     H88764   3.994   7.028   1.130 -1.7427 -1.2629  1.5332
  658MOL0     H88765   4.276   6.933   1.126  2.0167 -0.0159 -0.7767
  658MOL0     H88766   4.136   6.857   1.193 -1.0194  1.9637 -1.2992
  658MOL0     H88767   4.207   6.630   1.118  0.6911 -0.1653  0.6125
  658MOL0     H88768   4.321   6.705   1.222  1.0444  1.0457  0.3212
  658MOL0     H88769   4.323   6.689   0.925  0.1023 -2.5225  0.5192
  658MOL0     H88770   4.436   6.589   1.028 -0.9114 -1.0978  2.1709
  658MOL0     H88771   4.446   6.889   0.991 -1.4131 -0.8210  1.4237
  658MOL0     H88772   4.538   6.797   1.108  1.6341  1.0993 -0.0575
  658MOL0     H88773   4.630   6.663   0.889 -2.0306 -0.7880 -1.0081
  658MOL0     H88774   4.552   6.776   0.802  3.5262 -1.8466 -1.7954
  658MOL0     H88775   4.677   6.969   0.909  0.4058  0.3531  4.7492
  658MOL0     H88776   4.753   6.867   1.015 -2.7749 -0.7561  1.8260
  658MOL0     H88777   4.856   6.743   0.829 -0.7935 -0.8262 -0.9155
  658MOL0     H88778   4.907   6.915   0.850  1.0182 -1.0664 -1.4347
  658MOL0     H88779   4.704   6.818   0.649 -0.1727 -0.2708  4.5056
  658MOL0     H88780   4.760   6.980   0.650 -0.1542 -0.4563 -0.2197
  658MOL0     H88781   5.101   6.921   0.688  1.6003 -0.0324 -0.9737
  658MOL0     H88782   5.316   6.808   0.574 -1.1403 -2.9223  3.2833
  658MOL0     H88783   5.295   6.654   0.506  3.5469  0.8535 -0.7843
  658MOL0     H88784   5.233   6.746   0.288  0.4264 -0.2702  1.1117
  658MOL0     H88785   5.273   6.909   0.343 -0.6650 -0.7012  1.3093
  658MOL0     H88786   5.471   6.673   0.343 -0.7718  0.3475 -0.0909
  658MOL0     H88787   5.517   6.824   0.406 -0.7008  0.9048  0.5716
  658MOL0     H88788   5.471   6.748   0.110  1.5830  0.5158 -0.1598
  658MOL0     H88789   5.611   6.798   0.187 -0.3078 -2.2386  3.2662
  658MOL0     H88790   5.445   7.051   0.407 -0.9887  0.6627 -2.4635
  658MOL0     H88791   5.592   7.242   0.486  1.0422 -0.2084  0.0960
  658MOL0     H88792   6.145   7.255   0.450  1.2941  0.4460 -0.9081
  658MOL0     H88793   6.296   7.389   0.571  0.6867 -0.7791 -2.3562
  658MOL0     H88794   6.330   7.850   0.533  1.5711  1.5051  1.3231
  658MOL0     H88795   6.206   7.813   0.653  0.9026  0.6374  0.1893
  658MOL0     H88796   6.392   7.942   0.748  1.7391  0.7425  1.0042
  658MOL0     H88797   6.369   7.778   0.812 -0.6782  0.4750 -0.5088
  658MOL0     H88798   6.551   7.695   0.681  2.0716 -0.1705  0.2370
  658MOL0     H88799   6.581   7.860   0.613  0.3179  0.7826 -0.8912
  658MOL0     H88800   6.609   7.771   0.898  1.1655 -1.1774 -0.9480
  658MOL0     H88801   6.630   7.940   0.848 -1.7567 -0.6706  1.7814
  658MOL0     H88802   6.841   7.871   0.875  1.2946 -1.0010  0.2311
  658MOL0     H88803   6.816   7.867   0.698  2.5454  0.0981  0.6953
  658MOL0     H88804   6.792   7.610   0.863 -0.7348 -0.3287 -1.0836
  658MOL0     H88805   6.788   7.634   0.690  1.0669  0.1169 -0.0972
  658MOL0     H88806   7.031   7.673   0.875  1.2268 -2.4908 -0.6049
  658MOL0     H88807   7.010   7.716   0.701  0.4732  1.2905  0.1995
  658MOL0     H88808   7.134   7.490   0.756 -0.3692 -1.1197 -0.2815
  658MOL0     H88809   6.969   7.438   0.791  1.0500 -1.6753  0.3291
  658MOL0     H88810   6.085   7.754   0.460 -0.3072 -0.4502  0.0106
  658MOL0     H88811   5.938   7.617   0.339 -0.9120 -0.5809  0.3942
  658MOL0     H88812   5.835   7.205   0.134 -1.4755  0.6696 -1.7321
  658MOL0     H88813   5.681   7.041   0.041 -1.0719 -3.1938  2.7467
  658MOL0     H88814   3.996   6.774   0.777 -2.0010  1.2714 -3.3235
  658MOL0     H88815   3.762   6.844   0.741  0.8915  1.1968 -2.6957
  658MOL0     H88816   3.452   7.046   0.692 -0.1588 -2.2849 -1.5249
  658MOL0     H88817   3.240   7.089   0.611  1.0450  3.5573  1.6693
  658MOL0     H88818   2.854   6.958   0.866  0.5933  0.7256  2.2642
  658MOL0     H88819   2.806   7.076   0.764 -0.4970  1.3232  0.9277
  658MOL0     H88820   2.923   7.255   0.853 -1.0060 -0.8125 -2.0882
  658MOL0     H88821   3.009   7.155   0.974  0.2102 -2.1799 -0.5272
  658MOL0     H88822   2.847   7.270   1.097 -1.3359  0.7130 -0.0505
  658MOL0     H88823   2.784   7.099   1.082 -0.6046 -0.3210 -0.5101
  658MOL0     H88824   2.622   7.278   1.073  0.0394 -3.7132  1.6515
  658MOL0     H88825   2.693   7.347   0.930 -1.4560 -0.0851 -1.3919
  658MOL0     H88826   2.488   6.960   0.823 -0.4480  0.7569  0.1562
  658MOL0     H88827   3.066   6.893   0.961  1.0122  0.2296  2.0082
  658MOL0     H88828   3.323   6.839   1.168  0.3774 -3.3268  0.8476
  658MOL0     H88829   3.166   6.781   1.108 -0.9720 -0.1483 -0.8314
  658MOL0     H88830   3.318   6.713   1.052  2.5675  0.1459  2.8204
  659MOL0     O88831   5.986   7.972   7.752  0.4413  0.0966 -0.2053
  659MOL0     C88832   5.872   8.023   7.748  0.2813  0.2664  0.0482
  659MOL0     O88833   5.809   8.089   7.849  0.1957  0.0706 -0.0690
  659MOL0     C88834   5.877   8.144   7.958 -0.6651  0.4242  0.0413
  659MOL0     C88835   6.020   8.167   7.960  0.2414  0.0701 -0.0290
  659MOL0     C88836   6.086   8.205   8.079  0.2685 -0.2256 -0.8691
  659MOL0     C88837   6.023   8.225   8.202 -0.1188 -1.0534  0.9210
  659MOL0     O88838   6.097   8.279   8.306  0.1142  0.5808 -0.3906
  659MOL0     C88839   6.023   8.306   8.430  0.2793  0.2375 -0.5505
  659MOL0     C88840   6.107   8.388   8.524 -0.7719  0.0431 -0.6421
  659MOL0     C88841   6.217   8.299   8.584 -0.3850 -0.0072 -0.1695
  659MOL0     C88842   6.308   8.378   8.688  0.2285  0.5620  0.8374
  659MOL0     C88843   6.412   8.298   8.757 -0.8053  0.9999 -0.5151
  659MOL0     C88844   6.464   8.374   8.883 -0.4442 -0.3103 -1.3032
  659MOL0     C88845   6.530   8.277   8.984  0.6736 -0.5128  0.5466
  659MOL0     C88846   6.667   8.228   8.948 -0.6108  0.3745  1.0360
  659MOL0     N88847   6.748   8.161   9.056 -0.6892 -0.7194  0.1846
  659MOL0     C88848   6.830   8.231   9.142 -0.5098  1.0200 -0.2963
  659MOL0     C88849   6.902   8.133   9.206 -0.6679  0.6966 -0.7440
  659MOL0     C88850   7.000   8.161   9.302 -0.3135  0.5708 -0.2810
  659MOL0     C88851   7.133   8.085   9.277 -0.1492 -0.6529 -0.9262
  659MOL0     C88852   7.240   8.142   9.374  0.5314 -0.8166 -0.7565
  659MOL0     C88853   7.298   8.275   9.333 -0.7905 -1.0706 -0.3919
  659MOL0     O88854   7.364   8.275   9.207  0.3433 -0.7188 -0.2212
  659MOL0     C88855   7.490   8.212   9.187  0.0315 -0.3168  0.1767
  659MOL0     C88856   7.510   8.093   9.125  0.6544  0.0813  0.2180
  659MOL0     C88857   7.635   8.042   9.092  0.6955  0.9173 -1.0290
  659MOL0     C88858   7.741   8.115   9.140  0.3085 -1.4039  0.7202
  659MOL0     C88859   7.880   8.073   9.109  0.8753 -0.0517  0.2955
  659MOL0     O88860   7.985   8.155   9.126  0.2050 -0.3735 -0.4308
  659MOL0     C88861   8.111   8.091   9.128 -0.3763  0.0036  0.2196
  659MOL0     C88862   8.190   8.096   9.013 -0.4953 -0.1449  0.6310
  659MOL0     C88863   8.330   8.062   9.019 -0.3848  0.5372 -0.4994
  659MOL0     C88864   8.387   8.028   9.138  0.4460  0.5221 -0.7277
  659MOL0     O88865   8.524   8.005   9.132  0.0956 -0.0494 -0.5013
  659MOL0     C88866   8.589   7.993   9.259  0.0697 -0.5288 -0.1848
  659MOL0     C88867   8.741   7.975   9.261 -0.2437  0.8976  1.0971
  659MOL0     C88868   8.837   8.101   9.245 -0.1206 -0.5281 -0.5635
  659MOL0     C88869   8.978   8.057   9.201 -0.4204  0.0148 -0.0838
  659MOL0     C88870   9.089   8.163   9.234  0.3786  0.4311  0.8244
  659MOL0     C88871   9.076   8.275   9.128 -0.6059 -0.6359 -0.1604
  659MOL0     C88872   9.159   8.392   9.174  0.3235 -0.3038  0.7625
  659MOL0     C88873   9.157   8.507   9.069  0.3047 -0.1667 -0.4722
  659MOL0    Cl88874   9.281   8.467   8.935 -0.0754 -0.0480 -0.0812
  659MOL0     C88875   8.303   8.006   9.248 -0.5821  0.4383  0.5293
  659MOL0     C88876   8.163   8.035   9.241 -0.7108  0.1684 -0.3708
  659MOL0     O88877   7.885   7.955   9.077  0.6287 -0.3357 -0.3193
  659MOL0     C88878   7.723   8.236   9.205  0.0009 -0.5669 -0.3742
  659MOL0     C88879   7.599   8.289   9.225  0.8814  0.1613  0.5565
  659MOL0     N88880   6.858   8.011   9.155 -0.4444 -0.0681 -0.1400
  659MOL0     N88881   6.776   8.034   9.063 -0.7470  0.3562 -0.7140
  659MOL0     C88882   5.887   8.192   8.203  0.5154  0.2910 -0.4634
  659MOL0     C88883   5.814   8.152   8.080  0.2865  0.8022 -1.6161
  659MOL0     C88884   5.784   7.974   7.633 -0.4426  0.0493 -0.3394
  659MOL0     C88885   5.653   7.952   7.662 -0.2442  0.0569  0.2704
  659MOL0     C88886   5.568   7.889   7.566 -0.3495 -0.2097 -0.4196
  659MOL0     C88887   5.615   7.856   7.440  0.4102 -0.5135  0.4852
  659MOL0     O88888   5.524   7.803   7.356 -0.1422 -0.3889 -0.5350
  659MOL0     C88889   5.568   7.740   7.234  0.5929  0.5721 -0.6325
  659MOL0     C88890   5.449   7.722   7.145  0.5231  0.6196 -0.1143
  659MOL0     C88891   5.357   7.845   7.115 -0.5095  0.3700  0.4541
  659MOL0     C88892   5.237   7.796   7.044 -0.2359  0.9438 -0.2150
  659MOL0     C88893   5.165   7.903   6.976  0.3777 -0.5594 -0.1752
  659MOL0     C88894   5.112   7.999   6.918 -0.1458 -0.9749 -0.0086
  659MOL0     C88895   5.743   7.889   7.410  0.7770  0.5170 -0.5723
  659MOL0     C88896   5.833   7.946   7.503 -1.0337  0.6256 -0.3672
  659MOL0     C88897   5.977   7.961   7.456  0.0156  0.4278 -0.7623
  659MOL0     H88898   6.091   8.155   7.879 -0.3930 -2.4801 -0.3033
  659MOL0     H88899   6.192   8.230   8.075  0.7668 -1.1546  2.9682
  659MOL0     H88900   5.940   8.371   8.400 -0.5682 -1.6450 -2.4945
  659MOL0     H88901   5.984   8.213   8.472  2.1297 -1.0279 -1.5287
  659MOL0     H88902   6.049   8.429   8.608 -0.0646 -0.3638  0.0573
  659MOL0     H88903   6.137   8.477   8.469 -3.3815  1.4103 -0.0412
  659MOL0     H88904   6.292   8.276   8.508 -0.3876  3.8619 -1.5173
  659MOL0     H88905   6.177   8.208   8.632 -1.4956 -0.1259 -1.2672
  659MOL0     H88906   6.356   8.458   8.631 -0.4499  0.3861  0.0026
  659MOL0     H88907   6.234   8.425   8.753 -1.9700  1.6286 -2.2318
  659MOL0     H88908   6.358   8.209   8.791 -2.5943  1.4172 -2.1098
  659MOL0     H88909   6.499   8.261   8.701 -1.7659 -1.3870 -0.5557
  659MOL0     H88910   6.534   8.455   8.861 -2.0614  2.2880  2.1923
  659MOL0     H88911   6.385   8.431   8.934  0.7609  1.8622 -1.7319
  659MOL0     H88912   6.463   8.191   8.994  2.0963 -1.6542  0.5736
  659MOL0     H88913   6.538   8.340   9.074 -0.4808  1.7972 -0.8580
  659MOL0     H88914   6.640   8.153   8.873 -3.1078  0.5877  1.6406
  659MOL0     H88915   6.728   8.299   8.892 -1.2821  1.9642  2.2757
  659MOL0     H88916   6.847   8.338   9.154 -1.6010  1.1619  0.0941
  659MOL0     H88917   7.016   8.269   9.300 -1.2385  0.7108 -0.8137
  659MOL0     H88918   6.953   8.148   9.399 -0.2753  1.3175 -0.1557
  659MOL0     H88919   7.115   7.980   9.300  0.3222 -0.3197  1.1909
  659MOL0     H88920   7.178   8.094   9.177  1.9334  2.2911  0.1218
  659MOL0     H88921   7.319   8.067   9.379  1.3902 -0.0280 -1.8477
  659MOL0     H88922   7.193   8.150   9.472 -0.7936 -2.6745 -1.1820
  659MOL0     H88923   7.359   8.322   9.410  1.0123 -0.7560 -1.9312
  659MOL0     H88924   7.210   8.340   9.327  1.9243  3.1745  1.4182
  659MOL0     H88925   7.413   8.050   9.104  0.8466 -0.5608  0.6205
  659MOL0     H88926   7.646   7.943   9.048 -0.1413  0.2538  0.2119
  659MOL0     H88927   8.143   8.117   8.918  0.6612 -3.2996 -0.7426
  659MOL0     H88928   8.392   8.068   8.930  1.4991  0.4181  0.7586
  659MOL0     H88929   8.562   8.082   9.316  0.0879 -1.1071  0.7523
  659MOL0     H88930   8.545   7.908   9.313 -0.3758 -1.3216 -1.7371
  659MOL0     H88931   8.764   7.927   9.356  1.1783  1.9808  1.3379
  659MOL0     H88932   8.766   7.911   9.177 -0.7284  0.1967  1.4817
  659MOL0     H88933   8.787   8.173   9.180  1.4406 -0.1492 -1.3786
  659MOL0     H88934   8.853   8.156   9.338 -1.4817  3.5198 -2.5073
  659MOL0     H88935   8.981   8.035   9.093  3.4591 -0.3438 -0.0675
  659MOL0     H88936   8.999   7.959   9.247 -1.3708 -0.1116  0.0924
  659MOL0     H88937   9.187   8.117   9.220 -0.0525 -0.1265 -0.5253
  659MOL0     H88938   9.082   8.207   9.334  0.3205 -1.1612  1.5592
  659MOL0     H88939   9.113   8.235   9.033 -0.5277 -0.0863 -0.3674
  659MOL0     H88940   8.974   8.313   9.111 -0.1790  1.0191  0.7476
  659MOL0     H88941   9.262   8.366   9.200  0.0122 -2.6141 -0.1190
  659MOL0     H88942   9.105   8.432   9.260 -1.3818 -0.5095 -0.1705
  659MOL0     H88943   9.057   8.530   9.030  0.2594  2.2302  0.8543
  659MOL0     H88944   9.180   8.602   9.119 -1.3563  0.4616 -0.8226
  659MOL0     H88945   8.346   7.978   9.343  2.8182  0.8358 -0.7538
  659MOL0     H88946   8.098   8.023   9.327  1.1578  3.5573  1.7231
  659MOL0     H88947   7.805   8.289   9.250 -0.5769 -1.2531  1.6001
  659MOL0     H88948   7.600   8.383   9.280 -0.8660  1.2090 -1.0759
  659MOL0     H88949   5.832   8.207   8.295 -0.1878 -0.9687 -0.6513
  659MOL0     H88950   5.708   8.130   8.089  0.6020 -0.0592  0.6678
  659MOL0     H88951   5.606   7.971   7.758  0.4264  1.5740  0.3224
  659MOL0     H88952   5.462   7.876   7.585 -0.1512 -2.7339 -0.6984
  659MOL0     H88953   5.632   7.654   7.254  1.0556  1.0310 -0.1040
  659MOL0     H88954   5.639   7.814   7.195  1.6195 -0.0446  0.0284
  659MOL0     H88955   5.393   7.631   7.170  2.2394 -1.7885 -3.9528
  659MOL0     H88956   5.488   7.699   7.045  0.1355 -0.4605 -0.0356
  659MOL0     H88957   5.420   7.909   7.053 -0.0638 -1.4299 -1.0377
  659MOL0     H88958   5.318   7.892   7.206 -1.8863  0.1543 -0.0006
  659MOL0     H88959   5.277   7.729   6.967 -2.0948 -1.0659  0.4369
  659MOL0     H88960   5.175   7.740   7.115 -2.8148  0.4181 -2.6753
  659MOL0     H88961   5.053   8.083   6.886 -1.4310 -1.3157  1.3394
  659MOL0     H88962   5.791   7.866   7.315  2.7414  3.3925 -0.3924
  659MOL0     H88963   5.972   7.971   7.347  1.1661  0.3927 -0.8262
  659MOL0     H88964   6.010   8.058   7.496 -1.9025  1.4969 -1.6256
  659MOL0     H88965   6.040   7.874   7.478  1.5901  0.7404 -3.5906
  660MOL0     O88966  11.261   1.003   1.620 -0.0656  0.2913  0.3140
  660MOL0     C88967  11.350   1.080   1.586  0.1557  0.8957  0.4618
  660MOL0     O88968  11.383   1.111   1.458 -0.2947 -0.1644 -0.0185
  660MOL0     C88969  11.284   1.081   1.365  0.6761 -0.1720 -0.2339
  660MOL0     C88970  11.247   0.952   1.328 -0.0720 -0.4342 -0.6627
  660MOL0     C88971  11.158   0.927   1.222 -0.9491 -0.4934 -1.0807
  660MOL0     C88972  11.105   1.032   1.143 -0.5181  0.0563 -0.8373
  660MOL0     O88973  11.025   1.003   1.034  0.5571 -0.5358 -0.2396
  660MOL0     C88974  10.999   1.111   0.942  0.1511 -0.0086  0.1308
  660MOL0     C88975  10.907   1.061   0.823  0.2802 -0.0530 -0.6000
  660MOL0     C88976  10.881   1.168   0.715 -0.2220 -0.8065 -0.5973
  660MOL0     C88977  10.804   1.288   0.773  0.9633 -0.2394  0.0539
  660MOL0     C88978  10.720   1.352   0.666 -0.8354 -0.5890  0.1160
  660MOL0     C88979  10.797   1.371   0.535  0.3161  0.3287 -0.4362
  660MOL0     C88980  10.741   1.479   0.443  0.2416  0.1143 -0.3905
  660MOL0     C88981  10.722   1.619   0.510 -0.5021  0.7161 -0.0332
  660MOL0     N88982  10.860   1.651   0.565  0.3477 -1.0657 -0.5040
  660MOL0     C88983  10.889   1.697   0.691 -1.3034 -0.2186 -0.1555
  660MOL0     C88984  11.021   1.740   0.677 -0.1201 -0.2335 -0.1374
  660MOL0     C88985  11.107   1.828   0.770  0.1843  0.3515  0.2227
  660MOL0     C88986  11.017   1.940   0.834 -0.4964 -0.4705  0.9889
  660MOL0     C88987  10.944   2.019   0.725 -0.4819  0.3401 -0.6025
  660MOL0     C88988  10.853   2.117   0.775  0.4288  0.0617 -0.3882
  660MOL0     O88989  10.764   2.172   0.677 -0.8662 -0.6386  0.1463
  660MOL0     C88990  10.668   2.259   0.726 -0.1261 -0.3412  0.7318
  660MOL0     C88991  10.577   2.322   0.635  0.0357  0.2766 -0.2887
  660MOL0     C88992  10.460   2.384   0.677 -0.6900 -0.6615 -0.2321
  660MOL0     C88993  10.429   2.391   0.813  0.6894 -0.1631 -0.3180
  660MOL0     C88994  10.293   2.424   0.855  0.2420 -0.1558  0.5915
  660MOL0     O88995  10.214   2.476   0.757  0.0104  0.2539 -0.7006
  660MOL0     C88996  10.081   2.503   0.777 -0.0024  0.3322  0.7579
  660MOL0     C88997  10.024   2.618   0.717  0.7766  0.6095  0.1533
  660MOL0     C88998   9.885   2.629   0.708  0.9304 -0.1284 -0.2042
  660MOL0     C88999   9.804   2.537   0.769  0.2944 -0.8104 -0.3229
  660MOL0     O89000   9.667   2.539   0.755 -0.5311 -0.4304  0.0709
  660MOL0     C89001   9.600   2.588   0.637  0.4647  0.0620 -0.3736
  660MOL0     C89002   9.507   2.488   0.571 -0.2262  0.4753 -0.5108
  660MOL0     C89003   9.369   2.462   0.635 -0.1096 -0.2108  0.0864
  660MOL0     C89004   9.296   2.361   0.543  0.1589 -0.8314 -0.4806
  660MOL0     C89005   9.174   2.295   0.613  0.0171 -0.2635 -0.1990
  660MOL0     C89006   9.077   2.408   0.680 -0.5395 -0.3424  0.4427
  660MOL0     C89007   9.021   2.500   0.575  0.1459 -0.3418  0.6646
  660MOL0     C89008   8.924   2.605   0.631 -0.1375 -0.3291  0.5401
  660MOL0    Cl89009   8.891   2.731   0.507  0.2305  0.3952 -0.1774
  660MOL0     C89010   9.857   2.434   0.841 -1.1880  0.0250 -0.2221
  660MOL0     C89011   9.993   2.417   0.845 -0.0764  0.3682 -0.0481
  660MOL0     O89012  10.260   2.394   0.970  0.4213  0.5139  0.1753
  660MOL0     C89013  10.522   2.341   0.903  0.0362 -0.2782  0.8065
  660MOL0     C89014  10.645   2.272   0.864  0.5393  0.0096  0.7729
  660MOL0     N89015  11.068   1.706   0.553  0.6669 -0.3791 -0.1816
  660MOL0     N89016  10.977   1.643   0.492  0.2206  0.3134  0.4998
  660MOL0     C89017  11.132   1.161   1.183 -0.1104  0.3187 -0.1854
  660MOL0     C89018  11.222   1.188   1.290  0.5789 -0.1616 -0.2441
  660MOL0     C89019  11.448   1.118   1.682  0.7143  0.5323 -0.9897
  660MOL0     C89020  11.586   1.104   1.657  0.0600  0.6113 -0.2029
  660MOL0     C89021  11.673   1.150   1.755 -0.3206  0.2430 -0.8943
  660MOL0     C89022  11.633   1.221   1.869  0.5855  0.4960 -0.5451
  660MOL0     O89023  11.728   1.269   1.960  0.0981  0.4637 -0.5509
  660MOL0     C89024  11.704   1.367   2.063  0.2654 -0.1267 -0.1690
  660MOL0     C89025  11.680   1.515   2.006  0.1542 -0.1182  0.4137
  660MOL0     C89026  11.682   1.629   2.106 -0.1819 -0.1084 -0.5614
  660MOL0     C89027  11.753   1.748   2.052 -0.3780 -0.3068  0.2630
  660MOL0     C89028  11.741   1.854   2.151 -0.2736  0.0461 -0.6000
  660MOL0     C89029  11.730   1.921   2.251 -0.6818 -0.3073 -0.1731
  660MOL0     C89030  11.495   1.247   1.884 -0.3494 -0.3162 -0.7851
  660MOL0     C89031  11.405   1.199   1.789  0.4436  0.1665  0.4267
  660MOL0     C89032  11.257   1.219   1.819  0.6500 -0.8532 -0.1191
  660MOL0     H89033  11.277   0.865   1.385 -2.2947 -1.0126 -0.2816
  660MOL0     H89034  11.125   0.827   1.196 -0.1775 -0.1412 -3.6615
  660MOL0     H89035  10.950   1.190   0.999  0.1906  0.2182 -0.1464
  660MOL0     H89036  11.097   1.149   0.910 -0.1873 -0.8551 -2.0971
  660MOL0     H89037  10.810   1.024   0.858  0.1905  1.1048  0.4661
  660MOL0     H89038  10.954   0.973   0.778  2.0144  0.9338 -0.7957
  660MOL0     H89039  10.818   1.119   0.640  1.4385  1.8589 -4.0004
  660MOL0     H89040  10.968   1.208   0.663  0.5985  0.1366  1.4011
  660MOL0     H89041  10.735   1.252   0.850 -1.5273  4.0186  0.1212
  660MOL0     H89042  10.863   1.364   0.823 -1.3489  2.4662 -1.0521
  660MOL0     H89043  10.629   1.296   0.644 -1.5606  1.1117 -1.5622
  660MOL0     H89044  10.702   1.455   0.701  1.3820 -1.0799  3.1726
  660MOL0     H89045  10.897   1.402   0.567 -0.6152  1.5910  1.4584
  660MOL0     H89046  10.808   1.278   0.479 -0.3175  2.2870 -4.1476
  660MOL0     H89047  10.646   1.450   0.397  1.8585 -2.5069 -2.3052
  660MOL0     H89048  10.809   1.493   0.359  0.3054  0.3525 -0.3008
  660MOL0     H89049  10.696   1.689   0.430  1.1875  0.2623 -1.0274
  660MOL0     H89050  10.650   1.632   0.591 -0.6980 -1.0923  0.1189
  660MOL0     H89051  10.828   1.707   0.780  0.8011 -3.2510  1.7936
  660MOL0     H89052  11.143   1.772   0.856 -0.3383  2.0414  1.6036
  660MOL0     H89053  11.185   1.878   0.711 -0.5010 -0.2453 -1.2509
  660MOL0     H89054  10.944   1.894   0.901 -2.6107  1.2294 -0.0125
  660MOL0     H89055  11.086   2.014   0.875 -0.4507 -0.0284  0.1397
  660MOL0     H89056  10.885   1.952   0.662  0.5541  0.4479 -1.7410
  660MOL0     H89057  11.014   2.077   0.664 -0.7773  3.3951  1.7201
  660MOL0     H89058  10.910   2.190   0.833 -1.4400  1.0633  0.2699
  660MOL0     H89059  10.784   2.062   0.840  0.6568 -0.2179 -0.3826
  660MOL0     H89060  10.604   2.304   0.532  0.2721 -0.0016 -0.1796
  660MOL0     H89061  10.393   2.425   0.602  0.6384 -1.1598 -1.7543
  660MOL0     H89062  10.083   2.692   0.664  2.4447 -2.1772 -2.0756
  660MOL0     H89063   9.850   2.718   0.657 -0.5339 -0.7047 -0.2474
  660MOL0     H89064   9.543   2.675   0.671  1.4044 -0.0260  1.5634
  660MOL0     H89065   9.672   2.628   0.564 -1.1517 -0.1450 -2.1467
  660MOL0     H89066   9.473   2.513   0.470 -1.8482 -1.3040 -0.4727
  660MOL0     H89067   9.574   2.401   0.566  2.7265  2.4700  1.1476
  660MOL0     H89068   9.384   2.421   0.735  0.9131 -1.7484 -0.6438
  660MOL0     H89069   9.315   2.556   0.641 -0.1601 -0.2494  0.2378
  660MOL0     H89070   9.374   2.288   0.519  2.2067  0.6749  1.2443
  660MOL0     H89071   9.275   2.410   0.447 -0.5005  1.1433  0.6229
  660MOL0     H89072   9.215   2.225   0.686 -0.4073 -0.0919  0.2068
  660MOL0     H89073   9.124   2.234   0.536  0.5636 -1.0382  0.0415
  660MOL0     H89074   8.999   2.353   0.733 -0.6251 -0.7560 -0.1037
  660MOL0     H89075   9.133   2.462   0.757  1.0464 -2.0714  0.5789
  660MOL0     H89076   8.975   2.433   0.502  0.4832 -0.4178  0.5192
  660MOL0     H89077   9.103   2.550   0.523 -0.1776  0.0630  0.5431
  660MOL0     H89078   8.824   2.567   0.655 -0.8749  1.2815  0.1438
  660MOL0     H89079   8.961   2.636   0.730 -0.1954 -1.5759  0.9690
  660MOL0     H89080   9.784   2.373   0.894 -0.5964  0.1580  0.7683
  660MOL0     H89081  10.040   2.330   0.891 -0.2199  1.0617  1.4827
  660MOL0     H89082  10.494   2.342   1.007 -0.4405  1.5088  0.6976
  660MOL0     H89083  10.715   2.236   0.938  0.4860  1.4741  1.5748
  660MOL0     H89084  11.077   1.237   1.129 -0.2950  0.3375  0.0294
  660MOL0     H89085  11.251   1.288   1.322  0.8612 -0.1785 -0.4473
  660MOL0     H89086  11.624   1.048   1.572 -0.1507  0.9671 -0.5319
  660MOL0     H89087  11.780   1.133   1.756  0.0508  2.2308  1.0626
  660MOL0     H89088  11.787   1.381   2.132  0.0163  1.8341 -0.2029
  660MOL0     H89089  11.621   1.340   2.128 -0.4629  1.4005 -0.4149
  660MOL0     H89090  11.592   1.527   1.942  0.4230  2.6911  0.4616
  660MOL0     H89091  11.764   1.527   1.937 -0.3058  1.2019  0.0611
  660MOL0     H89092  11.731   1.600   2.199  0.4924 -0.6996 -1.0883
  660MOL0     H89093  11.575   1.648   2.120 -0.8342  2.2150 -6.0774
  660MOL0     H89094  11.859   1.724   2.046 -0.1162  0.6958  0.7084
  660MOL0     H89095  11.707   1.784   1.959 -1.5004  0.2146  0.9938
  660MOL0     H89096  11.718   1.989   2.332  1.2721  1.5829 -1.3450
  660MOL0     H89097  11.456   1.310   1.963  1.4691  1.7186 -1.4097
  660MOL0     H89098  11.244   1.293   1.899  2.8470  0.5120 -0.9280
  660MOL0     H89099  11.187   1.245   1.739  1.9401 -0.7711 -1.2533
  660MOL0     H89100  11.231   1.125   1.869  3.2501 -0.4420  2.3079
  661MOL0     O89101   7.387   9.038   6.402  0.6088 -1.3823 -0.3099
  661MOL0     C89102   7.358   9.155   6.388  0.2159  0.3494 -0.5978
  661MOL0     O89103   7.444   9.247   6.355 -0.0486 -0.2556 -0.0185
  661MOL0     C89104   7.578   9.234   6.365  0.6930  1.5098  0.3970
  661MOL0     C89105   7.648   9.296   6.267  0.4570 -0.7923  0.2652
  661MOL0     C89106   7.789   9.291   6.273 -0.4582  0.3203  0.4877
  661MOL0     C89107   7.857   9.227   6.378 -0.5029  0.1897  0.1125
  661MOL0     O89108   7.998   9.241   6.395  0.6090  0.3323  0.8964
  661MOL0     C89109   8.087   9.303   6.299 -1.1029  0.7296 -0.7161
  661MOL0     C89110   8.231   9.264   6.326 -0.6721 -0.4131  0.4287
  661MOL0     C89111   8.294   9.344   6.442 -0.2012  0.5812  0.3693
  661MOL0     C89112   8.443   9.302   6.450 -0.7749  0.0543 -0.3490
  661MOL0     C89113   8.508   9.374   6.567  0.5686 -0.1060  0.2870
  661MOL0     C89114   8.655   9.358   6.544 -0.0400 -1.3124 -0.5026
  661MOL0     C89115   8.727   9.415   6.664  0.2177  0.0602 -0.4940
  661MOL0     C89116   8.870   9.373   6.678 -0.1434 -0.6661  0.1082
  661MOL0     N89117   8.924   9.404   6.819 -1.3094  0.3092 -0.1795
  661MOL0     C89118   8.996   9.520   6.860  1.1719 -0.5209  0.4947
  661MOL0     C89119   9.029   9.488   6.981  0.3947 -0.5330 -0.1017
  661MOL0     C89120   9.103   9.591   7.067  0.1453 -0.1850  0.7475
  661MOL0     C89121   9.212   9.553   7.156 -0.0506  0.2339 -0.3508
  661MOL0     C89122   9.332   9.506   7.081 -0.5675  0.0617  0.0765
  661MOL0     C89123   9.457   9.484   7.172 -0.4452  0.2778  0.0349
  661MOL0     O89124   9.508   9.608   7.220 -0.7324 -0.0607  0.0346
  661MOL0     C89125   9.628   9.591   7.286 -0.2183 -0.5511  0.2883
  661MOL0     C89126   9.702   9.470   7.307 -0.0031  0.5113  0.3562
  661MOL0     C89127   9.828   9.463   7.358 -0.4089 -0.5704  0.1649
  661MOL0     C89128   9.888   9.588   7.387  0.0942 -0.4813 -0.7383
  661MOL0     C89129  10.028   9.586   7.422  0.6150  0.0090  0.2937
  661MOL0     O89130  10.075   9.711   7.440 -1.0202 -0.1372  0.4204
  661MOL0     C89131  10.206   9.723   7.471 -0.2641  0.4933 -0.2573
  661MOL0     C89132  10.304   9.735   7.369 -0.0961  0.3017  0.7311
  661MOL0     C89133  10.438   9.745   7.407  0.2524 -0.1758 -0.2951
  661MOL0     C89134  10.482   9.752   7.544 -0.1010  0.2564 -0.5737
  661MOL0     O89135  10.611   9.776   7.589  0.0788  0.4648 -0.0219
  661MOL0     C89136  10.724   9.730   7.513 -0.5637 -0.1538  0.1575
  661MOL0     C89137  10.839   9.735   7.601 -1.0321 -0.3909 -0.4002
  661MOL0     C89138  10.965   9.680   7.536  0.4872  0.6368 -0.1670
  661MOL0     C89139  11.096   9.747   7.582 -0.8034  0.1517  0.4175
  661MOL0     C89140  11.225   9.683   7.506  0.0903 -0.1660 -0.8366
  661MOL0     C89141  11.357   9.757   7.529 -0.6446 -0.3706  0.5488
  661MOL0     C89142  11.437   9.679   7.641 -0.2582 -0.8129  1.5614
  661MOL0     C89143  11.570   9.754   7.680  0.5839 -0.3370  0.5966
  661MOL0    Cl89144  11.536   9.900   7.780 -0.2978 -0.3864  0.2638
  661MOL0     C89145  10.382   9.727   7.642  0.3706  0.1875 -0.5889
  661MOL0     C89146  10.247   9.717   7.609 -0.4316  0.3411 -0.4297
  661MOL0     O89147  10.088   9.481   7.439 -0.5312 -0.6092 -0.0198
  661MOL0     C89148   9.817   9.712   7.380  0.9480  0.1814 -0.2040
  661MOL0     C89149   9.690   9.713   7.315  0.6684  0.7169  0.6723
  661MOL0     N89150   8.975   9.368   7.025 -0.8665  0.4306 -0.5951
  661MOL0     N89151   8.919   9.313   6.920 -0.5275 -0.0884  0.7970
  661MOL0     C89152   7.780   9.157   6.480 -0.6352  0.8791  0.4706
  661MOL0     C89153   7.644   9.168   6.470  0.2380 -0.4971  0.7796
  661MOL0     C89154   7.218   9.201   6.405  0.4940  0.1332 -0.2639
  661MOL0     C89155   7.187   9.326   6.360  0.2857  0.2169 -0.8255
  661MOL0     C89156   7.061   9.388   6.378  0.4952  0.2990  0.3499
  661MOL0     C89157   6.956   9.311   6.425  0.4765 -0.2066 -0.3454
  661MOL0     O89158   6.831   9.368   6.448 -0.2694  0.0398 -0.3806
  661MOL0     C89159   6.752   9.383   6.331  0.0982  0.6599  0.1478
  661MOL0     C89160   6.693   9.252   6.274 -0.9250  0.3179  0.7377
  661MOL0     C89161   6.613   9.161   6.376  0.0929  0.5898 -0.2632
  661MOL0     C89162   6.497   9.233   6.449 -0.3405  0.4733 -0.5579
  661MOL0     C89163   6.389   9.266   6.357 -0.9814  0.4494 -0.6053
  661MOL0     C89164   6.315   9.277   6.259  0.4509  0.3573  0.1253
  661MOL0     C89165   6.978   9.185   6.472 -0.4196  0.5456 -0.8894
  661MOL0     C89166   7.112   9.129   6.468 -0.1572 -0.1779  0.0318
  661MOL0     C89167   7.127   8.987   6.510 -0.4485  0.4492 -0.3223
  661MOL0     H89168   7.608   9.343   6.178 -1.4360 -3.2705 -0.2775
  661MOL0     H89169   7.846   9.342   6.196  0.8233  0.1506  1.3037
  661MOL0     H89170   8.055   9.260   6.204  2.2663 -2.6375 -0.5519
  661MOL0     H89171   8.081   9.412   6.298  1.6822  0.9612 -0.7604
  661MOL0     H89172   8.280   9.280   6.230  0.4670 -2.2285  0.6714
  661MOL0     H89173   8.234   9.155   6.337  0.4319 -0.4562 -0.1528
  661MOL0     H89174   8.235   9.313   6.529  0.1512  1.3331  0.8895
  661MOL0     H89175   8.283   9.452   6.428 -1.1186  0.8306  2.4888
  661MOL0     H89176   8.444   9.193   6.448 -0.7783 -0.0221  1.8377
  661MOL0     H89177   8.482   9.333   6.352 -2.2201 -0.2099 -1.0390
  661MOL0     H89178   8.471   9.477   6.568  0.1219 -0.1997 -1.9102
  661MOL0     H89179   8.476   9.334   6.664  0.9869  0.9278  0.8641
  661MOL0     H89180   8.680   9.253   6.524 -0.8778 -1.7800  0.7580
  661MOL0     H89181   8.677   9.422   6.458 -1.6028  1.3286  0.9525
  661MOL0     H89182   8.669   9.376   6.749 -0.1321 -2.6795 -1.8445
  661MOL0     H89183   8.726   9.524   6.661  3.4124  0.1342 -1.5945
  661MOL0     H89184   8.872   9.267   6.651 -1.0361  0.2658 -4.4932
  661MOL0     H89185   8.931   9.424   6.602  0.4401 -1.0585  0.3051
  661MOL0     H89186   9.028   9.612   6.814 -1.5008  1.8385  2.9078
  661MOL0     H89187   9.146   9.668   7.003  2.9655  1.6683  4.5070
  661MOL0     H89188   9.018   9.641   7.114 -1.8962 -0.6454 -2.1498
  661MOL0     H89189   9.242   9.628   7.230 -0.9060 -0.0200  0.2657
  661MOL0     H89190   9.181   9.464   7.212 -0.1306 -0.6867 -1.7966
  661MOL0     H89191   9.366   9.570   7.000 -2.4412 -0.5111 -1.2238
  661MOL0     H89192   9.294   9.412   7.040 -2.0821 -0.5672  2.6805
  661MOL0     H89193   9.537   9.446   7.107  0.0740  0.9306  0.2789
  661MOL0     H89194   9.440   9.401   7.241 -1.8406 -1.8177 -2.5915
  661MOL0     H89195   9.655   9.373   7.290 -1.7661  1.1796  1.1620
  661MOL0     H89196   9.887   9.373   7.368 -1.1614 -1.3832 -2.1564
  661MOL0     H89197  10.265   9.729   7.268 -0.0038 -1.3953  0.7705
  661MOL0     H89198  10.511   9.766   7.330 -0.0547  2.3692  0.0252
  661MOL0     H89199  10.705   9.630   7.474 -0.2805  0.6362 -2.1895
  661MOL0     H89200  10.752   9.797   7.431  0.1736  0.5985  1.0046
  661MOL0     H89201  10.860   9.834   7.642  0.0043 -0.3278 -1.0661
  661MOL0     H89202  10.824   9.672   7.689 -3.2289 -0.6441 -0.8867
  661MOL0     H89203  10.979   9.572   7.548  1.5422  0.5775 -1.6084
  661MOL0     H89204  10.969   9.699   7.429 -0.5614 -0.1948 -0.3724
  661MOL0     H89205  11.110   9.738   7.690 -0.5609  0.6238  0.4294
  661MOL0     H89206  11.089   9.854   7.560 -1.5829 -0.2991 -1.8546
  661MOL0     H89207  11.202   9.672   7.399 -0.8999 -0.8686 -0.5661
  661MOL0     H89208  11.238   9.579   7.539  0.8424  0.1623 -0.0568
  661MOL0     H89209  11.422   9.763   7.441 -1.8393  3.4671 -0.2698
  661MOL0     H89210  11.355   9.865   7.544  0.4588 -0.3883  0.9526
  661MOL0     H89211  11.467   9.583   7.598  0.4012 -1.7549  3.9980
  661MOL0     H89212  11.381   9.647   7.729 -1.2266 -0.8116  0.9637
  661MOL0     H89213  11.634   9.687   7.737  1.0930  1.9478  2.8262
  661MOL0     H89214  11.618   9.775   7.584 -0.3149 -0.4207  0.1106
  661MOL0     H89215  10.418   9.737   7.744 -2.5386 -0.5539  0.6367
  661MOL0     H89216  10.171   9.693   7.682 -0.0609 -0.6125 -0.3382
  661MOL0     H89217   9.865   9.799   7.423  1.1772 -0.1249  0.1714
  661MOL0     H89218   9.637   9.806   7.300 -0.5608  0.0098  0.4926
  661MOL0     H89219   7.826   9.110   6.567 -3.1169 -2.6432  0.1072
  661MOL0     H89220   7.585   9.118   6.547  2.8677 -1.5129  2.2826
  661MOL0     H89221   7.269   9.382   6.316  1.1189  1.4606  2.0687
  661MOL0     H89222   7.035   9.487   6.342 -3.1221 -0.8557 -0.5636
  661MOL0     H89223   6.806   9.426   6.246  0.9665  0.9822  0.8403
  661MOL0     H89224   6.668   9.452   6.341 -1.5720 -1.2871  0.0397
  661MOL0     H89225   6.783   9.202   6.236  0.8408  2.6951  1.5778
  661MOL0     H89226   6.624   9.277   6.192 -2.2471 -0.7824  1.4582
  661MOL0     H89227   6.688   9.119   6.443  0.6889  1.2687 -0.4990
  661MOL0     H89228   6.570   9.079   6.318  3.2296  0.2273 -2.3131
  661MOL0     H89229   6.463   9.152   6.514 -0.5276  0.2796 -0.8966
  661MOL0     H89230   6.527   9.319   6.509  2.2417 -0.7044 -0.0055
  661MOL0     H89231   6.241   9.273   6.182  0.4666 -2.1530  0.1530
  661MOL0     H89232   6.900   9.124   6.516 -1.0045 -0.5048 -3.2075
  661MOL0     H89233   7.142   8.921   6.424 -1.1221  0.5943 -0.5553
  661MOL0     H89234   7.209   8.981   6.583  0.7851  1.5021 -1.5599
  661MOL0     H89235   7.042   8.958   6.571  0.5035 -0.6634  0.5332
  662MOL0     O89236   4.093   8.496   7.136 -0.9858  0.6257 -0.1238
  662MOL0     C89237   4.082   8.401   7.211  0.1716  0.3849 -0.3456
  662MOL0     O89238   4.184   8.311   7.243  0.7335  0.1725  0.3478
  662MOL0     C89239   4.299   8.320   7.174  0.5017 -0.2906 -0.4377
  662MOL0     C89240   4.331   8.227   7.069  0.6551 -0.0984  0.2502
  662MOL0     C89241   4.452   8.231   7.003  0.6694  0.2652  0.2396
  662MOL0     C89242   4.538   8.328   7.041 -0.8583 -0.0368  0.3966
  662MOL0     O89243   4.654   8.360   6.972  0.2811 -0.0058  0.1989
  662MOL0     C89244   4.759   8.272   6.994 -0.7894  0.1208 -0.5472
  662MOL0     C89245   4.839   8.301   7.122  0.5473  0.7242 -0.3277
  662MOL0     C89246   4.890   8.449   7.130 -0.5704  0.5620  0.0497
  662MOL0     C89247   5.040   8.471   7.168  0.3263 -0.4448 -0.0715
  662MOL0     C89248   5.065   8.440   7.317  0.4201 -0.0689 -0.2091
  662MOL0     C89249   5.218   8.445   7.346 -0.0363  0.3818  0.0294
  662MOL0     C89250   5.256   8.416   7.494  0.1194 -0.9482  0.2094
  662MOL0     C89251   5.411   8.405   7.500 -0.3011  0.3697  0.2523
  662MOL0     N89252   5.448   8.359   7.630 -0.2276 -0.1668 -0.2497
  662MOL0     C89253   5.449   8.439   7.738  0.1402 -0.2912 -0.5877
  662MOL0     C89254   5.490   8.360   7.832  0.3104  0.9139 -0.3563
  662MOL0     C89255   5.494   8.418   7.970 -0.9617 -0.3585  0.8830
  662MOL0     C89256   5.605   8.526   7.974  0.4053 -0.2392  0.0908
  662MOL0     C89257   5.617   8.594   8.116  0.5102 -0.5371 -0.1139
  662MOL0     C89258   5.711   8.710   8.116  0.8824  0.3556 -1.1573
  662MOL0     O89259   5.839   8.646   8.106  0.5923  0.2366 -0.3531
  662MOL0     C89260   5.952   8.720   8.124 -1.1479  0.7280 -0.4548
  662MOL0     C89261   6.072   8.637   8.138 -0.2246 -0.6053  0.9133
  662MOL0     C89262   6.195   8.694   8.160  0.3031  0.1305  0.5315
  662MOL0     C89263   6.210   8.831   8.162  0.6339  0.5214  0.1764
  662MOL0     C89264   6.347   8.882   8.196  0.1312  0.2935 -0.0436
  662MOL0     O89265   6.358   9.017   8.222 -0.3387 -0.5132  0.3261
  662MOL0     C89266   6.460   9.054   8.307 -0.1512  0.6359  0.1707
  662MOL0     C89267   6.518   9.171   8.271 -0.0692  1.0294  0.5209
  662MOL0     C89268   6.617   9.232   8.347 -0.8434  0.8515  0.6237
  662MOL0     C89269   6.654   9.169   8.469 -0.5243 -0.3061  0.6012
  662MOL0     O89270   6.744   9.220   8.556  0.3360  0.0813  0.8139
  662MOL0     C89271   6.836   9.319   8.512  0.2650 -0.5769  0.8675
  662MOL0     C89272   6.941   9.345   8.625  0.0187 -0.4806  0.0178
  662MOL0     C89273   7.080   9.380   8.575  0.1433 -0.0628  0.8035
  662MOL0     C89274   7.183   9.405   8.679 -0.0069  0.1590  0.3321
  662MOL0     C89275   7.320   9.426   8.610 -0.6231 -0.1549  0.6515
  662MOL0     C89276   7.373   9.568   8.597 -0.0694 -0.4427 -0.2855
  662MOL0     C89277   7.281   9.659   8.528 -0.1111  0.0602 -0.5129
  662MOL0     C89278   7.336   9.797   8.517 -0.2974 -0.3040  0.3624
  662MOL0    Cl89279   7.475   9.823   8.411 -0.0346  0.4721 -0.4042
  662MOL0     C89280   6.594   9.058   8.506 -0.6210 -0.0798  0.4860
  662MOL0     C89281   6.502   8.991   8.421  0.3257  0.0610  0.0136
  662MOL0     O89282   6.436   8.796   8.212 -1.0155  0.3568 -0.4215
  662MOL0     C89283   6.096   8.912   8.140 -0.2067 -0.0108  0.1159
  662MOL0     C89284   5.967   8.856   8.128  0.2764  0.2733  0.0841
  662MOL0     N89285   5.507   8.229   7.791  0.1520 -0.5214 -0.2347
  662MOL0     N89286   5.489   8.235   7.659  0.5774  0.1933  0.1642
  662MOL0     C89287   4.514   8.414   7.148  0.6602  0.1656  0.1673
  662MOL0     C89288   4.395   8.411   7.215 -0.2131  0.2357  0.5582
  662MOL0     C89289   3.950   8.393   7.285  0.0496 -0.4698 -0.4528
  662MOL0     C89290   3.952   8.307   7.401  0.3163  0.0810 -0.4042
  662MOL0     C89291   3.825   8.277   7.464  0.0104 -0.5865  0.4166
  662MOL0     C89292   3.707   8.328   7.412  1.2063 -0.1480 -0.1104
  662MOL0     O89293   3.582   8.309   7.473  0.8530 -0.7251  0.0211
  662MOL0     C89294   3.573   8.241   7.599 -0.8646 -0.2836 -0.1145
  662MOL0     C89295   3.431   8.202   7.628  0.0987  0.2558 -0.0806
  662MOL0     C89296   3.373   8.095   7.538  0.4324 -0.7226  0.6331
  662MOL0     C89297   3.225   8.060   7.575  0.1325  0.3874 -0.3313
  662MOL0     C89298   3.200   8.024   7.712 -0.5444  0.4129  0.3583
  662MOL0     C89299   3.168   7.980   7.818 -0.4793 -0.2408  0.0885
  662MOL0     C89300   3.711   8.414   7.296 -0.0028  0.5998 -0.1440
  662MOL0     C89301   3.827   8.455   7.237 -0.0328 -0.0022 -0.2400
  662MOL0     C89302   3.820   8.551   7.122 -0.3177  0.4214 -0.3080
  662MOL0     H89303   4.259   8.154   7.034 -0.0257  2.0491 -3.4507
  662MOL0     H89304   4.476   8.164   6.921  0.1616  0.5665 -0.1620
  662MOL0     H89305   4.727   8.168   6.989  0.3803 -0.2296 -1.1920
  662MOL0     H89306   4.822   8.280   6.905  1.5471 -2.2767  0.7395
  662MOL0     H89307   4.929   8.238   7.130 -0.3934 -0.4052  3.4351
  662MOL0     H89308   4.781   8.275   7.211 -0.6063 -1.8228 -1.7245
  662MOL0     H89309   4.824   8.510   7.193 -0.7369  0.7746 -0.3268
  662MOL0     H89310   4.880   8.491   7.030  0.0806  1.0635  0.1900
  662MOL0     H89311   5.098   8.412   7.097  1.9013 -4.3267  3.9572
  662MOL0     H89312   5.085   8.567   7.146  2.0521 -0.7877  1.6806
  662MOL0     H89313   5.015   8.520   7.371  0.3270 -1.5831  2.0668
  662MOL0     H89314   5.023   8.341   7.335 -1.0920  0.7911  1.1657
  662MOL0     H89315   5.248   8.357   7.290 -1.7614  1.2229 -2.3793
  662MOL0     H89316   5.271   8.533   7.308  1.1534 -0.4244 -0.2480
  662MOL0     H89317   5.202   8.324   7.516  0.8086 -0.9687  2.0096
  662MOL0     H89318   5.211   8.486   7.566 -4.2400 -2.3381 -0.8947
  662MOL0     H89319   5.450   8.326   7.435  0.1043 -0.4947  1.5179
  662MOL0     H89320   5.456   8.502   7.476  0.6363  0.4060  2.0033
  662MOL0     H89321   5.433   8.547   7.744 -0.1084 -0.3880  0.9226
  662MOL0     H89322   5.403   8.472   7.998 -0.5426  0.6014  0.4268
  662MOL0     H89323   5.501   8.339   8.046  0.7318 -1.2515 -0.1364
  662MOL0     H89324   5.695   8.466   7.957 -0.6299 -2.6843  2.5542
  662MOL0     H89325   5.589   8.600   7.895  0.3505  0.2181  0.5309
  662MOL0     H89326   5.638   8.535   8.205  4.4148  0.7592  0.0375
  662MOL0     H89327   5.522   8.647   8.127  0.8713  0.8390 -2.7595
  662MOL0     H89328   5.706   8.760   8.213  3.3818  0.7211 -1.1594
  662MOL0     H89329   5.699   8.783   8.035  1.3895  2.2580  0.3935
  662MOL0     H89330   6.081   8.529   8.131 -0.9409 -0.5581 -1.6851
  662MOL0     H89331   6.277   8.623   8.170  0.3104  0.1390  0.5298
  662MOL0     H89332   6.481   9.226   8.184  2.2902  3.9030  1.1630
  662MOL0     H89333   6.668   9.324   8.322 -0.9358  0.4406 -1.2298
  662MOL0     H89334   6.895   9.286   8.426 -2.3052 -2.0550 -0.4524
  662MOL0     H89335   6.795   9.415   8.479 -2.6362 -1.2929  2.0775
  662MOL0     H89336   6.919   9.422   8.700  1.4249 -2.0918  2.1955
  662MOL0     H89337   6.954   9.251   8.679  1.5378 -1.2233 -1.5341
  662MOL0     H89338   7.111   9.288   8.525 -0.3739 -0.5844  1.4273
  662MOL0     H89339   7.079   9.458   8.498 -5.7170 -2.3411 -2.0654
  662MOL0     H89340   7.186   9.308   8.730  3.6107 -0.1599 -0.1870
  662MOL0     H89341   7.146   9.486   8.742 -1.0663 -1.7117  2.2399
  662MOL0     H89342   7.322   9.386   8.508 -1.8760  0.3650  0.4082
  662MOL0     H89343   7.398   9.380   8.672 -0.2919 -0.2627  0.1604
  662MOL0     H89344   7.403   9.606   8.694  2.4624  0.6412 -1.4096
  662MOL0     H89345   7.469   9.572   8.545  1.4007  2.8558  2.3889
  662MOL0     H89346   7.194   9.667   8.594 -0.1005  1.1637 -0.6154
  662MOL0     H89347   7.257   9.624   8.427 -2.0409 -0.4411  0.0758
  662MOL0     H89348   7.253   9.857   8.477 -1.9074 -1.4393  1.8489
  662MOL0     H89349   7.354   9.837   8.618  0.5002  2.7145 -0.8501
  662MOL0     H89350   6.617   9.020   8.605  2.4211  0.1483 -0.0601
  662MOL0     H89351   6.447   8.904   8.455  0.4970  0.5057  1.5185
  662MOL0     H89352   6.102   9.020   8.127 -1.8707  0.1989  0.7951
  662MOL0     H89353   5.878   8.916   8.114 -3.1135 -4.1106  0.6890
  662MOL0     H89354   4.593   8.480   7.183  2.1659 -0.4403 -1.9003
  662MOL0     H89355   4.368   8.471   7.301 -1.4155 -0.6049  0.7911
  662MOL0     H89356   4.046   8.264   7.434 -0.8129 -0.4641  2.3586
  662MOL0     H89357   3.819   8.228   7.560 -1.1077  0.9120  1.1567
  662MOL0     H89358   3.601   8.301   7.686 -5.8975  2.9721 -0.3335
  662MOL0     H89359   3.625   8.146   7.586 -1.2347 -0.2882 -1.6910
  662MOL0     H89360   3.378   8.297   7.623 -1.2802 -0.3563  1.6931
  662MOL0     H89361   3.426   8.171   7.733 -1.7921  0.1959 -0.1456
  662MOL0     H89362   3.429   8.002   7.546  1.8398  0.2295  2.8828
  662MOL0     H89363   3.363   8.139   7.438  2.5442  0.2840  0.8089
  662MOL0     H89364   3.163   8.150   7.563 -0.0006  0.2844 -0.4166
  662MOL0     H89365   3.185   7.987   7.505  1.0147  1.2776 -1.8230
  662MOL0     H89366   3.146   7.933   7.911 -1.2509 -0.7358 -0.3380
  662MOL0     H89367   3.618   8.458   7.262  0.8634  1.6033 -1.3113
  662MOL0     H89368   3.893   8.631   7.137  1.0698 -0.7997 -0.3643
  662MOL0     H89369   3.843   8.493   7.032 -2.2892  0.4323 -0.8830
  662MOL0     H89370   3.717   8.582   7.098  0.0747  1.3242 -0.8817
  663MOL0     O89371   4.048   9.555   9.511 -0.0983  0.5706 -0.1250
  663MOL0     C89372   4.050   9.672   9.480  0.0568  0.2572 -0.6605
  663MOL0     O89373   4.142   9.768   9.513 -0.2942  0.4539 -0.5555
  663MOL0     C89374   4.248   9.718   9.592 -0.5400  0.2876  0.6938
  663MOL0     C89375   4.374   9.699   9.540 -0.0975 -0.8434  0.1404
  663MOL0     C89376   4.483   9.661   9.618  0.8089  0.3735  1.0141
  663MOL0     C89377   4.462   9.639   9.755  0.3906 -0.3052 -0.2022
  663MOL0     O89378   4.566   9.601   9.836  0.8125  0.1727  0.3341
  663MOL0     C89379   4.538   9.508   9.936  0.6138 -0.1908  0.3201
  663MOL0     C89380   4.660   9.465  10.025  0.1833  0.1644 -0.1368
  663MOL0     C89381   4.760   9.393   9.953  0.2021 -0.1313 -0.2424
  663MOL0     C89382   4.875   9.360  10.050 -0.6660 -0.7115 -0.0576
  663MOL0     C89383   4.965   9.257   9.991  0.7271 -0.1166  0.7299
  663MOL0     C89384   5.088   9.232  10.074  0.7426  0.0202  0.3334
  663MOL0     C89385   5.167   9.117  10.007  0.4763 -0.5704 -0.2297
  663MOL0     C89386   5.275   9.049  10.103  0.0009 -0.7676 -0.4198
  663MOL0     N89387   5.400   9.131  10.080  0.0899  0.6770 -0.4878
  663MOL0     C89388   5.521   9.082  10.124 -0.7939 -0.3259  0.1077
  663MOL0     C89389   5.608   9.191  10.140  0.4913  0.1921  1.0147
  663MOL0     C89390   5.740   9.208  10.199 -0.1154  0.8810 -0.4356
  663MOL0     C89391   5.735   9.314  10.308  0.1269  0.1382  0.1654
  663MOL0     C89392   5.858   9.292  10.404 -0.2918  0.5851  0.2375
  663MOL0     C89393   5.838   9.382  10.531 -0.5183 -0.0776 -0.0630
  663MOL0     O89394   5.964   9.379  10.605  0.7400  0.3823 -0.0882
  663MOL0     C89395   5.978   9.297  10.719  0.0280 -0.2713 -0.9203
  663MOL0     C89396   5.881   9.191  10.754  0.1835 -0.4838 -0.7910
  663MOL0     C89397   5.908   9.111  10.857 -0.7817  0.4525 -0.4822
  663MOL0     C89398   6.016   9.125  10.942 -0.3625 -0.2773  0.1427
  663MOL0     C89399   6.044   9.028  11.045 -0.3051  0.2648 -0.4781
  663MOL0     O89400   6.122   9.062  11.149 -0.0228  0.9726  0.2029
  663MOL0     C89401   6.186   8.967  11.235  0.8387  0.5638  0.1117
  663MOL0     C89402   6.179   8.994  11.370  0.0410 -0.5254 -0.1749
  663MOL0     C89403   6.243   8.913  11.469 -0.0096  0.1187  0.7071
  663MOL0     C89404   6.317   8.799  11.434 -0.3310  0.2139 -0.1724
  663MOL0     O89405   6.384   8.728  11.532  0.4414  0.6503 -0.3663
  663MOL0     C89406   6.518   8.682  11.512 -0.4697  0.5117 -0.1456
  663MOL0     C89407   6.621   8.790  11.543 -0.4860  0.6535  0.1791
  663MOL0     C89408   6.766   8.743  11.561 -0.0235  1.0296 -1.0138
  663MOL0     C89409   6.859   8.859  11.562 -0.0658 -0.8924  0.2466
  663MOL0     C89410   6.992   8.812  11.620  0.0800  0.2841  0.1217
  663MOL0     C89411   7.086   8.926  11.640  0.3273 -0.6246 -0.6432
  663MOL0     C89412   7.229   8.894  11.685  0.6442 -0.5451  0.5615
  663MOL0     C89413   7.336   9.004  11.656 -0.3039 -0.3401  0.5689
  663MOL0    Cl89414   7.371   9.012  11.477 -0.0359 -0.0886 -0.0597
  663MOL0     C89415   6.314   8.769  11.300 -0.1042  0.7605 -0.3928
  663MOL0     C89416   6.248   8.847  11.197 -0.5993 -0.2119 -0.7745
  663MOL0     O89417   6.012   8.912  11.025  0.6554  0.2259  0.0348
  663MOL0     C89418   6.094   9.240  10.926  0.2861 -0.7894 -0.7980
  663MOL0     C89419   6.086   9.315  10.813  0.7734 -0.3879  0.6297
  663MOL0     N89420   5.528   9.302  10.091  0.1132  0.2284 -0.2640
  663MOL0     N89421   5.407   9.266  10.065 -0.5622  0.4306  0.8867
  663MOL0     C89422   4.325   9.640   9.804  0.0082 -0.3913  0.4435
  663MOL0     C89423   4.227   9.688   9.729  0.8374  0.0064  0.2838
  663MOL0     C89424   3.943   9.719   9.391 -1.0131  0.8393  0.5502
  663MOL0     C89425   3.975   9.808   9.294 -0.0130 -0.6622  0.3406
  663MOL0     C89426   3.871   9.858   9.213 -0.2957 -0.1191  0.3910
  663MOL0     C89427   3.736   9.827   9.236 -0.4549 -0.0776 -0.1347
  663MOL0     O89428   3.621   9.868   9.169  0.5442 -0.1148 -0.1454
  663MOL0     C89429   3.636   9.974   9.078  0.8700  0.0051  0.5306
  663MOL0     C89430   3.636  10.108   9.152  0.3092  0.5160 -0.1836
  663MOL0     C89431   3.498  10.137   9.221 -1.5829 -0.3527  0.1231
  663MOL0     C89432   3.373  10.147   9.134 -0.2195  0.7043 -0.5363
  663MOL0     C89433   3.409  10.213   9.010  0.0590 -0.6998 -0.3694
  663MOL0     C89434   3.437  10.264   8.909 -0.4953 -1.1572 -0.1338
  663MOL0     C89435   3.705   9.743   9.340  0.6413  0.0141 -0.2624
  663MOL0     C89436   3.809   9.690   9.423 -0.2631 -0.1870  0.7678
  663MOL0     C89437   3.762   9.600   9.531 -0.3285  1.0056 -0.9326
  663MOL0     H89438   4.370   9.729   9.436 -1.9527 -1.0005  0.1255
  663MOL0     H89439   4.586   9.643   9.589  0.3402 -0.2870 -0.3354
  663MOL0     H89440   4.478   9.558  10.012 -0.2736 -0.7128 -0.0263
  663MOL0     H89441   4.482   9.425   9.892 -1.0965  0.1137  1.8168
  663MOL0     H89442   4.637   9.403  10.112  0.9310 -0.5363 -0.4359
  663MOL0     H89443   4.702   9.558  10.064 -0.2503 -1.0353  3.5813
  663MOL0     H89444   4.809   9.453   9.877 -0.3992  0.8691  0.1342
  663MOL0     H89445   4.716   9.302   9.910 -0.5646  0.5711 -0.9580
  663MOL0     H89446   4.939   9.448  10.054 -0.7241 -0.7341  1.7932
  663MOL0     H89447   4.843   9.334  10.151  0.0068  0.3071  0.4354
  663MOL0     H89448   4.914   9.161   9.994  1.4013 -0.8984 -4.0466
  663MOL0     H89449   5.001   9.282   9.891 -0.2807 -0.3385  0.3079
  663MOL0     H89450   5.152   9.321  10.080  2.7793 -1.3408 -0.2821
  663MOL0     H89451   5.040   9.215  10.171 -3.2424  0.5682 -1.3092
  663MOL0     H89452   5.205   9.151   9.911 -1.3023  1.9012 -0.1527
  663MOL0     H89453   5.103   9.030   9.989 -0.8972  0.6374 -1.4077
  663MOL0     H89454   5.240   9.050  10.206  1.1390 -3.8199  0.0845
  663MOL0     H89455   5.292   8.945  10.074 -2.6253 -1.4406  0.2460
  663MOL0     H89456   5.537   8.977  10.147  0.5920 -0.6659 -2.0688
  663MOL0     H89457   5.768   9.118  10.255 -1.1878  2.9183  3.7674
  663MOL0     H89458   5.825   9.229  10.133  0.7250 -0.0135  0.3142
  663MOL0     H89459   5.726   9.412  10.261 -5.3916 -0.2648 -0.2755
  663MOL0     H89460   5.640   9.318  10.361  0.7098  2.9587  1.1600
  663MOL0     H89461   5.958   9.317  10.369  0.4718  2.4195  3.4008
  663MOL0     H89462   5.862   9.189  10.439 -2.5795 -0.0741 -1.1908
  663MOL0     H89463   5.754   9.355  10.596  1.3602 -0.5320  2.3177
  663MOL0     H89464   5.824   9.485  10.498  0.4376 -0.9393 -3.4738
  663MOL0     H89465   5.794   9.164  10.695 -0.8722 -2.2834  1.4280
  663MOL0     H89466   5.833   9.035  10.878 -1.7664  1.7647  1.0155
  663MOL0     H89467   6.144   9.093  11.398  4.7254  0.9490  1.4416
  663MOL0     H89468   6.222   8.934  11.574  0.7143  0.8020  0.7280
  663MOL0     H89469   6.529   8.609  11.592 -2.5795  0.7078  0.3834
  663MOL0     H89470   6.530   8.639  11.413 -2.0336 -1.0830  0.3081
  663MOL0     H89471   6.625   8.860  11.458  1.2190  0.5986  0.1710
  663MOL0     H89472   6.591   8.849  11.629  1.4206  3.5692 -0.9685
  663MOL0     H89473   6.755   8.704  11.662 -2.5762 -0.3254 -1.7261
  663MOL0     H89474   6.796   8.662  11.494  1.4813 -0.1911  1.0502
  663MOL0     H89475   6.821   8.937  11.628 -0.4779 -1.6910  0.9787
  663MOL0     H89476   6.870   8.898  11.460 -1.5178 -0.4300  0.2495
  663MOL0     H89477   7.032   8.742  11.546 -2.6852  0.2288 -1.4385
  663MOL0     H89478   6.972   8.771  11.720 -0.4350  1.3003  0.4554
  663MOL0     H89479   7.083   8.984  11.548  0.4331 -1.2449 -1.0469
  663MOL0     H89480   7.046   8.992  11.717 -0.3149 -2.2067  0.4265
  663MOL0     H89481   7.265   8.803  11.636 -1.6740 -2.4892  2.2051
  663MOL0     H89482   7.217   8.883  11.793  0.7634  0.0907  0.6443
  663MOL0     H89483   7.314   9.101  11.702 -2.0418  0.8006 -2.4059
  663MOL0     H89484   7.429   8.964  11.697  0.2482 -1.1268 -1.3353
  663MOL0     H89485   6.362   8.674  11.278 -0.6019  0.9875 -2.7502
  663MOL0     H89486   6.247   8.825  11.091 -4.1347 -0.0120 -0.9266
  663MOL0     H89487   6.182   9.258  10.988  1.0829  1.0981 -2.3633
  663MOL0     H89488   6.152   9.394  10.779  0.6142 -0.5714 -0.1268
  663MOL0     H89489   4.298   9.611   9.905  0.3353  2.0319  1.3042
  663MOL0     H89490   4.126   9.688   9.767  0.9414 -0.3154  0.5650
  663MOL0     H89491   4.081   9.830   9.290  0.0212 -0.9168 -0.2973
  663MOL0     H89492   3.893   9.909   9.120  1.2828 -0.6404  0.4558
  663MOL0     H89493   3.563   9.974   8.997 -0.6044  0.7671  1.8067
  663MOL0     H89494   3.730   9.963   9.022  0.6597  0.7578  0.0045
  663MOL0     H89495   3.660  10.186   9.079  1.1036  0.6665  0.2353
  663MOL0     H89496   3.724  10.112   9.217  1.5096 -2.7866 -1.3491
  663MOL0     H89497   3.503  10.227   9.283 -0.8635  0.5497 -1.2069
  663MOL0     H89498   3.489  10.055   9.294 -0.7608  1.3236  2.2226
  663MOL0     H89499   3.344  10.047   9.101 -0.3428  0.0130  1.5023
  663MOL0     H89500   3.289  10.200   9.180  0.3718  2.4130 -1.3690
  663MOL0     H89501   3.450  10.310   8.813 -1.0384 -3.4251 -1.3589
  663MOL0     H89502   3.601   9.715   9.355  1.0331 -1.8601 -0.8410
  663MOL0     H89503   3.657   9.617   9.557 -0.0843  0.7035  0.3422
  663MOL0     H89504   3.767   9.492   9.513 -0.9779  0.5186  1.3552
  663MOL0     H89505   3.817   9.628   9.622 -1.8921  1.4681 -0.0935
  664MOL0     O89506   6.197   7.762   5.244  0.3646  0.0286 -0.6054
  664MOL0     C89507   6.186   7.641   5.216  0.0257 -0.1534  0.3702
  664MOL0     O89508   6.277   7.544   5.235  0.0149 -0.0731 -0.1026
  664MOL0     C89509   6.401   7.578   5.288  0.7984 -0.0381 -0.0441
  664MOL0     C89510   6.520   7.550   5.223 -0.0389  0.1066 -0.2638
  664MOL0     C89511   6.651   7.577   5.270  0.3878 -0.9020 -0.3081
  664MOL0     C89512   6.657   7.621   5.410  0.1647  0.0916  0.1424
  664MOL0     O89513   6.780   7.648   5.455  0.1092 -0.2919 -0.1563
  664MOL0     C89514   6.801   7.702   5.583 -0.8654  0.3668 -0.5159
  664MOL0     C89515   6.932   7.774   5.589 -0.1813  0.5448 -0.2654
  664MOL0     C89516   6.976   7.869   5.480  1.0040  0.0135  0.9778
  664MOL0     C89517   7.120   7.927   5.504 -0.6221  0.7873 -0.0488
  664MOL0     C89518   7.103   8.053   5.585  0.1911 -0.1755 -0.5718
  664MOL0     C89519   7.240   8.126   5.615 -0.1360 -0.1178 -0.6118
  664MOL0     C89520   7.320   8.166   5.488  0.4626  0.4145 -0.2177
  664MOL0     C89521   7.418   8.278   5.513  0.0683  0.1072 -0.4561
  664MOL0     N89522   7.529   8.251   5.609 -0.1645  0.6698 -0.1184
  664MOL0     C89523   7.654   8.203   5.571  0.1522  0.1049 -0.3681
  664MOL0     C89524   7.722   8.181   5.685  0.3305 -0.4439  0.7821
  664MOL0     C89525   7.862   8.139   5.684 -0.3112 -0.1388 -0.4674
  664MOL0     C89526   7.928   8.168   5.822 -0.5150 -0.2179  0.6307
  664MOL0     C89527   8.038   8.084   5.863 -0.6107  0.6925 -0.2178
  664MOL0     C89528   8.098   8.112   6.003 -0.6903  0.4860  0.6975
  664MOL0     O89529   8.232   8.055   6.004 -0.0081 -0.1114 -0.2563
  664MOL0     C89530   8.301   8.034   6.117 -0.6484 -0.1751 -0.6282
  664MOL0     C89531   8.416   7.951   6.122  0.1930 -0.1210  0.4332
  664MOL0     C89532   8.502   7.945   6.232  0.9366 -0.5497  0.2343
  664MOL0     C89533   8.471   8.017   6.351  0.1847  0.2214  0.2972
  664MOL0     C89534   8.570   8.021   6.458 -0.1730  0.0118 -0.4959
  664MOL0     O89535   8.659   7.919   6.468 -0.4744 -0.1743  0.6735
  664MOL0     C89536   8.772   7.960   6.531  0.9595 -0.0530 -0.8445
  664MOL0     C89537   8.867   8.028   6.460  0.0709  0.3322 -0.7765
  664MOL0     C89538   8.985   8.078   6.522  0.7593 -0.5558 -0.1684
  664MOL0     C89539   9.000   8.066   6.660  0.5989 -0.4369  0.4966
  664MOL0     O89540   9.120   8.093   6.716 -0.3231 -0.0131 -0.0928
  664MOL0     C89541   9.182   8.217   6.682  0.0997 -1.2914 -0.3107
  664MOL0     C89542   9.291   8.266   6.773  0.0902 -0.0432 -0.0031
  664MOL0     C89543   9.404   8.168   6.796 -0.4599  0.4856  0.5769
  664MOL0     C89544   9.481   8.205   6.920  0.5195 -0.1459 -0.4978
  664MOL0     C89545   9.635   8.185   6.886 -0.7498 -0.0735 -0.0753
  664MOL0     C89546   9.726   8.240   6.987 -0.8616 -0.2513 -0.1562
  664MOL0     C89547   9.711   8.200   7.139  0.8185  0.0488 -0.2350
  664MOL0     C89548   9.847   8.159   7.193  0.1887  0.0192 -0.4454
  664MOL0    Cl89549   9.981   8.264   7.155 -0.3023  0.6471  0.4912
  664MOL0     C89550   8.895   8.005   6.733  0.6580 -0.6058  0.8113
  664MOL0     C89551   8.778   7.949   6.668 -0.6832  0.6887 -0.4948
  664MOL0     O89552   8.572   8.121   6.529  0.7163 -0.0991  0.0666
  664MOL0     C89553   8.355   8.096   6.346  1.2337 -0.2834 -0.2270
  664MOL0     C89554   8.266   8.094   6.242 -0.1630 -0.0383 -0.0862
  664MOL0     N89555   7.637   8.230   5.790 -0.3047 -0.6690 -0.0406
  664MOL0     N89556   7.521   8.262   5.745 -0.5044 -0.3338  0.1386
  664MOL0     C89557   6.535   7.642   5.481  0.5444  0.2439  0.9239
  664MOL0     C89558   6.413   7.622   5.418  0.3569 -0.7513  0.6063
  664MOL0     C89559   6.049   7.606   5.179  0.5320  0.3186 -0.4434
  664MOL0     C89560   5.960   7.580   5.283  0.1632  0.2654 -0.5350
  664MOL0     C89561   5.821   7.554   5.263  0.1254  0.1363 -0.6420
  664MOL0     C89562   5.770   7.551   5.133 -0.4332 -0.7980  0.2559
  664MOL0     O89563   5.630   7.531   5.136  0.0110  0.3664 -0.3343
  664MOL0     C89564   5.578   7.510   5.003  1.0055 -0.2189 -0.2421
  664MOL0     C89565   5.423   7.526   5.011 -0.2873 -0.0419  0.9573
  664MOL0     C89566   5.350   7.535   4.879  0.5584 -0.6433  0.5244
  664MOL0     C89567   5.195   7.524   4.886  0.1054  0.4157  0.3564
  664MOL0     C89568   5.133   7.596   4.763 -0.2753 -0.1269  0.2097
  664MOL0     C89569   5.088   7.647   4.661 -0.2668  0.6115 -0.0535
  664MOL0     C89570   5.857   7.574   5.022 -0.3375  0.0709  0.1488
  664MOL0     C89571   5.994   7.606   5.048 -0.0182 -0.7825  0.2108
  664MOL0     C89572   6.083   7.647   4.936 -0.7535 -0.5550  0.0850
  664MOL0     H89573   6.504   7.513   5.122  0.8704 -2.2644  0.3994
  664MOL0     H89574   6.739   7.559   5.209 -0.4288  1.1211 -2.2208
  664MOL0     H89575   6.721   7.770   5.615 -1.3226  0.4749 -1.8301
  664MOL0     H89576   6.801   7.620   5.655 -3.3696  0.8920  0.1717
  664MOL0     H89577   7.011   7.700   5.603 -1.0597  0.0777  2.8975
  664MOL0     H89578   6.939   7.833   5.681  1.0399  1.7950 -1.1142
  664MOL0     H89579   6.903   7.949   5.469  0.6574 -0.4176  0.0115
  664MOL0     H89580   6.988   7.815   5.385  0.9511  1.6936 -0.0085
  664MOL0     H89581   7.190   7.864   5.560  0.8541  1.3687 -1.1812
  664MOL0     H89582   7.158   7.952   5.405  0.2111  2.1066  0.5682
  664MOL0     H89583   7.041   8.120   5.525 -0.4575 -0.3645 -0.1262
  664MOL0     H89584   7.056   8.033   5.682  0.3456  0.6845 -0.3126
  664MOL0     H89585   7.216   8.214   5.675  3.0559 -0.3213  1.1637
  664MOL0     H89586   7.299   8.065   5.683 -2.3491 -0.6738  0.9137
  664MOL0     H89587   7.240   8.191   5.417  1.0657  1.0769 -0.6812
  664MOL0     H89588   7.368   8.078   5.446 -0.3075  0.3774 -1.0580
  664MOL0     H89589   7.455   8.302   5.413 -2.1496  0.5850 -1.2081
  664MOL0     H89590   7.362   8.366   5.545 -0.4538 -0.9006  1.5184
  664MOL0     H89591   7.698   8.177   5.475  1.4965  2.3000 -0.4168
  664MOL0     H89592   7.858   8.032   5.662 -0.7316 -0.0273 -0.9481
  664MOL0     H89593   7.904   8.189   5.596 -1.2715 -0.1916 -0.9683
  664MOL0     H89594   7.964   8.270   5.814 -1.3863 -0.0622 -4.8471
  664MOL0     H89595   7.859   8.159   5.907 -1.5832 -1.2107 -0.3067
  664MOL0     H89596   8.126   8.092   5.798 -1.1422 -2.2872 -1.4163
  664MOL0     H89597   8.004   7.983   5.843 -0.0490  0.4472  0.0223
  664MOL0     H89598   8.035   8.085   6.089 -0.7744  0.9952  0.8010
  664MOL0     H89599   8.109   8.221   6.012  1.1198  0.3080  1.0213
  664MOL0     H89600   8.450   7.906   6.029 -0.3545  1.0931 -0.3853
  664MOL0     H89601   8.595   7.891   6.225  0.4648 -1.7344  2.2206
  664MOL0     H89602   8.861   8.027   6.351  1.2928 -1.4317 -0.8598
  664MOL0     H89603   9.061   8.133   6.469  0.2818  1.0400  0.7254
  664MOL0     H89604   9.226   8.203   6.582  1.3024  0.3421 -0.0494
  664MOL0     H89605   9.100   8.286   6.664  1.2755 -0.2524 -2.0553
  664MOL0     H89606   9.331   8.357   6.727  1.9079  0.1594  1.8650
  664MOL0     H89607   9.237   8.276   6.867  0.8507 -1.4622  0.6214
  664MOL0     H89608   9.374   8.066   6.823  0.0207  0.2609  0.2700
  664MOL0     H89609   9.468   8.151   6.709  3.5412  1.8232  2.9909
  664MOL0     H89610   9.455   8.146   7.008  0.0297  0.2939 -0.3440
  664MOL0     H89611   9.472   8.311   6.942 -1.1609 -0.7326  2.0830
  664MOL0     H89612   9.668   8.243   6.799  0.7466 -1.3955 -0.4253
  664MOL0     H89613   9.662   8.082   6.862  0.0541  0.0247  0.3876
  664MOL0     H89614   9.829   8.243   6.950 -0.0161 -0.4319  2.0295
  664MOL0     H89615   9.696   8.346   6.980 -0.0805 -0.0795 -1.1674
  664MOL0     H89616   9.635   8.121   7.142  0.8659  0.0261  1.9972
  664MOL0     H89617   9.677   8.289   7.193 -2.0529  0.4002 -2.3328
  664MOL0     H89618   9.840   8.161   7.302  1.0033 -0.3112 -0.3814
  664MOL0     H89619   9.857   8.058   7.153 -3.2332 -0.1631 -1.1476
  664MOL0     H89620   8.893   8.008   6.841  0.6652  0.2786  0.7961
  664MOL0     H89621   8.708   7.888   6.724  1.0578 -1.6824 -0.6932
  664MOL0     H89622   8.338   8.161   6.431  0.0903 -0.2977 -0.4340
  664MOL0     H89623   8.182   8.162   6.249  0.4966  0.7113  0.9518
  664MOL0     H89624   6.535   7.679   5.583 -1.4665  1.5303  0.5068
  664MOL0     H89625   6.319   7.645   5.467  0.2393  1.1774 -0.4356
  664MOL0     H89626   5.990   7.569   5.387 -3.4193 -1.7678  0.4315
  664MOL0     H89627   5.755   7.544   5.348  0.8776  0.4865 -0.0031
  664MOL0     H89628   5.603   7.409   4.969  1.0017 -0.1376 -0.4909
  664MOL0     H89629   5.602   7.590   4.932 -1.9367  1.2389  0.2253
  664MOL0     H89630   5.387   7.615   5.064 -1.0086  0.6161 -0.5825
  664MOL0     H89631   5.382   7.447   5.075  0.0631  0.7978  2.2679
  664MOL0     H89632   5.380   7.450   4.817 -0.2800 -1.6752  1.4881
  664MOL0     H89633   5.385   7.629   4.836  1.4131 -1.9027 -1.7202
  664MOL0     H89634   5.160   7.421   4.899 -2.3993  1.3802  2.1917
  664MOL0     H89635   5.159   7.570   4.978 -1.7442  1.6805 -0.9276
  664MOL0     H89636   5.046   7.703   4.580  0.2174 -1.6981 -2.0020
  664MOL0     H89637   5.819   7.561   4.922  0.6095  1.7558 -0.4746
  664MOL0     H89638   6.027   7.633   4.844  1.4360  0.6027 -1.5160
  664MOL0     H89639   6.118   7.750   4.946 -1.1616 -0.5479  1.9880
  664MOL0     H89640   6.169   7.579   4.929 -0.5124 -0.4844  1.8533
  665MOL0     O89641   6.888   4.029   0.297 -0.7542  0.0922  0.4642
  665MOL0     C89642   6.770   4.017   0.344  0.0733  0.6714 -1.1718
  665MOL0     O89643   6.742   4.013   0.479 -0.0342 -0.9868 -0.0236
  665MOL0     C89644   6.833   4.075   0.554 -0.7044  0.2221  0.1406
  665MOL0     C89645   6.826   4.211   0.569 -0.1888 -0.2125  0.0526
  665MOL0     C89646   6.925   4.276   0.639 -0.8198  0.0570  0.4281
  665MOL0     C89647   7.029   4.211   0.708 -0.3262  0.0654  0.1393
  665MOL0     O89648   7.125   4.278   0.780 -0.5174  0.2793  0.3380
  665MOL0     C89649   7.083   4.406   0.833 -0.0704  0.1864  0.4793
  665MOL0     C89650   7.182   4.454   0.942 -0.3040  0.5091 -0.2496
  665MOL0     C89651   7.330   4.459   0.897  0.2699  0.3689  0.1932
  665MOL0     C89652   7.420   4.519   0.998  0.9530  0.1239  0.5060
  665MOL0     C89653   7.563   4.480   0.976  0.1893  1.5892  0.3321
  665MOL0     C89654   7.658   4.546   1.071  0.7004 -0.1174 -1.0241
  665MOL0     C89655   7.805   4.502   1.053 -0.9442  0.1855  0.3619
  665MOL0     C89656   7.869   4.451   1.181 -0.2621  0.3861 -0.7996
  665MOL0     N89657   8.018   4.429   1.177 -0.9724  0.7301 -0.7176
  665MOL0     C89658   8.101   4.470   1.277 -0.5724 -0.3059 -0.0587
  665MOL0     C89659   8.220   4.409   1.253 -0.2910 -1.0674 -0.8981
  665MOL0     C89660   8.332   4.419   1.356 -0.2868 -0.5016 -0.1609
  665MOL0     C89661   8.462   4.364   1.295 -0.1133 -0.1214  0.2926
  665MOL0     C89662   8.575   4.375   1.399  0.2240  0.0145 -0.3182
  665MOL0     C89663   8.711   4.315   1.362 -0.0089  0.3044 -0.3444
  665MOL0     O89664   8.809   4.323   1.468  0.1419  0.2664  0.2434
  665MOL0     C89665   8.937   4.281   1.435  0.6984 -0.1513 -0.1992
  665MOL0     C89666   9.036   4.288   1.527 -0.0010 -0.0544  0.6674
  665MOL0     C89667   9.172   4.270   1.493  0.0527 -0.3536 -0.5830
  665MOL0     C89668   9.208   4.239   1.367  0.4871 -0.3298 -0.0158
  665MOL0     C89669   9.350   4.233   1.320 -0.0466  0.3622 -0.3405
  665MOL0     O89670   9.451   4.237   1.415  0.4597 -0.2099 -0.0242
  665MOL0     C89671   9.583   4.225   1.383 -0.6582 -0.2670 -0.8303
  665MOL0     C89672   9.668   4.268   1.484  0.1300  0.3464  0.3113
  665MOL0     C89673   9.801   4.241   1.477 -0.0572  0.9563 -0.0335
  665MOL0     C89674   9.857   4.177   1.365 -0.0068 -0.1822  0.3596
  665MOL0     O89675   9.994   4.157   1.340 -0.6233 -0.4639 -0.3499
  665MOL0     C89676  10.098   4.242   1.403 -0.1345  0.0393 -0.4130
  665MOL0     C89677  10.213   4.243   1.295  0.7214 -0.0251  0.0326
  665MOL0     C89678  10.329   4.329   1.347  0.8078  0.1543 -0.5682
  665MOL0     C89679  10.457   4.289   1.268 -0.0929 -0.1538  0.3497
  665MOL0     C89680  10.580   4.354   1.330 -0.2219 -0.2268 -0.6676
  665MOL0     C89681  10.707   4.322   1.264  0.2685 -0.1254  0.4868
  665MOL0     C89682  10.827   4.394   1.312  0.7683  0.3641 -0.8935
  665MOL0     C89683  10.960   4.364   1.233  0.2015  0.3406 -0.0503
  665MOL0    Cl89684  11.092   4.481   1.280  0.3588 -0.4938  0.3354
  665MOL0     C89685   9.766   4.127   1.265 -0.0553  0.7093  0.1794
  665MOL0     C89686   9.639   4.159   1.274  0.4714  0.1228  0.3357
  665MOL0     O89687   9.375   4.243   1.201 -0.6412 -1.3739 -0.2324
  665MOL0     C89688   9.106   4.220   1.275 -0.1001  0.7238  0.0459
  665MOL0     C89689   8.976   4.240   1.310 -0.0424  0.9054  0.5882
  665MOL0     N89690   8.221   4.371   1.124 -0.4530  0.1254 -0.0466
  665MOL0     N89691   8.100   4.384   1.075  0.1210  0.4611 -0.4903
  665MOL0     C89692   7.037   4.071   0.695  0.2549  0.0900 -0.4997
  665MOL0     C89693   6.940   4.007   0.628 -0.2157  0.0524  0.1167
  665MOL0     C89694   6.654   4.021   0.254 -1.1571  0.6025  0.4717
  665MOL0     C89695   6.534   4.069   0.309  0.7859  0.1719  0.4484
  665MOL0     C89696   6.421   4.093   0.226 -0.1115 -0.5922 -0.1760
  665MOL0     C89697   6.435   4.075   0.090  0.1293 -0.5250  0.8239
  665MOL0     O89698   6.341   4.118   0.000  0.2392  0.1158 -0.4158
  665MOL0     C89699   6.234   4.023  -0.015 -0.6340 -0.4974 -0.3690
  665MOL0     C89700   6.110   4.094  -0.059  0.4859 -0.4373 -0.8889
  665MOL0     C89701   6.061   4.204   0.037  0.0195  0.4116 -0.0278
  665MOL0     C89702   5.983   4.148   0.153  0.1431  0.2071  0.5585
  665MOL0     C89703   5.840   4.143   0.130  0.3259 -0.4052  0.0904
  665MOL0     C89704   5.727   4.134   0.095  0.2570  0.1051 -0.0530
  665MOL0     C89705   6.548   4.017   0.036 -0.2008 -0.4537  0.6184
  665MOL0     C89706   6.656   3.987   0.115  0.7448 -0.9127 -0.0687
  665MOL0     C89707   6.772   3.923   0.047 -0.8224  0.3827  0.3589
  665MOL0     H89708   6.748   4.270   0.521  1.0244  3.1630  1.8893
  665MOL0     H89709   6.932   4.385   0.639  1.3771 -0.0237  0.4190
  665MOL0     H89710   7.075   4.473   0.747 -0.5759 -3.1830 -2.3205
  665MOL0     H89711   6.991   4.396   0.891  1.0802  2.8687  3.0409
  665MOL0     H89712   7.180   4.383   1.026  2.1728  0.0372 -0.5098
  665MOL0     H89713   7.167   4.556   0.977  2.7327  0.5274  1.3943
  665MOL0     H89714   7.318   4.514   0.804 -3.0427  1.5869  1.1980
  665MOL0     H89715   7.355   4.355   0.871 -0.3067  0.6441 -1.6108
  665MOL0     H89716   7.417   4.628   0.995  0.9518  0.1221  0.4316
  665MOL0     H89717   7.388   4.483   1.096  1.1067 -2.1764 -0.2423
  665MOL0     H89718   7.566   4.371   0.978 -3.9694  1.2969  0.3693
  665MOL0     H89719   7.587   4.512   0.874  0.9677 -0.9304 -0.3283
  665MOL0     H89720   7.656   4.655   1.070 -1.2685 -0.1265 -0.9591
  665MOL0     H89721   7.632   4.515   1.173  3.5141 -0.1180 -0.2043
  665MOL0     H89722   7.875   4.583   1.030  0.4421 -0.0529  3.2630
  665MOL0     H89723   7.804   4.419   0.982  0.1614 -1.6803  2.3976
  665MOL0     H89724   7.838   4.502   1.272 -0.6000 -2.5529  0.8757
  665MOL0     H89725   7.824   4.354   1.205 -2.7341  2.2270  2.8986
  665MOL0     H89726   8.076   4.531   1.364 -0.7344 -0.6328  0.1288
  665MOL0     H89727   8.346   4.520   1.396  0.1115 -0.8345  0.5556
  665MOL0     H89728   8.298   4.360   1.442 -4.0045  1.3902 -0.1160
  665MOL0     H89729   8.451   4.259   1.267 -1.1129  0.4835 -1.8308
  665MOL0     H89730   8.486   4.424   1.206 -2.0976  0.1463 -0.0977
  665MOL0     H89731   8.532   4.334   1.491 -1.5172  2.6802  0.1805
  665MOL0     H89732   8.586   4.480   1.428  3.5038  0.2470 -1.9738
  665MOL0     H89733   8.749   4.382   1.284 -0.0975  1.7017  0.7661
  665MOL0     H89734   8.711   4.214   1.320  1.6187  0.2593 -0.3210
  665MOL0     H89735   9.008   4.318   1.627  0.4096 -2.4515  1.5467
  665MOL0     H89736   9.255   4.296   1.558  0.5967 -0.1621 -1.3377
  665MOL0     H89737   9.629   4.326   1.567  2.4534  1.5768  0.6254
  665MOL0     H89738   9.857   4.275   1.564 -0.1710 -1.6764  1.1815
  665MOL0     H89739  10.068   4.346   1.418  1.6180  0.5860 -0.5124
  665MOL0     H89740  10.133   4.205   1.499  1.1455  2.8408  0.2757
  665MOL0     H89741  10.236   4.143   1.256 -2.7612 -1.3518  0.9125
  665MOL0     H89742  10.169   4.297   1.211  2.7332 -0.9087 -1.6751
  665MOL0     H89743  10.296   4.431   1.329 -1.2625 -0.5593 -1.0575
  665MOL0     H89744  10.350   4.319   1.454  0.2560 -0.1852 -0.4885
  665MOL0     H89745  10.451   4.320   1.163  3.1094  1.0915  0.4158
  665MOL0     H89746  10.465   4.181   1.280  2.1759 -0.1274 -0.3931
  665MOL0     H89747  10.577   4.335   1.438 -1.0318  1.1103 -0.4287
  665MOL0     H89748  10.561   4.461   1.330 -2.0478 -0.5069  0.3099
  665MOL0     H89749  10.720   4.215   1.278 -0.5590 -0.1906  0.8134
  665MOL0     H89750  10.683   4.334   1.158 -0.6997 -0.6608  0.6295
  665MOL0     H89751  10.841   4.383   1.419 -3.0411 -0.8871 -0.3801
  665MOL0     H89752  10.805   4.500   1.299  0.6943  0.3595 -0.8050
  665MOL0     H89753  10.997   4.264   1.255  2.8356  1.6787  2.2307
  665MOL0     H89754  10.943   4.372   1.125 -0.0389 -1.1487 -0.1451
  665MOL0     H89755   9.798   4.065   1.182 -2.4887 -2.0700  1.1575
  665MOL0     H89756   9.575   4.119   1.196  0.7036 -0.2188  0.3161
  665MOL0     H89757   9.136   4.191   1.175  1.5665  1.1653  0.3807
  665MOL0     H89758   8.901   4.224   1.233  2.6000  0.2421 -2.0151
  665MOL0     H89759   7.107   4.006   0.747 -0.0239 -0.8930 -1.3361
  665MOL0     H89760   6.938   3.899   0.632 -1.2166  0.1068  1.3463
  665MOL0     H89761   6.535   4.113   0.408  3.3098  3.7654 -0.9789
  665MOL0     H89762   6.325   4.126   0.265  0.1154 -0.5474  0.3521
  665MOL0     H89763   6.222   3.962   0.074  0.5746  1.2591  1.0811
  665MOL0     H89764   6.274   3.960  -0.095  0.8112  1.3757 -1.2245
  665MOL0     H89765   6.032   4.022  -0.085  2.9054 -2.5528 -2.7945
  665MOL0     H89766   6.139   4.144  -0.152  2.4452 -0.3877 -0.2987
  665MOL0     H89767   5.993   4.267  -0.021 -0.8010 -2.4141 -2.3564
  665MOL0     H89768   6.148   4.260   0.072  0.1091  0.6934 -0.6825
  665MOL0     H89769   6.016   4.047   0.178 -0.5030 -0.1029  0.1679
  665MOL0     H89770   5.992   4.215   0.239  0.7129  1.1032 -0.1843
  665MOL0     H89771   5.624   4.141   0.065  0.6397  1.5239 -1.1654
  665MOL0     H89772   6.562   4.002  -0.071  0.0215 -1.5899  0.7996
  665MOL0     H89773   6.859   3.987   0.032  0.9026 -2.2324 -1.6581
  665MOL0     H89774   6.807   3.829   0.090 -3.3210  0.1481  2.0878
  665MOL0     H89775   6.749   3.896  -0.057 -1.3707  1.3761  0.2010
  666MOL0     O89776  11.187   0.654   6.332 -0.1108 -0.2812  0.7510
  666MOL0     C89777  11.152   0.535   6.311  0.0644 -0.7836 -0.3376
  666MOL0     O89778  11.197   0.458   6.210 -0.5925  0.3519  0.0493
  666MOL0     C89779  11.313   0.486   6.146 -0.6307 -0.5357 -0.0165
  666MOL0     C89780  11.429   0.533   6.206  0.2238 -0.4998 -0.6880
  666MOL0     C89781  11.551   0.543   6.138 -0.2177  0.6291 -0.0814
  666MOL0     C89782  11.563   0.504   6.002 -0.4571 -0.1360 -1.0946
  666MOL0     O89783  11.691   0.504   5.952  0.4671 -0.8826 -0.8591
  666MOL0     C89784  11.716   0.425   5.834  0.0643 -0.1809 -0.4352
  666MOL0     C89785  11.852   0.366   5.848  0.4763  1.3800 -0.2008
  666MOL0     C89786  11.848   0.234   5.929 -0.7890  0.1226 -0.6694
  666MOL0     C89787  11.926   0.113   5.858  0.1015 -0.4928  0.0963
  666MOL0     C89788  11.842   0.026   5.764  1.2817  0.2984  0.2618
  666MOL0     C89789  11.768   0.093   5.645 -0.5347 -1.5026  0.4122
  666MOL0     C89790  11.686   0.007   5.556  0.7341 -0.6513  0.2616
  666MOL0     C89791  11.587   0.075   5.464  0.5195 -0.0515  0.6305
  666MOL0     N89792  11.466   0.107   5.544  0.3351  0.2058 -0.4515
  666MOL0     C89793  11.368   0.014   5.586 -0.3610 -0.4208 -0.0432
  666MOL0     C89794  11.282   0.090   5.661  0.7948  0.0702  0.0058
  666MOL0     C89795  11.158   0.010   5.715 -0.2548 -0.3527  0.1099
  666MOL0     C89796  11.160  -0.008   5.865  0.4870 -0.5408 -0.0380
  666MOL0     C89797  11.166   0.127   5.942  0.0559  0.1487  0.3132
  666MOL0     C89798  11.156   0.109   6.088  0.2567 -0.6504  0.6750
  666MOL0     O89799  11.025   0.083   6.131  0.3129 -0.0056 -0.2569
  666MOL0     C89800  11.003   0.053   6.263  0.1958 -0.0282 -0.0422
  666MOL0     C89801  11.088   0.099   6.363 -0.0504 -0.6185  0.6902
  666MOL0     C89802  11.051   0.072   6.492 -0.0924 -0.4728 -0.4617
  666MOL0     C89803  10.930  -0.002   6.522 -0.4039 -0.0959 -0.8576
  666MOL0     C89804  10.903  -0.029   6.667 -0.4853  0.6162 -0.5133
  666MOL0     O89805  10.792  -0.111   6.686 -0.3165 -0.2850  0.0246
  666MOL0     C89806  10.766  -0.148   6.808 -0.4304  0.0139  0.5903
  666MOL0     C89807  10.710  -0.059   6.899 -0.4800 -0.1850 -0.0979
  666MOL0     C89808  10.676  -0.108   7.032  0.0664 -0.0536  0.0859
  666MOL0     C89809  10.695  -0.241   7.063 -0.9233  0.6550  0.1658
  666MOL0     O89810  10.672  -0.264   7.196 -0.5125  0.0663 -0.2997
  666MOL0     C89811  10.618  -0.396   7.242  0.3125 -1.0055 -0.7679
  666MOL0     C89812  10.467  -0.413   7.216  0.6733 -0.6331 -0.1182
  666MOL0     C89813  10.375  -0.323   7.300 -0.0620 -0.8624  1.0089
  666MOL0     C89814  10.236  -0.374   7.298  0.2369  0.2582 -0.0083
  666MOL0     C89815  10.144  -0.287   7.389 -0.8501  0.2136 -0.2119
  666MOL0     C89816  10.027  -0.370   7.433 -1.1390  0.3055  0.1720
  666MOL0     C89817   9.930  -0.294   7.517 -0.5862  0.1147  0.1802
  666MOL0     C89818   9.798  -0.372   7.524  0.3454  0.0687 -0.6760
  666MOL0    Cl89819   9.719  -0.392   7.363 -0.8648 -0.1585  0.0966
  666MOL0     C89820  10.731  -0.333   6.962  0.4133 -0.2748  0.2001
  666MOL0     C89821  10.766  -0.287   6.833 -0.4758  0.1127  0.1543
  666MOL0     O89822  10.979   0.013   6.755 -0.5423  0.0416  0.9373
  666MOL0     C89823  10.846  -0.051   6.418 -0.5227  0.4295 -0.3740
  666MOL0     C89824  10.892  -0.033   6.289 -0.3334 -0.5612 -0.5337
  666MOL0     N89825  11.321   0.223   5.664  0.0674  0.3235 -0.0386
  666MOL0     N89826  11.436   0.225   5.593  0.7338 -0.0977 -0.5383
  666MOL0     C89827  11.448   0.464   5.942 -0.5312 -0.0214  0.4113
  666MOL0     C89828  11.326   0.454   6.010  1.0004 -0.2309  0.0005
  666MOL0     C89829  11.038   0.486   6.390  0.0315  0.7401 -0.2501
  666MOL0     C89830  10.948   0.388   6.333 -0.3217 -1.0362  0.8217
  666MOL0     C89831  10.841   0.336   6.394 -0.0098  0.0011  0.0166
  666MOL0     C89832  10.819   0.379   6.519  0.1897  0.2436 -0.0164
  666MOL0     O89833  10.714   0.340   6.596  0.9370 -0.4179  0.6797
  666MOL0     C89834  10.591   0.291   6.547  0.1365 -0.3007 -0.6163
  666MOL0     C89835  10.585   0.140   6.573  0.0536 -0.2697  0.6442
  666MOL0     C89836  10.447   0.079   6.541 -0.7984 -0.7130  0.2457
  666MOL0     C89837  10.456  -0.069   6.550 -0.4348  0.2878  0.0320
  666MOL0     C89838  10.329  -0.125   6.526 -0.8955  1.0514 -0.8230
  666MOL0     C89839  10.208  -0.157   6.512 -0.0118  0.0946 -0.2928
  666MOL0     C89840  10.902   0.471   6.586 -0.8173  0.2827  0.1812
  666MOL0     C89841  11.017   0.528   6.525  0.4313  0.7921  0.9311
  666MOL0     C89842  11.096   0.630   6.604  0.2621 -0.4310 -0.3291
  666MOL0     H89843  11.423   0.574   6.306 -1.3419 -0.8019 -0.6266
  666MOL0     H89844  11.636   0.589   6.188  1.0677 -1.4097 -0.2823
  666MOL0     H89845  11.643   0.349   5.804 -0.1054 -0.5018  0.7488
  666MOL0     H89846  11.713   0.507   5.762 -1.6005  1.7613  1.7120
  666MOL0     H89847  11.917   0.444   5.888 -0.1526  2.5956 -1.4843
  666MOL0     H89848  11.899   0.354   5.750  2.8707 -2.8012  1.1875
  666MOL0     H89849  11.746   0.201   5.950 -0.2050 -1.0811  0.4019
  666MOL0     H89850  11.899   0.247   6.025 -0.3998 -3.1945 -0.3082
  666MOL0     H89851  12.010   0.149   5.797  1.6917 -1.8751  1.3637
  666MOL0     H89852  11.972   0.047   5.932 -0.0506 -0.6726  0.0322
  666MOL0     H89853  11.892  -0.063   5.724 -1.2196 -1.3721  0.5959
  666MOL0     H89854  11.763  -0.014   5.828  1.1071  0.7652  0.3473
  666MOL0     H89855  11.700   0.163   5.694 -0.9357  0.0072 -2.0956
  666MOL0     H89856  11.835   0.152   5.582 -0.9490 -0.2019  1.1596
  666MOL0     H89857  11.636  -0.074   5.610 -1.4069  1.7513  2.1526
  666MOL0     H89858  11.756  -0.037   5.485  0.1649  0.6587 -1.1696
  666MOL0     H89859  11.641   0.160   5.422 -0.9070  1.0875  1.0060
  666MOL0     H89860  11.558  -0.001   5.391  1.5585  0.9757 -0.8917
  666MOL0     H89861  11.356  -0.092   5.569 -3.7729 -0.2451  0.4199
  666MOL0     H89862  11.075   0.076   5.689  0.6547  0.6305 -0.3660
  666MOL0     H89863  11.142  -0.085   5.663  0.7696  0.0343 -0.9465
  666MOL0     H89864  11.066  -0.054   5.895  0.0784  0.2483 -0.0591
  666MOL0     H89865  11.245  -0.071   5.889  1.5334 -0.1540 -2.3926
  666MOL0     H89866  11.105   0.207   5.898 -0.5216 -1.0201 -1.0885
  666MOL0     H89867  11.264   0.174   5.930 -0.5942  1.3007 -0.7778
  666MOL0     H89868  11.190   0.198   6.142  1.0765 -1.6737  1.9006
  666MOL0     H89869  11.219   0.030   6.131 -0.6358 -0.9422  1.4764
  666MOL0     H89870  11.182   0.145   6.337 -0.6800  0.4868  0.3090
  666MOL0     H89871  11.117   0.103   6.573 -0.2686 -2.7019  0.6120
  666MOL0     H89872  10.708   0.048   6.880 -0.5060 -0.3719 -1.1873
  666MOL0     H89873  10.655  -0.038   7.112 -1.7490  2.2950 -2.2679
  666MOL0     H89874  10.666  -0.486   7.203 -0.4930 -1.0815 -1.5990
  666MOL0     H89875  10.626  -0.393   7.351 -1.6136 -1.1325 -0.5855
  666MOL0     H89876  10.448  -0.404   7.109 -1.4366 -1.1900  0.1680
  666MOL0     H89877  10.448  -0.518   7.240  0.9002 -1.5874 -3.5981
  666MOL0     H89878  10.409  -0.321   7.404 -0.1123 -1.0058  1.0279
  666MOL0     H89879  10.376  -0.221   7.260  1.5328 -0.5914  1.6606
  666MOL0     H89880  10.240  -0.478   7.333 -1.9795 -0.3000 -1.2089
  666MOL0     H89881  10.202  -0.380   7.194  2.5000 -0.4813 -0.7477
  666MOL0     H89882  10.122  -0.200   7.326  0.8259 -2.3117 -4.7319
  666MOL0     H89883  10.203  -0.259   7.478  1.3179  0.5620 -1.6732
  666MOL0     H89884   9.969  -0.397   7.344 -1.4836  0.5794  0.3071
  666MOL0     H89885  10.067  -0.460   7.480  0.5364  1.1513  0.4259
  666MOL0     H89886   9.922  -0.190   7.486  2.0998  1.2202  2.7206
  666MOL0     H89887   9.974  -0.283   7.617  0.6893  0.4887 -0.4007
  666MOL0     H89888   9.814  -0.473   7.564 -0.9415  0.6061  1.3973
  666MOL0     H89889   9.731  -0.323   7.596  0.2030  2.3218 -2.2429
  666MOL0     H89890  10.737  -0.437   6.990  0.3154 -0.7791 -1.5586
  666MOL0     H89891  10.785  -0.361   6.756 -1.1184  1.7561 -1.6671
  666MOL0     H89892  10.754  -0.109   6.431 -0.7283  0.7524 -0.3796
  666MOL0     H89893  10.832  -0.060   6.203  0.1908  2.6263 -2.0171
  666MOL0     H89894  11.440   0.428   5.840  2.8498  0.3428 -0.1046
  666MOL0     H89895  11.244   0.415   5.951  0.4910 -1.8143  1.6439
  666MOL0     H89896  10.963   0.347   6.234 -2.9245 -0.0236 -0.0806
  666MOL0     H89897  10.774   0.266   6.345 -1.3475 -0.2238  2.0639
  666MOL0     H89898  10.572   0.302   6.440 -2.3532 -2.1051 -0.4467
  666MOL0     H89899  10.513   0.347   6.598  1.2193  1.4932 -0.8570
  666MOL0     H89900  10.600   0.125   6.681 -3.2631 -1.1678  1.0873
  666MOL0     H89901  10.658   0.082   6.516 -2.5015 -0.5829 -2.5985
  666MOL0     H89902  10.424   0.112   6.440  1.0661  3.5329  0.9793
  666MOL0     H89903  10.375   0.132   6.605  0.0582 -0.1697  0.7977
  666MOL0     H89904  10.520  -0.097   6.465  1.1379 -2.6987  2.0166
  666MOL0     H89905  10.494  -0.109   6.644 -0.4354 -2.0539 -0.8902
  666MOL0     H89906  10.105  -0.187   6.500  0.6822 -2.3198 -0.8265
  666MOL0     H89907  10.876   0.498   6.688  1.4473 -2.1826  1.5613
  666MOL0     H89908  11.200   0.596   6.611  1.0104  1.1647 -2.5162
  666MOL0     H89909  11.086   0.728   6.555  3.0087  0.5634  0.8669
  666MOL0     H89910  11.043   0.645   6.698 -1.4148  3.2407 -1.6705
  667MOL0     O89911  10.363   4.286   3.719 -0.2312  0.2652  0.8325
  667MOL0     C89912  10.320   4.276   3.604  0.3032  0.3536 -0.6264
  667MOL0     O89913  10.386   4.248   3.486 -0.1675 -0.1476  0.1198
  667MOL0     C89914  10.519   4.210   3.475 -0.0265  0.4826  0.4880
  667MOL0     C89915  10.576   4.226   3.348  0.5688 -0.0999 -0.6364
  667MOL0     C89916  10.704   4.187   3.319  0.1093  0.2361 -0.1046
  667MOL0     C89917  10.776   4.115   3.412  0.2517 -0.5925  0.2337
  667MOL0     O89918  10.898   4.068   3.374  0.2491 -0.8434  0.8601
  667MOL0     C89919  10.982   3.994   3.460  0.7517 -0.4945 -0.4420
  667MOL0     C89920  11.112   3.964   3.407 -0.2033  0.0075  1.2359
  667MOL0     C89921  11.202   4.083   3.424 -0.1704 -0.0106 -0.5295
  667MOL0     C89922  11.339   4.062   3.362 -0.8426  0.1852 -0.6185
  667MOL0     C89923  11.414   4.200   3.389 -0.9813 -0.4663  0.7310
  667MOL0     C89924  11.543   4.193   3.302 -0.0231 -0.4951 -0.6366
  667MOL0     C89925  11.645   4.307   3.318 -0.0682 -0.6649 -0.8305
  667MOL0     C89926  11.775   4.266   3.241 -1.6304  0.0026  0.2250
  667MOL0     N89927  11.887   4.354   3.270 -0.4609  0.1331 -0.7347
  667MOL0     C89928  11.898   4.487   3.237 -0.6418 -0.5060  0.3845
  667MOL0     C89929  11.996   4.531   3.316 -1.4009 -0.2999  0.0057
  667MOL0     C89930  12.068   4.670   3.321  0.7934  0.8777 -0.2221
  667MOL0     C89931  12.165   4.679   3.208  0.0323 -0.1006  0.9385
  667MOL0     C89932  12.256   4.806   3.217 -0.0220  0.1500  0.4123
  667MOL0     C89933  12.342   4.791   3.342 -0.3787 -0.0824 -0.1068
  667MOL0     O89934  12.373   4.654   3.366  0.7885 -0.5495 -0.2424
  667MOL0     C89935  12.480   4.583   3.302 -0.6334 -0.1172 -0.8236
  667MOL0     C89936  12.566   4.644   3.212  0.7831 -1.0232 -0.1992
  667MOL0     C89937  12.663   4.559   3.147  0.6383 -0.0347 -0.7227
  667MOL0     C89938  12.670   4.424   3.167  0.2011  0.1681 -1.0727
  667MOL0     C89939  12.762   4.345   3.078 -0.9389 -0.2342 -0.0713
  667MOL0     O89940  12.856   4.423   3.012  0.3193  0.0792 -0.4987
  667MOL0     C89941  12.961   4.365   2.947  1.0488 -0.7278  0.6628
  667MOL0     C89942  13.035   4.250   2.985  0.3969  0.5963  0.6803
  667MOL0     C89943  13.149   4.223   2.924 -0.2646 -0.7104 -0.4764
  667MOL0     C89944  13.201   4.302   2.828 -0.9614  0.2243  1.0654
  667MOL0     O89945  13.306   4.250   2.758 -0.4747 -0.0336 -0.1229
  667MOL0     C89946  13.421   4.327   2.753  0.1218  0.9655 -0.4686
  667MOL0     C89947  13.530   4.240   2.708  0.4048 -0.0940 -0.2488
  667MOL0     C89948  13.671   4.302   2.752 -0.0094 -0.5459  1.0336
  667MOL0     C89949  13.788   4.219   2.688 -0.3988 -1.0296  0.1792
  667MOL0     C89950  13.931   4.302   2.723  0.2570  0.7591  0.2951
  667MOL0     C89951  14.059   4.218   2.722  0.0361  0.2033 -0.0661
  667MOL0     C89952  14.181   4.306   2.692 -0.0252 -0.6107 -0.0330
  667MOL0     C89953  14.312   4.248   2.743  0.3219 -0.2644  0.1676
  667MOL0    Cl89954  14.382   4.129   2.618 -0.0875  0.4336 -0.0465
  667MOL0     C89955  13.134   4.413   2.783 -0.4226 -0.3921  0.5570
  667MOL0     C89956  13.009   4.440   2.837 -1.0150 -0.1140  0.0976
  667MOL0     O89957  12.754   4.228   3.062  0.1130 -0.1556 -0.0379
  667MOL0     C89958  12.577   4.360   3.255  0.1941 -0.2877 -0.2759
  667MOL0     C89959  12.485   4.442   3.315 -0.8451  0.0790  0.5048
  667MOL0     N89960  12.040   4.429   3.400  0.3091  0.3080 -0.1429
  667MOL0     N89961  11.971   4.321   3.372  0.1286  0.4650 -0.6473
  667MOL0     C89962  10.719   4.102   3.543  0.1236 -0.1571  0.6223
  667MOL0     C89963  10.594   4.151   3.574  0.3521  0.4396 -0.2663
  667MOL0     C89964  10.174   4.324   3.582  0.3724  1.0636  0.2135
  667MOL0     C89965  10.124   4.312   3.456  0.2102 -0.5661  0.1716
  667MOL0     C89966   9.985   4.336   3.426  0.0183  0.3756 -0.5921
  667MOL0     C89967   9.900   4.381   3.529 -0.5001  0.3306  0.1271
  667MOL0     O89968   9.771   4.413   3.500 -0.3604 -0.2412 -0.6377
  667MOL0     C89969   9.670   4.428   3.602 -1.3751 -0.5839 -0.3161
  667MOL0     C89970   9.544   4.476   3.526  0.9449  0.8241  0.3551
  667MOL0     C89971   9.477   4.375   3.433  0.1354  0.2258  0.0634
  667MOL0     C89972   9.363   4.441   3.354 -0.6261 -0.6208 -0.6150
  667MOL0     C89973   9.271   4.348   3.289 -0.8105  0.1416  0.0813
  667MOL0     C89974   9.212   4.257   3.247 -1.1118  0.1981 -0.2136
  667MOL0     C89975   9.956   4.402   3.657 -0.1995 -0.1036 -0.5831
  667MOL0     C89976  10.093   4.378   3.682 -0.2111 -0.1155  0.1389
  667MOL0     C89977  10.142   4.407   3.821  0.3549  0.2827  0.2285
  667MOL0     H89978  10.506   4.277   3.282 -1.3572  1.3615  2.3176
  667MOL0     H89979  10.743   4.213   3.221  0.5201  2.2096  0.5452
  667MOL0     H89980  10.992   4.052   3.552 -0.8957 -0.5386 -0.1996
  667MOL0     H89981  10.931   3.901   3.486  3.9611 -1.9347  1.3816
  667MOL0     H89982  11.108   3.940   3.301 -2.1077 -1.4156  1.5760
  667MOL0     H89983  11.159   3.876   3.453  1.2049  0.6894  1.1546
  667MOL0     H89984  11.219   4.102   3.530  0.5846  2.6101 -1.0607
  667MOL0     H89985  11.157   4.170   3.376  3.1903  0.8022 -2.5305
  667MOL0     H89986  11.398   3.980   3.404 -0.1622 -0.0073 -1.9150
  667MOL0     H89987  11.327   4.031   3.258  1.2172 -1.8302 -0.3187
  667MOL0     H89988  11.348   4.286   3.371 -0.4265 -0.3780 -1.1622
  667MOL0     H89989  11.452   4.211   3.490  0.9228  1.1064 -0.0987
  667MOL0     H89990  11.593   4.099   3.329 -1.5913 -1.1844 -0.0114
  667MOL0     H89991  11.509   4.192   3.198 -1.3671  0.9521 -0.2439
  667MOL0     H89992  11.663   4.324   3.424  0.4113  1.8456 -1.2666
  667MOL0     H89993  11.593   4.392   3.273 -0.1137  0.8356  1.8280
  667MOL0     H89994  11.813   4.169   3.272  1.5450  1.5579  1.7416
  667MOL0     H89995  11.760   4.264   3.133 -0.1897  1.6549 -0.0618
  667MOL0     H89996  11.848   4.551   3.165  2.2806  1.7479  0.1843
  667MOL0     H89997  11.997   4.752   3.314 -0.2416 -0.0073 -0.4733
  667MOL0     H89998  12.127   4.670   3.413 -1.6124  0.1023  1.4094
  667MOL0     H89999  12.225   4.589   3.201  0.2309  0.1419 -0.9885
  667MOL0     H90000  12.105   4.687   3.117 -1.1026 -1.1176  1.5541
  667MOL0     H90001  12.193   4.895   3.220 -0.4087 -0.1433  1.0620
  667MOL0     H90002  12.332   4.809   3.138 -0.4142 -3.2037 -0.2274
  667MOL0     H90003  12.279   4.824   3.425 -1.0653 -0.4448 -0.4815
  667MOL0     H90004  12.434   4.849   3.334  0.2177 -0.7562  1.3309
  667MOL0     H90005  12.554   4.752   3.200  1.9064 -0.9803 -1.0708
  667MOL0     H90006  12.742   4.604   3.087  0.9190 -2.2254 -2.1386
  667MOL0     H90007  13.011   4.188   3.071  2.0646  0.7266  1.2726
  667MOL0     H90008  13.209   4.135   2.945  0.2175 -0.9416 -2.5712
  667MOL0     H90009  13.410   4.420   2.696  1.9364  1.8445  0.5259
  667MOL0     H90010  13.449   4.358   2.855 -2.0722 -1.4471  0.9764
  667MOL0     H90011  13.523   4.141   2.754  0.3189 -0.1274 -0.3334
  667MOL0     H90012  13.510   4.215   2.603 -2.6625 -2.4940  0.7861
  667MOL0     H90013  13.692   4.402   2.712 -0.9556 -0.3748  0.9460
  667MOL0     H90014  13.687   4.306   2.860  2.0984 -2.3595  0.8750
  667MOL0     H90015  13.779   4.220   2.579  0.3271  0.1030  0.1134
  667MOL0     H90016  13.797   4.122   2.737  3.0908  0.7121  3.5326
  667MOL0     H90017  13.926   4.350   2.821  2.4860 -0.4888  1.0772
  667MOL0     H90018  13.937   4.380   2.647 -0.0806 -2.1561 -2.9339
  667MOL0     H90019  14.066   4.185   2.827 -1.7823  0.3363  0.1303
  667MOL0     H90020  14.042   4.125   2.667 -3.0183 -0.1567  1.2230
  667MOL0     H90021  14.174   4.404   2.740  3.3419 -0.4771  0.4500
  667MOL0     H90022  14.172   4.322   2.584 -1.6754  1.1609  0.3080
  667MOL0     H90023  14.378   4.334   2.757  0.9217 -0.9501  1.8744
  667MOL0     H90024  14.301   4.205   2.843 -0.5856  1.3956  0.8067
  667MOL0     H90025  13.169   4.484   2.708 -0.6845  0.7782  1.4994
  667MOL0     H90026  12.962   4.533   2.806 -0.8943  0.5526  1.8138
  667MOL0     H90027  12.575   4.252   3.264  0.6350 -0.3335 -0.6589
  667MOL0     H90028  12.413   4.399   3.384 -0.7951  1.0786  1.2064
  667MOL0     H90029  10.767   4.056   3.629 -1.6794  1.2803  2.4816
  667MOL0     H90030  10.551   4.129   3.671 -0.7688 -2.0135 -1.2457
  667MOL0     H90031  10.176   4.275   3.368 -0.3410  0.3987 -0.5782
  667MOL0     H90032   9.950   4.327   3.323 -0.6807  2.5647 -0.6007
  667MOL0     H90033   9.702   4.499   3.679  0.1698 -1.4595 -0.1207
  667MOL0     H90034   9.655   4.331   3.651 -1.3991  0.7279  2.4508
  667MOL0     H90035   9.555   4.568   3.468 -1.1316  0.6779 -0.3584
  667MOL0     H90036   9.469   4.504   3.601  2.8344  2.9708  1.5934
  667MOL0     H90037   9.424   4.303   3.497 -0.0004  2.0430  2.1258
  667MOL0     H90038   9.549   4.330   3.365 -1.1270 -1.7161 -0.0611
  667MOL0     H90039   9.304   4.509   3.416  1.7790  1.3225 -0.3140
  667MOL0     H90040   9.407   4.509   3.280  1.0154  1.8370  2.3830
  667MOL0     H90041   9.158   4.168   3.222 -2.2739  0.6407  0.6438
  667MOL0     H90042   9.902   4.442   3.742  0.6675 -2.4248  1.1786
  667MOL0     H90043  10.228   4.475   3.818  1.0624 -0.5970  0.1108
  667MOL0     H90044  10.068   4.466   3.875  0.9588  2.2474 -0.9803
  667MOL0     H90045  10.163   4.312   3.872  1.9696  1.0402  1.0398
  668MOL0     O90046   0.606   2.670   6.289 -0.0777  0.3813 -0.1008
  668MOL0     C90047   0.592   2.638   6.169  0.1521  0.3348  0.6949
  668MOL0     O90048   0.695   2.649   6.075  0.5220 -0.2685  0.4766
  668MOL0     C90049   0.816   2.704   6.118 -0.4351  0.7779  0.1664
  668MOL0     C90050   0.941   2.636   6.128  0.1266 -0.3031 -0.6337
  668MOL0     C90051   1.049   2.705   6.171  0.7294  0.1712  0.2010
  668MOL0     C90052   1.046   2.837   6.206 -0.3842 -0.2147 -0.6168
  668MOL0     O90053   1.155   2.913   6.247 -0.4239 -0.6246 -0.2030
  668MOL0     C90054   1.287   2.878   6.216  0.2386 -1.1369 -0.1404
  668MOL0     C90055   1.378   2.986   6.285 -0.2291  0.5361 -0.6664
  668MOL0     C90056   1.528   2.962   6.272  0.0721 -0.1512 -0.2422
  668MOL0     C90057   1.620   3.071   6.342  0.7573 -0.1215 -0.1543
  668MOL0     C90058   1.765   3.037   6.314  0.1184 -0.3551 -0.1022
  668MOL0     C90059   1.857   3.140   6.381  0.1692 -0.1585 -0.0675
  668MOL0     C90060   2.000   3.097   6.392 -1.3635  0.4991  0.6648
  668MOL0     C90061   2.072   3.067   6.254 -0.4352  0.5640 -0.1087
  668MOL0     N90062   2.216   3.032   6.285 -0.0786  0.1729  0.2112
  668MOL0     C90063   2.325   3.115   6.253  0.7746  0.0662 -0.4495
  668MOL0     C90064   2.427   3.035   6.268  0.6972  0.7022 -0.2988
  668MOL0     C90065   2.566   3.074   6.245 -0.3087 -0.2649 -0.1598
  668MOL0     C90066   2.659   3.030   6.361  0.3427  0.4251 -0.2828
  668MOL0     C90067   2.761   3.148   6.381  0.5776  0.2577  0.1208
  668MOL0     C90068   2.860   3.156   6.263 -0.1121 -0.7899  0.3645
  668MOL0     O90069   2.950   3.042   6.265 -0.0074  0.1863 -0.2926
  668MOL0     C90070   3.081   3.057   6.232 -0.8594  0.5582 -0.1859
  668MOL0     C90071   3.143   2.939   6.199 -0.9711  0.3394  0.2567
  668MOL0     C90072   3.275   2.938   6.163 -0.0048  0.5028 -0.1871
  668MOL0     C90073   3.355   3.052   6.135  0.4794 -0.0802 -0.2387
  668MOL0     C90074   3.498   3.048   6.097  0.0236  0.4070 -0.3902
  668MOL0     O90075   3.554   2.922   6.115 -0.2888 -0.0298  0.1897
  668MOL0     C90076   3.691   2.914   6.113 -0.7374 -0.4144  0.3810
  668MOL0     C90077   3.748   2.822   6.026 -0.7073 -0.4200 -0.5082
  668MOL0     C90078   3.893   2.810   6.019  0.0922  0.6174  0.1380
  668MOL0     C90079   3.975   2.874   6.109 -0.2987  0.0652 -0.2296
  668MOL0     O90080   4.114   2.840   6.110  0.5686 -0.5276 -0.6999
  668MOL0     C90081   4.206   2.948   6.128 -0.2752 -0.2056 -0.6209
  668MOL0     C90082   4.336   2.876   6.117 -0.6931  0.1804  0.0128
  668MOL0     C90083   4.451   2.978   6.099  1.0767 -0.3927  0.2700
  668MOL0     C90084   4.579   2.918   6.053  0.5924 -0.1013  0.1373
  668MOL0     C90085   4.697   3.022   6.022  0.4515 -0.5197 -0.4282
  668MOL0     C90086   4.837   2.950   5.987 -0.0554  1.4052 -0.2076
  668MOL0     C90087   4.950   3.053   5.990  0.1314  0.7292 -0.2892
  668MOL0     C90088   5.093   2.984   5.962  0.8655 -0.2169  0.2794
  668MOL0    Cl90089   5.139   2.878   6.101 -0.5417 -0.0058 -0.0920
  668MOL0     C90090   3.911   2.959   6.212 -0.4030 -0.5767 -0.1913
  668MOL0     C90091   3.774   2.971   6.212 -0.1680 -0.2260  0.8292
  668MOL0     O90092   3.549   3.152   6.055 -0.6688  0.4187  0.0857
  668MOL0     C90093   3.289   3.168   6.182  0.1162  0.2433 -0.2542
  668MOL0     C90094   3.155   3.179   6.227  0.9237 -0.7202  0.2460
  668MOL0     N90095   2.393   2.920   6.329  0.0838 -0.2949  0.2233
  668MOL0     N90096   2.267   2.921   6.346 -0.2047 -0.8853 -1.0053
  668MOL0     C90097   0.926   2.903   6.193 -0.4145  0.2249  0.4702
  668MOL0     C90098   0.819   2.844   6.140  1.0477  0.6171  1.1119
  668MOL0     C90099   0.473   2.578   6.107  1.0910 -0.2746  0.5052
  668MOL0     C90100   0.477   2.511   5.977  0.4326  0.1455 -0.5799
  668MOL0     C90101   0.356   2.462   5.918 -0.1355 -0.1453  0.6187
  668MOL0     C90102   0.231   2.468   5.986  0.6693 -0.4747  0.6234
  668MOL0     O90103   0.109   2.410   5.945 -0.4391 -0.3390  0.0870
  668MOL0     C90104   0.117   2.329   5.832  0.2036 -0.1709  0.0410
  668MOL0     C90105  -0.023   2.307   5.784 -0.1045  0.1269  0.5394
  668MOL0     C90106  -0.093   2.202   5.868  0.5925  0.1490 -0.8589
  668MOL0     C90107  -0.236   2.164   5.833  0.1021  0.2379 -0.3574
  668MOL0     C90108  -0.233   2.071   5.711 -0.0492 -0.2708  0.3550
  668MOL0     C90109  -0.223   1.992   5.618  0.1632 -0.3747 -0.0266
  668MOL0     C90110   0.229   2.530   6.109 -0.3814 -0.9889  0.0400
  668MOL0     C90111   0.341   2.583   6.165 -0.2596 -0.0041 -0.1841
  668MOL0     C90112   0.316   2.655   6.296  0.2056 -0.3981  0.2823
  668MOL0     H90113   0.937   2.529   6.114 -0.7033 -0.4798  0.8062
  668MOL0     H90114   1.137   2.643   6.184  0.4774  0.1637  2.0850
  668MOL0     H90115   1.310   2.784   6.266 -1.0579 -0.6117  1.5170
  668MOL0     H90116   1.317   2.863   6.112 -0.5230 -2.2441 -0.2159
  668MOL0     H90117   1.359   2.980   6.392  1.0386 -1.1696 -0.4851
  668MOL0     H90118   1.356   3.083   6.239 -0.9678 -0.8945 -3.6024
  668MOL0     H90119   1.552   2.952   6.166  3.5318 -0.5064  0.4640
  668MOL0     H90120   1.563   2.866   6.311 -0.1325 -0.0946  0.0801
  668MOL0     H90121   1.590   3.168   6.301 -0.0196 -1.1034 -2.0512
  668MOL0     H90122   1.614   3.060   6.451  0.4918 -0.2785 -0.1850
  668MOL0     H90123   1.784   2.932   6.340  0.8779 -0.2445 -0.2013
  668MOL0     H90124   1.771   3.041   6.205 -1.9384 -3.4128 -0.4645
  668MOL0     H90125   1.851   3.239   6.333 -0.4143 -0.1278  0.0690
  668MOL0     H90126   1.820   3.155   6.482  0.1151  2.3598 -0.3935
  668MOL0     H90127   2.007   3.009   6.457 -0.0704 -1.8756 -2.4034
  668MOL0     H90128   2.063   3.169   6.446 -0.4517 -1.4572  2.3540
  668MOL0     H90129   2.021   2.986   6.201  1.0744  0.1585 -1.0111
  668MOL0     H90130   2.078   3.156   6.190 -0.7707 -0.8881 -2.2620
  668MOL0     H90131   2.314   3.214   6.211 -0.3477 -1.1682 -3.3602
  668MOL0     H90132   2.589   3.018   6.154  1.1277 -2.1585  1.2928
  668MOL0     H90133   2.575   3.180   6.220 -2.0554 -0.4109 -1.5394
  668MOL0     H90134   2.592   3.016   6.447 -1.4840 -1.6700 -1.9489
  668MOL0     H90135   2.694   2.932   6.331 -0.4251  0.0877 -0.0991
  668MOL0     H90136   2.811   3.134   6.477 -0.0475 -1.1601  0.2596
  668MOL0     H90137   2.705   3.241   6.390 -1.3932 -1.0387  2.6579
  668MOL0     H90138   2.914   3.251   6.264 -1.4539  0.0731 -2.0443
  668MOL0     H90139   2.810   3.162   6.166 -2.1107 -0.6148  1.3627
  668MOL0     H90140   3.093   2.845   6.222 -0.0178 -0.3116 -0.2711
  668MOL0     H90141   3.319   2.839   6.156 -0.8142 -0.2503  3.5773
  668MOL0     H90142   3.683   2.756   5.968 -0.1819 -1.2536 -0.1663
  668MOL0     H90143   3.934   2.751   5.937  2.0127  0.1276  1.3893
  668MOL0     H90144   4.192   3.026   6.052  1.2022 -0.2127 -0.9406
  668MOL0     H90145   4.196   2.992   6.228 -3.2719 -1.6584 -0.1809
  668MOL0     H90146   4.352   2.825   6.212  1.0541 -0.9593 -0.8323
  668MOL0     H90147   4.340   2.812   6.028 -0.6577  3.1116 -2.2440
  668MOL0     H90148   4.415   3.042   6.018 -3.1884 -3.2256 -0.4552
  668MOL0     H90149   4.461   3.032   6.194  0.0088 -2.5877  1.7249
  668MOL0     H90150   4.546   2.865   5.963 -0.6297 -0.9153  1.0407
  668MOL0     H90151   4.612   2.843   6.126 -2.5128  0.4662  2.3307
  668MOL0     H90152   4.697   3.089   6.108 -5.0324  0.6453 -0.9956
  668MOL0     H90153   4.680   3.086   5.934  2.5378  1.3657  0.4288
  668MOL0     H90154   4.859   2.874   6.062 -0.2216 -1.2160 -2.6634
  668MOL0     H90155   4.838   2.898   5.891  0.1137  1.1679 -0.0778
  668MOL0     H90156   4.960   3.091   6.092  0.4936  4.2932 -1.5382
  668MOL0     H90157   4.918   3.137   5.928 -3.5954 -2.1822 -2.7557
  668MOL0     H90158   5.088   2.924   5.871 -1.6273  3.8387 -2.5931
  668MOL0     H90159   5.168   3.061   5.946  0.1512  0.6017  0.7740
  668MOL0     H90160   3.965   3.010   6.291 -0.8308  1.6466 -1.2345
  668MOL0     H90161   3.722   3.021   6.292 -3.1254 -2.4558  0.4906
  668MOL0     H90162   3.346   3.260   6.180 -2.8164  2.2395  0.2799
  668MOL0     H90163   3.114   3.273   6.264  2.8852 -0.9147  3.2784
  668MOL0     H90164   0.911   3.005   6.228 -0.8033  0.2783  0.1580
  668MOL0     H90165   0.726   2.901   6.141  2.0651  2.4343 -0.7050
  668MOL0     H90166   0.569   2.490   5.924  1.4622  1.6610  0.5360
  668MOL0     H90167   0.373   2.424   5.818 -0.8651 -0.7611  0.7215
  668MOL0     H90168   0.177   2.240   5.854 -0.4529 -0.8127 -0.7163
  668MOL0     H90169   0.165   2.384   5.750 -2.9187  2.4661 -0.1855
  668MOL0     H90170  -0.021   2.278   5.679 -0.5241  3.0460 -0.3535
  668MOL0     H90171  -0.076   2.402   5.779  1.8174  1.1920 -1.4375
  668MOL0     H90172  -0.083   2.245   5.968  0.6063  0.6384 -1.0648
  668MOL0     H90173  -0.037   2.108   5.867 -0.7096 -0.6583 -0.0480
  668MOL0     H90174  -0.290   2.116   5.915 -0.2133  1.4134  0.1350
  668MOL0     H90175  -0.291   2.253   5.800 -2.4186 -0.4776  1.6029
  668MOL0     H90176  -0.209   1.924   5.537  2.3541 -0.1372  0.0738
  668MOL0     H90177   0.137   2.532   6.165 -0.9510  1.8461 -0.8648
  668MOL0     H90178   0.362   2.754   6.307 -0.8492  0.1829 -0.3592
  668MOL0     H90179   0.210   2.661   6.324 -0.7029  0.3031 -2.8917
  668MOL0     H90180   0.355   2.587   6.372 -1.2328 -3.8504 -1.8453
  669MOL0     O90181   2.434   6.111   4.287  1.0827 -0.8310 -0.3732
  669MOL0     C90182   2.361   6.173   4.210 -0.1295 -0.0498 -0.2725
  669MOL0     O90183   2.394   6.206   4.080 -0.5017  0.4211 -0.1152
  669MOL0     C90184   2.524   6.190   4.045 -0.0990 -0.4955  0.1937
  669MOL0     C90185   2.603   6.307   4.033  0.2264 -0.2119  0.4916
  669MOL0     C90186   2.736   6.295   4.004 -0.6263  0.5474 -0.0896
  669MOL0     C90187   2.791   6.170   3.968  0.5162  0.6805 -0.1204
  669MOL0     O90188   2.915   6.156   3.918 -0.3956  0.1691  0.0758
  669MOL0     C90189   3.018   6.215   4.006  0.6073 -0.1176 -0.0256
  669MOL0     C90190   3.139   6.132   4.024  0.2965  0.0674  0.2424
  669MOL0     C90191   3.193   6.077   3.892  0.1054 -0.1329 -0.0572
  669MOL0     C90192   3.226   6.183   3.788  0.1819 -0.5344 -0.1494
  669MOL0     C90193   3.306   6.126   3.668  0.6008  0.1306  0.5953
  669MOL0     C90194   3.459   6.161   3.679 -0.7489 -0.6542  0.0389
  669MOL0     C90195   3.545   6.129   3.557 -0.7754  0.7166  0.3810
  669MOL0     C90196   3.592   5.985   3.559  0.1998  0.0656  0.0697
  669MOL0     N90197   3.660   5.944   3.437  0.3841  0.9036 -0.5740
  669MOL0     C90198   3.611   5.952   3.306  0.2313 -0.4024 -0.8315
  669MOL0     C90199   3.722   5.923   3.234  0.1049  0.0087  0.4019
  669MOL0     C90200   3.730   5.940   3.088 -0.3907  0.6833 -0.2587
  669MOL0     C90201   3.711   6.085   3.043  0.1136  0.1091  0.4199
  669MOL0     C90202   3.822   6.181   3.081 -0.9044  0.3903 -0.1643
  669MOL0     C90203   3.802   6.309   3.002 -0.1357 -0.1238 -0.3234
  669MOL0     O90204   3.894   6.415   3.037 -0.3465 -0.3667 -0.1767
  669MOL0     C90205   4.031   6.419   3.001 -0.2122 -0.0889 -0.3542
  669MOL0     C90206   4.123   6.509   3.064  0.8212 -0.4607 -0.1534
  669MOL0     C90207   4.260   6.501   3.047 -1.0533  0.0737 -0.0286
  669MOL0     C90208   4.316   6.421   2.954  0.3689 -0.0906  0.1290
  669MOL0     C90209   4.458   6.417   2.924 -0.2391 -0.8164 -0.1802
  669MOL0     O90210   4.508   6.310   2.862  0.1886 -0.1706  0.0619
  669MOL0     C90211   4.641   6.295   2.829  0.2608  0.0208 -0.5204
  669MOL0     C90212   4.663   6.178   2.755  0.2563  0.2062 -1.0962
  669MOL0     C90213   4.797   6.134   2.735  0.3853  0.2270 -0.0660
  669MOL0     C90214   4.898   6.221   2.780  0.7049  0.2865  0.2263
  669MOL0     O90215   5.025   6.172   2.760 -0.0191 -0.4964  0.5255
  669MOL0     C90216   5.135   6.250   2.811  0.2235 -0.3629 -0.4829
  669MOL0     C90217   5.261   6.200   2.751  0.0176 -0.0505  0.9393
  669MOL0     C90218   5.383   6.247   2.829  0.5671 -0.0851 -0.8493
  669MOL0     C90219   5.491   6.264   2.734  0.1451 -0.2638 -0.1900
  669MOL0     C90220   5.552   6.136   2.677  0.0971 -0.7392  0.1125
  669MOL0     C90221   5.683   6.161   2.608  0.6917 -0.1463 -0.2547
  669MOL0     C90222   5.745   6.031   2.559 -0.4165  0.0163  0.1067
  669MOL0     C90223   5.861   6.045   2.462  0.6229 -0.1306 -0.1383
  669MOL0    Cl90224   5.926   5.896   2.416 -0.3720 -0.2028  0.4343
  669MOL0     C90225   4.873   6.339   2.846  0.5717  1.0054 -0.2911
  669MOL0     C90226   4.744   6.377   2.872 -0.7554  0.1412 -0.4765
  669MOL0     O90227   4.516   6.521   2.964 -0.5258  0.3760  0.7900
  669MOL0     C90228   4.229   6.336   2.875  0.2865 -0.3018 -0.2105
  669MOL0     C90229   4.086   6.344   2.897  1.0097  0.5198 -0.5717
  669MOL0     N90230   3.832   5.892   3.318  0.5293  0.2693  0.0335
  669MOL0     N90231   3.793   5.904   3.433  1.2962 -0.0173 -0.5966
  669MOL0     C90232   2.711   6.061   3.972  0.4556  0.3981 -0.3270
  669MOL0     C90233   2.575   6.060   4.014 -0.1304  0.4422 -0.1964
  669MOL0     C90234   2.233   6.234   4.255 -0.0180  0.6390 -0.1710
  669MOL0     C90235   2.154   6.291   4.154 -0.9010  0.8982  0.5169
  669MOL0     C90236   2.024   6.336   4.183  0.2395 -0.7228  0.0187
  669MOL0     C90237   1.977   6.343   4.308  0.9104 -0.1242 -0.3895
  669MOL0     O90238   1.849   6.391   4.329  1.0237 -0.7185 -0.0109
  669MOL0     C90239   1.811   6.445   4.459  0.3134 -0.4639 -0.1980
  669MOL0     C90240   1.697   6.537   4.433 -0.1613  0.1850  0.1414
  669MOL0     C90241   1.594   6.544   4.545  0.2774 -0.3884  1.1057
  669MOL0     C90242   1.500   6.422   4.540  1.1965  0.4008 -0.0684
  669MOL0     C90243   1.366   6.458   4.588  0.0966  0.0825 -0.8741
  669MOL0     C90244   1.258   6.474   4.649  0.4045  0.8593  0.4831
  669MOL0     C90245   2.053   6.284   4.412 -0.0803 -0.2257  0.5661
  669MOL0     C90246   2.180   6.237   4.388 -0.1351 -1.3336 -0.1266
  669MOL0     C90247   2.279   6.209   4.507  0.2356  0.6554 -0.1594
  669MOL0     H90248   2.566   6.408   4.043 -1.6113 -0.8280  0.1894
  669MOL0     H90249   2.799   6.384   3.997 -0.3756  0.2952 -1.4667
  669MOL0     H90250   3.055   6.315   3.983  0.0890  0.7632  2.6240
  669MOL0     H90251   2.967   6.225   4.102  2.0555  0.9948  0.6581
  669MOL0     H90252   3.110   6.047   4.087  0.2353 -0.6049 -0.6745
  669MOL0     H90253   3.215   6.188   4.080 -1.0059 -0.5934  2.8191
  669MOL0     H90254   3.122   6.006   3.848  0.6471 -0.3000 -0.6740
  669MOL0     H90255   3.283   6.026   3.927 -0.9538  0.4537  4.0097
  669MOL0     H90256   3.132   6.221   3.746 -0.1773  0.3582  1.3932
  669MOL0     H90257   3.292   6.262   3.824  0.4204  0.2546 -2.1859
  669MOL0     H90258   3.283   6.019   3.669 -2.0956  0.6479  0.8256
  669MOL0     H90259   3.263   6.168   3.577  1.1402  0.4127  0.4617
  669MOL0     H90260   3.460   6.269   3.697 -1.5783 -0.4235 -1.1917
  669MOL0     H90261   3.501   6.104   3.762 -0.6268  0.6026  0.8568
  669MOL0     H90262   3.632   6.192   3.537  1.6403 -3.3054 -3.7438
  669MOL0     H90263   3.480   6.150   3.472 -0.5213  2.5503  0.6029
  669MOL0     H90264   3.650   5.964   3.650 -0.5092 -1.3311  0.2302
  669MOL0     H90265   3.494   5.938   3.571 -2.2651  4.3816 -0.8008
  669MOL0     H90266   3.517   5.997   3.276 -0.2756  0.1996  1.4690
  669MOL0     H90267   3.824   5.901   3.047  0.3319  0.5473  1.4337
  669MOL0     H90268   3.647   5.884   3.044 -0.5801  0.3672  0.5001
  669MOL0     H90269   3.694   6.078   2.935 -1.8890  1.2083  0.6038
  669MOL0     H90270   3.616   6.115   3.089 -0.8753 -3.8300  1.2957
  669MOL0     H90271   3.925   6.151   3.061 -0.3312 -0.0756  2.9929
  669MOL0     H90272   3.828   6.196   3.189  2.4866  0.2952 -0.2131
  669MOL0     H90273   3.700   6.338   3.029 -0.3214 -0.2334 -0.8949
  669MOL0     H90274   3.818   6.296   2.894  0.0582  0.7983 -0.4152
  669MOL0     H90275   4.077   6.571   3.140  0.9267 -1.0268  0.3801
  669MOL0     H90276   4.313   6.577   3.104  0.5457  0.3292 -1.7509
  669MOL0     H90277   4.572   6.132   2.717  0.4047 -0.1618 -1.0143
  669MOL0     H90278   4.820   6.042   2.681  1.7719  0.3941  0.2144
  669MOL0     H90279   5.138   6.356   2.786 -1.1611  1.2571  4.8296
  669MOL0     H90280   5.137   6.240   2.920 -1.8006 -1.6648 -0.5154
  669MOL0     H90281   5.259   6.090   2.744 -1.2988  0.0679 -2.6598
  669MOL0     H90282   5.275   6.231   2.647 -2.4622 -2.1051 -0.1201
  669MOL0     H90283   5.362   6.341   2.880 -0.5052  0.6482 -2.5523
  669MOL0     H90284   5.404   6.167   2.901 -0.4264  1.1281  0.8532
  669MOL0     H90285   5.577   6.318   2.776  0.0313  0.7222 -1.1934
  669MOL0     H90286   5.454   6.332   2.657  0.2297 -1.1558 -1.0369
  669MOL0     H90287   5.491   6.076   2.609  0.9928 -1.9827  0.3847
  669MOL0     H90288   5.566   6.067   2.761  1.0608 -1.4878 -0.6494
  669MOL0     H90289   5.656   6.233   2.530 -1.6018 -1.2781 -0.5800
  669MOL0     H90290   5.760   6.200   2.675  1.9112 -2.6960 -0.0631
  669MOL0     H90291   5.665   5.965   2.525  0.3537 -0.7383 -0.2682
  669MOL0     H90292   5.778   5.983   2.651 -0.9955  1.7915  1.3081
  669MOL0     H90293   5.822   6.087   2.369 -1.8179  1.2372  1.3848
  669MOL0     H90294   5.941   6.112   2.495  0.2646 -0.3669  1.2949
  669MOL0     H90295   4.956   6.398   2.883  1.7294 -1.5093  1.3578
  669MOL0     H90296   4.735   6.471   2.924 -0.0182 -1.4441  2.7461
  669MOL0     H90297   4.263   6.278   2.791  0.5698 -0.8169  0.2560
  669MOL0     H90298   4.015   6.292   2.834 -0.1253  0.6159  0.5890
  669MOL0     H90299   2.764   5.970   3.946  1.6793  0.9579  0.1477
  669MOL0     H90300   2.523   5.966   4.030  1.6577 -0.2115  2.6238
  669MOL0     H90301   2.178   6.306   4.049  2.3368 -2.9164  0.4689
  669MOL0     H90302   1.966   6.372   4.098 -1.9088  0.0271  1.7137
  669MOL0     H90303   1.892   6.504   4.504 -0.2383 -0.1410  0.3819
  669MOL0     H90304   1.781   6.373   4.537 -1.0124  1.3442  1.0252
  669MOL0     H90305   1.654   6.501   4.339 -3.2883  0.5485  1.3307
  669MOL0     H90306   1.736   6.639   4.419 -0.8574  0.1910 -2.2377
  669MOL0     H90307   1.546   6.642   4.541 -0.7082 -0.8973 -0.6747
  669MOL0     H90308   1.649   6.545   4.640  2.0075 -1.9780  0.1891
  669MOL0     H90309   1.489   6.389   4.436 -0.0874 -1.1399  0.5195
  669MOL0     H90310   1.545   6.337   4.592 -2.0125 -0.6024  1.2954
  669MOL0     H90311   1.159   6.487   4.689  0.3649 -0.4665  0.8783
  669MOL0     H90312   2.018   6.280   4.515 -0.2748  0.6011  0.5423
  669MOL0     H90313   2.228   6.231   4.601 -2.9756 -0.3363 -1.4980
  669MOL0     H90314   2.306   6.103   4.514 -0.1542  0.6336  1.3184
  669MOL0     H90315   2.372   6.262   4.487  0.5942 -0.3193 -1.2261
  670MOL0     O90316   0.359   9.153   5.551 -1.3008  0.1936 -0.1927
  670MOL0     C90317   0.408   9.069   5.474  0.1927  0.4917  0.0977
  670MOL0     O90318   0.541   9.033   5.469 -0.1528 -0.2870 -0.6892
  670MOL0     C90319   0.647   9.111   5.526  0.1257 -0.4767  0.2513
  670MOL0     C90320   0.634   9.254   5.550  0.5372 -0.4714  0.0901
  670MOL0     C90321   0.736   9.326   5.612 -0.5301 -0.5199 -0.5801
  670MOL0     C90322   0.861   9.258   5.631 -0.5773 -0.4368  0.5689
  670MOL0     O90323   0.963   9.322   5.693 -0.0147 -0.0426 -0.3172
  670MOL0     C90324   0.983   9.463   5.673  0.5337  1.2678 -0.1981
  670MOL0     C90325   1.099   9.510   5.755 -0.4331 -0.0956 -0.9980
  670MOL0     C90326   1.108   9.666   5.748  0.5046  0.0605  0.1020
  670MOL0     C90327   1.211   9.719   5.835 -0.7446  0.0019  0.0464
  670MOL0     C90328   1.354   9.692   5.769 -0.4188 -0.2706 -0.5852
  670MOL0     C90329   1.466   9.755   5.847  0.0651  1.0698  0.5703
  670MOL0     C90330   1.466   9.708   5.989 -0.8832 -0.4193 -0.4360
  670MOL0     C90331   1.594   9.754   6.060  0.6162  0.6223  0.4961
  670MOL0     N90332   1.644   9.669   6.160  0.0780  0.0999 -0.5719
  670MOL0     C90333   1.567   9.623   6.264 -0.6021 -0.1968  0.2795
  670MOL0     C90334   1.657   9.560   6.347  0.1841 -0.3567  0.3204
  670MOL0     C90335   1.634   9.503   6.475  0.3573  0.2412 -0.5563
  670MOL0     C90336   1.556   9.374   6.471 -0.0438 -0.4267  0.7171
  670MOL0     C90337   1.589   9.290   6.600 -0.1125  0.8768  0.3627
  670MOL0     C90338   1.721   9.206   6.594 -0.0949 -0.1901 -0.5400
  670MOL0     O90339   1.808   9.249   6.485  0.4232  0.1821  0.0635
  670MOL0     C90340   1.938   9.196   6.491  0.1354 -0.0643  0.3168
  670MOL0     C90341   2.004   9.163   6.611  0.0771  0.0838 -0.2111
  670MOL0     C90342   2.137   9.118   6.609 -0.4256  0.1813  0.1818
  670MOL0     C90343   2.194   9.074   6.484 -0.1785 -0.4502  0.1390
  670MOL0     C90344   2.325   9.007   6.482 -0.5609 -0.1687  0.1407
  670MOL0     O90345   2.361   8.936   6.598 -0.3985  0.3820  0.2397
  670MOL0     C90346   2.483   8.877   6.588 -0.5551  0.8879  0.2926
  670MOL0     C90347   2.509   8.765   6.508  1.0115  0.2267  0.6174
  670MOL0     C90348   2.639   8.722   6.500  0.1389 -0.0149 -0.2537
  670MOL0     C90349   2.745   8.786   6.576  0.0366  0.2146 -0.2370
  670MOL0     O90350   2.877   8.741   6.580  0.3709  0.6588  0.2416
  670MOL0     C90351   2.933   8.701   6.450  0.0167 -0.3722 -0.2452
  670MOL0     C90352   3.076   8.665   6.466  0.7425  0.1578  0.1610
  670MOL0     C90353   3.095   8.544   6.578  1.0311 -0.1457 -1.2303
  670MOL0     C90354   3.114   8.606   6.716  1.1474  0.1300 -0.1739
  670MOL0     C90355   3.160   8.496   6.821  0.3979  0.2080  0.3071
  670MOL0     C90356   3.290   8.420   6.798 -0.2567  0.1042  0.5563
  670MOL0     C90357   3.339   8.342   6.917 -0.6525 -0.1965 -0.3594
  670MOL0     C90358   3.474   8.286   6.890  0.4296 -0.5037 -0.3989
  670MOL0    Cl90359   3.610   8.402   6.864  0.0836 -0.0404 -0.1427
  670MOL0     C90360   2.708   8.888   6.664 -0.9389  0.0556 -0.4149
  670MOL0     C90361   2.581   8.931   6.668  0.5691 -0.5125  0.0189
  670MOL0     O90362   2.385   9.009   6.374 -0.4027  0.3811  0.1804
  670MOL0     C90363   2.129   9.104   6.364 -0.6588 -1.0579  0.1198
  670MOL0     C90364   2.010   9.169   6.374 -0.0822 -0.2080 -0.0398
  670MOL0     N90365   1.781   9.558   6.276 -0.0718  0.3173 -0.8698
  670MOL0     N90366   1.772   9.624   6.168  0.3736  0.4458 -0.2836
  670MOL0     C90367   0.879   9.128   5.574 -0.0826 -0.7242  0.0815
  670MOL0     C90368   0.774   9.053   5.531  0.4052  0.6709 -0.2353
  670MOL0     C90369   0.318   8.967   5.416  0.1564  0.5121  0.4344
  670MOL0     C90370   0.372   8.847   5.370  0.5886 -0.4450  0.3759
  670MOL0     C90371   0.294   8.753   5.316  0.9562 -0.3438  0.6570
  670MOL0     C90372   0.151   8.764   5.303  0.0409 -0.7648 -0.4710
  670MOL0     O90373   0.077   8.675   5.223  0.5514  0.6177  0.3973
  670MOL0     C90374  -0.017   8.730   5.139  0.0311  0.5447  0.3061
  670MOL0     C90375  -0.051   8.664   5.013 -0.2676 -0.1539 -0.1636
  670MOL0     C90376  -0.114   8.525   5.015 -0.0983  0.2505 -0.1540
  670MOL0     C90377  -0.047   8.420   4.924 -0.2656  0.0295 -0.3073
  670MOL0     C90378  -0.114   8.292   4.940 -0.1579 -0.0144  0.6408
  670MOL0     C90379  -0.179   8.192   4.959  0.7460  0.8083 -0.8219
  670MOL0     C90380   0.098   8.881   5.357  0.3797  0.8182  0.5383
  670MOL0     C90381   0.177   8.980   5.404  0.1905 -0.1408 -1.1210
  670MOL0     C90382   0.097   9.104   5.436  0.2649 -0.0737  0.6002
  670MOL0     H90383   0.539   9.304   5.537 -2.0355 -4.6938  0.5504
  670MOL0     H90384   0.725   9.430   5.643  3.0797  0.1040 -1.0040
  670MOL0     H90385   0.990   9.486   5.566  2.4890  2.6910  0.1884
  670MOL0     H90386   0.894   9.518   5.706 -1.6838 -1.0748 -1.8041
  670MOL0     H90387   1.187   9.457   5.717  0.2274 -0.4535  0.9181
  670MOL0     H90388   1.086   9.469   5.855 -0.1801 -1.6034 -1.5533
  670MOL0     H90389   1.010   9.705   5.779 -0.4846 -1.0899 -1.4577
  670MOL0     H90390   1.131   9.701   5.647  0.4794  0.4284  0.2195
  670MOL0     H90391   1.204   9.828   5.846  0.2529  0.0117  0.7030
  670MOL0     H90392   1.196   9.671   5.932  2.2836  0.4310  0.8280
  670MOL0     H90393   1.366   9.584   5.764  0.0477 -0.2963  0.7479
  670MOL0     H90394   1.348   9.736   5.669 -0.1581  0.1883 -0.4044
  670MOL0     H90395   1.553   9.744   5.781 -0.9161 -1.3543 -0.4325
  670MOL0     H90396   1.449   9.863   5.841  1.4604  1.2338 -1.9884
  670MOL0     H90397   1.458   9.599   5.987  1.0956 -0.6381 -3.7573
  670MOL0     H90398   1.388   9.761   6.045 -0.2038  2.6725 -2.1991
  670MOL0     H90399   1.675   9.738   5.988  1.3611 -0.1681  1.4861
  670MOL0     H90400   1.600   9.859   6.089  0.0038  0.6012  0.7114
  670MOL0     H90401   1.461   9.638   6.284 -1.2110 -1.5216 -1.6922
  670MOL0     H90402   1.731   9.485   6.523  0.3775 -1.5301 -1.2144
  670MOL0     H90403   1.569   9.563   6.540 -0.0396 -1.2252  0.4666
  670MOL0     H90404   1.453   9.407   6.483  0.8528  1.9981  2.8806
  670MOL0     H90405   1.578   9.327   6.375  0.8772 -2.4484  1.8440
  670MOL0     H90406   1.506   9.223   6.624  0.7449  0.4324  2.2800
  670MOL0     H90407   1.598   9.356   6.687  0.4807 -1.3980  2.1140
  670MOL0     H90408   1.706   9.101   6.569  2.8160 -1.4933  2.4324
  670MOL0     H90409   1.765   9.204   6.694 -0.9382  3.1236  0.0051
  670MOL0     H90410   1.964   9.204   6.704  0.9925 -1.0362  0.6963
  670MOL0     H90411   2.201   9.121   6.696 -0.0950 -2.7767  0.1579
  670MOL0     H90412   2.434   8.735   6.436 -0.0519  2.7489  0.5566
  670MOL0     H90413   2.658   8.634   6.440  3.4205  0.7425 -0.5362
  670MOL0     H90414   2.876   8.609   6.429  2.1874 -2.5122  2.4150
  670MOL0     H90415   2.926   8.778   6.373  1.7749 -1.2821 -1.3748
  670MOL0     H90416   3.104   8.617   6.372 -0.0560 -0.0174  0.0095
  670MOL0     H90417   3.134   8.755   6.488 -0.9548  2.2171 -3.0204
  670MOL0     H90418   3.005   8.482   6.582  0.0070  1.3392  1.8705
  670MOL0     H90419   3.184   8.485   6.553  1.1179  0.4750 -2.4780
  670MOL0     H90420   3.013   8.629   6.750  0.2020 -0.4586 -2.3596
  670MOL0     H90421   3.189   8.685   6.712  0.7921  0.9716  4.3885
  670MOL0     H90422   3.074   8.428   6.826  1.2077 -0.7644  1.2600
  670MOL0     H90423   3.185   8.559   6.906  0.3740  3.6625 -2.0119
  670MOL0     H90424   3.278   8.362   6.707  3.6685  2.9032 -2.0444
  670MOL0     H90425   3.353   8.503   6.763  0.1853 -0.6297 -0.4252
  670MOL0     H90426   3.267   8.260   6.931 -2.8299  1.0344 -3.4103
  670MOL0     H90427   3.337   8.403   7.007 -1.1444 -2.5552  1.3283
  670MOL0     H90428   3.503   8.220   6.972  0.0108  0.9027  0.9038
  670MOL0     H90429   3.469   8.223   6.800 -0.7342 -4.0122  1.9142
  670MOL0     H90430   2.787   8.937   6.721  0.1928 -0.6039 -1.3607
  670MOL0     H90431   2.555   9.011   6.736  1.4636 -1.1669  1.1463
  670MOL0     H90432   2.181   9.070   6.275 -0.4896  2.7111 -1.4002
  670MOL0     H90433   1.955   9.194   6.284  1.9007  1.0872 -0.9861
  670MOL0     H90434   0.978   9.083   5.580 -0.0393 -1.5046 -3.6792
  670MOL0     H90435   0.786   8.953   5.489  1.3495  0.5590  0.2744
  670MOL0     H90436   0.480   8.841   5.376  0.6911  0.7775 -0.0478
  670MOL0     H90437   0.356   8.670   5.281  0.5863 -0.0395 -0.7961
  670MOL0     H90438   0.017   8.832   5.120 -0.9829  1.0800  1.2762
  670MOL0     H90439  -0.108   8.747   5.196  0.1882  2.1924  0.1051
  670MOL0     H90440   0.038   8.657   4.950 -0.5774 -4.0600 -0.3849
  670MOL0     H90441  -0.114   8.739   4.963 -0.9569  0.0818  1.0160
  670MOL0     H90442  -0.218   8.543   4.989 -0.0885  0.8930  0.2395
  670MOL0     H90443  -0.105   8.497   5.120  2.0430 -2.8607 -1.0265
  670MOL0     H90444  -0.049   8.449   4.819  0.3898 -0.1612 -0.3703
  670MOL0     H90445   0.057   8.409   4.956 -0.5819 -1.0481  0.4029
  670MOL0     H90446  -0.229   8.098   4.955 -1.3578  1.7535  0.7135
  670MOL0     H90447  -0.007   8.891   5.328  0.4382  0.1804  0.0760
  670MOL0     H90448   0.159   9.185   5.398 -1.2474 -0.9322 -4.4868
  670MOL0     H90449   0.003   9.100   5.381  0.1182 -0.3235  0.8677
  670MOL0     H90450   0.077   9.108   5.543 -1.0100 -0.2973  0.3816
  671MOL0     O90451  10.597   4.536   2.725 -0.2599 -0.2265 -0.1735
  671MOL0     C90452  10.718   4.531   2.741  0.4922  0.4394  0.0029
  671MOL0     O90453  10.787   4.612   2.820  0.0353  0.5632  0.2952
  671MOL0     C90454  10.753   4.625   2.954 -0.1139 -0.4946  0.1421
  671MOL0     C90455  10.812   4.731   3.021 -0.2923  0.1299 -0.3272
  671MOL0     C90456  10.781   4.746   3.157 -0.1656  0.4274  0.6082
  671MOL0     C90457  10.700   4.667   3.225  0.1193 -0.0546  0.3569
  671MOL0     O90458  10.680   4.707   3.355 -0.5104  0.2080  0.3323
  671MOL0     C90459  10.605   4.611   3.429 -0.2033  0.8217 -0.5112
  671MOL0     C90460  10.592   4.668   3.574  0.0931 -0.3744  0.3476
  671MOL0     C90461  10.494   4.788   3.600 -0.1063  1.1090 -0.0277
  671MOL0     C90462  10.343   4.754   3.567 -0.1645 -0.3512  0.0124
  671MOL0     C90463  10.270   4.884   3.559  0.8319  0.5475  0.3714
  671MOL0     C90464  10.142   4.858   3.488  0.3430  0.0399  0.2999
  671MOL0     C90465  10.050   4.760   3.562 -0.0112 -1.0301 -0.3740
  671MOL0     C90466   9.906   4.757   3.518 -0.6058 -0.1476  0.6112
  671MOL0     N90467   9.892   4.743   3.370  0.1608  1.0736 -0.0476
  671MOL0     C90468   9.879   4.850   3.287 -0.1605  0.2548 -0.0602
  671MOL0     C90469   9.908   4.802   3.164  0.5647  0.2956 -0.4312
  671MOL0     C90470   9.923   4.889   3.047  0.5643  0.5375  0.2685
  671MOL0     C90471   9.817   4.999   3.046  0.5403  0.5635  0.0013
  671MOL0     C90472   9.838   5.089   2.918  0.3996  0.6679 -0.2122
  671MOL0     C90473   9.965   5.165   2.926  1.1675  0.0054  0.0675
  671MOL0     O90474   9.940   5.296   2.867 -0.8284 -0.1032 -0.7544
  671MOL0     C90475  10.034   5.393   2.868 -0.4905 -0.6619 -0.2319
  671MOL0     C90476  10.167   5.388   2.916  0.4890  0.3623 -0.1803
  671MOL0     C90477  10.251   5.494   2.929  0.0131 -0.3267  0.5871
  671MOL0     C90478  10.205   5.615   2.866 -0.5134 -0.5809  0.6719
  671MOL0     C90479  10.293   5.733   2.875 -0.7946  0.4283  0.8847
  671MOL0     O90480  10.407   5.722   2.952  0.4410 -0.5240 -0.0346
  671MOL0     C90481  10.497   5.826   2.962 -0.5339  0.0589  0.9886
  671MOL0     C90482  10.526   5.916   2.861  0.4021 -0.6789 -0.3583
  671MOL0     C90483  10.612   6.026   2.896 -0.0760  0.1788  0.0523
  671MOL0     C90484  10.668   6.033   3.028 -0.5212  0.1941  0.2397
  671MOL0     O90485  10.749   6.135   3.066 -0.6172  0.1200 -0.4112
  671MOL0     C90486  10.760   6.252   2.976  0.1992  0.0890 -0.0242
  671MOL0     C90487  10.853   6.359   3.028 -1.1900 -0.9719 -0.7280
  671MOL0     C90488  11.002   6.312   3.041  0.2805 -0.0976  0.2600
  671MOL0     C90489  11.029   6.237   3.172 -0.3740 -0.1462 -0.0730
  671MOL0     C90490  11.176   6.204   3.210  0.3419  0.7779 -0.1528
  671MOL0     C90491  11.250   6.329   3.246 -0.0833  0.6160 -0.1692
  671MOL0     C90492  11.397   6.306   3.306 -0.6688  1.0633  0.1844
  671MOL0     C90493  11.493   6.414   3.274 -0.1277  0.3246  1.0401
  671MOL0    Cl90494  11.652   6.378   3.359  0.2146  0.1604 -0.0782
  671MOL0     C90495  10.654   5.925   3.118 -0.1095 -0.9264 -0.6025
  671MOL0     C90496  10.568   5.818   3.080 -0.6790 -0.2626 -0.1776
  671MOL0     O90497  10.265   5.823   2.791 -0.4444 -0.0039 -0.1215
  671MOL0     C90498  10.081   5.616   2.798 -0.1278  0.2050 -1.0515
  671MOL0     C90499   9.995   5.506   2.792 -0.3273  0.2351 -0.0891
  671MOL0     N90500   9.905   4.665   3.173  0.1914  0.0861 -0.0074
  671MOL0     N90501   9.910   4.632   3.297 -0.4685  0.2216 -0.1402
  671MOL0     C90502  10.650   4.554   3.165 -0.5114 -0.1002  0.0102
  671MOL0     C90503  10.680   4.528   3.031 -0.4201  0.2086  0.1415
  671MOL0     C90504  10.793   4.413   2.677  0.3693 -0.1374 -0.6773
  671MOL0     C90505  10.931   4.393   2.715  1.5435  0.0691  0.2759
  671MOL0     C90506  11.008   4.289   2.657  0.9896 -0.0366 -1.0199
  671MOL0     C90507  10.961   4.218   2.552 -0.3345  1.2055 -0.5724
  671MOL0     O90508  11.033   4.123   2.489  0.4431 -0.0569  0.2178
  671MOL0     C90509  11.160   4.076   2.542 -0.2289 -0.6030  0.0032
  671MOL0     C90510  11.237   3.977   2.449 -0.0597  0.2581  0.1978
  671MOL0     C90511  11.225   4.011   2.297 -0.0192 -0.3104  0.4655
  671MOL0     C90512  11.311   3.928   2.214  0.0660 -0.1420 -0.2841
  671MOL0     C90513  11.296   3.776   2.208 -0.5374  0.1218 -0.5434
  671MOL0     C90514  11.320   3.659   2.215  0.6873  0.3028  0.0430
  671MOL0     C90515  10.828   4.237   2.506 -0.3874 -0.2499 -0.4657
  671MOL0     C90516  10.747   4.332   2.565 -0.9170 -0.2781  0.7134
  671MOL0     C90517  10.611   4.335   2.506 -0.1146 -0.3641  0.7171
  671MOL0     H90518  10.879   4.796   2.966  0.5716 -1.4117 -1.1472
  671MOL0     H90519  10.805   4.841   3.206 -2.4016  1.4141 -0.0817
  671MOL0     H90520  10.499   4.595   3.407 -0.8522  2.6587  1.0726
  671MOL0     H90521  10.648   4.510   3.428  0.8636  1.2558 -1.1831
  671MOL0     H90522  10.691   4.699   3.610 -1.4121  2.3867  2.4740
  671MOL0     H90523  10.564   4.584   3.639 -0.6402  0.2419  0.8490
  671MOL0     H90524  10.533   4.873   3.542  1.8079  0.2779 -0.0271
  671MOL0     H90525  10.504   4.805   3.707  1.2368 -1.1109  0.2536
  671MOL0     H90526  10.322   4.699   3.475 -0.5685 -0.8291  0.3852
  671MOL0     H90527  10.303   4.687   3.643 -3.5123  1.1066 -0.2926
  671MOL0     H90528  10.251   4.912   3.663 -1.1788 -1.9090  0.7421
  671MOL0     H90529  10.330   4.957   3.504 -1.2581  3.0531  1.2397
  671MOL0     H90530  10.077   4.945   3.471 -0.5695 -0.7815 -0.5557
  671MOL0     H90531  10.166   4.820   3.389 -0.0503  3.3970 -1.2325
  671MOL0     H90532  10.043   4.796   3.665 -2.5234 -0.1218 -0.7868
  671MOL0     H90533  10.100   4.663   3.565  1.7839 -0.1128  0.8940
  671MOL0     H90534   9.853   4.671   3.559 -0.1189 -0.7087  0.0754
  671MOL0     H90535   9.863   4.854   3.545 -0.4114 -0.2165  1.1628
  671MOL0     H90536   9.869   4.952   3.322  1.1821  1.9694 -4.0933
  671MOL0     H90537  10.029   4.918   3.047  1.0893 -1.1968 -0.5967
  671MOL0     H90538   9.909   4.828   2.957  2.0477  0.2459  0.2072
  671MOL0     H90539   9.717   4.956   3.051  0.7559 -0.0027 -0.5236
  671MOL0     H90540   9.829   5.067   3.131  0.3794  1.3989 -0.6218
  671MOL0     H90541   9.755   5.160   2.910 -0.0057  0.0835 -1.5046
  671MOL0     H90542   9.839   5.020   2.833 -1.7076 -1.0509  1.0243
  671MOL0     H90543  10.042   5.115   2.867 -2.3775 -2.1549 -3.1670
  671MOL0     H90544   9.995   5.184   3.030  0.0229  4.2645 -0.1928
  671MOL0     H90545  10.199   5.291   2.954 -1.6529 -0.9097 -1.4301
  671MOL0     H90546  10.345   5.486   2.983  0.3136 -4.1201 -0.1725
  671MOL0     H90547  10.490   5.902   2.760  2.7398  1.9877 -1.6844
  671MOL0     H90548  10.635   6.093   2.815  2.5426  2.4813  2.4648
  671MOL0     H90549  10.789   6.220   2.876  2.8279 -1.1429  1.0311
  671MOL0     H90550  10.661   6.298   2.977  1.2137  2.5289 -1.6535
  671MOL0     H90551  10.839   6.441   2.957 -0.2878  0.8789  1.1031
  671MOL0     H90552  10.811   6.395   3.123  2.4772  1.8683  0.0540
  671MOL0     H90553  11.036   6.259   2.951  0.0374  0.5936 -0.2485
  671MOL0     H90554  11.068   6.400   3.047  1.6394 -1.1362  1.1151
  671MOL0     H90555  10.962   6.150   3.168 -0.8214  0.2164 -3.6497
  671MOL0     H90556  10.991   6.296   3.256 -3.0140  0.4144 -1.5471
  671MOL0     H90557  11.225   6.158   3.124 -0.0896  0.5510 -0.2766
  671MOL0     H90558  11.177   6.132   3.292 -0.1785 -1.8794 -2.3746
  671MOL0     H90559  11.258   6.399   3.162  1.1033  0.9431  0.1925
  671MOL0     H90560  11.200   6.380   3.328 -0.1441 -0.3448  0.4148
  671MOL0     H90561  11.431   6.212   3.262 -2.2527 -0.7302  2.5508
  671MOL0     H90562  11.398   6.298   3.415 -1.2771  0.6055  0.1620
  671MOL0     H90563  11.504   6.415   3.165 -0.0378  0.8539  1.0500
  671MOL0     H90564  11.455   6.513   3.301  0.8434  1.2622 -0.7938
  671MOL0     H90565  10.710   5.919   3.210  1.2798 -0.6099 -1.3994
  671MOL0     H90566  10.547   5.723   3.128 -1.5735  0.0963  0.1582
  671MOL0     H90567  10.054   5.708   2.747 -0.4975 -0.8038 -2.7595
  671MOL0     H90568   9.905   5.508   2.732 -0.5100  0.1590  0.1809
  671MOL0     H90569  10.589   4.477   3.212 -1.0180 -0.6755 -1.5325
  671MOL0     H90570  10.635   4.441   2.984  1.0137 -0.1357 -0.6610
  671MOL0     H90571  10.968   4.466   2.786 -0.4320  0.1026  1.3286
  671MOL0     H90572  11.105   4.275   2.703  0.2680  2.3407  1.4721
  671MOL0     H90573  11.144   4.023   2.636 -0.8846 -0.4166 -0.0015
  671MOL0     H90574  11.231   4.159   2.550 -2.1273  1.1711 -0.8130
  671MOL0     H90575  11.198   3.877   2.471 -4.6761  1.4858 -1.1339
  671MOL0     H90576  11.343   3.978   2.474  0.3722  0.5838 -1.5168
  671MOL0     H90577  11.239   4.120   2.294 -1.9717 -0.0180  1.0245
  671MOL0     H90578  11.118   4.003   2.276  0.0634 -1.3249  0.3868
  671MOL0     H90579  11.302   3.970   2.113  0.7446 -2.7103 -1.5074
  671MOL0     H90580  11.414   3.939   2.247  0.1107  1.5700 -0.8716
  671MOL0     H90581  11.350   3.556   2.216  0.2648  0.0926  3.5775
  671MOL0     H90582  10.796   4.184   2.417  0.8100 -0.0130 -1.0535
  671MOL0     H90583  10.534   4.328   2.583  0.7078 -1.3537  1.4732
  671MOL0     H90584  10.601   4.437   2.468 -0.1047  0.0141  1.7083
  671MOL0     H90585  10.594   4.261   2.427  0.7945 -1.2090  1.2938
  672MOL0     O90586   7.418   6.241   8.277 -0.6272 -0.1976  0.6852
  672MOL0     C90587   7.330   6.157   8.268  0.1896 -0.2681  0.2518
  672MOL0     O90588   7.352   6.019   8.255  0.3211 -0.8373  0.1942
  672MOL0     C90589   7.474   5.963   8.266  0.9359  1.1267  0.6243
  672MOL0     C90590   7.573   6.002   8.360  0.7577  0.5172 -0.9497
  672MOL0     C90591   7.688   5.924   8.369  0.3928 -0.1310  0.9919
  672MOL0     C90592   7.706   5.818   8.285  0.1087 -0.1039 -0.5970
  672MOL0     O90593   7.811   5.740   8.304 -0.2727  0.3786 -0.0099
  672MOL0     C90594   7.873   5.677   8.189 -0.2485 -0.1470  0.0604
  672MOL0     C90595   8.026   5.669   8.225 -0.0301  0.1433  1.0998
  672MOL0     C90596   8.106   5.598   8.122 -0.9945  1.6641  0.6115
  672MOL0     C90597   8.243   5.554   8.177  0.8050 -0.2346  0.9761
  672MOL0     C90598   8.333   5.535   8.053 -0.0684 -0.0281  0.4790
  672MOL0     C90599   8.469   5.482   8.091  0.3499  0.1933  0.5434
  672MOL0     C90600   8.559   5.453   7.975  0.1486  0.0257  0.0920
  672MOL0     C90601   8.683   5.383   8.014 -0.2233 -1.2166  0.0302
  672MOL0     N90602   8.783   5.477   8.060  0.6199  0.1320 -0.1640
  672MOL0     C90603   8.868   5.553   7.984  0.4912 -0.4614  0.5123
  672MOL0     C90604   8.934   5.622   8.076 -0.3085  0.8489  0.5438
  672MOL0     C90605   9.050   5.703   8.044 -0.4833 -0.4249 -0.9962
  672MOL0     C90606   9.168   5.717   8.134 -0.3926  1.1796  0.0376
  672MOL0     C90607   9.211   5.574   8.183  0.7210 -0.6905 -0.0279
  672MOL0     C90608   9.345   5.571   8.259  0.6203  0.0107 -0.4720
  672MOL0     O90609   9.367   5.443   8.326 -0.2251 -0.1053 -0.2797
  672MOL0     C90610   9.489   5.432   8.386 -0.5906  0.2394 -0.1341
  672MOL0     C90611   9.548   5.303   8.389 -0.0332 -0.0981 -0.7403
  672MOL0     C90612   9.666   5.292   8.464  0.3320 -0.5773 -0.2838
  672MOL0     C90613   9.734   5.405   8.534 -0.0492  0.1365  0.5100
  672MOL0     C90614   9.852   5.381   8.619 -0.0761 -0.5690 -0.8551
  672MOL0     O90615   9.919   5.487   8.672 -0.3703 -0.4517 -0.1405
  672MOL0     C90616  10.050   5.471   8.705 -0.1617  0.2339  0.3481
  672MOL0     C90617  10.136   5.413   8.620 -0.4416  1.2235  0.0571
  672MOL0     C90618  10.272   5.392   8.656 -0.3447 -0.6472  0.7327
  672MOL0     C90619  10.323   5.444   8.776  0.4708 -0.5948  0.9553
  672MOL0     O90620  10.456   5.442   8.809  0.6444 -0.2152 -0.8376
  672MOL0     C90621  10.541   5.496   8.700  0.6143  0.0792 -0.4030
  672MOL0     C90622  10.661   5.574   8.751  0.4099  0.3862  0.4055
  672MOL0     C90623  10.731   5.517   8.882  0.7084 -0.1129  0.8383
  672MOL0     C90624  10.883   5.538   8.863 -0.0995 -0.3710 -0.5456
  672MOL0     C90625  10.961   5.526   8.996  0.3664 -0.5394 -0.2699
  672MOL0     C90626  11.094   5.458   8.990  0.0853 -0.5163  0.1882
  672MOL0     C90627  11.152   5.443   9.129 -0.0502  0.3641  0.0983
  672MOL0     C90628  11.295   5.385   9.121 -1.2003  0.1770 -0.5381
  672MOL0    Cl90629  11.366   5.394   9.294 -0.1426  0.0289  0.1543
  672MOL0     C90630  10.228   5.503   8.866 -0.5207 -0.3449 -0.1215
  672MOL0     C90631  10.098   5.518   8.826 -0.1778  0.3948  0.4569
  672MOL0     O90632   9.871   5.259   8.640 -0.0531 -0.5472 -0.6073
  672MOL0     C90633   9.676   5.529   8.516  0.3933  0.5778  0.6255
  672MOL0     C90634   9.552   5.542   8.449  0.2957 -0.2932  1.0557
  672MOL0     N90635   8.881   5.595   8.204 -0.8742  0.6244  0.3932
  672MOL0     N90636   8.800   5.502   8.192  0.2564  0.0999  0.2309
  672MOL0     C90637   7.610   5.785   8.191 -0.1975  0.6808  0.1109
  672MOL0     C90638   7.491   5.859   8.179 -0.0531  0.4477  0.7145
  672MOL0     C90639   7.187   6.204   8.240 -0.8705 -0.5764  0.4204
  672MOL0     C90640   7.092   6.103   8.211 -0.4448  0.5792  0.3638
  672MOL0     C90641   6.964   6.132   8.163  0.3624 -0.6187  1.0135
  672MOL0     C90642   6.915   6.263   8.164  0.0450 -0.6136 -0.1349
  672MOL0     O90643   6.787   6.289   8.118  0.1520  0.2191 -0.1604
  672MOL0     C90644   6.696   6.182   8.082 -0.2740  0.1995  0.3187
  672MOL0     C90645   6.564   6.236   8.056  0.9848 -0.6576  0.8009
  672MOL0     C90646   6.472   6.130   7.997 -0.1589  0.3387  0.0890
  672MOL0     C90647   6.402   6.057   8.117  0.1878  0.1679 -0.7297
  672MOL0     C90648   6.333   5.942   8.064  1.0487 -0.6103 -0.1284
  672MOL0     C90649   6.259   5.853   8.029 -0.0726  0.1387  0.0550
  672MOL0     C90650   7.007   6.364   8.209  0.4608  0.9619  0.2360
  672MOL0     C90651   7.134   6.337   8.253 -0.1080  0.1060  0.2049
  672MOL0     C90652   7.210   6.459   8.306  0.0978  0.1941  1.2061
  672MOL0     H90653   7.552   6.083   8.430 -0.3134 -0.5982  0.0688
  672MOL0     H90654   7.756   5.942   8.452 -1.1193  2.1687  1.8330
  672MOL0     H90655   7.830   5.580   8.164 -2.5538  0.4393  1.4476
  672MOL0     H90656   7.863   5.726   8.092  1.1972 -2.7607 -1.5169
  672MOL0     H90657   8.048   5.623   8.321  0.2938 -0.1323  0.8949
  672MOL0     H90658   8.056   5.774   8.222  2.5478 -0.5400 -1.3714
  672MOL0     H90659   8.122   5.663   8.036 -1.9938  0.8907 -0.1876
  672MOL0     H90660   8.049   5.508   8.094 -0.9599  0.3154  4.3348
  672MOL0     H90661   8.275   5.635   8.243  0.8310  1.5104 -1.0658
  672MOL0     H90662   8.244   5.461   8.234  2.0525 -0.0344  1.3134
  672MOL0     H90663   8.289   5.465   7.980 -0.3001  0.7926 -0.1828
  672MOL0     H90664   8.345   5.626   7.993  0.3740  0.7740  1.7467
  672MOL0     H90665   8.525   5.556   8.148  0.2747  1.9771 -1.5492
  672MOL0     H90666   8.454   5.394   8.153 -1.1112  0.3461  0.4492
  672MOL0     H90667   8.579   5.551   7.931  0.1445  1.4394  2.9965
  672MOL0     H90668   8.504   5.380   7.915 -1.2077  0.3238  0.9346
  672MOL0     H90669   8.659   5.309   8.091 -2.0100 -0.2235  0.4820
  672MOL0     H90670   8.718   5.325   7.928 -0.6406  1.2292 -1.8915
  672MOL0     H90671   8.886   5.561   7.877  3.4686  1.9735  1.0599
  672MOL0     H90672   9.088   5.665   7.949  1.2631 -0.3663 -0.3559
  672MOL0     H90673   9.012   5.805   8.031  1.5575  0.8787  2.0575
  672MOL0     H90674   9.256   5.753   8.080  0.7906 -3.1574 -1.3357
  672MOL0     H90675   9.138   5.780   8.218 -0.5035 -1.1333  1.8477
  672MOL0     H90676   9.206   5.513   8.093 -1.0204  2.8423 -2.5807
  672MOL0     H90677   9.137   5.528   8.250  2.5130 -1.1962  1.7114
  672MOL0     H90678   9.332   5.645   8.338  1.4593  0.0519 -0.3616
  672MOL0     H90679   9.425   5.597   8.189 -1.8392  0.1348 -3.4673
  672MOL0     H90680   9.507   5.216   8.338  0.6015 -2.0649  1.8844
  672MOL0     H90681   9.698   5.188   8.468 -0.0734 -0.6653  0.9746
  672MOL0     H90682  10.095   5.366   8.531  0.6598 -3.0244  1.5313
  672MOL0     H90683  10.335   5.347   8.579 -0.3523 -0.3266  0.5400
  672MOL0     H90684  10.575   5.402   8.656 -0.5528 -0.0593 -1.0637
  672MOL0     H90685  10.490   5.549   8.618 -0.4527 -0.6328 -0.2252
  672MOL0     H90686  10.736   5.586   8.672  1.2373 -2.1432  0.7223
  672MOL0     H90687  10.624   5.675   8.772  0.0650 -0.2296  3.0988
  672MOL0     H90688  10.679   5.555   8.970 -0.6033 -0.5611  0.2781
  672MOL0     H90689  10.706   5.411   8.892  3.3168 -1.1806 -2.1118
  672MOL0     H90690  10.912   5.640   8.837 -3.3541  0.9121  0.4188
  672MOL0     H90691  10.927   5.470   8.788  2.4437 -1.2268  1.5748
  672MOL0     H90692  10.903   5.498   9.085  3.1040  0.1043  1.8565
  672MOL0     H90693  10.986   5.628   9.025 -0.7262 -0.4489  0.4127
  672MOL0     H90694  11.081   5.364   8.936 -0.0016 -0.0017 -0.7008
  672MOL0     H90695  11.164   5.521   8.935 -0.5681 -0.2743 -0.3747
  672MOL0     H90696  11.088   5.375   9.186  1.5640 -1.6650 -0.3654
  672MOL0     H90697  11.143   5.539   9.180  0.0607 -0.2075  1.2238
  672MOL0     H90698  11.303   5.290   9.067  0.1105  1.1671 -2.1589
  672MOL0     H90699  11.348   5.465   9.068 -0.7756 -1.0490 -2.0193
  672MOL0     H90700  10.269   5.531   8.962 -0.3352  0.1201 -0.3357
  672MOL0     H90701  10.027   5.563   8.895 -1.6106 -2.0884  0.7202
  672MOL0     H90702   9.733   5.620   8.533  0.5660  0.7963 -0.9633
  672MOL0     H90703   9.500   5.637   8.454 -2.1123 -1.4125 -0.4853
  672MOL0     H90704   7.615   5.707   8.116 -2.6954 -1.4044  1.9328
  672MOL0     H90705   7.425   5.842   8.094  1.5763  1.6416 -0.8814
  672MOL0     H90706   7.127   6.002   8.227  1.7203  1.6978  3.5300
  672MOL0     H90707   6.906   6.052   8.117 -0.2808 -0.0880  0.8890
  672MOL0     H90708   6.698   6.104   8.159  1.1455 -0.9307 -0.7899
  672MOL0     H90709   6.746   6.139   7.995 -1.2758  0.6079 -0.4741
  672MOL0     H90710   6.567   6.312   7.977 -1.8192 -1.4962 -0.2319
  672MOL0     H90711   6.517   6.285   8.142 -0.0423  0.4258 -0.3376
  672MOL0     H90712   6.533   6.064   7.935  0.7582  1.2943 -0.0606
  672MOL0     H90713   6.392   6.168   7.934 -1.3270 -0.1120  1.2447
  672MOL0     H90714   6.472   6.031   8.197 -2.9693 -2.9759  1.3206
  672MOL0     H90715   6.334   6.125   8.168 -0.1534 -0.4909 -0.2851
  672MOL0     H90716   6.199   5.770   7.996 -3.1422  2.1909  0.0298
  672MOL0     H90717   6.972   6.467   8.205  2.0870  1.5181 -0.9326
  672MOL0     H90718   7.294   6.473   8.237 -1.6720 -0.0894 -1.1505
  672MOL0     H90719   7.149   6.550   8.313  1.2053  1.0142  0.4564
  672MOL0     H90720   7.244   6.439   8.408  2.0224  1.0489  0.7814
  673MOL0     O90721   6.090  10.327   5.207  0.3639 -1.1632 -0.0768
  673MOL0     C90722   6.032  10.305   5.312  0.6699  0.1121 -0.5915
  673MOL0     O90723   6.082  10.339   5.436  0.4678  0.7882  0.3954
  673MOL0     C90724   6.208  10.387   5.442  0.1648 -0.0227  0.6967
  673MOL0     C90725   6.311  10.299   5.425 -0.4010  0.9146 -0.1648
  673MOL0     C90726   6.446  10.324   5.449 -0.3276 -0.3614 -0.2614
  673MOL0     C90727   6.479  10.451   5.489 -0.4629  0.2351  0.1167
  673MOL0     O90728   6.607  10.490   5.520 -0.4662 -0.0255  0.0305
  673MOL0     C90729   6.714  10.388   5.512 -0.5303  0.1251  0.4254
  673MOL0     C90730   6.846  10.456   5.543  0.1014 -0.0673  0.7004
  673MOL0     C90731   6.963  10.355   5.523 -0.3945  0.4714  0.1941
  673MOL0     C90732   7.104  10.391   5.565  0.5744  0.5345 -0.5752
  673MOL0     C90733   7.127  10.402   5.714  0.0784 -0.0096  0.0027
  673MOL0     C90734   7.283  10.398   5.743  0.6315  0.5300 -0.5970
  673MOL0     C90735   7.311  10.358   5.890 -0.6338 -0.3447 -0.5917
  673MOL0     C90736   7.459  10.398   5.934  0.8788 -0.3843  0.4282
  673MOL0     N90737   7.575  10.373   5.841  0.0163  0.6048 -0.4774
  673MOL0     C90738   7.693  10.314   5.878 -0.1092  0.2563 -0.3152
  673MOL0     C90739   7.773  10.333   5.772 -0.5763  0.2019 -0.2206
  673MOL0     C90740   7.915  10.282   5.761  0.0802  0.1537 -0.8125
  673MOL0     C90741   7.923  10.132   5.773  0.0394  0.1486  0.2592
  673MOL0     C90742   8.065  10.094   5.774 -0.9573  1.1199 -0.5970
  673MOL0     C90743   8.135  10.104   5.908 -0.4141 -0.3597 -0.5628
  673MOL0     O90744   8.273  10.151   5.890 -0.0759 -0.1711 -0.0821
  673MOL0     C90745   8.365  10.046   5.870 -0.9604 -0.0243  0.1729
  673MOL0     C90746   8.341   9.913   5.839 -0.0551  0.3937  0.4635
  673MOL0     C90747   8.447   9.823   5.830  0.2614 -0.2087 -0.1499
  673MOL0     C90748   8.586   9.861   5.836  0.0877  0.7249  0.1251
  673MOL0     C90749   8.697   9.755   5.854  0.7285  0.1807 -0.5345
  673MOL0     O90750   8.811   9.792   5.915  0.4399  0.5225 -0.2790
  673MOL0     C90751   8.923   9.716   5.909 -0.0674  0.1748  0.3998
  673MOL0     C90752   9.009   9.718   6.021 -0.4807  0.1966 -0.0572
  673MOL0     C90753   9.126   9.641   6.017  0.6572  0.6095  0.3211
  673MOL0     C90754   9.166   9.567   5.903  0.4016  0.3000  0.6413
  673MOL0     O90755   9.268   9.476   5.920 -0.2553 -0.5460 -0.0114
  673MOL0     C90756   9.244   9.368   6.005  0.6539 -0.9908 -0.1918
  673MOL0     C90757   9.344   9.255   5.990 -0.4546  0.9631 -0.7726
  673MOL0     C90758   9.314   9.117   6.067  0.4443  0.1118 -0.5997
  673MOL0     C90759   9.355   9.110   6.216 -0.1684 -0.6590  0.0010
  673MOL0     C90760   9.304   8.987   6.290  0.2442  0.2899  0.1461
  673MOL0     C90761   9.387   8.869   6.292  0.0168  0.9034 -0.3995
  673MOL0     C90762   9.339   8.758   6.393  0.2672 -0.3281 -0.3298
  673MOL0     C90763   9.433   8.641   6.414  0.0258 -0.2113  0.4819
  673MOL0    Cl90764   9.352   8.504   6.495 -0.7093 -0.2968  0.0292
  673MOL0     C90765   9.080   9.578   5.793  0.2160 -0.1349  0.7789
  673MOL0     C90766   8.964   9.651   5.797 -0.1412 -0.6626  0.4129
  673MOL0     O90767   8.661   9.644   5.807  0.2066  0.8730 -0.0604
  673MOL0     C90768   8.613   9.994   5.856  0.5317 -0.4519 -0.0203
  673MOL0     C90769   8.501  10.084   5.882 -0.1833  0.4062  0.2852
  673MOL0     N90770   7.714  10.412   5.679  0.3524  0.2294  0.1253
  673MOL0     N90771   7.592  10.439   5.720 -0.2723  0.4943 -0.3184
  673MOL0     C90772   6.378  10.547   5.508  0.4078 -0.2212  0.4430
  673MOL0     C90773   6.241  10.509   5.493  0.4588 -0.3200 -0.1664
  673MOL0     C90774   5.885  10.263   5.310  0.2227 -0.6139 -0.1648
  673MOL0     C90775   5.842  10.198   5.424  1.1964  0.0067  0.0434
  673MOL0     C90776   5.708  10.174   5.442  0.2788 -0.8092 -0.2813
  673MOL0     C90777   5.612  10.195   5.350 -0.7241  0.9565 -0.4188
  673MOL0     O90778   5.473  10.168   5.358 -0.1094  0.3277 -0.2466
  673MOL0     C90779   5.418  10.088   5.473  0.0862 -0.5461  0.2860
  673MOL0     C90780   5.274  10.034   5.463  0.0359  1.6080  0.0076
  673MOL0     C90781   5.165  10.141   5.469 -0.5079  0.2962 -0.1454
  673MOL0     C90782   5.034  10.064   5.438  0.1734 -0.3441 -0.6623
  673MOL0     C90783   4.928  10.161   5.463 -0.6796 -0.6347  0.0405
  673MOL0     C90784   4.845  10.248   5.486  0.1452 -0.6217  0.8371
  673MOL0     C90785   5.654  10.260   5.228  0.3184  0.1371 -0.2159
  673MOL0     C90786   5.789  10.292   5.208  0.5970  0.0220  0.9787
  673MOL0     C90787   5.828  10.361   5.073 -1.3345  0.3342  0.4360
  673MOL0     H90788   6.292  10.199   5.385  3.2744  0.6142 -1.5755
  673MOL0     H90789   6.518  10.244   5.434  0.7903  0.8281 -1.4837
  673MOL0     H90790   6.703  10.311   5.589 -0.2749  3.8499  4.5664
  673MOL0     H90791   6.719  10.346   5.411  1.5608 -1.8968  1.2632
  673MOL0     H90792   6.839  10.487   5.648 -1.2216  0.7434  0.3988
  673MOL0     H90793   6.848  10.546   5.481 -2.4580 -0.5525 -0.2139
  673MOL0     H90794   6.964  10.330   5.417  1.6432 -0.3455  0.3521
  673MOL0     H90795   6.945  10.267   5.584  0.0498 -0.8278 -1.4677
  673MOL0     H90796   7.170  10.320   5.515  0.3449  1.2451 -1.9504
  673MOL0     H90797   7.125  10.485   5.514  0.9861 -0.1966 -1.7946
  673MOL0     H90798   7.076  10.491   5.754 -1.1663 -0.3063 -0.8573
  673MOL0     H90799   7.093  10.310   5.760 -0.9134 -1.7548 -3.7998
  673MOL0     H90800   7.337  10.329   5.678  0.2249  0.5493 -0.9581
  673MOL0     H90801   7.311  10.502   5.724  0.3436  0.6040 -0.6362
  673MOL0     H90802   7.290  10.253   5.912  1.3163 -1.0533 -1.7784
  673MOL0     H90803   7.253  10.429   5.949  1.3168  2.6428 -2.0115
  673MOL0     H90804   7.454  10.507   5.933  1.9915 -0.2938  1.5550
  673MOL0     H90805   7.481  10.363   6.036 -0.5678 -2.2562  0.1499
  673MOL0     H90806   7.721  10.269   5.972 -0.5489 -1.9100 -1.1299
  673MOL0     H90807   7.950  10.327   5.667  2.0787  1.3136  0.4013
  673MOL0     H90808   7.972  10.316   5.848 -0.4133 -1.4217  0.1601
  673MOL0     H90809   7.876  10.105   5.868  1.4370  1.6141  1.4159
  673MOL0     H90810   7.879  10.082   5.686  3.3251 -0.6678 -1.0672
  673MOL0     H90811   8.118  10.169   5.715  0.6000  1.7288  1.4277
  673MOL0     H90812   8.081   9.995   5.729 -1.0251  2.1637 -3.0621
  673MOL0     H90813   8.136  10.007   5.959 -0.0957 -1.3758 -2.4211
  673MOL0     H90814   8.090  10.172   5.981  1.7922 -0.2346  0.7832
  673MOL0     H90815   8.242   9.870   5.823  1.0398 -2.2291  0.1649
  673MOL0     H90816   8.424   9.720   5.807 -1.9704  0.1562  0.2109
  673MOL0     H90817   8.980   9.778   6.107 -1.7257  0.5500 -0.7061
  673MOL0     H90818   9.183   9.639   6.109  0.1410  0.9987  0.6514
  673MOL0     H90819   9.258   9.405   6.107 -0.4080 -0.9728 -0.0478
  673MOL0     H90820   9.142   9.335   5.987  0.0234  0.7774 -0.0323
  673MOL0     H90821   9.358   9.228   5.885 -1.2664 -0.2150 -0.6011
  673MOL0     H90822   9.446   9.282   6.019 -1.0569  3.7947 -0.9883
  673MOL0     H90823   9.206   9.098   6.063  0.4267  0.3786 -3.7116
  673MOL0     H90824   9.357   9.035   6.009  0.7305  0.3804 -0.7670
  673MOL0     H90825   9.325   9.200   6.271 -0.9876 -0.4338 -0.7782
  673MOL0     H90826   9.464   9.105   6.221 -0.2229 -1.2065  0.7148
  673MOL0     H90827   9.208   8.956   6.248 -0.4644  1.4576  0.8499
  673MOL0     H90828   9.279   9.008   6.394 -3.2851  0.0064 -0.5181
  673MOL0     H90829   9.391   8.814   6.198 -1.2390 -0.1746  0.1479
  673MOL0     H90830   9.489   8.889   6.325  0.2741 -1.3210  0.3152
  673MOL0     H90831   9.244   8.721   6.354 -1.5810  2.3213  1.3099
  673MOL0     H90832   9.318   8.813   6.486  2.2857  1.1470 -0.6750
  673MOL0     H90833   9.459   8.593   6.318 -2.4684  0.2907 -0.5244
  673MOL0     H90834   9.525   8.666   6.467  0.1347  2.1171 -0.6874
  673MOL0     H90835   9.100   9.532   5.697  1.6739 -2.0536  1.9205
  673MOL0     H90836   8.911   9.675   5.705  2.2234 -0.7161 -1.0552
  673MOL0     H90837   8.717  10.021   5.872  1.8834 -4.1439 -1.5848
  673MOL0     H90838   8.524  10.189   5.898 -0.1868  0.2735  1.1781
  673MOL0     H90839   6.403  10.637   5.563 -0.3638 -0.1611  0.7111
  673MOL0     H90840   6.160  10.570   5.530  0.5690 -0.0997 -0.2883
  673MOL0     H90841   5.918  10.177   5.499  2.7461  0.3740 -1.3702
  673MOL0     H90842   5.677  10.121   5.532  0.5691 -0.1326  0.2208
  673MOL0     H90843   5.409  10.161   5.554 -2.9394 -0.1629 -0.3027
  673MOL0     H90844   5.490  10.006   5.479 -1.1227 -1.6353  0.2557
  673MOL0     H90845   5.263   9.971   5.552  1.9814 -2.1473 -2.1797
  673MOL0     H90846   5.260   9.974   5.373 -2.1620  2.7171 -0.4664
  673MOL0     H90847   5.192  10.222   5.400  0.3712  0.8137  0.7747
  673MOL0     H90848   5.161  10.188   5.567 -0.1702 -0.6356  0.3261
  673MOL0     H90849   5.038  10.008   5.344  1.2636 -2.8051  0.7474
  673MOL0     H90850   5.019   9.980   5.506 -2.0965 -1.0046 -1.8961
  673MOL0     H90851   4.774  10.328   5.492 -0.7031 -1.0310 -2.0156
  673MOL0     H90852   5.581  10.277   5.150 -3.2306 -1.3226  2.4715
  673MOL0     H90853   5.742  10.354   5.005 -2.1494 -1.9703  1.5908
  673MOL0     H90854   5.853  10.465   5.096 -1.2395  0.4874 -0.3380
  673MOL0     H90855   5.913  10.319   5.018  1.0104  5.3977 -0.4110
  674MOL0     O90856   9.126   9.347   8.775 -0.2512 -0.8099 -0.1733
  674MOL0     C90857   9.061   9.279   8.695 -0.7695 -0.0195 -0.4828
  674MOL0     O90858   9.116   9.194   8.584  0.9705 -0.4965 -0.2013
  674MOL0     C90859   9.243   9.226   8.547  0.6945  0.8924  0.1961
  674MOL0     C90860   9.350   9.193   8.636 -0.7389 -0.6016 -0.2352
  674MOL0     C90861   9.480   9.218   8.601 -0.2224  0.8762  0.4166
  674MOL0     C90862   9.510   9.255   8.473  0.4154  0.3196  0.1401
  674MOL0     O90863   9.641   9.290   8.424  0.2125 -0.3873  0.6318
  674MOL0     C90864   9.646   9.428   8.367 -0.1492  0.2802 -0.1081
  674MOL0     C90865   9.731   9.529   8.449 -0.2002  0.1055  0.7906
  674MOL0     C90866   9.882   9.493   8.446 -0.1953  0.0492 -0.1208
  674MOL0     C90867   9.968   9.597   8.527 -0.5932 -0.5404  0.2367
  674MOL0     C90868  10.115   9.548   8.545  0.3647 -0.5322 -0.3091
  674MOL0     C90869  10.144   9.425   8.628  0.4335  0.4805  0.3098
  674MOL0     C90870  10.298   9.396   8.621 -1.1561  0.7350 -0.4767
  674MOL0     C90871  10.385   9.493   8.700 -0.1381  0.1181  0.1101
  674MOL0     N90872  10.532   9.475   8.707 -1.0512  0.6680  0.0625
  674MOL0     C90873  10.598   9.354   8.669 -0.2321  0.7104 -0.3964
  674MOL0     C90874  10.729   9.395   8.676 -0.3932  0.3900  0.0947
  674MOL0     C90875  10.842   9.308   8.640 -0.0548  0.0104  0.1676
  674MOL0     C90876  10.877   9.221   8.764 -0.2691  0.1645 -0.2290
  674MOL0     C90877  10.980   9.121   8.728  0.0658  0.4525  0.4297
  674MOL0     C90878  11.126   9.166   8.721 -1.4188  0.0522  0.3471
  674MOL0     O90879  11.209   9.058   8.674  0.4716  1.0620  0.0279
  674MOL0     C90880  11.346   9.075   8.655 -0.1185  0.2017 -1.0607
  674MOL0     C90881  11.424   9.158   8.735  0.1166 -0.4935 -0.1740
  674MOL0     C90882  11.559   9.161   8.725 -0.2380  0.2529  0.0169
  674MOL0     C90883  11.627   9.070   8.637 -0.8003  0.7350 -0.2648
  674MOL0     C90884  11.774   9.076   8.621 -0.7347  0.2461  0.7487
  674MOL0     O90885  11.830   8.955   8.582 -0.2355 -0.1111  0.2053
  674MOL0     C90886  11.966   8.957   8.569 -0.0654 -0.0693 -0.7106
  674MOL0     C90887  12.035   9.036   8.476  0.9328  0.1425  0.3252
  674MOL0     C90888  12.177   9.030   8.455  0.1407 -0.2317 -0.4463
  674MOL0     C90889  12.251   8.940   8.528  0.4890  0.3129  0.5417
  674MOL0     O90890  12.387   8.933   8.506 -0.3478  0.4482  0.2106
  674MOL0     C90891  12.474   8.860   8.603 -0.8394  0.4876  0.4972
  674MOL0     C90892  12.620   8.888   8.558  0.0799  0.5288  0.4862
  674MOL0     C90893  12.665   8.799   8.442  0.0141 -0.3327  0.3494
  674MOL0     C90894  12.806   8.824   8.398  0.4066  0.3687 -0.5865
  674MOL0     C90895  12.843   8.727   8.289  0.3649  0.5155  0.3486
  674MOL0     C90896  12.866   8.580   8.332  0.2585 -0.5033  0.5211
  674MOL0     C90897  12.910   8.493   8.212 -0.0425  0.7345  0.1136
  674MOL0     C90898  13.025   8.536   8.128  0.3946  0.1466 -1.1236
  674MOL0    Cl90899  12.975   8.647   7.999  0.1632 -0.4234  0.1651
  674MOL0     C90900  12.188   8.859   8.623  0.2523  0.0856 -0.2661
  674MOL0     C90901  12.048   8.865   8.641 -0.5024  0.5006 -0.3668
  674MOL0     O90902  11.842   9.174   8.645 -0.3607 -0.4456 -0.7567
  674MOL0     C90903  11.543   9.003   8.540 -0.3139 -0.5316 -0.3577
  674MOL0     C90904  11.404   9.001   8.555  0.3588  0.2703  0.3771
  674MOL0     N90905  10.725   9.531   8.715 -0.3845 -0.6782  0.3927
  674MOL0     N90906  10.612   9.577   8.741 -0.3607 -0.0501 -0.7145
  674MOL0     C90907   9.403   9.263   8.381 -0.0568 -0.2184 -0.0577
  674MOL0     C90908   9.269   9.244   8.412 -0.3985 -0.1774 -0.1649
  674MOL0     C90909   8.912   9.273   8.705 -0.4239 -0.0255 -0.0260
  674MOL0     C90910   8.845   9.196   8.615  0.1445  0.4751  0.1463
  674MOL0     C90911   8.705   9.190   8.622 -1.1778  0.5843 -0.1913
  674MOL0     C90912   8.638   9.254   8.725  0.5377 -0.9109  0.5781
  674MOL0     O90913   8.500   9.254   8.750 -0.4886  0.8047  0.1484
  674MOL0     C90914   8.418   9.180   8.653  0.8068  0.6140  0.5055
  674MOL0     C90915   8.269   9.189   8.695 -0.1259  1.1150 -0.1230
  674MOL0     C90916   8.170   9.123   8.601  0.0866  0.1077 -0.3774
  674MOL0     C90917   8.023   9.164   8.641  0.0915  0.3626  0.2768
  674MOL0     C90918   7.988   9.301   8.598 -0.7729 -0.0337 -0.5442
  674MOL0     C90919   7.966   9.417   8.574 -0.4211 -0.4868  0.3400
  674MOL0     C90920   8.708   9.332   8.809 -0.1730  1.4635 -0.6021
  674MOL0     C90921   8.846   9.347   8.805 -0.7824 -0.5217  0.6846
  674MOL0     C90922   8.904   9.441   8.906  0.9734  0.2881 -0.6750
  674MOL0     H90923   9.322   9.175   8.739 -5.0324  3.0598 -0.4889
  674MOL0     H90924   9.555   9.185   8.673 -1.7426 -1.0372  1.2386
  674MOL0     H90925   9.692   9.408   8.270 -0.5891 -0.3192 -0.1995
  674MOL0     H90926   9.549   9.478   8.354 -0.3384  0.4074  1.6297
  674MOL0     H90927   9.696   9.522   8.553 -2.2819 -2.1666  0.0411
  674MOL0     H90928   9.726   9.632   8.413 -2.2373 -0.5931 -1.1662
  674MOL0     H90929   9.908   9.499   8.340 -3.1893  0.6667 -0.9057
  674MOL0     H90930   9.906   9.387   8.461 -0.0596 -0.7230 -4.3825
  674MOL0     H90931   9.978   9.697   8.485 -0.7823 -0.1018  1.2040
  674MOL0     H90932   9.923   9.605   8.626  0.0590 -0.4286  0.5318
  674MOL0     H90933  10.152   9.531   8.443 -2.6534 -2.6675 -1.1998
  674MOL0     H90934  10.173   9.630   8.588 -0.7983 -0.7674  1.8380
  674MOL0     H90935  10.113   9.444   8.731 -2.4339  0.1440 -0.4113
  674MOL0     H90936  10.095   9.335   8.591  3.3436  0.0768 -3.0598
  674MOL0     H90937  10.335   9.381   8.519  0.1266 -0.2748  0.1009
  674MOL0     H90938  10.316   9.293   8.654 -0.8031 -0.1256 -3.1101
  674MOL0     H90939  10.358   9.596   8.674 -4.0357 -0.7466  0.1882
  674MOL0     H90940  10.347   9.479   8.802 -0.2014 -0.0611  0.0627
  674MOL0     H90941  10.561   9.257   8.638 -1.2605  1.1315 -0.5336
  674MOL0     H90942  10.817   9.263   8.544  1.7760  2.2133 -1.4437
  674MOL0     H90943  10.922   9.379   8.615  0.1112  0.2243  1.2556
  674MOL0     H90944  10.905   9.284   8.849  0.8871  2.9317 -2.4649
  674MOL0     H90945  10.789   9.161   8.787 -0.1674  0.4599  0.9634
  674MOL0     H90946  10.949   9.083   8.631 -1.1386  0.9911  0.5871
  674MOL0     H90947  10.978   9.038   8.799  1.9297 -2.3590 -2.5036
  674MOL0     H90948  11.168   9.206   8.814 -0.7837 -2.5522  1.2626
  674MOL0     H90949  11.133   9.237   8.639 -3.3763 -0.1404 -0.0425
  674MOL0     H90950  11.380   9.219   8.813 -1.7975  1.7280 -2.8184
  674MOL0     H90951  11.611   9.240   8.778 -1.2622  0.7455  0.3161
  674MOL0     H90952  11.974   9.100   8.413  2.0319  0.0299 -0.8909
  674MOL0     H90953  12.235   9.092   8.387  0.7961  0.1942  0.4712
  674MOL0     H90954  12.458   8.905   8.702  1.1586  1.0980  0.5929
  674MOL0     H90955  12.451   8.753   8.601 -0.0361  0.2873  1.2502
  674MOL0     H90956  12.633   8.994   8.537  2.0961  0.6003  1.8334
  674MOL0     H90957  12.678   8.865   8.647  0.0564 -0.3437  0.2835
  674MOL0     H90958  12.641   8.695   8.467 -2.4700  0.4186  1.4609
  674MOL0     H90959  12.601   8.825   8.356 -0.1177 -1.3075  0.1324
  674MOL0     H90960  12.870   8.808   8.485  2.5017  2.3507 -1.6492
  674MOL0     H90961  12.808   8.926   8.358  0.6710  0.5658 -0.0891
  674MOL0     H90962  12.936   8.753   8.238  1.1660 -2.5633  0.0690
  674MOL0     H90963  12.755   8.721   8.223  0.4539  0.2128  0.2575
  674MOL0     H90964  12.938   8.568   8.414 -0.7561 -0.5813  1.4091
  674MOL0     H90965  12.774   8.542   8.376 -0.2344  2.6526  2.5877
  674MOL0     H90966  12.826   8.472   8.145  2.0769 -1.2592 -2.0760
  674MOL0     H90967  12.941   8.398   8.257 -0.8144  0.2876 -0.2661
  674MOL0     H90968  13.085   8.599   8.194  2.7473 -1.3720 -1.7011
  674MOL0     H90969  13.077   8.447   8.092  0.6452 -0.7730  1.2843
  674MOL0     H90970  12.247   8.778   8.663  0.2235 -0.8425 -1.9807
  674MOL0     H90971  11.996   8.792   8.703  1.9180 -0.2182  0.9238
  674MOL0     H90972  11.594   8.945   8.464  1.5901  1.0595 -0.3764
  674MOL0     H90973  11.344   8.952   8.480 -0.3159  1.7854 -0.1030
  674MOL0     H90974   9.424   9.303   8.282  0.2360 -0.7366 -0.2064
  674MOL0     H90975   9.179   9.234   8.353  0.1045  1.1292 -1.2112
  674MOL0     H90976   8.897   9.140   8.537  1.0124  3.5491 -1.6569
  674MOL0     H90977   8.644   9.144   8.545  1.7098 -0.2288 -2.1581
  674MOL0     H90978   8.452   9.077   8.638  0.2815  0.4356  0.4894
  674MOL0     H90979   8.416   9.228   8.555  1.0512  0.0993  0.2440
  674MOL0     H90980   8.235   9.292   8.709 -1.6787  0.6581 -0.3696
  674MOL0     H90981   8.269   9.138   8.792 -2.7896  1.5825  0.1910
  674MOL0     H90982   8.183   9.014   8.593  1.1251  0.2913 -1.3514
  674MOL0     H90983   8.193   9.169   8.504  1.9756  0.0847  0.0173
  674MOL0     H90984   7.954   9.085   8.614 -1.6666  1.6088  0.9247
  674MOL0     H90985   8.021   9.157   8.750 -1.6270 -4.1519  0.1472
  674MOL0     H90986   7.943   9.519   8.550  1.6088  0.3445  1.7099
  674MOL0     H90987   8.657   9.383   8.889  0.4419  0.0591  0.7476
  674MOL0     H90988   8.837   9.485   8.980  1.1531  0.1420 -0.4192
  674MOL0     H90989   8.973   9.375   8.960 -0.9128 -0.6504  0.6860
  674MOL0     H90990   8.950   9.527   8.857 -0.5288  2.0999  0.9504
  675MOL0     O90991   0.881   9.856   6.553 -0.2378 -0.1899 -0.1028
  675MOL0     C90992   0.779   9.794   6.523  0.7321  0.1229 -0.4325
  675MOL0     O90993   0.775   9.681   6.444 -0.4256  0.5494 -0.2876
  675MOL0     C90994   0.883   9.634   6.370 -1.4372 -0.7608 -0.4390
  675MOL0     C90995   0.937   9.511   6.396  0.3983 -0.3229 -0.4581
  675MOL0     C90996   1.048   9.464   6.326 -0.2737 -0.1156  0.7362
  675MOL0     C90997   1.105   9.542   6.214  0.3378  0.6745  0.3680
  675MOL0     O90998   1.213   9.494   6.135  0.0274 -0.0086  0.2222
  675MOL0     C90999   1.272   9.370   6.181 -0.9798 -0.1286  0.1897
  675MOL0     C91000   1.390   9.328   6.089  0.3562  0.8357  0.1266
  675MOL0     C91001   1.447   9.201   6.139 -0.2311 -0.0093 -0.1240
  675MOL0     C91002   1.596   9.190   6.111 -0.6449 -0.1117  0.1439
  675MOL0     C91003   1.659   9.055   6.121 -0.4544  0.0920 -0.1529
  675MOL0     C91004   1.691   9.009   6.260  0.0716 -0.1742 -0.7901
  675MOL0     C91005   1.778   8.887   6.271 -0.0646  0.3174  0.3079
  675MOL0     C91006   1.818   8.845   6.412  0.2551 -0.1281  0.4107
  675MOL0     N91007   1.913   8.737   6.418 -0.8999  0.0963 -0.0969
  675MOL0     C91008   2.042   8.732   6.362  0.1091  0.0562 -0.1555
  675MOL0     C91009   2.088   8.605   6.391 -0.2550  0.5219  0.1687
  675MOL0     C91010   2.224   8.548   6.348  0.5527 -0.0830  0.3479
  675MOL0     C91011   2.299   8.476   6.462 -0.9571 -0.3777  0.4196
  675MOL0     C91012   2.291   8.322   6.441  0.9116 -0.9733  0.3181
  675MOL0     C91013   2.409   8.263   6.512 -1.2310  0.0465 -0.7756
  675MOL0     O91014   2.524   8.278   6.436 -0.1458 -0.3443  0.9261
  675MOL0     C91015   2.641   8.237   6.481 -0.3092  0.1775  0.0721
  675MOL0     C91016   2.745   8.260   6.396 -0.7795  0.8629 -0.5795
  675MOL0     C91017   2.873   8.224   6.442 -0.2313  0.8674 -0.3761
  675MOL0     C91018   2.896   8.150   6.566 -0.4391  0.4352 -0.2170
  675MOL0     C91019   3.033   8.112   6.609 -0.1145  0.5120 -0.2704
  675MOL0     O91020   3.132   8.112   6.517  0.8086  0.1019  0.1473
  675MOL0     C91021   3.261   8.076   6.534 -0.2039  0.5685 -0.7779
  675MOL0     C91022   3.329   8.025   6.650 -0.4061  0.1570  0.4715
  675MOL0     C91023   3.461   8.003   6.651 -0.3769 -1.2191  0.5693
  675MOL0     C91024   3.547   8.046   6.549 -0.2309 -0.3905  0.3295
  675MOL0     O91025   3.684   8.038   6.552 -0.2257  0.6036  0.0028
  675MOL0     C91026   3.764   8.071   6.665 -0.5966 -0.1564  0.2655
  675MOL0     C91027   3.861   8.188   6.623 -0.4869  0.4800 -0.1590
  675MOL0     C91028   3.958   8.242   6.733 -0.5987  0.1045  0.0192
  675MOL0     C91029   4.082   8.314   6.663 -0.3985 -0.0327 -0.3346
  675MOL0     C91030   4.161   8.402   6.770  1.2650  0.3471 -0.7430
  675MOL0     C91031   4.282   8.446   6.709  0.1104 -0.2350  0.0825
  675MOL0     C91032   4.346   8.562   6.796  0.5377  0.2061  0.0994
  675MOL0     C91033   4.488   8.586   6.754 -0.1612  0.1273 -0.7945
  675MOL0    Cl91034   4.512   8.641   6.589  0.0838 -0.6125 -0.0272
  675MOL0     C91035   3.478   8.099   6.440  0.2161  0.4659 -0.7568
  675MOL0     C91036   3.343   8.105   6.426  0.8623 -0.3014  0.3781
  675MOL0     O91037   3.049   8.079   6.728 -0.3231  0.3940  0.3644
  675MOL0     C91038   2.785   8.130   6.652  0.4241  0.5083  0.4009
  675MOL0     C91039   2.660   8.165   6.607  0.4104 -0.6460  0.0932
  675MOL0     N91040   1.981   8.532   6.453 -0.2628  0.3663 -0.2567
  675MOL0     N91041   1.878   8.612   6.466 -0.3048  0.2372  0.0463
  675MOL0     C91042   1.040   9.669   6.191  0.4862 -0.1543 -0.8122
  675MOL0     C91043   0.940   9.718   6.271 -0.3737 -0.4907  0.1677
  675MOL0     C91044   0.649   9.834   6.582 -0.0426  0.0821 -0.0047
  675MOL0     C91045   0.539   9.747   6.570 -0.4345 -0.6847  0.1662
  675MOL0     C91046   0.419   9.783   6.627  0.7694 -0.0162  0.1347
  675MOL0     C91047   0.389   9.908   6.684 -0.5820 -0.2303  0.4685
  675MOL0     O91048   0.262   9.940   6.718  0.3363  0.3145  0.0694
  675MOL0     C91049   0.224  10.082   6.739 -1.0446 -0.8922 -0.4074
  675MOL0     C91050   0.075  10.093   6.763  0.1216 -0.3968 -0.0342
  675MOL0     C91051   0.012   9.995   6.864 -0.6488 -0.7756 -0.2013
  675MOL0     C91052  -0.137   9.996   6.854  0.3605  0.1996  0.5620
  675MOL0     C91053  -0.206  10.108   6.914  0.7747  0.1749  0.3201
  675MOL0     C91054  -0.270  10.206   6.953  0.5283 -0.0450  0.1053
  675MOL0     C91055   0.497   9.995   6.687 -0.1074 -0.4628  0.8302
  675MOL0     C91056   0.626   9.957   6.644 -0.3874 -0.2255  0.4888
  675MOL0     C91057   0.725  10.067   6.648  0.2457  0.1497 -0.0668
  675MOL0     H91058   0.902   9.445   6.474 -1.1028  1.6956  0.6712
  675MOL0     H91059   1.090   9.366   6.347  2.8009 -0.2918 -4.5459
  675MOL0     H91060   1.318   9.380   6.279 -0.9621  0.4886  0.1200
  675MOL0     H91061   1.197   9.291   6.190 -1.2680  0.1680  0.4259
  675MOL0     H91062   1.471   9.401   6.082 -0.1297  1.3292 -0.4739
  675MOL0     H91063   1.353   9.317   5.987 -0.9444 -2.7678  0.8666
  675MOL0     H91064   1.384   9.127   6.089  0.0897 -0.1789 -0.2771
  675MOL0     H91065   1.430   9.188   6.246  1.1387  0.3971  0.1500
  675MOL0     H91066   1.612   9.222   6.008 -0.7835 -1.2558 -0.2429
  675MOL0     H91067   1.649   9.261   6.176  0.2211 -1.4532  0.9548
  675MOL0     H91068   1.591   8.982   6.078 -0.9804 -1.1324  2.5418
  675MOL0     H91069   1.751   9.057   6.062 -0.8648 -0.5020 -0.8332
  675MOL0     H91070   1.740   9.092   6.313 -0.7894 -0.0862 -0.1026
  675MOL0     H91071   1.597   8.992   6.313  1.3809 -0.0722  1.7548
  675MOL0     H91072   1.864   8.895   6.204 -0.0716  0.1198  0.2761
  675MOL0     H91073   1.712   8.809   6.231  1.4021 -0.7613 -0.0832
  675MOL0     H91074   1.859   8.933   6.462 -0.3720  0.3822  0.0344
  675MOL0     H91075   1.722   8.816   6.455 -1.5623 -0.1307 -3.2928
  675MOL0     H91076   2.091   8.816   6.314 -1.0234  0.3066 -0.9005
  675MOL0     H91077   2.215   8.490   6.256 -1.0999  3.4326 -1.9512
  675MOL0     H91078   2.292   8.624   6.308  0.1560  1.0340  1.7076
  675MOL0     H91079   2.400   8.517   6.453 -1.8329  1.4655 -1.6737
  675MOL0     H91080   2.280   8.508   6.565  1.4343  1.0304  0.4886
  675MOL0     H91081   2.289   8.295   6.335  1.3166  1.0299 -0.2408
  675MOL0     H91082   2.199   8.284   6.485  0.4349 -0.2674 -0.0567
  675MOL0     H91083   2.408   8.155   6.529  2.3831  0.1545  1.0473
  675MOL0     H91084   2.419   8.326   6.601  0.9356 -0.5462 -0.5391
  675MOL0     H91085   2.736   8.312   6.301 -0.6745  1.0206 -0.5046
  675MOL0     H91086   2.956   8.255   6.380  0.4539  1.8547  0.9775
  675MOL0     H91087   3.280   7.990   6.741 -1.7487 -1.3876 -0.7887
  675MOL0     H91088   3.507   7.948   6.732  1.7307  0.1701  0.3811
  675MOL0     H91089   3.709   8.094   6.757 -1.1743  0.2534 -0.1719
  675MOL0     H91090   3.825   7.985   6.693 -0.5307 -1.8782 -4.2742
  675MOL0     H91091   3.929   8.161   6.541 -0.3148 -0.3342  0.2525
  675MOL0     H91092   3.801   8.275   6.593 -0.4205  0.6010  0.0585
  675MOL0     H91093   3.902   8.313   6.795 -0.1108  1.4068 -0.9852
  675MOL0     H91094   3.998   8.157   6.790 -0.5960  0.6164  0.7903
  675MOL0     H91095   4.044   8.382   6.587  1.9484  0.7831 -0.8694
  675MOL0     H91096   4.148   8.234   6.627 -0.9128 -0.1884 -0.9380
  675MOL0     H91097   4.183   8.343   6.859 -2.7836  0.3927  0.4882
  675MOL0     H91098   4.106   8.490   6.807 -0.1448 -0.7607 -0.1030
  675MOL0     H91099   4.344   8.356   6.697 -1.1316 -0.9162 -1.7073
  675MOL0     H91100   4.267   8.486   6.608  0.1079  2.4498  1.0646
  675MOL0     H91101   4.329   8.550   6.903  0.0958 -0.7354 -0.0654
  675MOL0     H91102   4.289   8.654   6.776 -0.2389 -0.7730 -2.5596
  675MOL0     H91103   4.536   8.660   6.819 -3.5223  0.0969  1.9578
  675MOL0     H91104   4.546   8.493   6.755  0.0366  0.2468  0.5175
  675MOL0     H91105   3.535   8.141   6.358  3.1604 -2.3397 -0.3432
  675MOL0     H91106   3.294   8.142   6.337  0.5569 -1.5515  0.0026
  675MOL0     H91107   2.798   8.080   6.747 -2.5627  2.5838  2.0671
  675MOL0     H91108   2.581   8.160   6.682 -1.9367  2.8736 -1.8516
  675MOL0     H91109   1.082   9.738   6.117 -1.0959  2.7516  0.8154
  675MOL0     H91110   0.905   9.820   6.253  0.5257 -0.3491 -0.9232
  675MOL0     H91111   0.547   9.658   6.509 -0.5052 -1.5623  1.4132
  675MOL0     H91112   0.335   9.714   6.620  1.1738 -0.7769  2.0627
  675MOL0     H91113   0.248  10.148   6.654  0.5579  0.0115  0.6834
  675MOL0     H91114   0.273  10.122   6.829 -0.8477 -0.8497 -0.5327
  675MOL0     H91115   0.041  10.079   6.660  0.3489  0.4480 -0.2315
  675MOL0     H91116   0.043  10.195   6.788  1.6595  0.6835 -2.1389
  675MOL0     H91117   0.038  10.033   6.963 -0.0564  1.3466 -1.1266
  675MOL0     H91118   0.060   9.896   6.863  4.5836  1.4519 -1.4894
  675MOL0     H91119  -0.155   9.989   6.746  2.2656  2.6276 -0.0032
  675MOL0     H91120  -0.175   9.908   6.908  0.4814 -0.4942 -0.4533
  675MOL0     H91121  -0.331  10.289   6.982  2.6344  0.9079  2.1407
  675MOL0     H91122   0.483  10.094   6.729 -0.6256  0.5244 -1.5169
  675MOL0     H91123   0.804  10.046   6.721 -0.2572  0.0577  0.4626
  675MOL0     H91124   0.765  10.085   6.548  0.4671 -1.2679 -0.2470
  675MOL0     H91125   0.677  10.160   6.680 -0.9407 -0.7730  0.9247
  676MOL0     O91126   4.367   5.318   4.475 -0.0744 -0.7796  0.4833
  676MOL0     C91127   4.379   5.249   4.573  0.4076  0.9548  0.0048
  676MOL0     O91128   4.488   5.227   4.637 -0.0790  0.8918  0.0294
  676MOL0     C91129   4.607   5.287   4.621 -0.5188  0.3989 -0.0152
  676MOL0     C91130   4.634   5.417   4.593 -0.9178 -0.1121  0.3279
  676MOL0     C91131   4.760   5.461   4.570  0.2028 -0.1598 -0.2029
  676MOL0     C91132   4.876   5.380   4.589  0.1893  0.2068  0.8623
  676MOL0     O91133   5.002   5.421   4.559  0.3822  0.4836  0.2690
  676MOL0     C91134   5.011   5.529   4.472  0.8670 -1.3388 -0.8133
  676MOL0     C91135   5.141   5.515   4.395 -0.7929  0.8282  0.0870
  676MOL0     C91136   5.274   5.531   4.477 -0.3115 -1.1975  0.0278
  676MOL0     C91137   5.401   5.516   4.392 -0.1960 -0.1613  0.6410
  676MOL0     C91138   5.541   5.560   4.441  0.7943  0.4088  0.7246
  676MOL0     C91139   5.588   5.521   4.578 -0.0940 -0.2447  0.0197
  676MOL0     C91140   5.731   5.529   4.616 -0.4527 -0.8461 -0.5183
  676MOL0     C91141   5.802   5.661   4.587 -0.9573  0.2611  0.2451
  676MOL0     N91142   5.932   5.669   4.659 -0.3987 -0.4712  0.1267
  676MOL0     C91143   6.041   5.597   4.620  0.5495  0.3314 -0.6703
  676MOL0     C91144   6.138   5.648   4.695 -0.0991 -0.0609 -1.5639
  676MOL0     C91145   6.287   5.598   4.713  0.4396  0.3593 -0.8392
  676MOL0     C91146   6.300   5.467   4.783 -0.2360 -1.1075  0.0415
  676MOL0     C91147   6.214   5.453   4.904 -0.0298  0.0840 -0.0597
  676MOL0     C91148   6.215   5.313   4.954  0.4416 -0.2598 -0.3732
  676MOL0     O91149   6.145   5.220   4.867 -0.0581  0.3339 -0.2286
  676MOL0     C91150   6.006   5.211   4.859 -0.5093  0.2804  0.5958
  676MOL0     C91151   5.932   5.306   4.923  1.1597 -0.6789  0.8470
  676MOL0     C91152   5.789   5.297   4.912 -0.3350 -0.2948  0.7577
  676MOL0     C91153   5.732   5.199   4.837  0.0326 -0.3464  0.4230
  676MOL0     C91154   5.590   5.199   4.817  0.1930  0.6613  0.0007
  676MOL0     O91155   5.517   5.316   4.837 -0.5046 -0.1605 -0.2123
  676MOL0     C91156   5.378   5.308   4.857  0.6168  0.5183 -0.2930
  676MOL0     C91157   5.315   5.198   4.928 -0.0270 -0.8682 -0.5183
  676MOL0     C91158   5.179   5.204   4.955  0.5539  0.2747  1.1490
  676MOL0     C91159   5.088   5.299   4.917 -0.7296  0.3984 -0.8237
  676MOL0     O91160   4.951   5.306   4.950 -0.2081  0.2348 -0.0126
  676MOL0     C91161   4.882   5.194   5.010 -0.2085 -0.3739 -0.1541
  676MOL0     C91162   4.736   5.235   5.035 -0.1700  0.2884  0.1192
  676MOL0     C91163   4.648   5.101   5.036 -0.1234 -0.3397 -0.1673
  676MOL0     C91164   4.508   5.142   5.094 -0.1805 -0.0496  0.0010
  676MOL0     C91165   4.404   5.034   5.049  0.4937 -0.7880  0.2872
  676MOL0     C91166   4.267   5.045   5.137 -0.0785 -0.1748  0.4445
  676MOL0     C91167   4.156   4.957   5.077  0.6477  0.3131  0.2697
  676MOL0     C91168   4.036   4.951   5.174 -0.3229  0.0591 -0.2561
  676MOL0    Cl91169   4.080   4.837   5.297  0.0955  0.4940  0.1093
  676MOL0     C91170   5.153   5.387   4.833  0.5179 -0.7885 -0.3667
  676MOL0     C91171   5.290   5.402   4.808 -0.5608 -0.6024 -0.1190
  676MOL0     O91172   5.536   5.100   4.765 -0.3038 -0.1727  0.0363
  676MOL0     C91173   5.816   5.109   4.768 -0.4712 -0.9792  0.6803
  676MOL0     C91174   5.951   5.117   4.777  1.0108  0.2115 -0.9145
  676MOL0     N91175   6.087   5.754   4.778  0.2441  0.2022 -0.4653
  676MOL0     N91176   5.966   5.763   4.753 -0.1939  0.2580  0.1547
  676MOL0     C91177   4.852   5.252   4.636 -0.0485 -0.3222  0.6636
  676MOL0     C91178   4.718   5.207   4.654  0.6322 -0.1981 -0.4956
  676MOL0     C91179   4.253   5.226   4.642 -0.2274  0.9034 -0.1062
  676MOL0     C91180   4.250   5.267   4.771 -0.3200 -0.9869  0.1738
  676MOL0     C91181   4.134   5.248   4.851 -0.3166  0.2471 -0.4416
  676MOL0     C91182   4.014   5.189   4.801 -1.2235 -0.2469  0.0117
  676MOL0     O91183   3.910   5.171   4.890 -0.0352 -0.2270  0.2684
  676MOL0     C91184   3.793   5.118   4.831 -0.2527  0.1093  0.7983
  676MOL0     C91185   3.682   5.125   4.940  0.1718  0.7150  0.7975
  676MOL0     C91186   3.554   5.053   4.895  0.5130  0.1096  0.1485
  676MOL0     C91187   3.442   5.150   4.899  0.0942 -0.4747  0.3806
  676MOL0     C91188   3.303   5.103   4.868  0.3343  0.9199  0.8102
  676MOL0     C91189   3.192   5.067   4.837 -0.1585 -0.0591  0.3681
  676MOL0     C91190   4.023   5.154   4.667 -0.3431 -0.3275  0.3748
  676MOL0     C91191   4.137   5.179   4.583 -0.2751  0.0396  0.1809
  676MOL0     C91192   4.124   5.166   4.435 -0.4121  0.4581  1.0837
  676MOL0     H91193   4.550   5.482   4.570 -0.1370  0.1242 -2.2478
  676MOL0     H91194   4.766   5.566   4.541 -3.3838  0.5086  1.0002
  676MOL0     H91195   4.940   5.532   4.388  0.0653 -0.9903 -0.1382
  676MOL0     H91196   5.006   5.625   4.525  1.6272 -1.8884  0.2927
  676MOL0     H91197   5.144   5.587   4.313 -0.5199  1.8238  0.9445
  676MOL0     H91198   5.141   5.411   4.360  1.9466 -1.1437  4.9253
  676MOL0     H91199   5.275   5.465   4.565  0.6511  2.3773  2.9760
  676MOL0     H91200   5.276   5.632   4.519 -2.1189 -0.3528 -1.7568
  676MOL0     H91201   5.407   5.414   4.353  1.0218  0.1948 -0.1902
  676MOL0     H91202   5.380   5.571   4.300 -1.3379 -0.9739  0.3979
  676MOL0     H91203   5.614   5.520   4.370 -0.4817  1.1205 -1.0612
  676MOL0     H91204   5.551   5.669   4.439  1.2105  0.3641 -0.3572
  676MOL0     H91205   5.512   5.563   4.644 -0.0047  0.3995 -0.2874
  676MOL0     H91206   5.561   5.415   4.589 -0.6406 -0.0193  0.9550
  676MOL0     H91207   5.783   5.451   4.558 -1.7300 -1.1162 -1.3425
  676MOL0     H91208   5.749   5.503   4.721 -2.5526 -3.5112 -0.6991
  676MOL0     H91209   5.814   5.663   4.479  1.6542 -1.1751  0.4139
  676MOL0     H91210   5.742   5.747   4.616  0.8798  0.2774  4.9720
  676MOL0     H91211   6.050   5.508   4.558  0.2265  0.2931 -0.6628
  676MOL0     H91212   6.331   5.580   4.614 -2.0644  1.2153 -2.2110
  676MOL0     H91213   6.340   5.685   4.754 -1.4913  3.1775 -3.7795
  676MOL0     H91214   6.274   5.385   4.715  1.2814  0.4917 -2.6086
  676MOL0     H91215   6.403   5.463   4.820 -0.2218 -0.4400  0.0732
  676MOL0     H91216   6.114   5.490   4.883 -0.0150  0.5224  0.6231
  676MOL0     H91217   6.260   5.516   4.981 -2.0806  1.0005  0.4695
  676MOL0     H91218   6.167   5.307   5.052  0.4503  0.5442 -0.3108
  676MOL0     H91219   6.319   5.287   4.976  0.0417  1.1082  4.1226
  676MOL0     H91220   5.965   5.394   4.977  1.9055 -0.8653  0.7113
  676MOL0     H91221   5.725   5.368   4.964 -0.3933 -0.5901  1.0885
  676MOL0     H91222   5.369   5.112   4.965 -2.1602 -1.7815  0.6336
  676MOL0     H91223   5.140   5.118   5.011 -1.3611  0.6837  0.5181
  676MOL0     H91224   4.886   5.110   4.940  2.7398 -0.0035 -0.5620
  676MOL0     H91225   4.938   5.155   5.096  1.0998 -0.0496 -0.8289
  676MOL0     H91226   4.723   5.290   5.128  2.0353 -0.4700  0.9399
  676MOL0     H91227   4.701   5.293   4.949  1.8212 -0.3239 -1.1831
  676MOL0     H91228   4.637   5.061   4.935  2.6606  1.2996 -1.2474
  676MOL0     H91229   4.690   5.025   5.103 -1.3053  0.6087  1.7374
  676MOL0     H91230   4.476   5.243   5.066  0.1367 -0.4215 -1.8487
  676MOL0     H91231   4.517   5.146   5.202 -0.4558  2.7497  0.0064
  676MOL0     H91232   4.442   4.932   5.052 -0.8763 -1.3768 -0.8498
  676MOL0     H91233   4.395   5.059   4.942  2.6689  1.3871  0.5297
  676MOL0     H91234   4.280   5.017   5.242 -0.9298 -1.1895  0.2900
  676MOL0     H91235   4.238   5.150   5.149  2.3284  0.7218 -0.9778
  676MOL0     H91236   4.186   4.854   5.058  0.1435 -0.1420  1.7991
  676MOL0     H91237   4.114   5.006   4.988 -1.1427  1.1739  1.5190
  676MOL0     H91238   4.024   5.045   5.228  2.4071 -0.3617  1.2586
  676MOL0     H91239   3.948   4.926   5.113 -0.7969  0.2663  0.3276
  676MOL0     H91240   5.091   5.462   4.786  0.2776 -1.3356 -0.9361
  676MOL0     H91241   5.334   5.485   4.754  0.3693 -0.4731  0.8011
  676MOL0     H91242   5.779   5.052   4.683  1.2167 -1.3465  0.1465
  676MOL0     H91243   6.017   5.049   4.724  1.5957 -1.0484  1.3049
  676MOL0     H91244   4.941   5.192   4.653  1.2664  0.8395 -1.6782
  676MOL0     H91245   4.689   5.106   4.680  0.7381 -0.1593 -0.2202
  676MOL0     H91246   4.340   5.305   4.818 -1.5641  2.5880  0.0147
  676MOL0     H91247   4.140   5.282   4.954  1.4488 -0.8855 -0.1330
  676MOL0     H91248   3.815   5.012   4.820 -0.8421  0.1814 -1.4444
  676MOL0     H91249   3.763   5.172   4.741  2.2712  0.9735  0.3907
  676MOL0     H91250   3.663   5.232   4.954 -3.1402  0.1163  1.8288
  676MOL0     H91251   3.728   5.075   5.026  0.4792  0.3783  0.4389
  676MOL0     H91252   3.524   4.978   4.970  1.0679  1.5091  1.8302
  676MOL0     H91253   3.574   5.009   4.797  0.4439  0.1221  0.1289
  676MOL0     H91254   3.443   5.196   4.998 -1.7324 -2.5646  1.4529
  676MOL0     H91255   3.472   5.225   4.825 -0.0872 -0.9546 -0.1884
  676MOL0     H91256   3.107   5.022   4.789  0.3744 -0.6781  0.0003
  676MOL0     H91257   3.945   5.105   4.609 -0.2655 -1.1722  0.9645
  676MOL0     H91258   4.135   5.262   4.384 -1.6177 -0.2721 -0.6488
  676MOL0     H91259   4.209   5.107   4.397 -0.0864  0.9789  0.9887
  676MOL0     H91260   4.039   5.108   4.399 -1.3210  1.4476  1.5992
  677MOL0     O91261   8.855   2.074   5.175  0.0473 -0.1306 -0.2617
  677MOL0     C91262   8.750   2.106   5.222 -0.3920 -0.3484 -0.2339
  677MOL0     O91263   8.740   2.212   5.323  0.3912  0.2017 -0.3648
  677MOL0     C91264   8.846   2.280   5.384 -0.1103 -0.0963  0.8064
  677MOL0     C91265   8.807   2.408   5.444  0.3543  0.2264  0.6720
  677MOL0     C91266   8.910   2.488   5.496 -0.0253 -0.9077  0.4839
  677MOL0     C91267   9.044   2.456   5.481 -1.4120  0.0584  0.7107
  677MOL0     O91268   9.132   2.553   5.513  0.2674 -0.3236 -0.4746
  677MOL0     C91269   9.273   2.543   5.472 -0.0673 -0.1786  0.3698
  677MOL0     C91270   9.357   2.657   5.518  0.0676  0.6509 -1.0450
  677MOL0     C91271   9.499   2.640   5.468  0.1835 -0.0657  0.1865
  677MOL0     C91272   9.513   2.714   5.331  0.3831  1.1455  1.2735
  677MOL0     C91273   9.662   2.706   5.279  0.1178  0.2669 -0.0187
  677MOL0     C91274   9.702   2.561   5.251 -0.5190  0.1139 -0.3567
  677MOL0     C91275   9.844   2.566   5.217  0.0777  0.4307  0.0709
  677MOL0     C91276   9.898   2.421   5.196  0.6016  1.3692  0.1973
  677MOL0     N91277  10.030   2.420   5.121  0.0779  0.1363 -0.0136
  677MOL0     C91278  10.141   2.494   5.162 -0.3974  0.7684 -0.3335
  677MOL0     C91279  10.234   2.463   5.071 -0.1713  0.4463 -0.5310
  677MOL0     C91280  10.373   2.505   5.073  0.5192  0.1245 -0.5988
  677MOL0     C91281  10.462   2.446   5.179  0.0260  0.3522 -0.5150
  677MOL0     C91282  10.603   2.477   5.129  0.1080  0.3864 -0.2825
  677MOL0     C91283  10.716   2.424   5.227  0.7708 -0.2740  0.8929
  677MOL0     O91284  10.822   2.503   5.189  0.7317  0.0132  0.7617
  677MOL0     C91285  10.948   2.475   5.236 -0.3109  0.0578 -0.4936
  677MOL0     C91286  10.989   2.358   5.298 -0.0019 -0.0162  0.1866
  677MOL0     C91287  11.125   2.340   5.343  0.1539  0.2133 -0.7503
  677MOL0     C91288  11.220   2.441   5.316 -0.0644 -0.3822  0.3551
  677MOL0     C91289  11.352   2.447   5.376 -0.5479  0.6944  0.1127
  677MOL0     O91290  11.442   2.544   5.334 -0.3732 -0.6331  0.4173
  677MOL0     C91291  11.564   2.552   5.404  0.4984  0.8071  0.1596
  677MOL0     C91292  11.568   2.591   5.538 -0.1280  0.4436  0.0634
  677MOL0     C91293  11.688   2.603   5.611  0.2572 -0.0456  0.6576
  677MOL0     C91294  11.811   2.589   5.542 -1.2998  0.0054 -0.3702
  677MOL0     O91295  11.931   2.572   5.608  0.1704  0.4869 -0.3139
  677MOL0     C91296  11.980   2.667   5.706 -0.1800 -0.0098  0.2371
  677MOL0     C91297  12.060   2.770   5.622 -0.4289 -0.0230 -0.3035
  677MOL0     C91298  12.135   2.869   5.706 -0.6049 -0.1631 -0.6130
  677MOL0     C91299  12.239   2.929   5.611 -0.0358 -0.7476  0.6704
  677MOL0     C91300  12.347   3.022   5.673  0.2473  0.2220 -0.4291
  677MOL0     C91301  12.453   3.070   5.581  0.5488  0.0970  0.5182
  677MOL0     C91302  12.540   2.966   5.508 -0.3519 -0.5966 -1.2574
  677MOL0     C91303  12.693   2.992   5.509 -1.0428  0.3962  0.5044
  677MOL0    Cl91304  12.759   2.966   5.674 -0.1839 -0.1235  0.0699
  677MOL0     C91305  11.803   2.547   5.414 -0.4690 -0.2710  0.3397
  677MOL0     C91306  11.688   2.530   5.336  0.3300  0.3034 -0.0515
  677MOL0     O91307  11.366   2.377   5.474 -0.0064  0.4015 -0.7679
  677MOL0     C91308  11.177   2.549   5.233  0.3629 -0.1878 -0.3327
  677MOL0     C91309  11.041   2.558   5.195 -0.5646  0.6098  0.1276
  677MOL0     N91310  10.186   2.360   4.984 -0.3675 -0.2027  0.0724
  677MOL0     N91311  10.057   2.342   5.013 -0.1536 -0.6260  0.0627
  677MOL0     C91312   9.084   2.331   5.418 -0.2636  0.4422  0.6211
  677MOL0     C91313   8.986   2.241   5.377  0.4261  0.2944 -0.6874
  677MOL0     C91314   8.620   2.057   5.162 -0.0443 -0.1014  0.0233
  677MOL0     C91315   8.632   1.960   5.064  0.3121  0.4805 -0.3153
  677MOL0     C91316   8.515   1.890   5.021 -0.6498  0.1988  0.3224
  677MOL0     C91317   8.389   1.931   5.050  0.0372 -0.2527 -0.7455
  677MOL0     O91318   8.290   1.870   4.979 -0.0965  0.7701 -0.4149
  677MOL0     C91319   8.149   1.882   5.003 -0.0479  0.8365 -1.0699
  677MOL0     C91320   8.094   1.750   4.949  0.5615 -0.1615 -0.3338
  677MOL0     C91321   8.154   1.631   5.031  0.2460 -0.8508 -0.2427
  677MOL0     C91322   8.146   1.499   4.948 -0.4634  0.2017  0.6781
  677MOL0     C91323   8.016   1.436   4.928  0.1347  0.1488  0.5286
  677MOL0     C91324   7.905   1.383   4.906 -0.2734 -0.8008  0.2416
  677MOL0     C91325   8.382   2.032   5.145  0.4194  0.7626 -0.0070
  677MOL0     C91326   8.490   2.099   5.203  0.4301  0.7424 -1.0369
  677MOL0     C91327   8.468   2.186   5.327 -0.1858  0.8799  0.0047
  677MOL0     H91328   8.703   2.438   5.458 -0.9359 -3.4854  0.3204
  677MOL0     H91329   8.880   2.581   5.542 -2.9405 -0.7025 -1.5862
  677MOL0     H91330   9.319   2.445   5.487 -0.9898 -0.7731 -0.5443
  677MOL0     H91331   9.258   2.548   5.364  0.3414 -1.3627  0.2396
  677MOL0     H91332   9.356   2.656   5.627  0.8725  0.8981 -1.0255
  677MOL0     H91333   9.310   2.753   5.495 -0.9208  0.6711  0.8983
  677MOL0     H91334   9.517   2.534   5.450  0.0686 -0.3629  1.7272
  677MOL0     H91335   9.575   2.686   5.532  0.2777  0.3236 -0.1993
  677MOL0     H91336   9.452   2.669   5.252 -1.3147 -0.4779  3.3521
  677MOL0     H91337   9.475   2.817   5.334  3.4840  2.7084 -3.3447
  677MOL0     H91338   9.676   2.768   5.190 -1.6556 -0.2817 -0.7158
  677MOL0     H91339   9.726   2.742   5.361 -1.7277  2.5527  0.5176
  677MOL0     H91340   9.693   2.504   5.344 -2.3293 -1.2866 -1.3507
  677MOL0     H91341   9.647   2.502   5.178  1.5994 -2.5917  0.0800
  677MOL0     H91342   9.904   2.611   5.296  2.1603  1.1145 -1.7923
  677MOL0     H91343   9.845   2.620   5.122  1.6124  2.1723  1.0011
  677MOL0     H91344   9.897   2.359   5.286  0.8153  1.7117  0.4408
  677MOL0     H91345   9.830   2.368   5.129  0.5118 -0.3222  1.5755
  677MOL0     H91346  10.147   2.554   5.252  2.7623  0.7116 -0.4149
  677MOL0     H91347  10.406   2.483   4.971 -3.4694  1.4030 -2.3568
  677MOL0     H91348  10.381   2.614   5.087  0.9589  0.1692 -1.1611
  677MOL0     H91349  10.439   2.489   5.276 -1.6578 -1.9866  0.2177
  677MOL0     H91350  10.444   2.338   5.179  2.3136 -0.1140  1.3407
  677MOL0     H91351  10.610   2.586   5.130  0.0076  0.3911  0.1521
  677MOL0     H91352  10.598   2.423   5.034 -0.2795 -0.2817  0.1096
  677MOL0     H91353  10.734   2.319   5.202 -1.2343 -0.3219 -0.5852
  677MOL0     H91354  10.684   2.452   5.328 -4.4212  1.8939 -1.0461
  677MOL0     H91355  10.919   2.280   5.328 -1.1736 -1.0170 -4.3781
  677MOL0     H91356  11.151   2.264   5.416 -0.0179  1.2921  0.4619
  677MOL0     H91357  11.476   2.597   5.596 -0.6722 -2.4034 -0.3500
  677MOL0     H91358  11.682   2.641   5.713  0.9872 -2.6198  1.7643
  677MOL0     H91359  11.898   2.719   5.757 -0.5388 -0.8958  0.5825
  677MOL0     H91360  12.045   2.605   5.769  0.6897  1.8432  1.2561
  677MOL0     H91361  12.130   2.712   5.562 -1.5711 -1.0538 -0.6723
  677MOL0     H91362  12.002   2.826   5.548  0.2595 -2.7174 -3.1002
  677MOL0     H91363  12.065   2.937   5.756  0.1665 -1.7390  2.9454
  677MOL0     H91364  12.188   2.830   5.794 -1.2822  1.8871  0.7799
  677MOL0     H91365  12.185   2.989   5.537 -0.7282 -1.0701  0.9010
  677MOL0     H91366  12.302   2.855   5.561 -0.4961  0.1304 -1.2917
  677MOL0     H91367  12.405   2.974   5.752  1.0048  1.2814 -0.3319
  677MOL0     H91368  12.295   3.106   5.721 -2.6777  0.3270 -3.3770
  677MOL0     H91369  12.409   3.135   5.504  0.1439 -1.0458 -0.2323
  677MOL0     H91370  12.506   3.148   5.637 -1.3490  0.5425  1.7582
  677MOL0     H91371  12.519   2.976   5.401  0.1578 -0.7221 -1.3762
  677MOL0     H91372  12.513   2.863   5.532  0.0539 -0.5919 -0.7544
  677MOL0     H91373  12.742   2.924   5.439 -3.2990 -0.5348 -0.2554
  677MOL0     H91374  12.727   3.093   5.485 -2.5365  0.8531  0.2028
  677MOL0     H91375  11.895   2.535   5.358  0.1434  0.0500  1.2551
  677MOL0     H91376  11.694   2.502   5.231  2.2656  0.9777 -0.1622
  677MOL0     H91377  11.235   2.637   5.209 -1.6377  0.7422 -2.1539
  677MOL0     H91378  11.020   2.640   5.126 -3.0084 -0.3730 -0.3944
  677MOL0     H91379   9.185   2.293   5.420 -0.3575 -0.0099 -1.1996
  677MOL0     H91380   9.011   2.147   5.330 -0.7957  0.1407 -1.0745
  677MOL0     H91381   8.734   1.933   5.037  1.5190  1.5994  2.7516
  677MOL0     H91382   8.519   1.809   4.949 -2.7621 -1.7240  2.2179
  677MOL0     H91383   8.121   1.971   4.945  0.9293  1.1514 -1.0658
  677MOL0     H91384   8.121   1.894   5.108 -1.3264 -1.3144 -1.1004
  677MOL0     H91385   8.129   1.741   4.846  2.2914  1.3589  0.0610
  677MOL0     H91386   7.985   1.750   4.954  0.5150 -1.7280 -0.9873
  677MOL0     H91387   8.094   1.614   5.121 -0.9511 -0.5597 -0.9649
  677MOL0     H91388   8.254   1.655   5.069  0.2416  0.9427 -1.2393
  677MOL0     H91389   8.192   1.519   4.851  0.2100  3.9637  1.5957
  677MOL0     H91390   8.207   1.425   5.000 -1.1808  0.3797  1.7905
  677MOL0     H91391   7.820   1.334   4.863 -0.1947 -0.7486  0.0253
  677MOL0     H91392   8.287   2.070   5.182 -0.0845 -1.3170  0.9789
  677MOL0     H91393   8.367   2.187   5.369  0.0547 -2.9177  1.0502
  677MOL0     H91394   8.537   2.161   5.409 -0.1276 -0.6998 -0.5019
  677MOL0     H91395   8.497   2.285   5.289  2.9702 -0.5192 -1.6225
  678MOL0     O91396   4.113   8.073   1.851  0.0539  0.0566 -0.3194
  678MOL0     C91397   4.086   8.052   1.735 -0.3707  0.7194 -0.3560
  678MOL0     O91398   4.167   7.986   1.647  0.4516  0.7381  0.0613
  678MOL0     C91399   4.281   7.932   1.704  0.3752 -0.8055  0.2106
  678MOL0     C91400   4.399   7.972   1.641 -0.4442 -0.1366  0.0678
  678MOL0     C91401   4.506   7.900   1.679 -0.4013 -0.0659  0.5528
  678MOL0     C91402   4.517   7.818   1.787 -0.9151 -1.1833  0.0307
  678MOL0     O91403   4.633   7.773   1.839  1.1747 -0.0496 -0.0878
  678MOL0     C91404   4.739   7.760   1.747  1.1475 -0.2930 -0.7166
  678MOL0     C91405   4.847   7.671   1.817  0.3655 -0.4830 -0.2528
  678MOL0     C91406   4.991   7.702   1.767  0.6037 -0.0156 -0.0017
  678MOL0     C91407   5.020   7.663   1.623 -0.5764  0.1595  0.0959
  678MOL0     C91408   5.166   7.674   1.575  0.5500 -0.4597 -0.1957
  678MOL0     C91409   5.260   7.582   1.652  0.3855 -0.1594  0.2462
  678MOL0     C91410   5.411   7.614   1.630 -0.0571  0.3503  0.7465
  678MOL0     C91411   5.507   7.581   1.748  0.4552  0.4803 -0.0528
  678MOL0     N91412   5.490   7.439   1.783 -0.9052 -0.2275  0.6847
  678MOL0     C91413   5.421   7.406   1.899  0.2620 -0.0857  0.8430
  678MOL0     C91414   5.370   7.282   1.880  0.3779  0.0684 -0.6050
  678MOL0     C91415   5.279   7.221   1.980  1.1282 -0.2772  0.2327
  678MOL0     C91416   5.138   7.283   1.960  0.4156 -0.6856  0.0782
  678MOL0     C91417   5.078   7.270   1.826 -0.3633  0.0397  0.7766
  678MOL0     C91418   4.928   7.309   1.825 -0.1385 -0.5752 -0.7139
  678MOL0     O91419   4.862   7.310   1.693  0.4066 -0.0060  0.4806
  678MOL0     C91420   4.731   7.336   1.698  0.3056 -0.3059 -0.2502
  678MOL0     C91421   4.666   7.385   1.582 -0.5169 -1.0638  0.6112
  678MOL0     C91422   4.534   7.421   1.573  0.0329  0.0805 -0.1261
  678MOL0     C91423   4.455   7.397   1.684 -0.5551  0.0846 -0.1710
  678MOL0     C91424   4.320   7.441   1.687 -0.1842 -0.3961  0.2173
  678MOL0     O91425   4.266   7.463   1.562 -0.2604  0.3036  0.1888
  678MOL0     C91426   4.133   7.491   1.569  0.5592 -0.3334  0.4136
  678MOL0     C91427   4.029   7.394   1.576 -0.2383 -0.4806 -0.2021
  678MOL0     C91428   3.897   7.430   1.571 -0.6536  0.6977 -0.3799
  678MOL0     C91429   3.847   7.561   1.567 -0.0298 -0.1572  0.3957
  678MOL0     O91430   3.713   7.593   1.568 -0.0976  0.3357  0.5405
  678MOL0     C91431   3.615   7.496   1.611  0.4694  1.0179  0.1417
  678MOL0     C91432   3.484   7.565   1.630  0.4050  0.2101  0.1700
  678MOL0     C91433   3.392   7.488   1.716  1.0308 -0.3391  0.2177
  678MOL0     C91434   3.251   7.478   1.664  0.0143  0.4888 -0.5519
  678MOL0     C91435   3.145   7.414   1.745 -0.4573 -0.0537  0.5943
  678MOL0     C91436   3.004   7.408   1.687  0.6255  0.2919  0.2921
  678MOL0     C91437   2.893   7.363   1.789 -0.7507  0.0514 -0.7072
  678MOL0     C91438   2.933   7.254   1.903 -0.3572  0.5710  0.7169
  678MOL0    Cl91439   2.790   7.230   1.996 -0.0529 -0.2367  0.2674
  678MOL0     C91440   3.945   7.658   1.558 -0.7981  0.7286 -0.8624
  678MOL0     C91441   4.083   7.624   1.564  0.4026 -0.1293  1.2632
  678MOL0     O91442   4.263   7.466   1.797 -0.1501 -0.7175  0.2513
  678MOL0     C91443   4.518   7.346   1.803 -0.1637  0.3045  0.6237
  678MOL0     C91444   4.649   7.317   1.812  0.3594  0.0492 -0.2814
  678MOL0     N91445   5.431   7.237   1.770  0.1625  0.7326  0.0846
  678MOL0     N91446   5.504   7.333   1.704  0.4612  0.3583 -0.0318
  678MOL0     C91447   4.405   7.791   1.863  1.0404  0.4528 -0.6987
  678MOL0     C91448   4.279   7.838   1.809  0.3703 -0.3022  0.7907
  678MOL0     C91449   3.956   8.094   1.678  0.6941  0.5494 -0.3950
  678MOL0     C91450   3.951   8.124   1.540  0.6937  0.6208  0.3425
  678MOL0     C91451   3.823   8.152   1.474 -1.0394 -0.8347 -0.5933
  678MOL0     C91452   3.703   8.139   1.549  0.5690  0.0543 -0.0048
  678MOL0     O91453   3.587   8.168   1.480 -0.0531 -0.0243  0.8139
  678MOL0     C91454   3.462   8.182   1.556 -0.6720 -0.0502 -0.2653
  678MOL0     C91455   3.355   8.262   1.482 -0.1660  0.2074  0.0332
  678MOL0     C91456   3.324   8.187   1.353 -0.3773  0.0183  0.0140
  678MOL0     C91457   3.203   8.238   1.272  0.7889 -0.2188 -0.1641
  678MOL0     C91458   3.074   8.232   1.338  0.0169  0.0949  0.4543
  678MOL0     C91459   2.973   8.232   1.397 -0.2445  0.5013 -0.0850
  678MOL0     C91460   3.710   8.110   1.683 -0.0543 -0.1351 -0.4752
  678MOL0     C91461   3.830   8.097   1.750  0.5022  0.7917  0.2121
  678MOL0     C91462   3.829   8.087   1.899 -0.6159 -0.2268  0.4663
  678MOL0     H91463   4.403   8.047   1.563  0.6706  3.2011  3.0743
  678MOL0     H91464   4.591   7.919   1.614  0.0698  1.6427  1.6042
  678MOL0     H91465   4.713   7.721   1.648 -2.5008  1.8272 -0.7899
  678MOL0     H91466   4.779   7.861   1.736  1.1305 -0.1055  0.7893
  678MOL0     H91467   4.820   7.565   1.809  3.7674 -1.6192  1.5802
  678MOL0     H91468   4.847   7.683   1.926  0.2443 -1.6113 -0.1144
  678MOL0     H91469   5.061   7.652   1.835 -0.5974  0.2527  1.4988
  678MOL0     H91470   5.020   7.806   1.785  1.1149  0.4335 -2.9650
  678MOL0     H91471   4.998   7.556   1.614 -0.1221  0.0403  0.3693
  678MOL0     H91472   4.952   7.720   1.559  0.3431  0.5910 -0.5177
  678MOL0     H91473   5.173   7.661   1.467  0.0366 -0.2694 -0.2581
  678MOL0     H91474   5.202   7.774   1.600  0.0456 -0.9496  2.9316
  678MOL0     H91475   5.247   7.606   1.758 -4.4915 -1.8471  0.2743
  678MOL0     H91476   5.242   7.475   1.640  0.9691 -0.1527 -0.8369
  678MOL0     H91477   5.408   7.722   1.611 -3.1545  0.7186  2.5665
  678MOL0     H91478   5.441   7.564   1.538  2.3586  1.3119  0.9558
  678MOL0     H91479   5.610   7.596   1.715  0.7701 -1.9502 -0.3247
  678MOL0     H91480   5.487   7.647   1.833  0.1970 -1.2571  1.2733
  678MOL0     H91481   5.405   7.464   1.989  0.8108  0.7110  0.4435
  678MOL0     H91482   5.278   7.118   1.943 -1.3337 -0.9217  1.8030
  678MOL0     H91483   5.309   7.229   2.085 -0.7902  0.5618  0.7798
  678MOL0     H91484   5.071   7.231   2.029 -0.1857 -0.6184 -0.4476
  678MOL0     H91485   5.138   7.391   1.980 -1.8310 -0.0434 -2.7460
  678MOL0     H91486   5.084   7.164   1.797  1.1956  0.5412 -0.9209
  678MOL0     H91487   5.133   7.327   1.751  1.7202  1.5275  3.2684
  678MOL0     H91488   4.932   7.407   1.873  0.2349 -1.7257  1.7544
  678MOL0     H91489   4.883   7.229   1.886 -0.9458 -0.6610 -1.3994
  678MOL0     H91490   4.728   7.417   1.498  0.2236  0.1338  1.5813
  678MOL0     H91491   4.490   7.470   1.486  1.9692  1.9437 -0.1316
  678MOL0     H91492   4.061   7.291   1.584  0.4656 -0.2286  0.2936
  678MOL0     H91493   3.830   7.344   1.575  0.1157  0.1261  1.0720
  678MOL0     H91494   3.597   7.411   1.544  0.9058  0.9386  0.1231
  678MOL0     H91495   3.648   7.444   1.701  1.4146 -1.6242 -1.6281
  678MOL0     H91496   3.502   7.661   1.680  0.8503 -1.0639  2.6274
  678MOL0     H91497   3.433   7.596   1.539 -2.9570  0.6441  2.0356
  678MOL0     H91498   3.424   7.388   1.747 -2.8029 -1.2572  1.7267
  678MOL0     H91499   3.380   7.543   1.810 -1.0371  0.6724 -0.5779
  678MOL0     H91500   3.258   7.435   1.563 -1.0439  2.1746 -1.3943
  678MOL0     H91501   3.214   7.581   1.650 -2.6844 -0.5998 -2.2646
  678MOL0     H91502   3.137   7.471   1.838 -1.0019 -0.3280  0.7204
  678MOL0     H91503   3.176   7.314   1.778  2.5920  1.1125  1.7119
  678MOL0     H91504   2.983   7.511   1.657  2.0243  0.7644  0.8385
  678MOL0     H91505   3.006   7.353   1.592 -2.5352  3.4391 -1.8083
  678MOL0     H91506   2.819   7.321   1.721  1.4287 -1.0359 -2.5379
  678MOL0     H91507   2.849   7.452   1.836 -1.8292  1.0134 -3.3790
  678MOL0     H91508   2.966   7.160   1.859 -0.5002  0.2866  1.2076
  678MOL0     H91509   3.015   7.291   1.965  0.9342 -0.0735 -0.5568
  678MOL0     H91510   3.924   7.761   1.529  1.3601  1.1378 -1.1973
  678MOL0     H91511   4.154   7.705   1.555  0.5436 -0.4422 -1.0594
  678MOL0     H91512   4.459   7.336   1.894  0.6527 -2.0545  0.9744
  678MOL0     H91513   4.679   7.278   1.909 -2.3273  0.5677  0.8657
  678MOL0     H91514   4.404   7.732   1.954 -2.0915  1.2446 -0.0873
  678MOL0     H91515   4.188   7.802   1.856  0.6679  1.8952  3.3409
  678MOL0     H91516   4.039   8.112   1.476  1.8195 -4.1243  2.3174
  678MOL0     H91517   3.817   8.175   1.368  0.5778 -0.7258 -0.6778
  678MOL0     H91518   3.488   8.247   1.640 -2.8187 -0.4439  0.7436
  678MOL0     H91519   3.430   8.083   1.588 -2.6851  0.8419  0.6134
  678MOL0     H91520   3.396   8.360   1.455  1.6524 -0.8857 -1.4997
  678MOL0     H91521   3.269   8.273   1.548  0.0776 -0.8238  0.5545
  678MOL0     H91522   3.312   8.084   1.390  0.5606  0.9077  3.1167
  678MOL0     H91523   3.405   8.201   1.281 -0.8558 -0.8029 -0.7008
  678MOL0     H91524   3.204   8.342   1.236 -0.6767 -0.0266  0.2698
  678MOL0     H91525   3.202   8.184   1.177 -0.9606  3.7254 -2.6420
  678MOL0     H91526   2.885   8.227   1.459 -0.2148  3.1913  0.3028
  678MOL0     H91527   3.625   8.133   1.747 -0.7739 -0.4481 -1.3115
  678MOL0     H91528   3.726   8.110   1.929 -0.4841 -0.8981  1.4962
  678MOL0     H91529   3.854   7.987   1.935 -1.6633 -0.5710  0.2764
  678MOL0     H91530   3.900   8.157   1.944  1.9401 -1.7293 -1.0149
  679MOL0     O91531   7.002   8.526   9.188  0.2144 -0.3108  0.0936
  679MOL0     C91532   6.939   8.606   9.105  0.3073 -0.0149 -0.3909
  679MOL0     O91533   6.999   8.684   9.021 -0.6009 -0.0411  1.0296
  679MOL0     C91534   7.137   8.683   8.996  0.3386 -0.2504  0.0697
  679MOL0     C91535   7.182   8.672   8.864 -0.1959  0.1400  0.1525
  679MOL0     C91536   7.314   8.675   8.830 -0.3952 -0.4761 -1.0546
  679MOL0     C91537   7.413   8.703   8.936  0.2311 -0.5999 -0.4917
  679MOL0     O91538   7.551   8.703   8.914  0.6259 -0.1787  0.2140
  679MOL0     C91539   7.606   8.604   8.831 -0.0978  0.4025 -0.1884
  679MOL0     C91540   7.636   8.485   8.921 -0.1677  0.8594  0.7043
  679MOL0     C91541   7.754   8.398   8.865 -0.6261  0.0621 -0.0952
  679MOL0     C91542   7.889   8.470   8.865 -0.2503 -0.1371  0.0606
  679MOL0     C91543   8.001   8.368   8.831 -0.5241 -0.5618  0.4710
  679MOL0     C91544   8.140   8.445   8.835 -1.0657  0.0487  0.2022
  679MOL0     C91545   8.237   8.381   8.736 -0.7077  0.2771  0.4460
  679MOL0     C91546   8.376   8.433   8.768 -0.5524  0.4550  0.2190
  679MOL0     N91547   8.473   8.389   8.664  0.0307  0.1778  0.4794
  679MOL0     C91548   8.550   8.271   8.641 -1.0926  0.4901 -0.4065
  679MOL0     C91549   8.604   8.291   8.515  0.3352  0.4509  0.1622
  679MOL0     C91550   8.669   8.191   8.432 -0.7644  0.3432  0.5663
  679MOL0     C91551   8.819   8.190   8.435 -0.2768 -0.5509  0.0943
  679MOL0     C91552   8.892   8.129   8.314 -0.7221 -0.2980 -0.6366
  679MOL0     C91553   8.837   8.000   8.284 -0.5608  0.4413  0.1735
  679MOL0     O91554   8.832   7.902   8.390  0.2175 -0.1297  0.2439
  679MOL0     C91555   8.915   7.791   8.394 -0.3432 -0.5155 -0.6145
  679MOL0     C91556   8.854   7.664   8.419 -0.0771  0.0611 -0.1610
  679MOL0     C91557   8.931   7.547   8.426  1.4750  0.0322  0.0411
  679MOL0     C91558   9.070   7.555   8.417 -0.2753  0.1337  0.7531
  679MOL0     C91559   9.152   7.435   8.457  0.2053  0.0813  0.1901
  679MOL0     O91560   9.089   7.325   8.511  0.1004  0.3809 -0.0054
  679MOL0     C91561   9.170   7.213   8.554 -0.3143 -1.0802  0.5551
  679MOL0     C91562   9.145   7.151   8.678  0.1079  0.5908  0.0451
  679MOL0     C91563   9.213   7.031   8.712  0.4515  0.0808  0.4147
  679MOL0     C91564   9.325   6.987   8.635  0.7761 -0.3222 -0.1870
  679MOL0     O91565   9.396   6.882   8.672  0.0762  0.4487 -0.3586
  679MOL0     C91566   9.530   6.905   8.727  0.5645  0.3903  0.1590
  679MOL0     C91567   9.557   6.820   8.852 -0.5838 -0.0055  0.6296
  679MOL0     C91568   9.714   6.820   8.877 -0.1422 -0.7639  0.1269
  679MOL0     C91569   9.792   6.722   8.781 -0.6309  0.1957  0.5449
  679MOL0     C91570   9.927   6.672   8.826  0.8465  0.7719 -0.1417
  679MOL0     C91571   9.985   6.557   8.737 -0.2326 -0.0861 -0.6008
  679MOL0     C91572  10.124   6.517   8.777  0.2804  0.2331 -0.0849
  679MOL0     C91573  10.184   6.408   8.690  0.2624  0.3129 -0.4031
  679MOL0    Cl91574  10.340   6.355   8.745 -0.4162  0.0102  0.1335
  679MOL0     C91575   9.359   7.068   8.524 -1.0328 -0.4701  0.0561
  679MOL0     C91576   9.283   7.174   8.478  0.6194  0.3742  0.6363
  679MOL0     O91577   9.274   7.454   8.464 -0.1280  0.3523  0.2673
  679MOL0     C91578   9.136   7.674   8.381  0.2015 -0.5836  0.1761
  679MOL0     C91579   9.053   7.797   8.362  0.2973  0.0972  1.0450
  679MOL0     N91580   8.550   8.401   8.462 -0.1949 -0.3591  0.7363
  679MOL0     N91581   8.482   8.457   8.547 -0.1231 -0.9213 -0.1827
  679MOL0     C91582   7.367   8.717   9.071 -0.5304 -0.3840  0.6405
  679MOL0     C91583   7.232   8.696   9.099  0.5620 -0.5448 -0.7615
  679MOL0     C91584   6.783   8.623   9.114  1.0919  0.2857  0.6893
  679MOL0     C91585   6.716   8.681   9.004 -0.2222  0.7366  0.4336
  679MOL0     C91586   6.578   8.695   8.995  0.5957 -0.4504 -0.8344
  679MOL0     C91587   6.499   8.643   9.094  1.2352 -0.1113 -0.6645
  679MOL0     O91588   6.363   8.656   9.077  0.4146  0.3522 -0.1166
  679MOL0     C91589   6.267   8.592   9.160 -0.1699 -0.1460  0.3824
  679MOL0     C91590   6.130   8.641   9.127 -0.2176 -0.3534 -0.3395
  679MOL0     C91591   6.098   8.627   8.976  0.0439  0.0788  0.8371
  679MOL0     C91592   6.030   8.491   8.951  0.1701  0.7754  0.0133
  679MOL0     C91593   5.893   8.490   9.002 -0.1275 -0.2359  0.1631
  679MOL0     C91594   5.775   8.482   9.037  0.1312 -0.4283 -0.7418
  679MOL0     C91595   6.561   8.579   9.204 -0.1627  0.3692 -0.0574
  679MOL0     C91596   6.703   8.577   9.218 -0.2599 -0.1433 -0.2508
  679MOL0     C91597   6.757   8.540   9.349  0.3940  0.2697  0.0216
  679MOL0     H91598   7.115   8.668   8.779 -1.3840  3.6872  0.7536
  679MOL0     H91599   7.360   8.686   8.733  0.3637  2.2772 -0.4646
  679MOL0     H91600   7.556   8.567   8.741  1.0065 -3.1411  0.4799
  679MOL0     H91601   7.704   8.633   8.792 -0.7396  2.0500 -0.6261
  679MOL0     H91602   7.546   8.423   8.932  0.8502 -0.6510  0.8640
  679MOL0     H91603   7.664   8.521   9.020  2.1041  1.2556 -0.0400
  679MOL0     H91604   7.733   8.362   8.764  2.0172 -1.1814 -0.3019
  679MOL0     H91605   7.763   8.305   8.922 -4.3885  0.7355  1.9208
  679MOL0     H91606   7.889   8.548   8.789  3.2110 -0.1281 -0.1044
  679MOL0     H91607   7.900   8.523   8.960 -1.5316  0.0202  0.1320
  679MOL0     H91608   7.991   8.284   8.900 -1.2468 -0.5199  0.4179
  679MOL0     H91609   7.987   8.329   8.730 -0.2203  0.7470 -0.1042
  679MOL0     H91610   8.140   8.552   8.816  3.0450 -0.1574 -2.1540
  679MOL0     H91611   8.184   8.439   8.935  0.4376  1.4910 -0.3301
  679MOL0     H91612   8.202   8.408   8.636 -2.0106 -2.0342  0.1921
  679MOL0     H91613   8.237   8.271   8.730 -1.5391  0.3255 -0.9702
  679MOL0     H91614   8.384   8.543   8.767 -2.2004  0.6175  1.3549
  679MOL0     H91615   8.423   8.397   8.860 -1.3260 -3.8836 -0.8775
  679MOL0     H91616   8.566   8.184   8.704 -0.9903  0.3833 -0.5792
  679MOL0     H91617   8.638   8.093   8.471  1.0899 -0.9151 -0.9598
  679MOL0     H91618   8.634   8.197   8.329 -1.9021 -3.8514  0.5305
  679MOL0     H91619   8.845   8.296   8.442  2.5567 -1.2572  2.3669
  679MOL0     H91620   8.846   8.141   8.529 -0.8723  1.8983  1.6685
  679MOL0     H91621   9.001   8.127   8.320 -0.7657  0.4211  0.6577
  679MOL0     H91622   8.863   8.187   8.225 -0.7812  0.8133  0.0967
  679MOL0     H91623   8.899   7.954   8.206  1.3166  3.4932 -0.3175
  679MOL0     H91624   8.736   8.009   8.244 -1.6105  0.3429  2.6501
  679MOL0     H91625   8.747   7.671   8.437  0.2127 -1.7551  3.2259
  679MOL0     H91626   8.883   7.452   8.445  1.3011 -0.3478 -1.9846
  679MOL0     H91627   9.055   7.187   8.728 -1.4870 -1.7569 -0.9553
  679MOL0     H91628   9.202   6.979   8.808  0.5844 -2.1707 -0.7139
  679MOL0     H91629   9.606   6.869   8.656 -1.9299 -2.2676 -1.3997
  679MOL0     H91630   9.552   7.008   8.754  1.9183 -0.5032  2.9369
  679MOL0     H91631   9.504   6.856   8.941 -1.1508  0.5817  0.0578
  679MOL0     H91632   9.531   6.718   8.823 -1.6994  0.8913 -1.7543
  679MOL0     H91633   9.753   6.921   8.867 -1.2454 -0.2074  1.1568
  679MOL0     H91634   9.733   6.797   8.982 -1.2424 -2.2913  0.0309
  679MOL0     H91635   9.810   6.764   8.682  2.9609  0.8066  1.3108
  679MOL0     H91636   9.730   6.633   8.766 -0.7875  0.1706  1.3008
  679MOL0     H91637   9.901   6.636   8.926 -1.9587  2.1885 -0.2697
  679MOL0     H91638  10.005   6.749   8.829 -0.4643  2.1216  0.5349
  679MOL0     H91639   9.919   6.471   8.752  1.6575 -1.4268  0.4242
  679MOL0     H91640   9.985   6.582   8.630  0.5658 -0.0734 -0.6042
  679MOL0     H91641  10.125   6.475   8.878  4.7635 -0.5052 -0.2182
  679MOL0     H91642  10.192   6.602   8.773 -0.5604  0.8777 -2.0136
  679MOL0     H91643  10.124   6.317   8.699  1.4935 -0.4666  0.3242
  679MOL0     H91644  10.186   6.439   8.585 -1.4999 -1.2296 -0.9360
  679MOL0     H91645   9.453   7.060   8.470 -0.5872  0.5477  0.6638
  679MOL0     H91646   9.325   7.229   8.395 -0.4813 -1.4627 -1.2567
  679MOL0     H91647   9.243   7.685   8.380  0.0159  1.9992  1.2217
  679MOL0     H91648   9.104   7.891   8.346 -0.4211  0.0685 -2.0656
  679MOL0     H91649   7.436   8.753   9.146 -0.6251  2.8832 -0.6692
  679MOL0     H91650   7.193   8.702   9.200  1.6785  0.3883 -0.3616
  679MOL0     H91651   6.776   8.713   8.920  1.1331  1.9705  1.8068
  679MOL0     H91652   6.533   8.750   8.913 -0.8766  0.3482  0.4527
  679MOL0     H91653   6.286   8.592   9.268  0.2786 -1.0392  0.3150
  679MOL0     H91654   6.284   8.488   9.129  3.6378  0.7965 -1.3384
  679MOL0     H91655   6.117   8.748   9.147 -1.0564  0.2417 -3.5229
  679MOL0     H91656   6.053   8.581   9.178 -1.9889  0.5976 -1.7519
  679MOL0     H91657   6.191   8.632   8.919 -1.1890  1.0988 -1.1948
  679MOL0     H91658   6.035   8.709   8.938 -1.0606 -1.1848 -0.1724
  679MOL0     H91659   6.023   8.465   8.844  0.1830 -0.2061  0.2351
  679MOL0     H91660   6.091   8.414   9.000  1.7273 -0.8874 -4.0634
  679MOL0     H91661   5.680   8.474   9.084 -1.1464  2.5603 -2.5510
  679MOL0     H91662   6.497   8.546   9.285 -0.8806  3.6301  0.8513
  679MOL0     H91663   6.677   8.547   9.424 -2.1385 -0.4909 -2.4271
  679MOL0     H91664   6.792   8.438   9.365 -1.7921 -0.2875  1.7851
  679MOL0     H91665   6.837   8.606   9.384 -0.2136 -0.7449  3.8262
  680MOL0     O91666   6.373   2.976   7.335  0.0993 -0.7070 -0.1214
  680MOL0     C91667   6.306   2.877   7.336  0.6334  0.9190 -0.0889
  680MOL0     O91668   6.353   2.745   7.295  0.2540  0.1752 -0.9463
  680MOL0     C91669   6.485   2.733   7.275  0.4257  0.2046 -0.1458
  680MOL0     C91670   6.569   2.750   7.381  0.0345  0.8773  0.8231
  680MOL0     C91671   6.708   2.773   7.357  0.1822  0.0931  0.6600
  680MOL0     C91672   6.770   2.764   7.228  0.1753  0.8207  0.2571
  680MOL0     O91673   6.903   2.775   7.199 -0.1589 -0.3631 -0.4242
  680MOL0     C91674   6.978   2.846   7.295  0.0771  0.5837  0.0190
  680MOL0     C91675   7.121   2.856   7.252 -0.1813 -0.0852 -0.2925
  680MOL0     C91676   7.194   2.717   7.237  0.3160 -0.5890 -0.4151
  680MOL0     C91677   7.337   2.733   7.189 -0.1577  0.5278 -0.3050
  680MOL0     C91678   7.415   2.604   7.154  0.5795 -0.4808  0.4790
  680MOL0     C91679   7.464   2.535   7.281 -0.2908  0.1815  0.3387
  680MOL0     C91680   7.500   2.390   7.259  0.2242  0.2127 -0.5267
  680MOL0     C91681   7.543   2.317   7.387 -0.6356 -0.1589 -0.1915
  680MOL0     N91682   7.650   2.381   7.465 -0.2149  0.8111 -0.1196
  680MOL0     C91683   7.782   2.372   7.427 -1.3044  0.3642  0.0755
  680MOL0     C91684   7.844   2.464   7.501  0.1283  0.1662  0.5170
  680MOL0     C91685   7.989   2.493   7.521 -0.0829  0.0867 -1.4032
  680MOL0     C91686   8.021   2.643   7.524 -0.7738 -0.4191 -0.2506
  680MOL0     C91687   8.152   2.676   7.455  0.0640 -0.0449 -0.1484
  680MOL0     C91688   8.283   2.632   7.535 -0.1746  0.3124  0.0079
  680MOL0     O91689   8.397   2.661   7.445  1.1389 -0.9538  0.6564
  680MOL0     C91690   8.511   2.600   7.471 -0.6246  0.1918  0.5025
  680MOL0     C91691   8.534   2.507   7.571  0.4814  1.2491  0.7699
  680MOL0     C91692   8.655   2.432   7.564  0.1967  0.6407  0.4179
  680MOL0     C91693   8.757   2.455   7.475 -0.4004 -0.5785  0.1940
  680MOL0     C91694   8.884   2.387   7.491 -0.9537  0.8486 -0.4121
  680MOL0     O91695   8.975   2.413   7.392  0.1159 -0.0607  0.5917
  680MOL0     C91696   9.087   2.332   7.405 -0.6849 -0.1473 -0.5688
  680MOL0     C91697   9.214   2.398   7.426 -0.8247  0.0411 -0.4390
  680MOL0     C91698   9.328   2.319   7.460  0.1653 -0.1712 -0.5035
  680MOL0     C91699   9.330   2.177   7.453 -0.0672 -1.2391  0.2489
  680MOL0     O91700   9.452   2.103   7.476  0.4910  0.1452 -0.2085
  680MOL0     C91701   9.442   1.966   7.446  0.6684 -0.9976 -0.3833
  680MOL0     C91702   9.588   1.917   7.456  0.3632 -0.2338 -0.2433
  680MOL0     C91703   9.594   1.767   7.447 -0.5057  0.2988  0.6848
  680MOL0     C91704   9.740   1.715   7.442 -0.4180 -0.5578  0.3017
  680MOL0     C91705   9.738   1.563   7.398  0.0240 -0.2775  0.1160
  680MOL0     C91706   9.897   1.528   7.382  1.2782 -0.0151  0.2813
  680MOL0     C91707   9.924   1.391   7.325  0.1316  0.9871 -0.0928
  680MOL0     C91708  10.080   1.373   7.321  0.0597  0.2271  0.0785
  680MOL0    Cl91709  10.182   1.514   7.257  0.7580 -0.0247  0.0121
  680MOL0     C91710   9.207   2.122   7.415 -0.0831  1.0420 -0.2174
  680MOL0     C91711   9.090   2.191   7.385 -0.6508  0.0629 -0.2730
  680MOL0     O91712   8.899   2.322   7.599 -0.8146  0.0723 -0.6943
  680MOL0     C91713   8.741   2.554   7.381  1.0237 -0.1896 -0.4673
  680MOL0     C91714   8.622   2.624   7.378  0.7687  0.6772 -0.2009
  680MOL0     N91715   7.748   2.525   7.576 -0.6429  0.5392  0.5757
  680MOL0     N91716   7.636   2.480   7.554  0.2980 -0.5043 -0.6207
  680MOL0     C91717   6.676   2.749   7.123 -0.0959  0.3874  0.2243
  680MOL0     C91718   6.539   2.728   7.152  0.4627  0.1033  0.2102
  680MOL0     C91719   6.161   2.887   7.379  0.4231  0.0511 -0.3699
  680MOL0     C91720   6.106   2.779   7.448  0.5427  0.0476  0.3202
  680MOL0     C91721   5.978   2.772   7.501  0.4318 -0.4474  0.1775
  680MOL0     C91722   5.898   2.886   7.509  0.2834 -0.8127 -0.9162
  680MOL0     O91723   5.776   2.867   7.575  0.4655 -0.0601 -0.6859
  680MOL0     C91724   5.663   2.940   7.521 -0.0802  0.4625 -0.3032
  680MOL0     C91725   5.645   2.924   7.366  0.5185 -0.3024 -0.5924
  680MOL0     C91726   5.673   2.787   7.304 -0.2540 -0.0079  0.2990
  680MOL0     C91727   5.610   2.664   7.381  0.1337 -0.1704 -0.2571
  680MOL0     C91728   5.467   2.694   7.424  0.7247 -0.9784 -0.2709
  680MOL0     C91729   5.357   2.715   7.451  0.6504  0.0813 -0.3718
  680MOL0     C91730   5.950   2.998   7.445 -0.5112 -0.6062  0.7365
  680MOL0     C91731   6.083   3.001   7.387  0.5141 -0.0324  0.4225
  680MOL0     C91732   6.116   3.132   7.311 -0.0461  0.1536 -0.0813
  680MOL0     H91733   6.531   2.749   7.483 -2.0315 -1.8022  0.1519
  680MOL0     H91734   6.769   2.794   7.445 -0.1658 -0.3199  1.0073
  680MOL0     H91735   6.948   2.951   7.298 -1.0774  0.3097 -1.1638
  680MOL0     H91736   6.965   2.809   7.398  0.5060 -1.3707 -0.5792
  680MOL0     H91737   7.181   2.918   7.320  2.7342  0.0300 -2.7462
  680MOL0     H91738   7.119   2.910   7.157 -0.8627 -0.1224 -0.3034
  680MOL0     H91739   7.135   2.664   7.162 -2.8773  2.2234 -0.1827
  680MOL0     H91740   7.186   2.658   7.329  0.3857  2.3741  1.6571
  680MOL0     H91741   7.332   2.804   7.106  1.3872  1.9003  0.7217
  680MOL0     H91742   7.389   2.774   7.276 -0.3950 -1.5001  0.8604
  680MOL0     H91743   7.353   2.535   7.095  0.5103 -0.8273  0.9548
  680MOL0     H91744   7.499   2.638   7.093  1.2306  0.4071  1.8248
  680MOL0     H91745   7.549   2.589   7.322  1.5136 -1.1532 -1.4431
  680MOL0     H91746   7.391   2.542   7.362 -0.1716  2.4052  0.3149
  680MOL0     H91747   7.588   2.383   7.193 -2.1662  1.1145 -4.1399
  680MOL0     H91748   7.414   2.329   7.230  0.1609  0.3241 -0.5720
  680MOL0     H91749   7.460   2.290   7.453 -0.9339  0.9067 -0.1128
  680MOL0     H91750   7.577   2.214   7.370 -1.2475 -0.3676 -0.1667
  680MOL0     H91751   7.830   2.317   7.347 -0.8430 -0.6458  1.0111
  680MOL0     H91752   8.029   2.434   7.604  0.4407 -1.3809 -2.6453
  680MOL0     H91753   8.041   2.454   7.432  2.6445  0.9063 -0.2635
  680MOL0     H91754   7.950   2.697   7.461  1.1761  0.8771 -1.4675
  680MOL0     H91755   8.022   2.686   7.624 -0.3794  1.2691 -0.9338
  680MOL0     H91756   8.151   2.785   7.450  2.0136 -0.0260 -0.6909
  680MOL0     H91757   8.148   2.646   7.349  0.9122  1.0051 -0.4885
  680MOL0     H91758   8.280   2.524   7.551  1.7971 -1.0285 -5.9320
  680MOL0     H91759   8.294   2.695   7.624  1.4892  0.5452 -0.3319
  680MOL0     H91760   8.460   2.479   7.646  1.2354  3.6600  2.5389
  680MOL0     H91761   8.662   2.359   7.643 -0.1333 -0.1251 -0.2450
  680MOL0     H91762   9.216   2.506   7.438 -4.1537 -0.0212  2.0539
  680MOL0     H91763   9.421   2.373   7.478 -0.2420  1.1769 -2.1215
  680MOL0     H91764   9.378   1.924   7.524 -0.7095  1.4172 -0.1450
  680MOL0     H91765   9.408   1.934   7.347  0.8187  1.0567 -1.1469
  680MOL0     H91766   9.651   1.963   7.380  1.3305 -3.1281 -1.3628
  680MOL0     H91767   9.630   1.951   7.551  1.3513  0.3624 -0.8757
  680MOL0     H91768   9.555   1.724   7.540 -0.3439  1.5268  1.3461
  680MOL0     H91769   9.540   1.727   7.360  1.8112  0.0158 -0.7044
  680MOL0     H91770   9.800   1.721   7.534  0.7602 -2.6877 -0.2486
  680MOL0     H91771   9.797   1.782   7.377 -1.0828 -1.3519 -1.1397
  680MOL0     H91772   9.675   1.551   7.310  0.9622 -1.5996 -0.4064
  680MOL0     H91773   9.693   1.502   7.478  0.5059  0.5438  1.0393
  680MOL0     H91774   9.958   1.606   7.336  2.8819 -1.1027  0.4771
  680MOL0     H91775   9.926   1.522   7.488  1.7262 -0.6556  0.1302
  680MOL0     H91776   9.887   1.387   7.223  0.0415  3.4671 -0.2161
  680MOL0     H91777   9.878   1.314   7.388  0.8768  0.3555 -0.2965
  680MOL0     H91778  10.108   1.355   7.425 -0.5535 -1.9869 -0.0854
  680MOL0     H91779  10.101   1.281   7.266 -1.0330 -0.6446  1.0563
  680MOL0     H91780   9.199   2.017   7.388 -1.2075  1.6068 -2.2389
  680MOL0     H91781   8.997   2.143   7.355 -1.3139  0.1056  1.5797
  680MOL0     H91782   8.813   2.590   7.308 -0.5989  0.8629 -1.6104
  680MOL0     H91783   8.613   2.699   7.300  3.0765  0.8526 -0.3698
  680MOL0     H91784   6.702   2.745   7.018  0.3152 -0.0785  0.3406
  680MOL0     H91785   6.479   2.714   7.063  0.8753  1.4121 -0.3033
  680MOL0     H91786   6.174   2.695   7.453  0.4657  0.0403  1.6922
  680MOL0     H91787   5.955   2.675   7.545  0.0063  0.4568  2.0035
  680MOL0     H91788   5.678   3.042   7.555  1.4590 -0.2857  1.4491
  680MOL0     H91789   5.578   2.900   7.577 -0.9936  2.2157 -0.3844
  680MOL0     H91790   5.720   2.994   7.328  1.1087  0.5448  1.8958
  680MOL0     H91791   5.545   2.962   7.343 -0.7292 -3.2336 -0.3740
  680MOL0     H91792   5.779   2.766   7.289 -0.5204 -1.9798  0.8404
  680MOL0     H91793   5.634   2.789   7.202 -0.1103  1.6190  0.2549
  680MOL0     H91794   5.623   2.580   7.313  1.4207 -2.1433  2.2496
  680MOL0     H91795   5.672   2.639   7.467  0.3596  1.0257 -0.0444
  680MOL0     H91796   5.260   2.741   7.488 -0.6047 -1.2051 -2.5497
  680MOL0     H91797   5.892   3.090   7.449 -1.1784 -0.9469 -0.6483
  680MOL0     H91798   6.027   3.196   7.323  0.9805  1.6982 -0.4425
  680MOL0     H91799   6.196   3.193   7.354 -1.7591  1.1925  1.8452
  680MOL0     H91800   6.123   3.110   7.204  0.2006  0.7608 -0.1954
  681MOL0     O91801   6.386   6.123   5.626 -0.3115  0.2441  0.1256
  681MOL0     C91802   6.321   6.138   5.725 -0.3883 -0.2796  0.4791
  681MOL0     O91803   6.361   6.208   5.831  0.0728 -0.4026 -0.2570
  681MOL0     C91804   6.476   6.285   5.824 -0.1516  0.5060 -0.0386
  681MOL0     C91805   6.598   6.215   5.810  0.1879 -0.5946 -0.5508
  681MOL0     C91806   6.714   6.283   5.781  0.2715  0.4691  0.9539
  681MOL0     C91807   6.718   6.421   5.787  0.1393 -0.3456 -0.6724
  681MOL0     O91808   6.837   6.480   5.772 -0.3256 -0.1812 -0.7570
  681MOL0     C91809   6.847   6.611   5.832 -0.6744  0.7239 -0.6047
  681MOL0     C91810   6.996   6.658   5.852  1.1777  0.9104  0.5342
  681MOL0     C91811   7.064   6.698   5.724 -0.0526  0.1232  0.3522
  681MOL0     C91812   7.206   6.721   5.759  0.3139  0.4650 -0.3021
  681MOL0     C91813   7.271   6.759   5.631 -0.1378  0.2252  0.2391
  681MOL0     C91814   7.421   6.790   5.629  0.1569 -0.0482  0.3524
  681MOL0     C91815   7.463   6.901   5.724  0.6721  0.5257 -0.7720
  681MOL0     C91816   7.610   6.960   5.711  0.1995  0.2867  0.4737
  681MOL0     N91817   7.711   6.853   5.736  1.1897 -0.5349  0.3792
  681MOL0     C91818   7.745   6.820   5.866 -1.1592 -0.2627 -0.4219
  681MOL0     C91819   7.840   6.723   5.846 -0.1732  0.0866  0.8968
  681MOL0     C91820   7.909   6.670   5.970 -0.5001 -0.1115 -0.4701
  681MOL0     C91821   8.061   6.652   5.949  0.2509  0.6793  0.6603
  681MOL0     C91822   8.132   6.781   5.932  0.7062  0.9091 -0.2131
  681MOL0     C91823   8.275   6.773   5.865  0.3171 -0.3659  0.8708
  681MOL0     O91824   8.320   6.911   5.863 -0.2481  0.0003 -0.4530
  681MOL0     C91825   8.386   6.960   5.970 -1.2504  0.0287  0.6297
  681MOL0     C91826   8.379   7.095   5.984 -0.2565 -0.2540  0.5987
  681MOL0     C91827   8.472   7.152   6.068  0.0701  0.3147  0.4421
  681MOL0     C91828   8.572   7.082   6.136 -0.5155 -0.0120  0.2953
  681MOL0     C91829   8.668   7.155   6.211 -0.1884 -0.9518 -0.2787
  681MOL0     O91830   8.784   7.096   6.241  0.8685  1.2654 -0.4345
  681MOL0     C91831   8.858   7.152   6.345  0.8139  0.9077 -0.0072
  681MOL0     C91832   8.857   7.099   6.468 -0.4132  0.2733 -0.4206
  681MOL0     C91833   8.945   7.145   6.568  1.1115 -0.3589 -0.7061
  681MOL0     C91834   9.036   7.242   6.545 -0.1342  0.7693  0.1458
  681MOL0     O91835   9.133   7.282   6.632  0.8858  0.5551 -0.4191
  681MOL0     C91836   9.161   7.221   6.757  0.1658  0.1328  0.1251
  681MOL0     C91837   9.087   7.288   6.876  0.1754 -0.2907  0.1804
  681MOL0     C91838   9.148   7.264   7.017  1.0417 -0.0452 -0.0303
  681MOL0     C91839   9.052   7.322   7.121  0.4754 -0.4366 -0.7863
  681MOL0     C91840   8.929   7.226   7.161 -0.7376  0.8127  0.0633
  681MOL0     C91841   8.930   7.179   7.312 -0.3315 -1.0416  0.2778
  681MOL0     C91842   9.041   7.073   7.339  0.1651  0.3816 -0.5057
  681MOL0     C91843   9.020   6.937   7.279 -0.3459  0.4538  0.1932
  681MOL0    Cl91844   9.130   6.805   7.339  0.3643  0.4260 -0.0868
  681MOL0     C91845   9.032   7.307   6.422  0.7461  0.3387 -0.1765
  681MOL0     C91846   8.946   7.263   6.320  0.5424 -1.3347 -0.2814
  681MOL0     O91847   8.647   7.275   6.239 -0.4261  0.7191  0.4937
  681MOL0     C91848   8.579   6.944   6.124  0.1538 -1.4472  0.2098
  681MOL0     C91849   8.482   6.886   6.039 -1.0423  0.3832  0.2316
  681MOL0     N91850   7.859   6.703   5.709  0.0547  0.1635  0.4424
  681MOL0     N91851   7.778   6.784   5.644  0.3857  0.2896  0.0825
  681MOL0     C91852   6.592   6.492   5.798 -0.6193  0.3747  0.6774
  681MOL0     C91853   6.475   6.423   5.818  0.1454 -0.4452 -0.4766
  681MOL0     C91854   6.183   6.086   5.725 -0.3019  0.0897 -0.6653
  681MOL0     C91855   6.137   6.028   5.606 -0.0077 -0.1755  0.0837
  681MOL0     C91856   6.009   5.986   5.588 -0.3466 -0.2696  0.1863
  681MOL0     C91857   5.917   6.008   5.690 -0.0514  0.1352  0.1210
  681MOL0     O91858   5.796   5.963   5.654  0.6396 -0.3238 -0.5708
  681MOL0     C91859   5.690   5.935   5.745 -0.2173 -0.7529  0.5606
  681MOL0     C91860   5.595   5.832   5.684 -0.5730 -0.6589  0.2108
  681MOL0     C91861   5.509   5.882   5.565  0.0047 -0.3696  0.5471
  681MOL0     C91862   5.446   5.759   5.494 -0.2194  0.2036 -0.4626
  681MOL0     C91863   5.352   5.687   5.581 -0.2670 -0.0033 -0.0419
  681MOL0     C91864   5.276   5.632   5.661  0.1380  0.1591  0.2468
  681MOL0     C91865   5.955   6.056   5.814 -0.4804 -0.6541 -0.4149
  681MOL0     C91866   6.090   6.094   5.839 -0.1354  0.2544  1.0121
  681MOL0     C91867   6.120   6.161   5.976  0.4817  0.0306  0.0047
  681MOL0     H91868   6.611   6.107   5.805  1.6925 -0.4097 -1.1094
  681MOL0     H91869   6.808   6.233   5.763 -0.2560 -1.3007  2.7679
  681MOL0     H91870   6.797   6.689   5.774 -0.9153  1.6700  0.8453
  681MOL0     H91871   6.804   6.615   5.932  1.1404  2.2381  0.1804
  681MOL0     H91872   7.052   6.578   5.901 -1.4019 -0.5717  1.2874
  681MOL0     H91873   6.996   6.750   5.911 -1.3780  2.7797 -2.0798
  681MOL0     H91874   7.017   6.786   5.679 -1.0897  0.4885  2.0434
  681MOL0     H91875   7.058   6.620   5.647 -1.4843  0.9761 -0.4571
  681MOL0     H91876   7.214   6.791   5.843 -2.4690 -1.8522  2.1201
  681MOL0     H91877   7.252   6.634   5.808 -2.6369 -0.4687  1.0627
  681MOL0     H91878   7.250   6.684   5.554 -1.0343  1.7600 -1.0649
  681MOL0     H91879   7.221   6.851   5.600  0.4297  0.3112 -0.4351
  681MOL0     H91880   7.472   6.696   5.652  1.3733  0.5366  0.0911
  681MOL0     H91881   7.442   6.824   5.528  0.5839  0.1602  0.5064
  681MOL0     H91882   7.446   6.866   5.826 -1.9144  2.0447 -0.5905
  681MOL0     H91883   7.397   6.986   5.705 -1.7415 -0.9580  0.4783
  681MOL0     H91884   7.623   7.013   5.616  0.6165  0.1758  0.4678
  681MOL0     H91885   7.612   7.030   5.796 -3.0936 -0.4801  1.3209
  681MOL0     H91886   7.712   6.861   5.961 -0.5909  1.1954 -0.8234
  681MOL0     H91887   7.883   6.730   6.057 -0.1511 -2.0982  1.0889
  681MOL0     H91888   7.883   6.564   5.970  1.2969 -0.5986 -1.7919
  681MOL0     H91889   8.099   6.608   6.041 -0.5918  1.1462  1.2432
  681MOL0     H91890   8.083   6.586   5.864 -0.7790  3.8698 -2.3748
  681MOL0     H91891   8.142   6.828   6.031 -0.7314 -0.4497  0.6065
  681MOL0     H91892   8.064   6.845   5.875  0.7701  0.8283 -0.3821
  681MOL0     H91893   8.265   6.732   5.764 -0.2799  2.9551 -0.5644
  681MOL0     H91894   8.344   6.712   5.923 -1.9562 -1.2944  2.7444
  681MOL0     H91895   8.304   7.154   5.932 -2.2084 -0.4571  2.9899
  681MOL0     H91896   8.458   7.259   6.076 -0.2022  0.1628  2.4264
  681MOL0     H91897   8.808   7.004   6.486  2.0322 -2.3022 -5.3223
  681MOL0     H91898   8.934   7.117   6.672 -4.1177  2.3519 -0.1508
  681MOL0     H91899   9.134   7.117   6.742 -0.1885  0.0730  1.1144
  681MOL0     H91900   9.269   7.217   6.775  0.1290 -0.6708  0.1995
  681MOL0     H91901   9.092   7.394   6.849 -0.0409 -0.8234 -2.2240
  681MOL0     H91902   8.983   7.255   6.886 -0.2149  0.7002 -0.4209
  681MOL0     H91903   9.179   7.165   7.050  1.3119  0.7215  2.2311
  681MOL0     H91904   9.235   7.330   7.011 -0.1915  1.6394 -0.1826
  681MOL0     H91905   9.022   7.417   7.076  1.2299 -0.0290 -0.4333
  681MOL0     H91906   9.110   7.345   7.211 -1.2970 -0.0482  0.3094
  681MOL0     H91907   8.925   7.143   7.090  1.3751  0.5938  0.1341
  681MOL0     H91908   8.839   7.287   7.150  1.3010  4.1498  0.4849
  681MOL0     H91909   8.937   7.269   7.375  1.2178 -0.5343 -0.5442
  681MOL0     H91910   8.830   7.138   7.327 -1.0241  0.1715 -0.7907
  681MOL0     H91911   9.044   7.060   7.447 -0.7968  0.4034 -0.4692
  681MOL0     H91912   9.136   7.111   7.299  0.6021  0.7258  0.8274
  681MOL0     H91913   8.915   6.923   7.308  0.1677 -1.7639  1.2775
  681MOL0     H91914   9.027   6.937   7.170 -1.2039  0.8189  0.1331
  681MOL0     H91915   9.092   7.395   6.401 -3.0411  2.6383 -2.7009
  681MOL0     H91916   8.953   7.320   6.228 -0.5385 -2.0016 -0.7949
  681MOL0     H91917   8.650   6.882   6.177  2.2402  1.9841  1.8114
  681MOL0     H91918   8.503   6.780   6.024  1.4152  0.8294  0.0790
  681MOL0     H91919   6.578   6.598   5.778 -1.7990 -0.0232 -0.8047
  681MOL0     H91920   6.382   6.478   5.830  2.2116  3.1487  0.6586
  681MOL0     H91921   6.208   6.009   5.526 -0.3837  0.9068 -0.5389
  681MOL0     H91922   5.987   5.933   5.496  0.8479 -0.5800  0.0539
  681MOL0     H91923   5.636   6.024   5.778  1.2860  0.0105  1.0814
  681MOL0     H91924   5.733   5.885   5.833  0.1569  2.3615  2.3145
  681MOL0     H91925   5.529   5.799   5.765 -2.9150  0.2677 -1.1988
  681MOL0     H91926   5.655   5.755   5.636  2.0277  2.0213 -1.1396
  681MOL0     H91927   5.577   5.932   5.495 -2.1646 -0.0561 -1.4430
  681MOL0     H91928   5.428   5.950   5.593  0.2021  0.1831 -0.2028
  681MOL0     H91929   5.397   5.785   5.400  0.8617 -0.4302 -1.2231
  681MOL0     H91930   5.527   5.696   5.455  0.3923 -0.2439  1.3935
  681MOL0     H91931   5.206   5.580   5.723  1.2594  0.8381  2.1552
  681MOL0     H91932   5.879   6.069   5.890 -0.5481  1.2012 -0.7498
  681MOL0     H91933   6.029   6.181   6.033 -0.5717 -0.8431 -1.3211
  681MOL0     H91934   6.185   6.100   6.039  1.4130 -0.7929 -1.7051
  681MOL0     H91935   6.170   6.256   5.955  0.1490  0.2206  0.0651
  682MOL0     O91936  10.918   6.504   5.363  0.8369 -0.0833  0.0126
  682MOL0     C91937  10.879   6.602   5.425  0.3096 -0.1896  1.1468
  682MOL0     O91938  10.962   6.705   5.463 -0.8286 -0.5756  0.0053
  682MOL0     C91939  11.081   6.711   5.389 -0.1157 -0.0080 -0.7907
  682MOL0     C91940  11.083   6.707   5.251 -0.1838 -0.0082 -0.1610
  682MOL0     C91941  11.206   6.722   5.178 -0.4830 -0.4033 -0.2710
  682MOL0     C91942  11.332   6.733   5.243  0.7668 -0.4093  0.5963
  682MOL0     O91943  11.436   6.738   5.156  0.5883  0.1624 -0.0140
  682MOL0     C91944  11.558   6.777   5.218 -0.1756  0.5395 -0.4001
  682MOL0     C91945  11.682   6.751   5.134  0.0271 -0.3643  0.5069
  682MOL0     C91946  11.813   6.776   5.213 -0.4221 -0.0777  0.1909
  682MOL0     C91947  11.933   6.803   5.114 -0.0551  0.5097  0.1906
  682MOL0     C91948  12.067   6.825   5.190 -0.3182  0.2798  0.5873
  682MOL0     C91949  12.185   6.822   5.085  0.0235  0.4612  0.2707
  682MOL0     C91950  12.323   6.841   5.134  0.3497  0.1418 -0.0144
  682MOL0     C91951  12.439   6.853   5.025  0.2810  0.6168 -1.3455
  682MOL0     N91952  12.569   6.886   5.081 -0.1358  0.3842 -0.2519
  682MOL0     C91953  12.635   6.795   5.157  0.1590  0.1479 -0.7168
  682MOL0     C91954  12.764   6.844   5.172 -0.6795  0.4993  0.9810
  682MOL0     C91955  12.890   6.777   5.227  0.0572 -0.1431 -0.1620
  682MOL0     C91956  12.897   6.806   5.376  0.7301 -1.4001  0.6106
  682MOL0     C91957  12.986   6.705   5.452  1.0606  0.0002 -0.3758
  682MOL0     C91958  13.121   6.704   5.391 -0.1899 -0.0460  0.0677
  682MOL0     O91959  13.126   6.641   5.262  0.5035 -0.0325 -0.0091
  682MOL0     C91960  13.258   6.614   5.209 -0.0991  0.6213 -0.2087
  682MOL0     C91961  13.365   6.685   5.253 -0.1878 -1.0108  0.0829
  682MOL0     C91962  13.497   6.661   5.206  0.6374  0.3562 -0.5773
  682MOL0     C91963  13.516   6.574   5.102  0.5263 -0.3061 -0.3195
  682MOL0     C91964  13.655   6.558   5.040 -0.0784 -0.6700 -0.5592
  682MOL0     O91965  13.677   6.453   4.953  0.4728  0.3139  0.1690
  682MOL0     C91966  13.798   6.448   4.895  0.6152 -0.1163 -0.5407
  682MOL0     C91967  13.920   6.429   4.950  0.1191 -0.0656  0.7318
  682MOL0     C91968  14.040   6.405   4.883 -0.3244 -0.4426  0.6212
  682MOL0     C91969  14.046   6.393   4.744 -0.1231  0.5838 -0.6568
  682MOL0     O91970  14.168   6.374   4.678  0.0819 -0.2359  0.7023
  682MOL0     C91971  14.158   6.331   4.548  0.0957 -1.1769  0.6666
  682MOL0     C91972  14.301   6.325   4.472 -0.1691 -0.3260 -0.6350
  682MOL0     C91973  14.386   6.217   4.542 -0.6844 -0.4658 -0.7464
  682MOL0     C91974  14.456   6.130   4.434 -0.2228  0.6132  0.5604
  682MOL0     C91975  14.556   6.023   4.476  0.7259  0.1090  1.2316
  682MOL0     C91976  14.621   5.947   4.361 -0.8124  0.3368  0.7115
  682MOL0     C91977  14.757   5.895   4.399 -0.1925 -0.4617  0.0410
  682MOL0     C91978  14.806   5.791   4.296 -1.1627  0.4715 -0.0752
  682MOL0    Cl91979  14.722   5.639   4.326 -0.1077  0.2823 -0.0177
  682MOL0     C91980  13.915   6.411   4.680  0.0002  0.2476  0.6165
  682MOL0     C91981  13.797   6.430   4.754 -0.2457 -0.3076 -0.2223
  682MOL0     O91982  13.738   6.646   5.077 -0.0230  0.0959  0.1572
  682MOL0     C91983  13.400   6.509   5.048  1.3160 -0.4706 -0.5296
  682MOL0     C91984  13.268   6.525   5.106  0.0456  0.4196  0.0779
  682MOL0     N91985  12.765   6.971   5.117 -0.9180 -0.4062 -0.3521
  682MOL0     N91986  12.646   7.003   5.070 -0.7122 -0.2513 -0.4479
  682MOL0     C91987  11.332   6.729   5.381 -0.5348 -0.2636  0.7143
  682MOL0     C91988  11.206   6.741   5.453  0.3880 -0.0825  0.4765
  682MOL0     C91989  10.739   6.599   5.472  0.3290 -0.0732 -0.1551
  682MOL0     C91990  10.702   6.674   5.587  0.0767 -0.5517  0.5762
  682MOL0     C91991  10.579   6.666   5.639  0.6363  0.7806 -0.4009
  682MOL0     C91992  10.484   6.576   5.586  0.1387 -1.0019  0.9674
  682MOL0     O91993  10.358   6.560   5.640  0.1179  0.2809  0.1023
  682MOL0     C91994  10.249   6.606   5.553 -0.2819  0.9098 -0.0306
  682MOL0     C91995  10.131   6.654   5.636 -0.0010  0.1682 -0.7382
  682MOL0     C91996  10.005   6.681   5.553 -0.5608 -0.5525  0.1889
  682MOL0     C91997   9.885   6.740   5.634 -0.3528  0.6746  1.0453
  682MOL0     C91998   9.851   6.672   5.763 -0.3915  0.4680  0.3810
  682MOL0     C91999   9.810   6.621   5.866 -0.2538  0.1345  0.2835
  682MOL0     C92000  10.518   6.498   5.478 -0.1427 -0.0325 -0.2311
  682MOL0     C92001  10.642   6.511   5.413 -0.1832 -0.2404 -0.3882
  682MOL0     C92002  10.659   6.419   5.286 -0.1579 -0.7746 -0.0718
  682MOL0     H92003  10.993   6.700   5.191  1.6339 -2.2845 -2.8766
  682MOL0     H92004  11.203   6.720   5.069  0.5464 -1.7181 -0.2870
  682MOL0     H92005  11.553   6.880   5.255  0.4283  0.1429  0.8421
  682MOL0     H92006  11.584   6.715   5.304  2.4375  0.7360 -0.9861
  682MOL0     H92007  11.681   6.829   5.057  4.5340  5.0061  5.0213
  682MOL0     H92008  11.669   6.650   5.093  1.5070 -0.0546 -0.8291
  682MOL0     H92009  11.842   6.676   5.247  1.3999  0.0778 -0.7816
  682MOL0     H92010  11.811   6.855   5.289 -0.0498  0.8331 -0.7258
  682MOL0     H92011  11.936   6.726   5.037 -1.2992  0.8379 -0.2078
  682MOL0     H92012  11.910   6.898   5.065 -3.4075  0.2964  1.1340
  682MOL0     H92013  12.068   6.913   5.254  2.3681 -0.8661  2.3469
  682MOL0     H92014  12.084   6.749   5.268  1.0371  0.4727  0.5083
  682MOL0     H92015  12.181   6.732   5.022  0.1832  0.0649  0.8208
  682MOL0     H92016  12.171   6.900   5.010  0.9418 -0.5608 -1.0221
  682MOL0     H92017  12.332   6.759   5.207  1.4124 -0.5649 -0.9047
  682MOL0     H92018  12.323   6.931   5.197 -0.4746 -1.2418  2.0726
  682MOL0     H92019  12.453   6.755   4.978  1.1925 -0.6506  1.3474
  682MOL0     H92020  12.413   6.927   4.949 -1.1660 -1.8515 -3.4398
  682MOL0     H92021  12.601   6.696   5.184 -0.6189  0.6902  0.3939
  682MOL0     H92022  12.882   6.669   5.213  2.0132 -0.8412  3.1398
  682MOL0     H92023  12.979   6.812   5.172  0.3823  1.6051  1.3734
  682MOL0     H92024  12.913   6.912   5.396 -0.0679 -0.8828 -1.2567
  682MOL0     H92025  12.800   6.784   5.422 -0.0809 -0.3025 -0.4935
  682MOL0     H92026  12.945   6.604   5.450 -0.5047  0.5525  1.1365
  682MOL0     H92027  12.996   6.738   5.556 -0.3460 -3.6968  1.0923
  682MOL0     H92028  13.185   6.647   5.458 -0.4482  0.9795  1.2136
  682MOL0     H92029  13.158   6.806   5.391  0.5517 -0.3071  1.2163
  682MOL0     H92030  13.358   6.756   5.334  1.5991  0.7577 -1.2010
  682MOL0     H92031  13.582   6.713   5.248 -0.4897  2.8703 -1.2260
  682MOL0     H92032  13.937   6.423   5.057  0.9689  1.4912  0.7231
  682MOL0     H92033  14.133   6.395   4.939  1.1462  1.8985 -1.1942
  682MOL0     H92034  14.095   6.242   4.538 -1.8275  0.0473  1.1123
  682MOL0     H92035  14.100   6.402   4.487 -0.3348 -1.4615  0.7357
  682MOL0     H92036  14.282   6.309   4.365 -1.0287  0.2934 -0.5928
  682MOL0     H92037  14.347   6.420   4.500  0.6993 -1.2033  1.0704
  682MOL0     H92038  14.461   6.262   4.608  1.6244 -0.7905 -2.9824
  682MOL0     H92039  14.318   6.148   4.594 -0.1937 -3.4655 -3.7387
  682MOL0     H92040  14.518   6.201   4.378  0.8299 -0.7731 -0.1039
  682MOL0     H92041  14.375   6.089   4.374  0.5982  0.0493 -0.2004
  682MOL0     H92042  14.518   5.950   4.547  0.5320 -0.0313  0.9847
  682MOL0     H92043  14.630   6.083   4.530 -1.7604  0.7047  4.2636
  682MOL0     H92044  14.564   5.863   4.320  1.2215 -0.8784  0.2104
  682MOL0     H92045  14.642   6.009   4.274 -1.4646 -1.0578 -0.4955
  682MOL0     H92046  14.759   5.865   4.504  1.0880  2.9108  1.1470
  682MOL0     H92047  14.819   5.985   4.393  0.0879 -0.6933 -0.6769
  682MOL0     H92048  14.770   5.825   4.199  1.1477 -0.2622 -1.2603
  682MOL0     H92049  14.915   5.785   4.299 -1.0987  1.6336  0.8102
  682MOL0     H92050  13.889   6.398   4.575 -2.6285  1.8849  0.9531
  682MOL0     H92051  13.697   6.441   4.714 -1.3285 -0.2727  2.2533
  682MOL0     H92052  13.410   6.445   4.961  1.7674  1.6546 -2.1317
  682MOL0     H92053  13.182   6.478   5.058  2.4425 -3.5397 -0.8618
  682MOL0     H92054  11.421   6.751   5.440  0.7038 -1.5138 -0.6104
  682MOL0     H92055  11.196   6.745   5.561 -0.9558 -0.4149  0.3729
  682MOL0     H92056  10.775   6.733   5.642  0.6822 -0.0489 -0.7378
  682MOL0     H92057  10.557   6.727   5.726  0.7992  1.5684 -0.9104
  682MOL0     H92058  10.225   6.526   5.482  3.0531 -0.2229 -0.0917
  682MOL0     H92059  10.283   6.700   5.509  3.8539 -0.8303 -1.0834
  682MOL0     H92060  10.171   6.746   5.679  1.1401 -0.0308 -1.3377
  682MOL0     H92061  10.113   6.577   5.711  2.4893 -0.1728 -0.4081
  682MOL0     H92062   9.974   6.597   5.490  0.2513  0.2780 -1.3884
  682MOL0     H92063  10.022   6.756   5.475  0.1425 -1.8127 -0.9086
  682MOL0     H92064   9.896   6.847   5.649 -0.5168  0.6708  1.2050
  682MOL0     H92065   9.800   6.728   5.565  0.6621  0.7123 -0.2437
  682MOL0     H92066   9.804   6.554   5.949 -0.6880  1.0811  1.0272
  682MOL0     H92067  10.445   6.435   5.429  1.4626 -0.4095 -2.2864
  682MOL0     H92068  10.565   6.402   5.231  0.6791 -4.0573 -0.7235
  682MOL0     H92069  10.721   6.452   5.202  1.3367 -3.2242 -0.0340
  682MOL0     H92070  10.717   6.328   5.303  1.4190  0.1293 -0.4764
  683MOL0     O92071   8.596   9.454   3.649  0.3814 -0.2957  0.4348
  683MOL0     C92072   8.600   9.357   3.580  0.0348 -0.3442  0.7144
  683MOL0     O92073   8.709   9.276   3.579  0.8653  1.0315 -0.0273
  683MOL0     C92074   8.825   9.320   3.616 -0.4723  0.1929 -0.8569
  683MOL0     C92075   8.851   9.349   3.751  0.1859 -0.5160  0.6287
  683MOL0     C92076   8.967   9.428   3.782  0.0322 -0.4987  0.2805
  683MOL0     C92077   9.063   9.452   3.682 -0.6124  0.3827 -0.5332
  683MOL0     O92078   9.181   9.517   3.712 -0.2702  0.0627 -0.1857
  683MOL0     C92079   9.301   9.441   3.675 -0.6195  0.8259 -0.3720
  683MOL0     C92080   9.316   9.318   3.770 -0.4940 -0.4186 -0.4210
  683MOL0     C92081   9.353   9.367   3.917 -0.0353 -0.4359  0.4586
  683MOL0     C92082   9.497   9.405   3.949 -0.4203 -0.7313  0.7123
  683MOL0     C92083   9.584   9.277   3.961  0.1956 -0.2497  0.6038
  683MOL0     C92084   9.726   9.311   4.015 -1.0995  0.3160  0.2358
  683MOL0     C92085   9.812   9.187   3.998  0.0310 -0.1971 -0.6518
  683MOL0     C92086   9.959   9.217   4.028 -0.5625 -0.2527 -0.6806
  683MOL0     N92087  10.052   9.252   3.918  0.8485 -0.1730  0.2550
  683MOL0     C92088  10.176   9.206   3.902 -0.3642 -0.1318 -0.4289
  683MOL0     C92089  10.236   9.282   3.812 -0.9001  0.0416 -0.0943
  683MOL0     C92090  10.384   9.287   3.781  0.0444  0.2653  0.7968
  683MOL0     C92091  10.417   9.169   3.692 -0.4088  0.1515  0.7003
  683MOL0     C92092  10.564   9.178   3.644 -0.3991  0.2311  0.0471
  683MOL0     C92093  10.608   9.074   3.542 -0.0841  0.3227 -0.0514
  683MOL0     O92094  10.735   9.085   3.472  0.1275 -0.3641  0.6412
  683MOL0     C92095  10.847   9.078   3.548  0.1852 -0.4820  0.4306
  683MOL0     C92096  10.956   9.142   3.494  0.1813  0.2309 -0.4992
  683MOL0     C92097  11.073   9.154   3.561 -0.4090  0.7818  1.0995
  683MOL0     C92098  11.088   9.095   3.689  1.1150  0.1429  0.0106
  683MOL0     C92099  11.214   9.097   3.766 -0.3073  1.0952  0.6990
  683MOL0     O92100  11.231   8.997   3.862 -0.0748  0.3829 -0.0354
  683MOL0     C92101  11.350   8.990   3.929  0.3850  0.7880 -0.9376
  683MOL0     C92102  11.433   8.875   3.925 -0.2411 -1.0040 -0.2040
  683MOL0     C92103  11.564   8.897   3.981 -0.2385 -0.2004 -0.5208
  683MOL0     C92104  11.592   9.008   4.062  0.5384  0.1898  0.6588
  683MOL0     O92105  11.718   9.024   4.117 -0.2526  0.1192 -0.6991
  683MOL0     C92106  11.818   8.930   4.080 -0.2598  0.9023  0.0490
  683MOL0     C92107  11.957   8.966   4.136 -0.5442  0.2184  0.7238
  683MOL0     C92108  11.966   8.958   4.289 -0.2877 -0.1675  0.4708
  683MOL0     C92109  12.104   9.012   4.336  0.7327 -0.3104  0.3277
  683MOL0     C92110  12.130   8.958   4.479 -0.1737 -0.0704  1.1209
  683MOL0     C92111  12.049   9.019   4.597 -1.3076 -0.8363 -0.0011
  683MOL0     C92112  11.995   8.924   4.700 -0.4191 -0.0236  0.6107
  683MOL0     C92113  12.108   8.835   4.756  0.4672  0.7524  1.0012
  683MOL0    Cl92114  12.267   8.896   4.794 -0.4601 -0.4404 -0.0081
  683MOL0     C92115  11.505   9.107   4.073 -0.6625 -0.3648  0.0647
  683MOL0     C92116  11.386   9.102   4.004  1.0291 -0.2655  0.4015
  683MOL0     O92117  11.295   9.182   3.732  0.4544  0.9132  0.4815
  683MOL0     C92118  10.981   9.030   3.734 -0.2700  0.2203 -0.8143
  683MOL0     C92119  10.857   9.018   3.674  0.3035  0.3087 -0.0125
  683MOL0     N92120  10.145   9.371   3.759 -0.1120  1.2937  0.6342
  683MOL0     N92121  10.034   9.343   3.821 -0.0921 -0.0743  0.0631
  683MOL0     C92122   9.037   9.419   3.554  0.1850 -0.8788  0.5642
  683MOL0     C92123   8.916   9.358   3.522 -0.6867 -0.1002 -0.7435
  683MOL0     C92124   8.474   9.300   3.520 -0.6242  0.6465  0.0519
  683MOL0     C92125   8.476   9.168   3.479  0.0396 -0.0754  0.3864
  683MOL0     C92126   8.370   9.114   3.407  0.2058  1.2953 -0.1642
  683MOL0     C92127   8.258   9.190   3.376 -0.0868 -0.3244 -0.5814
  683MOL0     O92128   8.136   9.147   3.325  0.7493  0.4201  0.1361
  683MOL0     C92129   8.095   9.012   3.349  0.1634  0.1618  0.2201
  683MOL0     C92130   8.033   8.990   3.479  0.1350 -0.1324  0.2022
  683MOL0     C92131   7.896   9.063   3.477 -0.4430 -0.3857  0.1765
  683MOL0     C92132   7.813   9.028   3.605 -0.1433  0.8962  0.7021
  683MOL0     C92133   7.735   8.908   3.598 -0.1498 -0.3650 -0.5163
  683MOL0     C92134   7.674   8.807   3.602  0.8757  0.1000 -0.2736
  683MOL0     C92135   8.265   9.323   3.404 -0.3315 -0.9637 -0.2064
  683MOL0     C92136   8.368   9.384   3.473 -1.1185  1.0571 -0.0938
  683MOL0     C92137   8.352   9.528   3.515  0.1994 -0.5455 -0.0362
  683MOL0     H92138   8.779   9.320   3.827 -0.4436  2.8862  1.5058
  683MOL0     H92139   8.986   9.456   3.886  3.4222  0.7477 -0.5442
  683MOL0     H92140   9.294   9.405   3.572 -0.8970  1.4064 -0.5605
  683MOL0     H92141   9.394   9.497   3.663 -1.2745  1.7694 -1.2469
  683MOL0     H92142   9.405   9.267   3.734 -0.4268  0.0910 -0.9963
  683MOL0     H92143   9.231   9.249   3.778 -0.8790  0.0766 -0.1180
  683MOL0     H92144   9.331   9.278   3.978 -1.3450  0.4128  1.2645
  683MOL0     H92145   9.292   9.455   3.939  0.2006  0.5708 -2.5465
  683MOL0     H92146   9.536   9.479   3.878 -2.6085 -0.5006 -0.3409
  683MOL0     H92147   9.487   9.464   4.040 -2.1818 -0.4932  0.3935
  683MOL0     H92148   9.531   9.203   4.021 -0.2361 -0.4237  0.0187
  683MOL0     H92149   9.596   9.238   3.860 -2.8440 -1.4693  0.6035
  683MOL0     H92150   9.769   9.400   3.969 -1.4798  1.1561  1.4450
  683MOL0     H92151   9.724   9.321   4.124 -4.3462 -0.1748  0.3017
  683MOL0     H92152   9.811   9.160   3.892  2.0567  1.2519 -1.1193
  683MOL0     H92153   9.763   9.107   4.054 -1.3965  2.1683  1.7310
  683MOL0     H92154   9.977   9.303   4.094 -2.7848 -0.0177 -0.3029
  683MOL0     H92155  10.006   9.128   4.071  2.0186  1.4493  0.2453
  683MOL0     H92156  10.236   9.133   3.955  1.2444 -0.1899 -2.2210
  683MOL0     H92157  10.410   9.372   3.718  1.3575 -0.2914  0.5646
  683MOL0     H92158  10.438   9.292   3.876  1.2388  2.5820  0.0627
  683MOL0     H92159  10.386   9.076   3.741  0.7174 -0.8763 -0.4669
  683MOL0     H92160  10.354   9.173   3.603  0.3865 -1.6842 -0.0032
  683MOL0     H92161  10.618   9.165   3.738  0.9512  1.8241 -0.4560
  683MOL0     H92162  10.586   9.276   3.601 -0.3812 -0.0572 -0.6261
  683MOL0     H92163  10.527   9.076   3.469 -0.6639  0.2836  0.5860
  683MOL0     H92164  10.599   8.967   3.565  0.9008  0.1350 -0.4666
  683MOL0     H92165  10.936   9.194   3.401  1.0743 -1.5873 -1.7610
  683MOL0     H92166  11.158   9.209   3.522  0.8462 -1.2931  0.7679
  683MOL0     H92167  11.403   8.789   3.866 -3.0733  0.1313 -0.6372
  683MOL0     H92168  11.631   8.813   3.967 -1.6064 -1.3363 -0.4772
  683MOL0     H92169  11.801   8.830   4.120 -2.4902  0.8172 -0.9729
  683MOL0     H92170  11.827   8.924   3.971 -0.4219 -0.3160  0.0888
  683MOL0     H92171  12.033   8.899   4.095 -0.9164 -0.4750  1.1246
  683MOL0     H92172  11.978   9.068   4.104  0.3727 -0.4293 -0.8118
  683MOL0     H92173  11.877   9.015   4.319 -2.5787 -4.0045  1.6375
  683MOL0     H92174  11.947   8.853   4.315  1.9302 -0.7234  0.0434
  683MOL0     H92175  12.089   9.120   4.333  0.1764 -0.4067 -1.5266
  683MOL0     H92176  12.178   8.973   4.266  1.4009 -1.0373  1.3964
  683MOL0     H92177  12.238   8.974   4.484  0.0689 -1.3363  0.3954
  683MOL0     H92178  12.122   8.850   4.467  2.7668 -0.1733 -1.1248
  683MOL0     H92179  12.116   9.087   4.651 -1.1399 -1.7823  1.0251
  683MOL0     H92180  11.961   9.068   4.554 -0.0554  0.6918 -0.9271
  683MOL0     H92181  11.905   8.871   4.668  0.9843 -1.1040 -1.7702
  683MOL0     H92182  11.960   8.996   4.775  0.9554  0.2955  0.9757
  683MOL0     H92183  12.077   8.789   4.850  0.0704  0.2961  0.6481
  683MOL0     H92184  12.122   8.749   4.691  0.0678  0.2866  1.5214
  683MOL0     H92185  11.532   9.191   4.136 -0.9034 -1.1734  1.2969
  683MOL0     H92186  11.318   9.186   3.993  1.2996 -0.1491 -0.4622
  683MOL0     H92187  10.999   8.976   3.826  2.0866  0.1366 -1.2763
  683MOL0     H92188  10.777   8.961   3.719 -0.4184  0.7041 -0.7720
  683MOL0     H92189   9.112   9.446   3.481 -0.6722 -1.7599 -0.7079
  683MOL0     H92190   8.899   9.338   3.416 -0.5048 -1.0910 -0.5942
  683MOL0     H92191   8.552   9.093   3.503  0.8176  0.9940  1.3693
  683MOL0     H92192   8.366   9.006   3.391  3.5247  0.7809  1.5462
  683MOL0     H92193   8.182   8.947   3.342 -0.6107 -0.8353 -0.5589
  683MOL0     H92194   8.027   8.977   3.270  0.1623  0.1016  0.2478
  683MOL0     H92195   8.094   9.021   3.564  1.1910 -1.0040 -0.2030
  683MOL0     H92196   8.021   8.882   3.494  1.2866 -0.1348  1.2950
  683MOL0     H92197   7.839   9.031   3.389 -0.8454 -3.2111  1.3504
  683MOL0     H92198   7.901   9.172   3.466 -1.3787 -0.4625 -1.4337
  683MOL0     H92199   7.874   9.037   3.695  0.3246  1.6574  0.3208
  683MOL0     H92200   7.748   9.117   3.601  0.8743  1.6204 -0.5996
  683MOL0     H92201   7.613   8.721   3.621  0.1593  0.4953 -0.7116
  683MOL0     H92202   8.177   9.384   3.382  2.2848  3.1791 -0.2031
  683MOL0     H92203   8.422   9.591   3.459  0.4059 -1.2459 -0.5788
  683MOL0     H92204   8.252   9.565   3.491  0.1602  0.7407  1.8433
  683MOL0     H92205   8.357   9.545   3.623 -2.6418 -1.5795  0.3497
  684MOL0     O92206  10.266   4.226   4.898  0.9937 -0.0212 -0.1532
  684MOL0     C92207  10.267   4.114   4.845  0.6717 -0.7135 -0.3765
  684MOL0     O92208  10.381   4.035   4.825 -0.3331  0.1232 -0.2833
  684MOL0     C92209  10.497   4.096   4.864  0.2247 -0.7385 -0.4161
  684MOL0     C92210  10.554   4.080   4.990 -0.1765 -0.4063 -0.3001
  684MOL0     C92211  10.677   4.142   5.018  0.6195  0.3289 -0.1821
  684MOL0     C92212  10.729   4.225   4.923 -0.4370 -0.3137 -0.5527
  684MOL0     O92213  10.838   4.303   4.963 -0.4681 -0.3991  0.2170
  684MOL0     C92214  10.959   4.260   4.898  0.2398  1.2383 -0.1059
  684MOL0     C92215  11.056   4.381   4.885 -0.0341 -0.3187 -0.1761
  684MOL0     C92216  10.997   4.468   4.776 -0.4486 -0.1277 -0.4458
  684MOL0     C92217  11.093   4.596   4.755 -0.0892  0.6940  0.1455
  684MOL0     C92218  11.040   4.690   4.647  0.5386  0.1998  0.6785
  684MOL0     C92219  11.108   4.828   4.666  0.1466 -1.4244 -0.0467
  684MOL0     C92220  11.059   4.926   4.559  0.6566 -0.2188 -0.1924
  684MOL0     C92221  11.131   5.059   4.567  0.0050  0.2559  0.3198
  684MOL0     N92222  11.259   5.036   4.499  0.2578 -0.2179  0.1554
  684MOL0     C92223  11.373   4.977   4.542 -0.2361 -0.5365  0.3087
  684MOL0     C92224  11.456   4.966   4.431 -0.3941 -0.3665  0.4642
  684MOL0     C92225  11.595   4.896   4.445 -0.3115 -0.2943  0.0777
  684MOL0     C92226  11.599   4.742   4.455  0.0081 -0.1691 -0.7547
  684MOL0     C92227  11.506   4.677   4.558  0.4463 -0.2339  0.3126
  684MOL0     C92228  11.564   4.671   4.696 -0.0156 -0.6914  0.2691
  684MOL0     O92229  11.492   4.583   4.788 -0.3468  0.6969 -1.0115
  684MOL0     C92230  11.535   4.585   4.924  0.2332  0.3884 -0.0735
  684MOL0     C92231  11.668   4.591   4.971  0.3557 -0.1459 -0.8924
  684MOL0     C92232  11.685   4.588   5.108 -0.4719  0.2015 -0.4994
  684MOL0     C92233  11.574   4.576   5.196  0.3075  0.5771 -0.4636
  684MOL0     C92234  11.592   4.555   5.344  0.4328  0.0346 -0.5670
  684MOL0     O92235  11.494   4.485   5.414 -0.0302 -0.4148 -0.5689
  684MOL0     C92236  11.506   4.458   5.549  1.0490  0.8620  0.4617
  684MOL0     C92237  11.525   4.547   5.659  0.1156  0.3458  0.0951
  684MOL0     C92238  11.553   4.512   5.790 -0.2069  0.1355 -0.0500
  684MOL0     C92239  11.543   4.377   5.822 -0.5045  0.5103 -0.2641
  684MOL0     O92240  11.569   4.330   5.948  0.4888 -0.1529 -0.3861
  684MOL0     C92241  11.449   4.301   6.030  0.0048  0.1336 -0.5420
  684MOL0     C92242  11.514   4.273   6.169  0.3294  0.0253 -0.1628
  684MOL0     C92243  11.406   4.244   6.266  0.6231  0.2426  0.0255
  684MOL0     C92244  11.450   4.179   6.399  0.2697  0.2093 -0.4440
  684MOL0     C92245  11.330   4.152   6.489  0.0140 -0.0174 -0.1690
  684MOL0     C92246  11.233   4.261   6.514 -0.8532 -0.5322 -0.4181
  684MOL0     C92247  11.167   4.230   6.642  0.1244  0.6711  0.1982
  684MOL0     C92248  11.059   4.324   6.663  0.6486 -0.3851  0.0059
  684MOL0    Cl92249  10.915   4.280   6.553  0.1568  0.1679  0.2162
  684MOL0     C92250  11.509   4.279   5.722 -0.6919 -0.1794  0.3591
  684MOL0     C92251  11.494   4.321   5.587  0.4301 -0.4303 -0.1377
  684MOL0     O92252  11.692   4.607   5.396  0.0093 -0.1254  0.6498
  684MOL0     C92253  11.441   4.561   5.144 -0.9262  0.4032 -0.3647
  684MOL0     C92254  11.423   4.562   5.006 -0.3513 -0.3743 -0.0002
  684MOL0     N92255  11.391   5.021   4.322 -0.3399 -0.7693 -0.2177
  684MOL0     N92256  11.272   5.059   4.364  0.5726 -0.0937  0.6578
  684MOL0     C92257  10.663   4.251   4.802 -0.0750 -0.9157  0.0415
  684MOL0     C92258  10.547   4.180   4.769  0.2539 -0.1215  0.1042
  684MOL0     C92259  10.135   4.063   4.791  0.9147  0.2044  0.4987
  684MOL0     C92260  10.138   3.930   4.742  0.8134  0.7038 -0.4829
  684MOL0     C92261  10.028   3.870   4.673 -0.1457 -0.1565  0.7139
  684MOL0     C92262   9.909   3.937   4.687 -0.2584  0.0303 -0.7709
  684MOL0     O92263   9.790   3.887   4.649  0.4375  0.2807 -0.3698
  684MOL0     C92264   9.739   3.790   4.738  0.8954 -0.4033  0.3769
  684MOL0     C92265   9.650   3.692   4.663  0.1810  1.4949  0.9223
  684MOL0     C92266   9.724   3.612   4.558 -0.4871 -0.5779  0.3276
  684MOL0     C92267   9.648   3.490   4.510  0.3750  0.0270 -0.8224
  684MOL0     C92268   9.539   3.531   4.432 -0.4273  1.1885 -0.5035
  684MOL0     C92269   9.445   3.571   4.368  0.2463  0.1788 -0.4595
  684MOL0     C92270   9.900   4.070   4.734  0.1287  0.7191 -0.0310
  684MOL0     C92271  10.008   4.140   4.780 -0.5680  0.2684 -0.0489
  684MOL0     C92272   9.978   4.289   4.813  0.3054  0.0275 -0.0897
  684MOL0     H92273  10.511   4.008   5.059  1.3158  1.1277  2.3781
  684MOL0     H92274  10.731   4.115   5.108 -1.2287  0.2916  0.9712
  684MOL0     H92275  11.001   4.184   4.964  0.2322 -0.8483 -2.3311
  684MOL0     H92276  10.934   4.220   4.799  2.2655  1.3509 -0.7046
  684MOL0     H92277  11.161   4.360   4.860  0.7029 -0.6431  2.8219
  684MOL0     H92278  11.057   4.433   4.982  0.6290  0.6077 -0.6591
  684MOL0     H92279  10.899   4.504   4.811 -0.9668  0.1167 -2.0852
  684MOL0     H92280  10.994   4.418   4.679  1.1330  0.5532 -0.8742
  684MOL0     H92281  11.099   4.647   4.852  1.6699 -0.7142  0.8420
  684MOL0     H92282  11.190   4.563   4.717  0.4598  1.0017  1.2434
  684MOL0     H92283  11.067   4.666   4.543 -0.5749  0.5951  0.2742
  684MOL0     H92284  10.931   4.700   4.652  0.6814  2.0232  0.7409
  684MOL0     H92285  11.063   4.855   4.762 -2.3468 -2.7822 -0.7415
  684MOL0     H92286  11.216   4.814   4.657  0.1052 -2.0425  0.3891
  684MOL0     H92287  10.955   4.947   4.582  1.0505  3.2590 -1.0480
  684MOL0     H92288  11.054   4.881   4.460  0.3461  1.1802 -0.8287
  684MOL0     H92289  11.074   5.129   4.505  1.4648  1.7753  0.6315
  684MOL0     H92290  11.156   5.097   4.666  0.6755  1.1188 -0.1740
  684MOL0     H92291  11.402   4.934   4.637 -0.0849  1.0019  0.9914
  684MOL0     H92292  11.647   4.927   4.354 -3.1322  2.1153 -0.8817
  684MOL0     H92293  11.642   4.941   4.533 -0.7998  1.6486 -0.6125
  684MOL0     H92294  11.568   4.687   4.365  1.1433 -0.7719 -0.7878
  684MOL0     H92295  11.703   4.716   4.471  0.9643  0.2740 -4.9427
  684MOL0     H92296  11.485   4.573   4.534  0.0554 -0.0327 -0.2419
  684MOL0     H92297  11.403   4.716   4.551  0.2375 -0.9818 -1.1402
  684MOL0     H92298  11.572   4.775   4.728  0.8250 -0.5840 -0.2636
  684MOL0     H92299  11.669   4.642   4.697 -0.0505 -0.8079  0.9823
  684MOL0     H92300  11.747   4.614   4.900  0.4469  0.3204 -0.6395
  684MOL0     H92301  11.782   4.605   5.152 -1.8839 -1.4974  3.8002
  684MOL0     H92302  11.538   4.652   5.638 -0.0715  0.3487 -0.0125
  684MOL0     H92303  11.588   4.574   5.871 -0.2736 -0.6926  0.6271
  684MOL0     H92304  11.375   4.382   6.036  0.1310  0.2239 -0.0981
  684MOL0     H92305  11.402   4.208   6.001 -0.2554  0.1807 -0.2770
  684MOL0     H92306  11.591   4.195   6.167  1.0538  0.6063  2.2745
  684MOL0     H92307  11.564   4.361   6.209  1.5560 -0.0163 -1.5052
  684MOL0     H92308  11.344   4.331   6.290 -1.7132 -1.0571 -0.9332
  684MOL0     H92309  11.341   4.174   6.213 -0.5831  1.1112  0.3077
  684MOL0     H92310  11.519   4.250   6.445 -2.3007  1.5023  1.7089
  684MOL0     H92311  11.491   4.081   6.375 -0.0206  0.1430 -0.6744
  684MOL0     H92312  11.372   4.109   6.581  0.9605  0.4821 -0.3579
  684MOL0     H92313  11.273   4.073   6.438 -2.1365  1.0722  0.4354
  684MOL0     H92314  11.302   4.345   6.530  1.0261 -2.1766  0.4494
  684MOL0     H92315  11.161   4.276   6.433 -2.6765  0.6173  1.3258
  684MOL0     H92316  11.240   4.242   6.723 -1.2832 -0.5375  1.7053
  684MOL0     H92317  11.128   4.128   6.633  0.1478  0.5157  1.5700
  684MOL0     H92318  11.030   4.314   6.768  1.0136  2.9600  0.5427
  684MOL0     H92319  11.091   4.426   6.640 -0.8743 -0.3876 -2.5443
  684MOL0     H92320  11.493   4.174   5.744 -1.4388 -0.1245  0.0878
  684MOL0     H92321  11.477   4.244   5.512 -1.9192  0.6414 -0.8153
  684MOL0     H92322  11.360   4.542   5.213 -0.4067 -0.8287 -0.0597
  684MOL0     H92323  11.323   4.546   4.969  0.6760 -0.1779 -3.1331
  684MOL0     H92324  10.698   4.329   4.735 -2.2423 -1.2084 -1.5247
  684MOL0     H92325  10.493   4.198   4.677  2.7915 -0.3156 -1.5111
  684MOL0     H92326  10.236   3.888   4.724  0.7968  0.9570 -1.2078
  684MOL0     H92327  10.040   3.774   4.624  0.3016  1.5971 -2.9483
  684MOL0     H92328   9.675   3.832   4.816 -0.9188 -2.8997  0.3829
  684MOL0     H92329   9.815   3.739   4.797  2.9045  0.5235 -1.2857
  684MOL0     H92330   9.573   3.746   4.608  1.2480  4.4539  2.1211
  684MOL0     H92331   9.614   3.612   4.728 -0.8614 -0.2726 -1.7135
  684MOL0     H92332   9.817   3.577   4.604  0.0150  1.5558  1.0512
  684MOL0     H92333   9.749   3.683   4.479 -1.4125 -1.2143 -0.5527
  684MOL0     H92334   9.716   3.418   4.463  2.5549  2.9755 -2.4835
  684MOL0     H92335   9.605   3.454   4.604  3.0855  1.5878  1.1613
  684MOL0     H92336   9.359   3.621   4.328 -0.1135 -1.4016 -1.7580
  684MOL0     H92337   9.802   4.118   4.735 -1.4403 -2.2666  1.2235
  684MOL0     H92338   9.972   4.353   4.725 -2.0595 -2.0935 -1.6228
  684MOL0     H92339   9.878   4.302   4.855 -1.1869  2.9137 -3.9511
  684MOL0     H92340  10.043   4.336   4.887  0.5362 -0.5118  0.0579
  685MOL0     O92341   4.977   0.306   5.593  0.1285  0.6199 -0.0475
  685MOL0     C92342   4.936   0.387   5.670  0.3295 -0.0773 -0.2745
  685MOL0     O92343   5.006   0.441   5.775 -0.5121 -1.0446  0.3865
  685MOL0     C92344   5.138   0.408   5.798  0.4562 -0.0394  1.0092
  685MOL0     C92345   5.241   0.387   5.704  0.0196 -0.5079 -0.4444
  685MOL0     C92346   5.371   0.369   5.731  0.2329 -0.4977 -0.3101
  685MOL0     C92347   5.416   0.386   5.865 -0.1725 -0.9196 -0.0242
  685MOL0     O92348   5.553   0.383   5.902  0.0012 -0.5520  0.8997
  685MOL0     C92349   5.648   0.406   5.793 -0.6323 -0.1706 -0.5774
  685MOL0     C92350   5.793   0.355   5.839  0.1825 -0.7051 -1.0481
  685MOL0     C92351   5.825   0.420   5.979 -0.3573  0.0025 -0.4507
  685MOL0     C92352   5.958   0.366   6.026  0.0917  0.4039 -0.5626
  685MOL0     C92353   6.010   0.413   6.158  0.3987  0.6732  0.1288
  685MOL0     C92354   6.146   0.356   6.173 -0.0776  0.2359  0.1443
  685MOL0     C92355   6.214   0.399   6.304 -0.1234 -0.3202  0.3856
  685MOL0     C92356   6.363   0.356   6.308 -0.5602 -0.0311 -0.4225
  685MOL0     N92357   6.423   0.366   6.443 -0.2205  0.1764 -0.4344
  685MOL0     C92358   6.449   0.485   6.506 -0.2929 -0.4766  0.3889
  685MOL0     C92359   6.511   0.447   6.616  0.1768 -0.6795 -0.5193
  685MOL0     C92360   6.574   0.543   6.707  0.1311 -0.6448  0.0359
  685MOL0     C92361   6.698   0.479   6.792 -0.8844  0.3562  0.2953
  685MOL0     C92362   6.781   0.573   6.879 -0.9388  0.6519  0.2771
  685MOL0     C92363   6.891   0.493   6.966  0.2110  0.3055  0.1726
  685MOL0     O92364   6.987   0.425   6.878  0.4137  0.0915  0.2651
  685MOL0     C92365   7.112   0.467   6.895  0.4785 -0.2146  0.6633
  685MOL0     C92366   7.189   0.490   7.013  0.1792  0.4507 -0.6278
  685MOL0     C92367   7.317   0.547   7.006 -0.1090 -0.2469 -0.3376
  685MOL0     C92368   7.378   0.572   6.881  0.1451  0.4253  0.4543
  685MOL0     C92369   7.522   0.608   6.873  0.1022 -0.5198 -0.1575
  685MOL0     O92370   7.577   0.656   6.751  0.4229 -0.5012  0.2316
  685MOL0     C92371   7.705   0.690   6.733  0.0545 -0.1624 -0.3334
  685MOL0     C92372   7.735   0.769   6.624  0.8522 -0.3333  0.6144
  685MOL0     C92373   7.859   0.820   6.595 -0.8956  0.3633 -0.3055
  685MOL0     C92374   7.968   0.786   6.683 -0.2049 -0.1160 -0.0120
  685MOL0     O92375   8.091   0.839   6.671 -0.5042  0.9728 -0.2972
  685MOL0     C92376   8.092   0.978   6.670 -0.3008 -0.2562  0.1067
  685MOL0     C92377   8.237   1.019   6.708  0.1590  0.1618 -0.7109
  685MOL0     C92378   8.239   1.170   6.731  0.4141  0.2518  0.6753
  685MOL0     C92379   8.379   1.227   6.734 -0.1412 -0.1853  0.4635
  685MOL0     C92380   8.474   1.186   6.621 -0.3069 -0.6576 -0.0608
  685MOL0     C92381   8.597   1.288   6.621  0.5330 -0.5405  0.7027
  685MOL0     C92382   8.724   1.226   6.551 -0.5686  0.2430 -0.4082
  685MOL0     C92383   8.703   1.180   6.405 -0.4333  0.5917  0.5586
  685MOL0    Cl92384   8.694   1.331   6.304  0.4447  0.0556 -0.6332
  685MOL0     C92385   7.935   0.693   6.784  0.6106  0.6156 -0.5318
  685MOL0     C92386   7.810   0.651   6.817 -0.6132 -0.5525  0.3216
  685MOL0     O92387   7.583   0.611   6.983  0.1900  0.0098  0.1608
  685MOL0     C92388   7.303   0.538   6.764 -0.3508 -0.9077 -0.1694
  685MOL0     C92389   7.174   0.494   6.772  0.5614  0.1547  0.5591
  685MOL0     N92390   6.507   0.313   6.631 -0.1671  0.1874 -0.4491
  685MOL0     N92391   6.457   0.264   6.525  0.7053  0.6248  0.6882
  685MOL0     C92392   5.322   0.395   5.968  0.1651 -0.5701 -0.8054
  685MOL0     C92393   5.179   0.407   5.936 -0.1155 -0.9593 -0.4813
  685MOL0     C92394   4.804   0.456   5.649  0.3777 -0.0064  0.7124
  685MOL0     C92395   4.788   0.588   5.705  0.0613  0.7333  0.6641
  685MOL0     C92396   4.675   0.660   5.670 -0.4125  0.0552 -1.2415
  685MOL0     C92397   4.572   0.602   5.601  0.3089 -0.4820 -0.9122
  685MOL0     O92398   4.465   0.689   5.571 -0.3971 -0.5460 -0.6475
  685MOL0     C92399   4.355   0.656   5.484 -0.3065  0.4417 -0.3400
  685MOL0     C92400   4.263   0.566   5.556 -0.8455  0.5911 -0.0140
  685MOL0     C92401   4.182   0.478   5.458 -0.0327 -1.3391 -0.2923
  685MOL0     C92402   4.161   0.332   5.509  0.2606 -0.1613  0.1284
  685MOL0     C92403   4.270   0.263   5.567  0.3626 -0.0000  0.3021
  685MOL0     C92404   4.359   0.222   5.643  0.6109  1.0152  0.7559
  685MOL0     C92405   4.586   0.475   5.550 -0.7188  0.6182  0.1787
  685MOL0     C92406   4.693   0.396   5.580  0.3528  0.1999 -0.4625
  685MOL0     C92407   4.692   0.257   5.540 -0.6022  0.1534  1.1287
  685MOL0     H92408   5.206   0.383   5.602  1.1534  1.2360 -0.9414
  685MOL0     H92409   5.432   0.342   5.645 -1.1200 -0.6406 -1.2514
  685MOL0     H92410   5.621   0.351   5.703 -3.0239 -1.5068  0.8496
  685MOL0     H92411   5.674   0.507   5.759  0.5974 -0.9814 -2.1846
  685MOL0     H92412   5.870   0.382   5.766 -0.6634  2.1112 -1.0180
  685MOL0     H92413   5.796   0.245   5.839 -0.7255 -0.7441 -1.7961
  685MOL0     H92414   5.760   0.410   6.066  0.9933  0.6028  0.6853
  685MOL0     H92415   5.842   0.527   5.963  1.9619 -0.4284 -1.2923
  685MOL0     H92416   5.943   0.258   6.016 -0.9152  0.5348 -0.5389
  685MOL0     H92417   6.035   0.391   5.952 -0.5575  0.4281 -1.2475
  685MOL0     H92418   6.006   0.522   6.157  0.9920  0.7011 -1.1968
  685MOL0     H92419   5.935   0.379   6.230  0.3440 -0.1289 -0.2890
  685MOL0     H92420   6.153   0.247   6.176 -0.5405  0.2189  0.8710
  685MOL0     H92421   6.202   0.410   6.096  0.8574  0.3332  0.8593
  685MOL0     H92422   6.167   0.358   6.394  0.7697 -0.6203  0.7270
  685MOL0     H92423   6.204   0.508   6.314 -0.7022 -0.2825 -0.4511
  685MOL0     H92424   6.367   0.250   6.282  2.2773  0.4165 -2.2370
  685MOL0     H92425   6.416   0.406   6.227  1.5208 -1.1977  0.1318
  685MOL0     H92426   6.418   0.585   6.479 -2.5840 -1.2043  0.1032
  685MOL0     H92427   6.613   0.628   6.650 -0.7791 -0.5707 -0.4930
  685MOL0     H92428   6.494   0.574   6.775 -0.3028 -1.0160 -0.2969
  685MOL0     H92429   6.662   0.398   6.856  0.6591 -0.0786  0.6448
  685MOL0     H92430   6.767   0.418   6.732  1.2574  0.6746  2.2652
  685MOL0     H92431   6.709   0.628   6.941 -1.1732 -0.0239  0.6199
  685MOL0     H92432   6.832   0.651   6.822 -1.6482  0.7431 -0.2552
  685MOL0     H92433   6.841   0.420   7.030 -1.5197  1.4272  0.1623
  685MOL0     H92434   6.942   0.565   7.030  0.2432 -1.9233  2.8235
  685MOL0     H92435   7.150   0.467   7.112  2.5609  3.3155  1.1374
  685MOL0     H92436   7.380   0.557   7.094  1.3488 -2.3664 -1.0563
  685MOL0     H92437   7.648   0.813   6.576  0.7203  1.7798  2.6258
  685MOL0     H92438   7.879   0.887   6.511  1.9454 -0.5733 -0.4973
  685MOL0     H92439   8.070   1.006   6.566 -2.4876 -1.0517  0.3062
  685MOL0     H92440   8.024   1.037   6.732  0.0742  0.7324 -0.4025
  685MOL0     H92441   8.271   0.963   6.796  1.5336 -0.9075 -1.8720
  685MOL0     H92442   8.301   0.983   6.627  1.8541 -1.2410  1.1512
  685MOL0     H92443   8.181   1.215   6.650 -0.5276 -1.2412  0.4889
  685MOL0     H92444   8.193   1.181   6.830 -1.3255 -2.5409  0.2761
  685MOL0     H92445   8.421   1.200   6.832 -0.8265  1.3335  1.2135
  685MOL0     H92446   8.381   1.336   6.731  0.2129 -0.1018  2.2342
  685MOL0     H92447   8.427   1.195   6.523  0.2117 -1.0472 -0.3523
  685MOL0     H92448   8.508   1.083   6.630 -0.5321 -0.8885 -1.6344
  685MOL0     H92449   8.570   1.382   6.572  1.6840 -0.5753 -0.0423
  685MOL0     H92450   8.617   1.308   6.726  0.0986  0.3388  0.6220
  685MOL0     H92451   8.754   1.143   6.615  0.2905 -2.7030 -4.2171
  685MOL0     H92452   8.800   1.304   6.556  0.4083 -0.7035  4.6211
  685MOL0     H92453   8.783   1.118   6.364 -0.1537  1.5037 -0.3270
  685MOL0     H92454   8.613   1.119   6.392  0.2872 -0.1521 -1.2255
  685MOL0     H92455   8.021   0.652   6.837  0.3878 -2.8719 -2.5387
  685MOL0     H92456   7.794   0.587   6.904  1.7419 -0.0908  1.1653
  685MOL0     H92457   7.343   0.534   6.663 -0.3917 -1.6919 -0.1646
  685MOL0     H92458   7.127   0.467   6.679  1.2806  1.0753 -0.0946
  685MOL0     H92459   5.351   0.381   6.072 -1.9482  0.5697  0.0135
  685MOL0     H92460   5.107   0.421   6.017 -1.0489  0.1003 -1.4532
  685MOL0     H92461   4.866   0.634   5.766 -1.6388 -0.1223  3.6663
  685MOL0     H92462   4.664   0.762   5.705 -2.4486 -0.0947 -1.2937
  685MOL0     H92463   4.396   0.606   5.395  0.2139  1.4270 -0.6671
  685MOL0     H92464   4.302   0.745   5.450 -1.6011  0.0694  0.6549
  685MOL0     H92465   4.195   0.626   5.617  1.2646  0.2806  2.8189
  685MOL0     H92466   4.320   0.508   5.629 -0.9742 -0.4004 -0.6838
  685MOL0     H92467   4.229   0.481   5.359 -1.1412  3.7108 -0.9259
  685MOL0     H92468   4.092   0.530   5.425 -1.6222 -4.0773 -0.5189
  685MOL0     H92469   4.073   0.335   5.574  0.0057  1.0988 -0.2474
  685MOL0     H92470   4.136   0.276   5.419  1.0710  1.2826 -1.0421
  685MOL0     H92471   4.433   0.180   5.707  0.2748 -2.0373 -0.6920
  685MOL0     H92472   4.500   0.435   5.496 -1.0189 -0.1138  1.1807
  685MOL0     H92473   4.711   0.203   5.634 -0.1928  0.1152  1.0255
  685MOL0     H92474   4.597   0.221   5.500  0.3929 -2.0131  0.5830
  685MOL0     H92475   4.777   0.232   5.477 -1.1592 -3.4889  1.5914
  686MOL0     O92476   7.255   6.655   9.066 -0.0337  0.4485 -0.1849
  686MOL0     C92477   7.243   6.617   8.942 -0.3207  0.0427 -0.8170
  686MOL0     O92478   7.337   6.556   8.875 -0.5775 -0.4771 -0.1549
  686MOL0     C92479   7.463   6.553   8.923 -0.1689  1.1406  0.4452
  686MOL0     C92480   7.541   6.665   8.949 -0.5464  0.7741  0.2281
  686MOL0     C92481   7.677   6.646   8.991  0.7726  0.3466  0.4745
  686MOL0     C92482   7.720   6.518   9.010  0.2814  0.2564 -0.5188
  686MOL0     O92483   7.846   6.504   9.056  0.0522 -0.1849 -0.2824
  686MOL0     C92484   7.938   6.411   8.987  0.0504 -0.1137  0.4049
  686MOL0     C92485   8.072   6.428   9.067 -0.2947  0.7004  0.5828
  686MOL0     C92486   8.199   6.400   8.977 -0.1710  0.6854  0.0206
  686MOL0     C92487   8.211   6.251   8.935  0.0922  0.0532  1.1103
  686MOL0     C92488   8.228   6.153   9.038 -0.4863  0.1149 -0.7451
  686MOL0     C92489   8.335   6.183   9.143  0.3336 -0.5756 -0.4020
  686MOL0     C92490   8.472   6.208   9.087  1.2599 -0.9664  0.3571
  686MOL0     C92491   8.580   6.228   9.187 -0.0611 -0.2434 -0.3280
  686MOL0     N92492   8.712   6.256   9.132 -0.7219  0.1480 -0.0576
  686MOL0     C92493   8.794   6.349   9.181  0.0914 -0.1263 -0.7502
  686MOL0     C92494   8.895   6.347   9.096 -0.6615 -0.2141 -0.6187
  686MOL0     C92495   9.019   6.439   9.118  0.6075  0.0359 -1.3834
  686MOL0     C92496   9.078   6.412   9.261 -0.0588  0.0844  0.3897
  686MOL0     C92497   9.186   6.508   9.299  0.6489 -0.8413 -0.4760
  686MOL0     C92498   9.298   6.521   9.206 -0.5953 -0.4739  0.1222
  686MOL0     O92499   9.369   6.398   9.196  0.4855  0.2969 -1.0472
  686MOL0     C92500   9.496   6.379   9.229 -0.6749  0.3678 -0.7642
  686MOL0     C92501   9.603   6.455   9.191 -0.4574  0.0767  0.2399
  686MOL0     C92502   9.730   6.431   9.242 -0.2994  0.2949 -0.5313
  686MOL0     C92503   9.758   6.313   9.319 -0.0382 -0.6809 -0.1474
  686MOL0     C92504   9.888   6.283   9.386 -0.5108  0.0711 -0.1665
  686MOL0     O92505   9.877   6.201   9.492  0.8539 -0.3385 -0.2109
  686MOL0     C92506   9.989   6.162   9.556 -0.3531  0.0833 -0.7573
  686MOL0     C92507  10.055   6.043   9.512  0.4072 -0.4429  0.0392
  686MOL0     C92508  10.185   6.010   9.557 -0.3783  0.2852 -0.4057
  686MOL0     C92509  10.244   6.092   9.654  0.2854  0.1804  0.2582
  686MOL0     O92510  10.362   6.072   9.712  0.2156 -0.3608 -0.0087
  686MOL0     C92511  10.460   5.997   9.643  0.0508 -0.5990 -0.2491
  686MOL0     C92512  10.592   6.060   9.683  0.0545 -0.3158 -0.2750
  686MOL0     C92513  10.638   6.021   9.820 -0.1508  0.5448 -0.4103
  686MOL0     C92514  10.777   6.071   9.856  0.2685 -0.1523 -0.8547
  686MOL0     C92515  10.814   6.041  10.005 -1.1297  0.6641 -0.1899
  686MOL0     C92516  10.959   6.098  10.036  0.3798 -0.3407 -0.6174
  686MOL0     C92517  10.998   6.077  10.189  0.5546  0.3371  0.4811
  686MOL0     C92518  10.991   5.930  10.234 -0.0942 -0.7910  0.0622
  686MOL0    Cl92519  11.141   5.851  10.173  0.1139 -0.4758  0.1011
  686MOL0     C92520  10.168   6.198   9.709  0.0993  0.3022 -0.2623
  686MOL0     C92521  10.048   6.242   9.659  0.0570  0.6307  0.0717
  686MOL0     O92522   9.989   6.327   9.336 -0.0698 -0.8633 -0.0030
  686MOL0     C92523   9.643   6.238   9.354 -0.5383  0.0757 -0.5022
  686MOL0     C92524   9.516   6.274   9.318  1.0001  0.2239  0.4361
  686MOL0     N92525   8.879   6.248   9.005  0.6639  0.1191  1.0305
  686MOL0     N92526   8.769   6.185   9.034  0.4864 -0.0626  0.5147
  686MOL0     C92527   7.642   6.409   8.984  0.1296 -0.7039 -0.4036
  686MOL0     C92528   7.513   6.422   8.943  0.4104 -0.1538 -0.2959
  686MOL0     C92529   7.107   6.640   8.886 -1.3962 -0.8748 -0.2658
  686MOL0     C92530   6.997   6.666   8.968  0.1411 -0.1361 -0.2566
  686MOL0     C92531   6.867   6.662   8.916 -0.0266 -1.3070  0.2382
  686MOL0     C92532   6.833   6.670   8.778  0.2139  0.2985  0.6173
  686MOL0     O92533   6.710   6.717   8.730 -0.4336 -0.7548 -0.2657
  686MOL0     C92534   6.623   6.779   8.829  0.8404 -0.9661  0.0928
  686MOL0     C92535   6.488   6.840   8.771 -0.1175  0.0784 -0.5020
  686MOL0     C92536   6.524   6.971   8.693  0.5355  0.2311 -0.1809
  686MOL0     C92537   6.528   7.095   8.791  0.4020 -0.3027  0.9344
  686MOL0     C92538   6.567   7.207   8.708 -0.5386 -0.0458  0.3888
  686MOL0     C92539   6.569   7.302   8.629 -0.6841  0.7726 -0.3041
  686MOL0     C92540   6.941   6.662   8.697  0.2380  0.2991  0.9773
  686MOL0     C92541   7.071   6.651   8.743 -0.1105  0.2657 -0.3583
  686MOL0     C92542   7.184   6.638   8.639 -0.2927 -0.3877  0.3292
  686MOL0     H92543   7.505   6.767   8.941 -1.6948  0.4143  0.6077
  686MOL0     H92544   7.749   6.725   9.010  0.9727 -0.3443  2.8043
  686MOL0     H92545   7.901   6.308   8.993 -1.0186  0.3094  1.7148
  686MOL0     H92546   7.937   6.449   8.885 -0.2721  1.2142  0.8828
  686MOL0     H92547   8.078   6.359   9.152 -1.6710  0.2168  0.3199
  686MOL0     H92548   8.080   6.528   9.111  0.5247  0.5087  0.8998
  686MOL0     H92549   8.292   6.434   9.024  0.5881  0.7516 -1.4633
  686MOL0     H92550   8.189   6.464   8.889 -0.3961  0.2855 -0.2467
  686MOL0     H92551   8.127   6.217   8.874  1.6629 -0.0034 -1.1463
  686MOL0     H92552   8.292   6.232   8.863 -1.2576  0.4377 -0.5780
  686MOL0     H92553   8.135   6.137   9.092 -0.5681  2.4414 -0.0937
  686MOL0     H92554   8.255   6.054   8.999 -0.6548 -0.1426 -0.2088
  686MOL0     H92555   8.306   6.262   9.213  1.8198 -0.8397  0.5565
  686MOL0     H92556   8.341   6.092   9.204 -2.4519 -3.4541 -3.9450
  686MOL0     H92557   8.467   6.295   9.020 -0.9776 -0.7895  0.6715
  686MOL0     H92558   8.496   6.120   9.026 -2.4335 -1.3694 -0.7586
  686MOL0     H92559   8.542   6.307   9.252 -2.2253 -0.2557 -1.4777
  686MOL0     H92560   8.597   6.137   9.246 -0.5197 -0.5275 -0.6271
  686MOL0     H92561   8.783   6.416   9.265  1.0215 -1.8858  0.8427
  686MOL0     H92562   9.092   6.422   9.038  0.6423 -1.9983 -0.9712
  686MOL0     H92563   8.978   6.540   9.115  1.1329  0.2963 -0.2991
  686MOL0     H92564   8.998   6.432   9.333 -1.6244  0.4240 -1.3622
  686MOL0     H92565   9.114   6.311   9.280 -0.1910 -0.0115  0.1231
  686MOL0     H92566   9.237   6.468   9.388  3.1885 -1.5673 -2.1338
  686MOL0     H92567   9.138   6.605   9.310 -2.7413 -2.1660 -2.2529
  686MOL0     H92568   9.368   6.596   9.244 -0.0405 -0.5867 -0.6619
  686MOL0     H92569   9.264   6.554   9.107 -1.4270 -1.4181  0.0817
  686MOL0     H92570   9.581   6.548   9.140  2.0416  0.8043  0.3469
  686MOL0     H92571   9.808   6.504   9.225  1.2039 -1.3200 -0.9281
  686MOL0     H92572  10.009   5.988   9.431 -0.7977  2.3292 -1.3232
  686MOL0     H92573  10.244   5.925   9.527  0.5246  0.3210  1.1581
  686MOL0     H92574  10.450   5.894   9.680  0.5080 -0.6183 -0.1839
  686MOL0     H92575  10.448   6.005   9.535  0.5932 -2.8350 -0.5130
  686MOL0     H92576  10.658   6.022   9.604  2.9235  3.2800  0.1349
  686MOL0     H92577  10.599   6.169   9.678  1.9297 -0.4208 -0.7332
  686MOL0     H92578  10.560   6.065   9.884 -1.4063 -0.8435 -0.9358
  686MOL0     H92579  10.641   5.912   9.830  1.0264  0.6350  0.4361
  686MOL0     H92580  10.773   6.179   9.837  0.1080  0.3904  1.9210
  686MOL0     H92581  10.847   6.032   9.781 -0.2574 -3.2796  0.1528
  686MOL0     H92582  10.816   5.933  10.021 -1.0496  0.1710 -2.9306
  686MOL0     H92583  10.740   6.092  10.067  0.5804  0.4069  2.2200
  686MOL0     H92584  11.020   6.046   9.962  1.4984 -0.8214  0.6030
  686MOL0     H92585  10.960   6.204  10.008 -2.2051  0.0528  0.5189
  686MOL0     H92586  10.932   6.128  10.260  0.2484 -0.2872  0.6469
  686MOL0     H92587  11.093   6.127  10.212  0.6281  0.9633 -1.0917
  686MOL0     H92588  10.999   5.930  10.343 -1.6296 -3.9835  0.2693
  686MOL0     H92589  10.898   5.880  10.206  0.1222 -1.8519  1.1392
  686MOL0     H92590  10.203   6.264   9.788 -2.4377  1.5895 -0.1158
  686MOL0     H92591   9.997   6.334   9.687  1.2603  1.2929  0.1428
  686MOL0     H92592   9.660   6.141   9.400  0.2223  0.1659 -0.5697
  686MOL0     H92593   9.432   6.213   9.350 -0.6428  1.0007 -2.0471
  686MOL0     H92594   7.676   6.307   8.988  1.4665 -0.2384  2.1143
  686MOL0     H92595   7.449   6.338   8.919 -0.7936  0.4674  0.6711
  686MOL0     H92596   7.004   6.669   9.076  1.2638 -0.1050 -0.3268
  686MOL0     H92597   6.786   6.664   8.988 -0.9907 -2.8334 -0.7362
  686MOL0     H92598   6.671   6.854   8.892  0.7514  0.0614 -1.0277
  686MOL0     H92599   6.584   6.697   8.891  0.2986 -2.5245 -2.1771
  686MOL0     H92600   6.409   6.846   8.847 -0.0336 -0.3158 -0.3816
  686MOL0     H92601   6.454   6.763   8.701  0.2114 -0.3723 -0.1718
  686MOL0     H92602   6.453   6.985   8.612  0.5900 -0.1638 -0.3002
  686MOL0     H92603   6.623   6.968   8.647  0.8093  1.0070  0.3317
  686MOL0     H92604   6.428   7.126   8.824 -0.7209 -2.0856 -0.5274
  686MOL0     H92605   6.588   7.084   8.881 -0.2330  0.7332  1.4926
  686MOL0     H92606   6.586   7.383   8.561 -3.5354  2.2649  0.6274
  686MOL0     H92607   6.926   6.660   8.589 -0.4846 -2.3019  1.0504
  686MOL0     H92608   7.154   6.666   8.538 -0.7955  2.1288  1.0840
  686MOL0     H92609   7.256   6.716   8.665  0.7691  0.2297 -3.8333
  686MOL0     H92610   7.245   6.548   8.634  2.4911  1.4337 -1.4659
  687MOL0     O92611   9.696   5.489   3.505 -0.1846 -0.1545  0.0577
  687MOL0     C92612   9.655   5.581   3.575  0.6812 -1.0371  0.1437
  687MOL0     O92613   9.738   5.658   3.652  0.0631 -0.3736 -0.8565
  687MOL0     C92614   9.856   5.621   3.701 -0.6034  0.0331 -0.5034
  687MOL0     C92615   9.886   5.649   3.832 -1.4922 -0.7019 -0.4452
  687MOL0     C92616  10.023   5.639   3.875  0.8276  1.0537  0.3918
  687MOL0     C92617  10.123   5.573   3.798 -0.2158  0.1765  0.6828
  687MOL0     O92618  10.250   5.556   3.845 -0.0573 -0.6953 -0.0294
  687MOL0     C92619  10.338   5.470   3.775 -0.4836 -0.5131 -0.9140
  687MOL0     C92620  10.471   5.446   3.854  0.4678  0.7073 -1.0887
  687MOL0     C92621  10.564   5.563   3.846  0.0476 -0.5152 -0.5473
  687MOL0     C92622  10.709   5.538   3.898  0.0308 -0.7026  0.1013
  687MOL0     C92623  10.801   5.663   3.897  0.0914  0.8323 -0.3252
  687MOL0     C92624  10.847   5.687   3.760 -0.4791 -0.6953 -0.2028
  687MOL0     C92625  10.943   5.807   3.759 -0.1510 -0.3227 -0.0720
  687MOL0     C92626  11.069   5.777   3.843 -1.0329 -0.2966 -0.1203
  687MOL0     N92627  11.195   5.828   3.789  0.0862  0.0262  0.0557
  687MOL0     C92628  11.318   5.806   3.857  0.7279  0.5398  0.4326
  687MOL0     C92629  11.406   5.886   3.788  0.0692  0.9224 -1.0487
  687MOL0     C92630  11.535   5.909   3.857 -0.8764 -0.6395  0.5283
  687MOL0     C92631  11.566   6.058   3.863 -0.1603  0.5074 -0.0425
  687MOL0     C92632  11.710   6.086   3.901  0.0970  0.4505  0.5303
  687MOL0     C92633  11.820   6.037   3.806  0.7680 -0.0138 -0.6510
  687MOL0     O92634  11.801   6.079   3.673 -0.9027 -0.3584 -0.1349
  687MOL0     C92635  11.916   6.083   3.586  0.2444 -0.3067 -0.3849
  687MOL0     C92636  12.046   6.037   3.623  0.0925 -0.4305 -0.2214
  687MOL0     C92637  12.152   6.057   3.538 -0.0788  0.0127 -1.3594
  687MOL0     C92638  12.137   6.123   3.416  0.7744  0.5595  0.5213
  687MOL0     C92639  12.255   6.147   3.330 -0.7443 -1.0700 -0.8121
  687MOL0     O92640  12.361   6.090   3.383  0.0476 -0.8332  0.3666
  687MOL0     C92641  12.474   6.098   3.308  0.6091  0.0049  0.8098
  687MOL0     C92642  12.541   6.221   3.288  0.5506  0.2329 -0.1654
  687MOL0     C92643  12.659   6.224   3.212  0.9622 -0.0824  0.1982
  687MOL0     C92644  12.702   6.108   3.149 -0.2696  0.0831 -0.7248
  687MOL0     O92645  12.821   6.113   3.080 -0.1625  0.3586 -0.8351
  687MOL0     C92646  12.897   5.987   3.069  0.6128 -0.4843  0.1077
  687MOL0     C92647  13.031   6.019   3.000  1.0086  0.0628  0.3738
  687MOL0     C92648  13.015   6.038   2.848 -0.6443 -1.2518 -0.0845
  687MOL0     C92649  13.135   6.121   2.785  0.4477  0.0656  0.1426
  687MOL0     C92650  13.100   6.166   2.643  0.2171  0.6434 -0.7581
  687MOL0     C92651  13.216   6.185   2.541  1.1240 -0.5423 -0.7761
  687MOL0     C92652  13.311   6.300   2.573  0.7412 -0.4660  0.1230
  687MOL0     C92653  13.430   6.320   2.479  0.5667  0.5151  0.1846
  687MOL0    Cl92654  13.568   6.215   2.536 -0.6530 -0.2087  0.1305
  687MOL0     C92655  12.635   5.992   3.170  0.1354  1.0809  0.1329
  687MOL0     C92656  12.517   5.984   3.240  0.5982 -0.2168  0.2649
  687MOL0     O92657  12.247   6.201   3.218  0.1290 -0.1042 -0.5493
  687MOL0     C92658  12.009   6.166   3.373  0.1872  0.6844 -0.4671
  687MOL0     C92659  11.899   6.140   3.460 -0.9265  0.0229  0.6320
  687MOL0     N92660  11.338   5.954   3.691 -0.5648 -0.2572 -0.0899
  687MOL0     N92661  11.222   5.909   3.678  0.2077  0.1777 -0.2358
  687MOL0     C92662  10.083   5.524   3.677 -0.4890  0.0944  0.2365
  687MOL0     C92663   9.951   5.548   3.627 -0.2983 -0.4385 -0.7312
  687MOL0     C92664   9.520   5.633   3.543  0.5583 -0.3191 -0.1840
  687MOL0     C92665   9.478   5.630   3.412 -0.2411  0.0503  0.1571
  687MOL0     C92666   9.349   5.657   3.373  0.3784  0.0561  0.1009
  687MOL0     C92667   9.252   5.699   3.466  0.4339 -0.7403  0.0808
  687MOL0     O92668   9.129   5.752   3.441  0.7646 -0.1285 -0.1818
  687MOL0     C92669   9.076   5.733   3.311 -0.1257 -0.1335 -0.2133
  687MOL0     C92670   8.927   5.751   3.292  0.1850  0.0357 -0.2690
  687MOL0     C92671   8.842   5.657   3.389 -0.2138 -1.0413 -0.7483
  687MOL0     C92672   8.698   5.648   3.366 -0.0586 -0.3640  0.4772
  687MOL0     C92673   8.659   5.597   3.233  0.2604 -0.4948  0.3114
  687MOL0     C92674   8.625   5.541   3.131  0.9177  0.4426  0.1989
  687MOL0     C92675   9.294   5.706   3.603 -0.2615  0.2466  0.1101
  687MOL0     C92676   9.423   5.680   3.642 -0.7529  0.9171 -0.1404
  687MOL0     C92677   9.457   5.724   3.782  0.4497  0.3826 -0.1539
  687MOL0     H92678   9.802   5.701   3.877 -0.1576  3.7247 -2.4553
  687MOL0     H92679  10.056   5.667   3.974 -0.0019  2.2646  0.3460
  687MOL0     H92680  10.286   5.374   3.767 -0.8479 -0.3501 -0.5746
  687MOL0     H92681  10.365   5.511   3.678  2.4163  0.6979  0.2919
  687MOL0     H92682  10.521   5.361   3.807  2.3255  1.8209 -1.2203
  687MOL0     H92683  10.452   5.423   3.959 -0.9979 -0.2930 -1.5430
  687MOL0     H92684  10.523   5.647   3.903 -0.9825  0.7796 -3.0463
  687MOL0     H92685  10.578   5.590   3.741  0.5923  0.0392 -0.3371
  687MOL0     H92686  10.704   5.508   4.003  2.7200 -1.3332  0.1095
  687MOL0     H92687  10.749   5.454   3.840 -1.7340 -0.1340 -2.0954
  687MOL0     H92688  10.751   5.749   3.943 -0.3575  0.7049 -0.5778
  687MOL0     H92689  10.887   5.644   3.963  0.5561 -0.2140 -1.2078
  687MOL0     H92690  10.898   5.600   3.718  1.4344 -1.1883  2.7887
  687MOL0     H92691  10.757   5.709   3.703 -1.3032 -2.4986  0.3454
  687MOL0     H92692  10.895   5.901   3.788 -1.2950 -1.0250  0.3911
  687MOL0     H92693  10.973   5.823   3.655  0.9465 -0.4377  0.2162
  687MOL0     H92694  11.048   5.819   3.942 -1.2561  1.3497 -0.8249
  687MOL0     H92695  11.088   5.671   3.856 -0.5584 -0.5024 -2.2015
  687MOL0     H92696  11.337   5.750   3.948 -0.0533 -1.6423 -0.6606
  687MOL0     H92697  11.536   5.871   3.959 -0.1870  0.4897  0.9539
  687MOL0     H92698  11.604   5.845   3.801 -1.1279 -0.2762 -0.2243
  687MOL0     H92699  11.550   6.108   3.767 -0.7634 -1.8744 -1.2733
  687MOL0     H92700  11.497   6.098   3.938  0.2005 -0.2871  0.7323
  687MOL0     H92701  11.729   6.044   4.000 -0.5510  0.2754  0.5863
  687MOL0     H92702  11.729   6.193   3.911 -1.2869  0.8679 -0.9783
  687MOL0     H92703  11.814   5.929   3.817 -0.7644  0.0587 -0.5611
  687MOL0     H92704  11.913   6.075   3.850 -0.0120  1.9346 -0.5670
  687MOL0     H92705  12.071   5.996   3.720  1.2390  1.8693  0.5334
  687MOL0     H92706  12.249   6.029   3.579 -2.1327 -1.7182  2.8202
  687MOL0     H92707  12.509   6.306   3.348  2.7927  1.7073 -0.9658
  687MOL0     H92708  12.722   6.311   3.196  1.5769 -0.8968 -2.2492
  687MOL0     H92709  12.913   5.938   3.166  1.4742 -1.7955 -0.6553
  687MOL0     H92710  12.846   5.918   3.002  0.8544  1.0805 -1.7651
  687MOL0     H92711  13.076   6.108   3.043  2.7627 -1.1967  1.2441
  687MOL0     H92712  13.101   5.935   3.004  0.3287 -0.4955  0.9350
  687MOL0     H92713  12.991   5.941   2.805 -1.7397 -1.7200  1.4744
  687MOL0     H92714  12.927   6.101   2.830  0.9494  1.2396  0.3104
  687MOL0     H92715  13.226   6.061   2.786  0.7416  0.4975 -0.2313
  687MOL0     H92716  13.157   6.209   2.847  3.8591  0.2502 -1.1134
  687MOL0     H92717  13.041   6.258   2.650  0.6139  0.7607  4.1921
  687MOL0     H92718  13.048   6.079   2.602  3.0491 -0.3959 -2.4097
  687MOL0     H92719  13.268   6.089   2.537  0.9826 -0.6153 -0.8943
  687MOL0     H92720  13.167   6.198   2.444 -0.0947  1.0954  0.0171
  687MOL0     H92721  13.351   6.265   2.669 -1.1180  1.4453  1.7136
  687MOL0     H92722  13.265   6.399   2.586  3.1673  0.5096  2.2396
  687MOL0     H92723  13.404   6.287   2.378  1.0359 -1.0882  0.5627
  687MOL0     H92724  13.467   6.423   2.478 -2.2849  1.6388  0.3511
  687MOL0     H92725  12.681   5.900   3.135  1.6925  1.5830  0.7799
  687MOL0     H92726  12.462   5.891   3.245  0.1526  0.0192 -0.2068
  687MOL0     H92727  11.998   6.215   3.277  0.8149  0.3623 -0.7057
  687MOL0     H92728  11.799   6.173   3.433 -0.6039  1.8885  1.5448
  687MOL0     H92729  10.149   5.456   3.623 -1.1739 -1.0170  0.7578
  687MOL0     H92730   9.924   5.503   3.532  0.8214 -0.6175 -0.9826
  687MOL0     H92731   9.545   5.589   3.337  0.4793 -1.6193  1.6430
  687MOL0     H92732   9.342   5.646   3.266  1.5113  0.7132 -0.0579
  687MOL0     H92733   9.108   5.643   3.257  0.8064  1.3722 -2.3287
  687MOL0     H92734   9.117   5.808   3.242  0.2108 -0.2400 -0.1342
  687MOL0     H92735   8.901   5.720   3.190 -0.5895  1.5523 -0.5593
  687MOL0     H92736   8.892   5.854   3.293  1.5315  0.5492  2.4570
  687MOL0     H92737   8.862   5.685   3.493 -0.8922  1.9172 -1.3357
  687MOL0     H92738   8.879   5.555   3.372  2.6332 -0.5137  1.5040
  687MOL0     H92739   8.655   5.581   3.441 -0.1808 -1.1506 -0.2817
  687MOL0     H92740   8.660   5.748   3.388 -0.0318  0.2276 -1.8899
  687MOL0     H92741   8.595   5.480   3.048 -0.8479 -0.5637  1.5314
  687MOL0     H92742   9.214   5.750   3.662 -0.8153 -0.5842 -0.0067
  687MOL0     H92743   9.435   5.831   3.793 -2.0371 -0.0626 -0.1307
  687MOL0     H92744   9.397   5.661   3.849  1.1807 -0.8434 -0.6300
  687MOL0     H92745   9.558   5.701   3.817 -0.1062  2.0079  2.8799
  688MOL0     O92746   2.721  10.128   2.109  0.3748  0.3819 -0.3385
  688MOL0     C92747   2.675  10.033   2.179  0.3412  0.5637 -0.6061
  688MOL0     O92748   2.752   9.956   2.267  0.1421 -0.1480  0.2300
  688MOL0     C92749   2.885   9.987   2.296 -0.7866  0.3383 -0.9723
  688MOL0     C92750   2.994   9.907   2.257 -0.1565 -0.3181 -0.1482
  688MOL0     C92751   3.121   9.939   2.291 -0.0144  0.0471 -1.1534
  688MOL0     C92752   3.152  10.055   2.364 -0.1764 -0.4506  0.3511
  688MOL0     O92753   3.287  10.085   2.388 -0.1999 -0.6778  0.6680
  688MOL0     C92754   3.313  10.150   2.506 -0.4218 -0.6978  1.6276
  688MOL0     C92755   3.435  10.081   2.570 -0.2052 -1.3003 -0.0294
  688MOL0     C92756   3.453  10.131   2.718  0.5664  0.7079 -0.6087
  688MOL0     C92757   3.537  10.020   2.786 -0.0975 -0.3843 -1.2925
  688MOL0     C92758   3.554  10.051   2.928 -0.5122 -0.1232  0.1206
  688MOL0     C92759   3.654  10.171   2.951 -0.1559 -0.1924  0.5216
  688MOL0     C92760   3.655  10.189   3.102 -0.0332  0.3468  0.5270
  688MOL0     C92761   3.754  10.300   3.135 -0.9952 -0.0820  0.0503
  688MOL0     N92762   3.700  10.432   3.114 -0.0519  0.1487 -0.2485
  688MOL0     C92763   3.578  10.469   3.150  0.2990 -0.9247 -0.4127
  688MOL0     C92764   3.566  10.599   3.106  1.0167 -0.2931 -0.3844
  688MOL0     C92765   3.440  10.688   3.120 -0.1818  0.3531 -0.2985
  688MOL0     C92766   3.419  10.789   3.014 -0.5850  0.0374 -0.3858
  688MOL0     C92767   3.313  10.753   2.912 -0.3955  0.1575 -0.1455
  688MOL0     C92768   3.312  10.860   2.809 -0.2944 -0.0910  0.4094
  688MOL0     O92769   3.169  10.886   2.769 -0.0042 -0.1893 -0.1091
  688MOL0     C92770   3.088  10.791   2.723  0.6091 -0.8741 -1.0560
  688MOL0     C92771   3.130  10.683   2.650  0.8488 -0.5137 -0.4899
  688MOL0     C92772   3.035  10.590   2.609  0.1111 -0.6522  0.5368
  688MOL0     C92773   2.898  10.606   2.616  0.5370  0.4575 -0.5588
  688MOL0     C92774   2.798  10.509   2.552 -0.3875  1.0209  0.3111
  688MOL0     O92775   2.678  10.555   2.518 -0.5125 -1.1057 -0.6441
  688MOL0     C92776   2.579  10.477   2.464 -0.2682 -0.0388 -0.4071
  688MOL0     C92777   2.454  10.522   2.487  0.4287 -0.8455  0.9320
  688MOL0     C92778   2.345  10.460   2.419 -0.0175  0.3119  0.3901
  688MOL0     C92779   2.358  10.344   2.354  0.8402  0.4393  0.4324
  688MOL0     O92780   2.242  10.288   2.309 -0.5465  0.2715  0.7681
  688MOL0     C92781   2.180  10.186   2.384 -1.1327  0.2813  0.0689
  688MOL0     C92782   2.025  10.184   2.363  0.2137 -0.4832 -0.1752
  688MOL0     C92783   1.961  10.301   2.429 -1.0146 -0.0060  0.2771
  688MOL0     C92784   1.810  10.280   2.452 -0.7037 -1.0338  0.1175
  688MOL0     C92785   1.745  10.206   2.335  0.5984 -0.0933 -0.3119
  688MOL0     C92786   1.745  10.291   2.210  0.3172 -0.2262 -0.4598
  688MOL0     C92787   1.645  10.233   2.098 -0.4398  0.5951 -0.5443
  688MOL0     C92788   1.659  10.295   1.961  0.5310 -0.3253  1.3034
  688MOL0    Cl92789   1.573  10.452   1.971 -0.2485 -0.2182 -0.0798
  688MOL0     C92790   2.483  10.297   2.324  0.9574 -0.2267 -0.3623
  688MOL0     C92791   2.591  10.365   2.372 -0.1189 -0.4567 -0.1748
  688MOL0     O92792   2.842  10.399   2.519 -0.2371  0.8792 -0.5555
  688MOL0     C92793   2.856  10.711   2.692  0.4912  0.0917  0.5202
  688MOL0     C92794   2.953  10.803   2.752  0.1475  0.3629 -0.4314
  688MOL0     N92795   3.694  10.648   3.066  0.5178 -0.0549 -0.3357
  688MOL0     N92796   3.773  10.540   3.067  0.6500  0.0887 -0.2009
  688MOL0     C92797   3.045  10.134   2.407  0.3102  0.3069  0.2615
  688MOL0     C92798   2.912  10.107   2.376 -0.4424  0.4441  0.9110
  688MOL0     C92799   2.535   9.994   2.167 -0.0797  0.2382 -0.1692
  688MOL0     C92800   2.467  10.029   2.048  0.4336 -0.4792 -0.6082
  688MOL0     C92801   2.333   9.992   2.024 -0.7446  0.1392 -0.1447
  688MOL0     C92802   2.268   9.903   2.110  1.1453 -0.1587  0.1467
  688MOL0     O92803   2.144   9.851   2.082  0.4247 -0.0745  0.3613
  688MOL0     C92804   2.029   9.934   2.070 -0.3703 -1.4137  0.7291
  688MOL0     C92805   1.932   9.878   2.174  0.6343 -0.8588  0.6145
  688MOL0     C92806   1.897   9.725   2.156  0.4427 -0.7856  0.0571
  688MOL0     C92807   1.818   9.668   2.276 -0.1768  0.1142 -0.4234
  688MOL0     C92808   1.716   9.765   2.320 -0.9073 -0.6260 -0.4210
  688MOL0     C92809   1.632   9.843   2.357  0.1926 -0.0442 -0.5684
  688MOL0     C92810   2.337   9.878   2.230  0.5768 -0.0901 -0.1580
  688MOL0     C92811   2.456   9.926   2.261 -0.1143 -0.4776 -0.7525
  688MOL0     C92812   2.510   9.898   2.397 -0.4515 -0.0903 -0.1219
  688MOL0     H92813   2.986   9.821   2.192  1.7421  0.7945 -1.9813
  688MOL0     H92814   3.198   9.865   2.269  0.0845 -0.5667  0.9848
  688MOL0     H92815   3.340  10.255   2.490 -2.3323  0.0645  2.9987
  688MOL0     H92816   3.236  10.144   2.583 -2.1409 -1.1964 -0.0641
  688MOL0     H92817   3.521  10.104   2.506  0.0746 -1.7233  0.1915
  688MOL0     H92818   3.415   9.974   2.573  2.9193 -1.9674  2.8537
  688MOL0     H92819   3.359  10.149   2.772 -0.4205  0.1284 -2.0782
  688MOL0     H92820   3.515  10.221   2.716  2.6038 -0.6282 -2.8599
  688MOL0     H92821   3.490   9.921   2.785 -1.3032  0.0772  1.3289
  688MOL0     H92822   3.640  10.014   2.749  0.8631  1.6317  0.8151
  688MOL0     H92823   3.461  10.081   2.977  0.1557  0.5521  1.0009
  688MOL0     H92824   3.589   9.962   2.982  1.2046  1.4344  1.7229
  688MOL0     H92825   3.750  10.135   2.913 -1.4678 -2.8453 -0.5132
  688MOL0     H92826   3.626  10.263   2.899 -1.3691 -0.1178  1.2681
  688MOL0     H92827   3.696  10.098   3.147  0.9142 -0.6773 -2.1485
  688MOL0     H92828   3.560  10.214   3.149  0.0573  1.5859  0.0896
  688MOL0     H92829   3.791  10.292   3.238 -0.3695 -0.8755 -0.2249
  688MOL0     H92830   3.836  10.295   3.063 -0.4727 -2.3025  0.7245
  688MOL0     H92831   3.499  10.416   3.202 -1.3856  1.2969 -0.5614
  688MOL0     H92832   3.348  10.631   3.130 -1.0052  1.7824  0.7250
  688MOL0     H92833   3.459  10.736   3.217  2.2113 -1.2015  0.1017
  688MOL0     H92834   3.392  10.886   3.058 -5.7016 -1.8212  1.2992
  688MOL0     H92835   3.512  10.798   2.958  0.8931  1.4045  2.1078
  688MOL0     H92836   3.216  10.746   2.962  0.6410 -0.6421  1.8189
  688MOL0     H92837   3.330  10.656   2.865 -0.7796  0.0164  0.0024
  688MOL0     H92838   3.380  10.836   2.727  0.6703 -0.2000  1.2263
  688MOL0     H92839   3.347  10.957   2.847  1.1561 -0.3808 -0.1056
  688MOL0     H92840   3.235  10.667   2.631  1.0920 -0.8435  1.0317
  688MOL0     H92841   3.061  10.502   2.552 -0.6865 -1.0740  0.8107
  688MOL0     H92842   2.431  10.605   2.553 -0.5016  1.4741 -2.0756
  688MOL0     H92843   2.249  10.510   2.432  0.9239  1.7846  2.1238
  688MOL0     H92844   2.230  10.089   2.378  0.4447  1.1571 -2.9094
  688MOL0     H92845   2.200  10.210   2.489  0.7790  0.7173 -0.3442
  688MOL0     H92846   1.992  10.178   2.259  1.9278  0.7900 -0.8466
  688MOL0     H92847   1.987  10.092   2.409  1.9635 -1.2263 -0.1291
  688MOL0     H92848   1.998  10.326   2.529 -0.5871  1.5573 -0.2435
  688MOL0     H92849   1.982  10.392   2.372  1.6201 -0.3515  0.5723
  688MOL0     H92850   1.768  10.381   2.461 -1.4391 -1.1422 -1.6633
  688MOL0     H92851   1.801  10.221   2.544  2.1069 -0.9613  0.5059
  688MOL0     H92852   1.639  10.201   2.362  0.6590  0.6523  0.1209
  688MOL0     H92853   1.789  10.111   2.306  0.7176  0.4986 -2.1652
  688MOL0     H92854   1.715  10.395   2.227 -0.2780 -0.6540  1.2136
  688MOL0     H92855   1.848  10.297   2.174  2.1694 -0.9629  4.0771
  688MOL0     H92856   1.542  10.240   2.132  0.0639 -0.7801  1.4265
  688MOL0     H92857   1.665  10.126   2.087  1.2420  0.9758 -1.6354
  688MOL0     H92858   1.761  10.308   1.924  0.1961 -3.1151 -0.9865
  688MOL0     H92859   1.601  10.231   1.893  0.5823 -0.7349  1.6431
  688MOL0     H92860   2.488  10.221   2.247  0.1411 -2.5513  1.7389
  688MOL0     H92861   2.686  10.330   2.334 -0.5383 -1.4326 -0.3621
  688MOL0     H92862   2.755  10.740   2.718  0.2515  0.3779 -0.6799
  688MOL0     H92863   2.914  10.886   2.810 -2.2937 -0.6374 -0.5210
  688MOL0     H92864   3.077  10.232   2.441  2.0458  1.2125 -3.4570
  688MOL0     H92865   2.834  10.177   2.402 -1.8119 -0.3150 -0.9456
  688MOL0     H92866   2.513  10.085   1.967  0.4500  2.6142  1.3919
  688MOL0     H92867   2.290  10.020   1.928 -0.9760  2.9741  0.7048
  688MOL0     H92868   1.994   9.930   1.966  0.3910  3.1828  0.0923
  688MOL0     H92869   2.054  10.039   2.088  2.1173 -1.6962 -0.5947
  688MOL0     H92870   1.842   9.940   2.178  2.6424  2.2748  1.1718
  688MOL0     H92871   1.969   9.901   2.275  1.0719 -1.6006  0.6294
  688MOL0     H92872   1.975   9.653   2.128  2.8794  1.8771 -0.5376
  688MOL0     H92873   1.835   9.730   2.066  1.9906 -1.6510 -1.1010
  688MOL0     H92874   1.765   9.584   2.230 -0.3356 -0.7444  1.2397
  688MOL0     H92875   1.889   9.640   2.354 -0.2094 -2.3762 -1.1807
  688MOL0     H92876   1.566   9.920   2.394  1.3715  0.1511  1.2990
  688MOL0     H92877   2.281   9.821   2.304 -2.6772  2.9057 -0.0667
  688MOL0     H92878   2.439   9.856   2.469 -0.4699 -0.8239 -0.5543
  688MOL0     H92879   2.590   9.824   2.383 -0.4042  0.5296 -4.5091
  688MOL0     H92880   2.540   9.994   2.439  2.5525 -1.8817  2.2413
  689MOL0     O92881   4.757   8.735   4.932 -0.7491 -0.1751  0.0384
  689MOL0     C92882   4.731   8.647   5.010  0.4651 -0.3306  1.2774
  689MOL0     O92883   4.817   8.557   5.055  0.1469  0.1529  0.0896
  689MOL0     C92884   4.951   8.579   5.077  0.5832 -0.8203  0.7652
  689MOL0     C92885   5.002   8.690   5.146 -0.8554  0.4120  1.3792
  689MOL0     C92886   5.138   8.716   5.168  0.4793  0.6432 -0.1692
  689MOL0     C92887   5.232   8.619   5.119  1.1227 -0.2239  0.0561
  689MOL0     O92888   5.366   8.658   5.141 -0.1311 -0.5359  0.4259
  689MOL0     C92889   5.458   8.555   5.126 -0.4531  0.1882  0.4456
  689MOL0     C92890   5.608   8.599   5.129  0.3087 -0.5797  0.5133
  689MOL0     C92891   5.709   8.487   5.096  0.1405  0.9699 -0.0780
  689MOL0     C92892   5.858   8.542   5.107  0.0760 -0.4048  0.2853
  689MOL0     C92893   5.962   8.423   5.121  0.5090 -0.1686 -0.0409
  689MOL0     C92894   6.106   8.485   5.116  0.0605 -0.1874  0.4176
  689MOL0     C92895   6.216   8.384   5.158 -0.1855  0.6242  1.3604
  689MOL0     C92896   6.203   8.308   5.286  0.5481  0.2188 -0.1228
  689MOL0     N92897   6.323   8.237   5.321 -0.2453 -0.3710  0.2487
  689MOL0     C92898   6.360   8.101   5.307 -0.0957 -0.9248  0.0646
  689MOL0     C92899   6.483   8.084   5.356  0.0558 -0.8473 -0.3204
  689MOL0     C92900   6.579   7.971   5.364 -0.1055 -0.0413  0.2583
  689MOL0     C92901   6.652   7.944   5.234 -1.1380 -0.5128  1.0621
  689MOL0     C92902   6.733   8.077   5.188  0.7173  0.1016  0.5423
  689MOL0     C92903   6.795   8.077   5.048  0.4487  0.4867  0.4953
  689MOL0     O92904   6.890   8.183   5.008 -0.4993  0.0082  0.1489
  689MOL0     C92905   7.025   8.165   5.041 -0.4454  0.1015  0.1809
  689MOL0     C92906   7.079   8.049   5.099 -0.5871 -0.6510  0.2357
  689MOL0     C92907   7.212   8.041   5.136 -0.4430 -0.1294 -0.1696
  689MOL0     C92908   7.301   8.150   5.107  0.4927 -0.3642 -0.7137
  689MOL0     C92909   7.440   8.143   5.156  0.7326 -0.3281 -0.1069
  689MOL0     O92910   7.510   8.255   5.147  0.0593  0.1509 -0.4221
  689MOL0     C92911   7.648   8.251   5.145  0.1499 -0.7624 -0.3240
  689MOL0     C92912   7.716   8.182   5.045 -0.4049 -0.4780  0.2827
  689MOL0     C92913   7.860   8.176   5.051  0.5090 -0.5682  0.5401
  689MOL0     C92914   7.928   8.229   5.161 -0.4770  0.1733  0.1352
  689MOL0     O92915   8.063   8.211   5.162  0.8482  0.2142  0.3495
  689MOL0     C92916   8.128   8.301   5.258 -0.5547 -0.0291  0.8159
  689MOL0     C92917   8.280   8.282   5.228  0.3237  0.5403  0.5603
  689MOL0     C92918   8.364   8.376   5.320  0.3631  0.0432 -0.6628
  689MOL0     C92919   8.508   8.398   5.268  0.0862  0.2541  1.1782
  689MOL0     C92920   8.606   8.484   5.354  0.2668  0.3804  0.1565
  689MOL0     C92921   8.593   8.456   5.506  0.7946  0.5932 -0.2714
  689MOL0     C92922   8.706   8.521   5.586  0.5243  0.4797 -1.0190
  689MOL0     C92923   8.690   8.463   5.730 -0.3255  0.1438  0.3986
  689MOL0    Cl92924   8.838   8.486   5.831  0.3995  0.3064  0.0609
  689MOL0     C92925   7.854   8.287   5.261  0.7477 -0.3846  0.7729
  689MOL0     C92926   7.721   8.308   5.254  0.3745 -0.2488  0.0451
  689MOL0     O92927   7.478   8.038   5.204  0.1699  0.1183  0.2668
  689MOL0     C92928   7.249   8.260   5.034  0.4208 -0.6602  0.1265
  689MOL0     C92929   7.113   8.265   5.003 -0.3191  0.5692 -0.6807
  689MOL0     N92930   6.519   8.207   5.418 -0.0763  0.3054  0.7836
  689MOL0     N92931   6.424   8.293   5.397 -0.3389  0.8039 -0.1499
  689MOL0     C92932   5.184   8.502   5.052 -0.6189  0.0545  0.0053
  689MOL0     C92933   5.044   8.488   5.032  0.1707 -0.0388 -0.6694
  689MOL0     C92934   4.595   8.658   5.070  0.1067 -1.2044  0.1259
  689MOL0     C92935   4.586   8.599   5.193 -0.1057 -0.2970 -0.4948
  689MOL0     C92936   4.461   8.578   5.250  0.5122  0.5192 -0.6956
  689MOL0     C92937   4.346   8.625   5.183  1.0854  0.0484  0.2300
  689MOL0     O92938   4.208   8.616   5.227 -0.8420 -0.6386 -0.5240
  689MOL0     C92939   4.188   8.538   5.347 -0.8697  0.0788 -0.6579
  689MOL0     C92940   4.043   8.549   5.390 -0.2241  0.0704 -0.3484
  689MOL0     C92941   4.010   8.687   5.453  0.1569  0.5831  0.2140
  689MOL0     C92942   3.866   8.710   5.423 -0.1914  0.4122 -0.1242
  689MOL0     C92943   3.854   8.752   5.288 -0.1972 -0.8083 -0.2419
  689MOL0     C92944   3.836   8.777   5.175  0.0499  0.4768  0.6325
  689MOL0     C92945   4.354   8.688   5.061 -0.5224  0.4607  0.0024
  689MOL0     C92946   4.479   8.700   5.003  0.2465 -0.0217 -0.5634
  689MOL0     C92947   4.480   8.760   4.868  0.3671 -0.2729 -0.3457
  689MOL0     H92948   4.937   8.759   5.197 -1.1072  0.2331  1.3031
  689MOL0     H92949   5.163   8.806   5.224 -1.4332  0.7057  0.6801
  689MOL0     H92950   5.456   8.479   5.205  1.6351 -1.6299 -1.1113
  689MOL0     H92951   5.452   8.498   5.033 -0.9105  1.8145 -0.5475
  689MOL0     H92952   5.629   8.647   5.225 -1.4804  0.6766  0.3054
  689MOL0     H92953   5.620   8.677   5.054 -0.2501 -2.8990 -2.1462
  689MOL0     H92954   5.695   8.436   5.000  0.6009  0.5925  0.0512
  689MOL0     H92955   5.701   8.410   5.173  0.2461  0.2707 -0.7524
  689MOL0     H92956   5.877   8.601   5.017 -0.4781 -1.2896 -0.4318
  689MOL0     H92957   5.871   8.610   5.192  1.6066 -0.4702  0.1301
  689MOL0     H92958   5.937   8.367   5.211 -0.3654  1.2924  0.6714
  689MOL0     H92959   5.958   8.367   5.028 -3.3176  2.1302 -1.5006
  689MOL0     H92960   6.126   8.514   5.012  0.4441 -2.7506 -0.2759
  689MOL0     H92961   6.109   8.573   5.182 -1.5443 -0.2241  0.5774
  689MOL0     H92962   6.315   8.430   5.146  0.9453 -2.2380 -1.5794
  689MOL0     H92963   6.226   8.306   5.083 -1.7270 -0.6351  2.4120
  689MOL0     H92964   6.176   8.380   5.363  0.9549  0.1306  0.1089
  689MOL0     H92965   6.122   8.235   5.275 -1.8219  2.2184  2.5802
  689MOL0     H92966   6.306   8.030   5.245 -4.2754 -0.0957  2.3548
  689MOL0     H92967   6.653   7.967   5.445  1.1293 -0.8316 -0.8792
  689MOL0     H92968   6.522   7.878   5.375 -4.3974  2.0324 -1.8020
  689MOL0     H92969   6.709   7.851   5.243 -0.7771 -0.3110  0.9147
  689MOL0     H92970   6.576   7.922   5.158  0.7279  4.8799 -3.0397
  689MOL0     H92971   6.808   8.101   5.264 -1.1484  1.5226  2.0426
  689MOL0     H92972   6.663   8.161   5.180 -2.4900 -2.3931  0.2831
  689MOL0     H92973   6.709   8.084   4.982 -2.1210 -3.2480  3.0746
  689MOL0     H92974   6.831   7.975   5.031 -2.7174 -0.4921 -1.0369
  689MOL0     H92975   7.029   7.960   5.135 -0.4296 -0.3071  1.3508
  689MOL0     H92976   7.259   7.959   5.190  1.4536  0.4049 -0.9364
  689MOL0     H92977   7.659   8.136   4.966 -1.2455 -0.4063  0.8359
  689MOL0     H92978   7.925   8.141   4.972  0.8462  2.5807 -0.7206
  689MOL0     H92979   8.104   8.406   5.239 -1.9323 -0.3007  0.9010
  689MOL0     H92980   8.122   8.282   5.365  0.1257  0.8518  1.0206
  689MOL0     H92981   8.306   8.176   5.237 -2.8859 -0.3430  0.3656
  689MOL0     H92982   8.308   8.305   5.124  1.4479  0.1812  0.7626
  689MOL0     H92983   8.306   8.468   5.312 -0.6732 -0.7731 -3.9652
  689MOL0     H92984   8.373   8.338   5.423  1.6976  2.0764  0.0199
  689MOL0     H92985   8.505   8.449   5.171 -0.7676 -0.5018  0.7942
  689MOL0     H92986   8.555   8.300   5.252 -1.7902 -0.2312 -2.4522
  689MOL0     H92987   8.580   8.589   5.336 -0.0090  0.1861 -0.6408
  689MOL0     H92988   8.708   8.465   5.320  0.6104  1.8608  0.3082
  689MOL0     H92989   8.496   8.490   5.542  1.1663  1.3719  0.0198
  689MOL0     H92990   8.599   8.347   5.509  1.6074  0.6552  1.7553
  689MOL0     H92991   8.707   8.630   5.571 -0.3078  0.3530 -2.1181
  689MOL0     H92992   8.800   8.480   5.547 -1.2974 -0.6067 -4.7211
  689MOL0     H92993   8.609   8.505   5.790  0.7876  2.7470  0.1994
  689MOL0     H92994   8.684   8.354   5.720  1.7395 -0.1497  1.7280
  689MOL0     H92995   7.903   8.327   5.349  1.8771 -2.0566  0.9583
  689MOL0     H92996   7.669   8.356   5.337 -3.8087  0.2138 -2.5293
  689MOL0     H92997   7.312   8.343   5.003 -1.8442  1.0370 -0.1942
  689MOL0     H92998   7.064   8.347   4.951  0.5417  0.7343 -1.2525
  689MOL0     H92999   5.255   8.429   5.014 -1.8836 -0.2846 -1.8871
  689MOL0     H93000   5.022   8.398   4.975  0.9648 -2.3861  2.4897
  689MOL0     H93001   4.676   8.563   5.243  0.7740  3.6910  1.2257
  689MOL0     H93002   4.465   8.516   5.339 -1.8300 -2.1660 -2.2956
  689MOL0     H93003   4.253   8.576   5.426 -0.2911  1.6835 -1.8577
  689MOL0     H93004   4.212   8.433   5.329 -2.5268 -0.4820  0.1579
  689MOL0     H93005   4.013   8.463   5.450 -0.5764 -0.5836 -1.4469
  689MOL0     H93006   3.980   8.531   5.303  0.3138 -1.7155 -0.3956
  689MOL0     H93007   4.071   8.768   5.412  1.9682 -1.0695 -0.5258
  689MOL0     H93008   4.009   8.679   5.562  1.1984 -1.9522  0.0938
  689MOL0     H93009   3.806   8.619   5.432  0.1033  0.0834 -1.2724
  689MOL0     H93010   3.821   8.786   5.488 -4.0794 -1.5258 -0.2997
  689MOL0     H93011   3.804   8.797   5.074 -0.4264 -0.4078  0.6003
  689MOL0     H93012   4.266   8.730   5.015 -0.0936  1.5073  0.1276
  689MOL0     H93013   4.392   8.736   4.808  1.7975 -2.7676 -1.6083
  689MOL0     H93014   4.505   8.866   4.880  2.5866 -0.6834 -0.9633
  689MOL0     H93015   4.562   8.712   4.813  0.2852 -4.0590  2.4672
  690MOL0     O93016   4.028   5.626   5.710 -0.3074  0.1673  0.4134
  690MOL0     C93017   4.002   5.541   5.792 -0.7308  0.3739  0.3453
  690MOL0     O93018   4.098   5.485   5.871  0.1226  1.2000  0.4147
  690MOL0     C93019   4.229   5.523   5.888  0.0129 -0.1169  0.2317
  690MOL0     C93020   4.286   5.513   6.014  1.0101 -0.1451  0.1377
  690MOL0     C93021   4.420   5.543   6.036 -0.1399  0.2013 -0.1421
  690MOL0     C93022   4.500   5.571   5.928 -0.4760  0.6636 -0.4560
  690MOL0     O93023   4.627   5.601   5.963  0.3262  0.7270 -0.2882
  690MOL0     C93024   4.694   5.685   5.872 -0.4571  0.1739 -0.3056
  690MOL0     C93025   4.814   5.739   5.937  0.4302 -0.6645 -0.4509
  690MOL0     C93026   4.878   5.853   5.857  0.6648  0.0680 -0.0219
  690MOL0     C93027   4.946   5.792   5.736  0.6716 -0.6040  0.2173
  690MOL0     C93028   5.004   5.898   5.640  0.2890 -0.0037  0.5571
  690MOL0     C93029   5.007   5.832   5.508  0.7105 -0.1156  0.5475
  690MOL0     C93030   5.067   5.920   5.400  0.1266 -0.0405 -0.7998
  690MOL0     C93031   5.019   5.895   5.257 -0.3429 -0.0572 -0.4899
  690MOL0     N93032   5.079   5.997   5.173  0.0393  0.6690  0.0694
  690MOL0     C93033   5.212   6.005   5.140 -0.4430  0.3168 -0.4027
  690MOL0     C93034   5.228   6.116   5.066 -1.5317  0.3851 -0.5662
  690MOL0     C93035   5.356   6.194   5.019 -0.6611 -0.4428 -0.3974
  690MOL0     C93036   5.403   6.151   4.881 -0.2157  0.5120 -0.5031
  690MOL0     C93037   5.512   6.240   4.806  0.0046  0.0864  0.6378
  690MOL0     C93038   5.654   6.217   4.849  0.3378  0.5274 -0.6721
  690MOL0     O93039   5.732   6.306   4.763  0.0801  0.7316 -0.1479
  690MOL0     C93040   5.867   6.299   4.759 -0.3682 -0.0552 -0.4483
  690MOL0     C93041   5.930   6.380   4.668  0.0547 -0.8756 -0.1888
  690MOL0     C93042   6.065   6.385   4.649  0.0649 -0.3675 -0.4355
  690MOL0     C93043   6.147   6.286   4.716 -0.4745  0.0244 -0.6982
  690MOL0     C93044   6.295   6.293   4.698  0.1333 -0.4143  0.2141
  690MOL0     O93045   6.338   6.356   4.580  0.1559  0.6643  0.0047
  690MOL0     C93046   6.473   6.369   4.558  0.6325 -0.6544 -0.2704
  690MOL0     C93047   6.578   6.297   4.601 -0.0782  0.2234 -1.1080
  690MOL0     C93048   6.705   6.310   4.537  0.6705  0.1176 -0.3328
  690MOL0     C93049   6.719   6.413   4.441  0.4645 -0.9867 -0.6459
  690MOL0     O93050   6.835   6.440   4.361  0.2850 -0.7342 -0.1253
  690MOL0     C93051   6.915   6.324   4.344  0.3005 -0.4758  0.0150
  690MOL0     C93052   7.009   6.352   4.228 -0.2473  0.4888  0.3255
  690MOL0     C93053   7.131   6.430   4.279  0.8932  0.7731  0.5198
  690MOL0     C93054   7.195   6.509   4.169  0.2400  0.5797  0.5076
  690MOL0     C93055   7.308   6.594   4.222 -0.0902 -0.7534  0.4527
  690MOL0     C93056   7.375   6.669   4.103 -0.5606  0.6182  0.6047
  690MOL0     C93057   7.468   6.778   4.148 -0.2985 -0.0285 -0.5080
  690MOL0     C93058   7.596   6.724   4.235 -0.4133 -0.2390 -0.0235
  690MOL0    Cl93059   7.704   6.865   4.284  0.1249  0.7317 -0.0504
  690MOL0     C93060   6.612   6.503   4.420 -0.2555  0.0653  0.2599
  690MOL0     C93061   6.493   6.469   4.467  0.5375  0.0304 -0.3595
  690MOL0     O93062   6.363   6.255   4.799  0.4053 -0.4192  0.2246
  690MOL0     C93063   6.079   6.187   4.801 -0.7494 -0.2356  0.5455
  690MOL0     C93064   5.942   6.201   4.817 -0.1120  0.1633  0.7129
  690MOL0     N93065   5.102   6.173   5.060  0.0463  0.9545 -0.5792
  690MOL0     N93066   5.022   6.099   5.122  0.2413  0.0270 -0.2401
  690MOL0     C93067   4.453   5.590   5.799  0.1336  0.6246  0.4346
  690MOL0     C93068   4.315   5.551   5.782  0.2292 -0.5973 -0.4910
  690MOL0     C93069   3.854   5.517   5.809  0.9610  0.0395 -0.2135
  690MOL0     C93070   3.764   5.617   5.770 -0.2608  0.5463 -0.3718
  690MOL0     C93071   3.627   5.604   5.792 -0.0026  0.2830 -0.2590
  690MOL0     C93072   3.572   5.482   5.843 -0.1345 -0.6717 -0.3874
  690MOL0     O93073   3.443   5.475   5.877  0.6086 -0.8606 -0.2542
  690MOL0     C93074   3.348   5.578   5.828  0.5271  0.5309  0.3174
  690MOL0     C93075   3.199   5.532   5.860 -0.2780  0.6651  0.0984
  690MOL0     C93076   3.084   5.632   5.821 -0.8077 -0.6479 -0.2197
  690MOL0     C93077   3.025   5.610   5.677 -0.1214  0.4678 -0.2608
  690MOL0     C93078   3.120   5.646   5.569  0.9599  0.6375 -0.0611
  690MOL0     C93079   3.189   5.689   5.480 -0.4249 -0.2826  0.4355
  690MOL0     C93080   3.655   5.379   5.871  0.0802  0.2047  0.4832
  690MOL0     C93081   3.795   5.400   5.860  0.2711 -0.1284  0.4546
  690MOL0     C93082   3.889   5.284   5.905 -0.4632 -0.5046  0.2151
  690MOL0     H93083   4.219   5.492   6.096  0.0270  0.8900 -0.3700
  690MOL0     H93084   4.457   5.539   6.138  1.9472  0.5518 -0.8220
  690MOL0     H93085   4.728   5.621   5.790  0.0109  1.8069 -1.4248
  690MOL0     H93086   4.633   5.769   5.839  0.5385  0.8321 -0.5231
  690MOL0     H93087   4.883   5.657   5.961 -0.3423 -1.3624 -0.5729
  690MOL0     H93088   4.786   5.781   6.034  0.0381 -1.9451  0.0172
  690MOL0     H93089   4.952   5.907   5.916  0.9999  0.1281 -0.4940
  690MOL0     H93090   4.801   5.919   5.817  0.8768  1.5853  1.9499
  690MOL0     H93091   5.026   5.722   5.764  2.5506  0.9292 -1.0356
  690MOL0     H93092   4.861   5.744   5.689 -1.7918  1.9155  1.7998
  690MOL0     H93093   4.941   5.987   5.628  2.8567  1.7472 -0.8290
  690MOL0     H93094   5.101   5.942   5.666  0.8077  0.2874 -1.6973
  690MOL0     H93095   5.064   5.740   5.523 -0.8918 -1.3489 -0.5420
  690MOL0     H93096   4.904   5.804   5.485  1.0579 -1.2728  0.3282
  690MOL0     H93097   5.176   5.928   5.404  0.1373 -0.8423  0.8606
  690MOL0     H93098   5.033   6.022   5.419  2.1944  0.4264  0.7330
  690MOL0     H93099   5.041   5.793   5.226  0.4778  0.5152 -1.8852
  690MOL0     H93100   4.909   5.895   5.252 -0.4371 -0.0289  0.9831
  690MOL0     H93101   5.292   5.940   5.173  0.1554  2.3602  2.6235
  690MOL0     H93102   5.333   6.300   5.034  3.0370  0.3126  1.0505
  690MOL0     H93103   5.427   6.171   5.099 -0.8934  1.8029  0.5408
  690MOL0     H93104   5.430   6.046   4.894  0.7806  0.9355  1.0682
  690MOL0     H93105   5.312   6.148   4.819 -2.1535  0.6563  2.1766
  690MOL0     H93106   5.485   6.346   4.809  0.3447  0.1658  1.0562
  690MOL0     H93107   5.506   6.206   4.703  0.0078 -1.8121  1.2336
  690MOL0     H93108   5.677   6.111   4.836 -4.5737 -0.6982 -1.3427
  690MOL0     H93109   5.674   6.242   4.954  0.0602 -2.1170  0.0745
  690MOL0     H93110   5.877   6.461   4.619  3.5495  0.5934 -1.9228
  690MOL0     H93111   6.113   6.461   4.589  0.3800 -1.9620 -2.2716
  690MOL0     H93112   6.559   6.205   4.655 -0.8195 -0.1992 -2.0559
  690MOL0     H93113   6.784   6.236   4.544 -0.2005 -0.9514 -1.2806
  690MOL0     H93114   6.969   6.305   4.436 -2.1109 -0.2581  1.5626
  690MOL0     H93115   6.863   6.229   4.329  1.2947 -0.9420 -0.6319
  690MOL0     H93116   7.041   6.255   4.187 -2.2349  0.0005 -0.2161
  690MOL0     H93117   6.959   6.396   4.141 -0.6148  0.4551  0.5170
  690MOL0     H93118   7.103   6.503   4.355 -0.8846  0.4476  0.2099
  690MOL0     H93119   7.198   6.353   4.317 -1.7080 -2.3000 -0.6940
  690MOL0     H93120   7.119   6.564   4.113  0.8763 -0.4864 -1.5114
  690MOL0     H93121   7.236   6.433   4.101  1.8743  0.7147  1.3058
  690MOL0     H93122   7.383   6.534   4.274  1.2311  0.9838  0.6246
  690MOL0     H93123   7.286   6.668   4.299  2.5175  2.3225 -1.5250
  690MOL0     H93124   7.422   6.595   4.038  0.7990 -0.2054  2.4331
  690MOL0     H93125   7.303   6.728   4.046 -1.5742 -0.8229  0.3452
  690MOL0     H93126   7.407   6.854   4.197  0.0143 -0.2388  0.2065
  690MOL0     H93127   7.505   6.834   4.061 -2.3450  1.3357 -0.5586
  690MOL0     H93128   7.560   6.683   4.329 -0.3591  0.8101  0.4612
  690MOL0     H93129   7.656   6.651   4.178  0.0135 -0.6898  0.9848
  690MOL0     H93130   6.630   6.585   4.350  0.6605 -0.9731 -0.7780
  690MOL0     H93131   6.411   6.524   4.423  0.3088 -1.6697 -2.2544
  690MOL0     H93132   6.133   6.108   4.852 -0.2863 -0.1864  0.1431
  690MOL0     H93133   5.888   6.124   4.873 -1.2869 -0.4387 -1.1609
  690MOL0     H93134   4.522   5.617   5.719 -1.0420 -0.5238 -1.0371
  690MOL0     H93135   4.271   5.572   5.685 -0.6874 -1.6591 -0.3288
  690MOL0     H93136   3.805   5.714   5.744  0.9111 -0.3007 -1.7898
  690MOL0     H93137   3.568   5.691   5.763 -2.5386 -0.4173  2.4173
  690MOL0     H93138   3.350   5.593   5.719  1.8504 -3.7545 -0.4337
  690MOL0     H93139   3.359   5.669   5.887  2.6284  0.2509  0.4094
  690MOL0     H93140   3.190   5.509   5.967  0.3926 -0.6308 -0.1080
  690MOL0     H93141   3.175   5.447   5.796 -3.6242  1.2950  0.3465
  690MOL0     H93142   3.118   5.736   5.822 -0.6040 -0.6420  3.1026
  690MOL0     H93143   2.996   5.628   5.885 -2.5662 -0.9847 -2.5420
  690MOL0     H93144   3.005   5.505   5.652 -2.1468  1.2860 -2.4756
  690MOL0     H93145   2.929   5.661   5.665 -0.8126 -0.3781  1.4399
  690MOL0     H93146   3.250   5.727   5.400  0.9415 -3.8609 -0.4289
  690MOL0     H93147   3.622   5.293   5.929 -2.9598  1.3108  0.5709
  690MOL0     H93148   3.824   5.196   5.911 -0.6087 -0.3010  2.3642
  690MOL0     H93149   3.971   5.259   5.837  0.2773  0.5789  0.6906
  690MOL0     H93150   3.935   5.297   6.003 -0.6353 -0.4078  0.2845
  691MOL0     O93151   8.029   4.575   7.138  0.2842 -0.0938 -0.0964
  691MOL0     C93152   7.949   4.484   7.143  0.2877  0.1791  0.0941
  691MOL0     O93153   7.976   4.350   7.115  0.5809  0.7236 -0.6818
  691MOL0     C93154   8.094   4.304   7.072  0.6914 -0.2650  0.5545
  691MOL0     C93155   8.173   4.376   6.980  0.1986  0.2484  0.7950
  691MOL0     C93156   8.292   4.326   6.936  0.5802  0.5053  0.3991
  691MOL0     C93157   8.343   4.206   6.984  1.2189 -0.3352 -0.3272
  691MOL0     O93158   8.460   4.180   6.926  0.4510  0.1421  0.7301
  691MOL0     C93159   8.508   4.048   6.961  0.2884 -0.9817  0.1313
  691MOL0     C93160   8.654   4.029   6.914 -0.0708  0.2488  1.9780
  691MOL0     C93161   8.753   4.117   6.990 -0.1878  1.0416  0.1576
  691MOL0     C93162   8.763   4.089   7.137  0.2270  0.1395  0.0561
  691MOL0     C93163   8.898   4.134   7.200  0.5521 -0.3858 -0.5817
  691MOL0     C93164   8.889   4.130   7.352 -0.6871 -0.1877 -0.2796
  691MOL0     C93165   9.023   4.114   7.427  0.7023 -0.1057 -0.1146
  691MOL0     C93166   9.000   4.089   7.580  0.6473 -0.2331  0.9269
  691MOL0     N93167   9.136   4.086   7.640 -0.3487  0.2886  0.5350
  691MOL0     C93168   9.205   4.191   7.694 -1.0844 -0.4100  0.6789
  691MOL0     C93169   9.318   4.132   7.722 -0.4269  0.1272  0.2339
  691MOL0     C93170   9.423   4.202   7.804  1.0935 -0.1777 -0.1521
  691MOL0     C93171   9.571   4.147   7.780  0.2628 -0.5180  0.6369
  691MOL0     C93172   9.614   4.056   7.894 -0.2795 -0.2341  0.9118
  691MOL0     C93173   9.764   4.026   7.903  0.1694  0.1912  0.8200
  691MOL0     O93174   9.850   4.145   7.901  0.2793 -0.2620 -0.1918
  691MOL0     C93175   9.977   4.131   7.939  0.0320 -0.2871 -0.0549
  691MOL0     C93176  10.059   4.237   7.887  0.4221 -0.0899  0.1407
  691MOL0     C93177  10.187   4.269   7.929  0.9993 -0.4253  0.6770
  691MOL0     C93178  10.244   4.194   8.033 -0.1964  0.2856  0.0270
  691MOL0     C93179  10.379   4.214   8.090  0.3792  0.2251  0.3251
  691MOL0     O93180  10.454   4.301   8.015 -0.3083 -0.6243 -0.3434
  691MOL0     C93181  10.574   4.345   8.066  0.1262 -0.5535  0.0663
  691MOL0     C93182  10.670   4.379   7.977 -0.0538 -0.5758 -0.4567
  691MOL0     C93183  10.791   4.429   8.023  0.0844 -0.8765 -0.5534
  691MOL0     C93184  10.822   4.450   8.157  0.0648  0.2536  0.0595
  691MOL0     O93185  10.930   4.508   8.209  0.4121 -0.3821 -0.4856
  691MOL0     C93186  11.018   4.567   8.118 -0.2560 -0.3058 -0.3985
  691MOL0     C93187  11.131   4.648   8.177 -0.1488 -1.1415  0.2779
  691MOL0     C93188  11.207   4.719   8.065  0.2020 -0.2722 -0.1192
  691MOL0     C93189  11.277   4.846   8.124 -0.8158  0.3361 -0.4297
  691MOL0     C93190  11.317   4.954   8.023  0.0849  0.0035  0.9157
  691MOL0     C93191  11.219   4.981   7.906 -0.3748 -0.0741  0.4532
  691MOL0     C93192  11.229   5.131   7.861  0.6691 -0.6787 -0.1786
  691MOL0     C93193  11.112   5.177   7.761 -0.8165 -0.2638 -0.2727
  691MOL0    Cl93194  11.107   5.059   7.624  0.5518  0.4319  0.2611
  691MOL0     C93195  10.731   4.415   8.247  1.2799 -0.0698  0.2733
  691MOL0     C93196  10.603   4.365   8.199  1.0211 -0.2016  0.6623
  691MOL0     O93197  10.412   4.166   8.199  0.5278 -0.1413  0.2085
  691MOL0     C93198  10.167   4.083   8.081 -0.1641 -0.1720  0.0793
  691MOL0     C93199  10.038   4.061   8.042  0.1888  0.2609  0.1128
  691MOL0     N93200   9.318   4.001   7.676  0.3308  0.2603  0.2871
  691MOL0     N93201   9.203   3.971   7.637 -0.1984 -0.1453  0.0305
  691MOL0     C93202   8.258   4.130   7.073  0.0509 -0.2652  0.5009
  691MOL0     C93203   8.136   4.182   7.118 -0.0191 -0.1539 -0.2805
  691MOL0     C93204   7.804   4.520   7.149 -0.7482  0.5237  0.5477
  691MOL0     C93205   7.720   4.428   7.086  0.5289  0.0183 -0.0617
  691MOL0     C93206   7.581   4.458   7.072  0.1840  0.6024 -0.2801
  691MOL0     C93207   7.522   4.565   7.120  0.0600 -0.5860 -0.0060
  691MOL0     O93208   7.387   4.597   7.101 -0.4955  0.5273 -0.2542
  691MOL0     C93209   7.303   4.492   7.050 -0.0945 -0.3889 -0.4222
  691MOL0     C93210   7.161   4.533   7.032  0.5155  0.3773 -0.1068
  691MOL0     C93211   7.106   4.600   7.157 -0.4912 -0.0324 -0.1102
  691MOL0     C93212   6.967   4.656   7.123  0.1426  0.9590  0.4525
  691MOL0     C93213   6.878   4.547   7.094  1.0034 -0.8489  0.3112
  691MOL0     C93214   6.783   4.473   7.061  0.1856 -0.9013  0.8143
  691MOL0     C93215   7.605   4.657   7.181 -0.1414 -0.6230  0.5017
  691MOL0     C93216   7.745   4.646   7.193 -0.4618 -0.3428 -0.7816
  691MOL0     C93217   7.824   4.758   7.258  0.5969 -0.2429  0.2513
  691MOL0     H93218   8.154   4.475   6.940 -1.7758 -0.7976 -1.0823
  691MOL0     H93219   8.337   4.376   6.850  0.8252 -0.6808 -0.1801
  691MOL0     H93220   8.508   4.030   7.069 -0.6399 -2.2541 -0.0621
  691MOL0     H93221   8.444   3.976   6.909  1.5512 -1.2559 -1.0886
  691MOL0     H93222   8.657   4.046   6.806  1.4715  1.5513  2.1814
  691MOL0     H93223   8.686   3.927   6.936  0.7365  0.3401  1.2981
  691MOL0     H93224   8.724   4.222   6.980 -3.6241  0.2699  0.7289
  691MOL0     H93225   8.853   4.106   6.946  0.5235 -1.7267  2.1374
  691MOL0     H93226   8.685   4.144   7.191  0.5392  0.2538  0.3892
  691MOL0     H93227   8.750   3.982   7.155  2.3726  0.0552  1.4379
  691MOL0     H93228   8.961   4.054   7.160  1.5259  0.5305 -0.9359
  691MOL0     H93229   8.920   4.234   7.164 -0.6819 -0.0855 -0.5390
  691MOL0     H93230   8.838   4.219   7.391  1.6978  0.0112  2.7714
  691MOL0     H93231   8.825   4.047   7.386  1.1608 -2.5232 -2.1844
  691MOL0     H93232   9.093   4.197   7.418  2.8192 -1.7748  0.2496
  691MOL0     H93233   9.078   4.029   7.387  1.1347  0.7262 -1.3542
  691MOL0     H93234   8.940   4.171   7.619  0.9191  0.8790 -0.8837
  691MOL0     H93235   8.953   3.995   7.610 -2.2407  1.4384  1.9894
  691MOL0     H93236   9.187   4.298   7.689 -0.1254 -0.2762 -0.2939
  691MOL0     H93237   9.403   4.304   7.772  2.5741 -0.2509 -1.4324
  691MOL0     H93238   9.388   4.190   7.907 -0.3418 -0.8362 -0.6740
  691MOL0     H93239   9.589   4.078   7.698  3.4774 -2.3041  2.6319
  691MOL0     H93240   9.635   4.235   7.772  1.2191 -1.0918  1.6570
  691MOL0     H93241   9.570   3.956   7.881 -0.9022  0.2410 -0.9467
  691MOL0     H93242   9.590   4.105   7.989 -3.0337  2.4181 -0.9740
  691MOL0     H93243   9.795   3.957   7.825 -1.5149 -1.8096  1.8444
  691MOL0     H93244   9.775   3.981   8.002 -0.6823 -2.0517 -0.0570
  691MOL0     H93245  10.012   4.298   7.811 -1.4104  0.1809  1.4209
  691MOL0     H93246  10.238   4.355   7.887  0.7352 -0.0416  1.1324
  691MOL0     H93247  10.645   4.365   7.872 -2.2948 -1.1744  0.1036
  691MOL0     H93248  10.864   4.468   7.953  0.2839  0.8711  0.5668
  691MOL0     H93249  11.052   4.481   8.059 -1.2101 -1.9064  1.2489
  691MOL0     H93250  10.961   4.640   8.060 -1.4681  1.9460  3.3054
  691MOL0     H93251  11.098   4.722   8.251  0.5752 -2.7526  2.2736
  691MOL0     H93252  11.193   4.581   8.236  0.7051 -0.9197 -0.3588
  691MOL0     H93253  11.276   4.650   8.013  0.1356 -0.2847 -0.1916
  691MOL0     H93254  11.147   4.749   7.979  3.6932  0.0341 -2.6584
  691MOL0     H93255  11.365   4.818   8.183  0.7792  2.7624 -1.4714
  691MOL0     H93256  11.207   4.892   8.195 -1.3088  0.1187 -0.7670
  691MOL0     H93257  11.405   4.918   7.969 -0.9427  2.4271 -2.7035
  691MOL0     H93258  11.350   5.042   8.080  3.1900 -0.3943 -0.0834
  691MOL0     H93259  11.249   4.909   7.828  0.2645 -0.2572  0.8555
  691MOL0     H93260  11.119   4.948   7.933 -0.3151  0.1889  0.9964
  691MOL0     H93261  11.324   5.149   7.811  0.0643 -1.0836 -1.5153
  691MOL0     H93262  11.229   5.190   7.953 -0.8239 -0.9360  0.0237
  691MOL0     H93263  11.013   5.175   7.807  0.4289  1.4675  2.8006
  691MOL0     H93264  11.133   5.277   7.721  2.6106 -0.7243  0.0521
  691MOL0     H93265  10.757   4.432   8.351  1.9086  0.4754  0.0325
  691MOL0     H93266  10.525   4.354   8.274  1.1572 -2.1311  0.5689
  691MOL0     H93267  10.212   4.019   8.157 -2.2123 -0.3907  1.1743
  691MOL0     H93268   9.980   3.989   8.098  0.7119 -1.5101 -1.5203
  691MOL0     H93269   8.280   4.030   7.109 -0.4127  0.0573  1.7348
  691MOL0     H93270   8.082   4.137   7.201 -0.1599  2.1283  0.9224
  691MOL0     H93271   7.757   4.334   7.046  1.6265  0.8229 -0.9787
  691MOL0     H93272   7.525   4.389   7.009  1.3545 -0.8511  0.2163
  691MOL0     H93273   7.304   4.414   7.126  2.1474  1.1476  1.2365
  691MOL0     H93274   7.338   4.456   6.953  2.5055  1.1372 -0.1423
  691MOL0     H93275   7.113   4.438   7.004 -1.7297  1.1567  0.8526
  691MOL0     H93276   7.151   4.594   6.942 -0.8042  0.0538 -0.2083
  691MOL0     H93277   7.171   4.681   7.190  2.4068 -2.8053  1.4400
  691MOL0     H93278   7.105   4.520   7.231 -0.1793  0.5677  0.5596
  691MOL0     H93279   6.919   4.703   7.210  1.3036 -0.8981  2.2028
  691MOL0     H93280   6.976   4.723   7.037  2.3991  1.6312  1.1559
  691MOL0     H93281   6.701   4.410   7.036  1.2131 -1.4169 -1.5091
  691MOL0     H93282   7.549   4.741   7.219  0.2082  0.1356 -0.6246
  691MOL0     H93283   7.788   4.857   7.229 -0.7498  0.1199  2.8529
  691MOL0     H93284   7.832   4.749   7.367  2.1829 -2.7630  0.0272
  691MOL0     H93285   7.929   4.751   7.228  0.8229  0.8416  0.7569
  692MOL0     O93286   6.057   9.258   7.137 -0.2023  0.3449  0.8949
  692MOL0     C93287   5.990   9.189   7.217 -0.2218 -0.6709 -0.1015
  692MOL0     O93288   6.012   9.184   7.354  0.2262 -0.0047 -0.9266
  692MOL0     C93289   6.112   9.266   7.407  0.1385 -0.0207 -0.0847
  692MOL0     C93290   6.076   9.365   7.493 -0.5685 -0.1362 -0.1864
  692MOL0     C93291   6.174   9.443   7.556  0.3205 -0.5176 -0.0184
  692MOL0     C93292   6.306   9.427   7.524 -0.3025 -0.2468 -0.6169
  692MOL0     O93293   6.393   9.519   7.571  0.2004  0.2454 -0.3727
  692MOL0     C93294   6.520   9.546   7.516 -0.1377  0.5853  0.1409
  692MOL0     C93295   6.560   9.682   7.578 -0.6827 -0.4247 -0.2055
  692MOL0     C93296   6.642   9.667   7.713  0.3911  0.3573 -0.9480
  692MOL0     C93297   6.724   9.789   7.742  1.0796 -0.4806 -0.4215
  692MOL0     C93298   6.811   9.791   7.868 -0.4643  0.7259 -1.1623
  692MOL0     C93299   6.901   9.904   7.854  0.4512 -0.1571  0.8090
  692MOL0     C93300   6.979   9.925   7.981 -0.4329  0.5385 -0.0825
  692MOL0     C93301   6.904   9.983   8.102 -0.6042 -0.5320 -0.2818
  692MOL0     N93302   6.837  10.101   8.054  0.1512  1.2596 -0.2936
  692MOL0     C93303   6.704  10.103   8.030  0.8639 -0.3095  0.2653
  692MOL0     C93304   6.688  10.221   7.959  0.1561 -0.0124  0.0839
  692MOL0     C93305   6.563  10.285   7.901  0.6737  0.4336 -0.6926
  692MOL0     C93306   6.472  10.182   7.815  0.6102  0.5194  0.2052
  692MOL0     C93307   6.386  10.100   7.908 -0.1360  0.4103 -0.1443
  692MOL0     C93308   6.381   9.957   7.845  0.4452 -0.0820 -0.1829
  692MOL0     O93309   6.334   9.960   7.713  0.3275  0.2746  0.1194
  692MOL0     C93310   6.197   9.941   7.697 -0.4403 -0.7465  0.5628
  692MOL0     C93311   6.141   9.820   7.669 -0.5154  0.1888 -0.4545
  692MOL0     C93312   5.997   9.791   7.678 -1.0520  0.6039  0.0518
  692MOL0     C93313   5.911   9.893   7.709  0.4671  0.2079  0.2411
  692MOL0     C93314   5.762   9.867   7.734 -0.4747 -0.4565  0.8251
  692MOL0     O93315   5.709   9.751   7.688  0.4601  0.3739  0.7068
  692MOL0     C93316   5.575   9.724   7.694 -0.9005  0.3696  0.3563
  692MOL0     C93317   5.514   9.668   7.581 -0.7561  0.4638  0.6243
  692MOL0     C93318   5.380   9.631   7.573  0.8990  0.3019 -0.1101
  692MOL0     C93319   5.303   9.640   7.690  1.1569  0.2368 -0.5734
  692MOL0     O93320   5.169   9.608   7.714 -0.8955  0.0080 -0.1031
  692MOL0     C93321   5.087   9.621   7.597  0.2419 -0.6544  0.4912
  692MOL0     C93322   4.943   9.583   7.636  0.6783  0.0166 -0.1011
  692MOL0     C93323   4.854   9.587   7.510  0.2006  0.3471 -0.0351
  692MOL0     C93324   4.702   9.548   7.536 -0.1301  0.4194  0.4689
  692MOL0     C93325   4.611   9.593   7.412  0.4927  0.7506 -0.0278
  692MOL0     C93326   4.469   9.613   7.469  0.9799  0.6139  0.3218
  692MOL0     C93327   4.365   9.656   7.375  0.7034  0.0569  0.0778
  692MOL0     C93328   4.270   9.545   7.334  0.3019  0.0873  1.3328
  692MOL0    Cl93329   4.350   9.433   7.226 -0.1608  0.7742  0.3638
  692MOL0     C93330   5.356   9.700   7.798  0.8126  0.7354  0.6090
  692MOL0     C93331   5.496   9.739   7.805 -0.1696 -0.7466  0.2268
  692MOL0     O93332   5.698   9.959   7.780  0.6153 -0.8157  0.0430
  692MOL0     C93333   5.970  10.021   7.736  0.1725 -0.3042 -0.2104
  692MOL0     C93334   6.105  10.045   7.731 -0.0086  0.2709 -0.4059
  692MOL0     N93335   6.815  10.280   7.948 -0.2852 -0.4740 -0.9589
  692MOL0     N93336   6.899  10.209   8.012 -0.4967  0.0945 -0.5759
  692MOL0     C93337   6.340   9.322   7.432 -0.6115 -0.2952  0.4406
  692MOL0     C93338   6.247   9.239   7.377 -0.7506 -0.2633 -0.8709
  692MOL0     C93339   5.879   9.109   7.165  0.1038 -0.6229  0.3139
  692MOL0     C93340   5.776   9.075   7.257  0.1938  0.3403  1.1019
  692MOL0     C93341   5.677   8.988   7.227  0.6426  0.4966 -0.3835
  692MOL0     C93342   5.660   8.935   7.102 -0.0979  0.1949  0.2804
  692MOL0     O93343   5.557   8.849   7.088 -0.0375 -0.0573 -0.1424
  692MOL0     C93344   5.507   8.802   6.965 -0.8402 -0.4122  0.2857
  692MOL0     C93345   5.407   8.898   6.908 -0.7579 -0.7198 -0.1840
  692MOL0     C93346   5.295   8.940   7.011 -0.2651  0.0181 -0.7213
  692MOL0     C93347   5.220   8.815   7.067 -0.1851 -0.2184 -0.2322
  692MOL0     C93348   5.093   8.803   7.002  0.0766 -0.7955  0.3581
  692MOL0     C93349   4.998   8.778   6.931 -0.7381  0.1774  1.3605
  692MOL0     C93350   5.748   8.972   7.007 -0.2389 -0.2486  0.1328
  692MOL0     C93351   5.860   9.055   7.031 -0.3344  0.0306  1.7088
  692MOL0     C93352   5.953   9.072   6.919 -0.2167 -0.9077  0.8014
  692MOL0     H93353   5.970   9.384   7.507 -0.2216  2.7829 -0.9806
  692MOL0     H93354   6.143   9.523   7.622 -0.6778 -1.4233  0.6471
  692MOL0     H93355   6.592   9.465   7.527 -1.7424 -0.8365  0.5658
  692MOL0     H93356   6.508   9.557   7.408 -0.4559 -0.1799  0.0902
  692MOL0     H93357   6.472   9.744   7.600  0.1042 -0.4142  3.7528
  692MOL0     H93358   6.622   9.727   7.500 -2.1382  1.6696 -0.2316
  692MOL0     H93359   6.713   9.583   7.713  0.2662  0.0490  2.9661
  692MOL0     H93360   6.578   9.651   7.800  0.8395 -1.0686 -0.8455
  692MOL0     H93361   6.787   9.800   7.653  2.6992  0.2639  0.7538
  692MOL0     H93362   6.653   9.872   7.745 -1.1740 -2.2332 -2.1728
  692MOL0     H93363   6.755   9.789   7.962  1.5066 -0.1333  0.0460
  692MOL0     H93364   6.861   9.694   7.877 -2.4321 -0.1400  3.7721
  692MOL0     H93365   6.981   9.881   7.784 -0.4165  0.0129 -0.2548
  692MOL0     H93366   6.862   9.999   7.816  0.3492 -0.7128 -0.5191
  692MOL0     H93367   7.059   9.996   7.958  0.8882 -1.2547 -1.3258
  692MOL0     H93368   7.024   9.829   8.006 -1.6446 -0.5873 -1.9210
  692MOL0     H93369   6.830   9.922   8.154 -0.5594 -1.5672 -1.4105
  692MOL0     H93370   6.969  10.024   8.180 -3.3437  2.9494  0.4308
  692MOL0     H93371   6.627  10.030   8.054 -0.7791  0.7248 -1.6300
  692MOL0     H93372   6.496  10.335   7.971  0.2230 -0.3795 -0.5296
  692MOL0     H93373   6.596  10.366   7.836  0.6897 -0.4325 -1.7904
  692MOL0     H93374   6.404  10.233   7.746 -2.8110 -0.4602  2.5542
  692MOL0     H93375   6.545  10.129   7.753  1.3991  3.3366 -1.4525
  692MOL0     H93376   6.285  10.141   7.920 -1.6762 -3.3294  1.4734
  692MOL0     H93377   6.412  10.094   8.014 -0.3078 -0.9075 -0.1495
  692MOL0     H93378   6.319   9.900   7.915 -0.3638  1.1866  0.1578
  692MOL0     H93379   6.480   9.912   7.834  0.6308  0.4984 -0.9474
  692MOL0     H93380   6.217   9.747   7.645  1.5327  0.6688  3.6413
  692MOL0     H93381   5.956   9.692   7.658 -1.2384  0.6757  0.0869
  692MOL0     H93382   5.566   9.648   7.488 -1.3206  0.6341  0.2637
  692MOL0     H93383   5.342   9.589   7.481  1.4339  3.0526 -1.6735
  692MOL0     H93384   5.081   9.725   7.565 -2.0861 -0.5765  1.0733
  692MOL0     H93385   5.118   9.555   7.515  1.8019  3.9542 -3.0337
  692MOL0     H93386   4.943   9.482   7.679 -0.4028 -0.0941 -0.3440
  692MOL0     H93387   4.905   9.656   7.709  0.0042  0.2482 -0.6813
  692MOL0     H93388   4.858   9.686   7.464 -1.8405  0.0194 -1.0744
  692MOL0     H93389   4.887   9.518   7.432 -3.5016 -1.1473 -0.4962
  692MOL0     H93390   4.672   9.589   7.633  0.5457 -0.1145  0.9097
  692MOL0     H93391   4.688   9.440   7.545 -1.3595  0.4784 -0.4112
  692MOL0     H93392   4.620   9.521   7.330 -1.4609  2.6305 -2.0370
  692MOL0     H93393   4.638   9.687   7.364  0.4708 -0.3695 -2.3955
  692MOL0     H93394   4.437   9.531   7.534 -2.2968  0.7433 -0.9489
  692MOL0     H93395   4.476   9.695   7.540 -0.6846  1.1716 -0.1325
  692MOL0     H93396   4.416   9.696   7.287  1.6772 -3.6201 -1.2232
  692MOL0     H93397   4.294   9.725   7.420 -0.9944 -1.8164  0.3885
  692MOL0     H93398   4.230   9.492   7.422  0.2992  0.5004  1.5840
  692MOL0     H93399   4.180   9.587   7.287  0.8128  0.2923  0.5307
  692MOL0     H93400   5.282   9.719   7.874  1.5717 -0.0780  1.5768
  692MOL0     H93401   5.543   9.790   7.889  0.4008 -0.5171 -0.2230
  692MOL0     H93402   5.896  10.097   7.758 -1.8069 -2.3063  0.4855
  692MOL0     H93403   6.130  10.149   7.750  1.1305 -0.1421  0.4945
  692MOL0     H93404   6.446   9.305   7.421 -0.4455  0.9269  0.0095
  692MOL0     H93405   6.268   9.159   7.306  5.5291 -0.6055  0.8068
  692MOL0     H93406   5.774   9.124   7.354 -1.0302  0.6829  0.9248
  692MOL0     H93407   5.599   8.961   7.296 -1.5805 -0.1009 -2.9415
  692MOL0     H93408   5.460   8.704   6.969 -1.1683 -0.2117  2.2840
  692MOL0     H93409   5.579   8.800   6.882  1.7256  0.1724  2.3405
  692MOL0     H93410   5.360   8.842   6.826  0.4101 -4.3478  1.3808
  692MOL0     H93411   5.463   8.983   6.869 -1.0654  1.0424  2.9559
  692MOL0     H93412   5.228   9.014   6.966 -1.8516 -0.0346  1.3704
  692MOL0     H93413   5.344   8.991   7.095 -2.1673 -0.8397  1.0091
  692MOL0     H93414   5.283   8.726   7.057 -0.5183 -0.2348 -3.3065
  692MOL0     H93415   5.193   8.829   7.171 -1.4993 -2.3738 -0.2283
  692MOL0     H93416   4.932   8.746   6.853 -1.9727  1.6756  1.7374
  692MOL0     H93417   5.738   8.929   6.908 -2.0060  0.6738 -0.1497
  692MOL0     H93418   5.900   9.044   6.828 -0.7042  2.9502 -0.2409
  692MOL0     H93419   5.984   9.173   6.893 -2.1431  0.6372  3.9566
  692MOL0     H93420   6.042   9.009   6.930 -1.2168 -2.1094  2.6725
  693MOL0     O93421   7.433   0.170   1.287  0.4792  0.2159  0.4207
  693MOL0     C93422   7.378   0.069   1.251 -0.3236  0.4392 -0.7187
  693MOL0     O93423   7.435  -0.049   1.242  0.0009 -0.2637 -0.0908
  693MOL0     C93424   7.570  -0.065   1.271 -0.2500 -0.4628 -0.1091
  693MOL0     C93425   7.676   0.024   1.231 -1.2407  1.0634 -0.0813
  693MOL0     C93426   7.804   0.007   1.279 -0.4734  0.0587  0.9729
  693MOL0     C93427   7.831  -0.088   1.372 -0.0932  0.6723  0.3039
  693MOL0     O93428   7.962  -0.105   1.409 -0.1318 -0.1104 -0.3602
  693MOL0     C93429   7.986  -0.117   1.559  0.9631  0.2438  0.2742
  693MOL0     C93430   8.127  -0.074   1.616 -0.4850 -0.1383 -0.0539
  693MOL0     C93431   8.226  -0.133   1.516 -0.0753 -0.1563 -0.0820
  693MOL0     C93432   8.364  -0.169   1.578  1.3005  0.0526 -0.2172
  693MOL0     C93433   8.475  -0.176   1.477 -0.0485 -0.1505  1.2575
  693MOL0     C93434   8.573  -0.275   1.531  1.3810  0.5862 -0.1016
  693MOL0     C93435   8.694  -0.285   1.440 -0.4976  0.3144  0.2951
  693MOL0     C93436   8.804  -0.178   1.461  0.5569 -1.0013 -0.2239
  693MOL0     N93437   8.914  -0.210   1.373  0.5617 -0.7889  0.3762
  693MOL0     C93438   8.923  -0.184   1.240 -0.0281  0.0598 -0.1471
  693MOL0     C93439   9.049  -0.236   1.194  0.8174 -0.2962  0.1965
  693MOL0     C93440   9.111  -0.237   1.056 -0.6703  0.2522  0.1466
  693MOL0     C93441   9.237  -0.147   1.047 -0.1912  0.1589 -0.4737
  693MOL0     C93442   9.208   0.001   1.035 -0.6607 -0.6990 -0.1295
  693MOL0     C93443   9.319   0.092   1.092  0.6552 -0.4044  0.0096
  693MOL0     O93444   9.446   0.047   1.044  0.5555  0.0917  0.5272
  693MOL0     C93445   9.555   0.134   1.076 -0.7735 -0.4502 -0.3405
  693MOL0     C93446   9.665   0.155   0.985 -0.8723  0.0526 -0.1987
  693MOL0     C93447   9.770   0.241   1.013 -0.1694 -0.3348  0.5240
  693MOL0     C93448   9.781   0.294   1.143 -1.3781 -0.5101  0.1430
  693MOL0     C93449   9.895   0.383   1.178 -0.0634 -0.3815 -0.6706
  693MOL0     O93450   9.990   0.398   1.083 -0.2944  0.8775 -0.5331
  693MOL0     C93451  10.090   0.497   1.084 -0.5365  0.5685 -0.2354
  693MOL0     C93452  10.079   0.621   1.142 -0.5434  0.1040  0.5462
  693MOL0     C93453  10.188   0.715   1.120  0.5933 -0.2878 -0.5924
  693MOL0     C93454  10.300   0.687   1.038 -0.5007  0.2239 -0.1049
  693MOL0     O93455  10.406   0.777   1.017 -0.1123  0.1071 -0.0904
  693MOL0     C93456  10.491   0.808   1.124  0.2441  0.0561 -0.4003
  693MOL0     C93457  10.582   0.922   1.071 -1.0076 -0.7084 -0.0643
  693MOL0     C93458  10.525   1.047   1.004  1.0464 -0.2830 -0.7860
  693MOL0     C93459  10.441   1.131   1.095 -0.0894  0.4463 -0.0233
  693MOL0     C93460  10.317   1.179   1.012  1.0054  0.1663 -0.2208
  693MOL0     C93461  10.242   1.283   1.099 -0.0401 -0.1934  0.0644
  693MOL0     C93462  10.095   1.290   1.057 -0.0843  0.0531  1.0382
  693MOL0     C93463  10.011   1.367   1.161 -0.8889 -0.3631  0.4276
  693MOL0    Cl93464  10.009   1.277   1.317 -0.0769  0.1258 -0.1348
  693MOL0     C93465  10.313   0.553   0.992  0.1525  0.5506 -0.2648
  693MOL0     C93466  10.209   0.461   1.005 -0.1450  0.0052 -0.3399
  693MOL0     O93467   9.904   0.430   1.291  0.2529 -0.2747  0.5724
  693MOL0     C93468   9.686   0.269   1.231 -0.1416 -0.1168 -0.1778
  693MOL0     C93469   9.579   0.186   1.200 -0.1427  0.7642 -0.4609
  693MOL0     N93470   9.103  -0.290   1.311 -0.2912 -0.3345 -0.5268
  693MOL0     N93471   9.022  -0.277   1.412  0.3490  0.2113  1.0491
  693MOL0     C93472   7.728  -0.169   1.425 -0.6242  0.2789 -0.2038
  693MOL0     C93473   7.598  -0.162   1.369 -0.0548 -0.4106 -0.4484
  693MOL0     C93474   7.223   0.067   1.247  0.1982  0.1114  1.0191
  693MOL0     C93475   7.159   0.198   1.251 -0.7997  0.0702 -0.6558
  693MOL0     C93476   7.022   0.211   1.224  0.1032  0.6699  0.1668
  693MOL0     C93477   6.945   0.103   1.192  0.3949  0.1955  0.0951
  693MOL0     O93478   6.807   0.126   1.163 -0.4918  0.2153  0.5249
  693MOL0     C93479   6.764   0.050   1.047  0.1364  0.3743  1.4859
  693MOL0     C93480   6.638   0.117   0.990 -0.0864  0.9850 -0.2585
  693MOL0     C93481   6.590   0.041   0.865  0.1432  0.4625  0.3251
  693MOL0     C93482   6.480   0.122   0.808 -0.1388  0.8957 -0.1985
  693MOL0     C93483   6.413   0.062   0.689 -0.5211 -0.5095  0.0026
  693MOL0     C93484   6.363   0.017   0.584  0.8001 -0.4410 -0.8443
  693MOL0     C93485   7.002  -0.022   1.195  0.4545 -0.0672 -0.3786
  693MOL0     C93486   7.138  -0.040   1.219  0.5530  0.6274  0.0473
  693MOL0     C93487   7.186  -0.178   1.200 -0.5333 -0.7383 -0.4382
  693MOL0     H93488   7.658   0.101   1.157 -0.3219  1.4024  0.0348
  693MOL0     H93489   7.886   0.072   1.249 -0.8448  1.5552  2.9589
  693MOL0     H93490   7.906  -0.064   1.612  0.8735 -1.0948  1.5410
  693MOL0     H93491   7.971  -0.219   1.596  0.4602  0.6051  1.0792
  693MOL0     H93492   8.155  -0.112   1.715  2.8471  3.5089  0.6329
  693MOL0     H93493   8.141   0.034   1.623 -4.3683  0.4072  1.5306
  693MOL0     H93494   8.236  -0.068   1.428 -0.8228 -1.3526 -1.0731
  693MOL0     H93495   8.199  -0.229   1.472  2.2414 -1.3469  0.9298
  693MOL0     H93496   8.394  -0.097   1.655  0.0032 -0.4698  0.8171
  693MOL0     H93497   8.355  -0.262   1.636  3.8033  0.7730  1.5098
  693MOL0     H93498   8.433  -0.207   1.380  1.4107  0.5076  0.3710
  693MOL0     H93499   8.520  -0.077   1.461  1.6420 -1.2517 -1.7653
  693MOL0     H93500   8.598  -0.254   1.635  0.0435 -0.8455  0.5457
  693MOL0     H93501   8.524  -0.373   1.534 -0.2637  1.4071  0.7771
  693MOL0     H93502   8.650  -0.281   1.340 -1.8699 -2.4908  0.6903
  693MOL0     H93503   8.750  -0.377   1.455  0.0468  0.0898 -2.5035
  693MOL0     H93504   8.767  -0.076   1.450  0.0425 -1.2730 -1.0920
  693MOL0     H93505   8.844  -0.177   1.563 -1.6587  2.2241  0.7485
  693MOL0     H93506   8.853  -0.125   1.181 -0.6749 -1.8927 -1.4165
  693MOL0     H93507   9.133  -0.340   1.027  0.1156  0.1917  0.8930
  693MOL0     H93508   9.030  -0.211   0.988 -1.4911 -2.3148  0.0395
  693MOL0     H93509   9.282  -0.165   1.145  1.1216  0.6071 -0.9721
  693MOL0     H93510   9.305  -0.172   0.965  0.0686 -1.6208  0.2321
  693MOL0     H93511   9.113   0.028   1.084 -0.0321 -2.5341  2.2899
  693MOL0     H93512   9.199   0.030   0.930  2.6806  0.7180 -0.1434
  693MOL0     H93513   9.310   0.084   1.201 -3.0654  1.2953 -0.0070
  693MOL0     H93514   9.307   0.199   1.071  1.1054 -0.5238 -0.8851
  693MOL0     H93515   9.649   0.114   0.886 -1.8092  0.3870 -0.1952
  693MOL0     H93516   9.844   0.255   0.935 -1.0790  1.4147 -0.1003
  693MOL0     H93517   9.994   0.650   1.202  0.9921  0.7340  2.5391
  693MOL0     H93518  10.183   0.812   1.168  0.7420 -0.6023  0.0706
  693MOL0     H93519  10.436   0.847   1.210  2.0660  1.0689  0.3558
  693MOL0     H93520  10.552   0.721   1.151 -0.9528 -1.2193 -1.5823
  693MOL0     H93521  10.648   0.972   1.144 -0.4432  0.7457 -1.4898
  693MOL0     H93522  10.654   0.878   1.001 -0.1852  2.0725 -1.1527
  693MOL0     H93523  10.615   1.103   0.976  2.2123 -0.9983  1.2564
  693MOL0     H93524  10.469   1.016   0.916  0.3658 -0.2895 -0.3546
  693MOL0     H93525  10.497   1.216   1.134 -2.2681  0.7536  2.7438
  693MOL0     H93526  10.408   1.075   1.183  2.1245 -2.2533 -0.7480
  693MOL0     H93527  10.244   1.100   0.996  0.5923  0.1865  1.3692
  693MOL0     H93528  10.356   1.225   0.920  2.0790 -1.0999 -0.4172
  693MOL0     H93529  10.238   1.264   1.206 -4.3464 -1.8080 -0.1681
  693MOL0     H93530  10.288   1.378   1.069  0.6225 -0.5705 -0.1381
  693MOL0     H93531  10.046   1.193   1.045  1.2007 -0.4879 -0.0761
  693MOL0     H93532  10.090   1.338   0.958  0.7203  0.2138  1.0739
  693MOL0     H93533  10.059   1.463   1.179  0.7231 -1.1482  0.5459
  693MOL0     H93534   9.906   1.373   1.132 -0.5470 -1.3140 -1.2050
  693MOL0     H93535  10.386   0.530   0.915 -0.6460 -0.8028 -0.6476
  693MOL0     H93536  10.228   0.369   0.951  2.4363  1.3843 -1.9993
  693MOL0     H93537   9.688   0.321   1.327 -0.7337  0.5124 -0.4945
  693MOL0     H93538   9.514   0.180   1.287 -0.6290  2.8905 -0.6293
  693MOL0     H93539   7.746  -0.252   1.494  2.1553  1.2976  0.3904
  693MOL0     H93540   7.521  -0.232   1.398 -1.9382  1.6353 -0.1966
  693MOL0     H93541   7.228   0.281   1.262 -1.6119  0.8277 -1.1162
  693MOL0     H93542   6.972   0.307   1.219 -0.0093  0.5961 -0.1605
  693MOL0     H93543   6.727  -0.050   1.071 -2.6324  0.0760 -2.8648
  693MOL0     H93544   6.833   0.055   0.962  0.1205 -1.2829  1.3308
  693MOL0     H93545   6.660   0.219   0.956  0.3769  0.9557 -0.0558
  693MOL0     H93546   6.559   0.121   1.065  2.1243  0.3442  2.2592
  693MOL0     H93547   6.560  -0.062   0.888  0.0499  0.0620 -1.4002
  693MOL0     H93548   6.670   0.035   0.790 -1.0772  1.0218 -1.0871
  693MOL0     H93549   6.407   0.130   0.890 -0.9897  2.2420 -1.0466
  693MOL0     H93550   6.511   0.226   0.790 -1.5180  1.3222 -0.2644
  693MOL0     H93551   6.307  -0.032   0.507  0.7345 -2.6586  0.5038
  693MOL0     H93552   6.944  -0.109   1.166  0.2153  1.0044 -3.5137
  693MOL0     H93553   7.240  -0.228   1.281 -0.2141  2.1346  1.2581
  693MOL0     H93554   7.097  -0.236   1.174 -2.4016  1.9368 -0.3271
  693MOL0     H93555   7.241  -0.204   1.109  2.2345  0.3613  0.8048
  694MOL0     O93556   8.248   2.555   6.963  0.1294 -0.2640  0.1872
  694MOL0     C93557   8.233   2.649   7.039  0.7407  0.1059  1.0662
  694MOL0     O93558   8.334   2.721   7.085 -0.1981 -0.6153 -0.3143
  694MOL0     C93559   8.468   2.683   7.062  0.0256  0.2121 -0.1946
  694MOL0     C93560   8.550   2.779   7.012 -0.1855  0.1642 -0.3185
  694MOL0     C93561   8.686   2.748   6.978 -0.2019  0.6156  0.4557
  694MOL0     C93562   8.737   2.617   7.000 -0.3913  0.2677 -0.1235
  694MOL0     O93563   8.872   2.600   6.979 -0.0823  0.1628 -0.2293
  694MOL0     C93564   8.932   2.477   7.019 -0.1287 -0.0720 -0.4892
  694MOL0     C93565   9.076   2.470   6.968 -0.0084  0.3467 -0.2438
  694MOL0     C93566   9.143   2.336   6.992  0.6815  0.2493 -0.4481
  694MOL0     C93567   9.285   2.321   6.963 -0.4639 -0.9126 -0.8641
  694MOL0     C93568   9.380   2.369   7.073 -0.4363  0.3578 -0.9413
  694MOL0     C93569   9.519   2.321   7.036 -0.9418  0.1427  0.0892
  694MOL0     C93570   9.611   2.365   7.158 -0.4727  0.1231  0.1164
  694MOL0     C93571   9.752   2.305   7.137  0.1634  0.5020 -0.4157
  694MOL0     N93572   9.840   2.362   7.240  0.5198 -0.2117 -0.2315
  694MOL0     C93573   9.830   2.332   7.376 -0.0959 -0.5047 -0.5634
  694MOL0     C93574   9.908   2.419   7.439  0.8144  0.0900  0.2734
  694MOL0     C93575   9.927   2.430   7.583  0.3044 -0.1052 -0.1311
  694MOL0     C93576   9.802   2.480   7.652  0.4150  0.1123  0.7656
  694MOL0     C93577   9.782   2.632   7.671 -0.1813 -0.4102  0.2234
  694MOL0     C93578   9.638   2.673   7.649 -0.8645  0.5882  0.7400
  694MOL0     O93579   9.548   2.570   7.680  0.0055 -0.1143 -0.0814
  694MOL0     C93580   9.415   2.606   7.697 -0.6831 -0.2131  0.1676
  694MOL0     C93581   9.339   2.524   7.778  0.1910 -0.0403  0.1480
  694MOL0     C93582   9.204   2.545   7.802  0.4016  0.7350 -0.4997
  694MOL0     C93583   9.134   2.654   7.741 -0.5988  1.0537 -0.5305
  694MOL0     C93584   8.983   2.667   7.766 -0.9048  0.3393 -0.1434
  694MOL0     O93585   8.919   2.767   7.694  0.5322  0.3274 -0.4862
  694MOL0     C93586   8.784   2.790   7.722 -0.3950  0.6431  0.3580
  694MOL0     C93587   8.730   2.797   7.848 -1.0961  1.0045  0.7626
  694MOL0     C93588   8.598   2.837   7.857 -0.6687  0.0799 -0.3106
  694MOL0     C93589   8.522   2.867   7.746 -0.2049  0.5414 -0.1076
  694MOL0     O93590   8.388   2.896   7.760  0.2153  0.1765  0.4668
  694MOL0     C93591   8.338   3.002   7.679  0.2883  0.4622  0.7665
  694MOL0     C93592   8.233   3.077   7.765 -0.4132 -0.2796 -0.0358
  694MOL0     C93593   8.113   2.988   7.806  0.0103 -0.5099  0.0626
  694MOL0     C93594   8.112   2.955   7.957 -0.8272  0.1125  0.2073
  694MOL0     C93595   7.999   2.866   8.003  0.3650 -0.5092  0.3587
  694MOL0     C93596   7.855   2.909   7.992  0.1058 -0.8655 -0.4689
  694MOL0     C93597   7.838   3.061   8.028 -0.0768 -0.2383 -0.6072
  694MOL0     C93598   7.689   3.111   8.034 -0.2981 -0.1172 -0.2296
  694MOL0    Cl93599   7.648   3.165   7.867 -0.4388 -0.0773  0.1720
  694MOL0     C93600   8.582   2.879   7.624 -0.9416 -1.2014  0.6733
  694MOL0     C93601   8.717   2.843   7.614  0.6884 -0.1638 -0.1236
  694MOL0     O93602   8.935   2.585   7.833 -0.7815  0.3134 -0.2983
  694MOL0     C93603   9.208   2.740   7.671  0.5444 -0.5286  0.0961
  694MOL0     C93604   9.346   2.716   7.647 -0.2839  0.2873  0.3400
  694MOL0     N93605   9.960   2.508   7.341  0.3993 -0.2287 -0.4726
  694MOL0     N93606   9.919   2.472   7.225 -0.0220 -0.2323 -0.2282
  694MOL0     C93607   8.645   2.523   7.047  0.3394  0.4060  0.2249
  694MOL0     C93608   8.510   2.553   7.073  0.2607  0.4998  0.4202
  694MOL0     C93609   8.087   2.695   7.065 -0.3700  0.6026 -0.2936
  694MOL0     C93610   8.064   2.836   7.086 -0.0633  0.4527 -0.2783
  694MOL0     C93611   7.941   2.894   7.104 -0.1827 -0.1835 -0.5659
  694MOL0     C93612   7.837   2.814   7.110  0.0633  0.6265  0.2590
  694MOL0     O93613   7.709   2.850   7.147  0.1804 -0.0958  0.4836
  694MOL0     C93614   7.670   2.991   7.118 -0.7245  0.0441  0.0877
  694MOL0     C93615   7.521   3.013   7.136  1.2034  0.0171 -0.8195
  694MOL0     C93616   7.489   3.153   7.136 -0.5485 -0.3802  0.5847
  694MOL0     C93617   7.356   3.188   7.190  0.3496 -0.2465  0.3357
  694MOL0     C93618   7.358   3.183   7.336 -0.5174 -0.0142  0.2754
  694MOL0     C93619   7.363   3.178   7.456  0.2820 -0.0804  0.3515
  694MOL0     C93620   7.848   2.676   7.098 -0.7261 -0.3410 -0.1455
  694MOL0     C93621   7.970   2.614   7.071 -0.0169  0.4408 -0.3305
  694MOL0     C93622   7.970   2.467   7.033 -0.3247  0.0919  0.3555
  694MOL0     H93623   8.497   2.870   6.986 -0.7426  0.7141  2.4157
  694MOL0     H93624   8.753   2.822   6.934  1.0922 -0.4245  0.5978
  694MOL0     H93625   8.931   2.469   7.129 -0.1300 -3.1921 -0.6299
  694MOL0     H93626   8.884   2.384   6.987  1.3054 -2.0597  2.5726
  694MOL0     H93627   9.146   2.536   7.020  2.1773 -1.0610 -1.2174
  694MOL0     H93628   9.071   2.488   6.860 -0.9111 -1.1347 -0.4852
  694MOL0     H93629   9.091   2.265   6.927  1.7431  0.3099 -1.3919
  694MOL0     H93630   9.136   2.304   7.096  2.2987 -1.6237 -0.8748
  694MOL0     H93631   9.306   2.215   6.948  0.6188 -0.6168 -1.5905
  694MOL0     H93632   9.314   2.376   6.873  1.5398 -0.2754  0.1161
  694MOL0     H93633   9.388   2.478   7.073  0.7271  0.2887  0.0420
  694MOL0     H93634   9.343   2.335   7.171  0.6105  2.4420  0.2454
  694MOL0     H93635   9.524   2.213   7.020  1.3530  0.1934  0.1305
  694MOL0     H93636   9.549   2.367   6.942  0.4862  1.3648  1.0948
  694MOL0     H93637   9.561   2.326   7.247 -0.5115  1.9658  0.9378
  694MOL0     H93638   9.614   2.473   7.173  0.9788  0.0420  0.6084
  694MOL0     H93639   9.733   2.197   7.142 -2.1493  0.8528 -0.5662
  694MOL0     H93640   9.792   2.338   7.041 -4.0295  0.8467 -2.2583
  694MOL0     H93641   9.772   2.257   7.429  0.2617  0.1267  0.7704
  694MOL0     H93642   9.973   2.339   7.622  1.0823 -0.0047 -0.7855
  694MOL0     H93643  10.007   2.501   7.604  1.3872 -1.0356 -0.9464
  694MOL0     H93644   9.726   2.436   7.587  1.4153  1.5583 -1.4983
  694MOL0     H93645   9.804   2.421   7.745  2.8345 -0.2404  0.5664
  694MOL0     H93646   9.855   2.683   7.608 -0.2008  0.7067  1.0770
  694MOL0     H93647   9.812   2.647   7.775 -0.1333 -1.8054  0.4347
  694MOL0     H93648   9.630   2.705   7.545  1.8231 -0.5769  0.0935
  694MOL0     H93649   9.604   2.763   7.701 -1.4376 -0.0790  1.5654
  694MOL0     H93650   9.394   2.446   7.829  0.4690  0.4950  0.6845
  694MOL0     H93651   9.144   2.479   7.863  1.1611  0.1071 -0.4242
  694MOL0     H93652   8.787   2.761   7.933  0.8751 -0.5199 -1.0905
  694MOL0     H93653   8.557   2.856   7.956  1.5279 -0.2358  0.7259
  694MOL0     H93654   8.425   3.065   7.656  0.5743 -0.1797  0.0291
  694MOL0     H93655   8.297   2.958   7.588 -0.6397 -3.4164  2.8634
  694MOL0     H93656   8.287   3.116   7.852  0.5708 -0.9396 -0.3230
  694MOL0     H93657   8.196   3.159   7.702  0.6819  0.9064  0.8034
  694MOL0     H93658   8.022   3.040   7.775 -1.4242 -2.8103  0.2284
  694MOL0     H93659   8.119   2.896   7.747  0.8621  0.1150 -0.8607
  694MOL0     H93660   8.102   3.047   8.014  1.4294  0.8407 -0.4768
  694MOL0     H93661   8.209   2.911   7.981 -2.0775 -1.5942  2.5455
  694MOL0     H93662   8.017   2.842   8.108 -1.1877  0.4723  0.8894
  694MOL0     H93663   8.019   2.774   7.948  2.0200  0.2242 -0.3475
  694MOL0     H93664   7.817   2.889   7.891 -2.8782  0.6853  0.2502
  694MOL0     H93665   7.796   2.841   8.053  0.3739  0.1057  0.9195
  694MOL0     H93666   7.882   3.133   7.959 -2.7160  2.1643  0.0267
  694MOL0     H93667   7.888   3.077   8.125 -0.7510 -1.8130  0.0281
  694MOL0     H93668   7.616   3.042   8.076 -2.1426  1.7398 -0.2463
  694MOL0     H93669   7.686   3.200   8.098 -1.1269 -0.5525  0.3500
  694MOL0     H93670   8.536   2.918   7.534  3.2708 -0.6861 -1.5361
  694MOL0     H93671   8.773   2.847   7.521  0.6315 -1.3822 -0.2266
  694MOL0     H93672   9.157   2.826   7.629  1.7042 -0.6764 -1.7391
  694MOL0     H93673   9.385   2.784   7.572 -0.9636 -0.3886 -0.6542
  694MOL0     H93674   8.683   2.423   7.062  2.8167  1.2904  0.2511
  694MOL0     H93675   8.446   2.475   7.114  1.3789 -1.9490 -2.1849
  694MOL0     H93676   8.144   2.908   7.092 -0.0938  0.3645  2.3205
  694MOL0     H93677   7.942   3.002   7.117 -1.7931 -0.0053 -1.6044
  694MOL0     H93678   7.692   2.994   7.011 -1.2121  0.4407 -0.0067
  694MOL0     H93679   7.737   3.058   7.173  0.7941 -0.8699 -0.5806
  694MOL0     H93680   7.492   2.971   7.232 -1.0922  1.9546 -0.5622
  694MOL0     H93681   7.463   2.963   7.058  2.8655 -0.1365 -2.0260
  694MOL0     H93682   7.485   3.184   7.031  0.4425 -3.3324 -0.4118
  694MOL0     H93683   7.566   3.212   7.187  1.1802 -2.1425  0.0957
  694MOL0     H93684   7.315   3.281   7.149 -0.1485 -0.5888  0.0371
  694MOL0     H93685   7.280   3.115   7.158  0.3639  0.6174 -1.8403
  694MOL0     H93686   7.377   3.152   7.559 -1.2062 -2.7504 -0.0081
  694MOL0     H93687   7.759   2.615   7.104 -1.2262  0.3589 -0.3214
  694MOL0     H93688   8.060   2.412   7.062  1.2230  1.7854 -0.9915
  694MOL0     H93689   7.887   2.424   7.090 -0.3186  0.6004  0.7602
  694MOL0     H93690   7.956   2.455   6.926  1.0392  0.6787  0.0926
  695MOL0     O93691   9.911   3.128   2.000  0.5191 -0.6043 -0.3011
  695MOL0     C93692   9.938   3.066   2.103  0.1195 -0.2363  0.1823
  695MOL0     O93693  10.035   2.974   2.110 -0.0459  0.4376  0.1470
  695MOL0     C93694  10.132   2.977   2.011  0.8392  0.0615 -0.3598
  695MOL0     C93695  10.100   2.955   1.874 -0.2508  0.2911  0.4834
  695MOL0     C93696  10.215   2.942   1.782  0.8327  0.1208  0.3403
  695MOL0     C93697  10.344   2.956   1.828  0.2743 -0.5661  0.1786
  695MOL0     O93698  10.434   2.941   1.725 -0.7276 -0.2391 -1.0626
  695MOL0     C93699  10.570   2.960   1.762 -1.0121  0.2095  0.0983
  695MOL0     C93700  10.648   2.945   1.639 -0.2327  0.3626  0.7476
  695MOL0     C93701  10.795   2.932   1.673 -0.0095 -0.3884 -0.3198
  695MOL0     C93702  10.899   2.931   1.556 -0.2792 -0.1038 -0.5974
  695MOL0     C93703  11.042   2.901   1.595  0.0424 -0.1510  0.5169
  695MOL0     C93704  11.103   3.014   1.677 -0.7085  0.2657  0.5610
  695MOL0     C93705  11.257   3.000   1.678 -0.2009  0.9396  0.0553
  695MOL0     C93706  11.325   3.002   1.527  0.4878  0.5672 -0.2217
  695MOL0     N93707  11.366   2.872   1.473 -0.3195  0.7395 -0.4304
  695MOL0     C93708  11.305   2.814   1.370  0.2501 -1.0748 -0.3753
  695MOL0     C93709  11.385   2.724   1.330 -0.4395  0.2282  0.0488
  695MOL0     C93710  11.361   2.643   1.200  0.6888  0.0381  1.1295
  695MOL0     C93711  11.494   2.612   1.118 -0.3378  0.6484  0.7533
  695MOL0     C93712  11.537   2.744   1.051  1.1219  0.2177 -0.0929
  695MOL0     C93713  11.663   2.726   0.961  0.5955  0.1875 -0.6342
  695MOL0     O93714  11.762   2.655   1.034  0.1643 -0.1840  0.0131
  695MOL0     C93715  11.894   2.691   1.020  0.7567  0.1546 -0.0429
  695MOL0     C93716  11.980   2.662   1.127 -0.0592 -0.1906  0.3321
  695MOL0     C93717  12.118   2.695   1.116 -0.4344 -0.3559  0.7274
  695MOL0     C93718  12.168   2.750   0.991  0.0219 -0.5958 -0.1579
  695MOL0     C93719  12.313   2.760   0.967  0.0227  0.3223 -0.8951
  695MOL0     O93720  12.361   2.877   0.923 -0.4274  0.2429 -0.5153
  695MOL0     C93721  12.504   2.876   0.918 -0.1410  0.3725 -0.1585
  695MOL0     C93722  12.562   2.859   0.801  0.1772 -0.0685 -0.4765
  695MOL0     C93723  12.701   2.842   0.788 -0.3782 -0.0665 -0.2553
  695MOL0     C93724  12.784   2.856   0.901 -0.5351  0.0745  0.2999
  695MOL0     O93725  12.917   2.855   0.890 -0.0970  0.5294 -0.4389
  695MOL0     C93726  12.988   2.958   0.958 -0.2523  0.5279 -0.2383
  695MOL0     C93727  13.099   3.003   0.857  0.0082 -0.9490 -0.4901
  695MOL0     C93728  13.177   3.124   0.915  0.1986 -0.8473  0.3305
  695MOL0     C93729  13.304   3.155   0.833  0.4533 -0.2975  0.8183
  695MOL0     C93730  13.380   3.279   0.883 -0.4768 -0.2059  0.1352
  695MOL0     C93731  13.366   3.414   0.811 -0.2568  0.2225  0.6560
  695MOL0     C93732  13.225   3.460   0.781 -0.1756 -0.4291  0.8934
  695MOL0     C93733  13.236   3.595   0.704  0.0948  0.9580  0.6110
  695MOL0    Cl93734  13.087   3.640   0.630 -0.3202 -0.0542 -0.0154
  695MOL0     C93735  12.724   2.871   1.027 -0.8487  0.2100 -0.3342
  695MOL0     C93736  12.586   2.892   1.037 -1.1243  0.5867  0.6223
  695MOL0     O93737  12.383   2.661   1.011 -0.3479  0.1320  0.0389
  695MOL0     C93738  12.077   2.778   0.890  0.7686  0.3275 -0.2530
  695MOL0     C93739  11.946   2.753   0.904  0.8708  0.0440 -0.7635
  695MOL0     N93740  11.496   2.720   1.412  0.4591 -0.0911  0.4938
  695MOL0     N93741  11.479   2.811   1.502  0.2009 -0.6563 -0.6779
  695MOL0     C93742  10.370   2.994   1.961  0.2466 -0.7177 -0.2169
  695MOL0     C93743  10.262   2.997   2.053  0.6668  1.0103 -0.7129
  695MOL0     C93744   9.859   3.093   2.226 -0.3170 -0.0601 -0.1806
  695MOL0     C93745   9.884   3.012   2.340  0.4300 -1.0538 -0.0324
  695MOL0     C93746   9.810   3.024   2.464  0.1289 -0.3499  0.7450
  695MOL0     C93747   9.708   3.110   2.464  0.5118  0.2220  0.1005
  695MOL0     O93748   9.641   3.122   2.580 -0.0735  0.0889 -0.0567
  695MOL0     C93749   9.591   3.252   2.618  0.0644 -0.8734  0.1235
  695MOL0     C93750   9.439   3.254   2.594 -0.6038 -0.1321  0.9123
  695MOL0     C93751   9.357   3.148   2.677  0.0858  0.0857  1.1955
  695MOL0     C93752   9.206   3.174   2.656  0.3375  0.4154 -0.6016
  695MOL0     C93753   9.130   3.096   2.750 -0.3513  0.5537  0.3085
  695MOL0     C93754   9.052   3.027   2.820  0.0281 -0.2440  0.2879
  695MOL0     C93755   9.664   3.175   2.347  0.3452 -0.1982 -0.6742
  695MOL0     C93756   9.743   3.175   2.236 -0.8411 -0.3763 -0.0041
  695MOL0     C93757   9.693   3.260   2.130 -0.7150 -0.1517  0.1016
  695MOL0     H93758  10.001   2.934   1.837 -0.1092  0.1811  0.1679
  695MOL0     H93759  10.198   2.920   1.677  2.1679 -0.3637  0.2199
  695MOL0     H93760  10.584   3.058   1.807 -0.0234 -0.7308  1.9693
  695MOL0     H93761  10.610   2.885   1.831 -0.5506  1.1626  0.8829
  695MOL0     H93762  10.635   3.036   1.579  1.7813  1.4702  1.8803
  695MOL0     H93763  10.621   2.860   1.575  1.0640  1.4059 -1.3058
  695MOL0     H93764  10.797   2.835   1.723 -2.6146 -1.0204 -1.2984
  695MOL0     H93765  10.818   3.005   1.752  3.2349 -0.6328 -0.8971
  695MOL0     H93766  10.862   2.858   1.483 -0.3201  0.1664 -0.8499
  695MOL0     H93767  10.902   3.027   1.504 -2.7759 -1.1867 -3.0135
  695MOL0     H93768  11.036   2.805   1.647  2.8214  0.0146  1.3137
  695MOL0     H93769  11.103   2.889   1.504 -1.1233  0.8150 -0.4247
  695MOL0     H93770  11.085   3.102   1.615 -0.5652 -0.5707 -0.7021
  695MOL0     H93771  11.054   3.010   1.775  1.9851  0.3976  1.9860
  695MOL0     H93772  11.284   2.910   1.734 -0.2146  0.8429 -0.0935
  695MOL0     H93773  11.295   3.091   1.727  0.3913  1.7010 -1.7279
  695MOL0     H93774  11.255   3.040   1.453  0.1031 -3.4991 -2.2181
  695MOL0     H93775  11.419   3.058   1.525  2.3300 -2.3424 -1.8682
  695MOL0     H93776  11.208   2.838   1.329 -0.4242  0.5273  1.9853
  695MOL0     H93777  11.315   2.549   1.231  1.7117 -0.0661  2.3765
  695MOL0     H93778  11.286   2.694   1.139  0.2712 -0.6748  1.0331
  695MOL0     H93779  11.574   2.564   1.175 -0.8365  0.4917  1.3428
  695MOL0     H93780  11.462   2.546   1.037  0.5517  0.4178  0.5826
  695MOL0     H93781  11.550   2.818   1.130  0.0927 -1.1117  1.3604
  695MOL0     H93782  11.457   2.775   0.983 -0.1217 -1.8116  0.4017
  695MOL0     H93783  11.692   2.828   0.932 -3.6974  1.0854 -2.5189
  695MOL0     H93784  11.638   2.668   0.872  1.2445 -1.1896  0.0499
  695MOL0     H93785  11.941   2.626   1.222 -0.5774  1.1378  0.6434
  695MOL0     H93786  12.174   2.682   1.208  0.7140  1.1664  0.2773
  695MOL0     H93787  12.496   2.852   0.715  2.1619 -1.9822 -1.9715
  695MOL0     H93788  12.742   2.822   0.690  2.1294  0.5193  0.6208
  695MOL0     H93789  12.920   3.042   0.973  1.7607  1.8522  2.0173
  695MOL0     H93790  13.015   2.929   1.060 -0.9109  2.3287  0.4861
  695MOL0     H93791  13.162   2.915   0.842 -1.3509 -1.8729 -0.8914
  695MOL0     H93792  13.055   3.030   0.761  1.1463  2.0949 -0.2773
  695MOL0     H93793  13.096   3.197   0.908 -0.1766 -1.4178 -2.1855
  695MOL0     H93794  13.209   3.108   1.019 -1.8781 -0.2623  1.1147
  695MOL0     H93795  13.293   3.157   0.724 -0.7946 -4.4722  0.7123
  695MOL0     H93796  13.377   3.074   0.839  2.1747  1.2596  2.3183
  695MOL0     H93797  13.484   3.246   0.893 -0.7209 -1.8533 -2.1367
  695MOL0     H93798  13.347   3.305   0.984  1.8142  2.2179  0.4064
  695MOL0     H93799  13.424   3.486   0.869  0.3484  0.5352 -0.3232
  695MOL0     H93800  13.419   3.404   0.716  0.1520 -2.6420  1.0920
  695MOL0     H93801  13.188   3.476   0.882 -1.6948 -2.3081  0.6879
  695MOL0     H93802  13.161   3.388   0.728  1.6023 -1.8461  0.5832
  695MOL0     H93803  13.260   3.675   0.774 -3.1023  2.6409 -0.0622
  695MOL0     H93804  13.315   3.575   0.631  0.8946 -0.3183  1.7712
  695MOL0     H93805  12.784   2.886   1.115 -0.4595  0.6498 -0.6705
  695MOL0     H93806  12.547   2.900   1.138 -1.9566 -0.5004  0.4141
  695MOL0     H93807  12.117   2.823   0.801 -1.3261 -2.2674 -2.7052
  695MOL0     H93808  11.886   2.772   0.815  0.7819 -1.5828 -1.0960
  695MOL0     H93809  10.474   3.011   1.987  0.4523  0.6413 -1.7210
  695MOL0     H93810  10.288   3.030   2.152 -1.9443  0.6380  0.1840
  695MOL0     H93811   9.955   2.930   2.339  0.2040 -1.2506 -0.7266
  695MOL0     H93812   9.843   2.963   2.548  0.3276 -0.2665  0.7272
  695MOL0     H93813   9.644   3.330   2.563  1.0255 -1.6112 -0.0180
  695MOL0     H93814   9.618   3.256   2.724  2.1010  0.6035 -0.3985
  695MOL0     H93815   9.424   3.246   2.486  1.2845  1.5985  0.4595
  695MOL0     H93816   9.400   3.355   2.603  0.2013  0.6300 -2.5990
  695MOL0     H93817   9.386   3.152   2.783  3.3164  3.1860  0.3805
  695MOL0     H93818   9.379   3.047   2.642 -0.2278  0.0858  0.9969
  695MOL0     H93819   9.171   3.276   2.674 -1.6042 -0.2937 -0.0975
  695MOL0     H93820   9.173   3.154   2.554  0.2138  0.5469 -0.5881
  695MOL0     H93821   8.974   2.966   2.862 -0.5021  0.0067 -0.3079
  695MOL0     H93822   9.574   3.236   2.345 -0.0275 -0.7722 -1.9110
  695MOL0     H93823   9.619   3.196   2.081 -0.7034  0.2696 -0.4778
  695MOL0     H93824   9.632   3.340   2.171  0.1164  0.0664  0.9444
  695MOL0     H93825   9.763   3.302   2.057 -1.3044  0.1307 -0.3111
  696MOL0     O93826   5.305   9.928   5.818 -0.8014  0.6108 -1.0255
  696MOL0     C93827   5.272  10.042   5.855  0.9756  0.7962  0.6988
  696MOL0     O93828   5.354  10.146   5.883  0.5653 -0.6485  0.3690
  696MOL0     C93829   5.491  10.140   5.855 -0.4314  0.0234  0.2675
  696MOL0     C93830   5.567  10.030   5.821 -1.0450 -0.3654  0.9340
  696MOL0     C93831   5.704  10.035   5.798 -0.4654 -0.1934 -0.0270
  696MOL0     C93832   5.771  10.154   5.809 -0.6688 -0.1119 -0.3873
  696MOL0     O93833   5.903  10.146   5.780  0.4849  0.0767  0.4099
  696MOL0     C93834   5.989  10.225   5.854  0.8187 -0.9588 -0.3659
  696MOL0     C93835   6.130  10.218   5.818 -0.0742 -0.5154 -0.1077
  696MOL0     C93836   6.224  10.289   5.917  0.1939  0.4098  0.2445
  696MOL0     C93837   6.354  10.312   5.851 -0.5522 -0.0456  0.0304
  696MOL0     C93838   6.470  10.355   5.947  0.4872  0.4103  0.1261
  696MOL0     C93839   6.602  10.345   5.877  0.0394  0.1388  0.1207
  696MOL0     C93840   6.718  10.407   5.959 -0.5863  0.7195 -0.1253
  696MOL0     C93841   6.740  10.559   5.925  0.5675 -0.4405  0.0190
  696MOL0     N93842   6.883  10.602   5.965  1.5893  0.2521  0.8448
  696MOL0     C93843   6.935  10.554   6.080 -0.7020  0.0448 -1.2573
  696MOL0     C93844   7.036  10.637   6.107  0.6532 -0.1057  0.1808
  696MOL0     C93845   7.126  10.636   6.222  0.4803 -0.4658 -0.0499
  696MOL0     C93846   7.274  10.634   6.202  0.1570  0.6942  0.5251
  696MOL0     C93847   7.333  10.632   6.348 -1.0583  0.1817 -0.0535
  696MOL0     C93848   7.484  10.674   6.339  0.1585  0.1624  0.1841
  696MOL0     O93849   7.560  10.570   6.273 -0.1421  0.5270 -0.2129
  696MOL0     C93850   7.683  10.605   6.217 -1.1418  0.1940  0.1208
  696MOL0     C93851   7.747  10.512   6.135 -0.0527 -1.1467 -0.6755
  696MOL0     C93852   7.857  10.551   6.049  0.5285 -0.1355 -0.5006
  696MOL0     C93853   7.920  10.670   6.082 -0.2794  0.8609  0.3343
  696MOL0     C93854   8.040  10.693   6.006  0.0494 -0.1418  0.2708
  696MOL0     O93855   8.083  10.610   5.909  0.4696 -0.1304  0.0295
  696MOL0     C93856   8.206  10.619   5.847 -0.0961 -0.4788  0.5840
  696MOL0     C93857   8.306  10.729   5.856  0.2698  0.7659 -0.3924
  696MOL0     C93858   8.430  10.715   5.788 -0.1434  0.4535 -0.3634
  696MOL0     C93859   8.465  10.595   5.715  0.1810 -0.0052 -0.5638
  696MOL0     O93860   8.583  10.583   5.654 -0.6344  0.0751  0.1302
  696MOL0     C93861   8.590  10.540   5.518  0.0053 -0.5337  0.3471
  696MOL0     C93862   8.713  10.600   5.452 -0.7812 -0.6621  0.0231
  696MOL0     C93863   8.845  10.543   5.496  0.1696 -0.5506  0.4756
  696MOL0     C93864   8.966  10.616   5.428  0.2738  0.5402 -0.8706
  696MOL0     C93865   9.095  10.541   5.469 -0.1480  0.5964 -0.2801
  696MOL0     C93866   9.229  10.571   5.393 -0.2277 -0.1532  0.5173
  696MOL0     C93867   9.344  10.518   5.477 -0.3346  0.5818 -0.2345
  696MOL0     C93868   9.343  10.372   5.491  0.2317 -0.0330 -0.0583
  696MOL0    Cl93869   9.368  10.288   5.322  0.1510 -0.0321  0.6305
  696MOL0     C93870   8.378  10.487   5.718  0.2012 -0.0734 -1.0761
  696MOL0     C93871   8.244  10.509   5.773  0.4454  0.5027 -0.1857
  696MOL0     O93872   8.093  10.808   6.032 -0.0728  0.5266 -0.6574
  696MOL0     C93873   7.865  10.761   6.176 -0.0413 -0.2340  0.2737
  696MOL0     C93874   7.743  10.728   6.233 -0.5667  0.0026  0.3510
  696MOL0     N93875   7.043  10.732   6.008 -0.1815 -0.4467 -0.4611
  696MOL0     N93876   6.959  10.704   5.921  0.7486 -1.0436 -0.3918
  696MOL0     C93877   5.692  10.279   5.832 -0.0201  0.7252  0.0462
  696MOL0     C93878   5.559  10.266   5.872  0.1489  1.0713  0.2218
  696MOL0     C93879   5.128  10.075   5.850 -0.2145  0.2137  0.6178
  696MOL0     C93880   5.087  10.209   5.856 -0.4198 -0.0736 -0.4861
  696MOL0     C93881   4.950  10.238   5.854  0.7054  0.4209  0.9919
  696MOL0     C93882   4.850  10.153   5.840  0.6568  0.2555  0.9389
  696MOL0     O93883   4.729  10.211   5.807 -0.1587 -0.6190  0.1924
  696MOL0     C93884   4.628  10.131   5.746  0.8158 -0.0008 -0.3816
  696MOL0     C93885   4.524  10.223   5.696  1.2231  0.1574 -0.5001
  696MOL0     C93886   4.404  10.144   5.636  1.2870  0.3006 -0.7906
  696MOL0     C93887   4.426  10.057   5.522 -0.9724  0.3879 -0.2161
  696MOL0     C93888   4.494  10.117   5.409 -0.6448  1.5047 -0.3324
  696MOL0     C93889   4.558  10.170   5.321  0.9059  0.6582  0.0326
  696MOL0     C93890   4.891  10.019   5.812 -0.2076 -0.7512  0.5671
  696MOL0     C93891   5.025   9.973   5.828  0.5718  0.4388 -0.7013
  696MOL0     C93892   5.037   9.828   5.797 -0.1454  0.1248 -0.6599
  696MOL0     H93893   5.527   9.930   5.811 -2.3843  0.3478 -2.9909
  696MOL0     H93894   5.760   9.943   5.787  0.5709  0.4173 -0.0308
  696MOL0     H93895   5.954  10.328   5.840 -1.1110 -1.6670 -1.0498
  696MOL0     H93896   5.979  10.196   5.959  2.1782 -0.4261 -0.0650
  696MOL0     H93897   6.135  10.268   5.721 -1.4568  2.1533  1.0893
  696MOL0     H93898   6.172  10.120   5.793  0.3514 -0.1351 -0.9132
  696MOL0     H93899   6.239  10.215   5.996 -0.8271 -1.2028 -1.0168
  696MOL0     H93900   6.168  10.380   5.942 -1.0353  0.5480 -2.6215
  696MOL0     H93901   6.388  10.220   5.803 -0.8208 -0.3668  0.4536
  696MOL0     H93902   6.335  10.386   5.773  0.2158  0.8214  0.6285
  696MOL0     H93903   6.447  10.457   5.981 -3.1698  0.3058 -1.5570
  696MOL0     H93904   6.465  10.284   6.030  1.6494  2.0392  1.6900
  696MOL0     H93905   6.625  10.239   5.863  2.6110  0.7829 -1.0309
  696MOL0     H93906   6.587  10.382   5.775 -2.2593  2.7372  1.2874
  696MOL0     H93907   6.804  10.346   5.933 -1.4227 -0.5310 -0.0710
  696MOL0     H93908   6.696  10.394   6.066 -0.1893  0.3833 -0.0847
  696MOL0     H93909   6.722  10.560   5.817 -2.0958 -0.4132  0.4129
  696MOL0     H93910   6.660  10.614   5.975  1.5324 -0.9536  2.2995
  696MOL0     H93911   6.908  10.473   6.147  0.6559 -0.8242 -1.7232
  696MOL0     H93912   7.111  10.735   6.267  1.3359  0.0116 -0.7626
  696MOL0     H93913   7.087  10.559   6.289 -1.5425  1.3641  1.0047
  696MOL0     H93914   7.306  10.543   6.152  2.2362  1.7306 -0.1275
  696MOL0     H93915   7.306  10.722   6.146  0.9090 -1.2550 -2.2776
  696MOL0     H93916   7.325  10.533   6.394 -1.7419  0.4469  0.4164
  696MOL0     H93917   7.273  10.697   6.412 -1.2095  0.5861 -0.6019
  696MOL0     H93918   7.530  10.706   6.433  1.6714  0.3496 -0.5800
  696MOL0     H93919   7.488  10.760   6.271 -1.5510  0.8657  0.9232
  696MOL0     H93920   7.706  10.412   6.128 -0.8367 -0.9950  1.1563
  696MOL0     H93921   7.895  10.485   5.971 -0.1095 -0.6821 -0.3637
  696MOL0     H93922   8.289  10.821   5.911  0.3195 -0.3823  1.6312
  696MOL0     H93923   8.502  10.797   5.786 -0.2704  0.5496 -1.5097
  696MOL0     H93924   8.604  10.432   5.524  1.2443 -0.4400 -0.4468
  696MOL0     H93925   8.494  10.557   5.469  0.8263 -1.3499 -1.6176
  696MOL0     H93926   8.702  10.591   5.343  0.9817 -3.5798 -0.0028
  696MOL0     H93927   8.718  10.708   5.473 -3.6188 -0.5862  0.6970
  696MOL0     H93928   8.853  10.565   5.603  1.5443  0.7099  0.1314
  696MOL0     H93929   8.844  10.434   5.486 -3.1304 -0.4673 -1.9977
  696MOL0     H93930   8.978  10.720   5.460 -0.7503 -0.0924  1.8752
  696MOL0     H93931   8.955  10.612   5.319  0.0851  1.5000 -0.8983
  696MOL0     H93932   9.081  10.433   5.468  0.2621  0.5392 -1.3906
  696MOL0     H93933   9.104  10.565   5.576 -2.9028 -1.2054  0.4721
  696MOL0     H93934   9.229  10.517   5.298  2.2164 -1.1949  1.0481
  696MOL0     H93935   9.245  10.676   5.368 -0.0889 -0.6475 -1.6274
  696MOL0     H93936   9.354  10.563   5.576  0.3843  2.3348 -1.0563
  696MOL0     H93937   9.436  10.547   5.426  2.1864 -3.8780  1.2143
  696MOL0     H93938   9.422  10.349   5.562 -0.4978  0.8004  1.0506
  696MOL0     H93939   9.251  10.338   5.540 -1.1746  2.3833 -0.8216
  696MOL0     H93940   8.414  10.398   5.667  3.0090 -0.4660  1.3339
  696MOL0     H93941   8.183  10.420   5.787 -1.1181  1.3799 -1.2256
  696MOL0     H93942   7.901  10.863   6.188  0.3539 -0.0215 -2.1658
  696MOL0     H93943   7.699  10.791   6.310  0.5940 -1.2624  2.1342
  696MOL0     H93944   5.728  10.382   5.830  0.9063  0.3968 -1.4372
  696MOL0     H93945   5.500  10.353   5.900 -1.3225  0.6343 -1.3894
  696MOL0     H93946   5.160  10.286   5.878 -1.0533  0.1549  0.9044
  696MOL0     H93947   4.918  10.341   5.861 -3.1186 -0.6153  0.7144
  696MOL0     H93948   4.582  10.063   5.819 -1.4943  1.7278 -0.1178
  696MOL0     H93949   4.678  10.075   5.667 -0.3747 -0.2619 -0.9843
  696MOL0     H93950   4.549  10.294   5.617 -2.3522  1.1184 -0.9700
  696MOL0     H93951   4.487  10.290   5.774  0.5840 -0.8834  0.1113
  696MOL0     H93952   4.329  10.222   5.622  1.0293  0.4678  1.1798
  696MOL0     H93953   4.349  10.078   5.704  2.3446 -0.6934 -0.8531
  696MOL0     H93954   4.493   9.976   5.553 -0.9968  0.6411  0.5086
  696MOL0     H93955   4.337  10.003   5.488 -0.1472  0.5166 -2.8410
  696MOL0     H93956   4.605  10.219   5.238 -1.1076  0.4379 -1.2946
  696MOL0     H93957   4.815   9.947   5.784  0.7570 -1.4374 -0.3520
  696MOL0     H93958   5.116   9.796   5.729 -0.4316 -2.0006 -0.0602
  696MOL0     H93959   5.058   9.774   5.889 -1.5560  1.0614  0.2459
  696MOL0     H93960   4.942   9.790   5.757 -1.5177  3.5626 -1.0449
  697MOL0     O93961   0.852   1.321  10.719 -0.2090 -0.1978  0.1298
  697MOL0     C93962   0.852   1.229  10.640 -0.2388  0.3184  0.1075
  697MOL0     O93963   0.955   1.183  10.580 -0.0246  0.0510  0.1130
  697MOL0     C93964   1.076   1.216  10.626  0.5509  0.0788  0.1679
  697MOL0     C93965   1.161   1.262  10.529  0.3092 -0.7614  0.3574
  697MOL0     C93966   1.289   1.310  10.574  0.0663  0.2042  0.2728
  697MOL0     C93967   1.350   1.280  10.694 -0.2922 -0.3410 -0.6916
  697MOL0     O93968   1.486   1.302  10.728  0.1218  0.4237  0.0453
  697MOL0     C93969   1.565   1.195  10.796  0.0215 -0.4755 -0.3812
  697MOL0     C93970   1.710   1.252  10.828  0.7767 -0.4489 -0.0380
  697MOL0     C93971   1.793   1.127  10.869 -1.1218  0.7566 -0.3884
  697MOL0     C93972   1.932   1.174  10.906 -0.6592 -0.4505  0.6507
  697MOL0     C93973   2.007   1.060  10.964 -1.0581 -0.2163  0.3383
  697MOL0     C93974   2.156   1.102  10.982  0.2401 -0.6861  0.9692
  697MOL0     C93975   2.244   0.994  11.044  0.6142 -0.5986  0.3270
  697MOL0     C93976   2.385   1.034  11.028 -0.2466 -0.0668  0.3625
  697MOL0     N93977   2.481   0.956  11.106 -0.1096 -0.0700  0.1988
  697MOL0     C93978   2.459   0.825  11.153  1.0114  0.4549  0.3753
  697MOL0     C93979   2.571   0.796  11.226  0.7057 -0.0525 -0.2517
  697MOL0     C93980   2.623   0.661  11.269  0.0446  0.3772 -0.0792
  697MOL0     C93981   2.598   0.551  11.151  0.6681  0.6921 -0.2410
  697MOL0     C93982   2.678   0.425  11.166 -0.4415 -0.0321 -0.0576
  697MOL0     C93983   2.832   0.439  11.156  0.7820  0.2276 -0.4060
  697MOL0     O93984   2.907   0.321  11.154  0.6311  0.4653  0.2044
  697MOL0     C93985   3.037   0.331  11.148 -0.4042 -0.3992  0.1945
  697MOL0     C93986   3.107   0.207  11.162  0.0418 -0.0204 -0.5477
  697MOL0     C93987   3.246   0.201  11.153  0.6419 -1.1648  0.0960
  697MOL0     C93988   3.322   0.321  11.124  0.3666 -0.1172  0.3018
  697MOL0     C93989   3.469   0.334  11.113 -0.6478  0.1863  0.4563
  697MOL0     O93990   3.521   0.424  11.027  0.6329  0.0720  0.0301
  697MOL0     C93991   3.655   0.425  11.027  0.5468 -0.1804  0.1064
  697MOL0     C93992   3.720   0.350  10.932  0.0367  0.5144  0.2449
  697MOL0     C93993   3.861   0.345  10.931  0.0221  0.2238  0.4898
  697MOL0     C93994   3.931   0.418  11.024 -0.2532  0.0121 -0.3492
  697MOL0     O93995   4.066   0.414  11.046 -0.7608 -0.0525  0.1937
  697MOL0     C93996   4.141   0.294  11.008 -0.8412 -0.8463 -0.4633
  697MOL0     C93997   4.294   0.296  11.023 -0.4001  0.3894  0.2011
  697MOL0     C93998   4.360   0.387  10.920  0.0286 -0.0471 -0.5867
  697MOL0     C93999   4.503   0.336  10.888  0.2589 -0.2459 -0.0094
  697MOL0     C94000   4.597   0.363  11.006 -0.4218 -0.0497  0.1069
  697MOL0     C94001   4.734   0.297  10.988  0.8774 -0.8225 -0.0287
  697MOL0     C94002   4.821   0.373  10.876  0.5394 -0.0250  0.1001
  697MOL0     C94003   4.953   0.430  10.925  0.2470 -0.6899  0.3779
  697MOL0    Cl94004   4.916   0.576  11.025 -0.1695 -0.1867  0.0304
  697MOL0     C94005   3.865   0.508  11.112 -1.0398  0.3882 -0.0578
  697MOL0     C94006   3.725   0.505  11.119  0.2769  0.3415  0.1640
  697MOL0     O94007   3.537   0.246  11.165  0.5451 -0.6082  0.6085
  697MOL0     C94008   3.253   0.447  11.117 -0.4221 -0.4228 -0.3094
  697MOL0     C94009   3.114   0.446  11.119  0.7169 -0.6390 -0.4563
  697MOL0     N94010   2.654   0.905  11.230 -0.5524 -0.2644  0.3985
  697MOL0     N94011   2.603   0.994  11.147  0.1413  0.2556 -0.2193
  697MOL0     C94012   1.258   1.223  10.792 -0.0776  0.7995  0.5675
  697MOL0     C94013   1.123   1.203  10.759  0.3260  0.5677 -0.7118
  697MOL0     C94014   0.722   1.160  10.613 -0.2014 -0.4682 -0.6352
  697MOL0     C94015   0.699   1.143  10.474 -0.1841 -0.8023  1.2725
  697MOL0     C94016   0.597   1.068  10.428 -0.3412 -0.1049  0.1517
  697MOL0     C94017   0.517   0.997  10.521  0.3027  0.3998  0.9423
  697MOL0     O94018   0.400   0.928  10.488 -0.8205 -0.2525 -0.1578
  697MOL0     C94019   0.340   0.953  10.365  0.0273 -0.3632 -0.1442
  697MOL0     C94020   0.380   0.846  10.268 -0.0499 -0.2543  0.1151
  697MOL0     C94021   0.319   0.864  10.128 -0.8089  0.0253  0.3444
  697MOL0     C94022   0.382   0.984  10.044  0.1303 -0.1241 -0.0241
  697MOL0     C94023   0.495   0.937   9.965 -0.1155 -0.9710  0.5032
  697MOL0     C94024   0.592   0.905   9.895  0.1361  0.0927  0.0925
  697MOL0     C94025   0.536   1.020  10.659  0.2263  0.5795  0.3840
  697MOL0     C94026   0.641   1.102  10.707  0.5424 -0.1237  0.4332
  697MOL0     C94027   0.671   1.119  10.855  0.6740  0.9795  0.6094
  697MOL0     H94028   1.118   1.292  10.434 -0.0587 -1.2158  0.3743
  697MOL0     H94029   1.353   1.364  10.504  0.0633 -1.1217 -0.7864
  697MOL0     H94030   1.523   1.160  10.891  0.6776  2.6885  1.1956
  697MOL0     H94031   1.579   1.114  10.723 -2.9634  0.0122 -1.6525
  697MOL0     H94032   1.707   1.320  10.913  0.0047 -1.3422  0.6656
  697MOL0     H94033   1.759   1.299  10.742 -0.0650 -0.1261 -0.3507
  697MOL0     H94034   1.791   1.054  10.787 -1.6018 -0.6717  0.8515
  697MOL0     H94035   1.755   1.088  10.963 -0.0149 -1.0986 -0.6528
  697MOL0     H94036   1.983   1.206  10.815 -1.9673  0.8507  0.3357
  697MOL0     H94037   1.946   1.261  10.971  1.6995 -1.0778  1.1031
  697MOL0     H94038   1.963   1.027  11.059 -1.7085  1.3620  0.6289
  697MOL0     H94039   1.992   0.975  10.897 -3.1007 -0.8265  1.4909
  697MOL0     H94040   2.194   1.148  10.891 -1.8935 -2.0176 -0.7061
  697MOL0     H94041   2.144   1.181  11.056  4.0787  0.6739  0.3461
  697MOL0     H94042   2.230   0.896  10.999  0.6799  0.5510 -2.3844
  697MOL0     H94043   2.213   0.972  11.147 -0.3192  2.1124  0.6971
  697MOL0     H94044   2.402   1.039  10.920 -1.3057  1.3077  0.2196
  697MOL0     H94045   2.384   1.142  11.049  1.4964  0.6091 -2.4210
  697MOL0     H94046   2.365   0.774  11.135  0.5484  0.9340  1.3721
  697MOL0     H94047   2.727   0.666  11.305 -0.6055 -1.9248  2.4746
  697MOL0     H94048   2.563   0.633  11.356 -1.1547 -1.1414 -1.3378
  697MOL0     H94049   2.495   0.513  11.157  1.2929 -1.0085  0.1515
  697MOL0     H94050   2.618   0.603  11.056  0.5913  0.3579 -0.4424
  697MOL0     H94051   2.650   0.351  11.090 -0.7063 -0.4189  0.4122
  697MOL0     H94052   2.654   0.373  11.259 -1.7963 -0.5763 -0.6809
  697MOL0     H94053   2.857   0.503  11.241 -0.8073 -2.2487  2.0906
  697MOL0     H94054   2.844   0.493  11.062  3.0011 -0.2482 -0.4510
  697MOL0     H94055   3.051   0.114  11.159 -0.4811  0.2516 -3.9330
  697MOL0     H94056   3.301   0.108  11.146 -0.9275 -2.0195 -2.2210
  697MOL0     H94057   3.673   0.291  10.854 -0.9302  1.2039  0.2832
  697MOL0     H94058   3.905   0.275  10.861 -0.2872 -0.5564  1.0493
  697MOL0     H94059   4.113   0.209  11.070  1.3874 -0.1591  1.6564
  697MOL0     H94060   4.127   0.283  10.900  2.0555  0.7970 -1.1374
  697MOL0     H94061   4.306   0.328  11.127 -0.2938 -2.0667  1.0094
  697MOL0     H94062   4.331   0.193  11.013  1.7926  1.1505 -0.1985
  697MOL0     H94063   4.299   0.404  10.831  0.1168  0.5350 -0.5352
  697MOL0     H94064   4.378   0.484  10.967 -0.5642  0.9658 -2.3580
  697MOL0     H94065   4.525   0.400  10.802 -0.5749  0.4375  0.2767
  697MOL0     H94066   4.505   0.234  10.848  1.8646 -0.3666  0.3301
  697MOL0     H94067   4.556   0.324  11.100  0.2767 -0.6880  0.1597
  697MOL0     H94068   4.608   0.471  11.007 -1.8091  0.1705 -2.3621
  697MOL0     H94069   4.786   0.303  11.084  0.3374 -0.7142  0.2605
  697MOL0     H94070   4.734   0.188  10.975  2.1697 -1.0826  1.7543
  697MOL0     H94071   4.765   0.456  10.833  1.2683  1.9125  2.5849
  697MOL0     H94072   4.843   0.307  10.792 -0.6495  0.2394 -0.4323
  697MOL0     H94073   4.992   0.366  11.005  1.7394 -2.2610 -1.5352
  697MOL0     H94074   5.030   0.443  10.850  0.0584  0.4331  0.3571
  697MOL0     H94075   3.925   0.560  11.186  0.1310 -1.0922  0.1025
  697MOL0     H94076   3.663   0.565  11.185  0.2717  2.0147 -1.2958
  697MOL0     H94077   3.303   0.541  11.092 -1.6806  0.5588  0.7198
  697MOL0     H94078   3.053   0.535  11.106 -1.4356 -2.0643 -0.8543
  697MOL0     H94079   1.305   1.204  10.888  0.0869  0.2121  0.3700
  697MOL0     H94080   1.055   1.168  10.836  0.0195  1.7398 -0.4248
  697MOL0     H94081   0.769   1.188  10.405 -1.1208  0.3155  1.0283
  697MOL0     H94082   0.574   1.069  10.322  0.9222 -1.1857 -0.1626
  697MOL0     H94083   0.352   1.054  10.325 -0.6561 -0.5208 -0.7616
  697MOL0     H94084   0.232   0.949  10.379 -0.3289 -1.5420 -2.7182
  697MOL0     H94085   0.339   0.755  10.312 -0.4537 -0.9576 -1.6127
  697MOL0     H94086   0.489   0.851  10.260 -0.1005 -1.6800 -2.7386
  697MOL0     H94087   0.211   0.884  10.129 -1.1644 -1.0742 -3.2979
  697MOL0     H94088   0.330   0.777  10.064  3.0871  0.4104  0.2843
  697MOL0     H94089   0.301   1.025   9.984 -0.7245 -2.5404 -0.6607
  697MOL0     H94090   0.421   1.056  10.116 -1.1216 -0.8110  1.4007
  697MOL0     H94091   0.671   0.862   9.836  0.6627 -2.1787  2.2346
  697MOL0     H94092   0.470   0.979  10.734  0.0701  0.6758  0.3013
  697MOL0     H94093   0.779   1.122  10.872  0.5037  1.2256  1.6906
  697MOL0     H94094   0.635   1.211  10.900  2.0663  1.6080  0.4946
  697MOL0     H94095   0.634   1.032  10.909  2.7203 -1.8816 -2.2022
  698MOL0     O94096   0.766   0.257   2.782  0.9858 -0.0535 -0.2762
  698MOL0     C94097   0.851   0.275   2.868  0.6094  0.0218 -0.6417
  698MOL0     O94098   0.823   0.296   3.007  0.5576 -0.6083 -0.0160
  698MOL0     C94099   0.698   0.277   3.059  0.1678  0.5140  0.0252
  698MOL0     C94100   0.676   0.362   3.163 -0.1112  0.0313  0.4790
  698MOL0     C94101   0.548   0.359   3.221  0.0344  1.0171  0.1059
  698MOL0     C94102   0.449   0.266   3.188 -0.4651  0.4589  0.2068
  698MOL0     O94103   0.324   0.244   3.231  0.7074 -0.1102 -0.1745
  698MOL0     C94104   0.286   0.307   3.352  0.3923 -0.2710 -0.8098
  698MOL0     C94105   0.158   0.240   3.407 -0.2517 -0.6807  0.0853
  698MOL0     C94106   0.189   0.091   3.431  0.8888 -0.6022  0.1938
  698MOL0     C94107   0.050   0.035   3.456 -0.2557  0.3253 -0.5697
  698MOL0     C94108   0.072  -0.127   3.469 -0.7172 -0.3905  0.8501
  698MOL0     C94109  -0.052  -0.207   3.454  0.0138  0.3628  0.6602
  698MOL0     C94110  -0.109  -0.208   3.305 -0.7379 -1.2764  0.0521
  698MOL0     C94111  -0.042  -0.288   3.198 -1.1259 -0.4533  0.0302
  698MOL0     N94112   0.089  -0.228   3.161  0.2336  0.1670 -0.0490
  698MOL0     C94113   0.204  -0.290   3.158 -0.5089  0.3986  0.4002
  698MOL0     C94114   0.298  -0.204   3.115 -0.0679 -0.5189  0.6623
  698MOL0     C94115   0.442  -0.233   3.097 -0.8710  0.3834  0.7828
  698MOL0     C94116   0.520  -0.186   3.213  0.4952 -0.2433 -0.2857
  698MOL0     C94117   0.670  -0.209   3.208 -0.1950  0.6833 -0.5570
  698MOL0     C94118   0.756  -0.141   3.098 -1.2662 -0.0308 -0.1929
  698MOL0     O94119   0.809  -0.020   3.154  0.6650 -0.1811  0.0298
  698MOL0     C94120   0.925  -0.015   3.229 -0.2741 -0.2375 -0.6533
  698MOL0     C94121   0.962   0.114   3.284  0.1419  0.4405 -0.4880
  698MOL0     C94122   1.080   0.119   3.369 -0.5080  0.2089  0.3574
  698MOL0     C94123   1.154   0.006   3.395  1.0323  0.2360  0.6913
  698MOL0     C94124   1.274   0.015   3.488  0.2100  0.4927 -0.3288
  698MOL0     O94125   1.344  -0.096   3.504  0.5961 -0.0425  0.0696
  698MOL0     C94126   1.438  -0.089   3.603 -0.2892 -0.4673  0.0590
  698MOL0     C94127   1.414  -0.079   3.735 -0.3558 -1.1826 -0.4292
  698MOL0     C94128   1.521  -0.069   3.829 -0.1299 -0.5928 -0.1286
  698MOL0     C94129   1.652  -0.074   3.786 -0.1692 -0.6033  0.2684
  698MOL0     O94130   1.740  -0.076   3.892 -0.4410  0.0320 -0.6390
  698MOL0     C94131   1.880  -0.102   3.860  0.8334 -0.1348  0.3195
  698MOL0     C94132   1.945  -0.116   3.995  0.1275 -0.0987 -0.7738
  698MOL0     C94133   2.094  -0.110   3.964  0.0465  0.0696  0.0876
  698MOL0     C94134   2.166  -0.129   4.094 -0.4392 -0.7553  0.3013
  698MOL0     C94135   2.321  -0.151   4.073  0.6903 -0.0888 -0.0675
  698MOL0     C94136   2.393  -0.157   4.209 -0.4373 -0.0009  0.2944
  698MOL0     C94137   2.543  -0.163   4.185  0.2832  0.2565  0.2624
  698MOL0     C94138   2.598  -0.304   4.184 -0.1574  1.0104 -0.8185
  698MOL0    Cl94139   2.588  -0.378   4.355 -0.2147  0.2310  0.0741
  698MOL0     C94140   1.679  -0.080   3.646 -0.0897 -0.5933  0.0020
  698MOL0     C94141   1.575  -0.098   3.559 -0.1617 -0.2753 -0.1625
  698MOL0     O94142   1.291   0.119   3.546 -0.0106 -1.1264  0.1332
  698MOL0     C94143   1.101  -0.116   3.358 -0.2390  0.5838 -0.6027
  698MOL0     C94144   0.994  -0.128   3.270  0.1000 -1.2297 -0.0290
  698MOL0     N94145   0.236  -0.088   3.090  0.1250  0.4477  0.6434
  698MOL0     N94146   0.106  -0.100   3.117 -0.5064  0.4625  0.6167
  698MOL0     C94147   0.486   0.174   3.087  0.5877  0.3675 -0.2523
  698MOL0     C94148   0.610   0.175   3.021 -0.1491  0.0276 -0.3197
  698MOL0     C94149   0.990   0.294   2.826 -0.5113  0.1322  0.0865
  698MOL0     C94150   1.088   0.285   2.923 -0.3923  0.6747  0.3496
  698MOL0     C94151   1.220   0.314   2.900 -0.2953 -0.1244  0.3134
  698MOL0     C94152   1.274   0.358   2.777  0.2118  0.2017 -0.0457
  698MOL0     O94153   1.407   0.390   2.764  0.6272  0.3651 -0.3710
  698MOL0     C94154   1.456   0.460   2.646 -0.1621 -0.5586 -0.9186
  698MOL0     C94155   1.597   0.509   2.644  0.9597  0.3166 -0.2584
  698MOL0     C94156   1.632   0.600   2.767  0.1737 -0.0245 -0.1947
  698MOL0     C94157   1.778   0.660   2.748  0.4685 -0.6515 -0.6056
  698MOL0     C94158   1.802   0.731   2.615  0.9847 -0.0572 -0.0875
  698MOL0     C94159   1.808   0.807   2.523 -0.5876 -0.5459  0.2663
  698MOL0     C94160   1.171   0.369   2.674 -0.4250 -0.4604 -0.4959
  698MOL0     C94161   1.031   0.342   2.700 -0.1809 -0.2711  0.7674
  698MOL0     C94162   0.928   0.368   2.580  0.0929  0.5577 -0.2809
  698MOL0     H94163   0.754   0.428   3.198  0.8478 -0.5866 -0.4440
  698MOL0     H94164   0.529   0.427   3.304  0.3312  4.0113 -2.0918
  698MOL0     H94165   0.360   0.302   3.432  0.4496 -1.7564 -0.9186
  698MOL0     H94166   0.273   0.414   3.334  2.0170  0.1391  0.3135
  698MOL0     H94167   0.082   0.250   3.330  1.2252  0.2648 -1.3182
  698MOL0     H94168   0.126   0.292   3.498 -2.2079  0.4223 -1.1558
  698MOL0     H94169   0.256   0.076   3.516  1.5541  2.3264  0.2811
  698MOL0     H94170   0.221   0.043   3.338 -3.3222 -0.3569 -1.6055
  698MOL0     H94171   0.003   0.069   3.548 -0.0150 -1.7431  0.3579
  698MOL0     H94172  -0.018   0.057   3.373 -1.1662  1.0990  0.3611
  698MOL0     H94173   0.145  -0.164   3.396 -1.3977 -2.1234  0.9843
  698MOL0     H94174   0.134  -0.147   3.556 -1.0502  3.5910  2.1988
  698MOL0     H94175  -0.038  -0.314   3.474 -2.9053 -0.2282  0.0874
  698MOL0     H94176  -0.130  -0.163   3.518 -0.9849  2.2669 -1.7050
  698MOL0     H94177  -0.116  -0.104   3.271  0.4347 -1.5373 -1.0903
  698MOL0     H94178  -0.205  -0.260   3.315 -0.4310 -1.8246  0.1968
  698MOL0     H94179  -0.027  -0.391   3.232  0.6438  0.1790  1.3325
  698MOL0     H94180  -0.105  -0.278   3.109  0.1380  1.3973 -0.7194
  698MOL0     H94181   0.220  -0.393   3.186 -2.4483  0.1850  0.8909
  698MOL0     H94182   0.462  -0.340   3.086  0.2466  0.5792  0.7929
  698MOL0     H94183   0.488  -0.185   3.010  1.1395  0.1348  1.6593
  698MOL0     H94184   0.502  -0.078   3.206  1.4043 -0.0930 -0.3960
  698MOL0     H94185   0.487  -0.228   3.309  0.2573  2.9812  1.1685
  698MOL0     H94186   0.685  -0.317   3.195  1.7529  0.9268 -0.6275
  698MOL0     H94187   0.708  -0.181   3.307 -0.3783  2.7288 -1.0399
  698MOL0     H94188   0.696  -0.111   3.011  0.0382  0.8356 -0.8199
  698MOL0     H94189   0.833  -0.211   3.066 -0.0011  0.0807  2.3689
  698MOL0     H94190   0.898   0.195   3.251 -0.5622 -0.7572 -2.2159
  698MOL0     H94191   1.115   0.218   3.397 -1.5718  0.5453  0.5827
  698MOL0     H94192   1.315  -0.092   3.778  0.1040 -0.9724  0.7474
  698MOL0     H94193   1.501  -0.069   3.935 -1.6847 -3.8276 -0.3068
  698MOL0     H94194   1.889  -0.192   3.798 -1.5075  1.1303 -2.1041
  698MOL0     H94195   1.919  -0.020   3.799  0.9369 -0.9271 -0.7059
  698MOL0     H94196   1.915  -0.032   4.059 -0.8805  1.7686 -3.5053
  698MOL0     H94197   1.911  -0.208   4.043  0.7719  1.1010  2.2007
  698MOL0     H94198   2.124  -0.191   3.897  2.0183 -1.6194  2.7841
  698MOL0     H94199   2.118  -0.011   3.925 -0.9796 -0.3551 -1.7156
  698MOL0     H94200   2.130  -0.221   4.140  2.9387 -2.1209  0.4998
  698MOL0     H94201   2.147  -0.036   4.149 -2.6326  1.1893 -3.3376
  698MOL0     H94202   2.355  -0.068   4.009  0.1110 -0.5639 -1.0061
  698MOL0     H94203   2.338  -0.247   4.024  0.5471  0.3435 -0.9906
  698MOL0     H94204   2.372  -0.059   4.253 -2.4738  0.4545 -1.5281
  698MOL0     H94205   2.353  -0.238   4.270  0.4480 -1.4019 -0.9301
  698MOL0     H94206   2.593  -0.111   4.268  2.5644 -2.6865  0.9502
  698MOL0     H94207   2.576  -0.114   4.093  0.6220  2.3366  1.4345
  698MOL0     H94208   2.539  -0.358   4.109  1.3067 -1.2676 -0.4262
  698MOL0     H94209   2.702  -0.306   4.152  0.5750 -0.8080  1.4326
  698MOL0     H94210   1.782  -0.089   3.610  0.9956  0.2901  2.6411
  698MOL0     H94211   1.592  -0.128   3.456  4.1315 -1.1631  0.6146
  698MOL0     H94212   1.143  -0.208   3.398  0.5349  1.4948  0.7897
  698MOL0     H94213   0.974  -0.230   3.239  1.8679 -1.5857 -0.0819
  698MOL0     H94214   0.405   0.111   3.051 -0.4840  1.0303  0.8977
  698MOL0     H94215   0.642   0.105   2.944  2.3031  1.7137 -0.9758
  698MOL0     H94216   1.060   0.261   3.025 -1.3740 -1.5025 -0.3674
  698MOL0     H94217   1.289   0.301   2.983 -1.7332 -1.8014  1.3272
  698MOL0     H94218   1.399   0.551   2.629 -0.0140 -0.5714 -1.5176
  698MOL0     H94219   1.430   0.408   2.554 -2.3614  1.0138 -1.2449
  698MOL0     H94220   1.608   0.563   2.550  0.7095 -0.4974 -0.7685
  698MOL0     H94221   1.661   0.421   2.633 -0.0357 -0.4772  0.0848
  698MOL0     H94222   1.626   0.552   2.865  1.7131 -2.4832 -1.2026
  698MOL0     H94223   1.561   0.683   2.763  0.5928  0.2828 -3.1622
  698MOL0     H94224   1.793   0.740   2.821  0.7439 -1.6464  0.4634
  698MOL0     H94225   1.843   0.576   2.773 -0.7663 -1.8114 -1.1938
  698MOL0     H94226   1.819   0.881   2.446 -0.9632 -1.9668 -1.2191
  698MOL0     H94227   1.203   0.411   2.579  0.4567  2.0573  0.8189
  698MOL0     H94228   0.906   0.267   2.543  0.5753  0.0815  0.6980
  698MOL0     H94229   0.835   0.415   2.611 -0.9693 -1.5442 -0.1224
  698MOL0     H94230   0.982   0.419   2.500 -0.2127 -0.5409 -1.2189
  699MOL0     O94231   5.363   2.609   0.068  0.4844  0.0783  0.4331
  699MOL0     C94232   5.392   2.566   0.178  0.5397  0.8385  0.1715
  699MOL0     O94233   5.514   2.541   0.231 -0.2888 -0.0255  0.5068
  699MOL0     C94234   5.620   2.606   0.178  0.1454 -0.0530 -0.0846
  699MOL0     C94235   5.666   2.601   0.041  0.0982 -0.7815  0.2222
  699MOL0     C94236   5.783   2.653   0.005 -0.2787  0.6546 -0.1388
  699MOL0     C94237   5.875   2.693   0.104 -0.6159 -1.0562  0.1284
  699MOL0     O94238   5.993   2.740   0.051 -0.7492  0.5625  0.5799
  699MOL0     C94239   6.079   2.816   0.141  0.4517  0.1530  0.1133
  699MOL0     C94240   6.212   2.855   0.078 -0.1909 -0.0618 -0.7791
  699MOL0     C94241   6.198   2.940  -0.045 -0.2174 -0.0754 -0.0832
  699MOL0     C94242   6.337   2.964  -0.096 -1.1005  0.5009 -0.0492
  699MOL0     C94243   6.339   3.060  -0.217  0.1349 -0.0571 -0.4196
  699MOL0     C94244   6.480   3.091  -0.255 -0.0519 -0.2152 -0.8173
  699MOL0     C94245   6.466   3.178  -0.379  0.6652  0.4057 -0.2495
  699MOL0     C94246   6.600   3.244  -0.404 -0.2392 -0.2931 -1.3841
  699MOL0     N94247   6.717   3.148  -0.421 -0.0950  0.0813 -1.0974
  699MOL0     C94248   6.846   3.191  -0.440  0.3708 -0.0964 -0.4132
  699MOL0     C94249   6.922   3.084  -0.464  0.6125  0.4269 -0.9674
  699MOL0     C94250   7.065   3.074  -0.505  0.2798 -0.1065  0.0468
  699MOL0     C94251   7.155   3.174  -0.427 -0.3009  0.0737 -0.0087
  699MOL0     C94252   7.146   3.148  -0.276  0.3530  0.2741 -0.7477
  699MOL0     C94253   7.287   3.112  -0.212 -0.9187 -0.1246 -0.0331
  699MOL0     O94254   7.383   3.218  -0.229 -0.3947 -0.8724  0.4809
  699MOL0     C94255   7.495   3.219  -0.152 -0.2771  0.3802  0.8029
  699MOL0     C94256   7.532   3.125  -0.049  0.5855  0.2432  0.8203
  699MOL0     C94257   7.641   3.150   0.039  0.5155 -0.5624  0.6691
  699MOL0     C94258   7.721   3.264   0.025  0.6912  0.4654 -0.3298
  699MOL0     C94259   7.846   3.294   0.105 -0.0914  0.2039 -0.2838
  699MOL0     O94260   7.903   3.422   0.092 -0.2507  0.0072 -0.0505
  699MOL0     C94261   8.015   3.466   0.159  0.0107  0.8349 -0.4073
  699MOL0     C94262   8.046   3.414   0.286 -0.2245 -0.0554 -0.2790
  699MOL0     C94263   8.167   3.461   0.352  1.0147  1.0741  0.5920
  699MOL0     C94264   8.245   3.562   0.291  0.0980  0.1941 -1.0896
  699MOL0     O94265   8.364   3.606   0.349 -0.3930 -0.5330 -0.4747
  699MOL0     C94266   8.405   3.581   0.484  0.2210  0.4663 -1.5758
  699MOL0     C94267   8.542   3.648   0.508 -0.0298 -0.0172  0.6349
  699MOL0     C94268   8.540   3.796   0.479 -0.3475 -0.3424 -0.8983
  699MOL0     C94269   8.664   3.859   0.515 -0.2454  0.0263  0.3453
  699MOL0     C94270   8.779   3.832   0.403 -0.5406 -0.5784  0.3952
  699MOL0     C94271   8.891   3.932   0.441  0.1299 -0.0132 -0.0923
  699MOL0     C94272   8.973   3.888   0.562  0.8162 -0.1470 -0.9355
  699MOL0     C94273   9.081   3.990   0.615  0.5823 -0.2480  0.8270
  699MOL0    Cl94274   9.206   4.031   0.497 -0.5610 -0.2869  0.2921
  699MOL0     C94275   8.195   3.618   0.176 -0.3602  0.6444  0.9396
  699MOL0     C94276   8.081   3.572   0.107  0.1631 -0.0158 -0.2089
  699MOL0     O94277   7.889   3.196   0.171 -0.0330  0.0827 -0.0727
  699MOL0     C94278   7.691   3.343  -0.085  0.1436 -1.0229 -0.3516
  699MOL0     C94279   7.575   3.330  -0.162  0.2125 -0.0357 -0.1203
  699MOL0     N94280   6.834   2.979  -0.485  0.7020  0.3071  0.3078
  699MOL0     N94281   6.712   3.017  -0.451  0.3641  1.1351 -0.4649
  699MOL0     C94282   5.837   2.697   0.239  0.1964 -0.1822  0.1486
  699MOL0     C94283   5.710   2.652   0.279 -0.0520 -0.1055 -0.1468
  699MOL0     C94284   5.266   2.524   0.257 -0.2892  0.7688 -0.2035
  699MOL0     C94285   5.141   2.572   0.204  0.4808 -0.1284 -0.0151
  699MOL0     C94286   5.021   2.535   0.268 -0.8746 -0.5566  0.6231
  699MOL0     C94287   5.022   2.450   0.382  0.3991  0.4792 -0.1115
  699MOL0     O94288   4.907   2.409   0.446 -0.2912 -0.3268  0.1338
  699MOL0     C94289   4.786   2.481   0.434 -0.1190  0.0658 -0.2660
  699MOL0     C94290   4.704   2.489   0.559 -0.3775  0.7024 -0.1241
  699MOL0     C94291   4.580   2.577   0.533  0.1285  0.1014  0.0458
  699MOL0     C94292   4.592   2.728   0.537 -0.1814  0.0029  0.1193
  699MOL0     C94293   4.657   2.784   0.660 -0.4969  0.3774 -0.3603
  699MOL0     C94294   4.708   2.817   0.763 -0.7281  0.2106  0.1263
  699MOL0     C94295   5.149   2.401   0.429  0.0907  0.2541 -0.4423
  699MOL0     C94296   5.270   2.430   0.365  0.0613 -0.2785  0.1197
  699MOL0     C94297   5.389   2.368   0.415 -0.8050  0.7705  1.1020
  699MOL0     H94298   5.602   2.568  -0.040  2.0116  1.6334 -2.5066
  699MOL0     H94299   5.804   2.646  -0.101 -1.6627  2.4751 -0.5758
  699MOL0     H94300   6.022   2.905   0.171 -4.9577 -3.0259  0.6654
  699MOL0     H94301   6.109   2.765   0.234  0.4591  1.8529  1.0923
  699MOL0     H94302   6.267   2.762   0.064 -1.4452 -1.1670  1.1278
  699MOL0     H94303   6.270   2.914   0.150 -0.2213 -1.6764  0.6326
  699MOL0     H94304   6.147   3.032  -0.017  1.0704  1.1381 -1.5318
  699MOL0     H94305   6.130   2.902  -0.121 -1.7914  1.8942  0.2497
  699MOL0     H94306   6.405   3.010  -0.023  0.8205 -2.3675  0.1493
  699MOL0     H94307   6.383   2.868  -0.120  1.0113  1.3496  0.3550
  699MOL0     H94308   6.289   3.014  -0.303  1.0363  0.4284 -1.2194
  699MOL0     H94309   6.285   3.149  -0.182 -0.5829 -0.4884 -0.4009
  699MOL0     H94310   6.534   3.140  -0.173  1.2314  1.7471 -2.7289
  699MOL0     H94311   6.530   2.999  -0.287  0.7640 -0.1220  0.1170
  699MOL0     H94312   6.392   3.258  -0.374  2.2754  1.9543 -0.2602
  699MOL0     H94313   6.434   3.123  -0.467 -0.6630  0.8546 -0.0766
  699MOL0     H94314   6.596   3.315  -0.486  1.9269  0.5501 -0.8048
  699MOL0     H94315   6.621   3.305  -0.316 -1.2760 -1.7487 -0.0717
  699MOL0     H94316   6.862   3.298  -0.439 -0.0709  0.0008  1.8635
  699MOL0     H94317   7.108   2.975  -0.489 -1.4376 -0.8494  0.2030
  699MOL0     H94318   7.071   3.094  -0.612  0.3181 -0.9320 -0.1067
  699MOL0     H94319   7.256   3.163  -0.468 -0.8883  1.2389 -1.8878
  699MOL0     H94320   7.111   3.270  -0.453 -0.6970  0.4505  1.9419
  699MOL0     H94321   7.065   3.078  -0.254  0.7052 -0.2671 -1.1800
  699MOL0     H94322   7.129   3.243  -0.224  2.3398  0.9552 -1.2524
  699MOL0     H94323   7.326   3.017  -0.250 -0.2977  0.4834 -0.9563
  699MOL0     H94324   7.280   3.105  -0.103 -1.7736 -0.7765 -0.1265
  699MOL0     H94325   7.484   3.028  -0.045  1.5884 -0.2900  0.2553
  699MOL0     H94326   7.672   3.069   0.105 -0.2167 -0.0079  1.7397
  699MOL0     H94327   7.987   3.336   0.332 -3.0520  1.2560 -1.4294
  699MOL0     H94328   8.196   3.405   0.440  1.6861 -1.9664 -1.4069
  699MOL0     H94329   8.321   3.610   0.547  2.0982  0.5423  1.0775
  699MOL0     H94330   8.426   3.478   0.515 -2.0939  0.2630 -0.5209
  699MOL0     H94331   8.579   3.625   0.608 -2.4990 -3.4921  0.9255
  699MOL0     H94332   8.604   3.599   0.432 -2.1917 -0.6537 -0.8235
  699MOL0     H94333   8.519   3.822   0.374  1.1740  2.3834 -0.6093
  699MOL0     H94334   8.463   3.836   0.546  1.5405 -2.0348  2.5279
  699MOL0     H94335   8.692   3.822   0.614 -1.0832 -1.4738  0.0557
  699MOL0     H94336   8.656   3.968   0.519  2.1835  0.2303  1.2186
  699MOL0     H94337   8.733   3.849   0.306  0.1041  0.4694  0.2536
  699MOL0     H94338   8.816   3.729   0.404  1.7641  0.0660 -2.5492
  699MOL0     H94339   8.965   3.928   0.361  1.4748  1.2879  1.0143
  699MOL0     H94340   8.862   4.037   0.456  0.3568 -0.0295  0.5051
  699MOL0     H94341   9.029   3.797   0.540  3.8530  1.6708 -1.1908
  699MOL0     H94342   8.917   3.874   0.655  0.5756 -0.3248 -1.1046
  699MOL0     H94343   9.035   4.081   0.653 -0.6310 -0.1207 -0.8366
  699MOL0     H94344   9.134   3.943   0.699 -1.1505 -0.8171  1.6634
  699MOL0     H94345   8.248   3.705   0.139  1.2487  0.4466  2.6054
  699MOL0     H94346   8.052   3.632   0.021 -2.2024  0.3340  0.7432
  699MOL0     H94347   7.757   3.429  -0.088  0.0823 -0.9118  0.9355
  699MOL0     H94348   7.550   3.411  -0.229 -1.1154  0.2122  0.6411
  699MOL0     H94349   5.905   2.727   0.319 -0.8115 -0.1879  1.0328
  699MOL0     H94350   5.677   2.644   0.382  0.4392 -1.5461 -0.0743
  699MOL0     H94351   5.140   2.646   0.125 -0.3468  3.6389  3.1893
  699MOL0     H94352   4.926   2.573   0.230  0.0519  1.9449  0.6197
  699MOL0     H94353   4.735   2.431   0.352 -0.0473 -0.5367  0.0556
  699MOL0     H94354   4.802   2.587   0.411  0.4584 -0.6847 -3.9641
  699MOL0     H94355   4.768   2.540   0.632 -0.3387  1.1245 -0.4498
  699MOL0     H94356   4.693   2.386   0.594  0.6887  0.3957 -0.6454
  699MOL0     H94357   4.500   2.553   0.604 -1.7306  1.6763 -1.4008
  699MOL0     H94358   4.526   2.558   0.440 -0.6473 -0.8967  0.6682
  699MOL0     H94359   4.658   2.756   0.454  2.0460 -1.4340  1.2762
  699MOL0     H94360   4.502   2.787   0.519 -3.0824 -4.5268 -2.1602
  699MOL0     H94361   4.762   2.840   0.852 -0.8011 -0.2299  0.2864
  699MOL0     H94362   5.166   2.336   0.515  1.1977  0.5193 -0.4532
  699MOL0     H94363   5.432   2.321   0.326 -0.8183  0.1686  1.4070
  699MOL0     H94364   5.459   2.440   0.459  1.3062 -1.2111  1.2046
  699MOL0     H94365   5.368   2.286   0.485 -1.4069 -0.8383 -0.8631
  700MOL0     O94366   3.109   0.341   1.818 -0.1739  0.7080 -0.2933
  700MOL0     C94367   3.193   0.254   1.851  0.1120  0.3276 -0.2331
  700MOL0     O94368   3.244   0.168   1.763  0.3487  0.4274  0.6211
  700MOL0     C94369   3.183   0.160   1.643 -0.5050  0.2985 -0.5688
  700MOL0     C94370   3.264   0.186   1.525 -0.8815  0.7530 -0.3602
  700MOL0     C94371   3.209   0.182   1.396 -0.3055 -0.2025 -0.8995
  700MOL0     C94372   3.068   0.159   1.383  0.5344  0.1066  0.0619
  700MOL0     O94373   3.018   0.157   1.255 -0.4169 -0.7493  0.1148
  700MOL0     C94374   2.876   0.169   1.233  0.3276 -0.0064  0.2133
  700MOL0     C94375   2.843   0.226   1.097  0.0702  1.0019 -0.1666
  700MOL0     C94376   2.897   0.368   1.069 -0.1319 -0.1178 -0.3528
  700MOL0     C94377   3.049   0.382   1.039  0.0845  0.1469  0.1497
  700MOL0     C94378   3.088   0.523   0.990 -0.5746 -0.0456  0.2845
  700MOL0     C94379   3.240   0.538   0.967  0.3705  0.1521 -0.1702
  700MOL0     C94380   3.326   0.533   1.098  0.0871  0.3707 -0.8517
  700MOL0     C94381   3.467   0.483   1.071  0.3225 -0.0554 -0.1458
  700MOL0     N94382   3.545   0.478   1.192  0.0450 -0.3549  0.1323
  700MOL0     C94383   3.559   0.369   1.274  0.0043  1.0595  0.5374
  700MOL0     C94384   3.633   0.412   1.379  0.1530  0.6567  1.1284
  700MOL0     C94385   3.668   0.329   1.497 -0.1892 -0.0992 -0.7701
  700MOL0     C94386   3.617   0.398   1.626  0.0709 -0.0815  0.2336
  700MOL0     C94387   3.695   0.357   1.757 -1.1752 -0.3878  1.3162
  700MOL0     C94388   3.813   0.450   1.785  0.2949 -0.4937 -0.6796
  700MOL0     O94389   3.869   0.403   1.915  1.2047 -0.0858  0.2737
  700MOL0     C94390   3.822   0.477   2.023 -0.1511 -0.2413 -0.2464
  700MOL0     C94391   3.884   0.597   2.057 -0.2327 -1.0804 -0.5883
  700MOL0     C94392   3.823   0.680   2.157  0.9867  0.1108 -0.4434
  700MOL0     C94393   3.697   0.646   2.214  0.6034  0.0967  0.6378
  700MOL0     C94394   3.618   0.725   2.307  1.1708 -0.3523  0.4902
  700MOL0     O94395   3.523   0.662   2.379  0.3276  1.0501  0.6561
  700MOL0     C94396   3.430   0.732   2.450 -0.1515 -0.1818  0.9431
  700MOL0     C94397   3.320   0.781   2.381 -0.2598 -0.0099  0.8367
  700MOL0     C94398   3.211   0.838   2.453  0.4300 -0.1305 -0.0967
  700MOL0     C94399   3.211   0.857   2.596  0.3996 -0.4204 -0.3564
  700MOL0     O94400   3.111   0.919   2.657 -0.0311 -0.1325 -0.4011
  700MOL0     C94401   3.109   0.953   2.796 -0.2856  0.2641  0.2853
  700MOL0     C94402   2.977   1.025   2.816 -0.3205 -0.1848 -0.5755
  700MOL0     C94403   2.981   1.159   2.745 -0.4427  0.5939  0.1689
  700MOL0     C94404   2.854   1.226   2.736  0.4260  0.5687  0.5306
  700MOL0     C94405   2.861   1.383   2.723 -0.0935 -0.4472 -0.6232
  700MOL0     C94406   2.729   1.430   2.659 -0.1240 -1.4607 -0.6289
  700MOL0     C94407   2.691   1.579   2.689 -0.2312  0.1781  0.3639
  700MOL0     C94408   2.614   1.635   2.562 -1.2145 -0.0433 -0.9137
  700MOL0    Cl94409   2.470   1.535   2.535 -0.1025  0.2575  0.5092
  700MOL0     C94410   3.332   0.815   2.656 -0.0705  0.0322 -0.3004
  700MOL0     C94411   3.440   0.750   2.589  0.1800  0.3437  0.3920
  700MOL0     O94412   3.631   0.844   2.301 -0.5160 -0.2639 -0.0087
  700MOL0     C94413   3.646   0.519   2.177 -0.0025  1.0319  0.1979
  700MOL0     C94414   3.707   0.437   2.092  0.3012  0.7952 -0.1147
  700MOL0     N94415   3.663   0.541   1.361  0.6018  0.0806 -0.1283
  700MOL0     N94416   3.607   0.587   1.255  0.1084  0.1868 -0.3016
  700MOL0     C94417   2.989   0.120   1.500 -0.1768 -0.0488 -0.1591
  700MOL0     C94418   3.052   0.124   1.623  0.2158 -0.5577 -0.3877
  700MOL0     C94419   3.235   0.265   1.993 -0.4621  0.2036  0.0192
  700MOL0     C94420   3.163   0.346   2.088 -0.2716  0.3095 -0.3331
  700MOL0     C94421   3.208   0.369   2.217  0.5643  0.2081  0.3694
  700MOL0     C94422   3.319   0.310   2.268  0.9398 -0.2229  0.6136
  700MOL0     O94423   3.360   0.321   2.400 -0.5312  0.4918 -0.1214
  700MOL0     C94424   3.267   0.353   2.505 -0.5819  0.3978  0.0416
  700MOL0     C94425   3.333   0.388   2.640  0.4511  0.0626 -0.9793
  700MOL0     C94426   3.266   0.346   2.772 -0.6531 -0.0296 -0.3086
  700MOL0     C94427   3.366   0.376   2.893 -0.0139  0.5357  0.0644
  700MOL0     C94428   3.382   0.515   2.933  0.7681  0.9273  0.4520
  700MOL0     C94429   3.397   0.632   2.966  0.9211  0.0578 -0.4656
  700MOL0     C94430   3.390   0.233   2.173  0.4108 -0.2762 -0.2180
  700MOL0     C94431   3.357   0.211   2.040 -0.9834  0.3108  0.9137
  700MOL0     C94432   3.460   0.145   1.960 -0.3438  1.0227  0.1953
  700MOL0     H94433   3.367   0.217   1.541 -0.2267 -1.6473  0.4031
  700MOL0     H94434   3.262   0.216   1.308  0.7563  0.2058 -0.1302
  700MOL0     H94435   2.823   0.074   1.243 -1.0266  0.7040  0.0073
  700MOL0     H94436   2.838   0.236   1.311 -2.5621 -1.8665  0.5518
  700MOL0     H94437   2.735   0.229   1.086 -0.0343 -1.2969 -0.2464
  700MOL0     H94438   2.881   0.162   1.017  0.7018 -0.8102  1.4844
  700MOL0     H94439   2.874   0.438   1.150 -1.1661  0.0259 -0.7550
  700MOL0     H94440   2.843   0.413   0.984 -2.5980  1.7297  2.0123
  700MOL0     H94441   3.117   0.361   1.122  0.6945  1.9635  0.1600
  700MOL0     H94442   3.074   0.320   0.952  1.8317 -0.0947  0.7882
  700MOL0     H94443   3.031   0.539   0.899 -1.0158 -0.8921  0.3941
  700MOL0     H94444   3.047   0.597   1.058 -0.0525  0.5540 -0.0424
  700MOL0     H94445   3.278   0.456   0.904  0.8545  0.3722 -0.1723
  700MOL0     H94446   3.261   0.631   0.914 -1.1570  0.1024 -0.9102
  700MOL0     H94447   3.285   0.461   1.170 -1.4384 -0.1658 -2.1954
  700MOL0     H94448   3.333   0.634   1.138 -0.7534  0.9986 -2.2134
  700MOL0     H94449   3.457   0.380   1.037 -0.5157  0.3363 -1.1353
  700MOL0     H94450   3.515   0.548   0.997 -4.0241  3.3283 -0.4192
  700MOL0     H94451   3.524   0.270   1.248  0.1880  1.6867 -2.4233
  700MOL0     H94452   3.635   0.225   1.487  1.1808 -0.5112 -1.2054
  700MOL0     H94453   3.776   0.312   1.504 -0.1908 -0.8957 -2.2243
  700MOL0     H94454   3.629   0.507   1.616 -0.3656 -0.0403  0.1388
  700MOL0     H94455   3.509   0.381   1.632  0.2757 -2.1433 -1.1910
  700MOL0     H94456   3.736   0.258   1.737  0.1369 -0.0518  2.1646
  700MOL0     H94457   3.628   0.364   1.843 -0.4392  1.3023  1.8027
  700MOL0     H94458   3.795   0.558   1.791  1.8577 -0.2526  0.1823
  700MOL0     H94459   3.892   0.441   1.710 -0.7916  0.4858 -1.9836
  700MOL0     H94460   3.971   0.641   2.009  0.5609 -1.0441  0.8332
  700MOL0     H94461   3.865   0.773   2.193 -0.5037  0.8128 -0.4705
  700MOL0     H94462   3.323   0.769   2.273 -0.2994 -0.8848  0.9210
  700MOL0     H94463   3.126   0.885   2.405  1.3773  4.1241  1.9653
  700MOL0     H94464   3.110   0.868   2.864 -0.5854  2.1189  2.7378
  700MOL0     H94465   3.193   1.018   2.822 -0.2073  1.0310 -1.6717
  700MOL0     H94466   2.893   0.968   2.776 -1.8050  1.0237  0.6636
  700MOL0     H94467   2.948   1.047   2.919 -1.0476  3.9731 -1.4752
  700MOL0     H94468   3.040   1.224   2.810 -0.5887 -0.9716  1.9296
  700MOL0     H94469   3.022   1.151   2.643  3.7740 -0.1618  1.7173
  700MOL0     H94470   2.788   1.199   2.819 -2.9002  0.0231 -2.0764
  700MOL0     H94471   2.816   1.194   2.639 -0.7284  2.8847  0.1395
  700MOL0     H94472   2.952   1.417   2.673  0.0640  0.2797  0.1309
  700MOL0     H94473   2.869   1.417   2.827 -1.2948  1.9809 -1.2717
  700MOL0     H94474   2.731   1.421   2.550  0.4685 -1.5280 -0.6163
  700MOL0     H94475   2.650   1.364   2.695  0.3832 -1.2223  1.0016
  700MOL0     H94476   2.778   1.644   2.699  0.4160 -0.4689 -0.8354
  700MOL0     H94477   2.631   1.591   2.779  2.4530  0.4932  2.2305
  700MOL0     H94478   2.588   1.738   2.586  1.9436  0.7570 -0.4958
  700MOL0     H94479   2.679   1.625   2.475  0.2804  0.5003  0.1007
  700MOL0     H94480   3.350   0.821   2.763  1.9210 -0.0512 -0.5980
  700MOL0     H94481   3.517   0.718   2.658  0.1152  2.1721  1.4009
  700MOL0     H94482   3.556   0.484   2.226  1.9148 -2.9387  1.3511
  700MOL0     H94483   3.667   0.341   2.061  1.0568  1.1156 -2.2979
  700MOL0     H94484   2.888   0.080   1.499 -0.5788  0.9313  0.4061
  700MOL0     H94485   2.998   0.095   1.713  0.6436 -2.0524 -0.5787
  700MOL0     H94486   3.072   0.393   2.050 -0.4030  2.3973  2.2849
  700MOL0     H94487   3.153   0.440   2.278 -1.4012  0.2636 -1.3567
  700MOL0     H94488   3.197   0.270   2.516  0.0100  0.1428  2.3396
  700MOL0     H94489   3.207   0.440   2.478 -0.5379  0.3148 -0.3314
  700MOL0     H94490   3.348   0.496   2.645 -0.5582  0.1873  2.3432
  700MOL0     H94491   3.431   0.341   2.640  0.2769 -0.3099 -1.5906
  700MOL0     H94492   3.235   0.241   2.767 -2.9965  0.6256 -0.6424
  700MOL0     H94493   3.174   0.402   2.790 -0.5982  0.1419 -0.5545
  700MOL0     H94494   3.335   0.310   2.975  0.0853  1.0257  0.5025
  700MOL0     H94495   3.467   0.342   2.866  1.2004  2.7956  1.3939
  700MOL0     H94496   3.401   0.734   2.999  1.5376 -0.3080  0.6804
  700MOL0     H94497   3.482   0.184   2.205  1.0420  1.3264  0.4989
  700MOL0     H94498   3.423   0.045   1.938 -1.0954  1.1158  0.9685
  700MOL0     H94499   3.464   0.195   1.862 -3.1928 -4.0143 -2.9253
  700MOL0     H94500   3.557   0.135   2.009  0.0981  0.9501 -0.6644
  701MOL0     O94501   5.445   6.577   1.350  0.0871 -0.2345  0.2366
  701MOL0     C94502   5.484   6.634   1.453  0.4275  0.0810  0.7611
  701MOL0     O94503   5.612   6.671   1.477 -0.2958 -0.3199  0.6342
  701MOL0     C94504   5.701   6.663   1.371 -0.1292  0.1691  0.4852
  701MOL0     C94505   5.801   6.576   1.364  0.7615  1.1023 -0.0367
  701MOL0     C94506   5.879   6.573   1.251  0.3500  0.5096 -0.2671
  701MOL0     C94507   5.880   6.682   1.156 -0.3937  0.6192  0.1117
  701MOL0     O94508   5.976   6.700   1.059  0.0087 -0.3487 -0.3016
  701MOL0     C94509   5.972   6.595   0.963  0.2796  0.7092 -0.8811
  701MOL0     C94510   6.115   6.561   0.912  0.6133  0.0756  0.2681
  701MOL0     C94511   6.195   6.481   1.007 -0.1920 -0.2166  0.3956
  701MOL0     C94512   6.329   6.426   0.953  0.8071  0.0145  0.6999
  701MOL0     C94513   6.399   6.322   1.034  0.5821  1.1902  0.0193
  701MOL0     C94514   6.529   6.290   0.956  0.6932 -0.2571 -0.1890
  701MOL0     C94515   6.612   6.198   1.041  0.1976 -0.6680 -0.1660
  701MOL0     C94516   6.643   6.248   1.180  0.2235 -0.4297 -0.1359
  701MOL0     N94517   6.692   6.383   1.193  0.0001 -0.4359  0.0314
  701MOL0     C94518   6.815   6.432   1.139 -0.1115  1.0724  0.1047
  701MOL0     C94519   6.830   6.554   1.196 -0.0054  0.9031  0.7199
  701MOL0     C94520   6.944   6.642   1.177  1.3225  0.3395 -0.1147
  701MOL0     C94521   6.979   6.714   1.308  0.4315  0.7726  0.7174
  701MOL0     C94522   7.109   6.800   1.293 -0.3863 -0.0271 -1.0188
  701MOL0     C94523   7.170   6.828   1.435  0.6512 -0.8076  0.0518
  701MOL0     O94524   7.270   6.929   1.455 -0.1075 -0.7504 -0.3374
  701MOL0     C94525   7.228   7.058   1.480  0.2127 -0.2146  0.4501
  701MOL0     C94526   7.095   7.086   1.455  1.2220 -0.1705  0.1878
  701MOL0     C94527   7.050   7.214   1.475 -0.3786 -0.9654  0.8897
  701MOL0     C94528   7.130   7.324   1.510  0.5276 -0.7324  0.4418
  701MOL0     C94529   7.078   7.470   1.511  0.6576  0.6711  0.2588
  701MOL0     O94530   7.170   7.563   1.555 -0.3829 -0.3796  0.7838
  701MOL0     C94531   7.124   7.690   1.579 -0.3194  0.4028 -0.4608
  701MOL0     C94532   7.079   7.713   1.708  0.8321 -0.1294 -0.0803
  701MOL0     C94533   7.005   7.828   1.728 -0.1542  0.0144 -0.2092
  701MOL0     C94534   6.985   7.931   1.641 -0.8269 -0.3019  0.8099
  701MOL0     O94535   6.895   8.037   1.669 -0.2063  0.4642 -0.4596
  701MOL0     C94536   6.797   8.063   1.562  0.9056  0.0834 -0.1951
  701MOL0     C94537   6.677   8.135   1.630 -0.7130  0.4234  0.1274
  701MOL0     C94538   6.576   8.169   1.522 -0.7843  0.3871 -0.1806
  701MOL0     C94539   6.465   8.262   1.572  0.4291  0.4555  0.0298
  701MOL0     C94540   6.354   8.260   1.462  0.2226 -0.2135 -0.7431
  701MOL0     C94541   6.238   8.354   1.514 -0.3713  0.0649  0.3422
  701MOL0     C94542   6.116   8.371   1.423  0.3234 -0.4270  0.0384
  701MOL0     C94543   6.146   8.395   1.272 -0.1265 -0.2349 -0.5181
  701MOL0    Cl94544   6.266   8.538   1.256  0.6823 -0.0788  0.0118
  701MOL0     C94545   7.034   7.909   1.508  0.0280 -0.1742  0.6288
  701MOL0     C94546   7.103   7.789   1.477 -0.1722  0.2891  0.2453
  701MOL0     O94547   6.967   7.500   1.468  0.2162  0.9830 -0.4816
  701MOL0     C94548   7.265   7.291   1.527 -0.2262 -0.2914 -0.0667
  701MOL0     C94549   7.312   7.165   1.509  0.1467 -0.4520 -0.1676
  701MOL0     N94550   6.727   6.567   1.286  0.4625 -0.3482 -0.0868
  701MOL0     N94551   6.651   6.467   1.289 -0.0979  0.0255  0.0755
  701MOL0     C94552   5.776   6.773   1.167 -0.3845 -0.1487 -0.5008
  701MOL0     C94553   5.683   6.762   1.274  0.0808  0.1018  0.3483
  701MOL0     C94554   5.387   6.680   1.553 -0.0139  0.6485  0.2910
  701MOL0     C94555   5.419   6.800   1.623 -0.2704  0.6369  0.1103
  701MOL0     C94556   5.328   6.853   1.708  0.7734  0.0095  0.0810
  701MOL0     C94557   5.199   6.802   1.716 -1.2039  0.3518 -0.0574
  701MOL0     O94558   5.122   6.863   1.804  0.4618 -0.0354 -0.1140
  701MOL0     C94559   4.983   6.840   1.815 -0.1923  0.1396 -0.0324
  701MOL0     C94560   4.897   6.919   1.717  0.1965 -0.0404 -0.8839
  701MOL0     C94561   4.758   6.941   1.776 -0.4867  0.4448  0.1626
  701MOL0     C94562   4.646   6.967   1.672 -0.1379 -0.3021 -0.3655
  701MOL0     C94563   4.513   6.982   1.735  0.0105  0.0255 -0.9873
  701MOL0     C94564   4.395   7.001   1.755  0.3812  0.1463 -0.8059
  701MOL0     C94565   5.163   6.687   1.645 -0.3458 -0.4414 -0.4570
  701MOL0     C94566   5.258   6.623   1.560  0.4020 -0.0273  0.5281
  701MOL0     C94567   5.218   6.493   1.501  0.0501 -0.0605  0.6715
  701MOL0     H94568   5.806   6.495   1.436 -0.5539  0.1624 -0.9377
  701MOL0     H94569   5.954   6.499   1.226 -1.8628 -1.4349 -1.5880
  701MOL0     H94570   5.914   6.514   1.009  1.2771  0.3542 -0.2058
  701MOL0     H94571   5.920   6.625   0.872  2.0827 -0.4037 -2.3451
  701MOL0     H94572   6.164   6.657   0.889  2.0598 -0.6933  0.0188
  701MOL0     H94573   6.109   6.502   0.821 -1.4643 -1.7272  1.4863
  701MOL0     H94574   6.132   6.393   1.029  1.6344 -1.9202 -0.9117
  701MOL0     H94575   6.209   6.536   1.100 -1.7630  3.4277 -1.3120
  701MOL0     H94576   6.313   6.397   0.849  3.2324 -2.2833  0.8613
  701MOL0     H94577   6.389   6.517   0.957 -0.2589  0.8254 -0.8702
  701MOL0     H94578   6.416   6.376   1.128 -1.0269  1.2660  0.3064
  701MOL0     H94579   6.338   6.233   1.052  1.4712  0.7908  1.1135
  701MOL0     H94580   6.495   6.234   0.868  1.5706  0.3885 -0.9485
  701MOL0     H94581   6.581   6.383   0.933 -0.9416  0.9758  0.8581
  701MOL0     H94582   6.703   6.176   0.985  1.4209  2.0151  0.6144
  701MOL0     H94583   6.564   6.102   1.059  0.9025 -0.5269  3.1281
  701MOL0     H94584   6.550   6.234   1.235 -1.5923  0.2609 -2.8034
  701MOL0     H94585   6.722   6.187   1.225  0.1533 -0.9908 -0.7450
  701MOL0     H94586   6.875   6.390   1.059  0.2024  1.8584 -0.0866
  701MOL0     H94587   7.029   6.582   1.145  1.5732  1.0599 -0.8124
  701MOL0     H94588   6.928   6.711   1.093 -0.4393 -1.1327 -1.0511
  701MOL0     H94589   6.892   6.777   1.329 -0.3701  0.1176 -0.5394
  701MOL0     H94590   6.989   6.639   1.387 -2.4218  0.3383  0.7545
  701MOL0     H94591   7.096   6.898   1.246 -0.0114  0.4824 -0.0906
  701MOL0     H94592   7.170   6.746   1.220  1.3011  0.7984 -0.2775
  701MOL0     H94593   7.221   6.734   1.457  3.6648  0.6330 -0.2571
  701MOL0     H94594   7.089   6.838   1.507  1.4975 -0.7999  1.0198
  701MOL0     H94595   7.029   7.010   1.416  0.9032 -0.0924  0.5648
  701MOL0     H94596   6.949   7.233   1.442  0.1848  0.1241 -0.2866
  701MOL0     H94597   7.082   7.649   1.796  0.2988 -0.0026  0.0323
  701MOL0     H94598   6.952   7.838   1.823 -2.9856 -1.8630 -1.4661
  701MOL0     H94599   6.839   8.128   1.485  0.9021 -0.2176 -0.4531
  701MOL0     H94600   6.753   7.972   1.520  0.5772  0.3623 -0.4572
  701MOL0     H94601   6.620   8.080   1.705 -2.2242  0.8257 -0.6883
  701MOL0     H94602   6.720   8.225   1.674  0.3441 -0.5276  1.0987
  701MOL0     H94603   6.616   8.231   1.441 -0.3818 -2.4153 -2.3062
  701MOL0     H94604   6.555   8.073   1.473  1.5693 -0.8717  1.1187
  701MOL0     H94605   6.498   8.364   1.594 -3.5302  1.9358 -0.0865
  701MOL0     H94606   6.435   8.223   1.670  1.1798  1.3152  0.6178
  701MOL0     H94607   6.310   8.161   1.451 -1.2431  0.2257  0.7732
  701MOL0     H94608   6.384   8.300   1.365 -1.1779  2.2430 -0.2641
  701MOL0     H94609   6.206   8.319   1.613 -0.5572  0.2547  0.3487
  701MOL0     H94610   6.281   8.453   1.529  1.1849 -0.4567 -0.5236
  701MOL0     H94611   6.056   8.456   1.455 -0.1624  0.0639 -2.0110
  701MOL0     H94612   6.048   8.286   1.427  1.1707 -1.2316 -1.7698
  701MOL0     H94613   6.181   8.306   1.218 -0.4407  0.6377 -2.2122
  701MOL0     H94614   6.053   8.423   1.222  0.2725 -2.4278 -2.6565
  701MOL0     H94615   7.005   7.984   1.436 -0.6911  1.5510  2.6322
  701MOL0     H94616   7.132   7.763   1.376 -1.7616 -1.5463  0.2018
  701MOL0     H94617   7.337   7.368   1.556 -0.5163  0.3182 -0.9221
  701MOL0     H94618   7.416   7.145   1.533  1.1763  0.1045 -3.6262
  701MOL0     H94619   5.779   6.851   1.092 -1.0068 -0.1227 -0.5023
  701MOL0     H94620   5.610   6.841   1.289 -0.1300  0.0979 -0.6082
  701MOL0     H94621   5.518   6.845   1.621 -0.5575  1.3875  1.5623
  701MOL0     H94622   5.352   6.947   1.758  1.5646  1.2481 -2.4525
  701MOL0     H94623   4.951   6.867   1.916 -2.6468  0.8230 -0.8995
  701MOL0     H94624   4.951   6.736   1.802  0.6912 -0.0496 -0.7824
  701MOL0     H94625   4.889   6.863   1.624 -1.0764 -0.6714 -0.4202
  701MOL0     H94626   4.937   7.018   1.693  1.0338 -0.1737 -0.0953
  701MOL0     H94627   4.762   7.030   1.840 -2.1048  0.0712  0.8286
  701MOL0     H94628   4.722   6.857   1.837  0.2965 -0.7318 -0.9418
  701MOL0     H94629   4.673   7.065   1.631  3.1487 -0.6896  0.5180
  701MOL0     H94630   4.649   6.892   1.592  1.8579 -1.8587  1.0289
  701MOL0     H94631   4.293   7.032   1.766 -0.3088 -2.6257  2.0514
  701MOL0     H94632   5.064   6.642   1.646 -0.5988  0.0287 -1.7173
  701MOL0     H94633   5.245   6.475   1.396 -1.5760 -0.3856  0.2755
  701MOL0     H94634   5.249   6.409   1.564 -0.9692  0.4786  1.9389
  701MOL0     H94635   5.109   6.482   1.501 -0.0631 -0.2702 -3.0367
  702MOL0     O94636   9.006   3.894   0.918  0.0211  0.1669  0.1814
  702MOL0     C94637   9.004   3.899   1.043  0.2389  0.4706  0.4632
  702MOL0     O94638   9.116   3.920   1.116 -0.3622  0.5569  0.6612
  702MOL0     C94639   9.240   3.946   1.061 -0.2468 -0.2842  0.6899
  702MOL0     C94640   9.347   3.883   1.125  0.3951 -0.1217 -0.1828
  702MOL0     C94641   9.475   3.904   1.079 -0.3013  0.2522 -0.0335
  702MOL0     C94642   9.505   3.992   0.978 -0.5118 -0.6503 -0.2174
  702MOL0     O94643   9.640   3.996   0.943  0.0749 -0.3547  0.6254
  702MOL0     C94644   9.692   4.078   0.832  0.5031 -0.1224 -0.4705
  702MOL0     C94645   9.829   4.033   0.797  0.7040 -0.8741  0.6657
  702MOL0     C94646   9.927   4.011   0.916  1.2419  0.1846  0.4205
  702MOL0     C94647  10.072   3.991   0.867  0.8220  0.0209  0.0952
  702MOL0     C94648  10.170   3.986   0.985 -1.0654  0.0458 -0.0639
  702MOL0     C94649  10.315   3.953   0.945  0.3005  0.4450  0.0262
  702MOL0     C94650  10.401   3.938   1.068  0.2910 -0.5076  0.0226
  702MOL0     C94651  10.498   3.818   1.073  0.0336  0.1468  0.3991
  702MOL0     N94652  10.568   3.814   1.201  0.2974 -0.8897 -0.0899
  702MOL0     C94653  10.615   3.925   1.271  0.2192  0.0050  0.3028
  702MOL0     C94654  10.665   3.884   1.385 -0.4587 -0.1252  0.5117
  702MOL0     C94655  10.716   3.968   1.500 -0.0659 -1.6936 -0.1120
  702MOL0     C94656  10.858   4.030   1.489  0.5363 -0.5386 -0.2432
  702MOL0     C94657  10.883   4.115   1.617 -0.3607 -0.9534 -0.1162
  702MOL0     C94658  11.026   4.182   1.589 -0.4383  0.3174 -0.1810
  702MOL0     O94659  11.072   4.249   1.714 -0.3929 -0.1262 -0.4854
  702MOL0     C94660  11.152   4.357   1.686 -0.6260  0.2961 -0.5501
  702MOL0     C94661  11.125   4.469   1.760 -0.4929  0.6542  0.5484
  702MOL0     C94662  11.192   4.581   1.757  0.7660  0.1974  0.3337
  702MOL0     C94663  11.315   4.584   1.676  0.3258  0.6132 -0.1265
  702MOL0     C94664  11.394   4.703   1.680  0.1536 -0.0875  0.2046
  702MOL0     O94665  11.472   4.732   1.567 -0.1407  0.1290  0.0778
  702MOL0     C94666  11.595   4.787   1.582  0.5514 -0.3196 -0.2550
  702MOL0     C94667  11.656   4.796   1.703 -0.8615  1.0555  0.5093
  702MOL0     C94668  11.789   4.837   1.707 -0.3366 -0.7016 -1.0773
  702MOL0     C94669  11.859   4.882   1.596 -0.0742 -0.3394 -0.2424
  702MOL0     O94670  11.991   4.917   1.593 -0.5188  0.9160  0.1934
  702MOL0     C94671  12.020   5.055   1.579  0.2852 -0.8973 -0.3343
  702MOL0     C94672  12.040   5.118   1.716 -0.6585 -1.2612  0.3210
  702MOL0     C94673  12.167   5.093   1.789 -1.0241  0.3806  0.3050
  702MOL0     C94674  12.293   5.094   1.700 -1.7939 -0.4228  0.2682
  702MOL0     C94675  12.420   5.079   1.793  0.3925 -0.3050  0.3709
  702MOL0     C94676  12.540   5.045   1.705 -0.3760 -0.8391  1.1741
  702MOL0     C94677  12.570   5.151   1.593  0.3775  0.3099 -1.1390
  702MOL0     C94678  12.681   5.094   1.493  0.4764  0.1148 -0.3755
  702MOL0    Cl94679  12.833   5.108   1.573  0.0174  0.3335  0.2746
  702MOL0     C94680  11.794   4.873   1.469  0.5034 -0.3856 -0.2384
  702MOL0     C94681  11.664   4.828   1.468  0.0668 -0.1016  0.2349
  702MOL0     O94682  11.376   4.775   1.776  0.4000 -0.2706  1.0092
  702MOL0     C94683  11.341   4.470   1.589 -0.9846 -0.1809  0.1855
  702MOL0     C94684  11.265   4.352   1.605  0.3637  0.1793  0.1108
  702MOL0     N94685  10.641   3.742   1.388  0.5577  0.0811 -0.7476
  702MOL0     N94686  10.595   3.704   1.273 -0.9039 -0.0978 -0.2365
  702MOL0     C94687   9.407   4.080   0.925  0.1407  0.9167  0.3484
  702MOL0     C94688   9.268   4.043   0.964 -0.3601 -0.3420 -0.3237
  702MOL0     C94689   8.871   3.907   1.115 -0.0020  1.3842  0.5082
  702MOL0     C94690   8.872   3.941   1.249 -0.5554  0.5071  0.2526
  702MOL0     C94691   8.764   3.951   1.329 -0.0408  0.4301 -0.1640
  702MOL0     C94692   8.636   3.920   1.277 -0.2543  0.3378  0.6090
  702MOL0     O94693   8.530   3.910   1.366 -0.4055 -0.4724 -0.5704
  702MOL0     C94694   8.396   3.887   1.319 -0.1615 -0.2906  0.4571
  702MOL0     C94695   8.314   4.009   1.290 -0.1675  0.4680 -0.2704
  702MOL0     C94696   8.169   3.965   1.280  0.1573  0.0119 -0.6419
  702MOL0     C94697   8.069   4.060   1.220  0.4331 -0.2254  0.3288
  702MOL0     C94698   7.934   4.004   1.214 -0.1762  0.6100  0.3305
  702MOL0     C94699   7.831   3.932   1.216 -0.9955 -0.7862 -0.5011
  702MOL0     C94700   8.626   3.873   1.139 -0.6881 -1.1845  0.3172
  702MOL0     C94701   8.746   3.871   1.063 -0.6932 -0.3174  0.5620
  702MOL0     C94702   8.728   3.817   0.924 -0.2088 -0.3075  0.3633
  702MOL0     H94703   9.322   3.822   1.210  1.9634 -1.4814 -0.6478
  702MOL0     H94704   9.562   3.844   1.105 -0.7035 -1.9068 -3.0751
  702MOL0     H94705   9.628   4.051   0.748  2.7266  0.1696 -2.3662
  702MOL0     H94706   9.688   4.182   0.864 -1.0160 -0.9404  2.3705
  702MOL0     H94707   9.863   4.106   0.722 -0.2885 -0.4572  0.6097
  702MOL0     H94708   9.819   3.935   0.749 -0.3014 -0.8276  0.7673
  702MOL0     H94709   9.893   3.922   0.970  1.6084 -0.6051 -0.6155
  702MOL0     H94710   9.922   4.099   0.981  0.4007  1.1348 -0.8683
  702MOL0     H94711  10.090   3.910   0.796  0.3632 -1.3424  1.4783
  702MOL0     H94712  10.095   4.079   0.806  0.6763  1.6224  2.2082
  702MOL0     H94713  10.178   4.073   1.052 -1.1741 -0.3133  0.4198
  702MOL0     H94714  10.127   3.906   1.046 -1.2749  0.6425  0.5869
  702MOL0     H94715  10.314   3.857   0.892 -2.9949  0.5433 -0.3574
  702MOL0     H94716  10.355   4.019   0.868 -1.7033  1.0087 -0.6028
  702MOL0     H94717  10.342   3.935   1.160  0.7840 -0.1719  0.3537
  702MOL0     H94718  10.463   4.029   1.066 -2.7100  1.7081 -1.6834
  702MOL0     H94719  10.443   3.723   1.068 -0.3794  0.3933  0.2539
  702MOL0     H94720  10.567   3.820   0.989  0.3887  0.1179  0.6861
  702MOL0     H94721  10.601   4.029   1.244 -0.4040 -0.1416  0.0546
  702MOL0     H94722  10.640   4.046   1.509  0.0756 -1.6207  0.4701
  702MOL0     H94723  10.715   3.896   1.582 -0.5075 -2.0858 -0.4570
  702MOL0     H94724  10.934   3.952   1.482  0.5780 -0.4624 -0.6714
  702MOL0     H94725  10.863   4.087   1.396  0.4083  0.9127  0.6149
  702MOL0     H94726  10.875   4.059   1.710  0.7508 -1.3815 -0.2600
  702MOL0     H94727  10.799   4.183   1.633  1.1107  1.3258 -1.5358
  702MOL0     H94728  11.009   4.256   1.511 -0.4878 -1.2611 -1.7300
  702MOL0     H94729  11.096   4.112   1.543 -1.3612  0.4520 -1.8902
  702MOL0     H94730  11.043   4.466   1.832 -1.6009  3.3314 -0.4713
  702MOL0     H94731  11.154   4.673   1.801  0.5565  2.0459 -3.2692
  702MOL0     H94732  11.615   4.753   1.794  2.7539 -1.5097  1.1549
  702MOL0     H94733  11.835   4.828   1.805  1.5743  1.3886 -1.6922
  702MOL0     H94734  12.108   5.066   1.514 -0.1171 -0.6744 -0.8516
  702MOL0     H94735  11.943   5.111   1.525  1.1732  0.4884 -0.2171
  702MOL0     H94736  12.015   5.225   1.716 -0.1056 -1.1172 -0.6112
  702MOL0     H94737  11.966   5.068   1.779  0.2183 -2.4114  0.4793
  702MOL0     H94738  12.173   5.166   1.870  2.2229  0.7844 -0.1778
  702MOL0     H94739  12.163   4.999   1.843  0.8829  1.1068  1.8125
  702MOL0     H94740  12.292   5.196   1.659  0.0895  1.1429  3.6679
  702MOL0     H94741  12.299   5.022   1.618  1.1371 -0.8733  0.7691
  702MOL0     H94742  12.417   4.996   1.865  1.5296 -2.7534 -2.2237
  702MOL0     H94743  12.433   5.169   1.853  0.6327 -0.3133  0.3318
  702MOL0     H94744  12.636   5.036   1.756  0.5896 -2.0794 -0.7315
  702MOL0     H94745  12.526   4.944   1.664  1.6369 -1.0752  0.9882
  702MOL0     H94746  12.596   5.245   1.642  0.3758 -0.6074  0.7121
  702MOL0     H94747  12.479   5.176   1.539 -0.3264  0.3069  0.0151
  702MOL0     H94748  12.654   4.995   1.456 -1.1341 -0.4139  1.9548
  702MOL0     H94749  12.673   5.164   1.409 -0.9486  5.1610  3.4550
  702MOL0     H94750  11.838   4.890   1.371 -2.1601 -0.3373 -1.5050
  702MOL0     H94751  11.616   4.820   1.371 -3.1355 -0.3127  1.6967
  702MOL0     H94752  11.428   4.477   1.524 -0.5628  0.4026  0.8028
  702MOL0     H94753  11.285   4.260   1.552 -0.6361 -1.6315  2.6834
  702MOL0     H94754   9.428   4.161   0.856  0.8901 -0.4717 -1.1065
  702MOL0     H94755   9.182   4.096   0.923 -0.1020  0.2435 -0.1208
  702MOL0     H94756   8.971   3.958   1.290  0.3724 -3.4212  0.0547
  702MOL0     H94757   8.767   3.974   1.435 -0.7970 -1.5000  0.3187
  702MOL0     H94758   8.349   3.827   1.397 -1.1522 -0.6282 -0.3924
  702MOL0     H94759   8.388   3.826   1.229 -4.7578  0.0798  0.4016
  702MOL0     H94760   8.346   4.036   1.189  1.3224  1.4026  0.4221
  702MOL0     H94761   8.316   4.092   1.361 -0.2528 -0.1942  0.5146
  702MOL0     H94762   8.140   3.932   1.380 -0.7658  0.4793 -0.7495
  702MOL0     H94763   8.163   3.879   1.213 -1.3625  0.0963 -0.6501
  702MOL0     H94764   8.067   4.156   1.272 -1.1429 -0.8007  1.3779
  702MOL0     H94765   8.100   4.089   1.119 -2.6136  1.5134 -0.2324
  702MOL0     H94766   7.739   3.877   1.226 -0.1075 -1.8662  3.2904
  702MOL0     H94767   8.532   3.843   1.095 -1.1461 -0.7193  0.9620
  702MOL0     H94768   8.796   3.732   0.907 -0.3031  0.2250 -3.4863
  702MOL0     H94769   8.625   3.784   0.910  0.0637 -1.5839  1.1237
  702MOL0     H94770   8.750   3.895   0.851  1.2552 -0.6138  0.4379
  703MOL0     O94771  10.368   7.230   6.245  0.4025 -0.0700  0.3801
  703MOL0     C94772  10.405   7.289   6.346  0.4756  0.0980 -0.6840
  703MOL0     O94773  10.529   7.271   6.395  0.2808  0.2287 -0.1782
  703MOL0     C94774  10.638   7.250   6.317 -0.3324 -0.8150  0.1381
  703MOL0     C94775  10.736   7.160   6.367  0.7549 -0.4405  0.1463
  703MOL0     C94776  10.841   7.110   6.293 -0.6815 -0.3984 -1.0553
  703MOL0     C94777  10.855   7.171   6.166  0.4577  0.1476 -0.0246
  703MOL0     O94778  10.956   7.134   6.084 -0.4559 -0.1327  0.3345
  703MOL0     C94779  11.084   7.195   6.130  0.2964 -0.1174 -0.3366
  703MOL0     C94780  11.200   7.107   6.105  0.2956 -0.3462 -0.1144
  703MOL0     C94781  11.183   6.982   6.192  0.1047 -0.0523  0.0493
  703MOL0     C94782  11.317   6.915   6.211  0.3725 -0.6119 -0.1852
  703MOL0     C94783  11.312   6.779   6.288 -0.6029 -0.4873 -0.3943
  703MOL0     C94784  11.250   6.800   6.433 -0.2571  0.2824  0.5312
  703MOL0     C94785  11.313   6.692   6.522  0.3973  0.2754  0.6358
  703MOL0     C94786  11.446   6.728   6.581  0.1820  0.5268  1.1494
  703MOL0     N94787  11.485   6.620   6.671  0.5400 -0.0470 -0.2533
  703MOL0     C94788  11.459   6.622   6.800  0.1206 -0.2240 -0.4509
  703MOL0     C94789  11.540   6.533   6.860  0.3525 -0.0343 -0.2039
  703MOL0     C94790  11.547   6.490   7.006  0.2643 -0.8279  0.3439
  703MOL0     C94791  11.631   6.377   7.034  0.8336 -0.1618 -0.7177
  703MOL0     C94792  11.780   6.398   7.010 -0.6727 -0.4413  0.3081
  703MOL0     C94793  11.857   6.289   7.088  0.4455 -0.4033 -0.8120
  703MOL0     O94794  11.827   6.162   7.045  0.2344  0.1155 -0.3140
  703MOL0     C94795  11.903   6.118   6.937 -0.0036  0.4178  0.7499
  703MOL0     C94796  12.017   6.045   6.974 -0.6300 -0.3478 -0.3742
  703MOL0     C94797  12.104   5.997   6.876  0.1741  0.1966  0.3723
  703MOL0     C94798  12.072   6.003   6.735 -0.6180 -0.2449 -0.3852
  703MOL0     C94799  12.151   5.941   6.627 -0.7336 -0.6128  0.6986
  703MOL0     O94800  12.151   6.001   6.499  0.0396 -0.1810 -0.2253
  703MOL0     C94801  12.247   5.946   6.414  0.9167  0.4873 -0.1790
  703MOL0     C94802  12.385   5.966   6.441  0.5735 -0.3743 -0.1090
  703MOL0     C94803  12.481   5.936   6.345  0.0052 -0.3553 -0.0090
  703MOL0     C94804  12.442   5.906   6.220  0.1794  0.0845  0.1011
  703MOL0     O94805  12.541   5.885   6.123 -0.2795  1.0358 -0.9852
  703MOL0     C94806  12.505   5.931   5.990  0.0373  0.6169 -0.4483
  703MOL0     C94807  12.631   5.966   5.915 -0.1289 -0.5032  0.5912
  703MOL0     C94808  12.670   6.112   5.946  0.2764 -0.0142  0.3100
  703MOL0     C94809  12.809   6.165   5.914  0.3971  0.7243 -0.5826
  703MOL0     C94810  12.830   6.188   5.762  0.1899  0.6889  0.4588
  703MOL0     C94811  12.738   6.295   5.714 -0.1677  0.1355 -0.4122
  703MOL0     C94812  12.752   6.337   5.570  1.2922  0.4249 -0.4260
  703MOL0     C94813  12.677   6.468   5.535  0.0918  0.1877 -0.0184
  703MOL0    Cl94814  12.675   6.473   5.356  0.2737 -0.2272 -0.0104
  703MOL0     C94815  12.308   5.883   6.191  0.5402  0.8855 -0.1667
  703MOL0     C94816  12.213   5.916   6.283 -0.4907 -0.2447 -0.4561
  703MOL0     O94817  12.220   5.843   6.657 -0.8646 -0.0660  0.1272
  703MOL0     C94818  11.950   6.076   6.707 -0.3950  0.0936  0.0189
  703MOL0     C94819  11.878   6.135   6.807 -0.1480  0.2968  0.2588
  703MOL0     N94820  11.607   6.474   6.756  0.3270 -0.6085  0.2889
  703MOL0     N94821  11.569   6.528   6.647  0.5214  0.8471  0.3693
  703MOL0     C94822  10.757   7.249   6.111  0.0287  1.7441 -0.9392
  703MOL0     C94823  10.645   7.295   6.186  0.1649 -0.1233 -0.3224
  703MOL0     C94824  10.312   7.371   6.429  0.2853  1.1824 -0.2354
  703MOL0     C94825  10.373   7.457   6.526  0.0227 -0.5554 -0.4301
  703MOL0     C94826  10.290   7.539   6.613  0.3604  0.7082 -0.0561
  703MOL0     C94827  10.150   7.535   6.595 -0.3904  0.5896 -0.1049
  703MOL0     O94828  10.088   7.613   6.688 -0.0871  0.4174 -0.3477
  703MOL0     C94829   9.971   7.684   6.639  0.3056  1.5076  0.1446
  703MOL0     C94830   9.913   7.798   6.729  0.0347  0.2279 -0.6436
  703MOL0     C94831  10.023   7.898   6.752  0.4642  0.2777 -0.9542
  703MOL0     C94832   9.989   8.000   6.868  0.6607 -0.4306  0.7362
  703MOL0     C94833  10.107   8.066   6.910 -0.6310  0.4427  0.1039
  703MOL0     C94834  10.212   8.118   6.932 -0.8993 -0.7520  0.4799
  703MOL0     C94835  10.093   7.451   6.501 -0.3146 -0.5438 -0.1116
  703MOL0     C94836  10.174   7.363   6.418  0.6382  0.0573 -0.6684
  703MOL0     C94837  10.092   7.286   6.317 -0.4780 -0.4607 -0.1488
  703MOL0     H94838  10.728   7.119   6.467  0.8749  1.9774  1.1933
  703MOL0     H94839  10.908   7.033   6.330  0.5970  1.4764  0.7378
  703MOL0     H94840  11.104   7.290   6.080 -0.6270  0.7717  0.9342
  703MOL0     H94841  11.074   7.220   6.236  0.4971 -3.0394  0.4631
  703MOL0     H94842  11.287   7.160   6.147 -0.8659 -0.7712  3.0678
  703MOL0     H94843  11.216   7.081   6.000 -3.4707  1.1906 -1.2207
  703MOL0     H94844  11.109   6.921   6.138  0.8178 -2.1099  1.2683
  703MOL0     H94845  11.129   7.004   6.285 -1.0776  1.3899 -0.9426
  703MOL0     H94846  11.367   6.919   6.114 -0.1851  1.7879 -0.4466
  703MOL0     H94847  11.380   6.971   6.280  0.8707 -0.3631 -0.8245
  703MOL0     H94848  11.267   6.701   6.227  0.5123 -0.7628 -0.9014
  703MOL0     H94849  11.417   6.749   6.293  0.7551  3.6392  0.2284
  703MOL0     H94850  11.271   6.897   6.478  1.4785 -0.1322  0.6968
  703MOL0     H94851  11.142   6.784   6.430 -0.0112 -1.8788  1.4674
  703MOL0     H94852  11.336   6.605   6.459  4.1172  1.4232  0.1871
  703MOL0     H94853  11.240   6.660   6.597  0.5719  1.7501  1.4732
  703MOL0     H94854  11.520   6.734   6.501 -1.4325  0.6189 -0.4108
  703MOL0     H94855  11.444   6.822   6.637  0.7254  1.5733 -0.5212
  703MOL0     H94856  11.395   6.696   6.847  1.1952  0.9737 -0.8246
  703MOL0     H94857  11.566   6.578   7.068 -2.7949  1.8628 -2.1494
  703MOL0     H94858  11.445   6.459   7.030 -0.6747 -0.1891 -2.3970
  703MOL0     H94859  11.610   6.343   7.136  1.0803  0.3557 -0.4906
  703MOL0     H94860  11.595   6.282   6.993 -1.0817 -0.3842  1.2845
  703MOL0     H94861  11.819   6.493   7.048  0.9031 -0.8646 -0.1658
  703MOL0     H94862  11.813   6.388   6.906  0.1221 -1.4532  0.6369
  703MOL0     H94863  11.829   6.295   7.194  1.6644 -0.0354 -0.4934
  703MOL0     H94864  11.964   6.312   7.076  0.4302  0.2709  0.1952
  703MOL0     H94865  12.045   6.018   7.076  0.7367 -0.2732 -0.7033
  703MOL0     H94866  12.195   5.944   6.903 -1.4999 -2.2594  1.5666
  703MOL0     H94867  12.416   6.016   6.532  1.6577  0.8571 -1.1245
  703MOL0     H94868  12.587   5.933   6.368  0.4484  1.7692 -1.5380
  703MOL0     H94869  12.449   5.854   5.937  0.6667 -0.1577 -0.0238
  703MOL0     H94870  12.438   6.018   5.994 -0.8010 -0.0481  0.5806
  703MOL0     H94871  12.708   5.893   5.942  1.3277  0.8659  0.2689
  703MOL0     H94872  12.607   5.958   5.809  0.6302  4.6241 -0.1895
  703MOL0     H94873  12.592   6.181   5.912  2.8438  1.9298 -2.1108
  703MOL0     H94874  12.678   6.101   6.054 -2.8323 -3.1657  0.4156
  703MOL0     H94875  12.877   6.086   5.946  1.1925  1.7413  0.3259
  703MOL0     H94876  12.827   6.251   5.979 -1.5568  1.3082 -0.7282
  703MOL0     H94877  12.816   6.091   5.714  3.1372  0.4574 -0.1267
  703MOL0     H94878  12.929   6.220   5.728  0.9934  0.8338  2.7464
  703MOL0     H94879  12.634   6.261   5.728 -0.8593  1.1702 -2.5882
  703MOL0     H94880  12.758   6.387   5.768  0.6087  0.2746 -0.9253
  703MOL0     H94881  12.717   6.264   5.496 -1.0579 -0.0375  1.0524
  703MOL0     H94882  12.858   6.359   5.553  1.5615  0.1527  0.8017
  703MOL0     H94883  12.571   6.472   5.560 -0.5752  2.0633 -2.7226
  703MOL0     H94884  12.735   6.553   5.572 -0.1285  0.6795 -0.7937
  703MOL0     H94885  12.278   5.858   6.090  3.2382  0.4693 -0.9605
  703MOL0     H94886  12.108   5.926   6.259 -0.1016  1.5543 -1.5990
  703MOL0     H94887  11.930   6.098   6.603  0.1171  0.6242  0.0281
  703MOL0     H94888  11.795   6.197   6.773 -2.0165 -1.6981  0.8990
  703MOL0     H94889  10.779   7.283   6.010  0.9279 -1.0550 -1.7633
  703MOL0     H94890  10.571   7.353   6.132  0.0970 -1.4263 -1.6997
  703MOL0     H94891  10.481   7.465   6.537 -0.2193  1.1937  1.3168
  703MOL0     H94892  10.334   7.603   6.689  0.0619 -0.8046  1.4431
  703MOL0     H94893   9.892   7.609   6.637  1.8650 -0.1973 -0.7123
  703MOL0     H94894   9.993   7.727   6.540 -0.8883  1.0370 -0.3447
  703MOL0     H94895   9.889   7.767   6.831  0.7551  2.2001  0.1720
  703MOL0     H94896   9.831   7.849   6.677  1.3190  0.4527 -2.5448
  703MOL0     H94897  10.044   7.951   6.659 -1.1045  1.2901 -0.7866
  703MOL0     H94898  10.111   7.841   6.782 -0.7041  0.3997  3.3750
  703MOL0     H94899   9.918   8.074   6.831  1.8230 -0.3259 -1.4744
  703MOL0     H94900   9.954   7.947   6.957 -0.2663  1.6294  1.6803
  703MOL0     H94901  10.305   8.161   6.966 -2.3909  2.5377  0.8315
  703MOL0     H94902   9.986   7.449   6.481 -0.1286 -3.3321 -1.3051
  703MOL0     H94903  10.100   7.179   6.336 -0.9961 -0.2986  1.0789
  703MOL0     H94904   9.987   7.316   6.325  0.2524  1.6670  2.7406
  703MOL0     H94905  10.118   7.324   6.217 -2.0775 -0.7437 -0.7038
  704MOL0     O94906   5.192   1.669   9.861 -0.6849  1.0643  1.3320
  704MOL0     C94907   5.163   1.611   9.757 -0.5396 -0.0648 -0.4563
  704MOL0     O94908   5.252   1.575   9.659 -0.4717  0.4755 -0.1908
  704MOL0     C94909   5.383   1.559   9.689 -0.2485 -0.2949 -0.3456
  704MOL0     C94910   5.455   1.455   9.627  0.3645  0.1466 -0.7966
  704MOL0     C94911   5.589   1.436   9.644 -0.1011 -1.3006 -0.2594
  704MOL0     C94912   5.667   1.526   9.717  0.4325  0.0697 -0.4976
  704MOL0     O94913   5.803   1.519   9.724 -0.1240 -0.0778 -0.7203
  704MOL0     C94914   5.867   1.395   9.707  0.0039 -0.5419  0.1395
  704MOL0     C94915   6.010   1.396   9.763 -0.2505 -0.2276 -0.1056
  704MOL0     C94916   6.101   1.450   9.648  0.7402 -0.6142  0.2034
  704MOL0     C94917   6.222   1.522   9.714 -0.5670  0.0319  1.0455
  704MOL0     C94918   6.342   1.534   9.618  0.3446 -0.4536  1.0813
  704MOL0     C94919   6.464   1.594   9.678 -0.3884  0.4824 -0.2623
  704MOL0     C94920   6.533   1.496   9.779 -0.1015  0.6920  0.0219
  704MOL0     C94921   6.649   1.562   9.863 -0.1576 -0.2042  0.0433
  704MOL0     N94922   6.770   1.585   9.780  0.5069 -0.3677 -0.4216
  704MOL0     C94923   6.807   1.696   9.709  0.1667 -1.0014 -0.1698
  704MOL0     C94924   6.908   1.656   9.625 -0.4277 -0.0027  0.7813
  704MOL0     C94925   6.958   1.731   9.504 -0.0238  0.3869  0.3888
  704MOL0     C94926   7.061   1.836   9.526  0.6583 -0.3102  0.3643
  704MOL0     C94927   7.198   1.784   9.568  1.0419 -1.0243  0.4546
  704MOL0     C94928   7.285   1.907   9.612  0.8257 -0.4212  0.5886
  704MOL0     O94929   7.405   1.858   9.673 -0.0234  0.3334 -0.8533
  704MOL0     C94930   7.517   1.933   9.670 -0.7432 -0.7837  0.3891
  704MOL0     C94931   7.637   1.858   9.686  0.1503 -0.7833  0.3582
  704MOL0     C94932   7.762   1.922   9.681  0.3184  0.7390  0.4691
  704MOL0     C94933   7.771   2.062   9.651  0.1203  0.6457  0.5427
  704MOL0     C94934   7.895   2.139   9.629 -0.4181 -0.1463 -0.0219
  704MOL0     O94935   8.005   2.070   9.667 -0.3415  0.1191 -0.6731
  704MOL0     C94936   8.129   2.135   9.666  0.1951  0.2458  0.6353
  704MOL0     C94937   8.209   2.109   9.773 -0.6199  0.3519  0.1931
  704MOL0     C94938   8.344   2.165   9.776 -0.2840 -0.3145  0.0365
  704MOL0     C94939   8.393   2.235   9.667  0.2723  0.0375 -0.2585
  704MOL0     O94940   8.519   2.291   9.663  0.2965  0.3138 -0.2849
  704MOL0     C94941   8.636   2.204   9.652 -0.0722 -0.6834 -0.4610
  704MOL0     C94942   8.712   2.199   9.789 -0.9483 -0.3573  1.3120
  704MOL0     C94943   8.855   2.147   9.781 -0.0670 -0.2205  0.7474
  704MOL0     C94944   8.948   2.264   9.755 -0.2027  0.4866 -0.0232
  704MOL0     C94945   9.094   2.228   9.744  0.4643  0.0821  0.2555
  704MOL0     C94946   9.170   2.355   9.747 -0.2746 -0.3485  0.3573
  704MOL0     C94947   9.324   2.341   9.729  0.3164 -0.2598  0.1720
  704MOL0     C94948   9.400   2.306   9.861  0.4783 -0.5511  0.3456
  704MOL0    Cl94949   9.585   2.300   9.845  0.2277  0.1149 -0.1364
  704MOL0     C94950   8.309   2.257   9.556 -0.0412  0.6548  0.4215
  704MOL0     C94951   8.183   2.213   9.554  0.1711  0.4730 -0.6600
  704MOL0     O94952   7.890   2.252   9.583  0.0588  0.1498  0.2757
  704MOL0     C94953   7.654   2.136   9.643 -0.0005 -0.5040  0.1398
  704MOL0     C94954   7.530   2.073   9.660 -0.6742  1.0821  0.1541
  704MOL0     N94955   6.942   1.523   9.664  0.3056  0.6555  0.6290
  704MOL0     N94956   6.853   1.482   9.752 -0.4879 -0.5292 -0.7511
  704MOL0     C94957   5.595   1.636   9.778 -0.3113  0.1475  0.3135
  704MOL0     C94958   5.457   1.654   9.761 -0.0256 -0.0211  0.2464
  704MOL0     C94959   5.014   1.602   9.722  0.7023 -0.3507  0.2675
  704MOL0     C94960   4.974   1.565   9.592  0.5219 -0.7718 -0.7175
  704MOL0     C94961   4.840   1.558   9.557  0.1510  0.0341  0.0139
  704MOL0     C94962   4.739   1.588   9.648 -0.1805 -0.7020 -0.4171
  704MOL0     O94963   4.606   1.580   9.609 -0.8196  0.2320  0.8622
  704MOL0     C94964   4.556   1.446   9.612 -0.7707 -0.1000  0.0331
  704MOL0     C94965   4.464   1.431   9.486 -0.6240 -0.1396 -0.2655
  704MOL0     C94966   4.339   1.517   9.487  0.1189 -0.8332 -0.2779
  704MOL0     C94967   4.241   1.462   9.382  0.4203 -0.1658  0.2837
  704MOL0     C94968   4.121   1.551   9.362 -0.6330  0.5521  1.2647
  704MOL0     C94969   4.021   1.620   9.341 -0.3845  0.3725  0.3720
  704MOL0     C94970   4.776   1.626   9.779 -0.6257  0.3075  0.0898
  704MOL0     C94971   4.909   1.637   9.813 -0.0936  0.1230 -0.1957
  704MOL0     C94972   4.929   1.682   9.958 -0.8074 -0.2987  0.0667
  704MOL0     H94973   5.397   1.377   9.579  0.1423 -0.2819  0.1475
  704MOL0     H94974   5.630   1.344   9.603  0.3995 -1.3910  0.4217
  704MOL0     H94975   5.810   1.321   9.763  0.4369 -1.8908 -1.1298
  704MOL0     H94976   5.878   1.370   9.601  1.4175  0.5559 -0.0112
  704MOL0     H94977   6.034   1.292   9.787 -3.6368 -1.1927 -0.3982
  704MOL0     H94978   6.021   1.461   9.851 -1.1782  0.9694 -0.8435
  704MOL0     H94979   6.041   1.515   9.583  3.3244  0.6767 -1.0457
  704MOL0     H94980   6.134   1.365   9.587 -0.8781 -0.8879 -0.3396
  704MOL0     H94981   6.189   1.620   9.749 -1.5598  0.0522  0.0946
  704MOL0     H94982   6.257   1.468   9.802 -2.8933  1.5862  3.0446
  704MOL0     H94983   6.385   1.441   9.579  3.8123  1.7704 -0.9297
  704MOL0     H94984   6.305   1.592   9.534 -1.7722 -2.4672  0.4988
  704MOL0     H94985   6.539   1.624   9.605  0.2296  1.3337  0.7101
  704MOL0     H94986   6.441   1.687   9.731 -1.3015  0.3956 -0.4818
  704MOL0     H94987   6.572   1.408   9.727 -1.9972  1.1522 -2.3452
  704MOL0     H94988   6.466   1.458   9.857 -0.7713 -1.3042 -1.4511
  704MOL0     H94989   6.619   1.658   9.904  0.9469  0.6013 -0.9809
  704MOL0     H94990   6.675   1.494   9.945 -0.2058  1.1140  1.1945
  704MOL0     H94991   6.753   1.790   9.701  0.0603 -0.9142  1.2886
  704MOL0     H94992   7.002   1.659   9.434  0.4069  0.9515  0.0675
  704MOL0     H94993   6.872   1.774   9.452 -0.3232 -1.4092 -0.7043
  704MOL0     H94994   7.077   1.880   9.427  0.8895 -0.2515  0.4275
  704MOL0     H94995   7.018   1.914   9.590  0.5512  1.6006 -1.9177
  704MOL0     H94996   7.244   1.725   9.488  0.7842  1.6714 -1.8322
  704MOL0     H94997   7.189   1.718   9.655 -1.7554  0.3282  1.3128
  704MOL0     H94998   7.226   1.967   9.682  3.4131  2.4087  0.5526
  704MOL0     H94999   7.299   1.976   9.529 -0.4876  0.2070  0.8589
  704MOL0     H95000   7.621   1.751   9.694 -2.6015 -0.6197 -1.5193
  704MOL0     H95001   7.856   1.869   9.691 -1.1985 -2.0233  1.4080
  704MOL0     H95002   8.175   2.042   9.851 -0.9923 -0.0696 -0.3215
  704MOL0     H95003   8.409   2.151   9.861 -2.1135 -1.1772  1.3720
  704MOL0     H95004   8.609   2.101   9.626  1.5589 -1.1054 -0.5802
  704MOL0     H95005   8.695   2.241   9.567  1.0519 -3.1665 -0.8290
  704MOL0     H95006   8.717   2.302   9.823  0.7022  0.0250  0.0170
  704MOL0     H95007   8.658   2.144   9.867 -0.7118 -2.2533  0.2078
  704MOL0     H95008   8.883   2.110   9.880 -1.5392 -0.6318  1.0251
  704MOL0     H95009   8.876   2.071   9.705 -0.6740 -0.7882  1.1394
  704MOL0     H95010   8.944   2.329   9.843  3.3036  0.2846  0.4638
  704MOL0     H95011   8.919   2.319   9.665  2.0003 -1.8785 -2.3868
  704MOL0     H95012   9.127   2.173   9.655 -2.9005 -0.9835 -0.4896
  704MOL0     H95013   9.114   2.171   9.835 -0.3001  0.4025  0.6271
  704MOL0     H95014   9.128   2.417   9.668  1.0139 -1.7860 -1.5350
  704MOL0     H95015   9.155   2.398   9.847  4.0323  0.5380  0.8108
  704MOL0     H95016   9.355   2.442   9.700 -0.4085 -0.0315  0.1615
  704MOL0     H95017   9.356   2.269   9.654  1.5750  1.6313 -1.2049
  704MOL0     H95018   9.365   2.383   9.930  2.0380  1.6668 -1.2120
  704MOL0     H95019   9.369   2.211   9.905 -0.8511 -0.7637 -0.9848
  704MOL0     H95020   8.348   2.305   9.467  0.4351 -0.0222  0.2593
  704MOL0     H95021   8.119   2.219   9.467  0.9548 -1.8430 -1.4743
  704MOL0     H95022   7.652   2.242   9.624 -0.4712 -0.5724 -0.2001
  704MOL0     H95023   7.435   2.124   9.654 -1.4780 -0.5110 -1.5664
  704MOL0     H95024   5.651   1.717   9.823 -0.7881 -0.1766  1.5331
  704MOL0     H95025   5.414   1.745   9.801 -0.8662  0.2186 -1.1145
  704MOL0     H95026   5.057   1.532   9.531  1.0038 -1.6855  0.4007
  704MOL0     H95027   4.814   1.521   9.458  1.1668  0.1621 -0.3127
  704MOL0     H95028   4.516   1.422   9.711 -0.2060  0.6461  0.4533
  704MOL0     H95029   4.644   1.384   9.599 -0.3086  0.9329 -2.4493
  704MOL0     H95030   4.444   1.324   9.480  0.1359 -0.2020 -2.4060
  704MOL0     H95031   4.521   1.458   9.397 -0.4709  0.7487  0.0871
  704MOL0     H95032   4.368   1.619   9.460 -0.7406  0.0666  1.9261
  704MOL0     H95033   4.287   1.515   9.584 -2.1157 -1.2447 -1.4184
  704MOL0     H95034   4.296   1.441   9.290  0.6000 -2.3487  0.8384
  704MOL0     H95035   4.199   1.371   9.424  2.3889 -1.0038  0.5139
  704MOL0     H95036   3.928   1.672   9.328 -1.9857 -2.3719  0.2297
  704MOL0     H95037   4.701   1.644   9.856 -0.4749  1.1221  0.0489
  704MOL0     H95038   4.999   1.611  10.002 -0.0943  0.4131  0.1039
  704MOL0     H95039   4.984   1.776   9.970  0.7895 -1.1515 -0.3109
  704MOL0     H95040   4.843   1.681  10.026 -0.2607 -1.1756  0.7749
  705MOL0     O95041   4.399   5.550   7.209  0.3752  0.1159 -0.0662
  705MOL0     C95042   4.343   5.566   7.318  0.7642  0.7153  0.2668
  705MOL0     O95043   4.405   5.594   7.433  1.1094  0.4188 -0.6088
  705MOL0     C95044   4.541   5.580   7.435 -0.2239 -0.8175  0.2925
  705MOL0     C95045   4.625   5.666   7.364  0.9572  0.6219 -0.1833
  705MOL0     C95046   4.762   5.670   7.383  0.0062  0.1483  0.5626
  705MOL0     C95047   4.825   5.587   7.476 -0.3062  0.9506 -0.0963
  705MOL0     O95048   4.966   5.593   7.504 -0.0420  0.5991 -0.4585
  705MOL0     C95049   5.043   5.704   7.455  0.2499 -0.0056 -0.9329
  705MOL0     C95050   5.181   5.726   7.518 -0.0012  0.4767  1.0636
  705MOL0     C95051   5.234   5.860   7.465  0.3822 -1.0165  0.1515
  705MOL0     C95052   5.385   5.885   7.493 -0.3207  0.2848  0.4490
  705MOL0     C95053   5.453   5.996   7.416  0.9748 -0.0912  0.7924
  705MOL0     C95054   5.583   6.029   7.474 -1.7044 -0.1023 -0.6299
  705MOL0     C95055   5.674   6.114   7.377 -0.7883  0.1814  1.2824
  705MOL0     C95056   5.771   6.207   7.448  0.0438 -0.8142 -0.0908
  705MOL0     N95057   5.899   6.148   7.480 -0.1598 -0.1549  1.2220
  705MOL0     C95058   6.016   6.223   7.489  0.6619 -0.4553 -0.3671
  705MOL0     C95059   6.118   6.132   7.503  0.0229  0.3260 -0.2173
  705MOL0     C95060   6.263   6.178   7.518 -0.9058  0.5481  0.2366
  705MOL0     C95061   6.362   6.061   7.523 -0.7402 -0.5928  0.9902
  705MOL0     C95062   6.355   5.980   7.647  0.2581  0.3914  0.1411
  705MOL0     C95063   6.440   5.855   7.657 -0.7524  0.1431 -0.1962
  705MOL0     O95064   6.570   5.909   7.695 -0.6606  0.1330  0.0835
  705MOL0     C95065   6.670   5.817   7.719 -0.5886 -0.1359 -0.3703
  705MOL0     C95066   6.720   5.731   7.620  0.0779 -0.6525  0.1149
  705MOL0     C95067   6.822   5.638   7.644 -1.1073  0.0081  0.8198
  705MOL0     C95068   6.878   5.632   7.774 -0.7044  0.5602  0.5296
  705MOL0     C95069   6.987   5.539   7.797  0.3866 -0.3710 -0.5156
  705MOL0     O95070   7.063   5.574   7.904 -0.3397 -0.3460 -0.1193
  705MOL0     C95071   7.173   5.504   7.935  0.2469  0.4327 -0.1290
  705MOL0     C95072   7.158   5.370   7.988  0.1096 -0.5373  1.0233
  705MOL0     C95073   7.272   5.305   8.031  0.2908 -0.5461  0.0632
  705MOL0     C95074   7.406   5.356   8.010 -0.3061 -0.3761  0.1285
  705MOL0     O95075   7.517   5.284   8.047 -0.1969  0.5406 -0.0112
  705MOL0     C95076   7.633   5.355   8.095 -0.3834  0.3054  1.0203
  705MOL0     C95077   7.675   5.314   8.230  1.2858 -0.1084 -0.1092
  705MOL0     C95078   7.820   5.273   8.237 -0.5243 -0.3671  0.4439
  705MOL0     C95079   7.888   5.295   8.371  0.3253  0.8363  0.0690
  705MOL0     C95080   8.019   5.207   8.377  0.2937 -0.1748 -0.9109
  705MOL0     C95081   8.101   5.256   8.493  0.3256  1.0624  0.5047
  705MOL0     C95082   8.217   5.163   8.519  0.1259  0.1848 -0.4184
  705MOL0     C95083   8.322   5.223   8.613 -0.2136 -0.2828  0.8073
  705MOL0    Cl95084   8.248   5.262   8.772 -0.0518 -0.0857  0.0621
  705MOL0     C95085   7.411   5.483   7.953 -0.3159  0.0884  0.3320
  705MOL0     C95086   7.298   5.557   7.914 -0.0990  0.1260 -0.4625
  705MOL0     O95087   7.002   5.442   7.719  0.2570  0.3963  0.8642
  705MOL0     C95088   6.825   5.720   7.869 -0.0977 -0.4081  0.1799
  705MOL0     C95089   6.729   5.813   7.841  0.6002 -1.0207  0.0501
  705MOL0     N95090   6.061   6.007   7.493  0.0958  0.3003  1.1936
  705MOL0     N95091   5.930   6.020   7.475 -0.9176  0.2368 -0.6433
  705MOL0     C95092   4.743   5.493   7.545 -0.3082  0.5849  0.8403
  705MOL0     C95093   4.602   5.495   7.530 -0.3432  0.3878  0.1489
  705MOL0     C95094   4.196   5.541   7.333  0.2428  0.7642 -0.6105
  705MOL0     C95095   4.155   5.449   7.437  0.2170 -0.8153  1.0452
  705MOL0     C95096   4.019   5.446   7.469  0.3327  0.1598  0.9077
  705MOL0     C95097   3.925   5.514   7.394  0.4777 -0.1675 -0.1762
  705MOL0     O95098   3.799   5.524   7.448 -0.8631 -0.3418  0.2664
  705MOL0     C95099   3.687   5.531   7.359  0.8452  0.1133 -0.5336
  705MOL0     C95100   3.553   5.505   7.437 -0.3292  0.2807 -0.3875
  705MOL0     C95101   3.561   5.392   7.526  0.2768  0.9240 -0.2063
  705MOL0     C95102   3.422   5.357   7.584  0.6011  0.2800 -0.2650
  705MOL0     C95103   3.428   5.231   7.661 -0.3171 -0.1497 -0.5259
  705MOL0     C95104   3.448   5.130   7.734  0.5184  0.6805 -0.8048
  705MOL0     C95105   3.967   5.577   7.276  0.0496  0.1955 -0.5738
  705MOL0     C95106   4.098   5.600   7.252 -0.6721 -0.3582  0.3082
  705MOL0     C95107   4.135   5.679   7.134  0.6051 -0.7534  0.2925
  705MOL0     H95108   4.575   5.733   7.293 -0.2723 -1.4341 -1.3640
  705MOL0     H95109   4.813   5.742   7.319 -0.3203 -0.8210 -0.8292
  705MOL0     H95110   5.058   5.685   7.349 -1.1873  1.0227 -1.3559
  705MOL0     H95111   4.984   5.796   7.464 -0.4060 -0.0412 -3.8678
  705MOL0     H95112   5.245   5.654   7.465 -0.1167  0.7221  0.5876
  705MOL0     H95113   5.177   5.718   7.627 -2.9114  0.5882  1.0400
  705MOL0     H95114   5.185   5.946   7.512  0.7076 -0.8561  0.1949
  705MOL0     H95115   5.216   5.875   7.358  2.2214  1.2879  0.0929
  705MOL0     H95116   5.396   5.896   7.602  0.9175 -0.4973  0.4279
  705MOL0     H95117   5.443   5.794   7.473 -0.0261  1.1331 -3.1458
  705MOL0     H95118   5.459   5.962   7.312  1.8041 -0.8767  1.0900
  705MOL0     H95119   5.388   6.083   7.430  0.4455 -0.4578  0.6574
  705MOL0     H95120   5.575   6.083   7.569 -1.0105 -0.6472 -0.2521
  705MOL0     H95121   5.643   5.941   7.498  0.6189  1.1826 -1.4051
  705MOL0     H95122   5.611   6.174   7.310 -1.3316 -2.1207 -0.3974
  705MOL0     H95123   5.731   6.047   7.312 -0.5106  1.6466 -0.0717
  705MOL0     H95124   5.774   6.299   7.389 -2.1754  0.6316  1.8667
  705MOL0     H95125   5.728   6.252   7.537  1.4432  1.4001 -0.4622
  705MOL0     H95126   6.025   6.329   7.469 -0.2420 -0.3919 -0.4516
  705MOL0     H95127   6.278   6.241   7.430  0.7453 -1.5416 -1.0716
  705MOL0     H95128   6.284   6.251   7.597 -0.6487 -1.9773  2.6692
  705MOL0     H95129   6.340   6.008   7.429  0.5268  1.7350 -0.7099
  705MOL0     H95130   6.470   6.078   7.513 -0.4379 -2.9934 -1.0820
  705MOL0     H95131   6.252   5.943   7.651 -0.0050  1.0594 -0.3010
  705MOL0     H95132   6.372   6.048   7.731 -0.8629  1.3807 -0.4134
  705MOL0     H95133   6.440   5.792   7.567 -2.1692 -0.7460  0.3754
  705MOL0     H95134   6.403   5.796   7.742  1.6688  1.4323  1.8885
  705MOL0     H95135   6.668   5.728   7.525  2.0457  1.9167 -1.1874
  705MOL0     H95136   6.855   5.568   7.569  1.2616  0.9746  0.8941
  705MOL0     H95137   7.056   5.338   8.006  0.7073 -2.5133  1.1898
  705MOL0     H95138   7.262   5.208   8.078 -4.4853  0.7787  2.4268
  705MOL0     H95139   7.710   5.331   8.021 -2.1653  0.8464 -1.1269
  705MOL0     H95140   7.618   5.464   8.096 -0.2051  0.3816 -0.8285
  705MOL0     H95141   7.633   5.379   8.308 -1.5139 -1.2531 -0.5691
  705MOL0     H95142   7.613   5.227   8.255 -0.0608  1.0253  0.6751
  705MOL0     H95143   7.822   5.165   8.222  1.2389 -0.6472  2.3001
  705MOL0     H95144   7.875   5.321   8.155 -0.7113  0.6857  0.9182
  705MOL0     H95145   7.817   5.259   8.445  0.7349 -2.0362 -0.7885
  705MOL0     H95146   7.893   5.404   8.375 -4.1675  1.2795 -0.9969
  705MOL0     H95147   8.070   5.209   8.280  0.8836 -0.2435 -0.6048
  705MOL0     H95148   8.003   5.100   8.397 -0.9305  0.0800 -0.4306
  705MOL0     H95149   8.137   5.355   8.463  0.9863  0.1484 -2.0180
  705MOL0     H95150   8.042   5.276   8.583 -0.7188 -1.2599  0.4121
  705MOL0     H95151   8.274   5.154   8.426 -1.4473 -1.8710 -1.2660
  705MOL0     H95152   8.191   5.062   8.551 -1.5560  0.9847  0.8964
  705MOL0     H95153   8.402   5.149   8.623  1.5103  0.9123 -2.6294
  705MOL0     H95154   8.358   5.317   8.571  0.7934 -0.2964  1.5872
  705MOL0     H95155   7.508   5.527   7.931  0.0126 -0.9067 -0.2751
  705MOL0     H95156   7.309   5.662   7.887  2.6780  0.3033  0.9969
  705MOL0     H95157   6.874   5.724   7.965  0.8296 -1.0167 -0.2586
  705MOL0     H95158   6.692   5.876   7.922 -0.8087 -1.9872  0.1966
  705MOL0     H95159   4.789   5.423   7.614 -3.6101 -0.3062  2.3010
  705MOL0     H95160   4.540   5.431   7.593 -0.4160 -1.7622 -1.9664
  705MOL0     H95161   4.230   5.395   7.494  0.4417 -0.4551  1.0921
  705MOL0     H95162   3.980   5.376   7.543 -1.4288 -1.4899 -1.4146
  705MOL0     H95163   3.698   5.464   7.273  3.0942  1.4016 -1.3500
  705MOL0     H95164   3.682   5.633   7.320  0.3835  0.2580 -0.0954
  705MOL0     H95165   3.480   5.484   7.358 -0.1621 -1.8968 -0.0089
  705MOL0     H95166   3.519   5.590   7.496 -2.4073  0.8139 -2.1853
  705MOL0     H95167   3.635   5.408   7.605  0.3434 -0.8235  0.1185
  705MOL0     H95168   3.594   5.303   7.472  1.4028 -0.5972  2.7871
  705MOL0     H95169   3.392   5.437   7.652 -1.8770 -1.9852  1.5097
  705MOL0     H95170   3.362   5.341   7.494  1.2260 -2.8426 -0.2432
  705MOL0     H95171   3.466   5.044   7.794  1.4943  0.7400 -0.9913
  705MOL0     H95172   3.894   5.624   7.210  0.6169 -0.3733 -1.6292
  705MOL0     H95173   4.042   5.731   7.109 -0.5607 -2.6421  0.5072
  705MOL0     H95174   4.207   5.752   7.172  1.2360 -0.9249 -0.5344
  705MOL0     H95175   4.175   5.612   7.057  1.7331 -2.8472  2.5392
  706MOL0     O95176   3.281   1.950   6.211  0.8260  0.4385 -0.4562
  706MOL0     C95177   3.305   1.833   6.243 -1.2539  0.4865  0.2875
  706MOL0     O95178   3.430   1.777   6.255 -0.5627  0.4476  0.3208
  706MOL0     C95179   3.549   1.835   6.219 -0.0791  0.7080  0.1093
  706MOL0     C95180   3.582   1.968   6.217  0.5240  0.5738  0.0680
  706MOL0     C95181   3.702   2.010   6.175 -0.9691 -0.1942  0.5794
  706MOL0     C95182   3.804   1.928   6.126  0.0854  0.6484 -0.5615
  706MOL0     O95183   3.926   1.960   6.087 -0.9164 -0.3009 -0.1975
  706MOL0     C95184   3.966   2.090   6.114 -0.1921  0.0969 -0.9395
  706MOL0     C95185   4.120   2.096   6.111 -1.1005  0.1425  0.2015
  706MOL0     C95186   4.181   2.067   5.970 -0.1885  0.0552 -0.4849
  706MOL0     C95187   4.313   2.129   5.939 -0.9803 -0.2228 -0.9481
  706MOL0     C95188   4.361   2.106   5.789  0.3712  0.9555 -0.5697
  706MOL0     C95189   4.468   2.206   5.750 -0.2268 -0.2816 -0.0129
  706MOL0     C95190   4.517   2.193   5.602  0.1453 -0.5542 -0.7812
  706MOL0     C95191   4.661   2.244   5.577 -0.2796 -1.0130 -0.6810
  706MOL0     N95192   4.717   2.169   5.458 -0.0833 -0.2756 -0.1352
  706MOL0     C95193   4.703   2.214   5.317 -0.1218 -0.1685 -0.2982
  706MOL0     C95194   4.817   2.159   5.262  0.0643  0.1247  0.4225
  706MOL0     C95195   4.859   2.169   5.118 -0.5090 -0.1045 -1.0957
  706MOL0     C95196   4.793   2.054   5.037 -0.0069 -0.3351  0.8239
  706MOL0     C95197   4.839   2.040   4.890  0.9008 -0.7234  0.0384
  706MOL0     C95198   4.979   1.981   4.864  0.7626 -0.4150 -0.2664
  706MOL0     O95199   5.079   2.085   4.882 -0.0543  0.3897  0.4552
  706MOL0     C95200   5.210   2.053   4.840 -0.1912 -1.1597 -0.2432
  706MOL0     C95201   5.247   1.922   4.794  0.3005  0.2257 -0.8449
  706MOL0     C95202   5.382   1.894   4.754  0.3535  0.4327  0.1538
  706MOL0     C95203   5.478   1.994   4.764  0.5621  0.6564 -0.4910
  706MOL0     C95204   5.615   1.962   4.732  0.3629  0.6909 -0.3654
  706MOL0     O95205   5.702   2.068   4.720  0.0775  0.0358 -0.8155
  706MOL0     C95206   5.836   2.056   4.699 -0.6084  0.1271  0.1262
  706MOL0     C95207   5.913   2.162   4.734 -0.8443 -0.9576  0.2301
  706MOL0     C95208   6.055   2.158   4.717 -0.1253  0.2190  0.7850
  706MOL0     C95209   6.112   2.041   4.658  0.2609 -0.3054  0.3420
  706MOL0     O95210   6.249   2.050   4.650 -0.4165 -0.3186 -0.3365
  706MOL0     C95211   6.319   1.960   4.569  0.5522 -0.1346  0.0935
  706MOL0     C95212   6.473   1.977   4.599 -0.0333  0.8520 -0.3081
  706MOL0     C95213   6.533   2.088   4.512 -0.2427  0.9201  0.3750
  706MOL0     C95214   6.690   2.090   4.525  0.2830  0.1098  0.2336
  706MOL0     C95215   6.737   2.124   4.662  0.3181 -0.9123 -0.4635
  706MOL0     C95216   6.892   2.115   4.657 -0.0238  0.1852 -0.1694
  706MOL0     C95217   6.939   1.962   4.677  0.4577  0.8437 -0.1909
  706MOL0     C95218   7.080   1.950   4.625  0.4106 -0.0484  0.7253
  706MOL0    Cl95219   7.097   1.995   4.450  0.0912 -0.1096 -0.0279
  706MOL0     C95220   6.030   1.930   4.624 -0.5623  0.5931 -0.6405
  706MOL0     C95221   5.893   1.941   4.643  0.3981 -0.3274 -0.1163
  706MOL0     O95222   5.636   1.841   4.716  0.6691  0.3123  0.5506
  706MOL0     C95223   5.433   2.131   4.785  0.6765  1.0991 -0.0482
  706MOL0     C95224   5.300   2.155   4.818 -1.0451 -0.1375 -0.1040
  706MOL0     N95225   4.877   2.078   5.358 -0.5361  0.0219  1.0254
  706MOL0     N95226   4.817   2.079   5.470 -0.0618  0.2107  0.5471
  706MOL0     C95227   3.763   1.796   6.119  0.4975  0.0739  0.7548
  706MOL0     C95228   3.642   1.748   6.162  0.0870  0.5222 -0.2047
  706MOL0     C95229   3.186   1.739   6.281  0.3927 -0.0799  0.1287
  706MOL0     C95230   3.214   1.632   6.371  0.4235 -0.4692  0.6831
  706MOL0     C95231   3.120   1.540   6.402 -0.1926  0.1050  0.0176
  706MOL0     C95232   2.988   1.553   6.357  0.4546  0.4897 -0.1312
  706MOL0     O95233   2.885   1.465   6.380  0.0418  0.3296  0.2632
  706MOL0     C95234   2.892   1.379   6.499  0.0264  0.0782  0.3753
  706MOL0     C95235   2.742   1.350   6.538  0.0008 -0.7167  0.4435
  706MOL0     C95236   2.731   1.250   6.647 -0.1895  0.5783 -0.1790
  706MOL0     C95237   2.582   1.205   6.669  0.4771  0.2639 -0.3055
  706MOL0     C95238   2.588   1.110   6.780  0.2782  0.2578  0.0459
  706MOL0     C95239   2.595   1.026   6.868  0.3551  0.2783 -0.8437
  706MOL0     C95240   2.962   1.655   6.265 -0.3063  0.0549 -0.5142
  706MOL0     C95241   3.056   1.750   6.234 -0.3762  0.2234 -0.2464
  706MOL0     C95242   3.022   1.854   6.122  0.5274 -0.0629  0.0125
  706MOL0     H95243   3.507   2.042   6.242 -1.2271 -1.1638  0.1421
  706MOL0     H95244   3.718   2.116   6.192 -1.1582 -0.3458  1.8185
  706MOL0     H95245   3.912   2.158   6.048 -4.3284 -1.7531  0.1820
  706MOL0     H95246   3.937   2.118   6.216 -1.9825 -2.8145 -0.5322
  706MOL0     H95247   4.158   2.019   6.179  0.3861 -0.0662 -0.8114
  706MOL0     H95248   4.163   2.178   6.169 -0.8847 -0.3799  0.8062
  706MOL0     H95249   4.121   2.106   5.887 -0.9892  0.2817  0.1946
  706MOL0     H95250   4.206   1.961   5.960  0.1156 -0.2103  2.4001
  706MOL0     H95251   4.303   2.237   5.951  1.0846 -0.0992  0.0052
  706MOL0     H95252   4.382   2.088   6.013 -0.3355  2.0146 -0.2585
  706MOL0     H95253   4.415   2.011   5.789 -1.8207 -0.3785  1.0226
  706MOL0     H95254   4.268   2.104   5.732  0.7263  1.2053 -1.1632
  706MOL0     H95255   4.426   2.304   5.773 -2.3548 -1.0981 -0.2257
  706MOL0     H95256   4.558   2.189   5.810 -1.6813 -4.3519  1.3668
  706MOL0     H95257   4.439   2.215   5.528 -2.7660 -4.2164  0.8642
  706MOL0     H95258   4.527   2.085   5.588  1.8684 -0.4120 -0.7778
  706MOL0     H95259   4.672   2.352   5.571  0.2380 -0.8896  1.6450
  706MOL0     H95260   4.723   2.209   5.660  2.2084 -1.6188 -2.6528
  706MOL0     H95261   4.631   2.282   5.272  1.5407  1.3385 -0.7872
  706MOL0     H95262   4.845   2.268   5.074  0.2866  1.0928  1.1799
  706MOL0     H95263   4.967   2.155   5.110 -0.4048 -0.0942  0.0801
  706MOL0     H95264   4.818   1.955   5.077 -0.9574 -1.0656 -0.3611
  706MOL0     H95265   4.684   2.058   5.041 -0.3912 -4.5685 -0.8900
  706MOL0     H95266   4.825   2.139   4.846  1.9438  0.5330  2.3942
  706MOL0     H95267   4.753   1.988   4.846  0.0661 -0.1210  0.9009
  706MOL0     H95268   4.987   1.952   4.759 -0.8446  1.0860 -0.8462
  706MOL0     H95269   5.005   1.896   4.928  3.9125  0.5060 -0.1862
  706MOL0     H95270   5.170   1.846   4.795 -0.0924  0.6185 -0.3197
  706MOL0     H95271   5.405   1.790   4.732 -1.4864  0.0109  0.0262
  706MOL0     H95272   5.850   2.243   4.771 -2.1010 -1.0636 -1.5300
  706MOL0     H95273   6.123   2.234   4.753 -0.2846  1.9698 -2.2386
  706MOL0     H95274   6.294   1.855   4.588  0.7755 -0.1145  0.5097
  706MOL0     H95275   6.293   1.972   4.464  2.5366 -0.4526 -0.4838
  706MOL0     H95276   6.491   2.011   4.701  2.1536 -0.6928 -0.0929
  706MOL0     H95277   6.520   1.879   4.584  0.0450  0.8939 -0.3388
  706MOL0     H95278   6.519   2.064   4.406  3.1379  0.3921 -0.0641
  706MOL0     H95279   6.484   2.184   4.530 -1.0042  0.6769 -0.3601
  706MOL0     H95280   6.718   2.169   4.455 -1.2135 -0.4187 -1.0248
  706MOL0     H95281   6.720   1.990   4.493 -0.3096 -0.3494  1.0830
  706MOL0     H95282   6.691   2.053   4.732 -0.0234  0.1739  0.4478
  706MOL0     H95283   6.708   2.224   4.695 -2.5862 -1.8310  0.0531
  706MOL0     H95284   6.930   2.162   4.566 -2.3099 -0.1514 -1.3582
  706MOL0     H95285   6.941   2.168   4.740  1.7724 -1.8874  0.1970
  706MOL0     H95286   6.870   1.891   4.630  2.7619 -0.9812 -1.0269
  706MOL0     H95287   6.943   1.934   4.783 -0.0336  2.1589  0.1999
  706MOL0     H95288   7.147   2.023   4.671  3.3368 -1.2186 -1.3523
  706MOL0     H95289   7.108   1.844   4.636 -0.9662 -1.1203 -3.7667
  706MOL0     H95290   6.059   1.832   4.588  2.3166  1.5375 -1.1370
  706MOL0     H95291   5.838   1.854   4.608  2.1135 -1.1805 -0.7626
  706MOL0     H95292   5.506   2.211   4.788  1.1389  0.6681  0.4376
  706MOL0     H95293   5.261   2.247   4.858  1.4240  0.3370  1.3888
  706MOL0     H95294   3.828   1.719   6.078  1.4050  0.7645  0.8458
  706MOL0     H95295   3.614   1.646   6.138  0.2944  0.2248  0.7980
  706MOL0     H95296   3.314   1.629   6.413  1.4408 -0.8646 -1.6118
  706MOL0     H95297   3.160   1.454   6.454  0.5216  0.2901 -0.2210
  706MOL0     H95298   2.932   1.424   6.590 -0.7213 -0.9108  1.2252
  706MOL0     H95299   2.952   1.289   6.484 -0.5743 -0.6661  2.1035
  706MOL0     H95300   2.680   1.334   6.449  1.7641 -2.7649 -0.5424
  706MOL0     H95301   2.706   1.442   6.584  0.7387 -0.6430  0.8975
  706MOL0     H95302   2.753   1.292   6.746 -0.5894 -1.0951  0.6629
  706MOL0     H95303   2.800   1.167   6.628  0.7165  1.3224 -0.1811
  706MOL0     H95304   2.520   1.292   6.692 -0.9270 -0.2532 -1.8954
  706MOL0     H95305   2.521   1.165   6.588 -0.8349  1.3814  0.0991
  706MOL0     H95306   2.597   0.951   6.945  1.7770  0.4414 -0.7032
  706MOL0     H95307   2.862   1.666   6.224  0.0263  0.7214 -1.1702
  706MOL0     H95308   3.104   1.858   6.049  0.6584  3.0059  0.2131
  706MOL0     H95309   2.928   1.830   6.071 -1.6273  0.5123  3.3812
  706MOL0     H95310   3.011   1.954   6.166 -0.8383 -1.0736  2.1289
  707MOL0     O95311   6.475   3.205   3.460 -0.7403  0.5131  0.1532
  707MOL0     C95312   6.427   3.209   3.576  0.1972 -0.3906  0.3192
  707MOL0     O95313   6.495   3.254   3.682  0.6309 -0.1133  0.4555
  707MOL0     C95314   6.618   3.298   3.664 -0.0212  1.5012 -0.7117
  707MOL0     C95315   6.647   3.422   3.609 -1.0095 -0.1826 -0.8177
  707MOL0     C95316   6.778   3.469   3.606 -0.0544 -0.1291  0.2442
  707MOL0     C95317   6.886   3.394   3.660 -0.1611 -0.2417 -0.2576
  707MOL0     O95318   7.008   3.463   3.656  0.8400  0.2523 -0.2091
  707MOL0     C95319   7.127   3.398   3.698  0.0538 -0.4437 -0.0939
  707MOL0     C95320   7.231   3.502   3.720  1.1921 -0.4138  0.0341
  707MOL0     C95321   7.359   3.430   3.711 -0.3878 -0.3572  0.0790
  707MOL0     C95322   7.466   3.528   3.761  0.7116 -0.2196  0.3361
  707MOL0     C95323   7.599   3.475   3.700 -0.4738  0.3498  0.6085
  707MOL0     C95324   7.720   3.569   3.720  0.1685  0.5658  0.5418
  707MOL0     C95325   7.854   3.503   3.681  0.0348  0.1369  0.4801
  707MOL0     C95326   7.961   3.603   3.696  0.8210  0.3106 -0.8055
  707MOL0     N95327   8.094   3.556   3.666 -0.0256  0.1140  0.0300
  707MOL0     C95328   8.207   3.631   3.682  0.2415  0.3634  0.1620
  707MOL0     C95329   8.309   3.550   3.643  0.2033 -0.2379  0.4267
  707MOL0     C95330   8.452   3.590   3.630 -0.2128 -0.1593 -0.3870
  707MOL0     C95331   8.515   3.626   3.767  1.0660 -0.8698 -0.5914
  707MOL0     C95332   8.663   3.653   3.759  0.1253 -0.0506  0.5225
  707MOL0     C95333   8.712   3.678   3.903  0.1967 -0.0018  0.9457
  707MOL0     O95334   8.851   3.708   3.905  0.4909 -0.0573 -0.1007
  707MOL0     C95335   8.928   3.733   4.015 -0.6076 -0.0491  0.8290
  707MOL0     C95336   8.879   3.713   4.142 -0.6725  0.0642  0.1381
  707MOL0     C95337   8.969   3.737   4.251  0.4850  0.1473 -0.7255
  707MOL0     C95338   9.095   3.795   4.230 -0.0096  0.1742  0.0548
  707MOL0     C95339   9.171   3.847   4.343 -0.4228 -0.5391 -0.2267
  707MOL0     O95340   9.295   3.885   4.318 -0.6649 -0.1031 -0.7450
  707MOL0     C95341   9.351   3.973   4.409  0.4395 -0.2161  0.0947
  707MOL0     C95342   9.278   4.080   4.455  0.0247  0.2383 -0.5132
  707MOL0     C95343   9.329   4.164   4.545 -0.3313 -0.0186  0.0848
  707MOL0     C95344   9.465   4.149   4.583 -0.0644 -0.6073  0.0712
  707MOL0     O95345   9.539   4.237   4.659  0.1423 -0.3315  0.3705
  707MOL0     C95346   9.469   4.339   4.728 -0.5338 -0.4865  0.4222
  707MOL0     C95347   9.569   4.390   4.825  0.1580  0.0870 -0.8235
  707MOL0     C95348   9.521   4.503   4.919  0.1476  0.4801  0.6175
  707MOL0     C95349   9.631   4.563   5.002  0.2680 -0.4985  0.0866
  707MOL0     C95350   9.590   4.707   5.039 -0.2505  0.9124 -0.4879
  707MOL0     C95351   9.682   4.767   5.150 -0.3197 -0.8115  0.2465
  707MOL0     C95352   9.680   4.920   5.144  0.6452 -0.1645  0.0932
  707MOL0     C95353   9.767   4.981   5.254  0.5775 -0.5921 -0.6385
  707MOL0    Cl95354   9.765   5.159   5.245 -0.2358 -0.0132 -0.0731
  707MOL0     C95355   9.546   4.055   4.522  0.7909 -0.4655 -0.4945
  707MOL0     C95356   9.488   3.966   4.438 -0.4840  0.8577  0.1623
  707MOL0     O95357   9.113   3.855   4.452 -0.3770 -0.4037 -0.4577
  707MOL0     C95358   9.145   3.811   4.104  0.9333  0.0135  0.0237
  707MOL0     C95359   9.061   3.780   3.997  0.0679 -0.2510 -0.2343
  707MOL0     N95360   8.263   3.419   3.645  0.5666 -0.1348 -0.9303
  707MOL0     N95361   8.131   3.423   3.645  0.3726  0.4834 -0.0709
  707MOL0     C95362   6.862   3.265   3.701  0.4599 -0.2170  0.1079
  707MOL0     C95363   6.731   3.216   3.698 -0.3747 -0.6254  0.5393
  707MOL0     C95364   6.290   3.155   3.601  0.3102  0.0264 -0.0059
  707MOL0     C95365   6.181   3.238   3.633 -0.6436 -0.0875  0.8981
  707MOL0     C95366   6.059   3.180   3.660  0.1468  1.4465  0.3961
  707MOL0     C95367   6.037   3.037   3.663  0.2885 -0.8490 -0.6394
  707MOL0     O95368   5.916   2.979   3.674 -0.3036 -0.4806  0.7244
  707MOL0     C95369   5.793   3.058   3.671  0.8747  0.2974 -1.6722
  707MOL0     C95370   5.745   3.069   3.525 -0.1179  0.5710 -0.5851
  707MOL0     C95371   5.716   2.927   3.469  1.4986  0.1295 -0.0785
  707MOL0     C95372   5.645   2.921   3.339  0.7219  0.3155  0.4350
  707MOL0     C95373   5.500   2.965   3.344 -0.2588  0.0953  1.5029
  707MOL0     C95374   5.385   2.997   3.353  0.4675  0.1348 -0.2893
  707MOL0     C95375   6.157   2.961   3.633  0.9863  0.2205  0.0187
  707MOL0     C95376   6.277   3.015   3.607 -0.2762  0.3880  0.9135
  707MOL0     C95377   6.395   2.925   3.609 -0.4102  0.1745 -0.2396
  707MOL0     H95378   6.563   3.484   3.579 -1.4789 -0.1518  0.5087
  707MOL0     H95379   6.782   3.569   3.563 -1.9918 -0.3859 -0.6345
  707MOL0     H95380   7.110   3.342   3.791 -1.5716  0.4890  0.2131
  707MOL0     H95381   7.152   3.335   3.612  0.4659  0.9112 -0.9904
  707MOL0     H95382   7.215   3.551   3.817 -0.2825 -2.7009  1.0208
  707MOL0     H95383   7.239   3.577   3.642  0.6312  0.2834  0.6332
  707MOL0     H95384   7.371   3.393   3.608 -2.9368  0.0658 -0.4341
  707MOL0     H95385   7.365   3.346   3.780 -0.5722 -0.7379 -0.3627
  707MOL0     H95386   7.439   3.628   3.727  0.2762 -0.4724 -0.0748
  707MOL0     H95387   7.465   3.539   3.870 -0.6843  1.3190  0.2100
  707MOL0     H95388   7.623   3.380   3.748 -1.1055  0.3762  0.9958
  707MOL0     H95389   7.579   3.444   3.597  0.1106  1.1123  0.2567
  707MOL0     H95390   7.707   3.663   3.665  1.7710 -0.2812 -1.4395
  707MOL0     H95391   7.724   3.582   3.828  4.1612 -2.6196  1.0246
  707MOL0     H95392   7.850   3.471   3.576 -2.2366 -0.6786  0.7547
  707MOL0     H95393   7.874   3.413   3.739 -0.4758 -2.6653 -3.3277
  707MOL0     H95394   7.956   3.688   3.626 -0.9827 -0.8912 -2.2262
  707MOL0     H95395   7.961   3.630   3.802  1.5000 -0.3053 -0.6429
  707MOL0     H95396   8.208   3.735   3.711 -1.8286  0.9084 -1.4876
  707MOL0     H95397   8.517   3.511   3.590  1.1928  0.8282 -0.1212
  707MOL0     H95398   8.455   3.673   3.560  0.6894 -0.8985 -1.2527
  707MOL0     H95399   8.471   3.719   3.804 -0.0492 -0.9808 -1.6032
  707MOL0     H95400   8.492   3.539   3.830 -0.3449 -1.5748 -2.0148
  707MOL0     H95401   8.690   3.740   3.698  0.5714 -1.1377 -0.8586
  707MOL0     H95402   8.715   3.562   3.730  1.3147  0.8036 -0.1178
  707MOL0     H95403   8.693   3.590   3.964 -2.1306 -0.0561  0.2458
  707MOL0     H95404   8.657   3.765   3.940 -0.6795 -0.4095  0.6429
  707MOL0     H95405   8.776   3.683   4.161 -0.7839  0.8014  0.7684
  707MOL0     H95406   8.931   3.730   4.353  2.6476 -1.1673  0.0795
  707MOL0     H95407   9.179   4.099   4.414  0.0899  2.5938  0.2778
  707MOL0     H95408   9.258   4.241   4.575 -1.0446 -0.3107 -0.8115
  707MOL0     H95409   9.455   4.422   4.658  0.0583 -0.3729  0.4324
  707MOL0     H95410   9.378   4.299   4.774  0.8948 -0.8699  3.1148
  707MOL0     H95411   9.600   4.313   4.897 -0.7665  1.4122  1.0907
  707MOL0     H95412   9.660   4.417   4.771  1.2391 -0.7168  0.5258
  707MOL0     H95413   9.481   4.590   4.866  0.7177  0.4396  0.1093
  707MOL0     H95414   9.447   4.469   4.993  2.1736 -1.3215  1.9303
  707MOL0     H95415   9.724   4.571   4.943  0.1932  0.2418  0.0677
  707MOL0     H95416   9.659   4.505   5.090  3.0018 -1.1245 -1.0706
  707MOL0     H95417   9.492   4.698   5.087 -1.2261  1.9600 -2.1784
  707MOL0     H95418   9.589   4.771   4.950  1.5620  0.1853 -1.0621
  707MOL0     H95419   9.661   4.734   5.252 -1.5075  0.3007  0.3874
  707MOL0     H95420   9.784   4.732   5.133  0.2823 -1.8554  4.7301
  707MOL0     H95421   9.577   4.954   5.152  0.7115  0.1040 -0.1661
  707MOL0     H95422   9.708   4.955   5.044 -0.3441  1.8943  0.4924
  707MOL0     H95423   9.716   4.951   5.347 -0.1574  0.8313 -0.5608
  707MOL0     H95424   9.869   4.942   5.264  0.2134 -1.5477 -0.5078
  707MOL0     H95425   9.650   4.060   4.551  1.2461 -0.2103 -2.0922
  707MOL0     H95426   9.546   3.879   4.411 -0.4421  1.5801 -2.3449
  707MOL0     H95427   9.246   3.847   4.086  0.6676  0.3990 -0.7118
  707MOL0     H95428   9.087   3.794   3.893  0.4136  1.7673  0.0854
  707MOL0     H95429   6.944   3.203   3.737  0.8229 -0.5047 -1.1476
  707MOL0     H95430   6.713   3.119   3.743 -2.7571  0.8166  2.9705
  707MOL0     H95431   6.185   3.346   3.624  0.4208 -0.2614 -1.5057
  707MOL0     H95432   5.982   3.256   3.670  0.9559  2.4040 -0.3981
  707MOL0     H95433   5.798   3.163   3.702 -1.9360 -0.3092  1.5053
  707MOL0     H95434   5.713   3.009   3.728  2.5299 -1.9943 -1.1689
  707MOL0     H95435   5.829   3.113   3.469  0.4380  0.4693  0.1513
  707MOL0     H95436   5.662   3.139   3.519  0.2723  1.4911  2.6171
  707MOL0     H95437   5.643   2.877   3.533  1.9125  0.1517  0.4125
  707MOL0     H95438   5.808   2.870   3.455  1.6932 -0.1618  2.0879
  707MOL0     H95439   5.697   2.990   3.271  0.4609  0.6151  0.5380
  707MOL0     H95440   5.656   2.821   3.295 -2.4140  1.4965 -3.6692
  707MOL0     H95441   5.278   2.992   3.350  0.3482  1.2380 -4.8436
  707MOL0     H95442   6.143   2.853   3.635 -1.0229  0.4341  2.2369
  707MOL0     H95443   6.365   2.827   3.649  1.4291  0.7652  2.9464
  707MOL0     H95444   6.448   2.915   3.514 -1.6502 -1.5911 -0.7993
  707MOL0     H95445   6.465   2.967   3.682  0.5367 -4.0087  1.6035
  708MOL0     O95446   7.167   4.235   8.696  0.1902 -0.0164  0.0804
  708MOL0     C95447   7.066   4.231   8.769 -0.5439 -0.3398  0.4108
  708MOL0     O95448   7.060   4.260   8.902  0.2847 -0.2849 -0.1760
  708MOL0     C95449   7.176   4.281   8.974  0.2985  0.0239 -0.0945
  708MOL0     C95450   7.276   4.190   8.968  0.1675 -0.3662  0.5051
  708MOL0     C95451   7.387   4.215   9.049 -0.7260  0.6325  0.3164
  708MOL0     C95452   7.396   4.322   9.134  0.2661  0.3631  0.1433
  708MOL0     O95453   7.509   4.336   9.212  0.1900  0.6211  0.0502
  708MOL0     C95454   7.507   4.392   9.340 -0.4505  0.2901  0.2225
  708MOL0     C95455   7.618   4.344   9.436  0.0846 -0.0279 -0.0638
  708MOL0     C95456   7.624   4.188   9.440 -0.0062  1.1579 -0.6940
  708MOL0     C95457   7.679   4.136   9.577 -0.3941 -0.4758  0.6224
  708MOL0     C95458   7.820   4.178   9.597  0.0525  0.6624 -0.3203
  708MOL0     C95459   7.884   4.138   9.728  0.3492  0.1760  0.2921
  708MOL0     C95460   8.025   4.189   9.755  0.1785  0.3777  0.1029
  708MOL0     C95461   8.035   4.333   9.789 -0.5115 -0.2511 -1.0161
  708MOL0     N95462   8.177   4.361   9.820  0.5448 -1.3700 -0.0765
  708MOL0     C95463   8.246   4.307   9.924 -0.1828  0.0386 -0.9283
  708MOL0     C95464   8.374   4.355   9.921  0.8689  0.4035 -0.0599
  708MOL0     C95465   8.467   4.346  10.035 -0.0051  0.8015  1.3490
  708MOL0     C95466   8.463   4.485  10.097  0.6648 -0.7422  0.0299
  708MOL0     C95467   8.553   4.502  10.218 -0.2833  0.1126  0.5775
  708MOL0     C95468   8.691   4.473  10.191  1.0037 -1.0530 -0.0768
  708MOL0     O95469   8.772   4.469  10.307 -0.2184  0.0605 -0.3001
  708MOL0     C95470   8.909   4.454  10.290  0.1895  0.0220  0.3041
  708MOL0     C95471   8.987   4.439  10.405  0.6553  0.6507  0.1628
  708MOL0     C95472   9.122   4.393  10.398  0.1522  0.9841 -0.3436
  708MOL0     C95473   9.170   4.353  10.267  0.2460 -1.6355 -0.9513
  708MOL0     C95474   9.313   4.312  10.253 -0.6637  0.0847 -0.6729
  708MOL0     O95475   9.368   4.243  10.360 -0.1093  0.1323 -0.7437
  708MOL0     C95476   9.485   4.173  10.362 -0.1297 -0.7775  0.5422
  708MOL0     C95477   9.596   4.212  10.282 -0.6508 -0.2696  0.3076
  708MOL0     C95478   9.716   4.133  10.275  0.5584 -0.8184 -0.3409
  708MOL0     C95479   9.727   4.013  10.349 -0.0014  0.3035 -0.0670
  708MOL0     O95480   9.848   3.949  10.353 -0.1578  0.2889 -0.2609
  708MOL0     C95481   9.861   3.816  10.400  0.9929 -0.2071  0.0842
  708MOL0     C95482  10.008   3.772  10.384 -0.0653  0.2247 -0.3216
  708MOL0     C95483  10.112   3.878  10.422  0.0053 -0.3455  0.0900
  708MOL0     C95484  10.254   3.835  10.384 -0.3932  0.6879 -0.8052
  708MOL0     C95485  10.351   3.939  10.454 -0.4783 -0.3304  0.6839
  708MOL0     C95486  10.504   3.900  10.428  0.5540 -0.6887 -0.5544
  708MOL0     C95487  10.610   3.984  10.507  0.3882 -1.0388  0.5723
  708MOL0     C95488  10.750   3.985  10.439  0.3526 -0.0560  0.3091
  708MOL0    Cl95489  10.870   4.027  10.552 -0.5722 -0.4470  0.2350
  708MOL0     C95490   9.615   3.968  10.418  0.7641  0.1293 -0.6745
  708MOL0     C95491   9.497   4.042  10.424  0.0902 -0.2512  0.6324
  708MOL0     O95492   9.368   4.329  10.144  0.3984  0.0012  0.1888
  708MOL0     C95493   9.098   4.375  10.151  0.7642  0.7067  0.7240
  708MOL0     C95494   8.967   4.421  10.165 -0.0087 -0.2337  0.6809
  708MOL0     N95495   8.382   4.421   9.797 -0.2285 -0.1861 -0.2812
  708MOL0     N95496   8.264   4.429   9.740 -0.1869  0.5132 -0.1317
  708MOL0     C95497   7.291   4.417   9.131  0.9114 -0.4157  0.6115
  708MOL0     C95498   7.178   4.400   9.054  0.4768  0.1438  0.3419
  708MOL0     C95499   6.949   4.166   8.713 -0.1101  0.4411  0.5898
  708MOL0     C95500   6.965   4.074   8.601  0.0960  0.1719  0.0604
  708MOL0     C95501   6.859   4.007   8.545 -0.3578 -0.0155 -0.5254
  708MOL0     C95502   6.735   4.027   8.596 -0.6307 -0.3397  0.1942
  708MOL0     O95503   6.645   3.952   8.523 -0.7265 -0.5573  0.5932
  708MOL0     C95504   6.509   3.932   8.581 -0.4165  0.1934 -0.0123
  708MOL0     C95505   6.405   4.029   8.545 -0.3191 -0.9977 -0.0844
  708MOL0     C95506   6.277   4.016   8.635  0.1589 -0.2062 -0.8567
  708MOL0     C95507   6.149   4.029   8.569  0.8523 -0.1186 -0.1160
  708MOL0     C95508   6.128   4.169   8.525 -0.8744 -0.1886  0.0056
  708MOL0     C95509   6.104   4.287   8.498 -0.2241 -0.9992 -0.2863
  708MOL0     C95510   6.714   4.120   8.702 -0.8440 -0.4628 -0.3717
  708MOL0     C95511   6.816   4.196   8.757 -0.1885 -0.7653  0.5137
  708MOL0     C95512   6.775   4.294   8.866  0.1062  0.7362 -0.7921
  708MOL0     H95513   7.270   4.104   8.901  2.1017 -2.0137  2.2779
  708MOL0     H95514   7.464   4.138   9.054 -2.9941 -1.6920  1.6339
  708MOL0     H95515   7.502   4.501   9.345 -3.0291  0.2259  0.8605
  708MOL0     H95516   7.410   4.368   9.384 -0.9915  1.6297 -0.1847
  708MOL0     H95517   7.598   4.382   9.537  0.8478  0.4593 -0.0928
  708MOL0     H95518   7.713   4.386   9.404  0.5257 -1.1884 -0.3383
  708MOL0     H95519   7.681   4.153   9.353 -1.0621 -1.0399 -0.5730
  708MOL0     H95520   7.524   4.149   9.418 -0.1126 -0.8300  2.6274
  708MOL0     H95521   7.613   4.186   9.648  1.7870  0.3320  2.1694
  708MOL0     H95522   7.662   4.028   9.576 -3.0535 -0.2636  3.8307
  708MOL0     H95523   7.893   4.147   9.521 -1.2401 -0.1555 -1.2618
  708MOL0     H95524   7.815   4.287   9.603 -1.3600  0.5852  0.4252
  708MOL0     H95525   7.818   4.163   9.811 -0.7569 -3.0175  0.5208
  708MOL0     H95526   7.885   4.029   9.724 -2.1782  0.0947  0.0438
  708MOL0     H95527   8.094   4.168   9.673 -0.1855  3.1605 -1.0305
  708MOL0     H95528   8.063   4.121   9.832  2.6285  0.2424 -1.1422
  708MOL0     H95529   8.015   4.386   9.696 -2.9543 -1.1588 -1.0903
  708MOL0     H95530   7.974   4.378   9.868  0.1075  0.5523 -0.9844
  708MOL0     H95531   8.194   4.250  10.000 -2.0982 -0.3151 -2.4081
  708MOL0     H95532   8.427   4.265  10.097 -0.4980  0.1031  0.1518
  708MOL0     H95533   8.567   4.324   9.995  0.1014  2.9237  0.3513
  708MOL0     H95534   8.501   4.563  10.030 -2.0274  0.8227  0.1713
  708MOL0     H95535   8.358   4.492  10.129  0.1466 -1.7770 -1.3554
  708MOL0     H95536   8.511   4.444  10.301  0.7440 -1.3376  0.1211
  708MOL0     H95537   8.553   4.604  10.257 -0.0269  0.8603 -1.2985
  708MOL0     H95538   8.728   4.543  10.115  2.7596 -1.1447  0.6385
  708MOL0     H95539   8.695   4.370  10.154  1.7864 -0.5528 -1.4975
  708MOL0     H95540   8.949   4.467  10.502  1.9399 -1.7082  1.4493
  708MOL0     H95541   9.191   4.379  10.481 -0.8957 -1.6768  0.1963
  708MOL0     H95542   9.587   4.303  10.224 -2.3839 -0.5563  0.0703
  708MOL0     H95543   9.794   4.164  10.207  0.7873 -1.3628 -0.3277
  708MOL0     H95544   9.826   3.811  10.504  1.5533 -0.3776  0.2634
  708MOL0     H95545   9.791   3.752  10.345 -0.2477 -2.6430  4.0537
  708MOL0     H95546  10.025   3.691  10.456 -1.6422  0.1929  0.0470
  708MOL0     H95547  10.036   3.738  10.284 -3.9634  0.5808 -1.7085
  708MOL0     H95548  10.089   3.973  10.374 -1.3991 -0.8739 -0.3231
  708MOL0     H95549  10.118   3.892  10.531  0.1022  0.9379 -0.0647
  708MOL0     H95550  10.266   3.824  10.276  0.3148 -1.3002 -0.5597
  708MOL0     H95551  10.278   3.735  10.421 -1.1725 -0.0579 -2.2121
  708MOL0     H95552  10.335   3.948  10.562  0.0713 -0.0046  0.7408
  708MOL0     H95553  10.336   4.040  10.413 -0.3292 -0.9481 -0.9456
  708MOL0     H95554  10.519   3.799  10.469  0.3955 -0.8176 -0.8138
  708MOL0     H95555  10.535   3.895  10.324  2.0019  2.3419 -0.3593
  708MOL0     H95556  10.629   3.949  10.609 -1.6425 -1.1073  0.9707
  708MOL0     H95557  10.591   4.091  10.511  3.5365 -0.3737  0.1179
  708MOL0     H95558  10.784   3.893  10.391  0.6847  1.3934 -2.4207
  708MOL0     H95559  10.754   4.065  10.365  1.5311 -0.1731  0.2327
  708MOL0     H95560   9.616   3.871  10.466  1.6078  0.6468  0.3835
  708MOL0     H95561   9.415   4.000  10.481 -0.6912  1.8901  1.2014
  708MOL0     H95562   9.141   4.343  10.057  0.4281 -0.1452  0.8564
  708MOL0     H95563   8.905   4.419  10.075  1.3664  1.2993 -0.3512
  708MOL0     H95564   7.290   4.492   9.210 -0.0968 -0.7364  0.9176
  708MOL0     H95565   7.087   4.460   9.049 -1.3203 -2.4882 -1.8159
  708MOL0     H95566   7.066   4.043   8.576  0.0993 -0.8381  1.1919
  708MOL0     H95567   6.867   3.933   8.466  0.6283 -1.0898  0.5250
  708MOL0     H95568   6.527   3.945   8.688  0.7549  3.2838 -0.4694
  708MOL0     H95569   6.478   3.829   8.561  2.0192 -0.7521  0.6405
  708MOL0     H95570   6.370   4.013   8.443 -2.7111 -1.5370  0.7549
  708MOL0     H95571   6.442   4.130   8.565 -0.3345 -1.6564  4.2752
  708MOL0     H95572   6.284   4.080   8.724  0.3928  0.9605 -1.6998
  708MOL0     H95573   6.273   3.913   8.672  1.3249 -0.2440 -0.8105
  708MOL0     H95574   6.147   3.965   8.480 -1.3372  0.2479 -0.3891
  708MOL0     H95575   6.071   4.001   8.641 -0.4887 -0.0722 -1.4827
  708MOL0     H95576   6.079   4.387   8.468 -0.7900 -1.3149 -0.9006
  708MOL0     H95577   6.614   4.123   8.744 -0.3948 -4.2557  1.3381
  708MOL0     H95578   6.858   4.356   8.901  2.0414 -3.7571  3.8467
  708MOL0     H95579   6.684   4.353   8.852  0.3716  0.8261 -2.3233
  708MOL0     H95580   6.752   4.229   8.951  3.5478 -1.2659 -1.1978
  709MOL0     O95581   0.295   7.581   5.334  0.6752  0.2928  0.5899
  709MOL0     C95582   0.292   7.680   5.264  1.0368  0.0272 -0.1529
  709MOL0     O95583   0.394   7.768   5.243 -0.2756 -0.0118  0.2622
  709MOL0     C95584   0.522   7.724   5.257  1.0073  0.0466  0.3781
  709MOL0     C95585   0.610   7.797   5.334 -0.9733 -0.0727  0.3187
  709MOL0     C95586   0.741   7.754   5.354 -0.1053  0.3456 -0.0106
  709MOL0     C95587   0.796   7.641   5.291  0.2609 -0.3631  0.1788
  709MOL0     O95588   0.935   7.614   5.311  0.2488  0.6019 -0.4478
  709MOL0     C95589   0.983   7.512   5.232  0.7028 -0.1939  0.5214
  709MOL0     C95590   1.130   7.476   5.251  0.2516  0.4885 -0.1875
  709MOL0     C95591   1.218   7.598   5.213  0.2676 -0.2805 -0.3840
  709MOL0     C95592   1.367   7.559   5.228  0.3460 -0.1154 -0.2636
  709MOL0     C95593   1.423   7.484   5.110 -0.5020  0.6499  0.0171
  709MOL0     C95594   1.580   7.467   5.123  0.1293 -0.3785 -0.6039
  709MOL0     C95595   1.639   7.355   5.039  0.6058  0.7578  0.8643
  709MOL0     C95596   1.780   7.366   5.003 -0.0768 -0.6020 -1.0625
  709MOL0     N95597   1.792   7.415   4.864 -0.3581  0.5200  0.3779
  709MOL0     C95598   1.796   7.539   4.810 -0.0315 -0.8617 -0.4084
  709MOL0     C95599   1.826   7.527   4.683  0.0505 -0.1366  0.2215
  709MOL0     C95600   1.864   7.641   4.597 -0.4144  0.2127  0.4945
  709MOL0     C95601   2.018   7.641   4.572 -0.7644 -0.7002  0.4854
  709MOL0     C95602   2.062   7.771   4.490  0.2429 -0.6450 -0.9042
  709MOL0     C95603   2.215   7.766   4.462 -0.3371 -0.1689 -0.3203
  709MOL0     O95604   2.257   7.657   4.378 -0.1076 -0.3389 -0.7295
  709MOL0     C95605   2.385   7.660   4.331  0.8028  0.0548  0.2269
  709MOL0     C95606   2.462   7.774   4.348  0.0521  0.3906  0.5727
  709MOL0     C95607   2.593   7.786   4.296  0.1592 -0.2316  0.5342
  709MOL0     C95608   2.651   7.671   4.231  0.2154 -0.4844  0.4549
  709MOL0     C95609   2.798   7.663   4.194 -0.2990 -0.0936 -0.5813
  709MOL0     O95610   2.837   7.561   4.120  0.3207 -0.5920  0.1733
  709MOL0     C95611   2.970   7.538   4.099  0.0938  0.2080  0.9680
  709MOL0     C95612   3.046   7.445   4.173  0.3128 -0.4316 -0.2843
  709MOL0     C95613   3.186   7.438   4.163 -0.3540  0.1855  0.4991
  709MOL0     C95614   3.258   7.530   4.081 -1.1661 -0.0007 -0.2494
  709MOL0     O95615   3.397   7.532   4.075  0.2227  1.0240 -0.1579
  709MOL0     C95616   3.465   7.410   4.111 -0.1334 -0.2901 -0.5464
  709MOL0     C95617   3.608   7.432   4.075  0.1011  0.0994  0.1612
  709MOL0     C95618   3.636   7.436   3.927 -0.2925  0.3279 -0.0592
  709MOL0     C95619   3.789   7.472   3.923  0.2104  0.2905  0.2195
  709MOL0     C95620   3.824   7.455   3.773  0.2221  0.3558 -0.3624
  709MOL0     C95621   3.960   7.516   3.740  0.0661 -0.4084 -0.2699
  709MOL0     C95622   4.075   7.479   3.833  0.6417 -0.5413  0.1375
  709MOL0     C95623   4.190   7.580   3.795 -0.3232  0.6029  0.0013
  709MOL0    Cl95624   4.340   7.555   3.886 -0.5422  0.1246 -0.1742
  709MOL0     C95625   3.184   7.612   4.001 -0.0945 -0.1686  1.1157
  709MOL0     C95626   3.041   7.617   4.013 -0.5931 -0.3160  0.0213
  709MOL0     O95627   2.869   7.739   4.257  0.4060 -0.2078  0.1469
  709MOL0     C95628   2.580   7.552   4.211 -0.2900 -0.5303  0.6884
  709MOL0     C95629   2.447   7.555   4.255  0.0723 -0.7318 -0.1007
  709MOL0     N95630   1.844   7.390   4.659 -1.4177 -0.5800 -0.7351
  709MOL0     N95631   1.825   7.325   4.768  0.1466  0.6307  0.0232
  709MOL0     C95632   0.708   7.574   5.206 -0.4498 -0.6034 -0.2650
  709MOL0     C95633   0.576   7.620   5.190  0.3580  0.6577 -0.2365
  709MOL0     C95634   0.158   7.744   5.244 -0.3238  0.2224 -0.4667
  709MOL0     C95635   0.150   7.887   5.222  1.0144 -0.7671  0.0907
  709MOL0     C95636   0.027   7.948   5.193 -0.6114 -0.0636  0.3046
  709MOL0     C95637  -0.086   7.874   5.204  0.7720  0.2961 -0.2196
  709MOL0     O95638  -0.200   7.950   5.180 -0.8284  0.1499  0.2138
  709MOL0     C95639  -0.329   7.893   5.203  0.3606 -0.3129 -0.3537
  709MOL0     C95640  -0.444   7.994   5.172 -0.6252  0.4248  0.1074
  709MOL0     C95641  -0.476   8.098   5.276 -0.1196 -0.7710 -0.1786
  709MOL0     C95642  -0.358   8.195   5.301  0.5831 -0.3121 -0.8335
  709MOL0     C95643  -0.393   8.269   5.419 -0.5424  0.4655 -0.0606
  709MOL0     C95644  -0.410   8.327   5.524 -0.1938 -0.5091  0.7247
  709MOL0     C95645  -0.084   7.737   5.245  0.0559 -0.1268 -0.2529
  709MOL0     C95646   0.040   7.671   5.252  0.1009  0.0450  0.5740
  709MOL0     C95647   0.026   7.528   5.296 -0.5210 -0.4765 -0.4541
  709MOL0     H95648   0.571   7.888   5.379  3.9355  0.4731  4.4605
  709MOL0     H95649   0.806   7.803   5.426  1.7910 -0.4050 -1.1387
  709MOL0     H95650   0.917   7.427   5.252  1.3206 -0.6332  0.7317
  709MOL0     H95651   0.966   7.543   5.129  1.7174  0.4650  0.5416
  709MOL0     H95652   1.163   7.395   5.186  2.4335  0.6410  0.6414
  709MOL0     H95653   1.146   7.465   5.358 -1.5176  3.7353  0.5353
  709MOL0     H95654   1.198   7.679   5.283 -0.6293 -1.1524  0.4078
  709MOL0     H95655   1.202   7.625   5.108  0.0944  0.5117 -0.1604
  709MOL0     H95656   1.426   7.651   5.235 -0.1190  0.2447 -0.8853
  709MOL0     H95657   1.372   7.506   5.323  0.2567 -1.5505 -1.0416
  709MOL0     H95658   1.381   7.383   5.117  1.7924 -0.4830 -1.5501
  709MOL0     H95659   1.396   7.528   5.014  1.0034  1.5234 -0.0331
  709MOL0     H95660   1.627   7.560   5.091  0.4102  0.1475  1.2344
  709MOL0     H95661   1.619   7.456   5.225  5.7291  1.5076 -2.1578
  709MOL0     H95662   1.586   7.346   4.944 -1.3572 -0.5034  1.9948
  709MOL0     H95663   1.626   7.256   5.082  0.7574 -0.1407 -1.0691
  709MOL0     H95664   1.828   7.435   5.073 -1.8096 -0.2681 -0.1393
  709MOL0     H95665   1.832   7.270   5.016  0.0188 -0.1801  2.7560
  709MOL0     H95666   1.779   7.635   4.860 -3.6409 -0.3076 -2.4355
  709MOL0     H95667   1.822   7.626   4.497  1.6624 -1.1964 -0.2499
  709MOL0     H95668   1.834   7.738   4.637 -1.7006 -0.8313  2.1836
  709MOL0     H95669   2.054   7.642   4.675  1.1461  2.6749 -0.0488
  709MOL0     H95670   2.055   7.549   4.525  0.3123 -2.1131  3.8036
  709MOL0     H95671   2.035   7.861   4.546 -4.1161 -1.4703 -1.3195
  709MOL0     H95672   2.010   7.777   4.394  0.7055 -2.1699 -1.2778
  709MOL0     H95673   2.282   7.756   4.548 -0.6111  1.0561  0.0662
  709MOL0     H95674   2.241   7.865   4.424  3.3082  0.7715  3.8276
  709MOL0     H95675   2.429   7.864   4.398  1.2899  0.3299  1.5233
  709MOL0     H95676   2.650   7.878   4.305 -0.6219  0.4351 -0.9764
  709MOL0     H95677   2.981   7.386   4.237  0.3508  0.6502  0.7925
  709MOL0     H95678   3.232   7.366   4.230 -1.0159 -1.2174 -0.5022
  709MOL0     H95679   3.459   7.388   4.218 -0.0860 -2.4862 -0.9522
  709MOL0     H95680   3.422   7.326   4.057 -3.6495 -1.0582  3.0133
  709MOL0     H95681   3.636   7.529   4.118 -2.4492  0.4405  1.2388
  709MOL0     H95682   3.672   7.354   4.117 -0.0875  0.0575  0.3704
  709MOL0     H95683   3.619   7.341   3.875 -2.0218  0.6347 -0.1274
  709MOL0     H95684   3.578   7.508   3.869 -0.7672 -0.6821 -0.8823
  709MOL0     H95685   3.836   7.389   3.976  0.3807 -1.7834 -2.9105
  709MOL0     H95686   3.809   7.569   3.968 -1.3762  0.5613  0.4268
  709MOL0     H95687   3.753   7.499   3.703  0.3269 -2.4633 -2.4131
  709MOL0     H95688   3.830   7.348   3.752 -2.6248  0.5369 -2.8001
  709MOL0     H95689   3.992   7.471   3.646 -1.5178 -0.8318 -0.6310
  709MOL0     H95690   3.944   7.623   3.726 -1.5023 -0.8523 -2.4614
  709MOL0     H95691   4.106   7.376   3.816  2.7743 -0.1539  1.2936
  709MOL0     H95692   4.049   7.487   3.939  1.6563 -0.1157  0.3691
  709MOL0     H95693   4.214   7.568   3.689 -1.4241  0.3068 -0.2303
  709MOL0     H95694   4.158   7.681   3.823  1.9265  0.8489  1.9595
  709MOL0     H95695   3.243   7.677   3.938  1.8193 -1.6855  1.2639
  709MOL0     H95696   2.989   7.698   3.962 -1.2881 -1.6041 -1.3739
  709MOL0     H95697   2.606   7.465   4.152 -0.3433 -1.3330  1.8066
  709MOL0     H95698   2.376   7.473   4.248  0.2114 -1.1548  2.3170
  709MOL0     H95699   0.741   7.481   5.159 -1.5331 -1.2591  0.2302
  709MOL0     H95700   0.511   7.566   5.122  2.7148 -0.6669 -1.6051
  709MOL0     H95701   0.233   7.957   5.231  0.9594 -0.5826 -0.7271
  709MOL0     H95702   0.006   8.053   5.174  0.0745 -0.1607 -1.1549
  709MOL0     H95703  -0.335   7.857   5.306 -0.1485 -0.5487 -0.4645
  709MOL0     H95704  -0.343   7.807   5.137 -0.0127 -1.9611  1.7516
  709MOL0     H95705  -0.536   7.937   5.163 -0.0556 -1.0645  2.6816
  709MOL0     H95706  -0.416   8.035   5.074  1.3382 -1.0824 -0.0267
  709MOL0     H95707  -0.501   8.050   5.371 -1.2016 -0.7236 -0.4267
  709MOL0     H95708  -0.559   8.165   5.252  1.1199  1.6409  1.7351
  709MOL0     H95709  -0.267   8.141   5.326 -0.2526 -1.9244 -1.1439
  709MOL0     H95710  -0.337   8.263   5.218  1.0786  1.1671  0.4555
  709MOL0     H95711  -0.405   8.376   5.620 -1.6488 -1.4640  1.3300
  709MOL0     H95712  -0.182   7.695   5.268  0.2410 -0.2466  0.3299
  709MOL0     H95713   0.089   7.447   5.257 -0.3833 -0.8159  0.4458
  709MOL0     H95714   0.037   7.521   5.405  2.3918  0.1366 -0.6459
  709MOL0     H95715  -0.072   7.488   5.269  0.5918 -2.0251 -2.4323
  710MOL0     O95716   4.930   8.303   4.456 -0.3313 -0.0805 -0.1390
  710MOL0     C95717   4.877   8.266   4.560 -0.2822  0.0560  0.1381
  710MOL0     O95718   4.927   8.182   4.654 -0.4789  0.4836  0.7533
  710MOL0     C95719   5.060   8.150   4.640 -0.6601  0.5941  0.8128
  710MOL0     C95720   5.085   8.022   4.581  0.1246 -0.2505 -0.3842
  710MOL0     C95721   5.222   7.972   4.583  0.2849  0.1380 -0.3784
  710MOL0     C95722   5.323   8.045   4.640  1.1264 -0.1219  0.2275
  710MOL0     O95723   5.450   8.010   4.640 -0.1174 -0.1569 -0.1213
  710MOL0     C95724   5.491   7.885   4.589  0.4936 -0.2888  1.1357
  710MOL0     C95725   5.627   7.843   4.607  0.1053 -0.8557  0.3937
  710MOL0     C95726   5.731   7.946   4.571 -0.1855 -0.0333 -0.5132
  710MOL0     C95727   5.866   7.880   4.569 -0.5240  0.5882 -0.3941
  710MOL0     C95728   5.990   7.956   4.540  0.2907 -0.4446 -0.1985
  710MOL0     C95729   6.098   7.862   4.478 -0.7480 -1.0406 -0.0250
  710MOL0     C95730   6.224   7.944   4.440  0.1397  0.1381 -0.3773
  710MOL0     C95731   6.336   7.865   4.391 -0.1299 -0.9384  0.0534
  710MOL0     N95732   6.450   7.954   4.365  0.9427 -0.2939  0.6015
  710MOL0     C95733   6.457   8.041   4.248  0.5614  0.8923 -0.1792
  710MOL0     C95734   6.556   8.126   4.281  0.0734 -0.5649  0.2376
  710MOL0     C95735   6.602   8.249   4.199  0.1170 -0.1643 -0.0348
  710MOL0     C95736   6.555   8.368   4.271 -0.2298  0.9930  0.0161
  710MOL0     C95737   6.667   8.472   4.274  0.4567 -0.9307  0.1415
  710MOL0     C95738   6.722   8.527   4.142  0.3698  0.2158 -0.1854
  710MOL0     O95739   6.783   8.660   4.147 -0.2460 -0.2154 -0.2061
  710MOL0     C95740   6.912   8.671   4.204 -0.2118 -0.5983 -0.0897
  710MOL0     C95741   6.971   8.801   4.211 -0.4404 -0.6600  0.2613
  710MOL0     C95742   7.108   8.820   4.249  0.2182 -0.0502  0.3923
  710MOL0     C95743   7.188   8.711   4.292 -0.0805  0.2083 -0.1433
  710MOL0     C95744   7.323   8.733   4.338  1.2641  0.8375 -0.3264
  710MOL0     O95745   7.381   8.634   4.407  0.3300  0.4121 -0.3996
  710MOL0     C95746   7.518   8.614   4.405 -0.7060 -0.1286 -0.4163
  710MOL0     C95747   7.595   8.614   4.512 -0.0447  0.2938  0.5945
  710MOL0     C95748   7.734   8.596   4.500 -0.6367  0.3386 -0.0756
  710MOL0     C95749   7.798   8.584   4.373 -0.4734  0.3970 -0.1468
  710MOL0     O95750   7.935   8.543   4.356  0.2391 -0.1764  0.7740
  710MOL0     C95751   8.020   8.543   4.470 -0.4370  0.4517 -0.3873
  710MOL0     C95752   8.165   8.531   4.423 -0.0578  0.2943 -0.4585
  710MOL0     C95753   8.259   8.497   4.534  0.8351 -0.0048  0.2647
  710MOL0     C95754   8.400   8.498   4.475  0.3539  0.1223  0.1095
  710MOL0     C95755   8.507   8.473   4.589  0.9254 -0.6834  0.5306
  710MOL0     C95756   8.647   8.470   4.519 -0.7002  0.5963  1.0342
  710MOL0     C95757   8.758   8.475   4.619  0.4098 -0.0533  0.2602
  710MOL0     C95758   8.865   8.566   4.568  0.2254  0.4132  0.2819
  710MOL0    Cl95759   8.993   8.592   4.685  0.0848 -0.2443 -0.1426
  710MOL0     C95760   7.721   8.565   4.261 -0.2670 -0.5222 -0.5398
  710MOL0     C95761   7.575   8.582   4.280 -0.3986 -0.5039  0.4459
  710MOL0     O95762   7.372   8.835   4.307 -0.0354  0.5795 -0.1912
  710MOL0     C95763   7.130   8.585   4.298  0.4822 -0.2881 -0.0213
  710MOL0     C95764   6.995   8.566   4.247  0.2517 -0.6560 -0.4594
  710MOL0     N95765   6.605   8.081   4.403 -0.1547  0.4098  0.5981
  710MOL0     N95766   6.544   7.982   4.452  0.5757  0.1938 -0.3327
  710MOL0     C95767   5.296   8.170   4.694 -0.0878 -0.3855  0.0005
  710MOL0     C95768   5.169   8.223   4.700  0.3591  0.1118  0.0434
  710MOL0     C95769   4.746   8.313   4.596  0.0060 -0.2865 -0.2739
  710MOL0     C95770   4.724   8.349   4.731 -0.3061  0.2705 -0.1019
  710MOL0     C95771   4.601   8.408   4.778  0.6653 -0.4705  0.5840
  710MOL0     C95772   4.499   8.432   4.679 -0.4652 -0.7009 -0.5134
  710MOL0     O95773   4.382   8.481   4.742  0.1894  0.5046 -0.2862
  710MOL0     C95774   4.263   8.532   4.669 -0.7772  0.1403 -0.5261
  710MOL0     C95775   4.176   8.421   4.621  0.1468  0.4870 -0.2493
  710MOL0     C95776   4.036   8.474   4.578 -0.4025  0.4404 -0.1710
  710MOL0     C95777   3.925   8.468   4.691  0.2153 -0.5165  0.1858
  710MOL0     C95778   3.802   8.536   4.635 -0.2984  0.7382 -1.0730
  710MOL0     C95779   3.715   8.603   4.581  0.8627  0.1066 -0.2157
  710MOL0     C95780   4.520   8.409   4.543 -0.9756 -0.1811  0.1115
  710MOL0     C95781   4.641   8.350   4.498 -0.0491 -0.2625 -0.4345
  710MOL0     C95782   4.657   8.314   4.352  0.6514  0.9595  0.5743
  710MOL0     H95783   4.992   7.976   4.548  0.1110 -1.5592  1.3348
  710MOL0     H95784   5.237   7.878   4.531  0.2282  0.8731 -1.7847
  710MOL0     H95785   5.428   7.809   4.635  0.3831  0.7924  2.8726
  710MOL0     H95786   5.458   7.889   4.485 -3.3424 -0.0549  2.2152
  710MOL0     H95787   5.630   7.746   4.557 -0.3658 -2.0199  2.5384
  710MOL0     H95788   5.641   7.819   4.712 -1.3846 -1.7191  0.4220
  710MOL0     H95789   5.733   8.025   4.647  1.7596 -2.8697  2.6464
  710MOL0     H95790   5.714   7.991   4.473  1.6573  0.1638 -0.7649
  710MOL0     H95791   5.876   7.828   4.665  1.2857 -1.1389 -1.4218
  710MOL0     H95792   5.857   7.806   4.488 -1.2431  0.6446 -0.3724
  710MOL0     H95793   5.966   8.032   4.464 -0.1801 -0.4339 -0.0400
  710MOL0     H95794   6.031   8.011   4.625 -0.8658  1.8509 -1.0489
  710MOL0     H95795   6.131   7.789   4.552 -0.2342 -1.6109 -0.7951
  710MOL0     H95796   6.069   7.806   4.389 -0.3101  0.3514 -1.0764
  710MOL0     H95797   6.262   7.998   4.528  2.8322  0.0218 -1.3567
  710MOL0     H95798   6.196   8.024   4.371  0.4440  1.7294  1.2326
  710MOL0     H95799   6.363   7.795   4.471 -2.2476 -3.2031 -1.0911
  710MOL0     H95800   6.309   7.800   4.308  2.5721 -0.9850 -0.8863
  710MOL0     H95801   6.390   8.051   4.164  0.5884 -1.4539 -0.5332
  710MOL0     H95802   6.709   8.241   4.176  0.0740  0.8431 -0.6512
  710MOL0     H95803   6.557   8.243   4.099  0.6564  0.1631 -0.3052
  710MOL0     H95804   6.470   8.400   4.211 -0.2577 -0.8587 -1.0015
  710MOL0     H95805   6.510   8.355   4.370  0.5533  0.2002  0.2755
  710MOL0     H95806   6.748   8.438   4.339  1.0444  0.7554  0.3446
  710MOL0     H95807   6.622   8.561   4.319 -1.3005 -1.7550  0.0892
  710MOL0     H95808   6.643   8.547   4.069  1.0564 -0.1914 -1.0628
  710MOL0     H95809   6.782   8.446   4.099 -1.3073 -0.8645 -0.5783
  710MOL0     H95810   6.922   8.894   4.184  2.6354  0.8142 -0.7093
  710MOL0     H95811   7.151   8.920   4.248 -1.1521  0.6529  2.6815
  710MOL0     H95812   7.549   8.629   4.609  1.4223  0.2563  1.3258
  710MOL0     H95813   7.784   8.571   4.593  0.7503  5.8717  1.0394
  710MOL0     H95814   8.000   8.635   4.527  0.0196  0.8899 -0.9317
  710MOL0     H95815   7.992   8.458   4.533 -0.1611  1.4641  1.1651
  710MOL0     H95816   8.164   8.450   4.350  0.4774 -0.1818  0.0451
  710MOL0     H95817   8.196   8.624   4.374  0.7872 -0.4715 -1.4215
  710MOL0     H95818   8.243   8.575   4.609  0.0855  1.3131 -1.1962
  710MOL0     H95819   8.244   8.402   4.586  1.0339 -0.0350  0.2669
  710MOL0     H95820   8.417   8.597   4.432  3.0454  0.1907  1.1319
  710MOL0     H95821   8.412   8.418   4.401  0.7417 -0.3496  0.6750
  710MOL0     H95822   8.494   8.381   4.647  1.0160 -1.6237 -0.8935
  710MOL0     H95823   8.496   8.555   4.661  3.7098 -1.3215  1.8262
  710MOL0     H95824   8.657   8.381   4.458  1.2695  2.4421 -1.6001
  710MOL0     H95825   8.644   8.550   4.444  0.1987  0.2397  0.6029
  710MOL0     H95826   8.812   8.382   4.640 -0.4423 -1.6096 -3.5969
  710MOL0     H95827   8.720   8.535   4.702  1.2132  1.6025 -0.5353
  710MOL0     H95828   8.915   8.519   4.483  1.6549 -3.0254  2.7981
  710MOL0     H95829   8.817   8.662   4.545 -0.6372  0.8906  3.5457
  710MOL0     H95830   7.770   8.525   4.173  3.9657 -0.6924  1.6508
  710MOL0     H95831   7.520   8.568   4.187 -0.8157  2.8104  0.0790
  710MOL0     H95832   7.187   8.502   4.340  1.4706  1.3592  2.0597
  710MOL0     H95833   6.973   8.459   4.247  2.1951 -1.1634 -3.0848
  710MOL0     H95834   5.381   8.231   4.725 -1.0253  0.5347  0.8149
  710MOL0     H95835   5.150   8.314   4.756  2.0998 -0.0712  1.0165
  710MOL0     H95836   4.806   8.333   4.800 -0.7943 -1.1742  0.1761
  710MOL0     H95837   4.589   8.428   4.884  0.0165  0.6214  0.3205
  710MOL0     H95838   4.303   8.589   4.584  1.1800  4.3867  2.8105
  710MOL0     H95839   4.204   8.602   4.729 -3.3953 -0.9035 -1.7327
  710MOL0     H95840   4.160   8.341   4.694 -0.3835  0.1708 -0.6960
  710MOL0     H95841   4.215   8.374   4.530 -0.3891  0.3758 -0.4303
  710MOL0     H95842   3.997   8.403   4.504  0.6561 -0.4514  0.1000
  710MOL0     H95843   4.054   8.568   4.525  3.7167 -2.4383 -4.8043
  710MOL0     H95844   3.901   8.365   4.718 -1.8391 -0.0323  0.3963
  710MOL0     H95845   3.966   8.515   4.781 -0.8812  1.0283 -0.0937
  710MOL0     H95846   3.633   8.644   4.526 -0.1991 -3.0983 -1.2495
  710MOL0     H95847   4.445   8.441   4.471 -0.1955  1.4455 -0.0368
  710MOL0     H95848   4.569   8.259   4.321  0.6376  1.4266 -0.2509
  710MOL0     H95849   4.659   8.403   4.288  0.7076 -0.1777 -1.0545
  710MOL0     H95850   4.738   8.246   4.322  0.7672  0.3390  2.2214
  711MOL0     O95851   5.503   6.674   6.745  0.8479  0.0560  0.1680
  711MOL0     C95852   5.436   6.737   6.658  0.0608 -0.2852 -0.0028
  711MOL0     O95853   5.463   6.867   6.617 -0.4157 -0.5152 -1.2506
  711MOL0     C95854   5.586   6.916   6.657 -0.1975  0.5472 -0.7409
  711MOL0     C95855   5.696   6.900   6.572 -0.3511  0.3674  0.0648
  711MOL0     C95856   5.816   6.960   6.606 -0.2368 -0.1458  0.3717
  711MOL0     C95857   5.842   7.032   6.731  0.1919 -0.3633  0.5924
  711MOL0     O95858   5.970   7.077   6.758 -0.0490  0.5085 -0.3038
  711MOL0     C95859   6.017   7.034   6.880  0.0305  0.3804 -0.2412
  711MOL0     C95860   6.145   7.112   6.903  0.1260  0.9052  0.1105
  711MOL0     C95861   6.167   7.105   7.058 -0.0489  0.0225  0.6234
  711MOL0     C95862   6.308   7.154   7.075 -0.3426 -0.2858  0.1374
  711MOL0     C95863   6.328   7.195   7.228 -0.8256 -0.1604  0.7647
  711MOL0     C95864   6.472   7.253   7.265  0.0555  0.0263 -0.3327
  711MOL0     C95865   6.571   7.136   7.270 -0.0649 -0.1189  0.1270
  711MOL0     C95866   6.564   7.054   7.401  0.6693  1.2675 -0.6103
  711MOL0     N95867   6.678   6.967   7.394 -0.2186  0.1451 -0.1545
  711MOL0     C95868   6.686   6.851   7.318  0.2332  0.2298 -0.8014
  711MOL0     C95869   6.781   6.779   7.375 -0.2577 -0.0735  0.2384
  711MOL0     C95870   6.820   6.643   7.327  0.0641  0.3458  0.2266
  711MOL0     C95871   6.802   6.532   7.440 -0.5817 -0.5094  0.0726
  711MOL0     C95872   6.852   6.392   7.393  0.0938 -0.3776 -0.6611
  711MOL0     C95873   6.801   6.265   7.475  0.6176  0.0433  0.0183
  711MOL0     O95874   6.835   6.264   7.615  0.3557 -0.0433 -0.4831
  711MOL0     C95875   6.944   6.181   7.651 -0.4187 -0.0670  0.0491
  711MOL0     C95876   7.065   6.188   7.585 -0.6960  0.0279 -0.1715
  711MOL0     C95877   7.168   6.099   7.621 -0.9084 -0.4602  0.8451
  711MOL0     C95878   7.160   6.014   7.734 -0.7345 -0.3530  0.2151
  711MOL0     C95879   7.268   5.930   7.783 -0.9891  0.3079 -0.4091
  711MOL0     O95880   7.355   5.882   7.695 -0.2465  0.5684 -0.2287
  711MOL0     C95881   7.475   5.836   7.741 -0.1761 -0.0480  0.2908
  711MOL0     C95882   7.563   5.907   7.822 -0.3633  0.3457  0.1565
  711MOL0     C95883   7.685   5.856   7.853  0.4047  0.0800  0.8371
  711MOL0     C95884   7.738   5.743   7.785  0.1517 -0.5006 -0.8358
  711MOL0     O95885   7.869   5.705   7.807  0.1977 -0.1871  0.0019
  711MOL0     C95886   7.937   5.644   7.690  0.4977 -0.2927 -0.2378
  711MOL0     C95887   8.090   5.678   7.686 -0.7468 -0.4640  0.6758
  711MOL0     C95888   8.164   5.577   7.601  0.1189 -0.0178  1.1971
  711MOL0     C95889   8.311   5.609   7.595  0.8048  0.9933  0.2467
  711MOL0     C95890   8.375   5.496   7.508 -0.2251 -0.3007 -0.5065
  711MOL0     C95891   8.529   5.497   7.507  0.0936  0.2208  0.3147
  711MOL0     C95892   8.591   5.395   7.392  0.1013  0.0440  0.4630
  711MOL0     C95893   8.746   5.404   7.381  0.5733  0.6963 -0.2940
  711MOL0    Cl95894   8.838   5.401   7.538 -0.2384 -0.0862  0.2295
  711MOL0     C95895   7.646   5.670   7.711  0.1693 -0.0791 -1.0011
  711MOL0     C95896   7.514   5.711   7.684 -0.1191  0.4110  0.2089
  711MOL0     O95897   7.269   5.904   7.902  0.3312  0.7391 -0.4082
  711MOL0     C95898   7.036   6.013   7.797 -0.0545  0.1769 -0.3405
  711MOL0     C95899   6.923   6.089   7.749  0.6818  0.3186 -0.1500
  711MOL0     N95900   6.820   6.841   7.493  0.6364 -0.2727  0.1032
  711MOL0     N95901   6.752   6.952   7.504 -0.3959  0.2019 -0.2265
  711MOL0     C95902   5.728   7.040   6.811 -0.6792 -0.2217 -0.9645
  711MOL0     C95903   5.606   6.984   6.774 -0.6405 -0.4618  0.1321
  711MOL0     C95904   5.317   6.670   6.593 -0.3942  0.4436  0.5371
  711MOL0     C95905   5.243   6.580   6.675  0.1273  0.9498 -0.0056
  711MOL0     C95906   5.117   6.522   6.633 -0.2058 -0.3584 -1.2279
  711MOL0     C95907   5.080   6.544   6.504  0.3738 -0.4423  0.4977
  711MOL0     O95908   4.978   6.463   6.467  0.6406 -1.1089  0.1788
  711MOL0     C95909   4.842   6.520   6.455 -0.4401  0.7623 -0.0336
  711MOL0     C95910   4.736   6.409   6.431 -0.1971 -0.3366  0.1051
  711MOL0     C95911   4.713   6.304   6.544 -0.0762  0.3475 -0.3482
  711MOL0     C95912   4.601   6.209   6.504 -0.2000  0.6266  0.3900
  711MOL0     C95913   4.645   6.112   6.399  0.2653  0.0941 -0.1590
  711MOL0     C95914   4.663   6.032   6.312 -0.0493  0.5955  0.4181
  711MOL0     C95915   5.150   6.627   6.417  0.3377  0.4737 -0.9012
  711MOL0     C95916   5.261   6.696   6.460 -0.0005 -0.2533  0.1687
  711MOL0     C95917   5.343   6.785   6.355 -0.4611 -0.0264 -0.0207
  711MOL0     H95918   5.690   6.825   6.493  2.3355  0.0481  0.0713
  711MOL0     H95919   5.908   6.958   6.549 -1.0760  2.0739 -1.1831
  711MOL0     H95920   5.944   7.054   6.958 -2.9046 -1.2094 -2.3966
  711MOL0     H95921   6.027   6.925   6.872  0.8435  0.3347  1.0525
  711MOL0     H95922   6.145   7.215   6.866 -0.1413  0.5301 -0.9582
  711MOL0     H95923   6.224   7.053   6.855 -0.6084 -0.5690  0.6603
  711MOL0     H95924   6.144   7.005   7.095  0.1123  0.2062  1.2227
  711MOL0     H95925   6.093   7.172   7.101  0.3440 -0.4197  2.0458
  711MOL0     H95926   6.380   7.078   7.044  0.5534  0.3569  0.5807
  711MOL0     H95927   6.326   7.247   7.019 -2.2283  0.0188 -0.0188
  711MOL0     H95928   6.268   7.285   7.245 -0.4868 -0.2666  2.8067
  711MOL0     H95929   6.285   7.123   7.299 -1.8205 -0.7384 -0.3906
  711MOL0     H95930   6.509   7.329   7.196 -0.5431 -0.1238 -0.8233
  711MOL0     H95931   6.458   7.296   7.364 -1.5143 -1.8295  0.3205
  711MOL0     H95932   6.672   7.177   7.260  0.4510 -0.5312  2.7506
  711MOL0     H95933   6.537   7.074   7.187  2.1981  0.4002 -1.2734
  711MOL0     H95934   6.570   7.117   7.489 -4.0009 -0.4980  1.2769
  711MOL0     H95935   6.473   6.994   7.411  1.1376  0.6419  0.0566
  711MOL0     H95936   6.620   6.829   7.235 -0.1442  0.9766 -0.7096
  711MOL0     H95937   6.750   6.611   7.249 -0.7352 -1.5178  1.6219
  711MOL0     H95938   6.920   6.654   7.285 -0.9671  0.4290 -2.3884
  711MOL0     H95939   6.870   6.563   7.520 -0.6468  0.0418 -0.0812
  711MOL0     H95940   6.704   6.526   7.489 -0.4640 -0.6444  0.2964
  711MOL0     H95941   6.961   6.386   7.402 -0.0110 -1.4138  0.0107
  711MOL0     H95942   6.833   6.380   7.286  1.2454 -0.6261 -0.8522
  711MOL0     H95943   6.839   6.176   7.424  0.3018  0.0690 -0.2599
  711MOL0     H95944   6.693   6.261   7.461  0.4171 -1.1412  1.5834
  711MOL0     H95945   7.069   6.256   7.500  0.8640  0.1953  0.0090
  711MOL0     H95946   7.258   6.097   7.559 -1.9025 -0.0329 -0.6754
  711MOL0     H95947   7.535   5.999   7.872  1.7383  1.5382 -0.6882
  711MOL0     H95948   7.751   5.910   7.921 -0.3488  1.6876  0.3570
  711MOL0     H95949   7.920   5.536   7.703  0.0193 -0.0784  1.0761
  711MOL0     H95950   7.886   5.667   7.595  1.8320 -0.9000 -1.1342
  711MOL0     H95951   8.084   5.777   7.641 -1.2462 -0.2041  1.2930
  711MOL0     H95952   8.137   5.685   7.785 -2.5598  1.4651  1.4617
  711MOL0     H95953   8.149   5.474   7.635  3.7021 -1.6666 -1.6264
  711MOL0     H95954   8.127   5.583   7.498  0.4686 -1.4849  0.9699
  711MOL0     H95955   8.348   5.613   7.698 -0.3584  2.6404  0.6344
  711MOL0     H95956   8.329   5.704   7.544  1.2447  0.7841  0.0138
  711MOL0     H95957   8.350   5.502   7.401  0.7533 -2.9629 -0.9600
  711MOL0     H95958   8.339   5.397   7.537 -2.4181  0.4638 -0.4445
  711MOL0     H95959   8.577   5.595   7.499  1.6664 -0.5971 -1.1785
  711MOL0     H95960   8.556   5.462   7.607 -0.6883  1.9704  1.1725
  711MOL0     H95961   8.546   5.421   7.296  0.1351  1.7839  0.8786
  711MOL0     H95962   8.561   5.295   7.421 -3.3123  0.7944 -0.0104
  711MOL0     H95963   8.779   5.323   7.316  3.1309  1.4230 -0.0207
  711MOL0     H95964   8.779   5.494   7.329 -0.9383  2.8214  2.1825
  711MOL0     H95965   7.671   5.569   7.678 -0.7340 -0.2162 -1.2874
  711MOL0     H95966   7.441   5.652   7.630 -0.1499 -1.7470  2.4246
  711MOL0     H95967   7.021   5.947   7.881 -2.2572  0.0781 -0.7651
  711MOL0     H95968   6.824   6.086   7.793 -2.3834 -1.7037 -6.0445
  711MOL0     H95969   5.732   7.074   6.914  1.6507 -2.6689 -0.1231
  711MOL0     H95970   5.526   7.001   6.846 -1.9331  2.1849 -1.7867
  711MOL0     H95971   5.270   6.560   6.778 -1.3873 -2.2278 -0.1055
  711MOL0     H95972   5.063   6.468   6.710 -0.9322  1.6390 -0.2620
  711MOL0     H95973   4.841   6.589   6.371  0.3149 -1.2066 -1.7467
  711MOL0     H95974   4.827   6.567   6.553  1.7159 -0.2132  0.8312
  711MOL0     H95975   4.767   6.364   6.336 -1.4091  0.6628 -0.7779
  711MOL0     H95976   4.649   6.470   6.407  0.9548  0.4665 -2.2640
  711MOL0     H95977   4.676   6.348   6.637 -1.8882 -2.8533  0.6139
  711MOL0     H95978   4.803   6.245   6.564 -2.4819 -2.7130  2.6934
  711MOL0     H95979   4.576   6.150   6.593 -0.6990  2.3465  1.4309
  711MOL0     H95980   4.517   6.270   6.470  2.3054  3.0473 -1.9966
  711MOL0     H95981   4.678   5.950   6.244  0.5971 -0.5486  1.8909
  711MOL0     H95982   5.100   6.636   6.321 -0.5118  0.6189 -0.4587
  711MOL0     H95983   5.330   6.892   6.371 -1.3147  0.0323 -1.0118
  711MOL0     H95984   5.446   6.748   6.362 -0.1393  0.9263  0.5064
  711MOL0     H95985   5.313   6.769   6.252  2.0963 -0.9621 -0.6936
  712MOL0     O95986   2.371   2.325   8.408 -0.5750 -0.7961 -0.5390
  712MOL0     C95987   2.385   2.410   8.501  0.1288  0.0193 -0.3517
  712MOL0     O95988   2.490   2.417   8.581  0.0508  0.4856  0.0095
  712MOL0     C95989   2.606   2.348   8.547  0.4666 -0.1908 -0.7047
  712MOL0     C95990   2.725   2.410   8.577 -0.1797 -0.2056 -1.1016
  712MOL0     C95991   2.845   2.346   8.556 -0.2878  0.6675  0.3869
  712MOL0     C95992   2.844   2.212   8.515 -0.5878  0.5726 -0.2853
  712MOL0     O95993   2.956   2.129   8.504  0.2828  0.0251 -0.0893
  712MOL0     C95994   3.085   2.181   8.541  0.3446  0.2464 -0.9835
  712MOL0     C95995   3.181   2.059   8.537 -0.6642  0.3204 -0.5516
  712MOL0     C95996   3.335   2.090   8.503  0.0895 -0.0361  0.2215
  712MOL0     C95997   3.437   1.983   8.561  0.5001 -0.0969  0.1189
  712MOL0     C95998   3.579   2.008   8.523 -0.3550 -0.7635  0.0252
  712MOL0     C95999   3.674   1.916   8.594  1.0387  0.8785 -0.7071
  712MOL0     C96000   3.815   1.940   8.546  0.1055  0.1232 -0.2623
  712MOL0     C96001   3.919   1.863   8.611  0.4261  0.1613  0.4404
  712MOL0     N96002   4.051   1.898   8.549  0.0461  0.2540 -0.3444
  712MOL0     C96003   4.104   1.864   8.431  0.0373  0.3451 -0.8691
  712MOL0     C96004   4.222   1.935   8.418  0.1653 -0.0755 -0.4651
  712MOL0     C96005   4.321   1.911   8.309 -0.3169 -0.2254  0.7024
  712MOL0     C96006   4.458   1.924   8.351 -0.3106 -0.7617  0.2820
  712MOL0     C96007   4.571   1.932   8.239  0.9240 -0.0728 -0.4619
  712MOL0     C96008   4.695   1.998   8.299  0.9133  0.4182  0.8061
  712MOL0     O96009   4.786   2.024   8.192  0.0125 -1.1526 -0.1036
  712MOL0     C96010   4.911   2.085   8.216 -0.0090 -0.3056 -0.5523
  712MOL0     C96011   5.018   2.068   8.125 -1.2341 -0.2070 -0.1959
  712MOL0     C96012   5.142   2.134   8.142 -0.0999 -0.4764 -0.4024
  712MOL0     C96013   5.155   2.228   8.248 -1.2883 -0.1040  0.8395
  712MOL0     C96014   5.286   2.302   8.274  0.1754  0.3588 -0.1560
  712MOL0     O96015   5.304   2.370   8.387 -0.2550  0.2012 -0.1401
  712MOL0     C96016   5.403   2.463   8.399 -0.1970 -0.1839  0.1727
  712MOL0     C96017   5.459   2.535   8.295  0.1332 -0.0178  0.0788
  712MOL0     C96018   5.564   2.623   8.316  0.7216 -0.6417  1.2680
  712MOL0     C96019   5.623   2.631   8.444  0.5682  0.8245 -0.1439
  712MOL0     O96020   5.720   2.729   8.454  0.1681  0.4810  0.2834
  712MOL0     C96021   5.814   2.721   8.561  0.8366  0.4920  0.7060
  712MOL0     C96022   5.939   2.824   8.530  0.5494 -0.0756  0.2128
  712MOL0     C96023   5.993   2.821   8.387  0.3636 -0.1788 -0.8781
  712MOL0     C96024   6.037   2.681   8.341 -0.2450 -0.8830  0.3800
  712MOL0     C96025   6.088   2.683   8.195 -0.2639 -0.5127 -0.0725
  712MOL0     C96026   6.169   2.559   8.162  0.1437  0.3008 -0.1164
  712MOL0     C96027   6.232   2.573   8.026  0.1483 -0.5235 -0.1897
  712MOL0     C96028   6.134   2.572   7.909  0.0829 -0.5854 -0.3930
  712MOL0    Cl96029   6.215   2.538   7.752 -0.3638  0.1298  0.0409
  712MOL0     C96030   5.567   2.564   8.549 -0.6976 -0.6936 -0.0180
  712MOL0     C96031   5.453   2.485   8.530  0.2019  0.4658  1.4102
  712MOL0     O96032   5.359   2.297   8.176  0.3012 -1.0788 -0.2279
  712MOL0     C96033   5.054   2.241   8.338 -0.3264 -0.7087  0.8049
  712MOL0     C96034   4.930   2.177   8.323 -0.4368  0.4216 -0.6467
  712MOL0     N96035   4.223   2.030   8.516 -0.3717  0.6570 -0.1255
  712MOL0     N96036   4.129   1.998   8.602  0.3027 -0.4094  0.2536
  712MOL0     C96037   2.726   2.146   8.491  0.0378 -0.1177  0.0864
  712MOL0     C96038   2.605   2.221   8.514  0.3851  0.5503  0.0078
  712MOL0     C96039   2.274   2.507   8.513  0.1102  0.4757 -0.2864
  712MOL0     C96040   2.141   2.452   8.504 -0.5587  0.0858  0.2249
  712MOL0     C96041   2.033   2.538   8.537 -0.1550 -0.2445 -0.1776
  712MOL0     C96042   2.053   2.673   8.568 -0.0935  1.0324 -0.9081
  712MOL0     O96043   1.935   2.733   8.599  0.3755  0.1732 -0.0232
  712MOL0     C96044   1.912   2.872   8.582  0.3249  0.1278  0.4941
  712MOL0     C96045   1.794   2.886   8.494  0.8305  0.6612 -0.0815
  712MOL0     C96046   1.659   2.840   8.564 -0.4232 -0.0962 -0.3720
  712MOL0     C96047   1.541   2.847   8.466  0.2909 -0.1866  0.6266
  712MOL0     C96048   1.425   2.802   8.537  0.5490 -0.1273  0.6477
  712MOL0     C96049   1.324   2.763   8.600  0.9603 -1.2336  0.3022
  712MOL0     C96050   2.183   2.716   8.590 -0.4787 -0.6330  0.1376
  712MOL0     C96051   2.297   2.639   8.559  0.1223  0.1538 -0.4721
  712MOL0     C96052   2.434   2.701   8.584 -0.0445  0.2999 -0.0168
  712MOL0     H96053   2.729   2.510   8.617 -0.0563 -0.0239 -1.5634
  712MOL0     H96054   2.934   2.400   8.586 -1.3312  2.1863  0.8860
  712MOL0     H96055   3.111   2.263   8.474 -0.2675  0.7544 -0.6165
  712MOL0     H96056   3.085   2.223   8.642  3.5604 -3.6054  0.9016
  712MOL0     H96057   3.148   1.990   8.459  3.3148 -0.5104 -1.7174
  712MOL0     H96058   3.173   1.994   8.624 -3.5126 -0.5302 -1.3510
  712MOL0     H96059   3.353   2.195   8.527  0.8813  0.3216 -1.6996
  712MOL0     H96060   3.343   2.079   8.394 -0.8841  0.5824  0.0689
  712MOL0     H96061   3.418   1.992   8.669 -1.4229 -0.9999 -0.1033
  712MOL0     H96062   3.414   1.879   8.535 -2.8226  0.0846  1.7441
  712MOL0     H96063   3.592   1.988   8.417 -0.0625 -0.5590  0.0207
  712MOL0     H96064   3.599   2.113   8.547 -0.9310 -0.4254 -0.9504
  712MOL0     H96065   3.667   1.939   8.701  1.9482 -0.3262 -0.3637
  712MOL0     H96066   3.649   1.811   8.576 -2.1416  1.3744  0.1728
  712MOL0     H96067   3.828   2.047   8.566 -2.0926  0.4394 -0.2494
  712MOL0     H96068   3.817   1.932   8.437 -1.7061  2.5537 -0.5616
  712MOL0     H96069   3.921   1.880   8.719 -0.5597 -3.1886  1.0901
  712MOL0     H96070   3.901   1.756   8.593 -0.9927  0.3132  0.8909
  712MOL0     H96071   4.065   1.788   8.363 -2.3140  2.1673 -1.6854
  712MOL0     H96072   4.302   1.806   8.283  0.8913 -0.2651 -0.0858
  712MOL0     H96073   4.300   1.981   8.228  1.7489 -0.4644 -0.0920
  712MOL0     H96074   4.463   2.010   8.419  0.0354 -1.4641  1.1606
  712MOL0     H96075   4.492   1.841   8.413  2.4534 -0.4252 -0.6322
  712MOL0     H96076   4.535   1.995   8.158  2.4231 -0.3085 -1.3433
  712MOL0     H96077   4.588   1.831   8.200 -2.9461 -1.1244  0.0969
  712MOL0     H96078   4.742   1.935   8.375  0.2966  2.1045  2.6586
  712MOL0     H96079   4.667   2.095   8.340 -0.6904  1.7666 -3.0133
  712MOL0     H96080   5.011   1.997   8.044  1.3758 -2.4977  1.4310
  712MOL0     H96081   5.211   2.124   8.059  1.0090 -0.7563  0.5260
  712MOL0     H96082   5.416   2.529   8.195 -1.3489 -1.9264  0.7693
  712MOL0     H96083   5.596   2.687   8.234 -1.1598 -1.0450  0.1571
  712MOL0     H96084   5.760   2.759   8.647  2.1882  3.8255  0.2375
  712MOL0     H96085   5.856   2.621   8.579 -2.0906 -0.8316  0.7111
  712MOL0     H96086   5.890   2.921   8.547  0.3181 -0.2190  0.3688
  712MOL0     H96087   6.010   2.809   8.611  1.8704  2.6183 -0.3252
  712MOL0     H96088   5.927   2.866   8.312  0.4152  0.1267 -0.7434
  712MOL0     H96089   6.076   2.892   8.390 -0.4533  0.8290 -1.1223
  712MOL0     H96090   5.959   2.605   8.338  0.5008 -1.7183  1.4330
  712MOL0     H96091   6.112   2.653   8.416  1.6002 -0.6831 -1.3059
  712MOL0     H96092   6.146   2.776   8.193 -3.1916  1.4889  1.0875
  712MOL0     H96093   6.005   2.692   8.125 -1.0169  0.7601  0.9298
  712MOL0     H96094   6.257   2.554   8.227 -0.5708 -1.2870  0.7768
  712MOL0     H96095   6.112   2.468   8.181 -2.4557  2.0210  0.9066
  712MOL0     H96096   6.308   2.498   8.002  0.9287  1.0371 -3.1141
  712MOL0     H96097   6.276   2.673   8.025 -1.1474  0.0752 -1.5349
  712MOL0     H96098   6.054   2.500   7.929 -1.2715  0.8018 -0.5639
  712MOL0     H96099   6.087   2.668   7.884  2.7721  0.1073 -3.5153
  712MOL0     H96100   5.593   2.588   8.651  0.3885 -5.0217  0.9052
  712MOL0     H96101   5.409   2.442   8.619 -0.6107 -0.8104  0.4297
  712MOL0     H96102   5.072   2.314   8.417  1.3940 -0.4075  0.1787
  712MOL0     H96103   4.858   2.207   8.399  0.9575 -0.0687  0.9209
  712MOL0     H96104   2.717   2.039   8.477  0.0385  0.0408 -1.2789
  712MOL0     H96105   2.518   2.156   8.511  1.6048 -1.1065 -0.6517
  712MOL0     H96106   2.117   2.348   8.488 -0.2082  0.4650 -3.6004
  712MOL0     H96107   1.932   2.498   8.538 -0.3926  0.2099  2.9960
  712MOL0     H96108   1.993   2.930   8.537 -0.7417  2.8890  1.9113
  712MOL0     H96109   1.884   2.925   8.674 -1.4037 -0.2952  0.2385
  712MOL0     H96110   1.817   2.832   8.402 -3.3431  1.2482 -1.6520
  712MOL0     H96111   1.777   2.987   8.456  1.8011  0.4498 -1.1354
  712MOL0     H96112   1.626   2.910   8.642  0.5629  0.1283 -0.1488
  712MOL0     H96113   1.674   2.745   8.618  0.5077  1.4608  2.3125
  712MOL0     H96114   1.521   2.948   8.429  0.0177 -0.3741  0.2591
  712MOL0     H96115   1.553   2.787   8.375 -1.9683 -0.6984  0.6101
  712MOL0     H96116   1.243   2.726   8.660  0.6631  1.2169  1.5493
  712MOL0     H96117   2.188   2.821   8.617 -3.0480  0.5269 -3.1740
  712MOL0     H96118   2.464   2.668   8.684 -2.0632 -0.1368  0.4738
  712MOL0     H96119   2.511   2.672   8.511 -1.0497 -3.0408  0.0522
  712MOL0     H96120   2.429   2.810   8.580 -1.3836  0.2388 -0.1729
  713MOL0     O96121   1.734  10.563   3.050  0.6374 -0.8277 -0.1531
  713MOL0     C96122   1.701  10.477   2.963  0.2610 -0.5001 -0.9492
  713MOL0     O96123   1.782  10.398   2.882 -0.3587 -0.3589  0.2604
  713MOL0     C96124   1.918  10.406   2.893 -0.1021 -0.2133  0.5143
  713MOL0     C96125   2.002  10.428   2.787 -0.2643 -0.4085  0.2418
  713MOL0     C96126   2.140  10.427   2.807 -0.2811 -0.4490  0.4736
  713MOL0     C96127   2.199  10.392   2.929  0.2148 -0.0727 -0.7956
  713MOL0     O96128   2.332  10.390   2.957  1.1984 -0.1582 -0.3807
  713MOL0     C96129   2.380  10.524   2.967  0.3046  0.7464  0.2126
  713MOL0     C96130   2.503  10.514   3.052 -0.1266  0.6207  0.7699
  713MOL0     C96131   2.596  10.632   3.043  0.2776  0.3990 -0.0399
  713MOL0     C96132   2.712  10.627   3.151 -0.4791  0.6815  0.3943
  713MOL0     C96133   2.817  10.733   3.131  0.5479 -0.5248  0.3353
  713MOL0     C96134   2.901  10.723   3.253 -0.6022 -0.0730 -0.7763
  713MOL0     C96135   3.007  10.833   3.235  0.5936  0.7602  0.5418
  713MOL0     C96136   3.088  10.832   3.364  0.3213 -0.1374  0.1293
  713MOL0     N96137   3.193  10.939   3.378 -0.4279 -0.6351 -0.2151
  713MOL0     C96138   3.157  11.073   3.415 -0.7535 -0.7656 -0.4769
  713MOL0     C96139   3.278  11.131   3.414  0.1260  0.1362  0.5684
  713MOL0     C96140   3.297  11.281   3.445 -0.0465  0.2155  0.4415
  713MOL0     C96141   3.376  11.300   3.582 -0.7980 -0.0668  0.1762
  713MOL0     C96142   3.431  11.440   3.587  0.2951 -0.2516 -0.4224
  713MOL0     C96143   3.531  11.450   3.702  0.4272 -0.1330 -0.1816
  713MOL0     O96144   3.615  11.559   3.691 -0.5276  0.0281  0.0613
  713MOL0     C96145   3.749  11.541   3.674 -0.2610 -0.9703  0.9166
  713MOL0     C96146   3.834  11.433   3.719  0.2462 -0.2493 -0.0202
  713MOL0     C96147   3.970  11.440   3.698  0.1205 -0.6526 -0.3708
  713MOL0     C96148   4.024  11.545   3.626 -0.9979 -0.5876 -0.1501
  713MOL0     C96149   4.175  11.537   3.592  0.3671 -0.4491  0.0519
  713MOL0     O96150   4.220  11.636   3.523 -0.2260 -0.5596 -0.1333
  713MOL0     C96151   4.356  11.655   3.526 -0.9225  0.8806  0.2307
  713MOL0     C96152   4.413  11.659   3.398 -0.9739  0.0740 -0.5703
  713MOL0     C96153   4.549  11.672   3.385 -1.1053 -0.4126 -1.6619
  713MOL0     C96154   4.634  11.683   3.500 -0.2458  0.4626 -0.0924
  713MOL0     O96155   4.772  11.690   3.510 -0.0646 -0.2145  0.3468
  713MOL0     C96156   4.835  11.641   3.389  0.1698 -0.2178 -0.4325
  713MOL0     C96157   4.987  11.625   3.411 -1.1159 -0.1245  0.3791
  713MOL0     C96158   5.042  11.565   3.545  0.4615 -0.9506 -0.4928
  713MOL0     C96159   5.191  11.598   3.562 -0.1720 -0.9779 -0.0536
  713MOL0     C96160   5.230  11.749   3.580 -0.5198 -0.1535 -0.3632
  713MOL0     C96161   5.368  11.777   3.651 -0.4524  0.0830 -0.0503
  713MOL0     C96162   5.497  11.724   3.581 -0.5689 -0.2654 -0.2336
  713MOL0     C96163   5.617  11.806   3.626  0.4103 -0.2155  0.5251
  713MOL0    Cl96164   5.671  11.762   3.789 -0.2256 -0.3516 -0.0131
  713MOL0     C96165   4.566  11.696   3.624 -0.3872  0.3295  0.2811
  713MOL0     C96166   4.432  11.682   3.632  0.7160 -0.0109  0.3797
  713MOL0     O96167   4.242  11.440   3.625  0.1172  0.2364 -0.3038
  713MOL0     C96168   3.950  11.651   3.579 -0.4446 -0.8402  0.6632
  713MOL0     C96169   3.809  11.647   3.602  0.0830  0.5989  0.2548
  713MOL0     N96170   3.379  11.040   3.373 -0.8536  0.2254  0.6078
  713MOL0     N96171   3.321  10.925   3.346 -0.8350 -0.7611  0.0701
  713MOL0     C96172   2.121  10.356   3.036  0.1432 -0.3719  0.3780
  713MOL0     C96173   1.983  10.368   3.024  0.5894  0.1163  0.5738
  713MOL0     C96174   1.554  10.443   2.962  0.9613  0.0998 -0.8704
  713MOL0     C96175   1.458  10.543   2.984 -0.4528 -0.0358  0.3358
  713MOL0     C96176   1.318  10.519   3.004  0.1258  0.1657 -0.1703
  713MOL0     C96177   1.275  10.389   2.977  0.4907 -0.4129  0.2121
  713MOL0     O96178   1.143  10.351   2.993 -0.1619 -0.1085  0.2022
  713MOL0     C96179   1.082  10.284   2.884 -0.2382 -0.0134 -0.0270
  713MOL0     C96180   1.005  10.397   2.805  0.4297  0.6576  0.3963
  713MOL0     C96181   0.913  10.334   2.693 -0.2291 -0.2981  0.1528
  713MOL0     C96182   0.789  10.263   2.756 -0.9013 -0.4715  0.2743
  713MOL0     C96183   0.766  10.140   2.675  0.2252 -0.0867 -0.7309
  713MOL0     C96184   0.724  10.036   2.620 -0.6156  0.4128  0.3894
  713MOL0     C96185   1.365  10.288   2.962 -0.9147 -0.4434 -0.1584
  713MOL0     C96186   1.503  10.311   2.953 -0.1419 -0.4374  0.9926
  713MOL0     C96187   1.590  10.189   2.935  0.7217  0.0625  0.3378
  713MOL0     H96188   1.944  10.449   2.697  1.7401  1.6430 -0.6566
  713MOL0     H96189   2.203  10.456   2.723  1.0465 -0.2026  1.5152
  713MOL0     H96190   2.399  10.568   2.869  2.2686 -1.2297 -0.3616
  713MOL0     H96191   2.319  10.592   3.026  1.4495  1.3423  0.7490
  713MOL0     H96192   2.559  10.422   3.034 -0.3276  0.4116  1.2086
  713MOL0     H96193   2.468  10.517   3.156 -2.5750 -0.9947  0.0793
  713MOL0     H96194   2.549  10.729   3.063  2.3462  1.1325  1.7152
  713MOL0     H96195   2.637  10.638   2.942 -0.6812 -0.9853 -0.5445
  713MOL0     H96196   2.660  10.640   3.246 -0.1053 -2.4892  1.1412
  713MOL0     H96197   2.767  10.532   3.146 -0.6073  0.6515 -1.0289
  713MOL0     H96198   2.874  10.715   3.040 -1.3907 -0.0039 -1.0456
  713MOL0     H96199   2.767  10.830   3.117 -0.9615 -1.5213 -1.7846
  713MOL0     H96200   2.834  10.725   3.340  0.0058 -3.0178 -0.1152
  713MOL0     H96201   2.957  10.630   3.262  0.1582  0.5116  1.2159
  713MOL0     H96202   2.966  10.932   3.213  0.1140  0.8940  1.9351
  713MOL0     H96203   3.077  10.814   3.153 -0.2803  1.1476 -0.3061
  713MOL0     H96204   3.019  10.840   3.449  2.1678 -0.0850  1.7063
  713MOL0     H96205   3.139  10.735   3.373  2.4152  0.8268 -0.6938
  713MOL0     H96206   3.062  11.119   3.441 -0.0209  1.0332 -0.8509
  713MOL0     H96207   3.352  11.326   3.363  0.2007  0.1043  0.5455
  713MOL0     H96208   3.198  11.325   3.457 -0.2936 -0.1100 -0.3789
  713MOL0     H96209   3.311  11.274   3.666 -0.7061 -0.0320  0.2581
  713MOL0     H96210   3.454  11.224   3.591  1.5057  1.3802 -4.3125
  713MOL0     H96211   3.351  11.514   3.599  0.3384 -0.4393  1.4492
  713MOL0     H96212   3.479  11.466   3.493 -0.2973  0.1691 -0.6181
  713MOL0     H96213   3.590  11.358   3.705  0.2792 -0.2166  0.8777
  713MOL0     H96214   3.470  11.456   3.793 -2.6436 -0.0219 -2.1045
  713MOL0     H96215   3.794  11.346   3.771 -1.2859  1.0254  0.9991
  713MOL0     H96216   4.032  11.359   3.737 -1.8567 -0.8835  2.6612
  713MOL0     H96217   4.353  11.642   3.309 -0.7377  2.0842 -1.1520
  713MOL0     H96218   4.593  11.662   3.287 -2.3287 -2.5477 -2.0425
  713MOL0     H96219   4.795  11.543   3.366 -0.3679 -0.0726 -0.1478
  713MOL0     H96220   4.822  11.711   3.306  3.9549 -0.2280 -1.2476
  713MOL0     H96221   5.024  11.551   3.339  2.7017  1.5342  0.4278
  713MOL0     H96222   5.038  11.718   3.387  1.5871 -1.8569 -1.1247
  713MOL0     H96223   4.982  11.608   3.625  0.2831  0.3119 -1.2811
  713MOL0     H96224   5.022  11.459   3.562  0.4982 -0.9331 -0.3427
  713MOL0     H96225   5.246  11.568   3.472  1.1744  0.5513  0.2073
  713MOL0     H96226   5.243  11.542   3.641  0.7102 -2.7692 -1.8074
  713MOL0     H96227   5.149  11.780   3.647 -0.4362  1.5800 -1.0204
  713MOL0     H96228   5.222  11.791   3.480  1.7190 -2.0647 -1.4276
  713MOL0     H96229   5.377  11.884   3.671  0.7175  0.3608 -1.8797
  713MOL0     H96230   5.360  11.729   3.749 -0.3644  0.4490  0.1363
  713MOL0     H96231   5.482  11.729   3.473 -0.3904  2.4503 -0.1791
  713MOL0     H96232   5.500  11.620   3.617  0.4992  0.4322  1.8763
  713MOL0     H96233   5.703  11.786   3.562  0.7050  3.0098 -0.2689
  713MOL0     H96234   5.597  11.913   3.614  1.3860 -0.1113 -0.2973
  713MOL0     H96235   4.629  11.727   3.707  0.3844 -0.8000  0.1438
  713MOL0     H96236   4.393  11.689   3.733  3.9026  0.0659  1.7477
  713MOL0     H96237   4.000  11.723   3.515 -0.9393 -0.3906  0.7727
  713MOL0     H96238   3.749  11.730   3.567 -2.0926 -0.3252  1.6224
  713MOL0     H96239   2.176  10.339   3.128 -2.2033 -0.7041  1.8122
  713MOL0     H96240   1.932  10.354   3.118 -0.9066 -0.0038 -0.2205
  713MOL0     H96241   1.492  10.644   3.000  0.0073  0.2194 -1.8967
  713MOL0     H96242   1.253  10.597   3.042 -0.0591  0.3021 -0.7564
  713MOL0     H96243   1.018  10.203   2.921  1.0234 -0.5271  1.1081
  713MOL0     H96244   1.161  10.251   2.817  1.6121 -0.0508  2.0682
  713MOL0     H96245   1.077  10.462   2.755  1.3514 -1.6984 -1.5245
  713MOL0     H96246   0.948  10.441   2.888  0.2500  1.5942 -0.2062
  713MOL0     H96247   0.968  10.266   2.627 -0.4424  0.8751 -1.2986
  713MOL0     H96248   0.865  10.407   2.627 -0.0489  0.1972  0.5589
  713MOL0     H96249   0.809  10.244   2.861  3.5864 -1.2998 -0.5163
  713MOL0     H96250   0.708  10.335   2.741  1.6665  2.4322 -0.8237
  713MOL0     H96251   0.693   9.942   2.579 -0.9800 -0.4682  2.5411
  713MOL0     H96252   1.331  10.187   2.940  0.7030 -0.6315 -2.0298
  713MOL0     H96253   1.649  10.193   2.843  1.1078  0.4793  0.6012
  713MOL0     H96254   1.664  10.187   3.015  2.5248  1.8098 -1.1922
  713MOL0     H96255   1.526  10.100   2.940 -3.1999  2.4342 -1.9679
  714MOL0     O96256   5.122   5.463   3.837  0.1646 -0.2528  0.0871
  714MOL0     C96257   5.080   5.432   3.950 -0.1184 -0.8083 -0.6656
  714MOL0     O96258   5.164   5.400   4.060 -0.0336  0.5985 -0.2635
  714MOL0     C96259   5.297   5.409   4.038 -0.3686 -0.6768  0.0228
  714MOL0     C96260   5.344   5.534   4.015 -0.1463 -0.2091  0.3178
  714MOL0     C96261   5.487   5.550   3.999 -0.9562 -0.6813 -0.0260
  714MOL0     C96262   5.578   5.441   4.006  0.6737  0.8042 -0.1139
  714MOL0     O96263   5.716   5.448   3.996 -0.6495 -0.5051  0.4836
  714MOL0     C96264   5.783   5.545   3.908  0.4855  0.1757  0.2828
  714MOL0     C96265   5.833   5.468   3.788  0.0166  1.3487  0.2425
  714MOL0     C96266   5.941   5.368   3.829  0.5459  0.5773 -0.3846
  714MOL0     C96267   5.981   5.271   3.718  0.3441  0.2553  0.2356
  714MOL0     C96268   6.038   5.337   3.592 -0.5916 -0.8842  1.0280
  714MOL0     C96269   6.172   5.411   3.614 -0.2937  0.0938 -0.1727
  714MOL0     C96270   6.230   5.457   3.479 -0.1895 -1.2768 -0.5051
  714MOL0     C96271   6.378   5.476   3.490 -0.3394 -0.1893  0.5026
  714MOL0     N96272   6.444   5.340   3.501 -0.0268  0.0672  0.5246
  714MOL0     C96273   6.433   5.236   3.405  0.5955  0.7774  1.1992
  714MOL0     C96274   6.527   5.152   3.445  0.0006  0.1680 -0.2923
  714MOL0     C96275   6.554   5.014   3.375 -0.3707  0.0611  0.5382
  714MOL0     C96276   6.593   5.029   3.225  0.1597 -0.0170  0.6378
  714MOL0     C96277   6.710   5.129   3.211 -0.9985  0.0063 -0.5718
  714MOL0     C96278   6.845   5.066   3.252 -0.3372  0.0687  0.1834
  714MOL0     O96279   6.940   5.152   3.190  0.0347 -0.1012  0.4998
  714MOL0     C96280   7.059   5.095   3.141 -0.6200 -0.2323  0.2990
  714MOL0     C96281   7.064   4.987   3.060 -0.1588  0.1770  0.1480
  714MOL0     C96282   7.179   4.922   3.037 -0.2522 -0.0216  0.0084
  714MOL0     C96283   7.303   4.982   3.083  0.8683  0.3101 -0.3724
  714MOL0     C96284   7.434   4.934   3.027 -0.3960 -0.3019  0.2756
  714MOL0     O96285   7.545   5.010   3.046  0.7094 -0.1161  0.0421
  714MOL0     C96286   7.666   4.964   2.995  0.3167  0.8393  0.9645
  714MOL0     C96287   7.701   4.991   2.871 -0.0163  0.5343 -0.0744
  714MOL0     C96288   7.824   4.946   2.826  0.5033 -0.2154 -0.0733
  714MOL0     C96289   7.915   4.884   2.915  0.1540 -1.3415 -0.3570
  714MOL0     O96290   8.033   4.851   2.861 -0.8976 -0.0278  0.4630
  714MOL0     C96291   8.146   4.824   2.955  0.1905 -0.1460  0.1470
  714MOL0     C96292   8.274   4.801   2.871  0.4004 -0.4661  0.2206
  714MOL0     C96293   8.390   4.773   2.959 -0.4882  0.0534 -0.3531
  714MOL0     C96294   8.519   4.746   2.879 -0.1381  0.1788 -0.6287
  714MOL0     C96295   8.628   4.654   2.939  0.2443 -0.2554 -0.5666
  714MOL0     C96296   8.664   4.679   3.089 -0.0775 -0.8662 -0.1153
  714MOL0     C96297   8.709   4.546   3.159  1.0984 -0.0001 -0.3384
  714MOL0     C96298   8.591   4.449   3.204  0.0151 -0.2450  0.4611
  714MOL0    Cl96299   8.512   4.527   3.347  0.4220 -0.3151  0.1781
  714MOL0     C96300   7.880   4.859   3.048  0.0945  0.2707  0.2828
  714MOL0     C96301   7.750   4.892   3.085  0.6526 -0.6953  0.1890
  714MOL0     O96302   7.430   4.837   2.956 -0.0351 -0.5026 -0.6982
  714MOL0     C96303   7.301   5.098   3.156 -0.6230  0.1511  0.4435
  714MOL0     C96304   7.180   5.146   3.188 -0.0265 -0.1489  0.3173
  714MOL0     N96305   6.582   5.194   3.562 -0.7160  0.2295  0.5079
  714MOL0     N96306   6.530   5.301   3.606 -0.1195  0.3661 -0.0520
  714MOL0     C96307   5.522   5.312   4.016 -0.1500 -0.3384 -0.0437
  714MOL0     C96308   5.386   5.298   4.039 -0.1581 -0.0743 -0.2073
  714MOL0     C96309   4.943   5.445   3.986 -1.5304 -0.0254 -0.7967
  714MOL0     C96310   4.902   5.375   4.106  0.1551 -0.8583  0.3717
  714MOL0     C96311   4.769   5.380   4.144 -0.9353  0.3226  0.0677
  714MOL0     C96312   4.681   5.446   4.066  0.1793 -0.5010  0.8934
  714MOL0     O96313   4.558   5.427   4.117  0.6916  0.6152 -0.7039
  714MOL0     C96314   4.437   5.459   4.040 -1.8068 -0.1648  0.3774
  714MOL0     C96315   4.310   5.409   4.112  0.0079  0.0229 -0.1745
  714MOL0     C96316   4.180   5.490   4.087  0.3529  0.8693 -0.9790
  714MOL0     C96317   4.054   5.411   4.128 -0.5563  0.1932 -0.1203
  714MOL0     C96318   4.045   5.276   4.078 -0.1004  0.0886  0.7622
  714MOL0     C96319   4.033   5.151   4.050 -0.5440  0.0538 -0.3048
  714MOL0     C96320   4.707   5.496   3.936  0.0363 -0.0308  0.0414
  714MOL0     C96321   4.846   5.506   3.903  0.3961 -0.2488  0.5377
  714MOL0     C96322   4.873   5.581   3.769 -0.4938 -0.9950  0.0242
  714MOL0     H96323   5.275   5.617   4.027  1.6140  1.5060 -0.7672
  714MOL0     H96324   5.512   5.654   3.982 -2.2043 -0.2526  0.5671
  714MOL0     H96325   5.715   5.627   3.884  1.1914  0.6594 -0.0734
  714MOL0     H96326   5.868   5.592   3.957 -0.1623  1.4028  0.2575
  714MOL0     H96327   5.870   5.533   3.708  0.5388  2.0634  1.0517
  714MOL0     H96328   5.749   5.410   3.748  0.7321  0.1323  0.4467
  714MOL0     H96329   5.895   5.295   3.896  1.0251 -1.4057 -2.1512
  714MOL0     H96330   6.025   5.412   3.884 -0.8110  3.4247 -0.4012
  714MOL0     H96331   6.050   5.195   3.756 -0.0347  0.6584  1.7746
  714MOL0     H96332   5.897   5.207   3.690  0.4741  0.5721 -0.9555
  714MOL0     H96333   6.057   5.257   3.519  0.7059 -0.0964  0.4698
  714MOL0     H96334   5.974   5.414   3.548 -1.0772 -0.9327  1.6454
  714MOL0     H96335   6.151   5.501   3.672  1.8443  1.5429 -1.4915
  714MOL0     H96336   6.243   5.349   3.669  1.0431  3.2627  1.9485
  714MOL0     H96337   6.181   5.549   3.447  0.8941 -1.0518 -1.5769
  714MOL0     H96338   6.210   5.375   3.409  1.5284 -2.3402  0.1664
  714MOL0     H96339   6.417   5.517   3.396 -1.2044 -0.9182 -0.1989
  714MOL0     H96340   6.399   5.545   3.572  1.9065 -0.7332  0.4465
  714MOL0     H96341   6.377   5.231   3.312  3.0316  0.7436 -0.3473
  714MOL0     H96342   6.636   4.964   3.426 -0.6868 -3.1461 -1.8056
  714MOL0     H96343   6.467   4.948   3.373 -0.9812  0.8471 -1.4084
  714MOL0     H96344   6.620   4.935   3.175  0.2092  0.0289  0.5782
  714MOL0     H96345   6.507   5.069   3.170  0.6842  2.0166  1.2122
  714MOL0     H96346   6.690   5.226   3.258 -1.4018 -0.3430 -0.0009
  714MOL0     H96347   6.722   5.151   3.105 -0.4587 -0.1006 -0.5326
  714MOL0     H96348   6.859   4.962   3.220 -2.9403 -0.5365  0.7932
  714MOL0     H96349   6.874   5.074   3.357 -2.8106 -1.9158  1.1132
  714MOL0     H96350   6.973   4.943   3.018  0.4203 -1.9229  0.9486
  714MOL0     H96351   7.180   4.828   2.984  1.0473 -0.3245  0.5338
  714MOL0     H96352   7.630   5.045   2.809  0.0821  1.6378  0.7413
  714MOL0     H96353   7.855   4.960   2.723  1.2720  1.1299  0.3203
  714MOL0     H96354   8.158   4.912   3.019  0.8833  1.0049 -1.5118
  714MOL0     H96355   8.134   4.731   3.012  2.6371 -1.7196 -1.6849
  714MOL0     H96356   8.261   4.719   2.799  0.7292  2.0442 -2.9046
  714MOL0     H96357   8.297   4.883   2.803  3.3265  0.1454  1.8299
  714MOL0     H96358   8.420   4.856   3.025  1.0086  0.5270 -1.5733
  714MOL0     H96359   8.370   4.681   3.014 -0.1863 -0.1192 -0.5331
  714MOL0     H96360   8.565   4.845   2.870 -1.0871  0.7550  0.4963
  714MOL0     H96361   8.501   4.703   2.780  1.7923 -1.5506 -0.2916
  714MOL0     H96362   8.722   4.664   2.884 -0.1457 -0.4200 -1.2676
  714MOL0     H96363   8.588   4.552   2.938  0.3372 -0.4567  3.2783
  714MOL0     H96364   8.747   4.750   3.098  0.1023 -1.2840  2.5681
  714MOL0     H96365   8.582   4.716   3.151 -0.1034 -1.9138  0.5074
  714MOL0     H96366   8.756   4.583   3.251 -1.0359  1.2351  0.3332
  714MOL0     H96367   8.792   4.500   3.105  2.8753  1.0858  1.3220
  714MOL0     H96368   8.519   4.434   3.123  1.1435 -0.2827 -0.5776
  714MOL0     H96369   8.639   4.353   3.222 -0.5551 -1.0169 -1.7657
  714MOL0     H96370   7.948   4.813   3.119  2.9140  0.7031 -1.9476
  714MOL0     H96371   7.721   4.887   3.189  2.2116  1.5528  0.8284
  714MOL0     H96372   7.394   5.147   3.183  0.7051 -2.5959  1.1558
  714MOL0     H96373   7.181   5.234   3.252  0.9628  0.4767 -0.5342
  714MOL0     H96374   5.584   5.223   4.004  0.4026  0.0396  0.0176
  714MOL0     H96375   5.339   5.201   4.044  0.3508 -0.3527 -0.7402
  714MOL0     H96376   4.972   5.319   4.167  2.7587  1.0127 -0.7059
  714MOL0     H96377   4.744   5.343   4.243 -0.9545  0.1655  0.0055
  714MOL0     H96378   4.453   5.412   3.943 -1.5172 -0.6812  0.6725
  714MOL0     H96379   4.436   5.569   4.035 -1.7031 -0.0582  2.1859
  714MOL0     H96380   4.327   5.420   4.220 -2.5429 -2.3868  0.6000
  714MOL0     H96381   4.301   5.302   4.093 -0.5832 -0.1957  1.1573
  714MOL0     H96382   4.172   5.526   3.984 -0.1525 -0.0535 -1.2684
  714MOL0     H96383   4.177   5.572   4.159 -3.7634 -2.0677  2.7178
  714MOL0     H96384   4.056   5.399   4.237 -0.9383  2.8402  0.2355
  714MOL0     H96385   3.964   5.463   4.094  0.0754  0.1827 -1.8904
  714MOL0     H96386   4.040   5.046   4.030  0.0385 -0.2731  1.4303
  714MOL0     H96387   4.631   5.537   3.871 -0.3822  4.1004  2.8146
  714MOL0     H96388   4.930   5.672   3.789 -0.9808 -0.7303  0.2181
  714MOL0     H96389   4.933   5.529   3.694 -0.6965 -0.9510 -0.1708
  714MOL0     H96390   4.779   5.606   3.720 -2.2868 -2.6283  2.3694
  715MOL0     O96391   1.322   8.607  10.855  0.1561 -1.0402  0.6530
  715MOL0     C96392   1.329   8.729  10.868  0.4755 -0.7399 -0.3762
  715MOL0     O96393   1.433   8.809  10.811 -0.3936  0.0465 -0.1408
  715MOL0     C96394   1.558   8.751  10.801 -0.1208 -0.0356  0.2793
  715MOL0     C96395   1.609   8.670  10.911  0.2211  0.1133  0.3504
  715MOL0     C96396   1.733   8.606  10.896 -0.1496 -0.1095  0.8158
  715MOL0     C96397   1.804   8.634  10.778 -0.5550 -0.1424 -0.9716
  715MOL0     O96398   1.923   8.570  10.768 -0.3449 -0.7247 -0.0061
  715MOL0     C96399   2.031   8.617  10.675  0.2292  0.0399  0.3171
  715MOL0     C96400   2.151   8.530  10.722 -0.4115 -0.9575 -0.1288
  715MOL0     C96401   2.288   8.577  10.662  0.4403  0.1825 -0.2387
  715MOL0     C96402   2.392   8.479  10.698 -1.2184  1.1358 -0.0407
  715MOL0     C96403   2.528   8.535  10.640  0.6238  1.1740  0.1312
  715MOL0     C96404   2.647   8.455  10.694  0.6710  0.2119 -0.0778
  715MOL0     C96405   2.778   8.486  10.619 -0.4000 -0.1647  0.1599
  715MOL0     C96406   2.889   8.424  10.702  0.7340 -0.0977 -0.3972
  715MOL0     N96407   3.020   8.464  10.653  0.0373 -0.3429 -0.4545
  715MOL0     C96408   3.128   8.457  10.735 -0.3938  0.0664  0.3128
  715MOL0     C96409   3.230   8.487  10.648 -0.3299 -0.0864 -1.0658
  715MOL0     C96410   3.366   8.486  10.705  0.0790 -0.0033 -0.1879
  715MOL0     C96411   3.474   8.536  10.609 -0.1225 -0.2120 -0.1253
  715MOL0     C96412   3.607   8.557  10.670  0.0679  0.4068  0.0860
  715MOL0     C96413   3.734   8.554  10.581  0.3747 -0.5313  0.6185
  715MOL0     O96414   3.847   8.572  10.665 -0.4215 -0.0717  0.3748
  715MOL0     C96415   3.969   8.553  10.605 -1.0120 -0.4076  0.4194
  715MOL0     C96416   3.990   8.526  10.466 -0.1835  0.4431  0.1715
  715MOL0     C96417   4.111   8.503  10.417  0.4131  0.6296  0.5765
  715MOL0     C96418   4.220   8.499  10.500  0.4697 -0.1751 -0.2095
  715MOL0     C96419   4.352   8.448  10.451 -0.3366 -0.4502 -0.7836
  715MOL0     O96420   4.450   8.446  10.544  0.4631  0.6570 -0.0579
  715MOL0     C96421   4.575   8.385  10.512  0.5404 -0.1296 -0.5679
  715MOL0     C96422   4.641   8.410  10.396 -0.2286  0.6007  0.3745
  715MOL0     C96423   4.760   8.355  10.373 -0.1296  0.3658  0.3269
  715MOL0     C96424   4.819   8.264  10.458  0.4955  0.1268 -0.5565
  715MOL0     O96425   4.936   8.177  10.439  0.2491  0.0519 -0.3657
  715MOL0     C96426   5.003   8.179  10.307  0.8012 -0.6574 -0.4133
  715MOL0     C96427   5.122   8.269  10.323  0.1046  0.4960 -0.8070
  715MOL0     C96428   5.184   8.286  10.188  0.1308  0.0345  0.1220
  715MOL0     C96429   5.274   8.174  10.136  0.2831 -0.1372 -0.0573
  715MOL0     C96430   5.373   8.219  10.024  0.8453  1.0592  0.4592
  715MOL0     C96431   5.490   8.293  10.079  0.4277  0.2438 -0.7202
  715MOL0     C96432   5.587   8.346   9.967 -0.6915 -0.6735  0.6478
  715MOL0     C96433   5.687   8.245   9.931  0.5086  0.2504  0.1347
  715MOL0    Cl96434   5.808   8.225  10.063 -0.1518  0.1029  0.3547
  715MOL0     C96435   4.766   8.254  10.589 -0.1820  0.1601  0.6325
  715MOL0     C96436   4.642   8.318  10.618  0.2651  0.2460 -0.9816
  715MOL0     O96437   4.364   8.425  10.333  0.0393  0.1722 -0.1077
  715MOL0     C96438   4.204   8.537  10.637 -0.2521  0.1940  0.2693
  715MOL0     C96439   4.082   8.572  10.691  0.3741  0.0214  0.0638
  715MOL0     N96440   3.175   8.531  10.528 -0.6625 -0.1320  1.3560
  715MOL0     N96441   3.049   8.513  10.528 -0.5610  0.2633 -0.1283
  715MOL0     C96442   1.756   8.715  10.683  0.0927 -0.2017  0.3082
  715MOL0     C96443   1.631   8.765  10.685  0.3613  0.1983  0.9335
  715MOL0     C96444   1.204   8.802  10.911 -0.3296 -0.2680 -0.1167
  715MOL0     C96445   1.092   8.724  10.946 -1.1805 -0.7075 -0.1533
  715MOL0     C96446   0.975   8.782  10.993 -0.8923 -0.7876  0.1229
  715MOL0     C96447   0.970   8.925  11.001  0.7215 -0.1508 -0.6762
  715MOL0     O96448   0.850   8.973  11.045 -0.2641 -0.9624  0.0098
  715MOL0     C96449   0.785   9.071  10.964  0.3288 -0.1082  0.0873
  715MOL0     C96450   0.755   9.204  11.041 -0.1515 -0.1121 -0.3084
  715MOL0     C96451   0.666   9.305  10.960 -0.1424  0.8520  0.5717
  715MOL0     C96452   0.588   9.403  11.054 -1.0700  0.8844  0.2440
  715MOL0     C96453   0.680   9.497  11.119  0.5410  0.1649  0.3342
  715MOL0     C96454   0.756   9.578  11.147  0.7707 -0.2224 -0.2893
  715MOL0     C96455   1.079   8.999  10.972 -0.4978 -0.6048  1.2513
  715MOL0     C96456   1.198   8.943  10.924 -0.0253  0.0927 -0.0376
  715MOL0     C96457   1.311   9.042  10.887  0.2274 -0.0411 -0.8589
  715MOL0     H96458   1.560   8.649  11.005  0.0558 -0.9213  0.0432
  715MOL0     H96459   1.772   8.545  10.976  1.8296 -1.2238 -0.8830
  715MOL0     H96460   1.999   8.592  10.573 -1.3225 -4.5221  1.6622
  715MOL0     H96461   2.061   8.721  10.690  1.4395 -0.1068 -0.8666
  715MOL0     H96462   2.130   8.424  10.701 -0.9275 -0.8023 -0.4240
  715MOL0     H96463   2.160   8.541  10.830  1.2371  4.9913 -0.5437
  715MOL0     H96464   2.308   8.678  10.698 -1.8432  1.2373 -1.6975
  715MOL0     H96465   2.278   8.591  10.554  1.0066  1.6634 -0.1200
  715MOL0     H96466   2.401   8.472  10.807 -1.1617  3.3014  0.1431
  715MOL0     H96467   2.370   8.383  10.651 -0.9459  1.2454 -0.4027
  715MOL0     H96468   2.535   8.528  10.531  0.9966  3.8744 -0.0950
  715MOL0     H96469   2.543   8.639  10.669  2.1839  0.5168  1.9298
  715MOL0     H96470   2.655   8.460  10.802  0.6114 -0.2555 -0.0486
  715MOL0     H96471   2.623   8.353  10.662 -0.4205  0.7892 -1.2177
  715MOL0     H96472   2.789   8.594  10.605  1.2745 -0.4237 -0.7788
  715MOL0     H96473   2.773   8.433  10.523 -0.5163 -0.7634  0.4941
  715MOL0     H96474   2.868   8.467  10.800  0.2223  1.9152 -1.3502
  715MOL0     H96475   2.882   8.315  10.715  0.3649 -0.3319 -2.2006
  715MOL0     H96476   3.133   8.442  10.842 -1.5480  0.2626  0.4042
  715MOL0     H96477   3.369   8.528  10.806  0.0197  1.5918 -0.8146
  715MOL0     H96478   3.390   8.383  10.731 -2.0108 -0.4365  0.2423
  715MOL0     H96479   3.475   8.450  10.540  3.5868 -1.1405  0.8339
  715MOL0     H96480   3.444   8.627  10.557  0.1977  0.3053  0.5912
  715MOL0     H96481   3.628   8.486  10.750  1.5169 -2.2733 -2.4543
  715MOL0     H96482   3.602   8.644  10.736 -0.8507  0.1369  0.3874
  715MOL0     H96483   3.737   8.640  10.514  1.5393  0.7970  2.2903
  715MOL0     H96484   3.744   8.462  10.522 -1.8259 -0.6193  0.3147
  715MOL0     H96485   3.916   8.523  10.387  1.4965  3.6687 -1.7476
  715MOL0     H96486   4.119   8.479  10.312 -0.5190  1.4090  0.3151
  715MOL0     H96487   4.599   8.481  10.326 -0.1278  3.9756  3.4030
  715MOL0     H96488   4.791   8.375  10.271  0.3667  0.0629  0.4146
  715MOL0     H96489   5.027   8.078  10.271 -2.5691 -1.0182 -1.9838
  715MOL0     H96490   4.935   8.217  10.230  0.7394 -1.3694 -0.7262
  715MOL0     H96491   5.097   8.367  10.364  0.9104 -0.7278  2.9525
  715MOL0     H96492   5.194   8.221  10.390 -2.3740 -3.6601 -0.7897
  715MOL0     H96493   5.109   8.300  10.109  1.0992 -0.9542 -1.0333
  715MOL0     H96494   5.240   8.379  10.196  0.2718  0.1657 -1.8185
  715MOL0     H96495   5.212   8.097  10.090 -1.9484  1.5367 -0.0062
  715MOL0     H96496   5.323   8.127  10.222 -0.5698 -1.5848 -0.3465
  715MOL0     H96497   5.316   8.279   9.952 -1.0823 -0.3611  0.7117
  715MOL0     H96498   5.408   8.130   9.971 -0.9111  0.9283 -0.5772
  715MOL0     H96499   5.453   8.380  10.133  1.5949 -0.7148  1.7751
  715MOL0     H96500   5.547   8.224  10.142 -1.7388  1.2963  2.6530
  715MOL0     H96501   5.634   8.439   9.998  1.8787 -1.5069 -0.4892
  715MOL0     H96502   5.526   8.374   9.880  0.8099  2.2055  0.4216
  715MOL0     H96503   5.638   8.148   9.919  2.7616 -0.9763  0.2492
  715MOL0     H96504   5.742   8.264   9.838 -0.0289  1.5786  0.0690
  715MOL0     H96505   4.820   8.203  10.667  0.3569 -0.6267 -0.2372
  715MOL0     H96506   4.596   8.313  10.717 -1.2090 -0.7870 -1.6714
  715MOL0     H96507   4.283   8.528  10.710  2.8236  0.3965 -2.7916
  715MOL0     H96508   4.073   8.587  10.798 -0.1448 -2.4724  0.4305
  715MOL0     H96509   1.812   8.736  10.592 -0.8648 -1.4418 -0.6041
  715MOL0     H96510   1.587   8.828  10.609 -0.1929  0.4082  1.4224
  715MOL0     H96511   1.100   8.616  10.944  0.4754 -0.6066 -0.8222
  715MOL0     H96512   0.884   8.730  11.022 -2.0893  1.8295  1.3761
  715MOL0     H96513   0.690   9.021  10.946  0.9506 -1.0625 -0.6514
  715MOL0     H96514   0.828   9.095  10.866 -0.9281 -1.3359 -0.7886
  715MOL0     H96515   0.854   9.247  11.058  0.5308 -0.7390 -2.4119
  715MOL0     H96516   0.710   9.191  11.140  0.8382 -0.2557  0.1350
  715MOL0     H96517   0.580   9.257  10.912 -1.2281  0.5682  2.6683
  715MOL0     H96518   0.719   9.360  10.882  0.4831 -1.5995 -0.8032
  715MOL0     H96519   0.516   9.471  11.007 -3.1040 -0.2116  1.6452
  715MOL0     H96520   0.543   9.347  11.136  0.8249  2.3252  2.4204
  715MOL0     H96521   0.817   9.665  11.160 -2.2721  2.4215 -2.0285
  715MOL0     H96522   1.044   9.100  10.991 -3.2638 -1.2430  0.1632
  715MOL0     H96523   1.400   9.027  10.949 -0.8312  0.5432  0.8800
  715MOL0     H96524   1.335   9.025  10.782 -1.0252 -0.3119 -1.1187
  715MOL0     H96525   1.284   9.146  10.904 -2.8835 -0.9428  0.5899
  716MOL0     O96526   2.806   3.065   1.797 -0.7409  0.7731  0.4476
  716MOL0     C96527   2.775   2.950   1.828  0.2886 -0.7853 -0.8402
  716MOL0     O96528   2.861   2.846   1.863  0.5176 -0.6429  0.1804
  716MOL0     C96529   2.986   2.863   1.814  0.6039 -0.4839 -0.6732
  716MOL0     C96530   3.017   2.815   1.685  0.6712  0.3155 -0.8432
  716MOL0     C96531   3.141   2.848   1.630  0.5674 -0.4356 -1.0116
  716MOL0     C96532   3.237   2.922   1.697 -0.8736  0.8598  0.6016
  716MOL0     O96533   3.349   2.961   1.636  0.3729 -0.6321 -0.1078
  716MOL0     C96534   3.473   2.997   1.696  0.7578 -0.1797  0.8403
  716MOL0     C96535   3.527   3.121   1.634 -1.0151  0.4258 -0.1424
  716MOL0     C96536   3.680   3.132   1.609  0.2543  0.3371  0.1014
  716MOL0     C96537   3.738   3.173   1.744  0.3504  0.3273  0.3802
  716MOL0     C96538   3.896   3.184   1.739  0.3876  0.3176 -0.2552
  716MOL0     C96539   3.968   3.059   1.681  0.2199  0.5472  0.2133
  716MOL0     C96540   4.112   3.074   1.676 -0.5086 -0.0542 -0.0639
  716MOL0     C96541   4.193   2.950   1.650  0.4169  0.1497  0.0523
  716MOL0     N96542   4.318   2.977   1.579  0.5260 -0.2002 -0.4307
  716MOL0     C96543   4.334   2.936   1.450  0.0481 -0.1236 -0.1281
  716MOL0     C96544   4.447   2.999   1.410  0.3662  0.2868 -0.0191
  716MOL0     C96545   4.503   2.971   1.276 -0.4490 -0.0135  0.1855
  716MOL0     C96546   4.648   2.928   1.293 -0.3890 -0.2791 -1.1166
  716MOL0     C96547   4.717   2.902   1.160 -0.0564  0.8112 -0.5135
  716MOL0     C96548   4.868   2.912   1.171 -0.3946  0.6080  0.3942
  716MOL0     O96549   4.923   2.877   1.044 -0.1063 -1.0672 -0.0765
  716MOL0     C96550   5.056   2.855   1.027  0.7110  0.0076  0.6179
  716MOL0     C96551   5.161   2.888   1.121 -0.0673 -0.6716  0.9644
  716MOL0     C96552   5.289   2.870   1.085  0.0969 -0.1523 -1.0789
  716MOL0     C96553   5.327   2.821   0.964 -0.5318 -0.0893  0.0480
  716MOL0     C96554   5.466   2.829   0.912  0.4408 -0.0935 -0.7371
  716MOL0     O96555   5.554   2.894   0.998  0.0085  0.5981  0.1264
  716MOL0     C96556   5.690   2.893   0.988  0.7502  0.4832  0.7211
  716MOL0     C96557   5.766   3.001   1.039  0.2136 -0.0263  0.4199
  716MOL0     C96558   5.908   3.004   1.045 -0.1501  0.1975 -0.3069
  716MOL0     C96559   5.973   2.906   0.972 -0.0772  0.1333 -0.0818
  716MOL0     O96560   6.107   2.935   0.955  0.1188  0.6150  0.2540
  716MOL0     C96561   6.184   2.838   0.879 -0.0692 -0.2340 -0.4728
  716MOL0     C96562   6.326   2.850   0.941  0.2836  0.3334  0.2124
  716MOL0     C96563   6.427   2.761   0.873 -0.2421 -0.4387 -0.0236
  716MOL0     C96564   6.562   2.745   0.950 -0.0097 -0.7856 -0.0827
  716MOL0     C96565   6.671   2.673   0.862 -0.4544  0.5342  0.9942
  716MOL0     C96566   6.790   2.609   0.937  0.4320 -0.6930  0.7485
  716MOL0     C96567   6.870   2.711   1.011  0.8440 -0.9271 -0.4336
  716MOL0     C96568   6.987   2.652   1.081  0.2478  0.2492  0.2688
  716MOL0    Cl96569   7.070   2.527   0.989  0.0827  0.4928  0.4772
  716MOL0     C96570   5.902   2.806   0.906 -0.3687  0.5317  0.3019
  716MOL0     C96571   5.765   2.792   0.920  0.2495 -0.3217  0.5341
  716MOL0     O96572   5.496   2.768   0.808 -0.0409 -0.0577  0.2914
  716MOL0     C96573   5.229   2.773   0.877  0.3104  0.0387 -0.7502
  716MOL0     C96574   5.092   2.790   0.908 -0.2189 -0.7254 -0.1125
  716MOL0     N96575   4.505   3.063   1.520  0.0590  0.1186 -0.4237
  716MOL0     N96576   4.421   3.056   1.621 -0.3922  0.5512  0.2983
  716MOL0     C96577   3.209   2.952   1.832 -0.2050 -0.2624  0.3229
  716MOL0     C96578   3.085   2.926   1.890 -0.3054  0.3900  0.3927
  716MOL0     C96579   2.627   2.910   1.826 -0.7380  0.6380  0.1676
  716MOL0     C96580   2.595   2.775   1.785 -0.0467 -0.8439  0.8556
  716MOL0     C96581   2.459   2.739   1.768  0.0715  0.7339  0.7285
  716MOL0     C96582   2.358   2.832   1.800 -0.1141  0.5883 -1.8236
  716MOL0     O96583   2.218   2.808   1.784  0.0160  0.2568 -0.4229
  716MOL0     C96584   2.170   2.708   1.692 -0.3146 -0.0472 -0.8279
  716MOL0     C96585   2.018   2.710   1.718 -0.0850 -0.8237 -0.0224
  716MOL0     C96586   1.984   2.590   1.810  0.0343  0.0024 -0.1085
  716MOL0     C96587   1.832   2.574   1.846 -0.5491  0.2215  0.2410
  716MOL0     C96588   1.785   2.691   1.926  0.7147 -0.1272  0.4061
  716MOL0     C96589   1.738   2.789   1.975 -0.3739 -0.8329 -0.0226
  716MOL0     C96590   2.394   2.956   1.839 -0.1015 -0.6107  0.2568
  716MOL0     C96591   2.526   3.001   1.844  0.5688 -0.1414 -0.5609
  716MOL0     C96592   2.547   3.137   1.892  0.3107  0.6202 -0.1467
  716MOL0     H96593   2.940   2.768   1.626 -0.0577 -0.7895  0.8877
  716MOL0     H96594   3.156   2.821   1.527 -1.2907 -3.3303 -0.6272
  716MOL0     H96595   3.460   3.018   1.803 -0.9411 -0.5730  0.7343
  716MOL0     H96596   3.548   2.919   1.681  1.4077  0.1098  2.4269
  716MOL0     H96597   3.487   3.209   1.686  0.1017  0.7137  0.2569
  716MOL0     H96598   3.491   3.123   1.531  1.4913 -0.4299 -1.1066
  716MOL0     H96599   3.704   3.202   1.529 -1.1612  0.8782  0.1216
  716MOL0     H96600   3.719   3.033   1.586  3.4003  1.2591  1.0199
  716MOL0     H96601   3.701   3.272   1.771  1.2169  0.8865 -0.3812
  716MOL0     H96602   3.709   3.097   1.816 -0.0816  0.0179 -0.1138
  716MOL0     H96603   3.915   3.269   1.673 -1.1495  1.9718  1.3526
  716MOL0     H96604   3.941   3.211   1.835  2.6392 -0.9362 -0.8681
  716MOL0     H96605   3.938   2.968   1.735  0.2021  0.8970  0.8092
  716MOL0     H96606   3.937   3.044   1.577  1.2514  0.1297 -0.0419
  716MOL0     H96607   4.152   3.125   1.764  0.3957 -2.9094  1.3008
  716MOL0     H96608   4.132   3.149   1.599  0.0517  0.5462  0.6539
  716MOL0     H96609   4.217   2.912   1.750  0.4273  0.6126  0.2315
  716MOL0     H96610   4.139   2.871   1.598 -0.9319  2.3715 -2.2018
  716MOL0     H96611   4.282   2.857   1.396 -2.1476 -1.4711  3.5856
  716MOL0     H96612   4.449   2.895   1.219 -1.1533  0.1398  0.6389
  716MOL0     H96613   4.505   3.067   1.222  3.4144  0.0983  0.3052
  716MOL0     H96614   4.694   3.010   1.349  1.3106 -1.6556 -0.3854
  716MOL0     H96615   4.663   2.847   1.365 -3.0313  1.1439  1.2474
  716MOL0     H96616   4.677   2.973   1.087 -0.7169  3.3489  2.1034
  716MOL0     H96617   4.690   2.801   1.128  1.0695  0.0625  0.7793
  716MOL0     H96618   4.904   2.841   1.246  1.8490  0.3062 -0.8806
  716MOL0     H96619   4.915   3.007   1.201  1.3962  0.2365 -1.0403
  716MOL0     H96620   5.148   2.931   1.220 -1.2831 -0.2102  0.6287
  716MOL0     H96621   5.370   2.888   1.155 -0.0911 -2.6824 -0.1012
  716MOL0     H96622   5.708   3.078   1.090  2.3763  1.6108  0.5629
  716MOL0     H96623   5.968   3.079   1.095 -2.3835  3.4243 -2.1130
  716MOL0     H96624   6.141   2.740   0.901  1.2274 -0.8018 -0.4066
  716MOL0     H96625   6.172   2.857   0.772 -3.2871 -2.1686 -0.5716
  716MOL0     H96626   6.360   2.954   0.941  2.3865 -0.2993 -0.8827
  716MOL0     H96627   6.308   2.812   1.042 -1.2457 -0.7229 -0.4056
  716MOL0     H96628   6.389   2.662   0.843  2.1919 -0.9737 -1.6417
  716MOL0     H96629   6.458   2.815   0.783 -0.3530  0.8472  0.6892
  716MOL0     H96630   6.550   2.686   1.041  0.7345 -0.4528  0.2441
  716MOL0     H96631   6.589   2.845   0.984 -2.2047 -0.4363  0.7750
  716MOL0     H96632   6.701   2.741   0.781  2.0066 -0.3520  1.0851
  716MOL0     H96633   6.622   2.589   0.812 -0.3615  0.2721  1.3402
  716MOL0     H96634   6.752   2.523   0.994 -2.5750 -0.7801 -1.1430
  716MOL0     H96635   6.845   2.554   0.860 -1.5804 -0.8211 -0.6780
  716MOL0     H96636   6.801   2.750   1.086  1.5014 -2.0500  0.7916
  716MOL0     H96637   6.913   2.783   0.941  0.7360  0.7363  1.1521
  716MOL0     H96638   7.059   2.727   1.116  3.1761 -2.8049  1.3579
  716MOL0     H96639   6.933   2.597   1.159  0.9149 -0.1369  0.4629
  716MOL0     H96640   5.958   2.739   0.841  2.1895  0.0531  2.7938
  716MOL0     H96641   5.716   2.703   0.881 -0.3224 -0.0480  0.6236
  716MOL0     H96642   5.258   2.733   0.781 -2.2642  0.7200 -1.8807
  716MOL0     H96643   5.015   2.751   0.843  1.5206 -3.4118 -0.7242
  716MOL0     H96644   3.273   3.004   1.903 -1.9676  0.9505  1.0873
  716MOL0     H96645   3.061   2.962   1.990 -2.7702  0.7314 -0.2575
  716MOL0     H96646   2.676   2.705   1.763  3.7456  2.8819  1.6819
  716MOL0     H96647   2.428   2.641   1.732  1.0974  0.9691 -0.9203
  716MOL0     H96648   2.220   2.613   1.713 -0.5181 -0.7220 -3.0758
  716MOL0     H96649   2.195   2.737   1.589  3.9380 -0.4411 -0.0904
  716MOL0     H96650   1.978   2.701   1.617  2.8523  2.7549 -1.7361
  716MOL0     H96651   1.982   2.806   1.753  0.1327  0.1699 -2.3429
  716MOL0     H96652   2.036   2.588   1.906  0.5845  0.1606 -0.4005
  716MOL0     H96653   2.021   2.502   1.757  1.2664  1.1936 -1.3096
  716MOL0     H96654   1.764   2.576   1.760 -0.5211 -0.1726  0.2099
  716MOL0     H96655   1.827   2.484   1.907 -1.2840 -0.3542 -0.6478
  716MOL0     H96656   1.685   2.879   1.998  0.1645  0.5476 -3.5119
  716MOL0     H96657   2.311   3.025   1.849 -0.5063 -0.7161 -1.8647
  716MOL0     H96658   2.617   3.141   1.976 -0.7534 -2.8002  1.0500
  716MOL0     H96659   2.591   3.192   1.808 -3.0823 -0.7633 -3.0615
  716MOL0     H96660   2.461   3.195   1.926  2.2299  3.0505  0.8976
  717MOL0     O96661  10.233   6.675   3.322 -0.2638 -0.5913  0.9102
  717MOL0     C96662  10.168   6.604   3.399 -0.5498 -0.2398  0.2716
  717MOL0     O96663  10.208   6.560   3.520 -0.3617  0.5227  0.0110
  717MOL0     C96664  10.326   6.611   3.572 -0.3636  0.3704  0.6675
  717MOL0     C96665  10.458   6.595   3.517 -0.1250  0.0365 -0.5117
  717MOL0     C96666  10.573   6.634   3.584  0.2866  0.4483  0.0268
  717MOL0     C96667  10.564   6.703   3.712 -0.6336  0.0314 -0.1414
  717MOL0     O96668  10.683   6.735   3.770 -0.6672  0.0249  0.1287
  717MOL0     C96669  10.684   6.774   3.911 -0.9765 -0.3997 -0.1507
  717MOL0     C96670  10.825   6.811   3.958 -0.1474 -0.0469  0.1819
  717MOL0     C96671  10.914   6.681   3.928  1.0147 -0.1889  0.5727
  717MOL0     C96672  11.052   6.692   3.984  0.0792 -0.3524 -1.0281
  717MOL0     C96673  11.122   6.556   3.992  0.3654 -0.3964  0.3678
  717MOL0     C96674  11.273   6.579   4.042 -0.4534 -0.8884  0.5735
  717MOL0     C96675  11.339   6.446   4.057 -0.4745  0.3133 -0.6538
  717MOL0     C96676  11.489   6.431   4.087  1.0430  0.6904  0.2435
  717MOL0     N96677  11.538   6.508   4.197 -0.4679 -0.8021 -0.8419
  717MOL0     C96678  11.573   6.642   4.198 -0.2507  0.5030  0.1798
  717MOL0     C96679  11.595   6.676   4.323  0.3756  0.4660  0.4213
  717MOL0     C96680  11.663   6.804   4.360 -0.0345  0.1655  0.7167
  717MOL0     C96681  11.811   6.776   4.393  0.0783  0.1445 -0.6600
  717MOL0     C96682  11.896   6.736   4.273  0.3380 -0.1473  0.6065
  717MOL0     C96683  12.045   6.713   4.308  0.4041  0.1328 -0.2359
  717MOL0     O96684  12.109   6.679   4.179  0.5232 -0.3687 -0.7823
  717MOL0     C96685  12.242   6.662   4.191  0.8495  0.7391 -0.2360
  717MOL0     C96686  12.327   6.667   4.307  0.6057  0.1017  0.1991
  717MOL0     C96687  12.466   6.648   4.293 -0.3698  0.9139  0.5567
  717MOL0     C96688  12.526   6.638   4.167  0.5290 -0.5830 -0.0960
  717MOL0     C96689  12.673   6.634   4.159  0.1633 -0.2205 -0.3749
  717MOL0     O96690  12.723   6.596   4.035  0.5156  0.4191  0.4446
  717MOL0     C96691  12.860   6.585   4.009  0.1935  0.3305  0.6318
  717MOL0     C96692  12.895   6.501   3.903 -0.0941 -0.1546 -0.4260
  717MOL0     C96693  13.030   6.486   3.869  0.5486 -0.3165  0.1414
  717MOL0     C96694  13.137   6.560   3.935 -0.1640  0.1933  0.2097
  717MOL0     O96695  13.269   6.551   3.888  0.3110 -0.0292 -0.4746
  717MOL0     C96696  13.355   6.646   3.949 -0.3397  0.0349 -0.2048
  717MOL0     C96697  13.491   6.666   3.875  0.0617 -0.0433 -0.9436
  717MOL0     C96698  13.578   6.545   3.867 -0.1154  0.1507  0.2112
  717MOL0     C96699  13.720   6.582   3.809 -0.1134  0.1786  0.0192
  717MOL0     C96700  13.786   6.460   3.739 -0.2386 -0.9812  0.0569
  717MOL0     C96701  13.937   6.494   3.711 -0.4303 -0.8929  0.1441
  717MOL0     C96702  14.016   6.382   3.634  0.0113 -0.2916 -0.1676
  717MOL0     C96703  14.162   6.422   3.606  0.0026 -0.8663  0.1058
  717MOL0    Cl96704  14.185   6.576   3.512  0.2043 -0.5563  0.1350
  717MOL0     C96705  13.095   6.643   4.042  0.4707 -0.4046  0.1980
  717MOL0     C96706  12.962   6.657   4.074  1.3322  0.3669 -0.0686
  717MOL0     O96707  12.741   6.665   4.257  0.0076 -0.3514  0.2384
  717MOL0     C96708  12.444   6.631   4.054  0.3305  0.3279 -0.1088
  717MOL0     C96709  12.305   6.647   4.071  0.0290 -0.2384  0.7183
  717MOL0     N96710  11.565   6.569   4.397 -0.0317 -0.0647 -1.1309
  717MOL0     N96711  11.541   6.473   4.325  0.0998 -0.4733  0.2322
  717MOL0     C96712  10.435   6.731   3.764 -0.7355 -0.1856 -0.0952
  717MOL0     C96713  10.323   6.683   3.688 -0.3809  0.2028  0.1356
  717MOL0     C96714  10.042   6.530   3.334 -0.0535  0.4849 -0.2270
  717MOL0     C96715  10.012   6.545   3.199  0.2768  0.6018 -0.1421
  717MOL0     C96716   9.910   6.474   3.139  0.0405 -0.2972  0.2249
  717MOL0     C96717   9.825   6.394   3.216 -0.5253 -0.1484 -0.2986
  717MOL0     O96718   9.724   6.316   3.162 -0.8655 -0.0247  0.8137
  717MOL0     C96719   9.688   6.348   3.029 -1.1314 -0.4063 -0.4157
  717MOL0     C96720   9.561   6.281   3.004  1.1564 -0.5334  0.0512
  717MOL0     C96721   9.515   6.329   2.870 -0.0866 -0.8433 -0.2297
  717MOL0     C96722   9.397   6.252   2.822  0.3416  0.0477  0.3696
  717MOL0     C96723   9.340   6.324   2.706 -0.2712 -0.3134  0.5438
  717MOL0     C96724   9.299   6.388   2.612 -0.4219  0.0050 -0.1053
  717MOL0     C96725   9.845   6.384   3.355  0.2049 -0.1874  0.4855
  717MOL0     C96726   9.957   6.441   3.414 -0.0220  0.0649  0.3274
  717MOL0     C96727   9.964   6.430   3.560 -0.5112 -0.1291 -0.2768
  717MOL0     H96728  10.465   6.550   3.418  2.6914  0.2992 -0.5071
  717MOL0     H96729  10.671   6.610   3.544  1.2526 -1.0730  2.9589
  717MOL0     H96730  10.616   6.859   3.919 -3.6477 -2.2127 -1.7846
  717MOL0     H96731  10.651   6.689   3.971 -0.8682  0.0783  0.5971
  717MOL0     H96732  10.816   6.831   4.065 -1.5359 -1.5091  0.3822
  717MOL0     H96733  10.868   6.897   3.906  0.1646 -0.3098  0.0031
  717MOL0     H96734  10.911   6.662   3.820 -3.0349  0.0980  0.4914
  717MOL0     H96735  10.867   6.600   3.984 -0.1434  1.9848  2.9620
  717MOL0     H96736  11.107   6.755   3.914 -1.0483  0.3350 -1.3301
  717MOL0     H96737  11.050   6.733   4.085 -1.2882 -1.8074 -0.4153
  717MOL0     H96738  11.078   6.493   4.070 -1.3062  0.6684  0.3122
  717MOL0     H96739  11.108   6.503   3.898 -0.9838 -1.7221  1.2679
  717MOL0     H96740  11.328   6.652   3.982 -2.1787 -2.0325 -2.6487
  717MOL0     H96741  11.270   6.611   4.147  0.0356 -0.9277  0.5976
  717MOL0     H96742  11.313   6.389   3.968 -0.5260  2.3300 -1.9868
  717MOL0     H96743  11.292   6.397   4.143  1.9088  1.8603  1.7096
  717MOL0     H96744  11.497   6.324   4.107 -2.1405 -0.2952 -2.7625
  717MOL0     H96745  11.543   6.442   3.993 -1.0889 -0.0301 -1.1397
  717MOL0     H96746  11.594   6.701   4.109 -0.2067  1.1183  0.5951
  717MOL0     H96747  11.651   6.889   4.293 -0.1728 -0.1029  0.3971
  717MOL0     H96748  11.617   6.853   4.446  0.8199 -0.4701  1.5590
  717MOL0     H96749  11.850   6.865   4.442  1.2935 -0.7393  0.0419
  717MOL0     H96750  11.811   6.694   4.465  1.4994  0.0183 -0.7849
  717MOL0     H96751  11.892   6.816   4.199  4.5900  0.0145  0.3021
  717MOL0     H96752  11.849   6.645   4.234 -3.5162  1.2849  1.4271
  717MOL0     H96753  12.065   6.624   4.369  1.2954 -0.9676 -2.0633
  717MOL0     H96754  12.087   6.804   4.352  2.2439  0.7302 -3.0073
  717MOL0     H96755  12.290   6.704   4.402 -1.2702  2.0985 -1.2032
  717MOL0     H96756  12.516   6.645   4.390 -1.3734 -0.4961  1.0602
  717MOL0     H96757  12.819   6.457   3.840  1.6191 -0.2917 -2.5392
  717MOL0     H96758  13.061   6.424   3.786 -0.4525  1.5738 -1.7478
  717MOL0     H96759  13.310   6.746   3.953 -1.5083 -0.2954 -2.8141
  717MOL0     H96760  13.370   6.606   4.049  0.1410  0.0354 -0.2748
  717MOL0     H96761  13.469   6.707   3.776  0.0647  3.1231  0.2472
  717MOL0     H96762  13.540   6.737   3.942 -2.7483 -0.0561  1.3177
  717MOL0     H96763  13.600   6.515   3.970 -0.5129 -2.5979 -0.4178
  717MOL0     H96764  13.534   6.462   3.811  0.0966 -0.5766  1.1057
  717MOL0     H96765  13.783   6.610   3.893  1.3325 -2.3960 -0.1002
  717MOL0     H96766  13.715   6.659   3.731 -0.9839 -1.0912 -1.2349
  717MOL0     H96767  13.743   6.451   3.639 -0.0639 -1.7892  0.0446
  717MOL0     H96768  13.760   6.372   3.799 -1.3495 -0.9250 -0.3363
  717MOL0     H96769  13.933   6.589   3.655 -0.0776  1.4343  3.7161
  717MOL0     H96770  13.974   6.513   3.812 -0.7400  0.7563 -0.0146
  717MOL0     H96771  13.964   6.359   3.540  0.2591  1.1809 -0.6946
  717MOL0     H96772  14.021   6.297   3.703 -3.1707 -0.0095  0.5694
  717MOL0     H96773  14.221   6.431   3.698 -0.4877 -0.2795  0.3718
  717MOL0     H96774  14.205   6.339   3.550  0.8367 -0.5035  0.1904
  717MOL0     H96775  13.163   6.709   4.095  0.1104  0.4015 -0.3258
  717MOL0     H96776  12.942   6.715   4.164  0.7121 -2.1407  1.5159
  717MOL0     H96777  12.490   6.637   3.956  0.0947  0.2169 -0.2280
  717MOL0     H96778  12.235   6.659   3.989  0.6086  0.5515  0.3171
  717MOL0     H96779  10.411   6.772   3.862 -0.1172  3.2746 -1.2511
  717MOL0     H96780  10.224   6.687   3.732 -0.7021 -1.6512 -0.3282
  717MOL0     H96781  10.079   6.605   3.139  1.2552  0.3538  0.6748
  717MOL0     H96782   9.911   6.482   3.031  3.1406  0.9561  0.2456
  717MOL0     H96783   9.769   6.308   2.968 -0.9134  0.4138 -0.6846
  717MOL0     H96784   9.687   6.456   3.008 -0.7170 -0.6338 -1.7125
  717MOL0     H96785   9.480   6.311   3.071 -1.1966  1.0664 -3.2602
  717MOL0     H96786   9.579   6.173   3.007 -2.0950 -1.2806 -2.4784
  717MOL0     H96787   9.598   6.322   2.799  0.6519 -0.0711  0.5484
  717MOL0     H96788   9.500   6.437   2.882  1.3810 -0.3999 -1.9593
  717MOL0     H96789   9.442   6.156   2.800  0.3257  0.4303 -1.4462
  717MOL0     H96790   9.321   6.257   2.901 -1.4223 -0.9904 -1.2042
  717MOL0     H96791   9.263   6.459   2.540  1.7119 -1.6744 -3.0298
  717MOL0     H96792   9.786   6.319   3.420  1.6926 -0.9611  1.1220
  717MOL0     H96793  10.054   6.386   3.604  0.3063 -0.1775 -1.9313
  717MOL0     H96794   9.961   6.527   3.612  2.3260  0.0752 -0.3422
  717MOL0     H96795   9.888   6.359   3.595  1.0475 -1.4762  0.5244
  718MOL0     O96796   5.544   8.844   2.308 -0.9378  0.0056  0.0126
  718MOL0     C96797   5.507   8.778   2.210  0.9950 -0.5768  0.1902
  718MOL0     O96798   5.568   8.671   2.152  1.0165  0.3835 -0.1503
  718MOL0     C96799   5.662   8.598   2.222 -0.8012 -0.1620 -0.1818
  718MOL0     C96800   5.649   8.580   2.357  0.2453 -0.4927  0.5054
  718MOL0     C96801   5.750   8.510   2.422  0.4318 -1.2175 -0.4385
  718MOL0     C96802   5.868   8.457   2.365  1.0946 -0.2811  0.2137
  718MOL0     O96803   5.962   8.377   2.433 -0.4028 -0.4203 -0.6042
  718MOL0     C96804   6.095   8.415   2.399 -0.1471 -0.3458 -0.0812
  718MOL0     C96805   6.163   8.280   2.419 -0.1121 -0.4526  0.2386
  718MOL0     C96806   6.316   8.276   2.411  0.1575 -0.0247 -0.0253
  718MOL0     C96807   6.355   8.129   2.440 -0.2315  0.2195  0.6077
  718MOL0     C96808   6.510   8.123   2.461  0.6531 -0.2318 -0.1344
  718MOL0     C96809   6.551   7.976   2.467 -0.4935  0.5737  0.0026
  718MOL0     C96810   6.701   7.947   2.491  0.0653 -0.4996  0.4025
  718MOL0     C96811   6.741   7.801   2.471  0.2725 -0.6872 -0.3205
  718MOL0     N96812   6.889   7.804   2.481  0.6494  0.9250  0.0399
  718MOL0     C96813   6.971   7.704   2.431  0.0506  0.4691  0.3379
  718MOL0     C96814   7.092   7.733   2.489 -0.3089  1.1593  0.4715
  718MOL0     C96815   7.218   7.663   2.445 -0.1951  0.5061 -0.6264
  718MOL0     C96816   7.274   7.579   2.554 -0.1671  0.6830 -0.4813
  718MOL0     C96817   7.322   7.651   2.677  0.3026 -1.3132  1.1807
  718MOL0     C96818   7.389   7.557   2.774 -0.2919  0.1798 -0.3455
  718MOL0     O96819   7.517   7.514   2.733 -0.7964  0.2733  0.4352
  718MOL0     C96820   7.623   7.604   2.714  0.0395 -0.2302  0.5509
  718MOL0     C96821   7.621   7.739   2.768  0.5553  0.6986 -0.5399
  718MOL0     C96822   7.730   7.825   2.762  0.4389  0.3143  0.1585
  718MOL0     C96823   7.848   7.777   2.714 -0.2812 -0.2981  0.6498
  718MOL0     C96824   7.974   7.862   2.709  0.2533 -0.1887 -0.4770
  718MOL0     O96825   7.968   7.989   2.757  0.2462 -0.2032  0.7375
  718MOL0     C96826   8.084   8.061   2.765  0.4264 -0.2947 -0.1949
  718MOL0     C96827   8.129   8.098   2.892 -0.0453  0.1292  0.8615
  718MOL0     C96828   8.238   8.181   2.918 -0.4566  1.2546  0.4383
  718MOL0     C96829   8.310   8.223   2.804 -0.2019 -0.6104 -0.1995
  718MOL0     O96830   8.419   8.309   2.805 -0.0302  0.1826 -0.1024
  718MOL0     C96831   8.461   8.367   2.931  0.2077 -0.1725 -0.6247
  718MOL0     C96832   8.573   8.467   2.918 -0.5505 -1.0297  0.3758
  718MOL0     C96833   8.686   8.434   2.818  0.4256 -0.1722  0.1265
  718MOL0     C96834   8.769   8.321   2.871  0.0666  0.0205 -0.0655
  718MOL0     C96835   8.884   8.261   2.785 -0.8171  0.4791 -0.1870
  718MOL0     C96836   9.008   8.359   2.786 -0.7181  0.2616 -0.0698
  718MOL0     C96837   9.098   8.355   2.921  0.2295 -0.2122  0.4292
  718MOL0     C96838   9.152   8.220   2.974  0.5027 -0.2995  0.0299
  718MOL0    Cl96839   9.243   8.116   2.843  0.5431 -0.1378  0.0608
  718MOL0     C96840   8.267   8.187   2.678  0.0766  0.2318 -0.0468
  718MOL0     C96841   8.151   8.113   2.660  0.0451 -0.3865 -0.1906
  718MOL0     O96842   8.074   7.804   2.675  0.8395  0.6973  0.1813
  718MOL0     C96843   7.852   7.647   2.656 -0.0522 -0.5787  0.3228
  718MOL0     C96844   7.748   7.561   2.669 -0.5162 -0.3035  0.0258
  718MOL0     N96845   7.082   7.824   2.590  0.1761  0.0168 -0.5078
  718MOL0     N96846   6.959   7.873   2.583  0.2271  1.0137 -0.0988
  718MOL0     C96847   5.866   8.468   2.222  0.4971 -0.3033  0.4005
  718MOL0     C96848   5.777   8.549   2.151 -0.6644 -0.6993 -0.2810
  718MOL0     C96849   5.398   8.834   2.123 -0.2074 -0.1869 -0.9721
  718MOL0     C96850   5.416   8.814   1.982 -0.0605  0.5854  0.2131
  718MOL0     C96851   5.321   8.854   1.894  0.2006 -0.7299  0.2327
  718MOL0     C96852   5.208   8.920   1.943 -0.0463 -0.2073 -0.5863
  718MOL0     O96853   5.126   8.957   1.844  0.1073  0.0922  0.0156
  718MOL0     C96854   5.001   9.016   1.880 -0.2365 -0.0110 -0.2752
  718MOL0     C96855   4.906   9.047   1.763 -0.1625 -0.1563 -0.0818
  718MOL0     C96856   4.825   8.923   1.716 -0.0636 -0.2018  0.5932
  718MOL0     C96857   4.730   8.858   1.813  0.3188 -0.0693 -0.7887
  718MOL0     C96858   4.633   8.951   1.859 -0.3169  0.1426  0.5745
  718MOL0     C96859   4.542   9.024   1.893  0.0452 -0.1581  0.2434
  718MOL0     C96860   5.187   8.937   2.081 -0.3799 -0.0417  0.0071
  718MOL0     C96861   5.284   8.900   2.174  0.4009 -0.0350  0.4081
  718MOL0     C96862   5.254   8.925   2.321 -0.2607  0.0168  0.6685
  718MOL0     H96863   5.562   8.619   2.409  0.7328  0.5645  0.5424
  718MOL0     H96864   5.750   8.519   2.530 -1.8435  0.5586 -0.5153
  718MOL0     H96865   6.110   8.453   2.298 -1.3997 -1.6319 -0.7853
  718MOL0     H96866   6.122   8.488   2.476 -0.5125 -0.0487 -0.2320
  718MOL0     H96867   6.116   8.211   2.348 -3.4580  1.7996  0.0457
  718MOL0     H96868   6.147   8.225   2.512  1.8403 -2.8366 -0.7076
  718MOL0     H96869   6.359   8.345   2.484  0.7633  3.4038 -3.3424
  718MOL0     H96870   6.349   8.316   2.315 -0.6544  2.2080  0.5681
  718MOL0     H96871   6.304   8.085   2.526 -0.7499  1.7439  1.1101
  718MOL0     H96872   6.331   8.059   2.360  0.2723  1.5250 -0.7188
  718MOL0     H96873   6.561   8.178   2.383  0.0383 -1.2994 -1.3344
  718MOL0     H96874   6.524   8.162   2.562  1.4549 -1.1197  0.1130
  718MOL0     H96875   6.495   7.926   2.546  1.3238  1.5802  2.0133
  718MOL0     H96876   6.523   7.929   2.372  1.8083  0.3050 -0.5819
  718MOL0     H96877   6.726   7.982   2.591 -1.7011  0.0869  0.6748
  718MOL0     H96878   6.753   7.991   2.405 -0.6736  1.1845  0.7676
  718MOL0     H96879   6.699   7.738   2.550  1.4717  0.4436  1.2700
  718MOL0     H96880   6.701   7.759   2.378 -1.4169 -1.3196  0.6442
  718MOL0     H96881   6.944   7.630   2.357 -0.6937  0.1542  0.9140
  718MOL0     H96882   7.212   7.599   2.357 -4.7385  0.1015 -0.2118
  718MOL0     H96883   7.283   7.749   2.424 -2.6293  2.8781  0.8720
  718MOL0     H96884   7.205   7.498   2.577 -0.7384  0.8753 -1.4825
  718MOL0     H96885   7.362   7.532   2.508 -1.5386 -2.0417 -0.5022
  718MOL0     H96886   7.230   7.690   2.722  0.2212  0.9047 -0.7458
  718MOL0     H96887   7.388   7.729   2.639 -2.8218  0.6677 -0.7155
  718MOL0     H96888   7.324   7.470   2.781 -1.5098  1.1250  0.5984
  718MOL0     H96889   7.395   7.583   2.880  0.3586  0.8104 -0.5211
  718MOL0     H96890   7.534   7.776   2.821  1.4171 -0.2293  1.6441
  718MOL0     H96891   7.738   7.929   2.793  0.3616  1.1520 -2.3723
  718MOL0     H96892   8.073   8.068   2.980 -4.8076  1.0959 -1.5333
  718MOL0     H96893   8.270   8.216   3.016  0.3782  1.2243  0.1865
  718MOL0     H96894   8.383   8.435   2.965  0.7539 -0.8445  2.1865
  718MOL0     H96895   8.485   8.291   3.006 -0.4858  0.4658  0.2697
  718MOL0     H96896   8.524   8.559   2.883 -2.2546 -2.4570 -1.1689
  718MOL0     H96897   8.616   8.492   3.015  0.0595  1.7947 -0.5151
  718MOL0     H96898   8.640   8.419   2.720 -1.2055  0.8613  0.6930
  718MOL0     H96899   8.744   8.525   2.803 -1.5489  1.2618  0.7664
  718MOL0     H96900   8.705   8.238   2.901 -0.4372 -0.1172 -1.4301
  718MOL0     H96901   8.821   8.355   2.961  0.8884  4.1256 -1.8486
  718MOL0     H96902   8.850   8.248   2.682 -1.1666  0.5230 -0.0770
  718MOL0     H96903   8.913   8.160   2.815  0.7462  0.6231 -1.0829
  718MOL0     H96904   9.060   8.331   2.694  0.0060  1.1548  0.0598
  718MOL0     H96905   8.967   8.459   2.770 -0.0904  0.6150  0.4950
  718MOL0     H96906   9.036   8.405   2.996 -0.6376 -0.4959 -0.0825
  718MOL0     H96907   9.182   8.424   2.913  0.9898 -1.0921  0.6552
  718MOL0     H96908   9.221   8.233   3.058  0.8110  0.8337 -0.3843
  718MOL0     H96909   9.066   8.161   3.009 -1.5691  0.2664 -3.6043
  718MOL0     H96910   8.325   8.225   2.595  1.7521 -0.0420  0.9651
  718MOL0     H96911   8.118   8.087   2.560 -1.6838 -1.6281  0.6455
  718MOL0     H96912   7.948   7.606   2.626  0.5704 -1.2588  2.9850
  718MOL0     H96913   7.757   7.456   2.646  1.6898  0.2459 -1.9489
  718MOL0     H96914   5.945   8.418   2.167  2.3779  1.3377  1.4766
  718MOL0     H96915   5.795   8.574   2.047  4.3831 -1.7893  0.1135
  718MOL0     H96916   5.502   8.767   1.935 -0.8873 -0.3692 -0.3942
  718MOL0     H96917   5.350   8.846   1.789 -1.2049  0.5573 -0.2877
  718MOL0     H96918   5.027   9.106   1.936  0.9246 -0.1076 -0.6408
  718MOL0     H96919   4.960   8.940   1.947  1.5518 -0.6697  0.1137
  718MOL0     H96920   4.965   9.079   1.676 -1.3412  3.2025  0.2039
  718MOL0     H96921   4.832   9.124   1.786  0.6730  0.7151 -0.2505
  718MOL0     H96922   4.904   8.850   1.695  0.7415  0.4882  1.1046
  718MOL0     H96923   4.765   8.956   1.631 -1.4014 -1.8465  0.8714
  718MOL0     H96924   4.679   8.775   1.765 -1.1927 -0.7932  1.9190
  718MOL0     H96925   4.787   8.823   1.900 -0.9835  3.6477  1.8161
  718MOL0     H96926   4.464   9.085   1.933 -1.5058  0.7251 -3.6347
  718MOL0     H96927   5.108   9.005   2.112  0.5835  1.8793 -1.5343
  718MOL0     H96928   5.182   9.007   2.334  2.9118  3.3999 -1.1303
  718MOL0     H96929   5.213   8.838   2.372 -2.9247 -0.3213 -1.7771
  718MOL0     H96930   5.344   8.961   2.371 -1.0524  1.0701  1.4022
  719MOL0     O96931   9.478   4.405   2.512  0.4297 -0.4589  0.2011
  719MOL0     C96932   9.388   4.487   2.530 -0.0020 -0.6220  0.1284
  719MOL0     O96933   9.408   4.611   2.581  1.2203 -0.2548 -1.0634
  719MOL0     C96934   9.537   4.641   2.632  0.7632 -0.0427  0.0743
  719MOL0     C96935   9.581   4.584   2.749  0.1409  0.2593  0.2087
  719MOL0     C96936   9.713   4.608   2.789 -0.1491  0.6598  0.0275
  719MOL0     C96937   9.807   4.689   2.710 -0.0246 -0.3127  1.0720
  719MOL0     O96938   9.938   4.697   2.745 -0.0069 -0.4191 -0.3275
  719MOL0     C96939  10.005   4.816   2.715  0.3234  0.6171 -0.1204
  719MOL0     C96940  10.104   4.803   2.599 -0.3336 -0.2867 -0.4764
  719MOL0     C96941  10.204   4.909   2.621  0.4535  0.3923  0.0548
  719MOL0     C96942  10.307   4.921   2.505 -0.6333 -0.7857  0.1301
  719MOL0     C96943  10.433   4.826   2.535  0.6342  0.0615 -0.1147
  719MOL0     C96944  10.549   4.854   2.430 -0.0123 -0.1898  0.5818
  719MOL0     C96945  10.665   4.767   2.460 -0.2759 -0.2387  0.0955
  719MOL0     C96946  10.780   4.760   2.355 -0.0560 -0.2804 -0.3930
  719MOL0     N96947  10.736   4.737   2.221 -0.4555  0.0836  1.1953
  719MOL0     C96948  10.690   4.830   2.127 -0.2933  0.0890 -0.8246
  719MOL0     C96949  10.674   4.763   2.018 -0.1460 -0.3514 -0.2459
  719MOL0     C96950  10.619   4.816   1.891  0.1694  0.3484  0.0909
  719MOL0     C96951  10.494   4.888   1.904 -0.2030 -0.3740 -0.7232
  719MOL0     C96952  10.372   4.808   1.951  0.2252  0.8359  0.1012
  719MOL0     C96953  10.236   4.874   1.915  0.5896 -0.1545 -0.5368
  719MOL0     O96954  10.228   5.000   1.977 -0.1781  0.7205  0.2009
  719MOL0     C96955  10.141   5.094   1.935  0.0690 -0.7851 -0.0625
  719MOL0     C96956  10.146   5.210   2.017  0.1773  0.3474 -0.6741
  719MOL0     C96957  10.058   5.318   1.989  0.4233 -0.9147  0.1086
  719MOL0     C96958   9.974   5.315   1.870  0.2525  0.1299 -0.3448
  719MOL0     C96959   9.903   5.434   1.826 -0.2783 -0.3798  0.2867
  719MOL0     O96960   9.827   5.426   1.709 -0.2664 -0.1472 -0.7637
  719MOL0     C96961   9.781   5.532   1.631 -0.0092 -0.1540  0.4161
  719MOL0     C96962   9.701   5.487   1.522  0.3188  0.2932 -1.1592
  719MOL0     C96963   9.653   5.572   1.425  0.1319  0.2411 -0.6205
  719MOL0     C96964   9.681   5.707   1.426  0.6174 -0.1339  1.2764
  719MOL0     O96965   9.638   5.781   1.318 -0.2780  0.1123  0.1224
  719MOL0     C96966   9.668   5.926   1.320 -0.0528 -0.4231 -0.0375
  719MOL0     C96967   9.555   5.993   1.403 -0.0633  0.8026 -0.3120
  719MOL0     C96968   9.403   5.964   1.370  0.3702  0.1029 -0.3443
  719MOL0     C96969   9.320   6.084   1.426  0.1781 -0.2238  0.2847
  719MOL0     C96970   9.169   6.045   1.417 -0.0076  0.0888  0.7311
  719MOL0     C96971   9.123   6.025   1.274  0.8131 -0.8096  0.4715
  719MOL0     C96972   8.977   6.016   1.251 -0.6917  0.1795 -0.0740
  719MOL0     C96973   8.957   5.967   1.101  0.0069 -0.0995 -0.6750
  719MOL0    Cl96974   8.779   5.968   1.079  0.2256 -0.0006  0.3167
  719MOL0     C96975   9.775   5.749   1.527  0.0566 -0.5862  0.6932
  719MOL0     C96976   9.816   5.669   1.630  0.1388 -0.3872 -0.1510
  719MOL0     O96977   9.922   5.538   1.886 -0.0112 -0.1610 -0.3193
  719MOL0     C96978   9.984   5.202   1.789  0.6459 -0.2632  0.2179
  719MOL0     C96979  10.067   5.093   1.817 -0.7176 -0.2430 -0.1860
  719MOL0     N96980  10.702   4.629   2.036  0.0025  0.0018 -0.4635
  719MOL0     N96981  10.726   4.615   2.160 -0.6911  0.4832 -0.1093
  719MOL0     C96982   9.757   4.745   2.588 -0.3224  0.2639  1.2052
  719MOL0     C96983   9.627   4.713   2.549  0.3964 -0.9271 -0.0580
  719MOL0     C96984   9.251   4.455   2.488  0.5208 -0.7013 -0.3120
  719MOL0     C96985   9.151   4.549   2.513  0.5536  0.5219 -0.3239
  719MOL0     C96986   9.016   4.520   2.478 -0.7429  0.5519  0.1764
  719MOL0     C96987   8.984   4.395   2.424  0.6973 -0.7460  0.4227
  719MOL0     O96988   8.848   4.377   2.407 -0.5135 -0.3742  0.3615
  719MOL0     C96989   8.812   4.294   2.297  1.3633 -0.2576  0.1113
  719MOL0     C96990   8.663   4.329   2.264  0.0205 -0.5601  0.6531
  719MOL0     C96991   8.646   4.481   2.222 -0.0853  0.3564 -0.1741
  719MOL0     C96992   8.499   4.513   2.203 -0.3567  0.3353 -0.9321
  719MOL0     C96993   8.470   4.645   2.151 -0.1304  0.2851  0.1775
  719MOL0     C96994   8.449   4.758   2.102 -1.0191  0.1176 -0.2274
  719MOL0     C96995   9.080   4.301   2.399  0.7198  0.3195 -0.3311
  719MOL0     C96996   9.210   4.330   2.433 -0.7595  0.3537 -0.0112
  719MOL0     C96997   9.302   4.203   2.419  0.3459 -0.7786  0.0075
  719MOL0     H96998   9.515   4.518   2.804  0.8809  0.8574  1.8925
  719MOL0     H96999   9.750   4.569   2.884  0.5205  2.2396  0.4666
  719MOL0     H97000   9.933   4.898   2.699  0.5052  0.4736 -1.9822
  719MOL0     H97001  10.062   4.846   2.803 -2.3608 -0.4870  2.1238
  719MOL0     H97002  10.056   4.809   2.500  0.5989 -1.6711 -1.0560
  719MOL0     H97003  10.141   4.701   2.616  0.7648  0.5122  2.4440
  719MOL0     H97004  10.254   4.897   2.718 -0.2079  0.4429  0.4072
  719MOL0     H97005  10.159   5.009   2.616  1.4122  0.9305  1.5963
  719MOL0     H97006  10.262   4.917   2.406 -3.0266  0.2791  1.0920
  719MOL0     H97007  10.343   5.024   2.504 -3.2507  0.1916 -0.8713
  719MOL0     H97008  10.471   4.847   2.635 -1.0725 -1.8366  1.0187
  719MOL0     H97009  10.406   4.720   2.539  0.9609  0.0154  2.7285
  719MOL0     H97010  10.515   4.833   2.328 -1.8889 -1.5147  1.4309
  719MOL0     H97011  10.581   4.959   2.432 -0.1913 -0.1327  2.5139
  719MOL0     H97012  10.622   4.672   2.493 -1.9958  1.7671  4.3939
  719MOL0     H97013  10.716   4.810   2.547  0.9760  1.0300 -1.2126
  719MOL0     H97014  10.832   4.856   2.357  0.7542 -0.6884  2.3795
  719MOL0     H97015  10.851   4.681   2.380  1.7274  1.1417 -0.7804
  719MOL0     H97016  10.680   4.934   2.158  0.5571  0.0923 -0.5395
  719MOL0     H97017  10.693   4.869   1.830 -1.3425  3.2512  0.6446
  719MOL0     H97018  10.591   4.728   1.831  0.4747  0.1283  0.2667
  719MOL0     H97019  10.503   4.975   1.970  2.7664  0.1006 -1.6075
  719MOL0     H97020  10.480   4.944   1.810  1.2925  2.0242  0.3711
  719MOL0     H97021  10.376   4.804   2.061  0.1889 -3.4439  0.1032
  719MOL0     H97022  10.381   4.707   1.912  2.0325  0.8348  0.4474
  719MOL0     H97023  10.150   4.811   1.942  0.6715 -0.4411 -0.9311
  719MOL0     H97024  10.237   4.892   1.807 -0.4376 -2.2447 -0.9500
  719MOL0     H97025  10.198   5.223   2.112  1.7500 -1.9460 -1.1248
  719MOL0     H97026  10.073   5.408   2.048 -0.3749  1.6739 -3.3570
  719MOL0     H97027   9.689   5.379   1.523  0.0205  0.3246 -1.0202
  719MOL0     H97028   9.595   5.521   1.348 -2.5415  0.8941  0.8452
  719MOL0     H97029   9.766   5.958   1.356  0.4692  1.3490 -2.8041
  719MOL0     H97030   9.662   5.975   1.223  1.7889  3.8341  1.7267
  719MOL0     H97031   9.570   5.967   1.508 -0.0333 -0.6203 -0.6463
  719MOL0     H97032   9.564   6.102   1.400 -0.6595  0.8770  0.3338
  719MOL0     H97033   9.390   5.959   1.262 -0.6215  0.4195 -0.2517
  719MOL0     H97034   9.361   5.875   1.418  0.9410  0.0952  0.1574
  719MOL0     H97035   9.341   6.176   1.370  2.9047 -0.0794  1.3657
  719MOL0     H97036   9.343   6.103   1.531 -0.0273  1.5046  0.0515
  719MOL0     H97037   9.120   6.127   1.470 -0.4603  1.8906 -2.1932
  719MOL0     H97038   9.152   5.952   1.472 -0.6900 -1.0300 -1.2748
  719MOL0     H97039   9.150   6.119   1.224 -0.9537  1.1750  2.9798
  719MOL0     H97040   9.173   5.946   1.217 -1.6172 -0.6877 -2.0217
  719MOL0     H97041   8.924   6.111   1.260 -0.4122  0.4872 -1.4745
  719MOL0     H97042   8.942   5.945   1.327 -1.6706  1.1373  0.3991
  719MOL0     H97043   9.007   6.041   1.040  1.1434  3.7157  4.2397
  719MOL0     H97044   8.991   5.864   1.085  2.7293  0.8194 -1.1519
  719MOL0     H97045   9.806   5.853   1.525 -1.8158  0.0468  1.8152
  719MOL0     H97046   9.865   5.720   1.712 -0.9498 -1.1849  1.0194
  719MOL0     H97047   9.917   5.192   1.704  0.7280 -1.7177  0.3084
  719MOL0     H97048  10.079   5.011   1.747  0.1735 -0.0330 -0.2868
  719MOL0     H97049   9.812   4.817   2.528  0.2730 -1.3645 -0.2661
  719MOL0     H97050   9.609   4.752   2.449  2.2929  0.9903  0.2808
  719MOL0     H97051   9.183   4.650   2.538  1.2886  0.2006  0.1030
  719MOL0     H97052   8.945   4.602   2.486 -1.5240 -0.1767  0.8684
  719MOL0     H97053   8.824   4.193   2.337 -2.1935 -0.0944  1.9986
  719MOL0     H97054   8.867   4.311   2.205 -1.0161  3.2076 -0.8812
  719MOL0     H97055   8.600   4.320   2.353 -3.1670  2.3954 -1.0569
  719MOL0     H97056   8.633   4.265   2.181  0.1454 -1.2303  1.1149
  719MOL0     H97057   8.697   4.496   2.126 -0.9603  0.1814 -0.6779
  719MOL0     H97058   8.688   4.545   2.301 -1.8593  2.0477 -0.5217
  719MOL0     H97059   8.453   4.440   2.134  1.3652 -0.9295 -0.8089
  719MOL0     H97060   8.444   4.502   2.297 -0.7412  0.3672 -1.1506
  719MOL0     H97061   8.454   4.853   2.054  0.9387  0.2369  0.1190
  719MOL0     H97062   9.061   4.195   2.382  0.4732  0.5799 -1.8154
  719MOL0     H97063   9.382   4.218   2.346  1.0275 -1.3292  0.6361
  719MOL0     H97064   9.344   4.190   2.519 -1.4859  0.3658  0.9992
  719MOL0     H97065   9.253   4.107   2.402  1.4755 -1.3451 -0.1006
  720MOL0     O97066   6.895   0.150   5.484 -0.0362 -0.0320  0.0935
  720MOL0     C97067   6.870   0.133   5.363  0.0916  0.2357  0.2827
  720MOL0     O97068   6.935   0.201   5.255 -0.4307  0.1169  0.3807
  720MOL0     C97069   7.037   0.282   5.284  0.9625  0.8563 -0.1148
  720MOL0     C97070   7.047   0.398   5.209  0.4214 -0.2269 -0.1095
  720MOL0     C97071   7.149   0.487   5.210 -0.3962  0.6653 -0.7947
  720MOL0     C97072   7.259   0.465   5.299  0.3484  0.7535 -0.4352
  720MOL0     O97073   7.357   0.562   5.308  0.1657 -0.5349  0.7450
  720MOL0     C97074   7.472   0.544   5.372  0.2867 -0.4762 -0.9064
  720MOL0     C97075   7.552   0.672   5.389 -1.0630  0.0844 -0.0239
  720MOL0     C97076   7.689   0.646   5.467 -0.3038  0.7121 -0.4698
  720MOL0     C97077   7.792   0.752   5.438 -1.2967 -0.0579  1.0645
  720MOL0     C97078   7.935   0.715   5.489 -0.9100  0.3618 -0.6867
  720MOL0     C97079   8.029   0.821   5.444 -0.0881  0.3955  0.5131
  720MOL0     C97080   8.176   0.788   5.484  0.5801  0.7337 -0.5451
  720MOL0     C97081   8.273   0.887   5.423  0.1017  0.6581  0.9534
  720MOL0     N97082   8.405   0.823   5.448 -0.6382 -0.6177  0.0222
  720MOL0     C97083   8.459   0.776   5.563  0.8550  0.4935 -0.3132
  720MOL0     C97084   8.585   0.729   5.533 -0.9819 -0.0386  0.0326
  720MOL0     C97085   8.682   0.667   5.635 -0.7038 -0.0416  0.8105
  720MOL0     C97086   8.747   0.772   5.725  0.6043 -0.4480 -0.1252
  720MOL0     C97087   8.873   0.848   5.661 -0.1856 -0.4148 -0.1105
  720MOL0     C97088   9.000   0.770   5.631 -0.6740  0.2915  0.1516
  720MOL0     O97089   9.114   0.854   5.598  0.4573 -0.0102  0.6701
  720MOL0     C97090   9.234   0.808   5.632 -0.1272 -0.4589 -0.3257
  720MOL0     C97091   9.263   0.671   5.617 -0.3084  0.3777 -0.7174
  720MOL0     C97092   9.385   0.613   5.670  0.2391  0.5066 -0.9172
  720MOL0     C97093   9.481   0.695   5.728 -0.1602  0.0368 -0.3486
  720MOL0     C97094   9.603   0.637   5.791 -0.2702 -0.0061 -0.5670
  720MOL0     O97095   9.653   0.517   5.755  0.4277  0.5084 -0.1874
  720MOL0     C97096   9.773   0.486   5.808 -0.3386  0.3833 -0.3583
  720MOL0     C97097   9.884   0.487   5.730  0.4910  0.3791 -0.1268
  720MOL0     C97098  10.010   0.434   5.779  0.2164 -0.1917  0.2744
  720MOL0     C97099  10.028   0.392   5.916 -0.0461  0.7195 -0.2414
  720MOL0     O97100  10.159   0.349   5.959 -0.0741 -0.1121 -0.8725
  720MOL0     C97101  10.170   0.337   6.104 -0.6018  0.1996  0.7113
  720MOL0     C97102  10.320   0.317   6.135 -0.4769 -1.4788 -0.5422
  720MOL0     C97103  10.422   0.244   6.046 -0.5660 -0.5217 -0.4151
  720MOL0     C97104  10.566   0.277   6.093  0.4342 -0.1417  0.7055
  720MOL0     C97105  10.676   0.175   6.052  0.0289  0.0587  0.3837
  720MOL0     C97106  10.669   0.106   5.917  0.4184 -0.3902  0.4913
  720MOL0     C97107  10.794   0.018   5.906 -0.5104  0.6239  0.3863
  720MOL0     C97108  10.802  -0.041   5.760  0.3751 -1.0781  0.5198
  720MOL0    Cl97109  10.790   0.075   5.626 -0.3605 -0.1980  0.0205
  720MOL0     C97110   9.907   0.375   5.994 -0.8518  0.1190  0.0504
  720MOL0     C97111   9.781   0.420   5.932  0.4982 -0.5720  0.1137
  720MOL0     O97112   9.650   0.706   5.881 -0.0077 -0.1070 -0.4269
  720MOL0     C97113   9.456   0.838   5.734  0.6652 -0.7024  0.1751
  720MOL0     C97114   9.336   0.890   5.683 -0.0354  0.6108 -0.8305
  720MOL0     N97115   8.609   0.757   5.400 -0.8013 -0.3095  0.6127
  720MOL0     N97116   8.504   0.824   5.354  0.2538  0.0836 -0.4003
  720MOL0     C97117   7.248   0.354   5.383  0.4365  0.2577  0.0713
  720MOL0     C97118   7.137   0.268   5.378  0.3836  0.6276 -0.2338
  720MOL0     C97119   6.763   0.047   5.322 -0.3476  0.2723  0.5480
  720MOL0     C97120   6.701   0.069   5.195  0.6331  0.0831  0.1249
  720MOL0     C97121   6.570   0.023   5.167  0.6264 -0.1101 -0.8375
  720MOL0     C97122   6.493  -0.044   5.265 -0.1703 -0.7727  0.2120
  720MOL0     O97123   6.356  -0.058   5.234 -0.1958 -0.1250 -0.8375
  720MOL0     C97124   6.276  -0.117   5.340  0.0531  0.3344 -0.0439
  720MOL0     C97125   6.146  -0.160   5.272  0.4539 -0.5685  0.8514
  720MOL0     C97126   6.047  -0.228   5.364 -0.2799  0.2757 -1.0000
  720MOL0     C97127   5.920  -0.292   5.284  0.0018  0.0190  0.3902
  720MOL0     C97128   5.830  -0.183   5.239 -0.8211 -0.3885  0.5725
  720MOL0     C97129   5.769  -0.097   5.178  1.0651 -0.5710 -0.4274
  720MOL0     C97130   6.561  -0.081   5.385 -0.4520  0.1515  0.5065
  720MOL0     C97131   6.695  -0.042   5.412  0.5474  0.9256 -0.5369
  720MOL0     C97132   6.773  -0.105   5.523 -0.7065 -0.8899 -0.5455
  720MOL0     H97133   6.975   0.416   5.130 -1.3667  0.7995  1.6636
  720MOL0     H97134   7.161   0.575   5.147  2.2807 -0.4106 -1.9509
  720MOL0     H97135   7.452   0.508   5.473  0.2320 -1.1790 -1.1593
  720MOL0     H97136   7.541   0.474   5.323  0.3677 -1.3749  0.4331
  720MOL0     H97137   7.487   0.748   5.432 -1.0603  0.7949 -1.2336
  720MOL0     H97138   7.582   0.703   5.288  0.0041  1.9280  0.8070
  720MOL0     H97139   7.738   0.554   5.434 -0.4899  0.8660 -1.1874
  720MOL0     H97140   7.672   0.642   5.575  0.7019  0.9708 -0.2928
  720MOL0     H97141   7.806   0.770   5.331  1.5267 -2.1844  0.9378
  720MOL0     H97142   7.756   0.844   5.485  0.3926 -0.3191  3.0112
  720MOL0     H97143   7.946   0.687   5.594  0.6173 -2.0595 -1.4339
  720MOL0     H97144   7.966   0.627   5.433  0.0373  1.1582 -1.4401
  720MOL0     H97145   8.017   0.846   5.338 -0.5018  1.1823  0.7334
  720MOL0     H97146   8.002   0.915   5.494 -0.4317  0.4714  0.1898
  720MOL0     H97147   8.203   0.686   5.453  0.1747 -0.0345  1.4499
  720MOL0     H97148   8.186   0.784   5.592 -0.9837 -0.1766 -0.3950
  720MOL0     H97149   8.253   0.900   5.316  0.1242  0.7550  0.9606
  720MOL0     H97150   8.270   0.988   5.466  0.3842  1.1818 -0.2351
  720MOL0     H97151   8.425   0.770   5.666  0.1448  0.6486 -0.5365
  720MOL0     H97152   8.632   0.594   5.700 -3.4639  1.4683  0.5298
  720MOL0     H97153   8.765   0.620   5.581 -1.7729  1.6101 -2.5053
  720MOL0     H97154   8.676   0.850   5.754  1.1968  0.3438 -0.7716
  720MOL0     H97155   8.773   0.728   5.821  0.7049 -1.2003 -0.4855
  720MOL0     H97156   8.899   0.919   5.740 -0.2934 -0.1259 -0.3319
  720MOL0     H97157   8.844   0.908   5.574 -0.9866  1.3116  1.3000
  720MOL0     H97158   8.979   0.709   5.543  1.9158  1.2285 -1.2326
  720MOL0     H97159   9.029   0.702   5.711  2.3161  0.7131 -0.4512
  720MOL0     H97160   9.185   0.612   5.570 -1.1452 -0.8519  2.0054
  720MOL0     H97161   9.417   0.509   5.666  3.1869  1.2122  0.7580
  720MOL0     H97162   9.876   0.514   5.625  1.0819 -2.5839 -1.0150
  720MOL0     H97163  10.094   0.442   5.710  0.6135  0.6136  0.8409
  720MOL0     H97164  10.135   0.430   6.150  3.2513  1.6383  1.1483
  720MOL0     H97165  10.104   0.253   6.126 -1.3268  0.3783 -0.6491
  720MOL0     H97166  10.351   0.420   6.156 -2.0646 -1.2664  1.0918
  720MOL0     H97167  10.326   0.276   6.236 -1.0872 -2.1601 -0.7755
  720MOL0     H97168  10.400   0.138   6.058 -1.7795 -0.2642 -0.2289
  720MOL0     H97169  10.402   0.276   5.943 -1.8772  0.1653  0.0335
  720MOL0     H97170  10.557   0.293   6.201 -1.8632  3.1295  0.1629
  720MOL0     H97171  10.601   0.375   6.059  0.7217 -1.6195 -3.8628
  720MOL0     H97172  10.656   0.092   6.120 -0.9671 -2.8620 -3.1200
  720MOL0     H97173  10.774   0.223   6.064 -0.8281  1.7659  0.8499
  720MOL0     H97174  10.579   0.045   5.902 -0.3225  0.8911 -0.4025
  720MOL0     H97175  10.662   0.185   5.842 -0.6238 -1.3009 -0.3973
  720MOL0     H97176  10.819  -0.068   5.969  2.6354 -1.1789 -2.9101
  720MOL0     H97177  10.882   0.083   5.917  0.6849 -0.9125  0.2434
  720MOL0     H97178  10.895  -0.097   5.759  1.1492  0.1744 -0.0276
  720MOL0     H97179  10.714  -0.105   5.745 -0.1221 -0.5187  0.9775
  720MOL0     H97180   9.912   0.331   6.093 -0.3083 -0.3667 -0.1879
  720MOL0     H97181   9.696   0.402   5.997  0.9663 -0.6517  0.7105
  720MOL0     H97182   9.535   0.908   5.762 -1.4149  1.9356 -0.1155
  720MOL0     H97183   9.311   0.995   5.684 -2.2385  0.1435 -0.5528
  720MOL0     H97184   7.318   0.324   5.460 -0.3843  1.6046  1.4023
  720MOL0     H97185   7.131   0.180   5.441 -0.7373  0.3795 -0.6495
  720MOL0     H97186   6.754   0.128   5.122  2.7042 -1.1593  0.5469
  720MOL0     H97187   6.517   0.052   5.077  1.6152  0.8690 -1.1264
  720MOL0     H97188   6.245  -0.043   5.414 -3.1760  0.5961 -1.4838
  720MOL0     H97189   6.322  -0.203   5.391 -1.5243 -0.6468 -0.1984
  720MOL0     H97190   6.184  -0.228   5.195  1.3030  1.8137 -0.9671
  720MOL0     H97191   6.102  -0.071   5.226 -0.4035 -2.0569 -1.3692
  720MOL0     H97192   6.008  -0.164   5.444 -1.0115 -1.2985 -0.0452
  720MOL0     H97193   6.092  -0.317   5.409 -2.9067 -0.7176 -0.1178
  720MOL0     H97194   5.944  -0.343   5.190 -2.7043 -0.4660 -0.1005
  720MOL0     H97195   5.868  -0.360   5.352  0.0024 -0.5900 -0.2023
  720MOL0     H97196   5.712  -0.017   5.135 -0.0972  0.8871  3.4414
  720MOL0     H97197   6.520  -0.149   5.459 -0.7566  1.2974  1.4268
  720MOL0     H97198   6.726  -0.198   5.556 -0.1540 -1.2191 -0.6766
  720MOL0     H97199   6.881  -0.120   5.508 -0.2544  1.9454 -0.6584
  720MOL0     H97200   6.767  -0.038   5.610 -3.0934 -0.4024 -1.0285
  721MOL0     O97201   8.997  10.551  10.287  0.5748  0.1835  1.1029
  721MOL0     C97202   9.018  10.552  10.409 -0.2040  1.0198 -0.3514
  721MOL0     O97203   9.136  10.601  10.462  0.7406  0.7622 -0.3399
  721MOL0     C97204   9.230  10.632  10.365 -0.3486  0.0055 -0.2054
  721MOL0     C97205   9.293  10.535  10.278 -0.1052 -0.3258  0.4344
  721MOL0     C97206   9.393  10.580  10.193 -0.7363 -0.1507 -0.0179
  721MOL0     C97207   9.441  10.713  10.197  0.7579  0.1551 -0.0671
  721MOL0     O97208   9.544  10.770  10.131  0.0656 -0.4267  0.5681
  721MOL0     C97209   9.620  10.680  10.051  0.5412 -0.2334  0.3711
  721MOL0     C97210   9.740  10.757   9.996  0.0106  0.4777  0.3394
  721MOL0     C97211   9.817  10.672   9.897  0.3577  0.8839  0.4519
  721MOL0     C97212   9.948  10.717   9.851  0.3645  0.3438 -0.1756
  721MOL0     C97213   9.981  10.670   9.714 -0.2767  0.7029 -0.2412
  721MOL0     C97214  10.098  10.745   9.646 -0.7555  0.6075  0.0575
  721MOL0     C97215  10.054  10.795   9.511 -0.4788 -0.2244  0.0591
  721MOL0     C97216  10.161  10.881   9.437 -0.1483  0.8553 -0.3682
  721MOL0     N97217  10.273  10.813   9.383 -0.0365 -0.2277  0.8867
  721MOL0     C97218  10.271  10.694   9.311 -0.1598  0.3609  1.1518
  721MOL0     C97219  10.400  10.679   9.280  0.5334  0.3032 -0.0996
  721MOL0     C97220  10.444  10.559   9.197  0.2082 -1.0702  0.1775
  721MOL0     C97221  10.591  10.573   9.143 -0.5081  0.4291 -0.6371
  721MOL0     C97222  10.690  10.567   9.259 -1.0933 -0.2068 -0.8422
  721MOL0     C97223  10.836  10.536   9.208 -0.2383  0.4860 -0.0929
  721MOL0     O97224  10.910  10.511   9.327  0.8146 -0.4108  0.8467
  721MOL0     C97225  11.048  10.488   9.311 -0.4712  0.6541 -1.1002
  721MOL0     C97226  11.117  10.471   9.182 -0.2203 -0.8049 -0.5458
  721MOL0     C97227  11.248  10.438   9.186  0.0856 -0.2731  0.2358
  721MOL0     C97228  11.320  10.427   9.300  0.2797  0.5821  0.7859
  721MOL0     C97229  11.465  10.394   9.307  0.6851 -0.3071  0.2352
  721MOL0     O97230  11.534  10.404   9.191  0.3111 -0.5785  0.1071
  721MOL0     C97231  11.670  10.395   9.197 -0.5276  0.4410 -0.5077
  721MOL0     C97232  11.747  10.499   9.151  0.6067 -0.6869 -0.4353
  721MOL0     C97233  11.882  10.486   9.150  0.6530 -0.5644  0.3272
  721MOL0     C97234  11.952  10.367   9.194 -0.1347 -0.5345  0.8689
  721MOL0     O97235  12.089  10.350   9.168  0.1909 -0.5499 -0.1312
  721MOL0     C97236  12.169  10.236   9.208  1.0408  0.7874 -0.3235
  721MOL0     C97237  12.294  10.215   9.120  0.6341  0.4337  0.6276
  721MOL0     C97238  12.258  10.210   8.971  0.0102 -0.1056 -0.0670
  721MOL0     C97239  12.388  10.191   8.883 -0.1536  0.0972  0.2171
  721MOL0     C97240  12.482  10.311   8.873 -0.3221  0.4113 -0.1825
  721MOL0     C97241  12.604  10.273   8.782 -0.0198 -0.3022 -0.5099
  721MOL0     C97242  12.560  10.242   8.640  0.2869  0.0393 -0.7040
  721MOL0     C97243  12.680  10.212   8.556  0.0436 -0.1601  0.1285
  721MOL0    Cl97244  12.766  10.350   8.519  0.7057  0.1515 -0.0886
  721MOL0     C97245  11.873  10.269   9.252 -0.2192  0.6653  0.2597
  721MOL0     C97246  11.737  10.277   9.243  0.3577 -0.8430 -0.7691
  721MOL0     O97247  11.520  10.378   9.420 -0.4698 -0.0387  0.7627
  721MOL0     C97248  11.249  10.429   9.425 -0.0131  0.0576  0.5491
  721MOL0     C97249  11.114  10.457   9.431  0.1087  0.8497 -0.4105
  721MOL0     N97250  10.482  10.780   9.321  0.6570  0.0047 -0.3058
  721MOL0     N97251  10.402  10.850   9.403 -0.1829  0.3800  0.7783
  721MOL0     C97252   9.380  10.802  10.283  0.9740 -0.1632  0.0153
  721MOL0     C97253   9.275  10.760  10.359 -0.4174 -0.1169  0.8064
  721MOL0     C97254   8.909  10.511  10.496  0.7849  0.0135  0.0397
  721MOL0     C97255   8.932  10.532  10.631 -0.2808 -0.8182 -0.1907
  721MOL0     C97256   8.830  10.529  10.729 -0.6324  0.9047  0.3984
  721MOL0     C97257   8.709  10.480  10.684 -0.6562  0.0003 -0.1900
  721MOL0     O97258   8.619  10.481  10.787  0.2897  0.6389 -0.2439
  721MOL0     C97259   8.488  10.453  10.754  0.3240  0.4808  0.3096
  721MOL0     C97260   8.394  10.522  10.842 -0.2518  0.1869 -0.5331
  721MOL0     C97261   8.377  10.462  10.981  0.4766  0.9398 -0.3274
  721MOL0     C97262   8.259  10.525  11.046  0.3615 -0.1604  0.0037
  721MOL0     C97263   8.253  10.480  11.192 -0.6936 -0.0636  0.5262
  721MOL0     C97264   8.245  10.447  11.313 -0.0062  0.1021 -0.3530
  721MOL0     C97265   8.693  10.422  10.561  0.0175 -0.7800  0.7293
  721MOL0     C97266   8.786  10.453  10.464  0.7351  0.0067  0.6719
  721MOL0     C97267   8.736  10.432  10.327  0.2957 -0.3169  0.2701
  721MOL0     H97268   9.265  10.430  10.281 -1.3182 -0.0281  0.2690
  721MOL0     H97269   9.439  10.512  10.122 -0.9895 -1.8760  1.4068
  721MOL0     H97270   9.652  10.594  10.111  1.1089 -0.9506 -0.9357
  721MOL0     H97271   9.554  10.655   9.967  0.1939  2.4105 -0.2404
  721MOL0     H97272   9.799  10.782  10.085  0.0301  4.4501 -0.6263
  721MOL0     H97273   9.698  10.845   9.948  1.8054  0.7306 -0.8661
  721MOL0     H97274   9.753  10.676   9.808  1.1221  1.2448 -0.0943
  721MOL0     H97275   9.828  10.569   9.933  0.6954  0.9190  0.4525
  721MOL0     H97276   9.945  10.826   9.862  1.5235  0.3712 -0.0107
  721MOL0     H97277  10.017  10.679   9.927  1.1571 -1.0440 -1.5407
  721MOL0     H97278  10.018  10.567   9.719  0.2336  0.9365  1.4374
  721MOL0     H97279   9.890  10.669   9.654 -1.4546 -0.9227  1.4649
  721MOL0     H97280  10.123  10.827   9.714 -1.2108  0.7648  0.0353
  721MOL0     H97281  10.189  10.685   9.637 -0.6942  0.5195  1.1188
  721MOL0     H97282   9.966  10.859   9.524 -1.9730 -2.2754  0.6356
  721MOL0     H97283  10.033  10.709   9.447  0.1882  0.5152 -1.1794
  721MOL0     H97284  10.122  10.951   9.363 -0.1655  1.5858  0.3204
  721MOL0     H97285  10.201  10.943   9.518  1.9915 -0.5183 -0.2768
  721MOL0     H97286  10.189  10.625   9.292  1.4911 -1.3589 -0.1074
  721MOL0     H97287  10.449  10.473   9.265  2.8507  0.8076  2.6065
  721MOL0     H97288  10.377  10.542   9.113  0.8774  2.8775 -1.3815
  721MOL0     H97289  10.616  10.506   9.060 -2.4295 -1.2195  0.0384
  721MOL0     H97290  10.592  10.675   9.103 -2.3608  0.3886 -0.8420
  721MOL0     H97291  10.663  10.486   9.328 -1.1452  2.6936  2.8948
  721MOL0     H97292  10.706  10.663   9.308  3.0724  0.1697 -2.5623
  721MOL0     H97293  10.882  10.616   9.149  0.1154  0.8396  0.6438
  721MOL0     H97294  10.824  10.444   9.151 -4.3026  0.3349  0.7224
  721MOL0     H97295  11.058  10.504   9.097 -0.8658 -0.1760  0.1242
  721MOL0     H97296  11.297  10.427   9.090 -1.0720  0.7355 -0.4888
  721MOL0     H97297  11.691  10.583   9.112 -0.0222 -1.3520 -0.9898
  721MOL0     H97298  11.942  10.557   9.093 -3.6349  1.8857 -1.5910
  721MOL0     H97299  12.209  10.255   9.308  0.0929 -1.4557  0.5441
  721MOL0     H97300  12.116  10.141   9.219 -0.6524  1.6685 -0.5312
  721MOL0     H97301  12.360  10.300   9.138  3.4499 -1.1113 -1.6249
  721MOL0     H97302  12.349  10.125   9.147  0.1551  0.2792  1.1108
  721MOL0     H97303  12.183  10.131   8.965  0.0748 -0.1965  0.3106
  721MOL0     H97304  12.217  10.306   8.939 -1.1735 -0.6530 -0.2281
  721MOL0     H97305  12.345  10.156   8.789  2.1668 -0.7706 -0.5893
  721MOL0     H97306  12.447  10.106   8.917  2.3191  2.0112  1.0007
  721MOL0     H97307  12.516  10.347   8.971 -2.0559  3.1267 -0.4682
  721MOL0     H97308  12.420  10.392   8.834 -0.8888 -0.6445 -1.5220
  721MOL0     H97309  12.662  10.366   8.779 -0.3445 -0.0540  0.4237
  721MOL0     H97310  12.672  10.196   8.820  1.5380  1.5105  0.5424
  721MOL0     H97311  12.495  10.324   8.608  0.5781  0.3914 -0.4018
  721MOL0     H97312  12.490  10.158   8.640 -1.7428  1.6287  0.5348
  721MOL0     H97313  12.751  10.142   8.602  0.3085 -0.5362 -0.8179
  721MOL0     H97314  12.645  10.153   8.471 -0.5157 -0.0708  0.2958
  721MOL0     H97315  11.914  10.183   9.304  2.0929  2.7277  2.0851
  721MOL0     H97316  11.677  10.198   9.288  0.1255 -0.6075 -0.6683
  721MOL0     H97317  11.307  10.407   9.514 -0.4064 -1.4406  0.4634
  721MOL0     H97318  11.059  10.457   9.525  2.7745 -2.1856  1.3705
  721MOL0     H97319   9.415  10.902  10.306  3.7201 -1.0782  0.1997
  721MOL0     H97320   9.229  10.842  10.413  1.5926  1.0233  0.8707
  721MOL0     H97321   9.032  10.557  10.665 -0.9254  0.4374  0.8768
  721MOL0     H97322   8.833  10.562  10.832 -0.4398  1.9950  0.0590
  721MOL0     H97323   8.472  10.345  10.746 -1.9472  0.7697  0.3028
  721MOL0     H97324   8.468  10.478  10.649 -3.1444  3.9268  1.5504
  721MOL0     H97325   8.293  10.515  10.799 -0.7134  0.6996  0.4256
  721MOL0     H97326   8.419  10.628  10.853  0.2787  0.1430 -1.2339
  721MOL0     H97327   8.461  10.492  11.045 -0.9688 -0.0162  2.1603
  721MOL0     H97328   8.368  10.353  10.983 -1.0748  1.0121 -1.6060
  721MOL0     H97329   8.270  10.633  11.034 -1.6849 -0.1621 -2.9281
  721MOL0     H97330   8.162  10.498  11.002  1.6125 -2.2441 -1.6857
  721MOL0     H97331   8.248  10.425  11.418  0.1254  0.5303 -0.2629
  721MOL0     H97332   8.603  10.368  10.534 -1.9973  1.4653  2.4914
  721MOL0     H97333   8.717  10.528  10.278  0.7246 -0.3846 -0.0306
  721MOL0     H97334   8.809  10.374  10.270 -0.6762 -0.2507 -1.0834
  721MOL0     H97335   8.645  10.372  10.335 -0.6529  0.9695 -0.4139
  722MOL0     O97336   3.188   3.055   4.786 -0.1691  0.0941  0.2265
  722MOL0     C97337   3.148   3.069   4.905 -0.2267  0.6828  0.6181
  722MOL0     O97338   3.230   3.085   5.004  0.4241  0.2281 -0.4936
  722MOL0     C97339   3.358   3.103   4.982 -0.5799 -0.1380 -0.4468
  722MOL0     C97340   3.403   3.237   4.950  0.8168  0.5242 -0.1545
  722MOL0     C97341   3.540   3.260   4.935 -0.2434  0.4612 -0.7125
  722MOL0     C97342   3.626   3.150   4.939 -0.6991  0.3580 -0.2642
  722MOL0     O97343   3.763   3.163   4.913  0.2242 -0.2280 -0.2531
  722MOL0     C97344   3.812   3.294   4.910 -0.6498  0.0965  0.4855
  722MOL0     C97345   3.962   3.291   4.880  0.1773 -0.1583 -0.1112
  722MOL0     C97346   4.002   3.390   4.769  0.6470 -0.7436  0.2071
  722MOL0     C97347   4.152   3.411   4.738  0.0077  1.0063  0.5578
  722MOL0     C97348   4.185   3.519   4.637  0.2526  0.1379  0.0999
  722MOL0     C97349   4.335   3.533   4.635 -0.0003  0.2765  0.3818
  722MOL0     C97350   4.379   3.623   4.523 -0.3959  0.7555  1.0523
  722MOL0     C97351   4.534   3.625   4.516  1.1389 -0.5965  0.3260
  722MOL0     N97352   4.599   3.680   4.630 -0.7406 -0.5400 -0.4148
  722MOL0     C97353   4.675   3.610   4.719  0.7450  0.0271 -1.3403
  722MOL0     C97354   4.729   3.705   4.798  0.1667 -1.0782  0.8219
  722MOL0     C97355   4.796   3.682   4.929  0.5144  0.1368 -0.3040
  722MOL0     C97356   4.949   3.668   4.907 -0.2644 -0.5364 -0.5416
  722MOL0     C97357   5.024   3.657   5.041  0.2116  0.4753  0.2273
  722MOL0     C97358   5.159   3.593   5.020  0.3845  0.7661 -0.7600
  722MOL0     O97359   5.251   3.633   5.115  0.4846 -0.1165  0.6526
  722MOL0     C97360   5.379   3.675   5.095  0.1028 -0.8070  0.2226
  722MOL0     C97361   5.460   3.674   5.210  0.9068 -0.0585  0.2376
  722MOL0     C97362   5.593   3.714   5.210  0.1306  0.0651 -0.7536
  722MOL0     C97363   5.655   3.743   5.088 -0.3730 -0.3213  0.1256
  722MOL0     C97364   5.810   3.748   5.091 -0.0582  0.4504 -0.3659
  722MOL0     O97365   5.864   3.764   4.968 -0.4555  0.2025  0.8655
  722MOL0     C97366   6.002   3.762   4.955  0.0074 -0.1875 -0.2985
  722MOL0     C97367   6.081   3.837   5.036  1.0178  0.4394  0.5702
  722MOL0     C97368   6.215   3.824   5.029  0.0108 -0.2979  0.1659
  722MOL0     C97369   6.276   3.744   4.930 -0.1257 -0.2130  0.0839
  722MOL0     O97370   6.407   3.708   4.932  0.0169 -0.7428 -0.5977
  722MOL0     C97371   6.500   3.810   4.892 -0.1037  0.2529  0.4805
  722MOL0     C97372   6.551   3.808   4.752 -0.5072  1.3971  0.5809
  722MOL0     C97373   6.671   3.896   4.723 -0.1524  0.1796 -0.3611
  722MOL0     C97374   6.776   3.827   4.643 -0.0142 -0.6325 -0.1990
  722MOL0     C97375   6.871   3.918   4.560 -0.6960 -0.9658 -0.0052
  722MOL0     C97376   6.985   3.983   4.650 -0.3873 -0.1544  0.7850
  722MOL0     C97377   7.117   3.896   4.642  0.1477  0.0239  0.1344
  722MOL0     C97378   7.206   3.912   4.768 -0.3210  0.0857  0.6158
  722MOL0    Cl97379   7.356   3.812   4.752  0.3542 -0.2764 -0.2292
  722MOL0     C97380   6.199   3.689   4.833  0.7701 -0.8940 -0.5371
  722MOL0     C97381   6.058   3.698   4.842 -0.3475 -0.3805  0.4944
  722MOL0     O97382   5.868   3.735   5.196  0.7487 -0.0289 -0.6304
  722MOL0     C97383   5.582   3.731   4.963 -0.5494  0.2703  0.4564
  722MOL0     C97384   5.444   3.701   4.971  0.9678  0.7039  0.5608
  722MOL0     N97385   4.707   3.833   4.743 -0.2481  0.5276 -0.9334
  722MOL0     N97386   4.623   3.818   4.648  0.5224  0.6694  0.1412
  722MOL0     C97387   3.581   3.019   4.953  0.6765  0.2478 -0.5607
  722MOL0     C97388   3.445   2.998   4.989 -0.2911 -0.2933  0.8304
  722MOL0     C97389   3.011   3.037   4.955  0.5886  1.1195 -0.1367
  722MOL0     C97390   2.984   3.034   5.096 -0.2702 -0.1101  0.0520
  722MOL0     C97391   2.865   2.985   5.146  0.4044 -0.6605  0.2541
  722MOL0     C97392   2.764   2.950   5.061  0.1030  0.1247  0.6613
  722MOL0     O97393   2.642   2.925   5.102 -0.7593 -0.0885 -0.7748
  722MOL0     C97394   2.580   3.053   5.123  0.5546  0.1100 -0.0792
  722MOL0     C97395   2.525   3.051   5.267  0.3991 -0.3819  0.6610
  722MOL0     C97396   2.406   3.146   5.273 -0.0284  0.2912 -0.7445
  722MOL0     C97397   2.357   3.147   5.420  0.3106 -0.8414  0.3954
  722MOL0     C97398   2.230   3.224   5.418  0.1533 -0.0671 -0.1551
  722MOL0     C97399   2.132   3.292   5.407 -1.1164 -0.1194 -0.2021
  722MOL0     C97400   2.782   2.956   4.924  0.1550 -0.7772  0.1950
  722MOL0     C97401   2.904   2.988   4.871 -0.3701  0.0824 -0.1466
  722MOL0     C97402   2.918   2.975   4.714  0.0396  0.0823 -0.4167
  722MOL0     H97403   3.326   3.313   4.941 -0.2702 -0.3833  1.0697
  722MOL0     H97404   3.565   3.363   4.912  0.6144  0.2755 -0.6337
  722MOL0     H97405   3.764   3.369   4.847 -1.3645 -0.6293  0.1591
  722MOL0     H97406   3.810   3.328   5.014  3.9364 -0.4946  0.9809
  722MOL0     H97407   3.969   3.192   4.833 -2.6538  0.5699 -2.3773
  722MOL0     H97408   4.019   3.289   4.973  0.3282  2.3291 -0.0901
  722MOL0     H97409   3.960   3.490   4.784  3.2766  0.6441 -0.9240
  722MOL0     H97410   3.959   3.356   4.675  2.5725 -0.6437 -0.7657
  722MOL0     H97411   4.188   3.440   4.837 -1.1762  4.6202  0.0672
  722MOL0     H97412   4.198   3.316   4.709  1.8965  1.8673  0.6130
  722MOL0     H97413   4.141   3.487   4.542  2.1549 -1.4535 -0.3189
  722MOL0     H97414   4.143   3.616   4.664  0.4110  0.6239 -1.3484
  722MOL0     H97415   4.371   3.573   4.730  1.2088  0.7590 -0.2528
  722MOL0     H97416   4.384   3.436   4.626  1.2724  0.6916  2.2795
  722MOL0     H97417   4.336   3.720   4.552 -2.6401 -0.0008  0.4735
  722MOL0     H97418   4.321   3.586   4.438  1.1041 -1.6426  0.9979
  722MOL0     H97419   4.582   3.527   4.500  0.9886 -0.4708 -0.9410
  722MOL0     H97420   4.553   3.686   4.427  0.6797 -1.7184 -0.5669
  722MOL0     H97421   4.681   3.502   4.733 -0.6407 -0.0117 -0.8427
  722MOL0     H97422   4.783   3.767   4.996  1.2094 -1.0982  1.4640
  722MOL0     H97423   4.752   3.599   4.985  0.7135 -0.2793 -0.7458
  722MOL0     H97424   4.974   3.591   4.833  1.3348 -0.0107 -0.5825
  722MOL0     H97425   4.984   3.761   4.861 -1.7303 -0.0430 -0.7076
  722MOL0     H97426   4.961   3.603   5.112  0.1615  1.2650  0.8046
  722MOL0     H97427   5.038   3.754   5.089  2.8689 -0.4284  1.4884
  722MOL0     H97428   5.193   3.627   4.922  3.4990  0.0791 -0.0236
  722MOL0     H97429   5.150   3.484   5.019  0.5803  0.7344 -2.7952
  722MOL0     H97430   5.407   3.639   5.299 -1.4806  0.3674 -0.9302
  722MOL0     H97431   5.660   3.706   5.295  0.3785  1.3500 -0.8057
  722MOL0     H97432   6.041   3.889   5.123 -1.1959 -0.0661 -0.0800
  722MOL0     H97433   6.270   3.881   5.104  1.4723 -2.2130  0.6433
  722MOL0     H97434   6.463   3.911   4.917 -2.8910 -1.6338  5.3994
  722MOL0     H97435   6.584   3.789   4.959  0.7784 -1.3184 -1.0406
  722MOL0     H97436   6.573   3.703   4.729 -0.2687  0.9331  2.7348
  722MOL0     H97437   6.475   3.826   4.675 -0.5098 -1.1649 -0.0830
  722MOL0     H97438   6.635   3.981   4.664 -1.0684  0.7160  0.9272
  722MOL0     H97439   6.719   3.945   4.808 -2.2209  1.0705  0.3655
  722MOL0     H97440   6.720   3.774   4.565  0.6624  3.2151 -3.6866
  722MOL0     H97441   6.836   3.756   4.700 -1.3345  1.1641  3.7326
  722MOL0     H97442   6.815   3.998   4.510  2.3065  0.5592 -1.2019
  722MOL0     H97443   6.913   3.872   4.470  0.6357 -1.2827  0.7589
  722MOL0     H97444   7.013   4.081   4.612 -2.4283 -0.4059 -1.6602
  722MOL0     H97445   6.958   3.998   4.755 -1.6466  2.1222  0.2208
  722MOL0     H97446   7.175   3.908   4.551  2.1000  1.4977  1.4935
  722MOL0     H97447   7.087   3.791   4.651  0.2825  0.0989  1.7698
  722MOL0     H97448   7.229   4.019   4.771 -1.5495  0.3771  0.2600
  722MOL0     H97449   7.146   3.901   4.859  0.3688  2.2645  1.4046
  722MOL0     H97450   6.239   3.639   4.745 -4.0261  0.1590 -3.6873
  722MOL0     H97451   5.992   3.657   4.765  1.8157  1.4064 -2.5058
  722MOL0     H97452   5.648   3.736   4.877  0.8422 -2.0609  1.2990
  722MOL0     H97453   5.395   3.691   4.875 -1.6896  0.1189  1.8779
  722MOL0     H97454   3.642   2.930   4.950 -0.2070 -0.8018  4.0023
  722MOL0     H97455   3.407   2.896   4.994  3.2881 -1.9851 -1.8169
  722MOL0     H97456   3.063   3.065   5.163  1.1817 -1.4878 -0.9692
  722MOL0     H97457   2.854   2.962   5.252  1.0604 -1.8876  0.0835
  722MOL0     H97458   2.499   3.074   5.054  0.3129  0.8335  0.4198
  722MOL0     H97459   2.645   3.140   5.114  0.8053 -0.0866 -0.2057
  722MOL0     H97460   2.598   3.094   5.336  0.4530 -2.0076  1.6487
  722MOL0     H97461   2.501   2.947   5.290 -0.3855 -0.4513 -0.3575
  722MOL0     H97462   2.332   3.114   5.199 -1.3279  0.9199  0.2357
  722MOL0     H97463   2.439   3.247   5.249  1.6705 -0.3701 -1.3337
  722MOL0     H97464   2.339   3.051   5.468 -1.5947 -0.7567 -0.0615
  722MOL0     H97465   2.434   3.201   5.477 -1.1566  0.5863  1.1174
  722MOL0     H97466   2.047   3.355   5.393 -1.2940 -0.2175  0.4204
  722MOL0     H97467   2.708   2.913   4.856  0.3999  1.6404 -1.7358
  722MOL0     H97468   2.831   2.927   4.669 -2.1188  0.3374  3.0763
  722MOL0     H97469   2.926   3.077   4.676 -1.1740  1.5016  2.7613
  722MOL0     H97470   3.008   2.916   4.692 -0.3725 -0.7168 -0.0069
  723MOL0     O97471   2.824  10.175   5.206 -0.0781  0.4891 -0.0363
  723MOL0     C97472   2.795  10.123   5.098  0.2108 -0.3616 -0.4191
  723MOL0     O97473   2.843  10.007   5.048  0.0580  0.2324  0.2861
  723MOL0     C97474   2.949   9.954   5.123 -0.2501  0.2628  0.5294
  723MOL0     C97475   3.070  10.024   5.136 -0.5502 -0.2422  1.1651
  723MOL0     C97476   3.176   9.974   5.217  0.0465 -0.3708  0.5096
  723MOL0     C97477   3.159   9.861   5.297 -0.5940  0.1207 -0.2159
  723MOL0     O97478   3.266   9.824   5.367  0.8352  0.8803 -0.4533
  723MOL0     C97479   3.248   9.752   5.495 -0.3311 -0.6561  0.0266
  723MOL0     C97480   3.375   9.679   5.531  0.0996  0.3551 -0.1756
  723MOL0     C97481   3.493   9.772   5.542 -1.0783 -0.4351 -0.5831
  723MOL0     C97482   3.623   9.699   5.557 -0.2413 -0.4336 -0.6755
  723MOL0     C97483   3.741   9.796   5.574 -0.6501  0.6128 -0.1611
  723MOL0     C97484   3.745   9.875   5.709 -0.7689 -0.2248 -1.3204
  723MOL0     C97485   3.755  10.029   5.684 -0.2334 -0.1456 -0.1601
  723MOL0     C97486   3.834  10.103   5.793 -0.5474 -1.1375  0.1021
  723MOL0     N97487   3.916  10.214   5.741 -0.0337 -0.1902 -0.7313
  723MOL0     C97488   3.878  10.343   5.704  0.1178  0.4887 -0.1567
  723MOL0     C97489   3.974  10.388   5.621 -1.2211  0.4961  0.4228
  723MOL0     C97490   3.983  10.516   5.540  0.5784 -0.2821  0.2324
  723MOL0     C97491   4.052  10.622   5.637 -1.0554  0.5307  0.5061
  723MOL0     C97492   4.205  10.591   5.665  0.3957 -0.3808  1.1612
  723MOL0     C97493   4.237  10.703   5.759  0.0518  0.6791  0.4962
  723MOL0     O97494   4.357  10.664   5.833 -0.0083 -0.5012 -0.3402
  723MOL0     C97495   4.474  10.650   5.766  0.4872  0.9318 -1.0399
  723MOL0     C97496   4.570  10.572   5.828 -0.2893  0.2141 -0.5979
  723MOL0     C97497   4.702  10.563   5.779  0.3253  0.3245  0.2213
  723MOL0     C97498   4.734  10.623   5.654  0.2948  0.7877  0.0481
  723MOL0     C97499   4.864  10.607   5.598  0.0612  0.5741 -0.8094
  723MOL0     O97500   4.885  10.658   5.474 -0.0214 -0.2178 -0.2716
  723MOL0     C97501   4.998  10.636   5.398  0.1387 -0.4347 -0.1687
  723MOL0     C97502   5.070  10.519   5.392 -0.1192 -0.0599 -0.5938
  723MOL0     C97503   5.185  10.519   5.320  0.5207  0.5017 -0.5785
  723MOL0     C97504   5.236  10.636   5.248  0.4217  0.9539  0.6732
  723MOL0     O97505   5.359  10.625   5.191 -0.3349 -0.3746  0.3392
  723MOL0     C97506   5.372  10.511   5.106 -0.3713 -0.4218  0.2407
  723MOL0     C97507   5.495  10.527   5.024 -0.2637  0.6365 -0.6374
  723MOL0     C97508   5.481  10.634   4.919 -0.5101 -0.3980  0.0194
  723MOL0     C97509   5.594  10.662   4.825  0.3825  0.3282 -0.0118
  723MOL0     C97510   5.564  10.770   4.713 -0.4104 -0.0922  0.0020
  723MOL0     C97511   5.676  10.761   4.616 -0.1083 -0.1761  0.4110
  723MOL0     C97512   5.653  10.874   4.501  0.1368  0.8537  0.0422
  723MOL0     C97513   5.779  10.908   4.432  0.0541  0.6702  0.3278
  723MOL0    Cl97514   5.844  10.756   4.349 -0.0552  0.3649  0.2254
  723MOL0     C97515   5.163  10.751   5.268 -0.0966 -1.0080 -0.2622
  723MOL0     C97516   5.039  10.753   5.334  0.0264  0.1152 -0.3508
  723MOL0     O97517   4.949  10.537   5.657  0.3521  0.6243  0.0948
  723MOL0     C97518   4.638  10.705   5.582 -0.5991 -0.0646 -0.3458
  723MOL0     C97519   4.510  10.718   5.644  0.3724 -0.1159 -0.8059
  723MOL0     N97520   4.078  10.297   5.630 -0.1121 -0.1505  0.4085
  723MOL0     N97521   4.045  10.199   5.706  0.3154 -0.1732  0.3363
  723MOL0     C97522   3.039   9.788   5.282 -0.3869 -0.4562 -0.1551
  723MOL0     C97523   2.935   9.839   5.190 -0.2108 -0.8747 -0.6821
  723MOL0     C97524   2.689  10.192   5.024 -0.7688 -0.0454 -0.2330
  723MOL0     C97525   2.691  10.168   4.880  0.6435 -0.3946  0.7022
  723MOL0     C97526   2.580  10.220   4.799  0.0231  0.3988  0.1590
  723MOL0     C97527   2.476  10.292   4.864 -0.7946  0.0958  0.4331
  723MOL0     O97528   2.375  10.342   4.785  0.0927 -0.4047 -0.5459
  723MOL0     C97529   2.275  10.435   4.843  0.2988  0.1355  0.5075
  723MOL0     C97530   2.161  10.477   4.743  0.4478 -0.3897  0.3396
  723MOL0     C97531   2.234  10.537   4.618 -1.3343  0.3238  0.1754
  723MOL0     C97532   2.134  10.592   4.532 -0.0861  0.3791  0.7168
  723MOL0     C97533   2.198  10.675   4.423 -0.3772  0.2831  0.2736
  723MOL0     C97534   2.254  10.750   4.349  0.2540 -0.3133  0.4146
  723MOL0     C97535   2.478  10.305   5.004 -0.9980  0.3902  0.1793
  723MOL0     C97536   2.577  10.254   5.086  0.7657  0.5629  1.0996
  723MOL0     C97537   2.567  10.288   5.233 -0.0759  0.4462  0.5980
  723MOL0     H97538   3.077  10.109   5.069 -0.1111 -0.9159  0.3293
  723MOL0     H97539   3.272  10.022   5.207  1.0515 -2.6687 -2.2391
  723MOL0     H97540   3.218   9.824   5.572 -0.7664  0.3429 -1.0319
  723MOL0     H97541   3.167   9.680   5.507 -1.1293  0.4058  1.3376
  723MOL0     H97542   3.398   9.610   5.450 -2.3149 -0.1729 -0.4929
  723MOL0     H97543   3.351   9.621   5.621 -1.2947 -1.6529 -1.7560
  723MOL0     H97544   3.468   9.845   5.619 -1.1824 -2.6634  1.6009
  723MOL0     H97545   3.505   9.829   5.449  1.2051  0.7427  0.3571
  723MOL0     H97546   3.618   9.640   5.649 -1.2658 -1.2812 -1.2521
  723MOL0     H97547   3.635   9.632   5.471 -1.5622 -1.2801 -0.2356
  723MOL0     H97548   3.825   9.726   5.575 -3.6587 -3.3912 -0.1863
  723MOL0     H97549   3.742   9.861   5.487 -1.6278  1.3922  0.3823
  723MOL0     H97550   3.660   9.855   5.775  0.2536  0.4112  0.2369
  723MOL0     H97551   3.829   9.841   5.769 -0.0280 -0.1276 -2.2773
  723MOL0     H97552   3.656  10.076   5.690 -0.7068 -1.2555  1.1912
  723MOL0     H97553   3.802  10.047   5.587 -1.1164 -0.5674 -0.6800
  723MOL0     H97554   3.761  10.136   5.867  1.6781 -0.0712  1.9585
  723MOL0     H97555   3.899  10.036   5.850  0.3111  1.5103  2.4193
  723MOL0     H97556   3.785  10.398   5.717 -0.3945 -0.1066 -1.2146
  723MOL0     H97557   4.036  10.514   5.444  0.7341  0.2982  0.3059
  723MOL0     H97558   3.880  10.548   5.519  0.1376 -1.2024  0.9117
  723MOL0     H97559   4.044  10.719   5.586 -0.3303  0.0530 -0.5490
  723MOL0     H97560   3.992  10.606   5.727  0.6206 -3.1481  1.1454
  723MOL0     H97561   4.265  10.604   5.574 -0.9654  0.7311  0.3863
  723MOL0     H97562   4.229  10.496   5.713  1.0108 -0.7636  0.1329
  723MOL0     H97563   4.154  10.715   5.829  1.0842 -0.9985  2.1364
  723MOL0     H97564   4.256  10.794   5.703  3.1856 -0.3633 -0.3716
  723MOL0     H97565   4.536  10.536   5.924 -0.0756  1.0710 -0.1931
  723MOL0     H97566   4.764  10.492   5.832 -0.4655 -0.2805  0.3597
  723MOL0     H97567   5.038  10.433   5.449 -0.4727  0.5892  0.2100
  723MOL0     H97568   5.242  10.427   5.313  0.7666  0.7013 -1.2916
  723MOL0     H97569   5.378  10.427   5.176 -2.2403  0.7446  1.9087
  723MOL0     H97570   5.284  10.502   5.042 -1.5210  0.8001  1.5583
  723MOL0     H97571   5.569  10.545   5.102 -2.1677 -4.3871  2.8343
  723MOL0     H97572   5.511  10.430   4.976  0.8151  0.8837 -0.8150
  723MOL0     H97573   5.387  10.616   4.866  1.5523 -3.9533 -2.9390
  723MOL0     H97574   5.483  10.730   4.972 -2.6376  1.1915 -2.5038
  723MOL0     H97575   5.624  10.565   4.785  2.5866  1.1574 -0.5332
  723MOL0     H97576   5.678  10.699   4.884  0.1956 -0.6403  0.8851
  723MOL0     H97577   5.567  10.870   4.756  0.8918  0.0967 -0.4717
  723MOL0     H97578   5.471  10.735   4.667 -0.6317 -1.2992  1.2779
  723MOL0     H97579   5.774  10.771   4.664  0.7499 -1.9776 -0.8902
  723MOL0     H97580   5.680  10.661   4.572 -0.4540 -0.4688  1.0175
  723MOL0     H97581   5.606  10.962   4.548 -0.4578  0.4076  0.2917
  723MOL0     H97582   5.584  10.829   4.430  0.3811  0.5236  0.0120
  723MOL0     H97583   5.761  10.989   4.360  0.6938  2.0858  1.6924
  723MOL0     H97584   5.855  10.947   4.502 -0.0497  1.8592 -0.1982
  723MOL0     H97585   5.191  10.842   5.216  1.1118 -0.7976  0.7207
  723MOL0     H97586   4.979  10.843   5.340 -0.8165 -0.3827 -1.0858
  723MOL0     H97587   4.652  10.745   5.483 -0.8233 -1.0121 -0.7742
  723MOL0     H97588   4.436  10.783   5.598 -0.6186 -1.6682 -1.4918
  723MOL0     H97589   3.037   9.687   5.322  0.3359 -1.4102 -2.3693
  723MOL0     H97590   2.840   9.790   5.176 -1.1249  0.2243  1.2757
  723MOL0     H97591   2.774  10.118   4.830  0.3966  0.2928 -0.4187
  723MOL0     H97592   2.586  10.209   4.692 -2.7881  1.0879 -0.1378
  723MOL0     H97593   2.320  10.529   4.875 -1.3468  0.6924  1.2914
  723MOL0     H97594   2.218  10.386   4.923  1.3221 -0.1432  1.0812
  723MOL0     H97595   2.094  10.548   4.792  1.0593 -1.4747  2.9239
  723MOL0     H97596   2.102  10.390   4.715 -2.5259  1.2344  1.0442
  723MOL0     H97597   2.284  10.452   4.572  1.5143  0.8916  1.9125
  723MOL0     H97598   2.305  10.614   4.652  0.1802 -1.2471  0.7031
  723MOL0     H97599   2.059  10.523   4.493 -1.0624  1.1201  1.2457
  723MOL0     H97600   2.081  10.669   4.589  2.1777  1.7118  1.1441
  723MOL0     H97601   2.306  10.810   4.277  1.3791 -0.6349  0.9321
  723MOL0     H97602   2.412  10.378   5.051 -0.0675  1.9586 -0.8364
  723MOL0     H97603   2.575  10.188   5.277  0.5621  0.3268  0.2247
  723MOL0     H97604   2.647  10.357   5.260  0.0316  1.0577 -1.1283
  723MOL0     H97605   2.470  10.322   5.271 -1.5355 -0.7452 -1.7729
  724MOL0     O97606   7.508   7.262   5.776 -0.4074  0.0779 -0.6425
  724MOL0     C97607   7.605   7.329   5.734  0.2494  0.4124 -0.2920
  724MOL0     O97608   7.603   7.403   5.620  0.1984  0.0960  0.2919
  724MOL0     C97609   7.498   7.410   5.540  0.2409  0.5861 -0.5973
  724MOL0     C97610   7.422   7.520   5.555 -0.9786  0.3167  0.9253
  724MOL0     C97611   7.319   7.549   5.467  0.4209 -0.1526 -0.2861
  724MOL0     C97612   7.271   7.450   5.377 -0.7349  0.0725  0.6723
  724MOL0     O97613   7.160   7.447   5.293  0.4545  0.2071  0.3517
  724MOL0     C97614   7.082   7.558   5.267  0.6665  0.2957  0.3350
  724MOL0     C97615   7.004   7.545   5.130 -0.0369  0.6581 -0.0154
  724MOL0     C97616   7.100   7.559   5.016 -0.8521 -0.3243 -0.8133
  724MOL0     C97617   7.028   7.587   4.891  0.9131 -0.9562 -0.2958
  724MOL0     C97618   6.979   7.732   4.868  0.1750  0.1145  0.2235
  724MOL0     C97619   6.906   7.753   4.730 -0.5039  0.1325 -0.0802
  724MOL0     C97620   6.896   7.899   4.695  0.4028 -0.5913  0.3834
  724MOL0     C97621   7.036   7.957   4.642  0.6333  0.1711 -0.2354
  724MOL0     N97622   7.013   8.091   4.591  0.2968 -0.2811  0.3530
  724MOL0     C97623   6.968   8.192   4.671  0.3257 -0.3431  0.0357
  724MOL0     C97624   6.915   8.282   4.584 -0.2037  0.0843  0.5493
  724MOL0     C97625   6.863   8.414   4.617  0.0442 -0.4468 -0.1778
  724MOL0     C97626   6.969   8.509   4.685 -0.9981  0.2606 -0.6036
  724MOL0     C97627   7.111   8.535   4.613  0.7354 -0.1518  1.0059
  724MOL0     C97628   7.206   8.587   4.723 -0.9051 -0.3278  0.4829
  724MOL0     O97629   7.268   8.468   4.778 -0.7712 -0.1877  0.0416
  724MOL0     C97630   7.387   8.490   4.833 -1.2032  0.2517 -1.0853
  724MOL0     C97631   7.487   8.404   4.796 -0.4602 -0.9740 -0.5459
  724MOL0     C97632   7.626   8.429   4.811 -0.1121 -0.2046  0.4885
  724MOL0     C97633   7.660   8.520   4.908 -0.0241 -0.9182 -0.1691
  724MOL0     C97634   7.803   8.532   4.955 -0.3144  0.4610 -0.0764
  724MOL0     O97635   7.890   8.497   4.865 -0.0203 -0.4180 -0.2621
  724MOL0     C97636   8.001   8.568   4.870 -0.8789  0.1732 -0.0296
  724MOL0     C97637   8.028   8.687   4.799 -0.0752 -0.6991  0.1162
  724MOL0     C97638   8.154   8.747   4.816 -0.7481  0.2505  0.3974
  724MOL0     C97639   8.259   8.686   4.892  0.3638  0.2135  0.1311
  724MOL0     O97640   8.380   8.754   4.916 -0.7070  0.7055 -0.0667
  724MOL0     C97641   8.420   8.860   4.834 -0.7782  0.0285 -0.4811
  724MOL0     C97642   8.566   8.903   4.871 -1.0187  0.0340 -0.6939
  724MOL0     C97643   8.662   8.784   4.864  0.4014 -0.6490 -0.5442
  724MOL0     C97644   8.668   8.688   4.986 -0.1891 -0.0476 -0.0611
  724MOL0     C97645   8.820   8.673   5.034 -0.7843  0.4480  0.8185
  724MOL0     C97646   8.860   8.792   5.121  0.3483  0.8960  0.0736
  724MOL0     C97647   9.007   8.777   5.176  0.5222  0.2946  0.1077
  724MOL0     C97648   9.016   8.844   5.317 -0.1897  0.0966  0.3578
  724MOL0    Cl97649   8.965   8.737   5.448 -0.0583  0.6542 -0.0508
  724MOL0     C97650   8.233   8.558   4.944 -0.1837  0.2527  0.1311
  724MOL0     C97651   8.108   8.508   4.940 -0.4621  0.2746  0.7079
  724MOL0     O97652   7.823   8.614   5.043 -0.2935 -0.1675  0.3271
  724MOL0     C97653   7.552   8.586   4.969 -0.9592  0.0136 -0.1561
  724MOL0     C97654   7.424   8.578   4.927 -0.2327 -0.0008  0.8418
  724MOL0     N97655   6.944   8.239   4.451  0.2314 -0.2179 -0.6857
  724MOL0     N97656   6.986   8.122   4.456 -0.0032 -0.2491 -0.8942
  724MOL0     C97657   7.345   7.332   5.365  0.1414  0.6585 -0.2165
  724MOL0     C97658   7.459   7.310   5.450 -0.6682 -0.0710 -0.9344
  724MOL0     C97659   7.733   7.330   5.810 -0.0024 -0.6306  0.4297
  724MOL0     C97660   7.846   7.272   5.763  0.1512 -0.5218  0.1296
  724MOL0     C97661   7.966   7.283   5.831  0.6542 -0.7875  0.4466
  724MOL0     C97662   7.978   7.353   5.948 -0.8767 -0.3303 -0.2863
  724MOL0     O97663   8.106   7.376   6.006 -0.3305  0.7594 -0.5956
  724MOL0     C97664   8.116   7.478   6.101 -0.8719 -0.0891  0.5585
  724MOL0     C97665   8.257   7.487   6.162 -0.5104 -0.4620  0.1272
  724MOL0     C97666   8.259   7.575   6.279 -0.7450  0.3001 -0.0043
  724MOL0     C97667   8.395   7.572   6.355 -0.6058 -0.2782  0.3694
  724MOL0     C97668   8.379   7.649   6.474 -0.5830 -0.0893 -0.0335
  724MOL0     C97669   8.390   7.736   6.561 -0.6473  0.0979  0.1429
  724MOL0     C97670   7.863   7.401   6.007  0.7467 -0.1057 -0.6149
  724MOL0     C97671   7.738   7.383   5.941 -0.1105 -0.7786 -1.2874
  724MOL0     C97672   7.611   7.435   6.016  0.1860  0.2406 -0.4324
  724MOL0     H97673   7.445   7.589   5.635 -1.0147 -0.2027  1.3900
  724MOL0     H97674   7.262   7.640   5.481 -2.1033 -1.6674  0.1187
  724MOL0     H97675   7.010   7.561   5.349 -0.8173 -3.2366 -0.6649
  724MOL0     H97676   7.146   7.647   5.259  0.6185  0.2072 -1.5591
  724MOL0     H97677   6.939   7.633   5.121  0.1996  0.7087 -1.4137
  724MOL0     H97678   6.954   7.448   5.123  0.3756  0.5299 -1.3793
  724MOL0     H97679   7.148   7.461   5.002 -0.3643  0.0354 -1.7616
  724MOL0     H97680   7.186   7.623   5.039 -0.8249 -1.3787  2.6301
  724MOL0     H97681   7.095   7.554   4.811  2.3387  1.0989 -0.0252
  724MOL0     H97682   6.936   7.528   4.896 -0.5733  1.3020  0.5617
  724MOL0     H97683   6.906   7.761   4.944 -1.4785 -1.3362 -0.7339
  724MOL0     H97684   7.062   7.803   4.871  1.7489 -1.5553 -1.4697
  724MOL0     H97685   6.969   7.702   4.657 -0.5567  0.1550 -0.1419
  724MOL0     H97686   6.811   7.699   4.729  0.2230 -1.4437  2.9897
  724MOL0     H97687   6.859   7.959   4.779  1.3403 -2.1385  1.9854
  724MOL0     H97688   6.820   7.906   4.617  0.1260 -1.1553  0.5893
  724MOL0     H97689   7.102   7.960   4.730 -1.2633 -1.2952  1.3494
  724MOL0     H97690   7.080   7.896   4.563  0.1536  0.8671 -1.0542
  724MOL0     H97691   6.967   8.208   4.778  1.9283  0.5616 -0.0566
  724MOL0     H97692   6.839   8.466   4.524  0.9155  1.4243  0.5858
  724MOL0     H97693   6.768   8.411   4.670 -0.6837  0.9685 -1.3216
  724MOL0     H97694   6.927   8.607   4.710  0.7098  0.8393  0.1539
  724MOL0     H97695   7.003   8.454   4.773 -1.2870  1.1870  0.0936
  724MOL0     H97696   7.090   8.619   4.546 -0.0274 -0.1957  1.1758
  724MOL0     H97697   7.150   8.456   4.549 -2.6475 -0.4553 -0.9090
  724MOL0     H97698   7.161   8.649   4.801 -0.1840 -0.8809  1.3567
  724MOL0     H97699   7.274   8.652   4.667 -2.3801 -1.6794 -3.1865
  724MOL0     H97700   7.449   8.340   4.717 -4.7701  1.0966 -0.4261
  724MOL0     H97701   7.703   8.366   4.766 -1.0668  0.9111 -3.0248
  724MOL0     H97702   7.956   8.745   4.742  1.1127 -0.0764 -0.7929
  724MOL0     H97703   8.161   8.837   4.756 -0.3407  0.7275  1.1326
  724MOL0     H97704   8.416   8.827   4.730  0.7606  0.3041 -0.6483
  724MOL0     H97705   8.358   8.950   4.842  0.0384  0.5070  0.7314
  724MOL0     H97706   8.593   8.981   4.800  0.0806 -0.0239 -0.3651
  724MOL0     H97707   8.552   8.947   4.970 -1.0406 -2.4849  0.4920
  724MOL0     H97708   8.648   8.727   4.771 -0.4470 -1.6285  0.1540
  724MOL0     H97709   8.760   8.828   4.845  0.9964 -0.4970  2.5076
  724MOL0     H97710   8.608   8.597   4.972 -1.3979  1.1018 -2.8679
  724MOL0     H97711   8.613   8.740   5.065 -1.8125 -1.1551 -0.3996
  724MOL0     H97712   8.887   8.652   4.950 -2.8528 -4.5000  0.1098
  724MOL0     H97713   8.830   8.584   5.095  1.1827  1.0860  1.5154
  724MOL0     H97714   8.854   8.872   5.046 -2.2449 -1.6197 -2.6904
  724MOL0     H97715   8.793   8.800   5.207 -0.8245  0.3715 -0.7602
  724MOL0     H97716   9.075   8.820   5.102  1.0376 -2.0525 -0.8581
  724MOL0     H97717   9.034   8.672   5.191  1.1922  0.6535  1.6470
  724MOL0     H97718   9.123   8.857   5.332 -0.4590  0.3382  2.3904
  724MOL0     H97719   8.973   8.944   5.331  2.0889  1.5803 -2.3835
  724MOL0     H97720   8.321   8.510   4.986  1.0787  1.4065 -1.0647
  724MOL0     H97721   8.090   8.412   4.988  0.3126 -0.1620  0.1538
  724MOL0     H97722   7.571   8.656   5.050 -2.4800  1.1185 -0.7175
  724MOL0     H97723   7.354   8.640   4.982 -0.2226 -0.4035  1.3132
  724MOL0     H97724   7.317   7.255   5.294  1.8465 -1.6654  1.4981
  724MOL0     H97725   7.518   7.219   5.452 -0.9139 -0.2133  0.0639
  724MOL0     H97726   7.843   7.222   5.666  0.3426  0.4269 -0.3744
  724MOL0     H97727   8.053   7.243   5.781  0.2204 -1.7837  0.4771
  724MOL0     H97728   8.047   7.456   6.184 -2.3435  1.8407 -0.0954
  724MOL0     H97729   8.086   7.577   6.066 -0.7172  0.3171  1.5486
  724MOL0     H97730   8.333   7.522   6.092  2.4120 -0.8412  2.8617
  724MOL0     H97731   8.287   7.385   6.190  2.3574  0.1732 -0.2947
  724MOL0     H97732   8.184   7.536   6.348 -3.0298  1.7234 -1.5680
  724MOL0     H97733   8.235   7.677   6.248  1.2608  0.6899 -0.4106
  724MOL0     H97734   8.430   7.470   6.374  0.8627 -0.0769 -1.0808
  724MOL0     H97735   8.478   7.621   6.304 -0.9219  0.3682  0.4734
  724MOL0     H97736   8.402   7.806   6.642  1.7027  0.4598 -0.4315
  724MOL0     H97737   7.865   7.454   6.102  0.2008 -1.2822  0.0803
  724MOL0     H97738   7.518   7.404   5.967  2.2346 -0.8031 -4.0467
  724MOL0     H97739   7.600   7.399   6.118  0.9297  0.3399 -0.3126
  724MOL0     H97740   7.610   7.544   6.029 -1.3198  0.2645 -0.6514
  725MOL0     O97741   4.094   3.368   9.820 -0.2780 -0.0797 -0.2053
  725MOL0     C97742   4.065   3.276   9.894 -0.3487  0.3726  0.2005
  725MOL0     O97743   4.158   3.196   9.957  0.2918 -1.1851  0.1164
  725MOL0     C97744   4.285   3.212   9.918 -0.0349 -0.4138 -0.4161
  725MOL0     C97745   4.349   3.119   9.835 -0.1695 -0.0068 -0.0636
  725MOL0     C97746   4.491   3.117   9.819  0.1672  0.1964 -0.9021
  725MOL0     C97747   4.567   3.222   9.879  0.3116 -0.1834  0.7198
  725MOL0     O97748   4.701   3.228   9.853  0.2811  0.4540 -0.2101
  725MOL0     C97749   4.743   3.282   9.730  0.3193  0.3382 -0.3195
  725MOL0     C97750   4.729   3.192   9.603 -0.4761  0.6241 -1.3911
  725MOL0     C97751   4.790   3.255   9.476 -0.0194 -0.1823 -0.0212
  725MOL0     C97752   4.945   3.273   9.474 -0.2056 -0.2226 -0.2190
  725MOL0     C97753   4.994   3.372   9.371  0.3832 -0.4290  0.1344
  725MOL0     C97754   5.143   3.403   9.387 -0.1018 -0.0216  0.0466
  725MOL0     C97755   5.205   3.501   9.287 -0.5889  0.2458  0.0892
  725MOL0     C97756   5.350   3.482   9.291 -0.6129 -0.1838 -0.2311
  725MOL0     N97757   5.417   3.547   9.401 -0.4713 -0.1606 -0.4946
  725MOL0     C97758   5.459   3.676   9.410  0.0694 -0.0750 -0.6784
  725MOL0     C97759   5.529   3.669   9.536  0.2453  0.1468  0.3132
  725MOL0     C97760   5.588   3.788   9.601  0.0080  0.2187  0.1281
  725MOL0     C97761   5.740   3.792   9.610 -0.1586  0.2274  0.5721
  725MOL0     C97762   5.778   3.721   9.737  0.3012  0.4903 -0.3968
  725MOL0     C97763   5.928   3.743   9.770  0.8709  0.6320 -0.9061
  725MOL0     O97764   5.957   3.877   9.796 -0.3891  0.1022 -0.2253
  725MOL0     C97765   6.088   3.920   9.823 -0.0748  0.1360 -0.0672
  725MOL0     C97766   6.116   4.057   9.841  0.0832  0.1687  0.2703
  725MOL0     C97767   6.240   4.102   9.872  0.0741  0.3166  0.1143
  725MOL0     C97768   6.338   4.003   9.913  0.0251  0.4314  0.3930
  725MOL0     C97769   6.474   4.041   9.949  0.1820  0.4738 -0.0762
  725MOL0     O97770   6.555   3.933   9.999  0.8717 -0.4743  0.3518
  725MOL0     C97771   6.687   3.957  10.027 -0.0952  0.3242  0.3190
  725MOL0     C97772   6.783   3.886   9.961  0.1853 -0.1258  0.2671
  725MOL0     C97773   6.921   3.891   9.998  0.8042  0.2069 -0.1527
  725MOL0     C97774   6.957   3.981  10.108  0.2548  0.3939  0.6264
  725MOL0     O97775   7.095   4.006  10.133  0.1031  0.0688 -0.1157
  725MOL0     C97776   7.141   4.067  10.253 -0.2288 -2.0125 -1.1139
  725MOL0     C97777   7.299   4.059  10.254  0.7088 -0.0711  1.5395
  725MOL0     C97778   7.357   4.130  10.372 -0.6128  0.4947  0.5261
  725MOL0     C97779   7.501   4.174  10.371 -0.4839 -0.7297 -0.4848
  725MOL0     C97780   7.534   4.226  10.507 -0.1658 -0.4750 -0.0900
  725MOL0     C97781   7.678   4.254  10.538 -0.7413  0.6407 -0.0730
  725MOL0     C97782   7.705   4.305  10.675  0.0717 -0.1822  0.9371
  725MOL0     C97783   7.850   4.359  10.691 -0.2493  0.1149  0.4705
  725MOL0    Cl97784   7.877   4.418  10.857  0.1769  0.2179  0.0080
  725MOL0     C97785   6.859   4.069  10.163 -0.4946  0.9268 -0.4365
  725MOL0     C97786   6.730   4.054  10.116  0.1945 -0.2663  0.0086
  725MOL0     O97787   6.514   4.155   9.926  1.1333  0.7181 -0.1148
  725MOL0     C97788   6.312   3.865   9.905  0.6754  0.1165  0.9560
  725MOL0     C97789   6.187   3.824   9.851 -0.8955 -0.1733  0.3443
  725MOL0     N97790   5.517   3.547   9.591  0.3330  0.0426 -0.7715
  725MOL0     N97791   5.445   3.472   9.515 -0.1276 -0.1386  0.1995
  725MOL0     C97792   4.505   3.316   9.956  0.2148  0.0338 -0.7395
  725MOL0     C97793   4.373   3.302   9.981  0.9648  0.3794  0.0624
  725MOL0     C97794   3.917   3.250   9.919 -0.3863  1.1886 -0.1943
  725MOL0     C97795   3.830   3.330   9.852 -1.2004 -0.9070 -0.0037
  725MOL0     C97796   3.696   3.313   9.866 -0.0015 -0.6911  0.4303
  725MOL0     C97797   3.633   3.223   9.952 -0.1608 -0.0278  0.3984
  725MOL0     O97798   3.502   3.202   9.985  0.1350  0.2720  0.3038
  725MOL0     C97799   3.394   3.275   9.928 -0.1294  0.1348  1.2005
  725MOL0     C97800   3.373   3.256   9.775 -0.1337 -0.5012 -0.1384
  725MOL0     C97801   3.242   3.316   9.715  0.0265  0.5265  0.1873
  725MOL0     C97802   3.263   3.467   9.689  0.0275  0.8339  0.5044
  725MOL0     C97803   3.370   3.494   9.591 -0.5593  0.2199  0.9462
  725MOL0     C97804   3.454   3.508   9.504 -0.3658  0.7561 -0.2188
  725MOL0     C97805   3.727   3.147  10.022  0.2579 -0.0285 -0.1343
  725MOL0     C97806   3.860   3.157  10.014  0.0874  0.1293  1.1123
  725MOL0     C97807   3.945   3.058  10.095 -1.0284 -0.4287  0.1293
  725MOL0     H97808   4.296   3.033   9.796 -1.3732  0.0585  1.3491
  725MOL0     H97809   4.548   3.040   9.768 -0.2938 -0.5723 -0.2817
  725MOL0     H97810   4.694   3.377   9.708  0.9913  0.6487 -0.5234
  725MOL0     H97811   4.850   3.303   9.738  0.2224  1.1243 -0.9533
  725MOL0     H97812   4.620   3.190   9.590 -1.2375  1.0152  3.1628
  725MOL0     H97813   4.774   3.095   9.627  1.6463  1.8376 -0.1068
  725MOL0     H97814   4.732   3.341   9.443  0.9180  0.6347  0.4006
  725MOL0     H97815   4.781   3.183   9.395  1.2393 -1.0889  0.6003
  725MOL0     H97816   4.967   3.306   9.576 -1.5289 -0.9472  0.3362
  725MOL0     H97817   4.988   3.173   9.462 -1.6967 -0.7632 -1.4934
  725MOL0     H97818   4.969   3.337   9.270 -0.7748  0.1754  0.2017
  725MOL0     H97819   4.941   3.465   9.396 -0.7387 -0.5612 -1.5798
  725MOL0     H97820   5.148   3.453   9.484  1.4234  0.7218 -0.4035
  725MOL0     H97821   5.202   3.311   9.390  4.1175  2.4449  1.0538
  725MOL0     H97822   5.185   3.607   9.302 -1.5475  0.4063 -2.0176
  725MOL0     H97823   5.169   3.482   9.186  2.0447 -2.1732 -0.5472
  725MOL0     H97824   5.377   3.378   9.276 -0.9129 -0.0485 -1.9955
  725MOL0     H97825   5.392   3.529   9.201  0.7661 -0.5227  0.2218
  725MOL0     H97826   5.446   3.752   9.334 -1.9298 -0.5305 -0.8646
  725MOL0     H97827   5.548   3.876   9.550  0.2691 -1.5132 -3.3179
  725MOL0     H97828   5.545   3.787   9.702 -1.5267 -1.2437 -0.4819
  725MOL0     H97829   5.786   3.762   9.516 -2.2711  1.9289 -1.1071
  725MOL0     H97830   5.773   3.896   9.623  2.1088 -0.5307  1.3899
  725MOL0     H97831   5.762   3.614   9.718 -0.9092  0.5883 -0.0166
  725MOL0     H97832   5.720   3.751   9.824 -2.8445 -0.0858 -2.1244
  725MOL0     H97833   5.997   3.711   9.691  0.5760  2.8765 -2.1662
  725MOL0     H97834   5.948   3.683   9.859  0.1079  1.4512 -0.1753
  725MOL0     H97835   6.035   4.121   9.808 -1.2269 -0.3041  2.4001
  725MOL0     H97836   6.253   4.210   9.872 -2.0021  0.6284  1.1823
  725MOL0     H97837   6.760   3.820   9.877  0.8069 -0.8455  0.6473
  725MOL0     H97838   7.000   3.828   9.958  0.8253  0.9814 -1.3745
  725MOL0     H97839   7.109   4.171  10.265  2.3809 -1.0360 -1.9274
  725MOL0     H97840   7.094   4.025  10.341 -0.8731 -0.1405 -0.5096
  725MOL0     H97841   7.337   3.957  10.248 -0.6951 -0.5259 -0.8639
  725MOL0     H97842   7.344   4.110  10.169  0.1689  0.5764  1.6399
  725MOL0     H97843   7.300   4.222  10.389  1.7735  2.4743 -1.4407
  725MOL0     H97844   7.341   4.066  10.459  0.0760  2.4677  2.1907
  725MOL0     H97845   7.514   4.243  10.287 -1.8147  0.7916  0.5113
  725MOL0     H97846   7.556   4.080  10.362 -2.9317 -2.1801 -1.5378
  725MOL0     H97847   7.504   4.163  10.592  0.7620 -0.6189  0.1486
  725MOL0     H97848   7.489   4.324  10.523 -0.9291 -1.1133  2.1220
  725MOL0     H97849   7.729   4.157  10.525 -1.3587  0.4285 -1.0064
  725MOL0     H97850   7.718   4.323  10.464 -1.9941  0.9625 -0.4680
  725MOL0     H97851   7.683   4.227  10.749  0.8551  1.2894  2.8044
  725MOL0     H97852   7.639   4.392  10.682  0.2701  0.1380 -0.8590
  725MOL0     H97853   7.926   4.283  10.673  0.0784  0.0977  1.8204
  725MOL0     H97854   7.860   4.428  10.607  1.1519 -0.1219  0.4306
  725MOL0     H97855   6.892   4.132  10.245 -0.3657  0.9433 -0.5017
  725MOL0     H97856   6.658   4.117  10.167  0.1490 -0.9974  0.8599
  725MOL0     H97857   6.379   3.791   9.946  1.3539  1.2528  1.9508
  725MOL0     H97858   6.166   3.719   9.837  0.9714 -0.6686  0.9934
  725MOL0     H97859   4.564   3.392  10.006  0.2317  0.0165 -0.7333
  725MOL0     H97860   4.327   3.363  10.059  0.6316 -2.7593  2.5605
  725MOL0     H97861   3.851   3.415   9.788 -0.0778 -0.0448  1.4421
  725MOL0     H97862   3.635   3.380   9.805  0.5041 -0.4839  0.1443
  725MOL0     H97863   3.411   3.379   9.953  3.9994 -0.4726  1.4985
  725MOL0     H97864   3.303   3.238   9.977 -1.7430 -2.0864 -2.8615
  725MOL0     H97865   3.385   3.150   9.752 -0.1786 -1.1621  2.4930
  725MOL0     H97866   3.465   3.291   9.727  1.2103 -2.9248  0.5161
  725MOL0     H97867   3.165   3.281   9.784  0.0159 -1.2680 -0.6981
  725MOL0     H97868   3.226   3.267   9.619  3.5994  1.1776 -0.8862
  725MOL0     H97869   3.174   3.523   9.661 -0.6719 -0.6378 -0.2831
  725MOL0     H97870   3.281   3.506   9.790 -1.7566 -0.9348  1.5570
  725MOL0     H97871   3.537   3.515   9.437  3.8022 -0.6645  4.2166
  725MOL0     H97872   3.682   3.081  10.095 -0.2370  1.1783  0.6919
  725MOL0     H97873   4.004   3.106  10.174 -1.6770 -0.5894  0.7190
  725MOL0     H97874   3.881   2.986  10.146 -0.8636 -2.0810 -1.8967
  725MOL0     H97875   4.011   3.002  10.029  1.6968  1.6100  0.9172
  726MOL0     O97876   6.557   4.769   0.508 -0.1465 -0.5468  0.6825
  726MOL0     C97877   6.572   4.657   0.454 -0.7138  0.3025 -0.7527
  726MOL0     O97878   6.616   4.546   0.519  0.3702 -0.1392 -0.0739
  726MOL0     C97879   6.639   4.544   0.652 -0.5443 -0.0704 -0.4719
  726MOL0     C97880   6.612   4.423   0.715 -0.3845 -0.3211  0.0472
  726MOL0     C97881   6.644   4.406   0.849  0.2345  1.0099 -0.0522
  726MOL0     C97882   6.716   4.505   0.918  0.2413 -0.2642  0.1533
  726MOL0     O97883   6.759   4.490   1.040 -0.2833  0.4701  0.6564
  726MOL0     C97884   6.708   4.387   1.127  0.5188  0.3860  0.1781
  726MOL0     C97885   6.797   4.386   1.246  0.6213  0.5011 -0.3825
  726MOL0     C97886   6.946   4.434   1.223 -0.3390  0.3026 -0.4412
  726MOL0     C97887   7.026   4.434   1.355  0.1950  0.6628 -0.3849
  726MOL0     C97888   7.164   4.475   1.326 -0.8785  0.1369  0.4435
  726MOL0     C97889   7.229   4.492   1.461  0.1068 -0.0521 -0.0221
  726MOL0     C97890   7.383   4.517   1.453 -0.0568 -0.0727  0.0539
  726MOL0     C97891   7.447   4.557   1.592 -0.9264 -0.0156  0.4909
  726MOL0     N97892   7.580   4.619   1.571  0.1548 -0.4170  0.4180
  726MOL0     C97893   7.611   4.744   1.525  0.0559 -0.2261  0.2239
  726MOL0     C97894   7.745   4.749   1.504  0.3710  0.0497 -0.9346
  726MOL0     C97895   7.826   4.868   1.461  0.2837  0.1128 -1.0100
  726MOL0     C97896   7.850   4.875   1.310  0.3582  0.7028 -1.2359
  726MOL0     C97897   7.928   4.999   1.276  0.1486 -0.3581  0.0286
  726MOL0     C97898   8.077   4.985   1.300  0.2704 -0.3307 -0.3031
  726MOL0     O97899   8.121   4.882   1.218 -0.2949  0.5246 -0.0677
  726MOL0     C97900   8.259   4.859   1.225  0.0381  0.2454  0.4683
  726MOL0     C97901   8.343   4.893   1.333  0.0919  0.1588  0.0255
  726MOL0     C97902   8.476   4.853   1.337  0.6542  0.1715  0.3098
  726MOL0     C97903   8.525   4.769   1.242  0.7113 -0.5722  0.0288
  726MOL0     C97904   8.669   4.721   1.242 -0.1926  0.0743  0.1588
  726MOL0     O97905   8.750   4.764   1.346 -0.3939  0.2540  0.3841
  726MOL0     C97906   8.876   4.714   1.344  0.9555  0.6060 -0.1120
  726MOL0     C97907   8.965   4.752   1.240  0.1867 -0.4361 -0.5035
  726MOL0     C97908   9.108   4.727   1.261 -0.0253 -0.1205 -0.0037
  726MOL0     C97909   9.153   4.643   1.364 -0.1084 -0.8181 -0.2044
  726MOL0     O97910   9.284   4.612   1.382 -0.5287 -0.1412  0.0376
  726MOL0     C97911   9.400   4.673   1.318 -0.0739 -0.0534  0.5134
  726MOL0     C97912   9.456   4.791   1.398 -0.9646 -1.1282 -0.9788
  726MOL0     C97913   9.591   4.826   1.340  0.2971 -0.1871 -0.5732
  726MOL0     C97914   9.666   4.908   1.446 -1.1656 -0.3784 -0.5507
  726MOL0     C97915   9.770   5.001   1.389 -0.2829  0.4402  0.6775
  726MOL0     C97916   9.891   4.933   1.313  0.4041 -0.3742 -0.3342
  726MOL0     C97917   9.960   4.820   1.386 -0.2186 -0.7827  0.3254
  726MOL0     C97918  10.064   4.756   1.292 -0.3214 -1.1800 -0.5691
  726MOL0    Cl97919  10.198   4.881   1.249 -0.1024  0.1212 -0.2292
  726MOL0     C97920   9.065   4.600   1.462 -1.0804 -0.6744  0.2884
  726MOL0     C97921   8.932   4.642   1.450 -0.2823  0.5046 -0.3562
  726MOL0     O97922   8.704   4.643   1.152  0.3733  0.0611  0.0434
  726MOL0     C97923   8.434   4.727   1.141 -0.4701  0.4321 -0.1458
  726MOL0     C97924   8.305   4.767   1.135 -0.2140 -0.5262 -0.2387
  726MOL0     N97925   7.798   4.627   1.535  1.1358 -0.1054 -0.0386
  726MOL0     N97926   7.701   4.550   1.571  0.3176  0.4083 -1.0805
  726MOL0     C97927   6.747   4.626   0.845  0.2831  0.2482 -0.3355
  726MOL0     C97928   6.713   4.645   0.715 -1.1807  0.5880 -0.0450
  726MOL0     C97929   6.541   4.626   0.311  0.4969 -0.4497 -0.4369
  726MOL0     C97930   6.495   4.501   0.276 -0.9128 -0.6065 -0.7710
  726MOL0     C97931   6.458   4.477   0.146  0.2960 -1.0346 -0.1191
  726MOL0     C97932   6.472   4.562   0.040 -0.2207 -0.2687 -0.9148
  726MOL0     O97933   6.449   4.504  -0.081  0.1527 -0.1477 -0.2582
  726MOL0     C97934   6.441   4.593  -0.189  0.3097  0.1444  0.5549
  726MOL0     C97935   6.370   4.518  -0.307 -0.0434 -0.1329 -0.1209
  726MOL0     C97936   6.442   4.392  -0.332 -0.3389 -0.0401 -0.9329
  726MOL0     C97937   6.416   4.334  -0.472 -1.0021  0.6129  0.2311
  726MOL0     C97938   6.286   4.273  -0.468  0.7910  0.0843 -0.5232
  726MOL0     C97939   6.178   4.220  -0.473  0.2674 -0.0830  0.5723
  726MOL0     C97940   6.531   4.691   0.075 -0.4211  0.1944  0.0928
  726MOL0     C97941   6.556   4.726   0.208  0.4700  1.0808 -0.2087
  726MOL0     C97942   6.600   4.870   0.223 -0.1686 -0.1876  0.7167
  726MOL0     H97943   6.549   4.364   0.649  1.2929 -0.7350 -1.2491
  726MOL0     H97944   6.611   4.316   0.899 -0.0636  0.7787 -0.6591
  726MOL0     H97945   6.604   4.414   1.148  0.1825 -2.3291  2.6652
  726MOL0     H97946   6.726   4.287   1.087 -0.8262  0.0138  0.4611
  726MOL0     H97947   6.798   4.288   1.294 -2.1079 -0.8990 -2.8823
  726MOL0     H97948   6.752   4.464   1.309 -1.4589 -0.7186 -0.2989
  726MOL0     H97949   6.951   4.534   1.179 -0.0072 -0.3255 -1.8709
  726MOL0     H97950   6.994   4.355   1.164  3.1578  1.2513  0.8628
  726MOL0     H97951   6.978   4.487   1.438 -1.0849 -2.8378  1.3325
  726MOL0     H97952   7.022   4.331   1.392 -0.3123 -0.2440 -2.7560
  726MOL0     H97953   7.228   4.403   1.274  1.6790  1.1715  1.9803
  726MOL0     H97954   7.171   4.570   1.273  1.8774 -2.0019 -3.5762
  726MOL0     H97955   7.193   4.578   1.518 -0.1846  0.6419 -1.2441
  726MOL0     H97956   7.208   4.404   1.522 -2.4826  0.9981  0.7095
  726MOL0     H97957   7.400   4.597   1.381 -0.0825  0.5109  0.6966
  726MOL0     H97958   7.425   4.427   1.407  0.6716 -0.3083  1.1653
  726MOL0     H97959   7.373   4.621   1.641 -0.0823  1.1959  0.2232
  726MOL0     H97960   7.461   4.471   1.658  0.2766  1.4516  2.2712
  726MOL0     H97961   7.539   4.822   1.508  0.9010  0.2239 -1.5401
  726MOL0     H97962   7.773   4.958   1.496 -1.7443 -0.9756 -1.1286
  726MOL0     H97963   7.923   4.861   1.510 -0.6216 -1.8892  0.6507
  726MOL0     H97964   7.901   4.783   1.278  0.4615 -0.1275  1.1323
  726MOL0     H97965   7.752   4.882   1.262 -1.1472  0.5201  1.5971
  726MOL0     H97966   7.876   5.082   1.325 -1.3714 -1.1692 -0.1518
  726MOL0     H97967   7.919   5.001   1.167  0.2037  0.7914  0.0283
  726MOL0     H97968   8.090   4.938   1.398  1.1151 -1.2938 -0.8591
  726MOL0     H97969   8.126   5.083   1.293 -2.1049  1.2733  2.9778
  726MOL0     H97970   8.323   4.960   1.416 -1.5288  2.2633 -1.9113
  726MOL0     H97971   8.531   4.877   1.427  1.3316 -0.0592 -0.0315
  726MOL0     H97972   8.931   4.805   1.152 -1.5688 -0.4884  0.1137
  726MOL0     H97973   9.168   4.761   1.178 -0.9173 -2.1819 -1.6012
  726MOL0     H97974   9.473   4.592   1.309 -1.4854 -1.2747 -0.3525
  726MOL0     H97975   9.379   4.713   1.219  0.8982  2.5301  1.2577
  726MOL0     H97976   9.400   4.883   1.380 -0.6894 -1.2630 -2.7479
  726MOL0     H97977   9.463   4.764   1.504 -0.4888  0.5771 -0.5534
  726MOL0     H97978   9.651   4.739   1.311  0.3115 -0.6091  0.6532
  726MOL0     H97979   9.574   4.890   1.253  1.4873 -0.4286 -1.0033
  726MOL0     H97980   9.713   4.846   1.523 -0.8332  1.1068  0.4951
  726MOL0     H97981   9.596   4.966   1.507  0.0097 -1.3319  1.8305
  726MOL0     H97982   9.812   5.055   1.475 -1.0866 -1.2211  2.1799
  726MOL0     H97983   9.723   5.071   1.319 -0.5060 -0.5625 -0.1947
  726MOL0     H97984   9.847   4.898   1.219  0.3087 -2.8779  0.5689
  726MOL0     H97985   9.953   5.021   1.297 -2.3392  2.2640  2.1634
  726MOL0     H97986   9.879   4.753   1.415 -3.3049  1.4954 -2.2560
  726MOL0     H97987  10.013   4.865   1.471  0.3644  0.6453 -0.7606
  726MOL0     H97988  10.109   4.662   1.324  0.8639  0.2672  2.3968
  726MOL0     H97989  10.002   4.737   1.204 -1.0684 -0.4295 -0.2146
  726MOL0     H97990   9.106   4.541   1.543  0.2203  1.1905  1.0653
  726MOL0     H97991   8.865   4.626   1.534  1.7338  1.0700  1.4293
  726MOL0     H97992   8.457   4.649   1.069 -1.8872  0.2969 -0.4814
  726MOL0     H97993   8.242   4.725   1.057 -2.4196  0.1978  1.0520
  726MOL0     H97994   6.810   4.699   0.895  3.0233 -2.5011  0.5582
  726MOL0     H97995   6.760   4.732   0.671  0.8305 -1.6652 -2.6802
  726MOL0     H97996   6.489   4.415   0.342  0.3941 -0.3138 -0.2511
  726MOL0     H97997   6.437   4.373   0.121 -0.2698 -1.1943  0.9737
  726MOL0     H97998   6.542   4.615  -0.225 -1.0601  1.3775 -2.9628
  726MOL0     H97999   6.388   4.685  -0.165  1.0245  0.1597  2.2386
  726MOL0     H98000   6.366   4.580  -0.397  1.8425 -1.4635 -1.1973
  726MOL0     H98001   6.270   4.505  -0.264  0.7081  3.7478  3.4588
  726MOL0     H98002   6.412   4.327  -0.249  1.6742 -0.3969 -0.4311
  726MOL0     H98003   6.549   4.413  -0.316 -0.2956 -0.8973 -0.0222
  726MOL0     H98004   6.414   4.418  -0.543 -3.1287 -0.2194 -0.7628
  726MOL0     H98005   6.493   4.261  -0.498  2.0380  3.2421  1.1467
  726MOL0     H98006   6.082   4.174  -0.486  0.6617  0.0614 -4.7324
  726MOL0     H98007   6.543   4.758  -0.010  0.0924  0.0997  0.0824
  726MOL0     H98008   6.643   4.904   0.128 -3.6701 -0.8707 -1.3313
  726MOL0     H98009   6.509   4.927   0.242 -1.5634 -1.5593 -1.4151
  726MOL0     H98010   6.669   4.881   0.307  2.7935 -0.7870 -1.4591
  727MOL0     O98011   4.805   4.794   5.170  0.1485  0.1688  0.7140
  727MOL0     C98012   4.856   4.691   5.116 -0.0320 -0.5864  0.4515
  727MOL0     O98013   4.973   4.688   5.052  0.1170  0.2990 -0.9578
  727MOL0     C98014   5.084   4.756   5.095 -0.3270  0.2190  0.0509
  727MOL0     C98015   5.188   4.774   5.002  0.4946 -0.4928  0.5631
  727MOL0     C98016   5.295   4.860   5.030 -0.5992 -0.4050  0.1270
  727MOL0     C98017   5.310   4.912   5.161  0.0468 -0.2314  0.6913
  727MOL0     O98018   5.407   5.004   5.186  0.0814 -0.0965  0.2018
  727MOL0     C98019   5.544   4.964   5.169 -0.4652 -1.1569  0.6055
  727MOL0     C98020   5.627   5.080   5.222 -0.0663  0.8589  0.2292
  727MOL0     C98021   5.755   5.039   5.292  0.2443 -0.3477 -0.0241
  727MOL0     C98022   5.854   4.948   5.213  0.5299 -0.0892 -0.0945
  727MOL0     C98023   6.003   4.968   5.257  0.6729  0.2758 -0.5017
  727MOL0     C98024   6.095   4.874   5.190 -0.2958  0.6876  0.1346
  727MOL0     C98025   6.235   4.911   5.242 -0.3266 -0.0194  0.1295
  727MOL0     C98026   6.328   4.809   5.178 -0.4632 -0.7382 -0.3737
  727MOL0     N98027   6.467   4.844   5.222 -0.6536  0.0018 -0.8274
  727MOL0     C98028   6.528   4.775   5.324 -0.4945 -0.7401  0.4272
  727MOL0     C98029   6.652   4.832   5.330  0.2791 -0.1071  0.0624
  727MOL0     C98030   6.766   4.794   5.422  0.0840  0.4228 -0.6852
  727MOL0     C98031   6.778   4.886   5.538  0.5880 -0.3731 -0.0414
  727MOL0     C98032   6.855   5.025   5.507  0.1906  0.0309 -0.5966
  727MOL0     C98033   7.009   5.011   5.511 -0.6712 -0.4780 -0.4215
  727MOL0     O98034   7.079   5.138   5.491 -0.3991  0.2132 -0.0744
  727MOL0     C98035   7.207   5.158   5.532 -0.2448 -0.0119  0.0983
  727MOL0     C98036   7.280   5.050   5.600  0.2120  0.5800  0.8156
  727MOL0     C98037   7.421   5.062   5.629  0.2136 -0.1412 -0.2672
  727MOL0     C98038   7.488   5.190   5.604 -1.1923 -0.6973  0.3919
  727MOL0     C98039   7.631   5.216   5.630 -0.7620  1.1195 -0.5708
  727MOL0     O98040   7.683   5.135   5.728 -0.0655 -0.2183 -0.0925
  727MOL0     C98041   7.811   5.159   5.773  0.4616  0.4986 -0.3581
  727MOL0     C98042   7.895   5.052   5.794  0.2158  0.8806 -0.6818
  727MOL0     C98043   8.026   5.052   5.836  0.6266  0.0379  0.4459
  727MOL0     C98044   8.071   5.175   5.875 -0.8444 -0.7590  1.0653
  727MOL0     O98045   8.199   5.174   5.920 -0.0531  0.1247 -0.0393
  727MOL0     C98046   8.279   5.293   5.930 -0.2324 -0.3733  0.0333
  727MOL0     C98047   8.412   5.267   5.994  0.1221 -0.8054 -0.2682
  727MOL0     C98048   8.482   5.392   6.034  0.1255 -0.3979 -0.5577
  727MOL0     C98049   8.613   5.362   6.113  0.1332  0.5809 -1.7336
  727MOL0     C98050   8.736   5.317   6.027 -0.1218  0.0691 -0.1722
  727MOL0     C98051   8.763   5.401   5.902  0.1110  0.2058 -0.4105
  727MOL0     C98052   8.773   5.550   5.934  0.2357  0.2594 -0.5416
  727MOL0     C98053   8.752   5.631   5.807  0.1816 -0.2063  0.0642
  727MOL0    Cl98054   8.884   5.583   5.699  0.0389 -0.0025  0.2338
  727MOL0     C98055   7.994   5.292   5.864 -0.7483  0.1076  0.2171
  727MOL0     C98056   7.862   5.287   5.804 -0.0378  0.2671  0.3999
  727MOL0     O98057   7.690   5.310   5.578  0.3124  0.3682 -0.4280
  727MOL0     C98058   7.407   5.300   5.557 -0.3909 -0.2026 -0.5426
  727MOL0     C98059   7.277   5.278   5.514 -0.8216  0.0132  0.0259
  727MOL0     N98060   6.658   4.937   5.247 -0.1197 -0.0869 -0.2824
  727MOL0     N98061   6.548   4.943   5.178 -0.6831 -0.4273 -0.0250
  727MOL0     C98062   5.215   4.876   5.264 -0.0594 -0.5108 -0.3693
  727MOL0     C98063   5.103   4.805   5.224 -0.5050  0.2180 -0.7869
  727MOL0     C98064   4.770   4.574   5.101 -0.3362  0.9694  0.4046
  727MOL0     C98065   4.822   4.461   5.034  0.2907 -0.2562 -0.9030
  727MOL0     C98066   4.754   4.339   5.013  0.3374  0.5833  0.2313
  727MOL0     C98067   4.627   4.324   5.066  0.3874 -0.5826  0.3318
  727MOL0     O98068   4.569   4.200   5.037  0.1916 -0.0026 -0.5811
  727MOL0     C98069   4.441   4.171   5.081  0.4635  0.4347 -0.0535
  727MOL0     C98070   4.401   4.019   5.056 -0.5735  1.0819 -0.2429
  727MOL0     C98071   4.438   3.961   4.916  0.0655 -0.4569 -0.7020
  727MOL0     C98072   4.368   3.830   4.889  0.3062  0.0854 -0.1080
  727MOL0     C98073   4.219   3.844   4.871 -0.7028 -0.6310 -1.7892
  727MOL0     C98074   4.104   3.879   4.874  0.1848  0.3481 -0.4394
  727MOL0     C98075   4.559   4.434   5.131  0.3396  0.4316  0.2841
  727MOL0     C98076   4.626   4.556   5.138 -0.5859 -1.2244 -0.3808
  727MOL0     C98077   4.552   4.672   5.193 -0.2708  0.2254 -0.3724
  727MOL0     H98078   5.181   4.729   4.903 -0.2108  3.3660 -1.3267
  727MOL0     H98079   5.362   4.881   4.947 -0.3620 -1.0093  0.1612
  727MOL0     H98080   5.564   4.866   5.214  0.1980 -2.4736 -2.3133
  727MOL0     H98081   5.579   4.952   5.067 -0.0211  2.1676  0.2523
  727MOL0     H98082   5.552   5.126   5.287  0.0470 -2.0889  2.7077
  727MOL0     H98083   5.654   5.139   5.134  0.9141 -0.1701 -0.1843
  727MOL0     H98084   5.737   4.984   5.385 -2.9465  1.8005  0.8078
  727MOL0     H98085   5.806   5.134   5.312  0.5953 -0.1628 -1.6506
  727MOL0     H98086   5.833   4.843   5.237 -0.2212  0.1732  0.4513
  727MOL0     H98087   5.848   4.966   5.105 -0.8245 -2.0583 -0.4063
  727MOL0     H98088   6.030   5.069   5.223  0.5973 -0.6576 -3.7055
  727MOL0     H98089   6.018   4.958   5.365 -0.4670  1.8817 -0.1440
  727MOL0     H98090   6.081   4.767   5.208  1.0040 -0.1839 -3.3034
  727MOL0     H98091   6.080   4.883   5.082 -2.2202  0.1663  0.3178
  727MOL0     H98092   6.245   4.914   5.351 -1.5820  1.9647  0.2474
  727MOL0     H98093   6.257   5.011   5.202 -1.8780  0.4018  0.2275
  727MOL0     H98094   6.311   4.708   5.216  1.1261  0.2667  3.5034
  727MOL0     H98095   6.327   4.811   5.069 -1.8801 -0.0049 -0.3715
  727MOL0     H98096   6.481   4.692   5.377 -1.1717 -0.5963  0.0675
  727MOL0     H98097   6.747   4.694   5.460 -2.4039  1.0201 -0.1767
  727MOL0     H98098   6.847   4.798   5.348 -0.9462 -1.0557 -1.9728
  727MOL0     H98099   6.674   4.895   5.571  0.7641  1.9974  0.0604
  727MOL0     H98100   6.826   4.834   5.622 -0.8189 -0.5387  0.6994
  727MOL0     H98101   6.841   5.101   5.584 -3.1025  1.9508 -2.8118
  727MOL0     H98102   6.818   5.066   5.412 -0.6013 -1.8741 -1.1571
  727MOL0     H98103   7.040   4.934   5.440  2.2667 -0.6959  0.9554
  727MOL0     H98104   7.035   4.987   5.614  3.8948  1.5419 -0.8448
  727MOL0     H98105   7.235   4.955   5.628 -1.2523 -0.1744 -3.3820
  727MOL0     H98106   7.481   4.974   5.652 -1.0373 -1.1974 -0.8682
  727MOL0     H98107   7.863   4.951   5.772  1.1065  0.5057 -0.2830
  727MOL0     H98108   8.081   4.958   5.837  0.6560  0.0441 -0.1179
  727MOL0     H98109   8.310   5.326   5.831 -2.5986 -0.1485 -0.6976
  727MOL0     H98110   8.232   5.378   5.982  1.8775  1.6832 -1.2048
  727MOL0     H98111   8.391   5.204   6.082 -0.0730  0.0643  0.3247
  727MOL0     H98112   8.464   5.212   5.916 -1.8139 -0.3298 -1.9827
  727MOL0     H98113   8.496   5.460   5.950  0.1597 -1.3360 -1.3294
  727MOL0     H98114   8.421   5.443   6.109 -1.4527  0.6107 -2.4484
  727MOL0     H98115   8.598   5.274   6.176  1.4482  1.1754 -0.5496
  727MOL0     H98116   8.632   5.443   6.184 -0.5517  0.4337 -1.3811
  727MOL0     H98117   8.725   5.210   6.005 -0.6401 -0.0701  0.7076
  727MOL0     H98118   8.827   5.323   6.087  1.7058  0.4968 -2.8356
  727MOL0     H98119   8.850   5.357   5.851  0.5874  0.9975 -0.2981
  727MOL0     H98120   8.680   5.400   5.831  1.6463 -0.9639 -2.3197
  727MOL0     H98121   8.868   5.567   5.986  0.9372 -1.0934 -1.3003
  727MOL0     H98122   8.692   5.582   6.000  0.7282 -1.4404  0.9885
  727MOL0     H98123   8.659   5.607   5.754  1.4998 -4.7903 -0.6191
  727MOL0     H98124   8.765   5.736   5.834  0.8018  0.1590 -1.5895
  727MOL0     H98125   8.044   5.384   5.892  2.1180 -1.1582 -0.3296
  727MOL0     H98126   7.804   5.379   5.793  1.0153  0.7753 -1.4863
  727MOL0     H98127   7.458   5.395   5.546 -0.6794  0.1991  1.2474
  727MOL0     H98128   7.228   5.367   5.476 -1.1345 -0.8958 -1.8184
  727MOL0     H98129   5.233   4.908   5.367  1.3122 -2.4262  0.0414
  727MOL0     H98130   5.028   4.787   5.300  0.8887  0.1559  0.6411
  727MOL0     H98131   4.927   4.458   5.006  1.6602  0.1815  3.4065
  727MOL0     H98132   4.795   4.254   4.959  0.5164  1.7147 -1.4695
  727MOL0     H98133   4.374   4.235   5.024 -0.0938  2.1628  2.4086
  727MOL0     H98134   4.419   4.191   5.186 -0.2365  0.5897 -0.2270
  727MOL0     H98135   4.292   4.004   5.061 -0.5382 -0.0790 -1.8890
  727MOL0     H98136   4.439   3.964   5.142  0.9493  2.5785  0.0903
  727MOL0     H98137   4.545   3.941   4.923 -0.1435 -1.0985  3.3901
  727MOL0     H98138   4.417   4.039   4.842  2.7642  0.9841 -0.0818
  727MOL0     H98139   4.400   3.794   4.790  1.0759  1.8584 -0.5579
  727MOL0     H98140   4.394   3.751   4.959  2.1275 -0.6653 -1.5484
  727MOL0     H98141   3.999   3.897   4.871 -0.4139 -2.7077 -0.8635
  727MOL0     H98142   4.451   4.433   5.131  0.1939  3.6655 -0.4852
  727MOL0     H98143   4.544   4.753   5.121  2.7524  1.1200  0.1614
  727MOL0     H98144   4.451   4.643   5.225  0.2633 -2.5092 -0.8487
  727MOL0     H98145   4.607   4.695   5.285 -2.5088  1.4355  0.7567
  728MOL0     O98146   3.187   7.843   5.071 -0.2980  0.6159 -0.2370
  728MOL0     C98147   3.161   7.956   5.032 -0.3927  0.1895  0.7812
  728MOL0     O98148   3.252   8.043   4.985 -0.0303 -0.3857  0.5566
  728MOL0     C98149   3.376   7.993   4.953  1.0019  0.0328 -0.3056
  728MOL0     C98150   3.418   7.979   4.820  1.1873 -0.1683 -0.9391
  728MOL0     C98151   3.535   7.917   4.791 -0.3761 -0.2823 -0.3690
  728MOL0     C98152   3.626   7.877   4.899  0.9732 -0.4318  0.0455
  728MOL0     O98153   3.753   7.822   4.891  0.0292  0.3744  0.5391
  728MOL0     C98154   3.798   7.793   4.763 -0.3471  0.1886 -0.4495
  728MOL0     C98155   3.940   7.745   4.791  0.1766 -0.2010 -0.2670
  728MOL0     C98156   4.019   7.692   4.667  0.4192  0.3941 -0.0118
  728MOL0     C98157   4.163   7.658   4.706 -0.2850  0.8213  0.1117
  728MOL0     C98158   4.249   7.593   4.594  0.3723  0.0082  0.3357
  728MOL0     C98159   4.220   7.450   4.552  0.3471 -0.1765  0.5123
  728MOL0     C98160   4.313   7.403   4.436 -0.5340 -0.3194  0.0287
  728MOL0     C98161   4.316   7.251   4.434 -0.0264  0.8949  0.8053
  728MOL0     N98162   4.429   7.193   4.358  0.6725 -0.3640 -0.3085
  728MOL0     C98163   4.533   7.128   4.418 -0.7579  0.1369  0.4625
  728MOL0     C98164   4.610   7.082   4.316  0.8872  0.4290 -0.4773
  728MOL0     C98165   4.731   6.989   4.326 -0.2781  0.5549 -0.8067
  728MOL0     C98166   4.724   6.867   4.243  0.3697 -0.1684 -0.3380
  728MOL0     C98167   4.832   6.756   4.268 -0.0724 -0.4133 -0.5517
  728MOL0     C98168   4.831   6.650   4.161  0.0993  0.4796  0.3934
  728MOL0     O98169   4.892   6.701   4.041 -0.2223 -0.3324 -0.0755
  728MOL0     C98170   5.028   6.701   4.027 -0.2635  0.7286  0.5085
  728MOL0     C98171   5.114   6.653   4.128  0.8748  0.5634  0.1100
  728MOL0     C98172   5.251   6.673   4.109 -0.5499  0.7673  0.1437
  728MOL0     C98173   5.314   6.725   3.996  0.2012  0.2292 -0.9474
  728MOL0     C98174   5.458   6.765   3.989 -0.5326 -0.0508 -0.0572
  728MOL0     O98175   5.534   6.735   4.103  0.0827  0.1424  0.3121
  728MOL0     C98176   5.669   6.757   4.090  0.8937 -0.1998  0.0910
  728MOL0     C98177   5.736   6.872   4.038 -0.0629 -0.4969 -0.2367
  728MOL0     C98178   5.874   6.892   4.049  0.3741  0.0689  0.5135
  728MOL0     C98179   5.951   6.793   4.113  0.5138  0.4454  0.0201
  728MOL0     O98180   6.090   6.815   4.127  0.6151 -0.2224  0.1936
  728MOL0     C98181   6.173   6.751   4.025 -0.8214  0.0771 -0.0312
  728MOL0     C98182   6.312   6.807   4.037  0.3860  0.1003 -0.1248
  728MOL0     C98183   6.387   6.741   4.155 -0.4886 -0.0230 -0.4437
  728MOL0     C98184   6.519   6.816   4.182  0.0007  0.5041 -0.2417
  728MOL0     C98185   6.624   6.753   4.084  0.1020 -0.0601 -1.2475
  728MOL0     C98186   6.754   6.824   4.102 -1.2625 -0.2871  0.4385
  728MOL0     C98187   6.855   6.800   3.993  1.1656  1.1937 -0.5153
  728MOL0     C98188   6.995   6.828   4.027 -0.6010  0.0079  0.5079
  728MOL0    Cl98189   7.013   7.010   4.050  0.2387  0.0717 -0.3105
  728MOL0     C98190   5.893   6.672   4.157  0.1159  0.6386  0.2383
  728MOL0     C98191   5.752   6.657   4.147  0.2348 -0.5191 -0.2371
  728MOL0     O98192   5.503   6.804   3.879  0.0439 -0.9469 -0.0568
  728MOL0     C98193   5.226   6.764   3.897 -0.0804 -0.6788  0.1724
  728MOL0     C98194   5.089   6.757   3.916  0.1690 -0.2047 -0.2559
  728MOL0     N98195   4.540   7.111   4.204  0.8270  0.2641  0.0080
  728MOL0     N98196   4.436   7.186   4.222  0.2961  0.2374  0.8712
  728MOL0     C98197   3.582   7.897   5.029 -0.7931  0.1665 -0.0791
  728MOL0     C98198   3.460   7.951   5.061 -0.1068  0.0840 -0.1454
  728MOL0     C98199   3.021   8.003   5.043  0.4994  0.9962 -0.2604
  728MOL0     C98200   2.947   7.959   5.153  0.4030  0.9147  0.3768
  728MOL0     C98201   2.811   7.984   5.171  0.1501  0.4106 -0.6989
  728MOL0     C98202   2.739   8.054   5.079  0.0746 -0.9317  0.3217
  728MOL0     O98203   2.613   8.091   5.094  0.1337  0.4625 -0.1375
  728MOL0     C98204   2.516   7.988   5.121 -0.0429  0.4104 -0.1654
  728MOL0     C98205   2.497   7.896   5.009 -0.5062 -0.0452 -0.2293
  728MOL0     C98206   2.445   7.978   4.895 -0.1325 -0.0758 -0.4761
  728MOL0     C98207   2.427   7.886   4.779 -0.0476  0.5850  0.4479
  728MOL0     C98208   2.548   7.824   4.732 -0.2245 -0.6741  0.0561
  728MOL0     C98209   2.652   7.773   4.701  0.7394  0.8553  0.4612
  728MOL0     C98210   2.811   8.107   4.968  0.1871  1.0755 -0.4261
  728MOL0     C98211   2.949   8.091   4.956 -1.1619 -0.9676  0.7309
  728MOL0     C98212   3.019   8.168   4.839 -0.1992 -0.3904 -0.2203
  728MOL0     H98213   3.357   8.009   4.735 -2.4638 -2.8865  0.4779
  728MOL0     H98214   3.553   7.891   4.687  0.5810  1.6079 -0.7180
  728MOL0     H98215   3.740   7.712   4.718  2.0458 -2.1072  0.2931
  728MOL0     H98216   3.814   7.878   4.697  2.9377  0.4919  0.5443
  728MOL0     H98217   3.938   7.666   4.866 -1.2163 -1.0826 -1.1866
  728MOL0     H98218   3.996   7.827   4.837  0.3543 -0.7629  0.5309
  728MOL0     H98219   4.014   7.766   4.586 -2.4519  0.8490  0.4539
  728MOL0     H98220   3.974   7.594   4.649 -2.0781  0.9164  2.5141
  728MOL0     H98221   4.218   7.744   4.744  0.9111 -0.2493  0.9088
  728MOL0     H98222   4.167   7.600   4.799  0.2147  0.1114 -0.3365
  728MOL0     H98223   4.263   7.658   4.506  1.7342 -1.5318 -0.6277
  728MOL0     H98224   4.353   7.589   4.628  1.2589  1.2965 -1.9930
  728MOL0     H98225   4.241   7.386   4.638  1.4727 -2.2325 -1.2111
  728MOL0     H98226   4.117   7.441   4.518 -0.7263 -0.3894  3.4776
  728MOL0     H98227   4.416   7.435   4.451 -0.9332  1.0862 -0.0805
  728MOL0     H98228   4.264   7.434   4.343 -2.6513 -0.3158  1.0847
  728MOL0     H98229   4.301   7.204   4.531 -0.1573  1.5871  1.1260
  728MOL0     H98230   4.222   7.226   4.383  0.9994  2.8699 -2.3625
  728MOL0     H98231   4.546   7.112   4.524 -0.0351 -2.9008 -0.0071
  728MOL0     H98232   4.817   7.053   4.300 -0.8835  1.2841 -1.0645
  728MOL0     H98233   4.735   6.954   4.430  0.6237  0.9870 -0.6774
  728MOL0     H98234   4.623   6.833   4.269  0.6517  1.3998  3.3498
  728MOL0     H98235   4.720   6.897   4.138 -0.7757  0.9583  0.0012
  728MOL0     H98236   4.826   6.708   4.366 -0.0282  0.2004 -0.2382
  728MOL0     H98237   4.932   6.800   4.265  0.7398 -1.8127  2.1830
  728MOL0     H98238   4.732   6.612   4.136  0.5791 -0.1205 -0.6611
  728MOL0     H98239   4.881   6.557   4.188  0.6085 -0.0441 -2.1276
  728MOL0     H98240   5.080   6.615   4.224  1.0878 -0.7635 -0.3157
  728MOL0     H98241   5.319   6.624   4.178  2.6096  0.4976 -2.8861
  728MOL0     H98242   5.675   6.945   3.987  0.5925  0.9165  0.9383
  728MOL0     H98243   5.924   6.976   4.002  2.7241 -1.2817  0.4772
  728MOL0     H98244   6.180   6.643   4.041  0.3753 -0.1392 -1.7705
  728MOL0     H98245   6.148   6.779   3.922 -0.5382  0.8207  0.0969
  728MOL0     H98246   6.361   6.789   3.940 -2.5822 -0.7252 -1.5822
  728MOL0     H98247   6.304   6.914   4.059  0.4826 -0.2148  1.5330
  728MOL0     H98248   6.320   6.748   4.241 -1.4124 -2.1602 -0.9320
  728MOL0     H98249   6.406   6.634   4.147  3.1350 -0.1876  5.0657
  728MOL0     H98250   6.541   6.797   4.288  3.9720 -0.4920 -1.1058
  728MOL0     H98251   6.514   6.925   4.173 -1.3502  0.4534 -0.3681
  728MOL0     H98252   6.584   6.771   3.984 -2.2303 -1.3299 -0.6353
  728MOL0     H98253   6.646   6.646   4.096 -2.2700 -0.4535  0.3951
  728MOL0     H98254   6.728   6.930   4.096 -0.3148  0.1546  2.7769
  728MOL0     H98255   6.796   6.797   4.199  0.1580  0.8154  0.1720
  728MOL0     H98256   6.817   6.847   3.902 -3.7526  0.3909  0.8424
  728MOL0     H98257   6.848   6.692   3.979 -0.3598  1.0283  1.2407
  728MOL0     H98258   7.031   6.773   4.114 -1.6070 -1.1160  0.2328
  728MOL0     H98259   7.054   6.804   3.938 -3.0323 -0.1553 -1.1446
  728MOL0     H98260   5.954   6.586   4.184  2.7566  3.1428  3.1217
  728MOL0     H98261   5.704   6.567   4.185 -0.8492  0.8341  1.7384
  728MOL0     H98262   5.267   6.778   3.798 -0.9240 -1.0302 -0.2297
  728MOL0     H98263   5.015   6.792   3.844 -0.1396 -2.0079 -0.8882
  728MOL0     H98264   3.635   7.857   5.114 -1.7414  0.0856  0.4859
  728MOL0     H98265   3.426   7.962   5.164  0.3580  3.7945 -0.2347
  728MOL0     H98266   2.995   7.896   5.228  2.1999  3.4621  1.5081
  728MOL0     H98267   2.770   7.949   5.266 -1.0968  1.0039 -1.0001
  728MOL0     H98268   2.415   8.020   5.145 -0.7261 -2.3108  0.9503
  728MOL0     H98269   2.557   7.925   5.200  1.1970  1.0382 -0.2701
  728MOL0     H98270   2.422   7.821   5.035  0.0034 -0.8527 -1.0232
  728MOL0     H98271   2.593   7.847   4.991 -1.0824 -1.8238  1.1737
  728MOL0     H98272   2.519   8.054   4.870 -0.8144  0.2568 -1.5395
  728MOL0     H98273   2.348   8.019   4.925 -0.0118 -1.0668  1.4231
  728MOL0     H98274   2.355   7.808   4.805 -0.3284  1.1861  1.5086
  728MOL0     H98275   2.390   7.948   4.697  1.8258  0.8175 -0.2699
  728MOL0     H98276   2.743   7.734   4.660 -0.0889  0.4146 -1.0164
  728MOL0     H98277   2.753   8.157   4.891 -2.7423  0.6889  1.4032
  728MOL0     H98278   3.080   8.091   4.790 -1.6422 -1.9939  0.3721
  728MOL0     H98279   2.946   8.214   4.771 -0.9140 -1.1323  0.0254
  728MOL0     H98280   3.082   8.248   4.877 -1.1517  0.1832  0.1931
  729MOL0     O98281   3.517   8.668   5.580 -0.0706 -0.0167  1.7031
  729MOL0     C98282   3.465   8.700   5.680  0.1987 -0.9819 -0.0217
  729MOL0     O98283   3.518   8.793   5.772  0.1181  0.1601 -0.2130
  729MOL0     C98284   3.652   8.815   5.772 -0.3059 -0.6767  1.0375
  729MOL0     C98285   3.736   8.707   5.816  0.1682  1.0995  0.4823
  729MOL0     C98286   3.872   8.721   5.826 -0.6345 -0.1460  0.1238
  729MOL0     C98287   3.937   8.843   5.788  0.4131  0.0441 -0.8006
  729MOL0     O98288   4.073   8.856   5.793  1.3001 -0.3194  0.0763
  729MOL0     C98289   4.142   8.972   5.743 -0.6027  0.0004  0.1167
  729MOL0     C98290   4.292   8.934   5.769  0.2073  0.3737 -0.8598
  729MOL0     C98291   4.376   9.053   5.718 -0.5397  0.0890 -0.4708
  729MOL0     C98292   4.513   9.057   5.781 -0.3852 -0.2504 -1.4259
  729MOL0     C98293   4.613   9.137   5.683 -0.1398  0.4210 -0.1084
  729MOL0     C98294   4.754   9.170   5.754 -0.4618 -0.4485 -0.0804
  729MOL0     C98295   4.741   9.277   5.860 -0.4880  0.4108  0.8602
  729MOL0     C98296   4.867   9.279   5.936 -0.3912 -0.2349  0.1654
  729MOL0     N98297   4.964   9.371   5.870  0.3464  0.2741  0.3882
  729MOL0     C98298   5.089   9.328   5.828  0.0378  0.0201 -0.2812
  729MOL0     C98299   5.135   9.407   5.723  0.1853  0.0250 -1.0727
  729MOL0     C98300   5.257   9.398   5.634  0.1032 -0.2807  0.1439
  729MOL0     C98301   5.357   9.492   5.703  0.1916  0.2818  0.3053
  729MOL0     C98302   5.454   9.562   5.608 -0.2495  0.1083 -0.7823
  729MOL0     C98303   5.441   9.709   5.575  0.0619  0.8215 -0.0648
  729MOL0     O98304   5.526   9.732   5.459  0.2629  0.0923  0.0153
  729MOL0     C98305   5.657   9.766   5.474 -0.5338 -0.5237  0.1494
  729MOL0     C98306   5.720   9.822   5.365 -0.8629 -0.2978  0.3343
  729MOL0     C98307   5.856   9.849   5.368 -0.8025  0.9665  0.2444
  729MOL0     C98308   5.936   9.824   5.481  0.4226  0.6956 -0.5331
  729MOL0     C98309   6.081   9.839   5.473 -0.4595 -0.5527 -0.6349
  729MOL0     O98310   6.146   9.826   5.598  0.2870  0.2616 -0.4890
  729MOL0     C98311   6.276   9.862   5.614 -1.0326 -0.0020 -0.4617
  729MOL0     C98312   6.341   9.821   5.729 -0.2051 -0.2193 -0.0210
  729MOL0     C98313   6.474   9.857   5.760  0.5212 -0.1564  0.1584
  729MOL0     C98314   6.543   9.950   5.680 -0.1758 -1.0308  0.5875
  729MOL0     O98315   6.674   9.998   5.702 -0.0913  0.2844 -0.1930
  729MOL0     C98316   6.765   9.909   5.763  0.1602  0.1421 -0.0076
  729MOL0     C98317   6.904   9.971   5.772 -0.1584  0.4755  0.4190
  729MOL0     C98318   7.006   9.890   5.857 -0.2269  0.6068 -0.2437
  729MOL0     C98319   7.140   9.961   5.858  0.7178 -0.4288 -0.6067
  729MOL0     C98320   7.258   9.877   5.898 -0.1729  0.2848  0.6580
  729MOL0     C98321   7.382   9.949   5.866 -0.4430  0.1814 -0.5404
  729MOL0     C98322   7.512   9.885   5.912 -0.4499  0.1720  0.1600
  729MOL0     C98323   7.645   9.972   5.889  1.0261  0.2873  0.1582
  729MOL0    Cl98324   7.783   9.860   5.917 -0.0306 -0.6065  0.0410
  729MOL0     C98325   6.481   9.993   5.566  0.1737 -0.1999 -0.6193
  729MOL0     C98326   6.348   9.955   5.536 -0.7883 -0.2735  0.1557
  729MOL0     O98327   6.141   9.857   5.363  0.1318 -0.0156 -0.6303
  729MOL0     C98328   5.866   9.777   5.597  0.0650 -1.1351  0.1574
  729MOL0     C98329   5.724   9.745   5.596  0.1512 -0.6368 -0.2109
  729MOL0     N98330   5.040   9.505   5.718 -0.3053  0.4765 -0.6543
  729MOL0     N98331   4.939   9.485   5.793  0.2718  0.3102  0.5287
  729MOL0     C98332   3.855   8.949   5.747 -0.2167  0.0719 -0.4880
  729MOL0     C98333   3.715   8.936   5.742  0.2139  0.1039  0.6140
  729MOL0     C98334   3.317   8.669   5.692 -0.3887  0.0078  0.0185
  729MOL0     C98335   3.240   8.764   5.765 -0.1479  0.2401  0.5401
  729MOL0     C98336   3.106   8.748   5.770  0.5142 -0.0741 -0.1112
  729MOL0     C98337   3.041   8.637   5.712  0.3884 -0.2676 -0.1386
  729MOL0     O98338   2.901   8.612   5.726  0.4595  0.2113 -0.4567
  729MOL0     C98339   2.818   8.729   5.720  0.5390 -0.0345 -0.2951
  729MOL0     C98340   2.666   8.694   5.694 -0.3575 -0.5078  0.0497
  729MOL0     C98341   2.578   8.823   5.688  0.0092 -0.5740 -0.9653
  729MOL0     C98342   2.427   8.810   5.710  0.5069 -0.0777  0.0081
  729MOL0     C98343   2.353   8.716   5.622  0.0688 -0.3266  0.5448
  729MOL0     C98344   2.293   8.633   5.557  0.4603 -0.3170  0.0130
  729MOL0     C98345   3.121   8.541   5.648 -0.3873 -0.0217 -1.0543
  729MOL0     C98346   3.263   8.550   5.648  0.7133 -0.5014  0.1721
  729MOL0     C98347   3.343   8.444   5.581  0.5767  0.4589 -0.7648
  729MOL0     H98348   3.699   8.608   5.841  1.0138  0.6062 -0.1744
  729MOL0     H98349   3.931   8.638   5.862 -1.6673  0.1390  2.7288
  729MOL0     H98350   4.131   8.985   5.635  2.9116 -4.0859 -0.9782
  729MOL0     H98351   4.117   9.062   5.801  2.8115  1.5444 -0.5674
  729MOL0     H98352   4.321   8.844   5.714  0.1928  0.3811 -0.8804
  729MOL0     H98353   4.298   8.918   5.877 -1.4538  2.5509 -0.3771
  729MOL0     H98354   4.315   9.141   5.740 -2.3463 -0.7826 -1.7371
  729MOL0     H98355   4.388   9.038   5.610 -0.7145  0.8186 -0.5999
  729MOL0     H98356   4.505   9.098   5.882  0.4664  0.0848 -1.4845
  729MOL0     H98357   4.544   8.952   5.791 -0.9336 -0.4817 -2.0584
  729MOL0     H98358   4.622   9.088   5.586 -3.1605  1.4293 -1.0161
  729MOL0     H98359   4.566   9.232   5.656  2.0337  0.7951 -3.0225
  729MOL0     H98360   4.786   9.073   5.794 -2.6607 -1.3020 -0.2560
  729MOL0     H98361   4.817   9.222   5.682  2.0130 -0.4336  1.9607
  729MOL0     H98362   4.668   9.249   5.936 -0.9275  1.9451  1.0349
  729MOL0     H98363   4.711   9.378   5.829 -0.4848 -0.4924 -2.4410
  729MOL0     H98364   4.848   9.320   6.036  2.9475  0.3231  0.6762
  729MOL0     H98365   4.913   9.180   5.935  1.9450  0.7561 -1.7950
  729MOL0     H98366   5.132   9.235   5.864  0.5428  0.4741  0.3046
  729MOL0     H98367   5.292   9.295   5.630  0.4239 -0.3110  2.3755
  729MOL0     H98368   5.223   9.430   5.535 -1.6812 -0.7454  0.5649
  729MOL0     H98369   5.317   9.578   5.757  3.0510  3.0691 -1.6153
  729MOL0     H98370   5.409   9.430   5.776 -0.9577  0.2594  1.1177
  729MOL0     H98371   5.469   9.498   5.521 -1.0401  0.1156 -0.9256
  729MOL0     H98372   5.554   9.557   5.654  0.2873 -1.9962 -2.0253
  729MOL0     H98373   5.475   9.769   5.660  0.6401  0.5587 -0.1053
  729MOL0     H98374   5.338   9.741   5.558  0.5188  1.1953 -2.4791
  729MOL0     H98375   5.654   9.838   5.280 -0.1300  0.3640 -0.1207
  729MOL0     H98376   5.900   9.884   5.276  1.6159 -1.5050  0.3481
  729MOL0     H98377   6.291   9.744   5.787 -1.5898  1.6647  1.3946
  729MOL0     H98378   6.509   9.807   5.850 -1.0610  0.1651  0.9873
  729MOL0     H98379   6.734   9.871   5.861  1.4914 -2.1926 -0.4192
  729MOL0     H98380   6.774   9.822   5.697  0.4024 -1.1286  1.6307
  729MOL0     H98381   6.932   9.982   5.667  1.8048  0.3691  0.8915
  729MOL0     H98382   6.897  10.072   5.812  1.0277  0.0531  1.7953
  729MOL0     H98383   6.962   9.881   5.956  0.0581  1.9637  0.0246
  729MOL0     H98384   7.023   9.792   5.811  1.0157  0.0870  1.2191
  729MOL0     H98385   7.141  10.038   5.936  0.7798 -0.3323 -0.7032
  729MOL0     H98386   7.172  10.010   5.766  5.4524  3.1841  2.4170
  729MOL0     H98387   7.249   9.788   5.834 -1.2846  0.4450  0.5792
  729MOL0     H98388   7.270   9.858   6.005 -0.9648 -1.8714  0.4189
  729MOL0     H98389   7.403   9.939   5.759 -1.2394  0.1568 -0.6968
  729MOL0     H98390   7.381  10.053   5.901  0.6356  0.9076 -2.4968
  729MOL0     H98391   7.530   9.802   5.843  2.7260  3.0450 -2.8673
  729MOL0     H98392   7.508   9.855   6.017  3.5048 -0.6564  0.2226
  729MOL0     H98393   7.648  10.003   5.784  1.9519  0.7256  0.3019
  729MOL0     H98394   7.645  10.052   5.963  0.8315 -1.2514  1.8998
  729MOL0     H98395   6.532  10.061   5.499  2.9326 -0.8506  0.6585
  729MOL0     H98396   6.307  10.005   5.449  0.6296 -0.3341 -0.5740
  729MOL0     H98397   5.929   9.760   5.684  1.8950  0.4153 -0.7905
  729MOL0     H98398   5.673   9.720   5.688  0.3010  0.3268  0.1538
  729MOL0     H98399   3.908   9.043   5.734  0.1470  0.1686  1.3724
  729MOL0     H98400   3.662   9.027   5.715  1.5103  0.1791 -2.0635
  729MOL0     H98401   3.278   8.860   5.796  0.8596  0.7687 -2.0305
  729MOL0     H98402   3.036   8.809   5.826 -0.9563 -0.6677 -1.2212
  729MOL0     H98403   2.860   8.797   5.645 -1.2616 -1.4318 -2.7081
  729MOL0     H98404   2.827   8.771   5.820  5.0382  0.5751 -0.7533
  729MOL0     H98405   2.617   8.628   5.767 -2.1231  3.0428  2.3316
  729MOL0     H98406   2.654   8.651   5.594 -3.6994  0.4681 -0.0977
  729MOL0     H98407   2.598   8.865   5.589 -1.2498  0.3443 -0.8553
  729MOL0     H98408   2.607   8.897   5.763 -0.8905 -1.1618 -0.0116
  729MOL0     H98409   2.391   8.789   5.811 -2.3680 -3.6462 -1.5082
  729MOL0     H98410   2.380   8.905   5.681  2.0523  0.5430 -0.5655
  729MOL0     H98411   2.225   8.570   5.505 -0.1187  1.3108 -1.2987
  729MOL0     H98412   3.078   8.442   5.631 -0.1692 -0.2018 -0.5743
  729MOL0     H98413   3.425   8.412   5.646  0.4374  0.9953 -0.3158
  729MOL0     H98414   3.282   8.355   5.564  1.9450 -0.4611 -1.0268
  729MOL0     H98415   3.387   8.482   5.488  2.0834  4.3587  1.2942
  730MOL0     O98416   0.252   6.359   9.697 -0.4523  0.1432  0.0926
  730MOL0     C98417   0.186   6.461   9.705 -0.3578 -0.4132  0.5348
  730MOL0     O98418   0.236   6.587   9.665  0.3983  0.2791 -0.4811
  730MOL0     C98419   0.365   6.591   9.627  0.4958  0.0371  0.3057
  730MOL0     C98420   0.410   6.550   9.503 -0.0386 -0.1570  0.4492
  730MOL0     C98421   0.535   6.589   9.459 -0.7199 -1.1159 -0.2688
  730MOL0     C98422   0.625   6.651   9.549 -0.5539 -0.8584  0.2972
  730MOL0     O98423   0.751   6.679   9.528 -0.6119 -0.9702 -0.2212
  730MOL0     C98424   0.819   6.602   9.434  0.7557 -0.6435  0.2413
  730MOL0     C98425   0.858   6.465   9.490  0.0483  0.9012  0.9479
  730MOL0     C98426   0.967   6.468   9.599 -0.1605  0.1449 -0.4648
  730MOL0     C98427   0.910   6.484   9.740  0.2227 -0.4265  0.3934
  730MOL0     C98428   1.014   6.525   9.846 -0.5634 -0.0989 -0.1771
  730MOL0     C98429   1.133   6.429   9.855 -0.1656 -0.9111  0.5596
  730MOL0     C98430   1.091   6.282   9.873 -1.1549  0.4418 -0.6014
  730MOL0     C98431   0.996   6.253   9.986 -0.1683  0.1023  0.2408
  730MOL0     N98432   1.070   6.279  10.109  0.4219  0.1093 -0.2410
  730MOL0     C98433   1.153   6.189  10.168  0.1632  0.7198  0.6081
  730MOL0     C98434   1.184   6.242  10.278 -0.0432  0.0151  0.4425
  730MOL0     C98435   1.265   6.183  10.386 -0.3873 -0.1665 -0.0754
  730MOL0     C98436   1.176   6.149  10.502 -0.1729  0.1599 -0.2005
  730MOL0     C98437   1.250   6.051  10.592 -0.0320  0.4782  0.3587
  730MOL0     C98438   1.269   5.905  10.531  0.1320  0.2852  0.4585
  730MOL0     O98439   1.352   5.809  10.597  0.4003  0.3883 -0.8463
  730MOL0     C98440   1.488   5.823  10.580 -0.4477  0.4168  0.3032
  730MOL0     C98441   1.553   5.915  10.500  0.3919  0.4596  0.5243
  730MOL0     C98442   1.689   5.915  10.482 -0.2057  0.4596  0.0290
  730MOL0     C98443   1.773   5.833  10.556 -0.9121  0.4904  0.2998
  730MOL0     C98444   1.920   5.825  10.534 -0.0830 -0.1151 -0.6481
  730MOL0     O98445   1.967   5.696  10.530  0.6044  0.2049 -1.1784
  730MOL0     C98446   2.104   5.671  10.531  1.1341  0.7435  1.0992
  730MOL0     C98447   2.196   5.663  10.640 -0.5042  0.1473  0.4536
  730MOL0     C98448   2.333   5.630  10.617  0.5620 -0.5300  0.4895
  730MOL0     C98449   2.386   5.601  10.491  0.0379 -0.4174  0.2670
  730MOL0     O98450   2.518   5.574  10.471 -0.5741 -0.6266  1.1717
  730MOL0     C98451   2.617   5.584  10.576  0.0306 -0.1746  0.0665
  730MOL0     C98452   2.736   5.506  10.540  0.7009 -0.2239 -0.9315
  730MOL0     C98453   2.797   5.557  10.407 -0.1958  0.2027 -0.8428
  730MOL0     C98454   2.885   5.457  10.335 -0.5182  0.1656 -1.0533
  730MOL0     C98455   2.940   5.491  10.203 -0.1448  0.4109  0.6086
  730MOL0     C98456   3.012   5.374  10.140  0.6155  0.0878  0.0846
  730MOL0     C98457   3.060   5.413   9.998  0.3255 -0.8150  0.2205
  730MOL0     C98458   3.154   5.320   9.935 -0.1157  1.2545  0.0096
  730MOL0    Cl98459   3.102   5.151   9.947 -0.0937 -0.0411  0.1730
  730MOL0     C98460   2.290   5.603  10.381 -0.3304 -0.4173 -0.5550
  730MOL0     C98461   2.156   5.635  10.408 -0.7855  0.7133 -0.0891
  730MOL0     O98462   1.978   5.919  10.488  0.4437  0.5055  0.0779
  730MOL0     C98463   1.709   5.742  10.641 -0.8825 -0.2729 -0.4074
  730MOL0     C98464   1.565   5.737  10.652  0.0204 -0.1567  0.0105
  730MOL0     N98465   1.125   6.370  10.290  0.3287 -0.4385  0.1347
  730MOL0     N98466   1.048   6.380  10.192  0.4545 -0.0647  0.2975
  730MOL0     C98467   0.585   6.658   9.679 -0.2282  0.4365  0.0822
  730MOL0     C98468   0.454   6.650   9.719  0.2835 -0.8996  0.2090
  730MOL0     C98469   0.058   6.462   9.769  0.0383 -1.2763  0.2403
  730MOL0     C98470  -0.024   6.578   9.753  0.1927  0.5417 -0.6233
  730MOL0     C98471  -0.136   6.600   9.841  0.4673 -0.8375 -0.0498
  730MOL0     C98472  -0.176   6.505   9.928  0.2825 -0.6594  0.2237
  730MOL0     O98473  -0.281   6.519  10.018 -0.6120  0.4569  0.7688
  730MOL0     C98474  -0.405   6.540   9.954 -0.2250 -0.5065 -0.2468
  730MOL0     C98475  -0.526   6.537  10.055 -0.1302 -0.6786 -0.2622
  730MOL0     C98476  -0.663   6.541   9.996 -0.0982 -0.6177  0.4707
  730MOL0     C98477  -0.716   6.410   9.942  0.9308 -0.0694  0.0235
  730MOL0     C98478  -0.756   6.315  10.039  0.2885 -0.0157 -0.2870
  730MOL0     C98479  -0.800   6.230  10.115  0.5619  0.1954 -0.3944
  730MOL0     C98480  -0.100   6.387   9.929 -0.8203  0.5305 -0.1044
  730MOL0     C98481   0.014   6.355   9.846 -0.1862 -0.6468 -0.1266
  730MOL0     C98482   0.064   6.218   9.875 -0.4074 -0.1071 -0.5669
  730MOL0     H98483   0.349   6.503   9.427 -0.3818 -1.7112  1.6410
  730MOL0     H98484   0.570   6.557   9.362  2.5469  1.4334 -0.1220
  730MOL0     H98485   0.760   6.578   9.345  1.1872  0.8173 -0.4701
  730MOL0     H98486   0.907   6.658   9.401  1.0560  1.1295  3.5771
  730MOL0     H98487   0.906   6.423   9.401  2.7310  0.3734  2.5348
  730MOL0     H98488   0.767   6.407   9.510 -3.1019  4.5929 -1.2934
  730MOL0     H98489   1.048   6.541   9.591  0.8500 -0.7192  1.3028
  730MOL0     H98490   1.025   6.376   9.603 -0.1676  0.1401  4.1009
  730MOL0     H98491   0.827   6.555   9.729  0.2690 -0.6569 -2.1203
  730MOL0     H98492   0.873   6.384   9.765  1.7787 -0.4715  2.8625
  730MOL0     H98493   1.067   6.612   9.807 -0.4803 -0.4383 -0.8313
  730MOL0     H98494   0.966   6.540   9.944 -0.8466 -0.4678 -0.2594
  730MOL0     H98495   1.189   6.441   9.762 -1.6898  1.4935 -0.1162
  730MOL0     H98496   1.205   6.447   9.936  3.0949 -2.3276 -1.8048
  730MOL0     H98497   1.181   6.219   9.871 -1.6556 -0.3286  0.2503
  730MOL0     H98498   1.030   6.248   9.789 -0.2746  0.3179 -1.2139
  730MOL0     H98499   0.907   6.314   9.966  1.4325  1.3079 -4.5781
  730MOL0     H98500   0.965   6.148   9.997  3.4567 -0.9631  1.6177
  730MOL0     H98501   1.168   6.084  10.142 -1.0876  0.4445  0.9305
  730MOL0     H98502   1.328   6.102  10.348  0.5355  0.5498 -0.0929
  730MOL0     H98503   1.335   6.263  10.413  2.1031 -1.8363 -1.1580
  730MOL0     H98504   1.151   6.245  10.547  1.5603  0.6877 -0.2956
  730MOL0     H98505   1.083   6.101  10.470 -0.3143  1.3765 -1.7470
  730MOL0     H98506   1.191   6.036  10.683  0.7278  1.4442  1.0284
  730MOL0     H98507   1.348   6.089  10.623  1.7737 -2.5442 -1.0916
  730MOL0     H98508   1.304   5.915  10.428  2.8364 -1.8943  1.0467
  730MOL0     H98509   1.166   5.868  10.531 -1.0332  3.2771  1.5444
  730MOL0     H98510   1.492   5.990  10.451 -1.0150 -2.2958 -2.2822
  730MOL0     H98511   1.732   5.994  10.421  2.2358 -0.7813  0.0276
  730MOL0     H98512   2.149   5.670  10.737 -1.4270  1.6061 -0.0639
  730MOL0     H98513   2.394   5.625  10.707 -0.3111 -1.8513  1.0409
  730MOL0     H98514   2.651   5.688  10.575 -0.7653  0.0886 -0.8307
  730MOL0     H98515   2.587   5.563  10.679  3.0309 -3.4930  0.4688
  730MOL0     H98516   2.816   5.520  10.613  0.6313  0.8586 -1.0416
  730MOL0     H98517   2.712   5.399  10.539  0.0230 -0.2058  2.2818
  730MOL0     H98518   2.720   5.586  10.335  2.7544  1.2552 -3.8292
  730MOL0     H98519   2.851   5.651  10.425 -0.8465  0.6256 -1.0605
  730MOL0     H98520   2.828   5.365  10.325  0.3933 -0.4706 -0.6102
  730MOL0     H98521   2.966   5.435  10.405 -0.4120 -0.4165 -1.3514
  730MOL0     H98522   2.996   5.585  10.191  0.7936 -0.4696 -6.3630
  730MOL0     H98523   2.847   5.516  10.151 -0.5014  1.2739  1.6238
  730MOL0     H98524   3.086   5.336  10.211 -0.5838 -1.7617  0.4234
  730MOL0     H98525   2.938   5.294  10.124  2.3160 -1.0956 -2.6033
  730MOL0     H98526   3.108   5.511  10.003 -0.7625  0.2077 -4.4051
  730MOL0     H98527   2.968   5.405   9.938  1.2871 -1.9637 -1.1722
  730MOL0     H98528   3.170   5.349   9.831 -0.6154  1.1495 -0.1011
  730MOL0     H98529   3.251   5.327   9.984  0.4932 -0.7612 -0.8326
  730MOL0     H98530   2.327   5.567  10.285 -0.8122 -0.0205 -0.8895
  730MOL0     H98531   2.085   5.638  10.326 -1.3761 -1.1954  0.2987
  730MOL0     H98532   1.764   5.661  10.688  0.0235 -1.0621 -2.6780
  730MOL0     H98533   1.514   5.667  10.718 -3.5142 -0.7047 -2.9694
  730MOL0     H98534   0.652   6.689   9.759 -0.2614  1.6529 -0.3504
  730MOL0     H98535   0.420   6.687   9.815  2.4959  1.2634  0.2529
  730MOL0     H98536  -0.002   6.669   9.698  0.1359  0.8107 -0.2097
  730MOL0     H98537  -0.189   6.694   9.836 -0.7849 -1.5918 -2.1611
  730MOL0     H98538  -0.407   6.455   9.885 -0.2984 -2.3919  1.9566
  730MOL0     H98539  -0.425   6.629   9.893 -4.8161 -1.1399 -0.0433
  730MOL0     H98540  -0.517   6.625  10.120 -2.3507 -0.1385 -0.6301
  730MOL0     H98541  -0.519   6.442  10.109  1.7630 -1.6842 -2.1220
  730MOL0     H98542  -0.668   6.618   9.918  1.8866 -0.9373 -0.0139
  730MOL0     H98543  -0.734   6.575  10.072 -1.8846 -1.2498 -0.8243
  730MOL0     H98544  -0.808   6.429   9.886 -1.0208 -3.8148  1.5890
  730MOL0     H98545  -0.642   6.369   9.874  0.0340  2.1769 -2.4662
  730MOL0     H98546  -0.847   6.159  10.180  1.9068 -0.9797 -0.6554
  730MOL0     H98547  -0.127   6.308   9.999 -0.1384  0.1212 -0.2911
  730MOL0     H98548   0.096   6.171   9.782 -2.1029 -0.2985 -1.0716
  730MOL0     H98549   0.144   6.225   9.950  0.3929 -0.1238 -1.3955
  730MOL0     H98550  -0.008   6.149   9.919 -1.1756  0.3368 -1.1174
  731MOL0     O98551   5.605  11.152   6.528 -0.1415  0.4493  1.4010
  731MOL0     C98552   5.629  11.225   6.432  0.3802 -0.4181  0.5395
  731MOL0     O98553   5.742  11.303   6.429  0.5822  0.0443  0.1592
  731MOL0     C98554   5.842  11.282   6.520  0.2426 -0.3837 -0.4943
  731MOL0     C98555   5.974  11.315   6.474  0.7169 -0.1891 -0.7535
  731MOL0     C98556   6.085  11.295   6.563  0.0020  0.3026 -0.1900
  731MOL0     C98557   6.069  11.256   6.698  0.3447 -0.3396  0.0328
  731MOL0     O98558   6.164  11.249   6.795  0.4329 -0.5582  0.0584
  731MOL0     C98559   6.300  11.257   6.761 -0.1024  0.3004 -0.8066
  731MOL0     C98560   6.357  11.129   6.705  0.6854  0.1000 -0.6336
  731MOL0     C98561   6.499  11.127   6.677 -0.9137 -0.3074  0.5455
  731MOL0     C98562   6.543  10.994   6.602 -0.3605 -0.3519  0.0599
  731MOL0     C98563   6.695  10.982   6.594 -0.1040 -0.1401 -0.0249
  731MOL0     C98564   6.747  10.939   6.733 -0.5476 -0.7946  0.1029
  731MOL0     C98565   6.907  10.968   6.745  0.6539  0.6740 -0.0375
  731MOL0     C98566   6.963  10.913   6.873  0.2784  0.7399  0.3998
  731MOL0     N98567   7.110  10.914   6.868  0.3843  0.1528  0.5857
  731MOL0     C98568   7.185  11.023   6.872 -0.4573  0.5971  0.2211
  731MOL0     C98569   7.309  10.976   6.829 -0.7821  0.3852 -0.0963
  731MOL0     C98570   7.428  11.064   6.807  0.4910  0.8236 -0.2556
  731MOL0     C98571   7.545  11.015   6.893 -0.1966 -0.0324  0.6518
  731MOL0     C98572   7.655  11.120   6.881 -0.1343 -0.3634  0.0379
  731MOL0     C98573   7.692  11.147   7.030 -0.2047  0.7577  0.4824
  731MOL0     O98574   7.817  11.230   7.044  1.2962 -0.5048 -0.1393
  731MOL0     C98575   7.934  11.191   6.995  0.0837  0.5722  0.6796
  731MOL0     C98576   7.966  11.064   6.953 -0.5552  0.2477 -0.5128
  731MOL0     C98577   8.094  11.037   6.898 -0.2263 -0.2397  0.3083
  731MOL0     C98578   8.195  11.135   6.894  0.2432 -0.3043 -0.1079
  731MOL0     C98579   8.327  11.105   6.832  0.4646 -0.2386 -0.4174
  731MOL0     O98580   8.409  11.207   6.794  0.6233  0.0826 -0.1009
  731MOL0     C98581   8.527  11.180   6.719 -0.1139  0.5085 -0.1697
  731MOL0     C98582   8.522  11.147   6.584  0.5477  0.3810 -0.1757
  731MOL0     C98583   8.635  11.131   6.509 -0.1284 -0.3386 -0.5229
  731MOL0     C98584   8.758  11.142   6.575 -0.0378 -0.2765  0.6950
  731MOL0     O98585   8.874  11.140   6.495  0.1578  0.5147 -0.9860
  731MOL0     C98586   8.998  11.115   6.548 -0.3815  0.1511  0.0736
  731MOL0     C98587   9.097  11.092   6.432  1.0900 -0.1656 -0.5113
  731MOL0     C98588   9.234  11.042   6.476  0.4234  0.9413 -0.5945
  731MOL0     C98589   9.322  11.013   6.353  1.2139  0.6421 -0.4985
  731MOL0     C98590   9.461  10.995   6.410  0.3703 -0.2878 -0.4750
  731MOL0     C98591   9.557  10.993   6.297  0.0675  0.1591 -0.0577
  731MOL0     C98592   9.700  10.952   6.329 -0.0739  0.0983  0.1300
  731MOL0     C98593   9.778  10.946   6.197  0.0391  0.4986  0.7805
  731MOL0    Cl98594   9.940  10.885   6.228 -0.0117 -0.2184 -0.2041
  731MOL0     C98595   8.766  11.154   6.716 -0.4834 -0.6051  0.2919
  731MOL0     C98596   8.651  11.180   6.788 -0.8810 -0.5699  0.3841
  731MOL0     O98597   8.353  10.986   6.810 -1.1179 -0.2221 -0.4361
  731MOL0     C98598   8.161  11.264   6.937 -0.2641  0.2377 -0.2441
  731MOL0     C98599   8.031  11.285   6.985 -0.2864 -0.2767 -0.1593
  731MOL0     N98600   7.303  10.841   6.795 -0.0118  0.0257  0.2251
  731MOL0     N98601   7.180  10.804   6.822 -0.0390  0.6660  0.5859
  731MOL0     C98602   5.936  11.236   6.741  0.9000 -1.1240  0.2661
  731MOL0     C98603   5.826  11.262   6.654  1.3018  0.2032  0.2593
  731MOL0     C98604   5.535  11.224   6.308 -1.0543 -0.6866 -0.1985
  731MOL0     C98605   5.560  11.318   6.207  0.4854  0.5279  0.1308
  731MOL0     C98606   5.471  11.335   6.109  0.1259 -0.1217  0.0551
  731MOL0     C98607   5.350  11.275   6.102 -1.0286 -0.2651  0.2158
  731MOL0     O98608   5.268  11.317   6.004 -0.0338  0.3633 -0.3601
  731MOL0     C98609   5.130  11.269   6.011  0.7642 -0.3226  0.4989
  731MOL0     C98610   5.041  11.328   5.893 -0.1656  0.4970  0.6915
  731MOL0     C98611   5.101  11.328   5.757 -0.1130  0.6271  1.1231
  731MOL0     C98612   5.158  11.186   5.704 -0.0525 -0.6693  0.0610
  731MOL0     C98613   5.046  11.097   5.674 -0.2298 -0.3345 -0.3315
  731MOL0     C98614   4.945  11.026   5.677 -0.4001 -0.2646 -0.8672
  731MOL0     C98615   5.336  11.172   6.196  0.5278 -0.0676  0.0622
  731MOL0     C98616   5.430  11.140   6.297  0.0613 -0.8943  0.4100
  731MOL0     C98617   5.375  11.041   6.404  0.5111  0.8621  0.3504
  731MOL0     H98618   5.991  11.349   6.372  2.7073 -1.5928 -0.9615
  731MOL0     H98619   6.183  11.322   6.524 -0.3612 -1.4198 -2.5174
  731MOL0     H98620   6.322  11.342   6.696  0.7084  2.3231  1.9623
  731MOL0     H98621   6.342  11.298   6.853  0.4495  1.1272 -1.4147
  731MOL0     H98622   6.294  11.111   6.617  0.4713 -0.5138 -0.3637
  731MOL0     H98623   6.346  11.043   6.772  2.2424  0.8678  0.6848
  731MOL0     H98624   6.552  11.130   6.773  1.9651 -1.0538 -0.9127
  731MOL0     H98625   6.525  11.218   6.622  0.3827  0.2782  2.0442
  731MOL0     H98626   6.508  10.901   6.648  2.3081 -1.9988 -1.0047
  731MOL0     H98627   6.492  11.013   6.507 -0.0156 -3.5915 -0.8684
  731MOL0     H98628   6.727  10.903   6.526  0.2156 -0.5529  0.5933
  731MOL0     H98629   6.731  11.079   6.558 -0.7663 -0.4105 -1.4846
  731MOL0     H98630   6.705  11.016   6.799 -1.0556  0.4786 -1.6312
  731MOL0     H98631   6.712  10.839   6.761 -3.3314  0.2271  0.6924
  731MOL0     H98632   6.921  11.077   6.747 -0.2495  0.7830  1.1941
  731MOL0     H98633   6.944  10.914   6.658 -2.8927 -0.7525 -0.8317
  731MOL0     H98634   6.933  10.986   6.949  1.4829  3.7820 -1.8052
  731MOL0     H98635   6.922  10.812   6.882  2.0840  0.0325  1.0768
  731MOL0     H98636   7.168  11.122   6.912  0.6868  1.3719 -1.1240
  731MOL0     H98637   7.447  11.079   6.700 -0.2167  3.4152 -0.0781
  731MOL0     H98638   7.407  11.163   6.847 -0.8042  0.0626  1.0252
  731MOL0     H98639   7.511  11.000   6.996 -0.5106  0.4787  0.6289
  731MOL0     H98640   7.579  10.920   6.851 -2.5001 -0.2581 -0.8949
  731MOL0     H98641   7.642  11.216   6.830 -0.0202  0.6360  1.7908
  731MOL0     H98642   7.738  11.068   6.832  1.7181  4.1383 -2.2881
  731MOL0     H98643   7.708  11.060   7.094 -1.9196  1.3333  1.7911
  731MOL0     H98644   7.611  11.209   7.070 -0.8434 -0.6547  1.4594
  731MOL0     H98645   7.900  10.979   6.960  0.4470 -0.4636  0.6109
  731MOL0     H98646   8.112  10.940   6.854  1.6681  0.0113  0.4301
  731MOL0     H98647   8.427  11.129   6.535 -0.1303  0.2442  1.1486
  731MOL0     H98648   8.625  11.121   6.402 -0.2616 -0.4677 -0.4993
  731MOL0     H98649   9.040  11.190   6.616 -0.8868  1.2667 -0.8293
  731MOL0     H98650   9.001  11.025   6.611  1.2541  0.6840  0.8259
  731MOL0     H98651   9.060  11.013   6.367  2.2108 -2.7458  1.7928
  731MOL0     H98652   9.105  11.182   6.371  1.0527  0.1174 -0.1031
  731MOL0     H98653   9.287  11.107   6.547  1.9698  1.9694 -2.5950
  731MOL0     H98654   9.229  10.945   6.528  1.7412 -0.0899 -2.2661
  731MOL0     H98655   9.320  11.107   6.298 -0.6056  1.3463  0.6549
  731MOL0     H98656   9.289  10.921   6.304  1.7835 -0.5760  1.2730
  731MOL0     H98657   9.467  10.902   6.467  1.6811  1.8882  3.2760
  731MOL0     H98658   9.496  11.070   6.480 -0.2567  1.7869 -2.2618
  731MOL0     H98659   9.515  10.921   6.225 -1.0450  1.0085 -0.2797
  731MOL0     H98660   9.550  11.089   6.246 -1.8719 -0.0633 -0.3198
  731MOL0     H98661   9.713  10.859   6.385  3.4964 -0.1651 -0.8930
  731MOL0     H98662   9.744  11.030   6.393 -0.8196  2.2046 -1.7723
  731MOL0     H98663   9.725  10.874   6.135  1.6962 -0.2874  0.2010
  731MOL0     H98664   9.781  11.044   6.149  2.9059  0.2236  0.2003
  731MOL0     H98665   8.860  11.140   6.768 -0.8880  0.2841  1.2837
  731MOL0     H98666   8.663  11.198   6.895  2.8176  1.8056 -0.2298
  731MOL0     H98667   8.230  11.346   6.948 -2.0387  1.4738  2.9411
  731MOL0     H98668   8.009  11.389   7.008  1.6134  0.1531 -0.1704
  731MOL0     H98669   5.910  11.218   6.845 -3.7110 -4.2035 -1.0757
  731MOL0     H98670   5.734  11.257   6.712  2.0884  0.0119  1.5507
  731MOL0     H98671   5.655  11.370   6.217  1.2596 -0.7119 -0.5494
  731MOL0     H98672   5.492  11.414   6.037 -1.2830  0.1682 -0.0833
  731MOL0     H98673   5.087  11.309   6.103  0.5705 -0.6499  0.5538
  731MOL0     H98674   5.134  11.160   6.001 -1.3043 -0.5396  1.4039
  731MOL0     H98675   5.017  11.433   5.916  0.1617  0.7956 -0.2995
  731MOL0     H98676   4.942  11.282   5.896 -1.3814  2.6085 -2.4259
  731MOL0     H98677   5.181  11.403   5.761 -1.3203  1.9207  1.6658
  731MOL0     H98678   5.022  11.354   5.687 -2.8003 -3.0279  2.4758
  731MOL0     H98679   5.226  11.199   5.619 -1.0911  1.9973 -0.4525
  731MOL0     H98680   5.214  11.135   5.783  0.8799  0.3839  0.1102
  731MOL0     H98681   4.853  10.971   5.675 -0.3630 -0.3581 -3.3552
  731MOL0     H98682   5.250  11.108   6.182 -0.0240  1.0015 -1.8146
  731MOL0     H98683   5.335  11.093   6.491 -1.3214 -0.0144  0.0753
  731MOL0     H98684   5.288  10.988   6.364  2.3720 -0.6711 -1.9600
  731MOL0     H98685   5.451  10.965   6.424  2.1688  1.5966 -2.4920
  732MOL0     O98686   9.602   0.421   4.043 -0.1335 -0.1315  0.7890
  732MOL0     C98687   9.695   0.491   4.085  0.2881 -0.2989  0.2842
  732MOL0     O98688   9.821   0.483   4.047 -0.1530  0.6620  0.0059
  732MOL0     C98689   9.872   0.379   3.973  0.8535 -0.1616  0.1339
  732MOL0     C98690   9.978   0.297   4.009 -0.4748 -0.1532 -0.5673
  732MOL0     C98691  10.018   0.183   3.933  0.3844 -0.1242  0.2728
  732MOL0     C98692   9.952   0.165   3.808 -0.8764  0.4288 -0.1378
  732MOL0     O98693   9.993   0.063   3.718  0.4370 -0.4937  0.2350
  732MOL0     C98694  10.016  -0.065   3.772 -0.0839 -0.4735  0.5234
  732MOL0     C98695  10.105  -0.160   3.684 -1.3901 -0.6904  0.3036
  732MOL0     C98696  10.254  -0.124   3.702 -1.0148  0.8741  0.4871
  732MOL0     C98697  10.332  -0.166   3.577 -0.3086  0.4646 -0.6539
  732MOL0     C98698  10.475  -0.127   3.594  0.0355  0.8076 -0.0689
  732MOL0     C98699  10.552  -0.187   3.468  0.2001 -0.1343 -0.1625
  732MOL0     C98700  10.701  -0.152   3.497 -0.6763  0.0854 -0.0266
  732MOL0     C98701  10.794  -0.183   3.379 -0.1313 -0.1204 -0.2618
  732MOL0     N98702  10.829  -0.326   3.369  0.0626  0.4812 -0.4618
  732MOL0     C98703  10.827  -0.385   3.245 -0.9122 -0.9488  0.2148
  732MOL0     C98704  10.870  -0.518   3.271  0.0781  0.0263 -0.3931
  732MOL0     C98705  10.867  -0.633   3.174  0.6819 -0.1667  0.1580
  732MOL0     C98706  10.997  -0.635   3.093  0.3000 -0.5857 -0.6852
  732MOL0     C98707  11.011  -0.519   2.992 -0.3339 -0.2457 -0.3513
  732MOL0     C98708  11.131  -0.564   2.897  0.7904 -0.0671  0.5590
  732MOL0     O98709  11.162  -0.453   2.813 -0.1062 -0.3554 -0.4697
  732MOL0     C98710  11.291  -0.436   2.775 -0.2940 -0.0429 -0.4747
  732MOL0     C98711  11.331  -0.390   2.640  0.3934  0.3415 -0.7495
  732MOL0     C98712  11.467  -0.385   2.605  0.5308  0.8008 -0.1995
  732MOL0     C98713  11.570  -0.406   2.702  0.7348  0.5249  0.1056
  732MOL0     C98714  11.710  -0.375   2.680  0.4002  0.1213  0.2136
  732MOL0     O98715  11.745  -0.355   2.544  0.2829  0.5890 -0.0087
  732MOL0     C98716  11.868  -0.304   2.513 -0.2381  0.0495 -0.2384
  732MOL0     C98717  11.958  -0.366   2.420  0.0745  0.1632  0.5022
  732MOL0     C98718  12.088  -0.309   2.404 -0.3935 -0.3992  0.3300
  732MOL0     C98719  12.132  -0.209   2.487 -0.1144 -0.0788  0.3063
  732MOL0     O98720  12.265  -0.166   2.461 -0.2846  0.1447 -0.2228
  732MOL0     C98721  12.288  -0.028   2.477  0.0128 -0.2784  0.4452
  732MOL0     C98722  12.417   0.020   2.412 -0.1145 -0.4073  0.5597
  732MOL0     C98723  12.536  -0.010   2.496  0.6618  0.1781  0.0552
  732MOL0     C98724  12.662   0.038   2.437  0.5248 -0.5050 -0.0952
  732MOL0     C98725  12.776   0.026   2.544 -0.3791  0.2262  0.3603
  732MOL0     C98726  12.915   0.077   2.494 -0.3129 -0.4704 -0.8393
  732MOL0     C98727  13.011   0.054   2.605 -0.6942  0.2201 -0.1585
  732MOL0     C98728  13.151   0.124   2.558  0.0957  0.7752 -0.9789
  732MOL0    Cl98729  13.254   0.146   2.696 -0.0351 -0.4939 -0.0844
  732MOL0     C98730  12.038  -0.143   2.572 -0.4411 -0.4380  0.8659
  732MOL0     C98731  11.910  -0.191   2.587 -0.1191  0.2597 -0.3169
  732MOL0     O98732  11.788  -0.378   2.775  0.0064 -0.5838  0.1059
  732MOL0     C98733  11.532  -0.441   2.833  1.0009  0.1799  0.4334
  732MOL0     C98734  11.394  -0.457   2.867  0.3035  0.1457  0.1355
  732MOL0     N98735  10.911  -0.531   3.401 -0.2668  0.2362  0.0400
  732MOL0     N98736  10.886  -0.416   3.457 -0.4452  0.3751 -0.2468
  732MOL0     C98737   9.867   0.252   3.765  0.2504 -0.6101  0.7937
  732MOL0     C98738   9.822   0.362   3.841  0.2971  0.5198 -0.2135
  732MOL0     C98739   9.674   0.590   4.188 -0.2712  0.5425  0.0852
  732MOL0     C98740   9.792   0.639   4.263 -0.0998 -0.7684  1.0865
  732MOL0     C98741   9.776   0.738   4.357 -0.3467  0.6544  0.2707
  732MOL0     C98742   9.641   0.780   4.393 -0.9085  0.3216 -0.2509
  732MOL0     O98743   9.633   0.867   4.499  0.2569  0.7403  0.5130
  732MOL0     C98744   9.510   0.935   4.536 -0.2989 -0.1696 -0.0610
  732MOL0     C98745   9.416   0.862   4.621 -0.0098 -0.0976 -0.6890
  732MOL0     C98746   9.314   0.951   4.677 -0.5800  0.3225  0.1605
  732MOL0     C98747   9.200   0.886   4.760 -0.3991  0.3690 -0.7892
  732MOL0     C98748   9.115   0.986   4.832 -0.1959  0.0304 -0.0921
  732MOL0     C98749   9.026   1.058   4.863  0.2943  0.0930 -0.0774
  732MOL0     C98750   9.532   0.726   4.322  0.5973 -0.2803 -0.9017
  732MOL0     C98751   9.540   0.637   4.222 -0.1011 -0.3875 -0.9350
  732MOL0     C98752   9.408   0.579   4.174  0.7333  0.4200  0.3753
  732MOL0     H98753  10.033   0.332   4.096 -0.4177 -1.9859  0.1944
  732MOL0     H98754  10.096   0.121   3.974  0.5657 -1.6246 -2.1826
  732MOL0     H98755  10.067  -0.057   3.869 -1.2074  1.0084  1.0277
  732MOL0     H98756   9.919  -0.113   3.789  0.4668 -2.0623 -0.6308
  732MOL0     H98757  10.075  -0.155   3.579  2.4560  2.6708 -0.8988
  732MOL0     H98758  10.101  -0.263   3.720  1.6204 -1.1243 -0.3609
  732MOL0     H98759  10.288  -0.154   3.802 -0.2325  3.6683  1.1563
  732MOL0     H98760  10.264  -0.015   3.705 -0.8996  0.8528  1.1808
  732MOL0     H98761  10.322  -0.274   3.562  2.7958 -0.1184  0.7455
  732MOL0     H98762  10.299  -0.115   3.486  1.0908  0.9688 -0.9043
  732MOL0     H98763  10.479  -0.018   3.597  0.4738  0.7723  2.3329
  732MOL0     H98764  10.498  -0.174   3.690 -2.5278  3.0514  1.7772
  732MOL0     H98765  10.542  -0.296   3.454  3.4388 -0.5900  0.3730
  732MOL0     H98766  10.520  -0.138   3.375 -1.7680  1.5654  1.3196
  732MOL0     H98767  10.733  -0.208   3.585 -0.0071  1.6660  0.7573
  732MOL0     H98768  10.706  -0.046   3.521 -1.1718 -0.3233  2.0797
  732MOL0     H98769  10.741  -0.150   3.289 -0.7812  0.6426  0.3825
  732MOL0     H98770  10.885  -0.123   3.388  1.1896 -1.9619 -0.7739
  732MOL0     H98771  10.798  -0.345   3.148  0.2864 -0.8737 -0.1333
  732MOL0     H98772  10.843  -0.724   3.230 -1.6416  0.1126 -0.3163
  732MOL0     H98773  10.785  -0.626   3.102  0.0261 -0.3674  0.8715
  732MOL0     H98774  11.088  -0.642   3.153 -1.3830 -1.5050  1.9319
  732MOL0     H98775  10.992  -0.721   3.026  4.0497  0.7064 -2.9420
  732MOL0     H98776  11.028  -0.430   3.053 -0.4922 -1.0251  0.8660
  732MOL0     H98777  10.917  -0.499   2.938 -0.5410  0.7016  0.3516
  732MOL0     H98778  11.099  -0.641   2.827 -0.4365 -2.0512  3.1416
  732MOL0     H98779  11.205  -0.610   2.962 -0.8791 -2.9461  0.5524
  732MOL0     H98780  11.248  -0.374   2.572 -1.1055  0.7346  1.0961
  732MOL0     H98781  11.503  -0.356   2.507  1.5663  3.1699  0.8073
  732MOL0     H98782  11.926  -0.450   2.359  1.6364 -1.3261  1.6651
  732MOL0     H98783  12.149  -0.335   2.318 -1.5212 -2.4128  0.0638
  732MOL0     H98784  12.209   0.029   2.427  0.1419  1.6187  2.2747
  732MOL0     H98785  12.278   0.011   2.579  0.2497 -0.8381  0.6859
  732MOL0     H98786  12.432  -0.039   2.321  1.4114 -0.0026  0.5225
  732MOL0     H98787  12.399   0.126   2.395 -0.2844  0.3360  4.4256
  732MOL0     H98788  12.527   0.029   2.597  0.6086 -0.5614  0.3475
  732MOL0     H98789  12.550  -0.119   2.501 -0.8657 -0.0546 -0.2830
  732MOL0     H98790  12.653   0.140   2.400  0.5259 -0.8428 -1.0372
  732MOL0     H98791  12.689  -0.019   2.348  0.6232 -0.5831 -0.0172
  732MOL0     H98792  12.790  -0.080   2.568  0.5240  0.4085  0.6811
  732MOL0     H98793  12.734   0.087   2.624  2.2252  0.0439  1.9682
  732MOL0     H98794  12.941   0.030   2.399  1.6572  2.6622 -2.0077
  732MOL0     H98795  12.914   0.186   2.484 -2.3692 -0.2571  0.9558
  732MOL0     H98796  13.018  -0.052   2.629 -3.9303 -0.5299 -1.8677
  732MOL0     H98797  12.976   0.113   2.690  0.0669  1.7278 -0.8565
  732MOL0     H98798  13.203   0.062   2.484  1.2843  1.6747 -0.9271
  732MOL0     H98799  13.125   0.224   2.520 -0.5280  1.4080  1.0224
  732MOL0     H98800  12.064  -0.055   2.630  1.8901 -0.3571 -0.2138
  732MOL0     H98801  11.847  -0.148   2.664  0.7266  0.0849  0.4988
  732MOL0     H98802  11.599  -0.461   2.916  3.6845  3.4745 -0.6847
  732MOL0     H98803  11.374  -0.462   2.974  0.3111  1.6733  0.2243
  732MOL0     H98804   9.825   0.244   3.666 -0.8536 -1.0147  1.2735
  732MOL0     H98805   9.740   0.410   3.789 -1.5215 -0.3730  1.6981
  732MOL0     H98806   9.892   0.603   4.236 -0.2252 -0.2827 -0.0910
  732MOL0     H98807   9.866   0.784   4.399  0.5069 -0.1505 -0.6224
  732MOL0     H98808   9.457   0.967   4.446  1.1380 -0.2388 -0.9562
  732MOL0     H98809   9.546   1.019   4.597  4.0206 -0.4395 -1.8956
  732MOL0     H98810   9.465   0.826   4.711 -1.8390  0.3358  0.5236
  732MOL0     H98811   9.375   0.776   4.568 -0.2327 -0.1008 -0.5071
  732MOL0     H98812   9.269   1.015   4.601  0.3691  2.5305  1.3550
  732MOL0     H98813   9.374   1.007   4.751  1.6726 -0.6119 -0.8610
  732MOL0     H98814   9.139   0.825   4.693 -2.3527  0.5173  0.7847
  732MOL0     H98815   9.243   0.815   4.831  1.0235 -1.0952 -3.0003
  732MOL0     H98816   8.938   1.104   4.903 -1.7957 -2.5236 -1.3398
  732MOL0     H98817   9.431   0.752   4.353 -0.0501 -0.6284 -2.5891
  732MOL0     H98818   9.311   0.618   4.207 -1.4817 -0.7881 -3.9878
  732MOL0     H98819   9.399   0.593   4.066 -2.5865  0.5278  0.5759
  732MOL0     H98820   9.416   0.473   4.198  2.1815  0.7748  1.6725
  733MOL0     O98821   7.076   5.386   3.878 -0.3047 -0.5487 -0.0070
  733MOL0     C98822   7.164   5.413   3.959  0.2460  0.5251 -0.7793
  733MOL0     O98823   7.293   5.417   3.928  0.6497  0.1182 -0.4345
  733MOL0     C98824   7.334   5.405   3.795 -0.0384  0.4714 -0.3837
  733MOL0     C98825   7.454   5.327   3.789 -1.1128 -0.0648  0.6329
  733MOL0     C98826   7.525   5.314   3.665 -0.3165 -0.2853 -0.6354
  733MOL0     C98827   7.470   5.365   3.545 -0.6003  0.1332 -0.4607
  733MOL0     O98828   7.533   5.358   3.426  0.3847  0.7428  0.0865
  733MOL0     C98829   7.656   5.286   3.405  0.6894 -0.3177  0.6927
  733MOL0     C98830   7.695   5.308   3.257 -0.9481  0.0072 -0.6204
  733MOL0     C98831   7.835   5.256   3.239 -0.2786 -0.4066 -0.2770
  733MOL0     C98832   7.895   5.265   3.092 -0.3912 -0.8166  0.6318
  733MOL0     C98833   8.039   5.205   3.098  0.3988  0.6128  0.0704
  733MOL0     C98834   8.145   5.276   3.165  0.6647 -0.1278 -0.0125
  733MOL0     C98835   8.142   5.426   3.150  0.0117 -0.1077  0.5631
  733MOL0     C98836   8.245   5.505   3.220  0.2993 -0.3180  0.3208
  733MOL0     N98837   8.250   5.648   3.184  0.5184  0.2456  0.5160
  733MOL0     C98838   8.149   5.734   3.139  0.1741  0.3467  0.3517
  733MOL0     C98839   8.200   5.859   3.140 -0.2661  0.3581 -0.2377
  733MOL0     C98840   8.143   5.990   3.103  0.3706  0.0336  0.6503
  733MOL0     C98841   8.052   6.061   3.200 -0.1426 -0.2507 -0.6543
  733MOL0     C98842   7.995   6.199   3.147 -0.1950  0.4252  0.1306
  733MOL0     C98843   8.086   6.321   3.135 -0.4600 -1.2188  0.8023
  733MOL0     O98844   8.116   6.373   3.265 -0.2568 -0.0203  0.0864
  733MOL0     C98845   8.227   6.450   3.272 -0.1674  0.6513  0.4239
  733MOL0     C98846   8.279   6.535   3.175  0.4597 -0.0346 -0.3203
  733MOL0     C98847   8.405   6.608   3.193  0.2197 -0.7177 -0.5467
  733MOL0     C98848   8.476   6.586   3.318 -0.5242  0.0188  0.3808
  733MOL0     C98849   8.597   6.662   3.338 -0.1668  0.8961  0.9085
  733MOL0     O98850   8.686   6.594   3.414 -0.4944  0.3299  0.4373
  733MOL0     C98851   8.815   6.646   3.432  0.7543 -0.3892  0.0527
  733MOL0     C98852   8.887   6.713   3.331 -0.0289  0.2326 -0.1851
  733MOL0     C98853   9.012   6.760   3.354  0.3655 -0.2824 -0.4437
  733MOL0     C98854   9.075   6.751   3.478 -0.3784  0.1078 -0.5703
  733MOL0     O98855   9.197   6.803   3.504  0.2556 -0.2237  0.8767
  733MOL0     C98856   9.250   6.891   3.405 -0.1557  0.3111  0.4217
  733MOL0     C98857   9.386   6.945   3.453 -0.5124 -0.4653 -0.0243
  733MOL0     C98858   9.378   7.079   3.533 -0.1734 -0.5121 -0.3586
  733MOL0     C98859   9.516   7.111   3.586 -0.1892 -0.1322  0.0331
  733MOL0     C98860   9.516   7.257   3.648  0.2713 -0.0175  0.7488
  733MOL0     C98861   9.648   7.294   3.715 -0.3093 -0.1217 -0.0239
  733MOL0     C98862   9.762   7.315   3.619  0.4647 -0.4378 -0.0298
  733MOL0     C98863   9.906   7.332   3.682 -0.0580  0.4054  0.3426
  733MOL0    Cl98864  10.031   7.309   3.563  0.3083 -0.2263  0.0756
  733MOL0     C98865   9.003   6.690   3.587 -0.6418  0.2786 -1.3044
  733MOL0     C98866   8.881   6.631   3.558  0.7996  0.3341 -0.1926
  733MOL0     O98867   8.607   6.774   3.300 -0.0558 -0.8096 -0.1215
  733MOL0     C98868   8.430   6.491   3.410  0.1655  0.4564 -0.0957
  733MOL0     C98869   8.305   6.432   3.389 -0.6778 -0.0819 -0.1978
  733MOL0     N98870   8.335   5.845   3.180  0.3258 -0.0430  0.1067
  733MOL0     N98871   8.365   5.724   3.205 -0.1057  0.2082 -0.2590
  733MOL0     C98872   7.350   5.440   3.560  0.1256 -0.0465 -0.3671
  733MOL0     C98873   7.282   5.457   3.680  0.0893  0.5064  0.1872
  733MOL0     C98874   7.123   5.468   4.092 -1.1382 -0.8037  0.3385
  733MOL0     C98875   6.984   5.468   4.129 -0.4672 -0.3114  0.0276
  733MOL0     C98876   6.932   5.548   4.235  0.1710  0.5833 -0.0922
  733MOL0     C98877   7.019   5.626   4.319 -0.6341 -0.7306  0.0931
  733MOL0     O98878   6.975   5.715   4.417  0.3833 -0.1118 -0.8997
  733MOL0     C98879   6.831   5.734   4.435 -0.4360 -1.3509  0.4682
  733MOL0     C98880   6.800   5.816   4.557 -0.5874 -0.6223 -0.7043
  733MOL0     C98881   6.661   5.895   4.545 -0.0714  1.1740 -0.6410
  733MOL0     C98882   6.547   5.812   4.517  0.2487 -0.0929  0.4104
  733MOL0     C98883   6.428   5.895   4.519  0.0096 -0.7809 -0.6760
  733MOL0     C98884   6.327   5.957   4.540 -1.0667  0.2332  0.0822
  733MOL0     C98885   7.153   5.608   4.292 -0.2056 -0.1793 -0.1961
  733MOL0     C98886   7.206   5.544   4.178 -0.6597 -0.2522 -0.2848
  733MOL0     C98887   7.355   5.566   4.164 -0.3688 -0.0780  0.6854
  733MOL0     H98888   7.490   5.286   3.883  2.0733  3.2758  1.0681
  733MOL0     H98889   7.613   5.251   3.671  0.2615  0.1846 -3.1537
  733MOL0     H98890   7.723   5.326   3.481 -1.0407  2.3125  0.9693
  733MOL0     H98891   7.649   5.179   3.426 -1.0644 -0.9136 -2.2269
  733MOL0     H98892   7.698   5.417   3.241  2.7478  0.1853  0.2096
  733MOL0     H98893   7.637   5.257   3.180 -2.3956  1.4466 -0.5413
  733MOL0     H98894   7.825   5.149   3.259  0.5619 -0.2920  0.8447
  733MOL0     H98895   7.910   5.299   3.306 -1.3248  1.0704 -0.0080
  733MOL0     H98896   7.825   5.213   3.025 -0.4479 -1.1351  0.9327
  733MOL0     H98897   7.893   5.370   3.062  0.6178 -0.5326  1.5332
  733MOL0     H98898   8.039   5.104   3.140  1.7451  1.2157  1.6376
  733MOL0     H98899   8.063   5.211   2.991  0.4315  1.4602  0.1159
  733MOL0     H98900   8.138   5.248   3.271 -1.6134 -0.9076 -0.3043
  733MOL0     H98901   8.243   5.237   3.137 -0.3508 -1.1022 -2.4991
  733MOL0     H98902   8.042   5.463   3.178 -0.9420 -1.1269 -1.2903
  733MOL0     H98903   8.150   5.447   3.043 -2.6628 -0.6305  0.1709
  733MOL0     H98904   8.233   5.489   3.327 -1.2893  0.9430  0.3810
  733MOL0     H98905   8.343   5.462   3.198 -0.0024 -1.2157  0.7291
  733MOL0     H98906   8.047   5.708   3.112  1.0366 -1.5235 -1.3875
  733MOL0     H98907   8.226   6.055   3.074 -0.4500  0.3964 -0.9620
  733MOL0     H98908   8.087   5.975   3.011 -0.6155 -0.8949  1.3793
  733MOL0     H98909   7.960   6.006   3.224 -1.2318  1.2787 -1.1607
  733MOL0     H98910   8.106   6.072   3.295  0.2905  2.5369 -1.1311
  733MOL0     H98911   7.913   6.224   3.215 -0.7478 -1.6296  0.2881
  733MOL0     H98912   7.969   6.182   3.042 -0.1405 -1.3867  0.3797
  733MOL0     H98913   8.029   6.401   3.086  2.6519  0.2975 -0.6389
  733MOL0     H98914   8.178   6.301   3.080 -0.6832 -0.9095  0.3114
  733MOL0     H98915   8.209   6.555   3.095  0.9409  2.8923 -0.1325
  733MOL0     H98916   8.437   6.682   3.121  1.6916 -2.1425 -1.4576
  733MOL0     H98917   8.838   6.733   3.237 -0.8457  2.4341  0.6506
  733MOL0     H98918   9.058   6.813   3.271  2.3665  2.2810  2.0983
  733MOL0     H98919   9.266   6.827   3.317 -1.5597 -3.8654  2.8905
  733MOL0     H98920   9.184   6.972   3.375 -1.8682 -0.8160  1.0156
  733MOL0     H98921   9.427   6.874   3.526  1.8836 -0.5021 -1.2890
  733MOL0     H98922   9.461   6.956   3.374  1.6276 -0.5216  1.9074
  733MOL0     H98923   9.336   7.159   3.471  0.4616  0.3391  0.2891
  733MOL0     H98924   9.321   7.084   3.626  0.6809  0.1839  0.1437
  733MOL0     H98925   9.588   7.092   3.505 -1.8968 -4.1998 -0.7696
  733MOL0     H98926   9.545   7.040   3.663 -0.5898  0.2378  0.5352
  733MOL0     H98927   9.425   7.272   3.708 -0.3212  1.0445 -0.3727
  733MOL0     H98928   9.506   7.332   3.569 -0.5564  2.0274  2.6725
  733MOL0     H98929   9.634   7.383   3.777  0.5241 -1.3242  2.0230
  733MOL0     H98930   9.673   7.209   3.781  1.7797  2.1178  2.3061
  733MOL0     H98931   9.751   7.400   3.551  0.6154  0.3244  0.8596
  733MOL0     H98932   9.775   7.227   3.556  2.7033  1.1444 -1.9512
  733MOL0     H98933   9.924   7.428   3.732 -0.6327  0.4608  0.4572
  733MOL0     H98934   9.925   7.255   3.758 -1.3531 -1.7165 -1.3517
  733MOL0     H98935   9.040   6.691   3.688  0.3615  0.2487 -1.6665
  733MOL0     H98936   8.815   6.577   3.625  0.3560 -0.7824 -1.4783
  733MOL0     H98937   8.485   6.466   3.499 -1.9081 -2.4770  0.5226
  733MOL0     H98938   8.269   6.373   3.473 -0.0673 -0.1877 -0.0092
  733MOL0     H98939   7.316   5.478   3.465  2.5631 -0.6504 -1.5601
  733MOL0     H98940   7.189   5.514   3.679 -1.5031 -1.9670 -1.3941
  733MOL0     H98941   6.921   5.411   4.062  0.2457  1.4555 -2.2680
  733MOL0     H98942   6.824   5.548   4.245  0.2867  2.2333  1.9959
  733MOL0     H98943   6.776   5.643   4.462  0.8222 -1.5964  2.3043
  733MOL0     H98944   6.790   5.780   4.344  2.6692 -2.4707 -1.6925
  733MOL0     H98945   6.882   5.888   4.563 -0.0153 -1.2464 -0.7957
  733MOL0     H98946   6.816   5.765   4.653  0.2150  1.4702  0.3491
  733MOL0     H98947   6.672   5.972   4.468  0.9005  0.7189 -0.9697
  733MOL0     H98948   6.642   5.952   4.637 -2.7333  1.2982 -1.2063
  733MOL0     H98949   6.550   5.759   4.421 -1.0704 -0.7101  0.6921
  733MOL0     H98950   6.544   5.730   4.589 -0.5568  0.6778  1.2896
  733MOL0     H98951   6.243   6.003   4.587 -0.8069 -1.3348  2.2268
  733MOL0     H98952   7.220   5.672   4.350 -1.2780  1.6651 -0.9234
  733MOL0     H98953   7.394   5.581   4.063 -1.0282  1.7083  0.6614
  733MOL0     H98954   7.393   5.645   4.228 -0.5281 -0.2422  0.9823
  733MOL0     H98955   7.400   5.471   4.193  0.6564 -0.0079 -0.5640
  734MOL0     O98956   1.557   6.624   3.255 -0.0975  0.5232  0.0649
  734MOL0     C98957   1.537   6.668   3.367 -0.6893  0.3580 -0.2270
  734MOL0     O98958   1.629   6.728   3.452  0.1117 -0.4350 -0.2058
  734MOL0     C98959   1.760   6.694   3.426  0.1149  0.5364  0.4802
  734MOL0     C98960   1.839   6.634   3.522  0.9079 -0.0261  0.3581
  734MOL0     C98961   1.971   6.604   3.492 -0.5456  0.3363  0.6152
  734MOL0     C98962   2.032   6.642   3.367 -0.3671  0.0288 -0.8899
  734MOL0     O98963   2.162   6.640   3.332  0.4367  0.1801 -0.7249
  734MOL0     C98964   2.242   6.553   3.402 -0.2380  0.5708 -0.3804
  734MOL0     C98965   2.387   6.552   3.355  0.2451  0.2286  0.2459
  734MOL0     C98966   2.407   6.576   3.206 -0.2118  0.5794  0.2494
  734MOL0     C98967   2.376   6.442   3.136 -0.8807 -1.2829  0.1972
  734MOL0     C98968   2.369   6.462   2.986 -0.6275  0.6532 -0.6352
  734MOL0     C98969   2.501   6.485   2.914  0.1301 -0.3395 -0.1569
  734MOL0     C98970   2.491   6.496   2.764 -0.7856  0.5550 -0.3445
  734MOL0     C98971   2.385   6.586   2.706  0.0658  0.3300 -0.0304
  734MOL0     N98972   2.399   6.718   2.765 -0.3134  0.1326  0.0522
  734MOL0     C98973   2.512   6.797   2.752  0.2112  0.3331  0.5135
  734MOL0     C98974   2.503   6.895   2.843  0.0205 -0.1002 -0.3216
  734MOL0     C98975   2.603   7.014   2.858  1.0101  0.4519 -0.1949
  734MOL0     C98976   2.736   6.971   2.902 -0.4697  0.6852  0.0961
  734MOL0     C98977   2.738   6.896   3.030  0.3963  0.4096  0.0313
  734MOL0     C98978   2.870   6.817   3.046 -0.0253 -0.8186 -0.4457
  734MOL0     O98979   2.854   6.697   3.124  0.6563  0.3898  0.3763
  734MOL0     C98980   2.845   6.569   3.074 -0.2474 -0.5276  0.3020
  734MOL0     C98981   2.803   6.473   3.165  0.1915 -0.0263  0.7762
  734MOL0     C98982   2.802   6.336   3.131  0.1720 -0.4733 -0.3730
  734MOL0     C98983   2.836   6.303   3.000 -0.6180  0.7489  0.5007
  734MOL0     C98984   2.826   6.160   2.966  0.4821 -0.6023  0.3929
  734MOL0     O98985   2.791   6.071   3.066 -0.6232  0.4658  0.9289
  734MOL0     C98986   2.809   5.932   3.041  0.2170  1.1440 -0.6122
  734MOL0     C98987   2.700   5.851   3.052 -0.3929  0.3903 -0.0768
  734MOL0     C98988   2.708   5.711   3.046  0.3693 -0.3314 -1.4790
  734MOL0     C98989   2.828   5.649   3.022  0.3188 -0.9404  0.1337
  734MOL0     O98990   2.847   5.520   2.997 -0.4902  0.4922 -0.3804
  734MOL0     C98991   2.743   5.431   3.053 -0.1161 -0.0760  0.9148
  734MOL0     C98992   2.787   5.292   3.021  0.7074 -0.7831 -0.5031
  734MOL0     C98993   2.812   5.265   2.872 -0.8066  0.0759 -0.5003
  734MOL0     C98994   2.873   5.126   2.850  0.4216  0.2127  0.5592
  734MOL0     C98995   2.944   5.121   2.710  0.2516  0.0157 -0.1418
  734MOL0     C98996   3.036   4.995   2.693  0.3989  0.4527 -0.6950
  734MOL0     C98997   3.103   5.009   2.560 -0.1787  0.9699  0.6450
  734MOL0     C98998   3.253   5.021   2.580  0.2635 -0.6238  0.3552
  734MOL0    Cl98999   3.286   5.190   2.620  0.3100 -0.2044  0.2433
  734MOL0     C99000   2.942   5.736   3.000 -0.1809  0.7868 -0.0555
  734MOL0     C99001   2.934   5.871   3.005  0.9442  0.1320 -0.7978
  734MOL0     O99002   2.855   6.129   2.851 -0.3129  0.5315 -0.1422
  734MOL0     C99003   2.868   6.400   2.907  0.2124  0.9423 -0.6746
  734MOL0     C99004   2.874   6.527   2.946  0.7385  0.4099 -0.0922
  734MOL0     N99005   2.397   6.865   2.920  0.2933 -0.2150  0.1418
  734MOL0     N99006   2.327   6.771   2.863 -0.2624  0.0227  0.0754
  734MOL0     C99007   1.953   6.712   3.286 -0.0905 -0.3059 -0.4877
  734MOL0     C99008   1.819   6.737   3.310 -0.8388 -0.0462  0.7338
  734MOL0     C99009   1.391   6.660   3.417  0.1526 -0.0399  0.0207
  734MOL0     C99010   1.292   6.633   3.316  0.0745 -0.5080 -0.4077
  734MOL0     C99011   1.160   6.604   3.359  0.6799 -0.5339  0.3638
  734MOL0     C99012   1.122   6.599   3.493 -0.5974  0.5788  0.1796
  734MOL0     O99013   1.001   6.567   3.540 -0.0668 -0.6119  0.4932
  734MOL0     C99014   0.893   6.528   3.452 -0.1493 -0.4122  0.4506
  734MOL0     C99015   0.762   6.533   3.529  0.7790 -0.4682 -0.0460
  734MOL0     C99016   0.757   6.454   3.656  0.1216 -0.9681 -0.1189
  734MOL0     C99017   0.615   6.434   3.711  0.4836  0.3399 -0.6346
  734MOL0     C99018   0.611   6.435   3.857  0.5580  0.0409 -0.0794
  734MOL0     C99019   0.605   6.422   3.976  0.0440  1.0149  0.1537
  734MOL0     C99020   1.216   6.633   3.588 -1.1122  0.2049  0.3114
  734MOL0     C99021   1.351   6.666   3.553  0.9191 -0.1572  0.5936
  734MOL0     C99022   1.434   6.695   3.669 -0.4026 -0.2464 -0.6211
  734MOL0     H99023   1.798   6.621   3.622  0.6914  0.9413  0.4116
  734MOL0     H99024   2.035   6.547   3.559  0.4280  0.4135 -0.2271
  734MOL0     H99025   2.237   6.573   3.510  0.6909  2.3774 -0.6461
  734MOL0     H99026   2.217   6.447   3.395  3.0651 -0.8060  3.8843
  734MOL0     H99027   2.438   6.462   3.391 -0.3594 -0.8911 -1.5439
  734MOL0     H99028   2.438   6.636   3.403  0.1324  0.5061 -0.1154
  734MOL0     H99029   2.512   6.596   3.184 -0.5129  3.0184  0.8193
  734MOL0     H99030   2.353   6.655   3.154  1.4503  1.5507 -0.0766
  734MOL0     H99031   2.454   6.373   3.167 -2.3503 -2.4137  1.5441
  734MOL0     H99032   2.280   6.406   3.176 -2.4368  1.3980 -0.8201
  734MOL0     H99033   2.335   6.365   2.946  2.1584 -0.5520 -0.2811
  734MOL0     H99034   2.290   6.537   2.974 -2.9747 -1.5764 -0.0481
  734MOL0     H99035   2.550   6.574   2.953  0.4957 -0.3098 -0.6757
  734MOL0     H99036   2.552   6.391   2.937 -0.9371  0.0590  5.1591
  734MOL0     H99037   2.470   6.397   2.724 -0.3858  0.1981  0.3161
  734MOL0     H99038   2.586   6.531   2.723 -0.1171 -1.6877 -0.8455
  734MOL0     H99039   2.405   6.596   2.599 -1.2943  2.1285 -0.1687
  734MOL0     H99040   2.282   6.548   2.708  0.1378 -0.3746 -3.3668
  734MOL0     H99041   2.576   6.793   2.665  1.0665 -1.0619  1.1632
  734MOL0     H99042   2.607   7.067   2.762 -1.0228  0.5818 -0.2433
  734MOL0     H99043   2.560   7.086   2.929  1.3072  1.2302 -0.7824
  734MOL0     H99044   2.779   6.911   2.821  0.2812  0.6010  0.5524
  734MOL0     H99045   2.794   7.063   2.915 -0.3411  0.3295  2.3809
  734MOL0     H99046   2.647   6.839   3.052 -0.3676  1.8595  0.7370
  734MOL0     H99047   2.737   6.972   3.109 -2.5561 -0.4993  1.0169
  734MOL0     H99048   2.943   6.876   3.102 -0.9763  0.7892 -0.8202
  734MOL0     H99049   2.914   6.785   2.951 -3.9691 -5.4752 -1.0678
  734MOL0     H99050   2.773   6.503   3.265 -1.2229  0.1183  0.3311
  734MOL0     H99051   2.776   6.263   3.208 -0.6374  2.0151  1.8448
  734MOL0     H99052   2.604   5.890   3.085 -0.0672  1.9361 -0.8963
  734MOL0     H99053   2.619   5.649   3.054 -2.3365  3.4313  0.6327
  734MOL0     H99054   2.731   5.442   3.162  1.1459  0.8789  0.9854
  734MOL0     H99055   2.643   5.456   3.016 -0.9311 -0.2198  2.8888
  734MOL0     H99056   2.879   5.280   3.080  2.4095  1.8555 -2.4114
  734MOL0     H99057   2.709   5.225   3.059 -0.8129  1.3148  0.2997
  734MOL0     H99058   2.719   5.283   2.817 -0.8158 -0.1987 -0.5773
  734MOL0     H99059   2.887   5.336   2.835 -1.8953  0.2955 -2.4047
  734MOL0     H99060   2.794   5.051   2.863 -2.5247  3.0084  0.1716
  734MOL0     H99061   2.950   5.118   2.927  1.1181  2.2964  0.1604
  734MOL0     H99062   2.998   5.213   2.682  1.7816 -0.6352  0.5455
  734MOL0     H99063   2.868   5.113   2.632 -0.4449  0.4554  0.4870
  734MOL0     H99064   3.107   4.976   2.774  0.3834 -0.4838 -0.8895
  734MOL0     H99065   2.976   4.903   2.695  2.4640 -1.0018  2.6582
  734MOL0     H99066   3.069   5.094   2.499  0.3236  1.1004  0.5455
  734MOL0     H99067   3.085   4.913   2.511 -0.7035  1.6439 -0.5458
  734MOL0     H99068   3.286   4.953   2.659  2.2880  2.8256  2.7531
  734MOL0     H99069   3.301   4.992   2.486 -3.2866  0.9239 -2.1335
  734MOL0     H99070   3.034   5.683   2.976 -0.9447 -0.2220 -0.8755
  734MOL0     H99071   3.023   5.928   2.981  1.2764 -0.7063 -1.6113
  734MOL0     H99072   2.896   6.360   2.811  2.5776 -1.8240  0.9987
  734MOL0     H99073   2.896   6.601   2.870  2.7689  1.3195  1.3047
  734MOL0     H99074   1.994   6.758   3.196 -1.0301  0.2814 -0.6271
  734MOL0     H99075   1.766   6.803   3.243  1.4445  1.0201 -0.1003
  734MOL0     H99076   1.308   6.631   3.208 -0.9796 -1.5524 -0.5730
  734MOL0     H99077   1.088   6.578   3.282 -1.6510 -1.5366  2.7006
  734MOL0     H99078   0.916   6.430   3.408 -0.4963 -0.2513 -0.1035
  734MOL0     H99079   0.884   6.595   3.366  0.5931  1.0132  1.4377
  734MOL0     H99080   0.692   6.490   3.457 -0.2031 -1.9360  1.7066
  734MOL0     H99081   0.731   6.634   3.557  1.4871 -1.1526  3.7312
  734MOL0     H99082   0.819   6.519   3.718 -2.1675  3.1782 -1.7463
  734MOL0     H99083   0.802   6.358   3.631  1.4968 -0.4606  0.3302
  734MOL0     H99084   0.551   6.509   3.663 -1.8111 -2.7403 -2.7747
  734MOL0     H99085   0.570   6.342   3.671  1.4710 -0.5854  0.3431
  734MOL0     H99086   0.589   6.407   4.081  0.6393 -1.0160 -0.0024
  734MOL0     H99087   1.205   6.624   3.695  0.1106 -0.6343  0.4034
  734MOL0     H99088   1.378   6.703   3.762  0.0563 -0.1616 -0.3509
  734MOL0     H99089   1.507   6.614   3.674  1.2387  1.2587  1.5602
  734MOL0     H99090   1.477   6.795   3.663 -0.9773  0.0722  0.3755
  735MOL0     O99091   9.641   4.103   6.430  0.0768 -0.5456  0.4664
  735MOL0     C99092   9.570   4.123   6.522  1.0463 -0.2011 -0.7616
  735MOL0     O99093   9.614   4.169   6.643  0.0928  0.2797 -0.0334
  735MOL0     C99094   9.750   4.180   6.665 -0.4983 -1.1209  0.4901
  735MOL0     C99095   9.821   4.061   6.680 -0.0750  0.1308  0.3435
  735MOL0     C99096   9.956   4.071   6.712 -0.2516  0.5345 -0.8936
  735MOL0     C99097  10.014   4.193   6.741 -0.2060 -0.8148 -0.5293
  735MOL0     O99098  10.148   4.206   6.772  0.0653 -0.2504 -0.7929
  735MOL0     C99099  10.217   4.101   6.845 -0.0977  0.4483  0.2862
  735MOL0     C99100  10.362   4.081   6.798  0.7121  0.5103  0.0689
  735MOL0     C99101  10.422   4.219   6.790  0.5964 -0.7426 -0.8084
  735MOL0     C99102  10.569   4.198   6.750  0.5358  0.1430  0.2793
  735MOL0     C99103  10.673   4.297   6.786 -0.2984 -0.0132  0.2496
  735MOL0     C99104  10.656   4.327   6.936 -0.1219  0.0793 -0.1225
  735MOL0     C99105  10.782   4.401   6.992  0.4325  0.7026  0.0051
  735MOL0     C99106  10.770   4.395   7.144  0.0827 -0.0440 -0.0447
  735MOL0     N99107  10.887   4.457   7.201 -0.5684  1.1103 -0.2427
  735MOL0     C99108  10.919   4.591   7.200  0.1393  0.3307  0.2881
  735MOL0     C99109  11.051   4.602   7.240 -0.2273  0.5028  0.4656
  735MOL0     C99110  11.143   4.713   7.261 -0.0236  0.1596 -0.6913
  735MOL0     C99111  11.286   4.682   7.319  0.5376  0.3704 -0.2320
  735MOL0     C99112  11.367   4.813   7.323 -0.7878 -0.2791  0.5243
  735MOL0     C99113  11.520   4.797   7.318 -0.6958  0.6686  0.6459
  735MOL0     O99114  11.548   4.739   7.189 -0.5713  0.3814  0.1400
  735MOL0     C99115  11.682   4.720   7.162  1.1829  0.0638  0.7997
  735MOL0     C99116  11.787   4.771   7.232  0.2048  0.5987  0.2189
  735MOL0     C99117  11.920   4.752   7.185  0.2647  0.3319  0.8096
  735MOL0     C99118  11.945   4.674   7.070 -0.0118 -0.1244  0.0947
  735MOL0     C99119  12.083   4.655   7.023 -0.1753 -0.0541  0.4410
  735MOL0     O99120  12.177   4.733   7.083 -0.4131 -0.7739 -0.5298
  735MOL0     C99121  12.316   4.705   7.061  0.1644 -0.0081 -0.1839
  735MOL0     C99122  12.382   4.581   7.092  0.4189 -0.4149  0.7903
  735MOL0     C99123  12.513   4.563   7.052 -0.7633 -0.8891  0.5809
  735MOL0     C99124  12.580   4.658   6.979  0.4637 -0.0037 -0.2175
  735MOL0     O99125  12.714   4.630   6.938  0.2024  0.5048 -0.1838
  735MOL0     C99126  12.805   4.740   6.910 -0.2256  0.5298  0.4943
  735MOL0     C99127  12.948   4.689   6.907  0.5393  1.0190  0.7596
  735MOL0     C99128  12.995   4.618   7.033  0.0119  0.1289 -0.5912
  735MOL0     C99129  13.136   4.551   7.014 -0.2263  0.2619  0.1110
  735MOL0     C99130  13.181   4.475   7.143 -0.1991  0.6528  0.1368
  735MOL0     C99131  13.319   4.405   7.127 -0.3230 -0.5991  0.4611
  735MOL0     C99132  13.361   4.352   7.262  0.3344 -0.4200  0.1014
  735MOL0     C99133  13.464   4.245   7.241  0.1835 -0.1919  0.5968
  735MOL0    Cl99134  13.506   4.190   7.409  0.3436  0.4550  0.2492
  735MOL0     C99135  12.517   4.779   6.949 -0.1370 -0.5344 -0.6314
  735MOL0     C99136  12.385   4.799   6.987  0.0503 -0.8757 -0.5710
  735MOL0     O99137  12.113   4.570   6.938  0.8108  0.5936 -0.2688
  735MOL0     C99138  11.834   4.606   7.011  0.1657  0.0286  0.1170
  735MOL0     C99139  11.703   4.644   7.048 -0.9953 -0.1556  0.1335
  735MOL0     N99140  11.095   4.473   7.268  0.4597 -0.5073 -0.5629
  735MOL0     N99141  11.009   4.392   7.228  0.5531 -0.4910  0.4224
  735MOL0     C99142   9.942   4.312   6.733 -0.1782 -0.3938 -0.2628
  735MOL0     C99143   9.807   4.312   6.689  1.3688 -0.1209  0.0438
  735MOL0     C99144   9.426   4.100   6.502  1.0785  0.2496 -0.1566
  735MOL0     C99145   9.384   3.986   6.430 -0.3258  1.0709 -0.8908
  735MOL0     C99146   9.254   3.952   6.429  0.9692  0.1118  0.2875
  735MOL0     C99147   9.147   4.041   6.473 -0.4978  0.1213  0.5241
  735MOL0     O99148   9.009   4.023   6.472  0.1308 -0.1762  0.2097
  735MOL0     C99149   8.955   3.895   6.446  0.4168  1.2023  0.2427
  735MOL0     C99150   8.960   3.815   6.573 -0.6777 -0.3298 -0.2822
  735MOL0     C99151   8.932   3.890   6.705 -0.2956 -0.7636  0.6955
  735MOL0     C99152   8.983   3.810   6.835  0.4404 -0.3882 -0.1109
  735MOL0     C99153   8.933   3.675   6.840 -0.0739  0.2409  0.7521
  735MOL0     C99154   8.888   3.567   6.839  0.0308  0.6593 -0.2632
  735MOL0     C99155   9.194   4.166   6.521 -0.2869  0.2980  0.8545
  735MOL0     C99156   9.333   4.193   6.543  0.5825  0.3905 -0.5832
  735MOL0     C99157   9.368   4.325   6.605  0.4387 -0.3366 -0.7645
  735MOL0     H99158   9.776   3.963   6.669  1.8187 -0.8221  0.7258
  735MOL0     H99159  10.008   3.976   6.711 -2.1107 -0.5179 -1.4776
  735MOL0     H99160  10.221   4.127   6.951  1.6950  2.4395 -0.1926
  735MOL0     H99161  10.170   4.004   6.829 -0.1053  0.8729 -3.0633
  735MOL0     H99162  10.361   4.027   6.703  0.3703 -0.4588  0.6147
  735MOL0     H99163  10.413   4.009   6.863 -0.5430  0.5156  1.0957
  735MOL0     H99164  10.413   4.268   6.887  0.8910  0.3847 -1.3405
  735MOL0     H99165  10.375   4.287   6.718  4.5855  2.2814 -0.9061
  735MOL0     H99166  10.606   4.103   6.790  1.3843  0.4141  0.1526
  735MOL0     H99167  10.568   4.189   6.641  2.6510 -0.7399  0.2781
  735MOL0     H99168  10.771   4.251   6.773 -0.8196 -1.0615 -0.0773
  735MOL0     H99169  10.654   4.388   6.729  1.6514  0.5191  0.4120
  735MOL0     H99170  10.578   4.403   6.945 -0.2121 -0.1609  1.4018
  735MOL0     H99171  10.639   4.242   7.004  0.4746  0.7915  0.9491
  735MOL0     H99172  10.800   4.497   6.941  3.0973 -1.2934 -3.2149
  735MOL0     H99173  10.875   4.345   6.979 -0.1001 -0.1519 -0.1866
  735MOL0     H99174  10.681   4.450   7.176 -0.1367 -1.4009  1.8574
  735MOL0     H99175  10.751   4.294   7.180 -1.4496  0.8394  1.8231
  735MOL0     H99176  10.856   4.675   7.174  0.5628  0.5296 -0.1224
  735MOL0     H99177  11.159   4.743   7.157 -3.3200 -0.7903 -1.5977
  735MOL0     H99178  11.096   4.787   7.325 -0.6968 -0.5808 -0.3190
  735MOL0     H99179  11.277   4.635   7.418 -2.1564 -4.2008 -2.2944
  735MOL0     H99180  11.343   4.616   7.253  3.1276  2.3847 -0.1510
  735MOL0     H99181  11.333   4.869   7.411 -4.4759  1.3024 -1.6788
  735MOL0     H99182  11.334   4.872   7.238 -0.8498 -2.0518 -0.7434
  735MOL0     H99183  11.563   4.736   7.398  5.4795  1.4112 -1.5621
  735MOL0     H99184  11.575   4.891   7.330  1.5165 -0.3553 -0.9043
  735MOL0     H99185  11.776   4.856   7.299  2.5376  0.6114  0.6680
  735MOL0     H99186  12.005   4.796   7.236  2.2969 -1.4772 -0.7954
  735MOL0     H99187  12.329   4.506   7.149 -1.2515 -1.0062 -1.3858
  735MOL0     H99188  12.563   4.469   7.068  0.8187 -0.1381  0.2448
  735MOL0     H99189  12.783   4.791   6.816 -2.1569 -1.8562 -0.4794
  735MOL0     H99190  12.802   4.808   6.995  0.3340  0.8656  0.2506
  735MOL0     H99191  12.961   4.621   6.822 -0.3389  0.7586  0.8248
  735MOL0     H99192  13.010   4.778   6.894  0.2082  0.9918 -1.4776
  735MOL0     H99193  13.007   4.691   7.114  1.3609 -0.3161 -0.3698
  735MOL0     H99194  12.923   4.542   7.065  0.9034  0.3142  2.1461
  735MOL0     H99195  13.210   4.629   6.996 -0.1368 -0.7537 -5.6947
  735MOL0     H99196  13.142   4.490   6.924  3.4250  1.2169 -0.4322
  735MOL0     H99197  13.117   4.388   7.164  1.9174 -0.6574  1.5018
  735MOL0     H99198  13.186   4.542   7.229  0.5395 -0.4823  0.9986
  735MOL0     H99199  13.312   4.326   7.052  1.8199  1.0995 -1.6954
  735MOL0     H99200  13.392   4.475   7.085  1.7134 -3.0039 -0.2794
  735MOL0     H99201  13.273   4.316   7.315 -1.9746  2.9443 -1.1291
  735MOL0     H99202  13.397   4.440   7.318  1.1637 -2.2590  2.6516
  735MOL0     H99203  13.419   4.165   7.181 -2.6475  1.7268 -0.0080
  735MOL0     H99204  13.552   4.284   7.189  0.1291 -2.2258 -1.1636
  735MOL0     H99205  12.570   4.858   6.898  3.5450 -1.0510  2.0249
  735MOL0     H99206  12.327   4.888   6.969 -0.1343 -0.9071 -0.1476
  735MOL0     H99207  11.853   4.547   6.923 -0.0835 -1.4233  1.0033
  735MOL0     H99208  11.612   4.602   7.005 -1.9935  0.1586  1.8590
  735MOL0     H99209   9.995   4.405   6.748 -2.1648  0.2727  3.7051
  735MOL0     H99210   9.740   4.396   6.676  0.3506 -0.4254  2.7383
  735MOL0     H99211   9.462   3.930   6.380 -0.9941  1.3083 -2.2542
  735MOL0     H99212   9.230   3.857   6.382 -0.7753 -0.9743  3.1075
  735MOL0     H99213   9.004   3.845   6.362 -3.5229  0.6508 -1.9454
  735MOL0     H99214   8.850   3.916   6.422 -0.4681 -1.5077  1.3439
  735MOL0     H99215   9.053   3.758   6.574 -0.6480 -0.2756  1.3351
  735MOL0     H99216   8.887   3.734   6.567  0.2951 -1.2036 -0.4642
  735MOL0     H99217   8.823   3.896   6.712 -0.3646  1.6679 -1.2597
  735MOL0     H99218   8.978   3.989   6.706 -2.8212  0.4804  1.6903
  735MOL0     H99219   9.092   3.809   6.845  0.2835  1.2011  3.6366
  735MOL0     H99220   8.942   3.857   6.924  1.4020 -0.4506  0.3864
  735MOL0     H99221   8.852   3.467   6.849 -0.4280  0.7064 -1.3844
  735MOL0     H99222   9.124   4.247   6.535 -2.7026 -1.1493 -1.7443
  735MOL0     H99223   9.425   4.308   6.696 -0.0266 -0.1557 -0.4338
  735MOL0     H99224   9.426   4.386   6.535  0.1178  0.7277 -0.1206
  735MOL0     H99225   9.278   4.379   6.633 -0.6619 -1.4216 -2.0241
  736MOL0     O99226  11.012   3.443   3.832  0.0432  0.4587  0.3113
  736MOL0     C99227  10.990   3.462   3.949  0.0659 -0.5661  0.2773
  736MOL0     O99228  11.066   3.538   4.029  0.2668  0.4008  0.1693
  736MOL0     C99229  11.176   3.599   3.978  0.2650 -0.8528  0.0899
  736MOL0     C99230  11.194   3.654   3.845  0.4813 -0.7029 -0.1120
  736MOL0     C99231  11.316   3.717   3.809  0.2536  0.4012 -0.0347
  736MOL0     C99232  11.417   3.729   3.900 -0.2570  0.4205  0.3688
  736MOL0     O99233  11.537   3.789   3.873 -0.0670 -0.4240  0.1286
  736MOL0     C99234  11.544   3.927   3.896 -0.0871 -0.4165 -0.3657
  736MOL0     C99235  11.662   3.984   3.812  0.2273 -0.0534 -0.7988
  736MOL0     C99236  11.704   4.121   3.858 -0.1729  0.0193 -0.4041
  736MOL0     C99237  11.848   4.153   3.807  0.2646 -0.1710 -0.3494
  736MOL0     C99238  11.875   4.301   3.824 -0.0925 -0.2071  0.1384
  736MOL0     C99239  11.787   4.402   3.739 -0.8320 -0.3119  1.2471
  736MOL0     C99240  11.846   4.539   3.715 -0.3272  1.1272  0.3095
  736MOL0     C99241  11.768   4.621   3.619  0.2007 -0.2225 -0.4474
  736MOL0     N99242  11.799   4.755   3.643  0.3202 -0.2702  0.2801
  736MOL0     C99243  11.923   4.815   3.628 -0.9990  0.4496 -0.6340
  736MOL0     C99244  11.903   4.942   3.668 -0.1056 -0.7841 -0.3397
  736MOL0     C99245  12.021   5.036   3.692 -0.1277  0.2155 -0.6578
  736MOL0     C99246  12.082   5.002   3.826  0.3008 -0.8933 -0.1726
  736MOL0     C99247  12.207   5.084   3.854 -0.0282 -0.0913  1.1964
  736MOL0     C99248  12.334   5.047   3.764  0.3521  0.2111 -0.3268
  736MOL0     O99249  12.357   4.907   3.767  0.0519  0.6643  0.1592
  736MOL0     C99250  12.479   4.850   3.738 -0.7621 -0.1871 -0.1628
  736MOL0     C99251  12.503   4.727   3.804  0.0854 -0.4551 -0.2582
  736MOL0     C99252  12.623   4.651   3.770 -0.1461  0.6694  0.1459
  736MOL0     C99253  12.716   4.699   3.679  0.7099 -0.8970 -0.0722
  736MOL0     C99254  12.835   4.619   3.636  0.0611  0.0618 -0.3369
  736MOL0     O99255  12.926   4.682   3.547  0.0914 -0.0705 -0.4511
  736MOL0     C99256  13.025   4.602   3.502 -0.0310  0.4483 -0.3031
  736MOL0     C99257  13.152   4.653   3.518  0.9864  0.3112 -0.0899
  736MOL0     C99258  13.260   4.590   3.455  0.4760 -0.2505  1.2145
  736MOL0     C99259  13.223   4.473   3.386 -0.5854  0.8365 -0.0543
  736MOL0     O99260  13.331   4.404   3.324  0.8871 -0.1011 -0.2355
  736MOL0     C99261  13.320   4.324   3.198  0.0086 -0.3536  0.0351
  736MOL0     C99262  13.454   4.238   3.194  0.6428  0.4731  0.0887
  736MOL0     C99263  13.573   4.332   3.164  0.3372 -0.1278  0.1967
  736MOL0     C99264  13.703   4.257   3.160  0.7417 -0.3906 -0.3649
  736MOL0     C99265  13.820   4.347   3.136  0.3710  0.4334 -0.3989
  736MOL0     C99266  13.948   4.262   3.124 -0.3580  0.2818 -0.2784
  736MOL0     C99267  14.075   4.350   3.126  0.2101  0.6301  0.0409
  736MOL0     C99268  14.180   4.247   3.132 -0.4929 -0.3049 -0.1980
  736MOL0    Cl99269  14.346   4.314   3.124  0.1347  0.2375 -0.5234
  736MOL0     C99270  13.088   4.408   3.382 -0.3489 -0.3224 -0.4418
  736MOL0     C99271  12.990   4.485   3.438  0.5395  0.4559  0.0615
  736MOL0     O99272  12.844   4.508   3.683 -0.1853 -0.3936 -0.8884
  736MOL0     C99273  12.691   4.829   3.624 -0.3248 -1.0523 -0.1420
  736MOL0     C99274  12.574   4.901   3.648  0.1152  0.2190 -0.6100
  736MOL0     N99275  11.772   4.965   3.709 -0.2286  0.7678  0.3482
  736MOL0     N99276  11.710   4.845   3.694 -0.3530 -0.0580  0.2252
  736MOL0     C99277  11.402   3.683   4.029 -0.1362  0.0877 -0.6451
  736MOL0     C99278  11.278   3.619   4.069  0.2322 -0.3612  0.6920
  736MOL0     C99279  10.862   3.401   4.006  0.4163 -0.8575  0.1387
  736MOL0     C99280  10.846   3.383   4.141 -0.3264  0.9127  0.4253
  736MOL0     C99281  10.719   3.332   4.192  0.7629  0.0067 -0.0774
  736MOL0     C99282  10.615   3.277   4.116 -1.1970 -0.8184  0.1871
  736MOL0     O99283  10.500   3.225   4.155 -0.6197  0.1018 -0.2385
  736MOL0     C99284  10.451   3.278   4.275 -0.8304  0.3285 -0.1879
  736MOL0     C99285  10.329   3.208   4.322 -0.3052  0.9464  0.3076
  736MOL0     C99286  10.349   3.055   4.346  0.4835 -0.7539 -0.4465
  736MOL0     C99287  10.224   3.004   4.418 -0.1474  0.1757  0.4105
  736MOL0     C99288  10.253   2.872   4.469 -0.8664  0.2015  0.3134
  736MOL0     C99289  10.278   2.759   4.518 -0.1770 -0.3213 -0.0251
  736MOL0     C99290  10.640   3.289   3.978 -0.7847  0.5000 -0.5773
  736MOL0     C99291  10.754   3.348   3.919 -0.5361 -0.2818 -0.2925
  736MOL0     C99292  10.759   3.336   3.765  0.4829 -0.3207  0.5514
  736MOL0     H99293  11.129   3.652   3.758  0.3476  1.0988 -0.0768
  736MOL0     H99294  11.326   3.740   3.703  2.6943 -0.1194  0.0434
  736MOL0     H99295  11.451   3.968   3.857 -0.6038 -1.2785 -0.0787
  736MOL0     H99296  11.553   3.948   4.003 -2.2724  0.6746 -0.3588
  736MOL0     H99297  11.649   3.985   3.704  0.4576 -0.5592 -0.8319
  736MOL0     H99298  11.749   3.918   3.825 -0.8271 -1.4699 -0.7646
  736MOL0     H99299  11.706   4.119   3.968  1.7795 -0.5167 -0.4022
  736MOL0     H99300  11.633   4.198   3.826  0.1788  0.9616  0.9872
  736MOL0     H99301  11.930   4.092   3.844 -0.5275 -0.3104  1.2696
  736MOL0     H99302  11.833   4.144   3.699 -1.7727 -1.7928  0.0040
  736MOL0     H99303  11.871   4.346   3.923 -0.0818  2.7469 -1.1221
  736MOL0     H99304  11.976   4.328   3.792 -0.7974  0.7640 -1.3659
  736MOL0     H99305  11.775   4.352   3.642 -1.9767  0.2070  1.1068
  736MOL0     H99306  11.684   4.409   3.773 -1.4740 -3.4286  0.1990
  736MOL0     H99307  11.950   4.519   3.685 -0.0723  2.1903  0.4579
  736MOL0     H99308  11.861   4.597   3.806 -0.3861  0.7191  0.5831
  736MOL0     H99309  11.797   4.599   3.516  1.8716 -1.9569  0.3281
  736MOL0     H99310  11.660   4.607   3.625 -0.0003  1.4699  0.4934
  736MOL0     H99311  12.018   4.769   3.602 -1.1441  0.1950 -0.7073
  736MOL0     H99312  12.101   5.027   3.617  1.0094  1.7022  0.3142
  736MOL0     H99313  11.990   5.141   3.698 -1.9827 -0.3141 -0.3168
  736MOL0     H99314  12.006   5.033   3.897  1.7196 -0.3112  1.1288
  736MOL0     H99315  12.115   4.897   3.828  0.2284 -0.9829 -1.7881
  736MOL0     H99316  12.247   5.071   3.954  0.0311 -1.2073  1.0358
  736MOL0     H99317  12.178   5.187   3.828  0.1287 -0.4715 -0.6734
  736MOL0     H99318  12.420   5.106   3.798 -0.4177  1.7153 -0.9210
  736MOL0     H99319  12.316   5.080   3.662  0.1671  1.3711  0.0659
  736MOL0     H99320  12.426   4.681   3.865  0.3150 -4.1566 -2.4400
  736MOL0     H99321  12.634   4.556   3.821 -0.7352  1.4345  1.7758
  736MOL0     H99322  13.153   4.741   3.581  0.6807 -0.3547  0.8663
  736MOL0     H99323  13.362   4.629   3.455  0.3945  0.0823 -1.0192
  736MOL0     H99324  13.238   4.253   3.210  1.8984 -2.2367  3.2871
  736MOL0     H99325  13.312   4.386   3.108  0.0441  0.2723  0.4536
  736MOL0     H99326  13.468   4.188   3.290  4.4451  3.6349  1.4060
  736MOL0     H99327  13.440   4.161   3.118 -1.1334  0.1646  0.6704
  736MOL0     H99328  13.554   4.386   3.071 -3.0846  0.8452  1.3201
  736MOL0     H99329  13.577   4.407   3.243 -0.7706 -1.5153  1.6451
  736MOL0     H99330  13.699   4.179   3.083  3.1885 -1.3525  0.3484
  736MOL0     H99331  13.717   4.207   3.256 -1.0037  0.2387  0.2477
  736MOL0     H99332  13.826   4.416   3.221 -1.0545  1.9154 -1.4522
  736MOL0     H99333  13.807   4.404   3.044  0.4687 -1.2045 -1.4719
  736MOL0     H99334  13.943   4.187   3.203 -2.0590 -1.4452 -1.9350
  736MOL0     H99335  13.938   4.202   3.033  0.2721 -1.9215  1.0273
  736MOL0     H99336  14.061   4.427   3.203  2.6341  2.6938 -1.4291
  736MOL0     H99337  14.078   4.400   3.029 -0.3568 -3.1318 -2.1079
  736MOL0     H99338  14.178   4.197   3.229  0.5012  1.6666  0.9154
  736MOL0     H99339  14.165   4.168   3.058 -0.1258  0.2958 -0.9197
  736MOL0     H99340  13.076   4.311   3.334  0.5992 -0.0493 -1.2589
  736MOL0     H99341  12.891   4.445   3.422 -0.9044  3.6280  0.2439
  736MOL0     H99342  12.760   4.873   3.553 -2.5865  1.4054 -1.0015
  736MOL0     H99343  12.566   5.003   3.612 -1.3899  0.5165  0.4666
  736MOL0     H99344  11.484   3.688   4.099  2.1681  0.5065 -3.2347
  736MOL0     H99345  11.263   3.587   4.171  0.1005  0.9000  1.0848
  736MOL0     H99346  10.927   3.409   4.208  1.1898  1.3092 -1.4677
  736MOL0     H99347  10.706   3.323   4.300 -2.9046 -3.0031 -0.5762
  736MOL0     H99348  10.416   3.380   4.255  0.6588  0.6399 -1.3553
  736MOL0     H99349  10.535   3.266   4.345 -0.4440  0.2612 -0.6548
  736MOL0     H99350  10.247   3.232   4.254  0.4830  2.7475 -0.0486
  736MOL0     H99351  10.289   3.249   4.415  0.7604 -2.9988  2.7294
  736MOL0     H99352  10.443   3.041   4.401  0.2482 -1.4180 -0.2027
  736MOL0     H99353  10.362   3.009   4.247 -0.9569  2.8942 -2.5413
  736MOL0     H99354  10.192   3.075   4.495  0.9989  1.5515 -0.3285
  736MOL0     H99355  10.135   2.989   4.357 -0.5025 -1.7750  1.3469
  736MOL0     H99356  10.315   2.673   4.569  2.3555  0.5109 -0.3235
  736MOL0     H99357  10.559   3.245   3.920 -1.6852 -2.1029  2.3743
  736MOL0     H99358  10.661   3.298   3.738 -0.3748  2.1352 -0.0436
  736MOL0     H99359  10.773   3.434   3.719  0.2892 -1.5848 -2.4167
  736MOL0     H99360  10.838   3.271   3.726 -0.1279 -0.2569 -0.8433
  737MOL0     O99361   8.600   6.863   7.989  0.2983  0.7772 -0.1166
  737MOL0     C99362   8.530   6.764   8.006  0.3164  0.0734 -0.2569
  737MOL0     O99363   8.566   6.658   8.078  0.5338  0.5445 -0.3672
  737MOL0     C99364   8.690   6.636   8.136 -0.1339  0.3194  0.2993
  737MOL0     C99365   8.817   6.683   8.087  0.3358  0.1493  1.3346
  737MOL0     C99366   8.940   6.643   8.137 -0.0306  0.2392  0.9655
  737MOL0     C99367   8.946   6.561   8.242 -0.8353 -0.1617  0.4243
  737MOL0     O99368   9.073   6.554   8.302  1.0684 -0.2124 -0.3335
  737MOL0     C99369   9.106   6.435   8.368  0.8656  0.1153 -0.0986
  737MOL0     C99370   9.253   6.396   8.337  0.1219  0.2160  0.1844
  737MOL0     C99371   9.343   6.511   8.388 -0.1465  0.7659  1.1469
  737MOL0     C99372   9.489   6.475   8.364  0.3477 -0.2016  0.5602
  737MOL0     C99373   9.568   6.591   8.436  0.1148  0.2579 -0.0267
  737MOL0     C99374   9.713   6.591   8.386  0.5743  0.2603  0.4490
  737MOL0     C99375   9.729   6.638   8.237  0.0642 -0.6744  0.2493
  737MOL0     C99376   9.862   6.712   8.214  0.0472 -0.1777  0.5331
  737MOL0     N99377   9.985   6.642   8.254  0.0283  0.1170  0.0965
  737MOL0     C99378  10.026   6.531   8.193  0.9756  0.1938  0.5591
  737MOL0     C99379  10.131   6.489   8.261 -0.2675  0.6606  0.3421
  737MOL0     C99380  10.209   6.367   8.214  0.1129 -0.0373 -0.2102
  737MOL0     C99381  10.366   6.367   8.249 -0.6134  0.2565 -0.4710
  737MOL0     C99382  10.434   6.486   8.180 -0.1684 -0.6144  0.3037
  737MOL0     C99383  10.587   6.470   8.190 -0.1988  0.6850 -0.6021
  737MOL0     O99384  10.650   6.578   8.121 -0.0396 -0.4591 -0.1021
  737MOL0     C99385  10.766   6.543   8.065 -0.3410 -0.4668  0.6844
  737MOL0     C99386  10.877   6.598   8.127  0.1458  0.2033  0.7396
  737MOL0     C99387  11.004   6.565   8.076 -0.1176  0.3139  0.0631
  737MOL0     C99388  11.025   6.486   7.963  0.1856  0.3696 -0.1633
  737MOL0     C99389  11.157   6.433   7.933  0.6320 -0.1161  0.4936
  737MOL0     O99390  11.172   6.337   7.839  0.4519 -0.0517 -0.1677
  737MOL0     C99391  11.295   6.307   7.796 -0.9118 -0.2539 -1.0715
  737MOL0     C99392  11.360   6.202   7.846 -0.0289 -0.3231  0.5961
  737MOL0     C99393  11.490   6.177   7.797 -0.4116  0.3434 -0.9640
  737MOL0     C99394  11.555   6.260   7.713 -0.5396 -0.1662 -0.3002
  737MOL0     O99395  11.689   6.255   7.690  0.3273  0.4849  0.2520
  737MOL0     C99396  11.778   6.185   7.771 -0.0622  0.7403 -0.4216
  737MOL0     C99397  11.914   6.204   7.712 -0.2972  0.4730 -0.1754
  737MOL0     C99398  11.914   6.161   7.560  0.0672 -0.4906  0.0617
  737MOL0     C99399  12.056   6.121   7.526 -0.5810 -0.0646  0.2042
  737MOL0     C99400  12.065   6.073   7.386 -0.3157 -0.1008 -0.0354
  737MOL0     C99401  12.209   6.027   7.356  0.2371 -0.0940 -0.1051
  737MOL0     C99402  12.239   5.875   7.383 -0.1425 -0.5303 -1.0192
  737MOL0     C99403  12.358   5.809   7.316  0.3432 -0.4617  0.3559
  737MOL0    Cl99404  12.348   5.833   7.135 -0.0005  0.1315 -0.8021
  737MOL0     C99405  11.486   6.369   7.664 -0.4602  0.8442 -0.1639
  737MOL0     C99406  11.359   6.395   7.709  0.5937 -0.1522  0.7020
  737MOL0     O99407  11.248   6.468   8.012 -0.0268  0.0905 -0.5326
  737MOL0     C99408  10.912   6.432   7.904  0.4379  0.7265  0.4801
  737MOL0     C99409  10.783   6.454   7.956 -1.1222  0.4750  0.2462
  737MOL0     N99410  10.160   6.576   8.364  0.0508 -0.9296 -0.0765
  737MOL0     N99411  10.067   6.660   8.368  0.4935  0.6608 -0.1209
  737MOL0     C99412   8.825   6.515   8.297 -0.1398 -0.1115 -0.1659
  737MOL0     C99413   8.702   6.547   8.244  0.2328 -0.3287  0.3939
  737MOL0     C99414   8.398   6.758   7.933  0.0049  0.5456  0.1801
  737MOL0     C99415   8.313   6.652   7.973 -0.2748 -0.3841  0.0627
  737MOL0     C99416   8.183   6.646   7.929  0.6440 -0.4312  0.1880
  737MOL0     C99417   8.124   6.739   7.848 -0.0299 -0.1269 -0.7111
  737MOL0     O99418   7.989   6.722   7.815 -0.8312  0.0193 -0.3568
  737MOL0     C99419   7.909   6.833   7.781  0.4449 -0.4422 -0.6282
  737MOL0     C99420   7.761   6.805   7.772  0.3776 -0.0939 -0.0505
  737MOL0     C99421   7.742   6.721   7.646 -0.3131  0.7894 -0.7993
  737MOL0     C99422   7.602   6.652   7.656 -0.1620 -0.2639 -0.0739
  737MOL0     C99423   7.481   6.730   7.681 -0.0354 -0.4652 -0.8716
  737MOL0     C99424   7.374   6.792   7.696 -0.7695  1.5672 -0.3430
  737MOL0     C99425   8.207   6.843   7.798 -0.2710  0.5021  0.0578
  737MOL0     C99426   8.346   6.850   7.837 -0.3971  0.0292  0.0959
  737MOL0     C99427   8.430   6.971   7.777 -0.2694  0.0607 -0.9865
  737MOL0     H99428   8.822   6.752   8.003  3.4929  1.7060  2.6353
  737MOL0     H99429   9.033   6.678   8.093  0.7540 -0.6589  1.8436
  737MOL0     H99430   9.084   6.432   8.475  1.2396 -2.8239 -0.0294
  737MOL0     H99431   9.049   6.350   8.329  1.0796  0.1195 -0.4267
  737MOL0     H99432   9.273   6.381   8.231  1.2007 -2.9738  0.7334
  737MOL0     H99433   9.283   6.300   8.380  1.2308  1.0162  1.3092
  737MOL0     H99434   9.327   6.523   8.495 -1.0572 -0.5494  1.1827
  737MOL0     H99435   9.324   6.603   8.332  1.2331 -0.4431 -1.4973
  737MOL0     H99436   9.514   6.377   8.406 -0.1486 -0.0155  1.3153
  737MOL0     H99437   9.504   6.484   8.256 -2.4253 -2.1164 -0.0948
  737MOL0     H99438   9.511   6.683   8.421 -1.1035 -0.3180  0.8922
  737MOL0     H99439   9.559   6.569   8.543  0.3588  2.5324  0.5242
  737MOL0     H99440   9.773   6.658   8.448  1.1827 -2.3113  2.8322
  737MOL0     H99441   9.757   6.492   8.401  1.6294  0.7047  0.4073
  737MOL0     H99442   9.657   6.719   8.220  0.0421 -0.7735 -0.1589
  737MOL0     H99443   9.731   6.563   8.156 -2.2010  2.4130 -2.9961
  737MOL0     H99444   9.870   6.731   8.107 -0.2659  1.0588  0.7164
  737MOL0     H99445   9.860   6.807   8.268 -0.5147 -1.4601  2.8915
  737MOL0     H99446   9.983   6.483   8.106 -1.1077  1.6479  0.7150
  737MOL0     H99447  10.171   6.285   8.275 -0.4766  0.2701 -0.1491
  737MOL0     H99448  10.198   6.352   8.106  1.4474  0.4593 -0.4341
  737MOL0     H99449  10.382   6.374   8.357 -1.1616  2.3330 -0.4847
  737MOL0     H99450  10.420   6.275   8.225  1.3701  0.6551  2.1155
  737MOL0     H99451  10.397   6.586   8.204 -3.3160 -0.4939 -3.9955
  737MOL0     H99452  10.414   6.471   8.073  2.1615  0.7640 -0.4023
  737MOL0     H99453  10.617   6.370   8.158 -0.0939  0.0938  1.2555
  737MOL0     H99454  10.616   6.473   8.295 -2.5560  1.4341  0.1028
  737MOL0     H99455  10.865   6.661   8.215 -2.4177 -1.1017  1.4342
  737MOL0     H99456  11.092   6.599   8.131  1.7457 -0.0873 -2.4938
  737MOL0     H99457  11.315   6.139   7.923  0.3604 -1.8544 -0.4014
  737MOL0     H99458  11.549   6.090   7.823  0.8272  1.6029  0.6071
  737MOL0     H99459  11.770   6.213   7.877 -1.2035  1.0762 -0.5886
  737MOL0     H99460  11.753   6.079   7.776  0.6609  0.6093  0.8779
  737MOL0     H99461  11.951   6.307   7.723 -1.2638  0.7895  0.1844
  737MOL0     H99462  11.977   6.140   7.775 -1.3972 -1.1410 -0.6580
  737MOL0     H99463  11.848   6.077   7.537  1.5320 -1.7925  0.3943
  737MOL0     H99464  11.891   6.246   7.496 -0.9170 -0.0746  0.9418
  737MOL0     H99465  12.089   6.043   7.595 -2.7430  1.6548  3.4366
  737MOL0     H99466  12.123   6.206   7.535 -1.4032  0.3822  2.7179
  737MOL0     H99467  12.042   6.158   7.321 -0.5168 -0.8479 -0.9483
  737MOL0     H99468  11.982   6.003   7.372 -1.1307  1.0225 -1.0564
  737MOL0     H99469  12.237   6.052   7.254  1.1997  0.6166  0.3187
  737MOL0     H99470  12.280   6.085   7.416  0.0958  0.6959 -0.6953
  737MOL0     H99471  12.146   5.824   7.355 -1.1512  1.2525 -1.0005
  737MOL0     H99472  12.255   5.870   7.491  1.1782  2.4577 -0.9810
  737MOL0     H99473  12.447   5.858   7.356  0.1332 -0.4185  0.7734
  737MOL0     H99474  12.353   5.704   7.346 -3.0961 -0.4580  0.2529
  737MOL0     H99475  11.516   6.443   7.590 -2.5928  1.2109 -0.7378
  737MOL0     H99476  11.295   6.473   7.669 -0.4053 -2.0992 -1.7549
  737MOL0     H99477  10.918   6.373   7.812 -0.8521  3.5803 -1.5945
  737MOL0     H99478  10.697   6.410   7.906 -0.5452  1.2787 -1.5315
  737MOL0     H99479   8.835   6.465   8.393 -3.8761 -0.4192  0.2161
  737MOL0     H99480   8.611   6.493   8.269  1.5395 -2.7417  0.1410
  737MOL0     H99481   8.348   6.570   8.035 -1.3879  1.0907  2.8552
  737MOL0     H99482   8.127   6.557   7.957 -1.3220  0.6610 -0.0530
  737MOL0     H99483   7.937   6.868   7.681 -0.7215  0.0982 -0.7830
  737MOL0     H99484   7.917   6.923   7.842  0.6306 -0.5886 -0.4374
  737MOL0     H99485   7.698   6.892   7.754 -1.0772  0.0220  4.3092
  737MOL0     H99486   7.716   6.757   7.860 -2.2197  1.7755 -0.2454
  737MOL0     H99487   7.825   6.650   7.639  0.4537  1.6388 -0.6482
  737MOL0     H99488   7.732   6.789   7.561 -4.9257  3.0911  1.2432
  737MOL0     H99489   7.588   6.590   7.567 -1.1112  0.3824 -0.3883
  737MOL0     H99490   7.600   6.587   7.744  1.6025  3.2145  2.7742
  737MOL0     H99491   7.280   6.842   7.699 -0.8713  1.3545  0.0172
  737MOL0     H99492   8.169   6.920   7.732 -4.0655 -0.6925  0.6010
  737MOL0     H99493   8.383   7.027   7.695  0.2974  0.5722 -0.9715
  737MOL0     H99494   8.464   7.042   7.853  0.8631 -0.6889 -0.7677
  737MOL0     H99495   8.526   6.937   7.737  1.2723  1.1785  1.5403
  738MOL0     O99496   9.165   5.145   9.901 -0.4703  0.9248 -0.0354
  738MOL0     C99497   9.227   5.109   9.792  0.6337  0.3690  0.6181
  738MOL0     O99498   9.349   5.034   9.785 -0.0808  0.1224  0.0370
  738MOL0     C99499   9.434   5.030   9.900  0.6186  0.2955  0.7927
  738MOL0     C99500   9.395   4.994  10.028 -0.4575 -1.0484  0.1464
  738MOL0     C99501   9.478   5.001  10.141 -0.3727 -0.1943  0.0658
  738MOL0     C99502   9.619   5.035  10.126  1.4850 -0.3621 -0.6635
  738MOL0     O99503   9.717   5.049  10.212 -0.3493  0.0866  0.2543
  738MOL0     C99504   9.687   5.035  10.350  0.0189 -0.3759 -0.3343
  738MOL0     C99505   9.799   5.086  10.438 -0.9603  0.4181 -0.3088
  738MOL0     C99506   9.928   4.995  10.432  0.3884 -0.7565 -0.4049
  738MOL0     C99507  10.043   5.047  10.510  0.2134  0.4988 -0.4099
  738MOL0     C99508  10.170   4.984  10.473 -0.5023  0.7214 -0.3037
  738MOL0     C99509  10.292   5.044  10.552  0.3590 -0.8454  0.2573
  738MOL0     C99510  10.435   5.004  10.501  0.2280  0.5944 -0.5768
  738MOL0     C99511  10.552   5.081  10.571  0.1930  0.1756 -0.3854
  738MOL0     N99512  10.681   5.035  10.524 -0.9869 -0.1860  0.7726
  738MOL0     C99513  10.715   5.012  10.391 -0.2043  0.4859 -0.2779
  738MOL0     C99514  10.844   4.968  10.395 -0.1003  0.5905 -0.9804
  738MOL0     C99515  10.919   4.918  10.273 -0.2340  0.0470  0.3759
  738MOL0     C99516  11.021   4.811  10.307 -0.3011  0.2932 -0.1320
  738MOL0     C99517  11.107   4.777  10.182  0.2726  0.2658 -0.1085
  738MOL0     C99518  11.192   4.654  10.195 -0.1623  0.1779  0.0014
  738MOL0     O99519  11.268   4.686  10.308  0.4513  0.0714 -0.7685
  738MOL0     C99520  11.402   4.719  10.288  0.1214  0.7791  0.4293
  738MOL0     C99521  11.500   4.638  10.219 -0.0584  0.3601  0.3687
  738MOL0     C99522  11.635   4.672  10.219  0.7352 -0.6577  0.9401
  738MOL0     C99523  11.687   4.792  10.276  0.5889 -0.8173  0.6089
  738MOL0     C99524  11.833   4.833  10.279  0.7632  0.3781  0.3623
  738MOL0     O99525  11.922   4.740  10.237  0.0412 -0.4333  0.0078
  738MOL0     C99526  12.055   4.756  10.263 -0.8239 -0.6100 -0.1898
  738MOL0     C99527  12.119   4.876  10.232  0.4559  0.0119  0.4323
  738MOL0     C99528  12.259   4.884  10.242  0.0355  0.5488 -1.2374
  738MOL0     C99529  12.330   4.770  10.260 -0.0579  0.2242  0.3648
  738MOL0     O99530  12.462   4.790  10.249  0.5914  0.5674 -1.0658
  738MOL0     C99531  12.549   4.698  10.316  0.5163 -0.6907 -0.2075
  738MOL0     C99532  12.696   4.722  10.284 -0.3566  0.1416  0.7559
  738MOL0     C99533  12.792   4.662  10.386  0.2503  0.2856 -0.0991
  738MOL0     C99534  12.939   4.675  10.338  0.0201  0.3606  0.1439
  738MOL0     C99535  13.021   4.563  10.409  0.4018  0.1709 -0.2424
  738MOL0     C99536  13.170   4.578  10.384 -0.3956 -0.3437  0.4228
  738MOL0     C99537  13.251   4.442  10.390  0.7265 -0.0817 -0.4208
  738MOL0     C99538  13.406   4.447  10.363  1.0064 -0.4194  0.9742
  738MOL0    Cl99539  13.448   4.569  10.229 -0.2817 -0.0251  0.4071
  738MOL0     C99540  12.267   4.640  10.284 -0.3513  0.7061  0.5857
  738MOL0     C99541  12.128   4.637  10.289  0.1166  0.6085 -0.4136
  738MOL0     O99542  11.859   4.944  10.323 -0.4561  0.0394  0.0338
  738MOL0     C99543  11.595   4.875  10.338 -0.8081  0.5732 -0.1621
  738MOL0     C99544  11.459   4.838  10.337 -0.6084 -0.2259 -0.1647
  738MOL0     N99545  10.892   4.975  10.523  0.3346  0.3816  0.0021
  738MOL0     N99546  10.790   5.005  10.598  0.0545  0.1923 -0.6982
  738MOL0     C99547   9.655   5.068   9.993 -0.1639  0.2265 -0.5317
  738MOL0     C99548   9.567   5.067   9.884 -0.2043  0.4736  0.0611
  738MOL0     C99549   9.156   5.137   9.671 -0.6320  0.5237  0.0288
  738MOL0     C99550   9.225   5.122   9.547 -0.1355 -0.4086  0.3243
  738MOL0     C99551   9.157   5.152   9.427  0.0027  0.1768 -0.4017
  738MOL0     C99552   9.032   5.202   9.414  0.2943 -0.3085 -0.1763
  738MOL0     O99553   8.987   5.232   9.289  0.3576 -0.2257 -0.7382
  738MOL0     C99554   8.844   5.267   9.280 -0.0846  0.4514  0.1097
  738MOL0     C99555   8.798   5.287   9.141  0.2356 -0.2529 -0.3169
  738MOL0     C99556   8.879   5.399   9.068 -0.5438  0.9841  0.5243
  738MOL0     C99557   8.852   5.406   8.910  0.1038  0.1342 -0.6491
  738MOL0     C99558   8.703   5.415   8.886  0.1911  0.3344  0.0837
  738MOL0     C99559   8.585   5.415   8.856  0.0393  0.3495 -0.1564
  738MOL0     C99560   8.964   5.223   9.532 -0.1230  0.4714  0.0808
  738MOL0     C99561   9.023   5.186   9.658  0.6362  0.1159  0.0429
  738MOL0     C99562   8.928   5.206   9.776  0.3915  0.5329 -0.5304
  738MOL0     H99563   9.293   4.964  10.048 -0.8766 -0.5701 -1.1202
  738MOL0     H99564   9.441   4.974  10.240 -2.3934  0.2676 -0.5248
  738MOL0     H99565   9.597   5.091  10.376 -1.1598 -2.2192 -0.3174
  738MOL0     H99566   9.682   4.931  10.383  2.2129  0.0634  1.7095
  738MOL0     H99567   9.762   5.098  10.540 -2.9007  0.2800 -0.9671
  738MOL0     H99568   9.829   5.186  10.406  2.5836 -0.0335  1.1393
  738MOL0     H99569   9.964   4.976  10.330  4.3948 -2.2325  1.0941
  738MOL0     H99570   9.908   4.895  10.472 -0.5059  0.5665  2.8215
  738MOL0     H99571  10.048   5.154  10.486 -0.6887  0.8938  0.9912
  738MOL0     H99572  10.013   5.035  10.615 -1.8191  0.7593 -0.9218
  738MOL0     H99573  10.161   4.876  10.490 -1.2654  0.6333 -1.1714
  738MOL0     H99574  10.203   4.988  10.369 -0.0141  2.2131 -0.1144
  738MOL0     H99575  10.280   5.153  10.543  0.4840 -0.8294  0.2754
  738MOL0     H99576  10.276   5.022  10.658  1.9498  1.7728  1.1451
  738MOL0     H99577  10.440   5.011  10.392 -2.5997  1.4529 -0.7375
  738MOL0     H99578  10.444   4.899  10.531  1.0116  0.7297 -0.3212
  738MOL0     H99579  10.547   5.185  10.536 -2.1809  0.5168  0.7550
  738MOL0     H99580  10.540   5.091  10.679 -1.6370  1.2977 -0.6389
  738MOL0     H99581  10.644   5.003  10.309 -1.8433 -3.3255  1.3020
  738MOL0     H99582  10.853   4.870  10.199  0.3529 -0.9917  0.5120
  738MOL0     H99583  10.975   4.996  10.220 -1.3888  0.6684  0.0289
  738MOL0     H99584  11.096   4.860  10.370  0.9938 -0.9320 -0.6647
  738MOL0     H99585  10.978   4.724  10.356  1.9390  0.8178  3.0699
  738MOL0     H99586  11.167   4.867  10.164  0.9355  0.0004  0.7388
  738MOL0     H99587  11.037   4.774  10.097 -0.1530  0.5283  0.2287
  738MOL0     H99588  11.253   4.639  10.105 -2.7229 -1.5307 -1.6187
  738MOL0     H99589  11.135   4.563  10.213 -0.1036  0.0804 -0.3039
  738MOL0     H99590  11.458   4.554  10.165  2.3745 -0.0231 -1.0397
  738MOL0     H99591  11.697   4.596  10.173  0.6684  0.6030 -1.3258
  738MOL0     H99592  12.056   4.960  10.205 -1.4466 -0.9533  1.6541
  738MOL0     H99593  12.318   4.974  10.233  1.4807 -0.2420 -0.1081
  738MOL0     H99594  12.537   4.711  10.424  1.1476  0.4979 -0.2724
  738MOL0     H99595  12.519   4.598  10.283  1.4907 -0.7068 -1.0848
  738MOL0     H99596  12.715   4.679  10.185  4.4389  1.0553  1.0376
  738MOL0     H99597  12.716   4.829  10.272  0.1151 -0.1758 -1.8403
  738MOL0     H99598  12.768   4.723  10.473 -1.3342 -0.7845  0.2496
  738MOL0     H99599  12.752   4.561  10.387 -1.2863  0.8600 -0.7776
  738MOL0     H99600  12.975   4.777  10.355 -0.1554  0.5064 -0.3228
  738MOL0     H99601  12.955   4.658  10.231  1.9167  3.4719 -0.1905
  738MOL0     H99602  12.983   4.470  10.366  1.4911  0.5082 -2.0349
  738MOL0     H99603  13.000   4.564  10.517  0.0636 -1.2315 -0.2781
  738MOL0     H99604  13.180   4.618  10.283 -2.2666 -1.7623 -0.4008
  738MOL0     H99605  13.212   4.643  10.461 -0.6092 -3.2182  3.2168
  738MOL0     H99606  13.221   4.383  10.303  1.3604 -1.8913  0.5440
  738MOL0     H99607  13.219   4.385  10.478  0.5399 -0.4176 -0.7081
  738MOL0     H99608  13.461   4.473  10.454  2.4277 -0.5246  0.1833
  738MOL0     H99609  13.427   4.343  10.339 -2.4656 -1.9161  3.5807
  738MOL0     H99610  12.320   4.545  10.284  2.1374  1.8558 -3.5483
  738MOL0     H99611  12.071   4.546  10.302  0.0302  0.8014  0.6315
  738MOL0     H99612  11.625   4.961  10.397 -2.0018  1.8593 -1.3637
  738MOL0     H99613  11.397   4.905  10.397  0.9629  0.7927  0.4018
  738MOL0     H99614   9.759   5.096   9.979 -0.1296 -0.0923 -0.9126
  738MOL0     H99615   9.611   5.085   9.786  1.3721  0.1729  0.6860
  738MOL0     H99616   9.330   5.092   9.546 -0.4242 -1.8860  3.4227
  738MOL0     H99617   9.227   5.134   9.346  1.4051 -2.0270  1.1791
  738MOL0     H99618   8.835   5.368   9.321  1.1934 -0.4287  2.8256
  738MOL0     H99619   8.779   5.193   9.328 -1.3151  1.5168  0.1243
  738MOL0     H99620   8.695   5.324   9.135  0.2147 -0.5501 -2.8548
  738MOL0     H99621   8.797   5.197   9.078 -2.9181 -1.9789  1.9165
  738MOL0     H99622   8.988   5.388   9.076 -0.5900 -1.5989 -1.0251
  738MOL0     H99623   8.854   5.495   9.113 -2.5736 -0.0825  1.7995
  738MOL0     H99624   8.900   5.492   8.863  1.2808 -0.1296  0.0247
  738MOL0     H99625   8.888   5.316   8.858 -0.4417  0.0339 -0.8643
  738MOL0     H99626   8.482   5.407   8.828  0.2123  0.6972 -0.9309
  738MOL0     H99627   8.869   5.276   9.528 -0.6650 -0.4436 -4.4946
  738MOL0     H99628   8.911   5.112   9.829 -1.5690  0.3176 -1.4482
  738MOL0     H99629   8.975   5.284   9.837 -2.3704  1.0169  1.1620
  738MOL0     H99630   8.833   5.245   9.738  0.3501 -0.5911 -1.6489
  739MOL0     O99631   4.724   1.759   7.939  0.4721 -0.1632 -0.0584
  739MOL0     C99632   4.665   1.651   7.944 -0.4710 -0.5288  0.3341
  739MOL0     O99633   4.728   1.528   7.942  0.4288 -0.6506 -0.4390
  739MOL0     C99634   4.856   1.501   7.913  0.3929 -0.7105  1.3303
  739MOL0     C99635   4.902   1.380   7.948 -0.4517 -0.0474  0.0551
  739MOL0     C99636   5.033   1.339   7.923  0.5617 -0.0649  0.1172
  739MOL0     C99637   5.128   1.424   7.863  0.2699 -0.4439  0.2241
  739MOL0     O99638   5.260   1.387   7.865  0.5206  0.2502  0.4771
  739MOL0     C99639   5.347   1.427   7.748  0.1900  1.0852  0.1772
  739MOL0     C99640   5.435   1.538   7.808  1.0039  0.4564  0.2555
  739MOL0     C99641   5.569   1.555   7.734 -0.2102  0.0155 -0.7848
  739MOL0     C99642   5.669   1.648   7.811  0.7895 -0.0840  0.4438
  739MOL0     C99643   5.791   1.696   7.726  0.1505  0.1501 -0.8287
  739MOL0     C99644   5.883   1.799   7.802  0.0940 -0.7023  0.0187
  739MOL0     C99645   6.000   1.837   7.705 -1.0411  0.3359  1.0890
  739MOL0     C99646   6.105   1.728   7.677 -0.4425 -0.5863  0.1695
  739MOL0     N99647   6.214   1.801   7.614 -0.1057  0.0435  1.2217
  739MOL0     C99648   6.209   1.846   7.486  0.0565 -0.8174 -0.5316
  739MOL0     C99649   6.339   1.864   7.454 -0.3326 -0.0666  0.4966
  739MOL0     C99650   6.396   1.899   7.315  0.3407 -0.1179 -0.0063
  739MOL0     C99651   6.550   1.891   7.321 -0.7346 -0.2224  0.1071
  739MOL0     C99652   6.597   1.747   7.342 -0.0930  0.1062 -0.4020
  739MOL0     C99653   6.751   1.738   7.342  0.1845 -0.6370 -0.0621
  739MOL0     O99654   6.816   1.830   7.442  0.3840 -0.0009  0.6704
  739MOL0     C99655   6.949   1.834   7.456  0.4133  0.6389  0.5627
  739MOL0     C99656   7.004   1.922   7.555  0.2918 -0.2316 -0.2845
  739MOL0     C99657   7.141   1.935   7.580  0.3635 -0.7188  0.0182
  739MOL0     C99658   7.237   1.877   7.496  0.0364  0.5442  0.4387
  739MOL0     C99659   7.381   1.901   7.512 -0.8301  0.3959 -0.1695
  739MOL0     O99660   7.424   1.929   7.637  0.4431 -0.0687  0.6706
  739MOL0     C99661   7.558   1.952   7.658  0.2503  0.3693  0.2393
  739MOL0     C99662   7.608   2.081   7.649  0.4694  0.3878 -0.3163
  739MOL0     C99663   7.742   2.104   7.678  0.2072  0.1040 -0.4538
  739MOL0     C99664   7.830   2.001   7.720 -0.7647  0.0861 -0.2497
  739MOL0     O99665   7.953   2.052   7.760  0.5190  0.6881 -0.1966
  739MOL0     C99666   8.052   1.955   7.779 -0.3240 -0.1878 -0.9803
  739MOL0     C99667   8.189   2.037   7.791 -0.2855  0.9620  0.0903
  739MOL0     C99668   8.316   1.962   7.764 -0.8450  0.7342 -0.2176
  739MOL0     C99669   8.448   2.056   7.782  0.6495  0.6019 -0.1292
  739MOL0     C99670   8.572   1.972   7.791 -0.0378  0.3295  0.5889
  739MOL0     C99671   8.605   1.918   7.646  0.3711 -0.0739 -0.0811
  739MOL0     C99672   8.751   1.863   7.618  0.4207  0.9545 -0.3171
  739MOL0     C99673   8.865   1.966   7.601  1.0744  0.6144  0.2295
  739MOL0    Cl99674   9.015   1.864   7.615  0.3342  0.0909 -0.1013
  739MOL0     C99675   7.772   1.874   7.723  0.1640 -0.0780  0.5022
  739MOL0     C99676   7.636   1.847   7.694 -0.5754 -0.3701 -0.5347
  739MOL0     O99677   7.458   1.903   7.409 -0.0151  0.6461 -0.8434
  739MOL0     C99678   7.182   1.781   7.398  0.3009  0.0542  0.3495
  739MOL0     C99679   7.041   1.753   7.381  0.6892 -0.9258 -0.1413
  739MOL0     N99680   6.410   1.863   7.570 -0.3861 -0.2509 -0.3701
  739MOL0     N99681   6.338   1.811   7.668  0.6190  0.2537  0.1472
  739MOL0     C99682   5.079   1.540   7.815  0.1326 -0.2328 -0.8476
  739MOL0     C99683   4.946   1.583   7.834 -0.5186 -0.1907 -0.1770
  739MOL0     C99684   4.522   1.651   7.997  0.0820  0.5613 -0.4682
  739MOL0     C99685   4.471   1.527   8.045  0.7169  0.1000  0.4726
  739MOL0     C99686   4.332   1.512   8.080 -1.0061  0.3077 -0.4035
  739MOL0     C99687   4.255   1.618   8.092 -0.0523 -0.6660 -0.4851
  739MOL0     O99688   4.132   1.625   8.164 -0.7536 -0.3029  0.2062
  739MOL0     C99689   4.047   1.511   8.133 -0.2491  0.5364  0.8109
  739MOL0     C99690   3.911   1.557   8.096  0.4434  0.9911  0.5043
  739MOL0     C99691   3.826   1.612   8.216 -0.6673  0.0874 -0.4487
  739MOL0     C99692   3.721   1.523   8.260  0.0550 -0.0830 -0.3268
  739MOL0     C99693   3.628   1.585   8.360 -0.1412 -0.6682  0.2908
  739MOL0     C99694   3.550   1.602   8.450  0.1327  0.2227  0.2495
  739MOL0     C99695   4.299   1.739   8.037 -0.0185  0.1938  0.1815
  739MOL0     C99696   4.425   1.761   7.991 -1.7661  0.4195 -0.8762
  739MOL0     C99697   4.459   1.890   7.917  0.3501 -0.3467  0.1489
  739MOL0     H99698   4.840   1.317   8.011 -0.2452  1.7101  2.1060
  739MOL0     H99699   5.075   1.250   7.968 -1.4502 -0.7519  0.6900
  739MOL0     H99700   5.396   1.338   7.709  0.6914  1.2320  0.4747
  739MOL0     H99701   5.284   1.474   7.671 -2.4556 -1.6901  0.4357
  739MOL0     H99702   5.460   1.514   7.912  2.1622  2.0836  0.3971
  739MOL0     H99703   5.375   1.630   7.813 -1.8792 -1.2359 -0.8138
  739MOL0     H99704   5.568   1.609   7.639  1.4079  1.6694  0.0745
  739MOL0     H99705   5.627   1.462   7.742 -0.9668 -0.3386  1.3148
  739MOL0     H99706   5.617   1.741   7.835  0.3397  0.5971 -2.7146
  739MOL0     H99707   5.715   1.594   7.895 -0.2594  0.1840  1.2087
  739MOL0     H99708   5.853   1.609   7.699  2.0631  0.9222  0.8572
  739MOL0     H99709   5.743   1.737   7.636  0.0747  1.4397 -0.2135
  739MOL0     H99710   5.817   1.879   7.837  2.0879  1.1605 -0.2945
  739MOL0     H99711   5.933   1.767   7.893  4.1191  3.3099 -0.4804
  739MOL0     H99712   6.050   1.918   7.758 -1.6261  1.6184 -0.2400
  739MOL0     H99713   5.964   1.882   7.612  0.0860 -0.3243  0.3036
  739MOL0     H99714   6.139   1.683   7.771 -1.1254 -1.5251 -0.0177
  739MOL0     H99715   6.059   1.653   7.611  1.2299  1.6510 -3.8848
  739MOL0     H99716   6.126   1.856   7.417 -1.0941  1.2713  1.0375
  739MOL0     H99717   6.351   1.823   7.250  1.8353 -0.1302 -1.0552
  739MOL0     H99718   6.353   1.994   7.283 -2.6902 -2.2945 -3.1130
  739MOL0     H99719   6.589   1.933   7.229 -0.1155  0.8828  0.8582
  739MOL0     H99720   6.572   1.956   7.406  0.4331 -1.9764  1.2133
  739MOL0     H99721   6.571   1.692   7.251 -1.2468  2.3595 -1.5320
  739MOL0     H99722   6.560   1.698   7.432  1.3149  0.9038  0.6351
  739MOL0     H99723   6.790   1.772   7.246 -0.0582  1.7162  0.6042
  739MOL0     H99724   6.787   1.635   7.351  2.9493  0.2824  0.0795
  739MOL0     H99725   6.943   1.984   7.620  2.4924  0.0412  1.6623
  739MOL0     H99726   7.159   2.001   7.665  0.6118  0.5667 -1.0003
  739MOL0     H99727   7.539   2.158   7.614  0.9045  1.1093  0.3905
  739MOL0     H99728   7.795   2.198   7.681 -0.4804  0.5581 -1.6992
  739MOL0     H99729   8.033   1.896   7.869 -2.8756 -1.4292 -2.2343
  739MOL0     H99730   8.061   1.891   7.691  1.9958  3.6399 -3.8591
  739MOL0     H99731   8.186   2.114   7.713  1.1834 -0.0406 -1.0193
  739MOL0     H99732   8.198   2.088   7.887  1.5537  1.0289 -0.0896
  739MOL0     H99733   8.311   1.884   7.840 -2.0781  3.7013  3.0099
  739MOL0     H99734   8.315   1.916   7.665  4.0638 -1.2068  0.3383
  739MOL0     H99735   8.436   2.102   7.881 -0.5029 -0.9578  0.5104
  739MOL0     H99736   8.459   2.128   7.701  1.7893  0.0942 -0.4490
  739MOL0     H99737   8.567   1.888   7.860  1.4055  0.9828  1.5436
  739MOL0     H99738   8.653   2.040   7.819 -1.1683  1.5028  1.0798
  739MOL0     H99739   8.534   1.835   7.637  0.2514  0.0275 -0.0736
  739MOL0     H99740   8.601   1.998   7.572  0.4355 -0.6740 -0.7384
  739MOL0     H99741   8.754   1.798   7.530  4.0317 -0.6638  0.8165
  739MOL0     H99742   8.785   1.798   7.700  0.7591  0.5249 -0.7875
  739MOL0     H99743   8.869   1.998   7.497  1.1737 -1.3546 -0.4198
  739MOL0     H99744   8.859   2.048   7.673  0.5012  2.6384 -2.0213
  739MOL0     H99745   7.830   1.783   7.735 -1.8840 -1.7976 -1.7001
  739MOL0     H99746   7.584   1.753   7.706 -4.3157  1.5435 -0.2317
  739MOL0     H99747   7.256   1.728   7.339  1.2790  0.7603  0.9095
  739MOL0     H99748   7.014   1.677   7.309  2.0297 -1.3788 -0.1991
  739MOL0     H99749   5.140   1.610   7.760  0.1016 -0.2604 -0.9168
  739MOL0     H99750   4.920   1.681   7.794 -4.1434 -2.1251 -3.2128
  739MOL0     H99751   4.527   1.440   8.078 -2.8387 -1.9932  1.5891
  739MOL0     H99752   4.303   1.416   8.121  1.0052  0.8480  2.5804
  739MOL0     H99753   4.051   1.443   8.218 -0.4487  0.2399  0.5836
  739MOL0     H99754   4.082   1.454   8.047  1.0269 -0.1412  1.7493
  739MOL0     H99755   3.859   1.472   8.049  0.5419 -0.4837  2.9092
  739MOL0     H99756   3.920   1.630   8.015 -0.0290 -0.9342 -1.3837
  739MOL0     H99757   3.786   1.709   8.186  0.7244  0.5923 -0.7599
  739MOL0     H99758   3.905   1.617   8.291  1.3807  3.0566 -2.5751
  739MOL0     H99759   3.670   1.486   8.171 -3.5435  0.8021  1.2128
  739MOL0     H99760   3.756   1.428   8.303 -1.8508 -0.4409  0.5189
  739MOL0     H99761   3.480   1.614   8.530  1.3478  0.0746  1.3645
  739MOL0     H99762   4.222   1.815   8.030 -2.1410 -1.9721 -2.4357
  739MOL0     H99763   4.553   1.936   7.948  0.8725  0.6035 -2.6313
  739MOL0     H99764   4.466   1.853   7.815  1.4188 -0.5358  0.2774
  739MOL0     H99765   4.384   1.967   7.937  0.2839 -0.5260  0.6011
  740MOL0     O99766   3.196   6.056   8.604  0.4298 -0.2360 -0.2197
  740MOL0     C99767   3.163   6.077   8.719  0.1888  0.0289  0.3877
  740MOL0     O99768   3.246   6.086   8.818 -0.0036  0.0406 -0.3903
  740MOL0     C99769   3.370   6.028   8.822  0.8184 -0.1958 -0.6336
  740MOL0     C99770   3.385   5.885   8.823 -0.1025  0.5706  0.1139
  740MOL0     C99771   3.506   5.822   8.843 -1.0374 -0.2294 -0.2954
  740MOL0     C99772   3.627   5.904   8.843  0.1643 -0.0989 -0.4677
  740MOL0     O99773   3.756   5.854   8.851  0.7664 -0.4531  0.2549
  740MOL0     C99774   3.793   5.714   8.860 -0.0680 -0.0314 -0.1825
  740MOL0     C99775   3.915   5.691   8.769  0.2741 -0.1281  0.5122
  740MOL0     C99776   4.036   5.772   8.823  0.3548  0.9755 -0.0052
  740MOL0     C99777   4.156   5.758   8.730 -0.0247 -0.1390  0.0461
  740MOL0     C99778   4.284   5.817   8.791 -0.8354  0.4642 -0.2664
  740MOL0     C99779   4.394   5.805   8.687 -0.5377  0.1248 -0.0145
  740MOL0     C99780   4.520   5.883   8.733  0.6755 -0.3165 -0.0671
  740MOL0     C99781   4.634   5.882   8.633  0.9208  0.0734 -0.3192
  740MOL0     N99782   4.731   5.966   8.676 -0.3206  0.2072 -0.2634
  740MOL0     C99783   4.824   5.934   8.771  0.1015  1.0212  0.1430
  740MOL0     C99784   4.899   6.048   8.792 -0.3675 -0.5881  0.7455
  740MOL0     C99785   4.994   6.082   8.904  0.3091 -0.5512  0.2568
  740MOL0     C99786   5.137   6.043   8.864  0.3479  0.9825 -0.2587
  740MOL0     C99787   5.246   6.099   8.950 -0.0057 -0.3677  0.4596
  740MOL0     C99788   5.385   6.051   8.921 -0.7641  0.2240 -0.7789
  740MOL0     O99789   5.407   5.912   8.922  0.4465  0.6673 -0.9693
  740MOL0     C99790   5.525   5.866   8.869 -0.2224 -0.4685  0.0552
  740MOL0     C99791   5.636   5.950   8.843 -0.1572  0.4068  0.1788
  740MOL0     C99792   5.757   5.887   8.813  0.4652  0.4225 -0.5379
  740MOL0     C99793   5.770   5.744   8.802  0.7861 -0.5771  0.5008
  740MOL0     C99794   5.900   5.687   8.775 -1.1203  0.4202  0.1629
  740MOL0     O99795   5.904   5.556   8.733 -0.0649 -0.4244  0.0405
  740MOL0     C99796   6.024   5.520   8.670  0.0309  0.1284  0.2475
  740MOL0     C99797   6.147   5.486   8.738  0.2458 -0.2914  0.3594
  740MOL0     C99798   6.264   5.462   8.663 -0.1415  0.0734 -0.2972
  740MOL0     C99799   6.262   5.466   8.520 -0.2714 -0.6477 -0.0807
  740MOL0     O99800   6.379   5.425   8.464  0.4666 -0.3347  0.0445
  740MOL0     C99801   6.395   5.428   8.319  0.1709 -0.3527  0.1730
  740MOL0     C99802   6.425   5.566   8.253  0.9169 -0.1311 -0.3845
  740MOL0     C99803   6.505   5.540   8.125  0.3670  0.2152 -0.4480
  740MOL0     C99804   6.409   5.481   8.020  0.3067  0.1702  0.5147
  740MOL0     C99805   6.477   5.467   7.887 -0.1954 -0.3523 -0.2717
  740MOL0     C99806   6.550   5.333   7.857  0.3695 -0.0618 -0.3827
  740MOL0     C99807   6.649   5.347   7.745 -0.1425 -1.0613 -0.3282
  740MOL0     C99808   6.605   5.358   7.606  0.1898 -0.0529  0.3879
  740MOL0    Cl99809   6.746   5.299   7.506  0.3550  0.0782 -0.1660
  740MOL0     C99810   6.142   5.498   8.452  0.1764 -0.4864  0.0201
  740MOL0     C99811   6.021   5.514   8.525 -0.3059  0.1795 -0.1270
  740MOL0     O99812   6.000   5.763   8.783 -0.3367 -0.0893 -0.4346
  740MOL0     C99813   5.660   5.666   8.826  0.0512 -0.1681  0.1680
  740MOL0     C99814   5.536   5.725   8.857 -0.9859  0.2962 -0.1063
  740MOL0     N99815   4.851   6.143   8.698  0.6244 -0.0514 -0.3877
  740MOL0     N99816   4.763   6.082   8.626 -0.3019 -0.3786  0.9988
  740MOL0     C99817   3.610   6.045   8.844 -0.3777  0.6620 -0.2897
  740MOL0     C99818   3.480   6.104   8.836 -0.5719  0.1772 -0.3853
  740MOL0     C99819   3.016   6.102   8.750 -0.0302 -0.3809 -1.1465
  740MOL0     C99820   2.994   6.157   8.881  0.3603  0.0804 -0.3658
  740MOL0     C99821   2.862   6.162   8.931  0.4280 -0.2236  0.8238
  740MOL0     C99822   2.751   6.140   8.843 -0.4002  0.1897 -0.1562
  740MOL0     O99823   2.629   6.162   8.892 -0.1439  0.3761  1.0574
  740MOL0     C99824   2.517   6.135   8.803 -0.3382  0.3906  0.5208
  740MOL0     C99825   2.385   6.173   8.887  1.0178 -0.9926  0.8645
  740MOL0     C99826   2.378   6.073   9.012  1.3014 -0.4871 -0.2828
  740MOL0     C99827   2.234   6.084   9.071 -0.2208  0.7282 -0.2494
  740MOL0     C99828   2.226   6.018   9.202  0.3858 -0.0757 -0.1304
  740MOL0     C99829   2.214   5.954   9.303 -0.5591  0.0346 -0.4001
  740MOL0     C99830   2.778   6.088   8.720 -0.4341 -0.2418 -0.5355
  740MOL0     C99831   2.904   6.067   8.670 -1.1199 -0.0375  0.0582
  740MOL0     C99832   2.931   5.992   8.532  0.1636  0.2949 -0.2153
  740MOL0     H99833   3.295   5.824   8.812 -1.0161  2.1460 -1.8770
  740MOL0     H99834   3.505   5.714   8.838  2.0609 -0.3958  0.7803
  740MOL0     H99835   3.815   5.679   8.962  0.8144 -0.5107 -0.5291
  740MOL0     H99836   3.715   5.643   8.830  0.0039 -0.7777  1.2870
  740MOL0     H99837   3.893   5.719   8.665 -0.3662 -1.3004  0.3118
  740MOL0     H99838   3.930   5.583   8.768 -2.1025 -0.5088  0.4116
  740MOL0     H99839   4.048   5.742   8.927 -1.2722 -2.0241 -0.5926
  740MOL0     H99840   4.016   5.879   8.834 -1.5384  0.5923  0.6517
  740MOL0     H99841   4.182   5.653   8.719  0.7771  0.2079 -1.6055
  740MOL0     H99842   4.141   5.803   8.632 -0.8130  0.4382  0.4189
  740MOL0     H99843   4.268   5.921   8.821 -1.3205  0.3667 -0.1707
  740MOL0     H99844   4.315   5.762   8.880 -1.7211  0.4989  0.0763
  740MOL0     H99845   4.418   5.701   8.667 -3.8648 -1.4558  3.0224
  740MOL0     H99846   4.364   5.865   8.600  3.4515  1.1479 -0.9006
  740MOL0     H99847   4.558   5.831   8.822  1.3011 -1.0278 -0.7305
  740MOL0     H99848   4.508   5.989   8.756 -0.0147 -0.0417 -1.5816
  740MOL0     H99849   4.664   5.777   8.625 -1.5375 -0.7656  0.5841
  740MOL0     H99850   4.601   5.911   8.533  1.6168 -0.7837 -0.8113
  740MOL0     H99851   4.832   5.843   8.829  2.1931  1.9514  1.3884
  740MOL0     H99852   4.981   6.187   8.929 -3.0748 -1.0222  0.8748
  740MOL0     H99853   4.965   6.035   8.998 -1.5605 -1.0031 -0.5053
  740MOL0     H99854   5.129   5.935   8.856 -1.2640  0.8908  1.7236
  740MOL0     H99855   5.150   6.091   8.767 -1.1132  0.6779 -0.6251
  740MOL0     H99856   5.229   6.089   9.058  2.4455 -0.6578  0.8710
  740MOL0     H99857   5.236   6.206   8.931 -0.9739 -0.4753  0.3085
  740MOL0     H99858   5.450   6.093   8.997 -1.0356 -0.2862 -0.2546
  740MOL0     H99859   5.420   6.079   8.821  0.8341 -1.1320 -0.6526
  740MOL0     H99860   5.629   6.056   8.864 -2.8562  0.1478  0.9306
  740MOL0     H99861   5.843   5.945   8.782  1.9756 -0.8193  1.1467
  740MOL0     H99862   6.159   5.490   8.846 -0.7440 -0.1683  0.4674
  740MOL0     H99863   6.353   5.448   8.723 -2.2517  0.6743  3.2194
  740MOL0     H99864   6.478   5.357   8.320 -0.3650 -0.9795  1.4956
  740MOL0     H99865   6.314   5.382   8.262 -0.3293  0.4464  0.2304
  740MOL0     H99866   6.334   5.625   8.238  0.9260  0.9067  2.7888
  740MOL0     H99867   6.493   5.618   8.322  3.3393 -0.9100 -2.0452
  740MOL0     H99868   6.550   5.633   8.088  0.2915 -0.7982 -3.3652
  740MOL0     H99869   6.592   5.477   8.147 -0.0966  0.5403  2.6703
  740MOL0     H99870   6.331   5.556   8.010  0.7679  0.5554 -0.2883
  740MOL0     H99871   6.368   5.388   8.061  0.6573 -0.9872 -1.5817
  740MOL0     H99872   6.550   5.548   7.881  0.2297 -0.7800 -1.0839
  740MOL0     H99873   6.397   5.491   7.815  0.0373 -2.2891 -1.2609
  740MOL0     H99874   6.596   5.314   7.954 -1.2489  0.2689  0.4878
  740MOL0     H99875   6.477   5.256   7.833 -0.7332  1.1811 -1.1905
  740MOL0     H99876   6.696   5.248   7.741  1.6636 -0.3575  1.5023
  740MOL0     H99877   6.714   5.431   7.771 -1.0007 -1.0676  2.0984
  740MOL0     H99878   6.525   5.285   7.592  0.8515 -0.8525  0.7013
  740MOL0     H99879   6.569   5.458   7.578 -1.0094 -1.1844 -2.5540
  740MOL0     H99880   6.143   5.507   8.344 -1.1450 -0.3624 -0.0006
  740MOL0     H99881   5.923   5.526   8.481 -0.8063  0.6792  1.0764
  740MOL0     H99882   5.657   5.557   8.832 -0.3504 -0.1253  0.9280
  740MOL0     H99883   5.452   5.659   8.879 -2.8550  3.3107  2.8395
  740MOL0     H99884   3.702   6.099   8.864  1.2686 -2.4477  1.3313
  740MOL0     H99885   3.471   6.211   8.846  0.0464  0.3601 -1.5865
  740MOL0     H99886   3.082   6.181   8.941 -0.0143  1.5077 -0.3641
  740MOL0     H99887   2.843   6.204   9.029  1.7110 -0.1343  1.0535
  740MOL0     H99888   2.515   6.032   8.766  0.4732  0.0382  1.4265
  740MOL0     H99889   2.521   6.197   8.713  0.7892 -0.7030 -0.2063
  740MOL0     H99890   2.298   6.168   8.821  0.0094 -0.8497  2.1498
  740MOL0     H99891   2.397   6.272   8.931  1.9564  0.0661 -1.6293
  740MOL0     H99892   2.457   6.094   9.085  3.2031 -3.1886 -1.3593
  740MOL0     H99893   2.397   5.969   8.981  2.0626 -0.9640  1.5955
  740MOL0     H99894   2.208   6.190   9.082 -0.5231  0.7244 -0.8565
  740MOL0     H99895   2.163   6.037   9.002  1.7678 -1.4094 -0.9377
  740MOL0     H99896   2.212   5.884   9.384  1.1707 -1.4632 -1.5392
  740MOL0     H99897   2.695   6.058   8.656  0.2121 -0.8085 -1.1333
  740MOL0     H99898   3.017   5.924   8.536 -0.7001 -0.9384 -1.6395
  740MOL0     H99899   2.838   5.949   8.495 -1.0230  1.5227  1.1995
  740MOL0     H99900   2.965   6.067   8.460  4.1596 -0.1201  0.9825
  741MOL0     O99901   0.485   3.185   8.001 -0.3867  0.3189  0.0800
  741MOL0     C99902   0.386   3.126   7.958  0.3611 -0.3004  0.1980
  741MOL0     O99903   0.387   2.995   7.916  0.6869  0.8613 -0.3213
  741MOL0     C99904   0.503   2.923   7.938  0.8357  0.9780  0.1846
  741MOL0     C99905   0.553   2.842   7.833 -0.9055  0.3703  0.3642
  741MOL0     C99906   0.660   2.767   7.848 -0.9491  1.6455 -0.7022
  741MOL0     C99907   0.714   2.751   7.982  0.0347  0.0499 -0.6995
  741MOL0     O99908   0.829   2.668   7.997  0.5792 -0.1435 -0.4201
  741MOL0     C99909   0.838   2.581   8.109 -0.1415 -0.7317 -0.3390
  741MOL0     C99910   0.934   2.478   8.068  0.0893 -1.0236 -0.1165
  741MOL0     C99911   1.077   2.532   8.073  0.0693 -0.2811 -0.1803
  741MOL0     C99912   1.146   2.493   7.937 -0.5225  0.4283  0.8517
  741MOL0     C99913   1.300   2.494   7.933 -0.0457  0.3748  0.5773
  741MOL0     C99914   1.340   2.449   7.791 -0.1254  0.3645  0.9395
  741MOL0     C99915   1.495   2.441   7.766 -0.2607 -0.0022 -0.0286
  741MOL0     C99916   1.512   2.428   7.616 -0.1553 -0.6446 -1.1620
  741MOL0     N99917   1.647   2.477   7.576  0.2118  0.5975  0.0795
  741MOL0     C99918   1.761   2.458   7.644  0.9830 -0.2254  0.1758
  741MOL0     C99919   1.859   2.501   7.569  0.1297  0.3239  0.7082
  741MOL0     C99920   2.007   2.514   7.613  0.3619  0.3698 -0.3055
  741MOL0     C99921   2.066   2.642   7.549  0.1116 -0.2469 -0.3688
  741MOL0     C99922   2.182   2.713   7.625  0.6691 -0.0771 -0.2558
  741MOL0     C99923   2.228   2.849   7.554 -0.8274 -0.5916  0.3346
  741MOL0     O99924   2.329   2.921   7.631 -0.1227  0.6021 -0.1165
  741MOL0     C99925   2.460   2.880   7.637 -0.8545 -0.5980  0.8717
  741MOL0     C99926   2.541   2.936   7.732  0.6762 -0.8184  0.0211
  741MOL0     C99927   2.676   2.913   7.736  0.1262  0.7358  0.4107
  741MOL0     C99928   2.750   2.819   7.651  0.4086 -0.3748 -0.0288
  741MOL0     C99929   2.901   2.804   7.670  0.2750 -0.4638  0.5010
  741MOL0     O99930   2.942   2.682   7.640 -0.3832 -0.2908 -0.0200
  741MOL0     C99931   3.080   2.648   7.666 -0.1186  0.0014 -0.0459
  741MOL0     C99932   3.100   2.513   7.700 -0.3816  0.0552  0.3582
  741MOL0     C99933   3.225   2.462   7.722 -0.1593  0.8309 -0.1760
  741MOL0     C99934   3.332   2.543   7.715  0.1091  0.6913 -1.0647
  741MOL0     O99935   3.458   2.497   7.733  0.4441 -0.2601  1.0518
  741MOL0     C99936   3.483   2.409   7.840  0.2246 -0.1845  0.0677
  741MOL0     C99937   3.632   2.365   7.829 -0.2760 -0.2333 -0.5228
  741MOL0     C99938   3.724   2.491   7.842 -1.1891  0.3064  0.8660
  741MOL0     C99939   3.873   2.456   7.851  0.1266 -0.0150 -0.7572
  741MOL0     C99940   3.975   2.569   7.825  0.7624 -0.9675  0.4762
  741MOL0     C99941   4.109   2.521   7.870  0.6822  0.0819 -0.2109
  741MOL0     C99942   4.200   2.644   7.840 -0.7870  0.5954 -0.4795
  741MOL0     C99943   4.341   2.607   7.877 -0.6614  0.1277  0.6160
  741MOL0    Cl99944   4.424   2.506   7.757 -0.2833  0.2908  0.3445
  741MOL0     C99945   3.321   2.676   7.681  0.4634  0.4375  0.0707
  741MOL0     C99946   3.191   2.733   7.653  0.0121  0.4821 -0.3779
  741MOL0     O99947   2.967   2.893   7.724 -0.4658 -0.2836  0.8257
  741MOL0     C99948   2.659   2.760   7.564  0.3620 -0.0032  0.5495
  741MOL0     C99949   2.523   2.788   7.550  0.5628  0.2996 -0.0092
  741MOL0     N99950   1.805   2.546   7.448  0.3722 -0.2269 -0.3766
  741MOL0     N99951   1.680   2.535   7.456  0.7874 -0.3168 -0.4736
  741MOL0     C99952   0.663   2.822   8.087  1.0179  0.0492  0.1401
  741MOL0     C99953   0.556   2.912   8.068  0.6201 -0.3185  0.1558
  741MOL0     C99954   0.259   3.202   7.947 -0.3898  0.3045  0.1781
  741MOL0     C99955   0.149   3.123   7.895  0.1602 -1.0127  0.3745
  741MOL0     C99956   0.022   3.178   7.873  0.2690  0.6777  0.0595
  741MOL0     C99957  -0.013   3.309   7.906  0.2288 -0.0927 -0.7573
  741MOL0     O99958  -0.136   3.367   7.894  0.0864 -0.0969 -0.1551
  741MOL0     C99959  -0.169   3.509   7.928 -0.2787  0.4467 -0.5349
  741MOL0     C99960  -0.310   3.540   7.872  0.3557  0.2107 -0.0197
  741MOL0     C99961  -0.419   3.427   7.920  0.2351 -0.0401  0.5879
  741MOL0     C99962  -0.564   3.483   7.924  0.1006 -0.3108  0.1117
  741MOL0     C99963  -0.571   3.559   8.051  0.0463 -0.4272 -0.0472
  741MOL0     C99964  -0.577   3.601   8.166  0.1759  0.2999 -0.1556
  741MOL0     C99965   0.093   3.387   7.966 -0.8384  0.4104  0.1883
  741MOL0     C99966   0.227   3.332   7.981 -0.5411  0.1436  0.0042
  741MOL0     C99967   0.341   3.425   8.008  0.1477  0.6010  0.5816
  741MOL0     H99968   0.506   2.849   7.735  0.3288 -0.3262 -0.2994
  741MOL0     H99969   0.700   2.710   7.764 -0.3025  3.2160 -1.5151
  741MOL0     H99970   0.866   2.634   8.200 -1.9625 -2.5837  1.4170
  741MOL0     H99971   0.742   2.538   8.138 -0.9709  2.1866  1.7447
  741MOL0     H99972   0.916   2.449   7.964 -1.4593  3.3845 -1.2963
  741MOL0     H99973   0.928   2.405   8.149 -0.6805 -0.6297  0.1942
  741MOL0     H99974   1.127   2.489   8.160  0.2992 -1.4601 -0.8790
  741MOL0     H99975   1.086   2.640   8.086  0.6096 -0.4916  1.2978
  741MOL0     H99976   1.126   2.390   7.906 -1.3570  1.1654 -1.2740
  741MOL0     H99977   1.110   2.561   7.860  3.1709  2.0580  0.3525
  741MOL0     H99978   1.336   2.596   7.949 -0.7219  0.4848  1.4812
  741MOL0     H99979   1.342   2.426   8.007 -1.2743 -0.1782  0.7912
  741MOL0     H99980   1.295   2.352   7.768  1.8382 -0.2429 -0.6220
  741MOL0     H99981   1.291   2.513   7.717  1.5100  1.7190  0.9575
  741MOL0     H99982   1.546   2.364   7.825 -2.8087 -0.2783  1.9457
  741MOL0     H99983   1.533   2.537   7.802  1.0285  0.4571 -2.4359
  741MOL0     H99984   1.504   2.326   7.579  0.0037 -0.8825 -0.5509
  741MOL0     H99985   1.447   2.503   7.568  1.5584  0.6340 -1.6069
  741MOL0     H99986   1.780   2.418   7.743 -0.4840  1.0693  1.0267
  741MOL0     H99987   2.021   2.507   7.721 -0.7435 -0.9505 -0.2257
  741MOL0     H99988   2.064   2.428   7.576 -0.4167 -0.5153  0.4919
  741MOL0     H99989   2.106   2.611   7.451  1.0543  0.5389 -0.2427
  741MOL0     H99990   1.987   2.715   7.534  3.1310  2.7082 -4.0004
  741MOL0     H99991   2.267   2.645   7.640  0.4887 -0.5555 -1.3221
  741MOL0     H99992   2.154   2.738   7.728  0.6534  0.8057 -0.4663
  741MOL0     H99993   2.134   2.903   7.538 -0.0778  0.8103  0.4909
  741MOL0     H99994   2.259   2.832   7.451  0.0980  1.2163  0.2765
  741MOL0     H99995   2.502   3.005   7.806 -0.1907 -1.6391  0.3384
  741MOL0     H99996   2.735   2.965   7.811  2.3519 -0.8505 -0.1282
  741MOL0     H99997   3.014   2.447   7.698  0.8641 -1.7340  1.7996
  741MOL0     H99998   3.233   2.356   7.747  2.8329  0.7375 -1.1571
  741MOL0     H99999   3.471   2.467   7.932 -3.4178  2.1114 -1.6121
  741MOL0     H    0   3.417   2.322   7.846  0.2222 -0.2282 -0.4964
  741MOL0     H    1   3.658   2.292   7.905  3.2019  1.3916  0.0473
  741MOL0     H    2   3.648   2.310   7.736 -1.4908 -0.1051 -0.8269
  741MOL0     H    3   3.714   2.540   7.745  2.2069 -0.5610 -0.0555
  741MOL0     H    4   3.700   2.546   7.934  1.6132  0.4230  1.6361
  741MOL0     H    5   3.883   2.374   7.779 -3.4716 -0.9468 -0.4295
  741MOL0     H    6   3.873   2.419   7.954  2.1506 -1.0197 -1.0588
  741MOL0     H    7   3.936   2.654   7.882 -0.3073 -1.5950  0.7081
  741MOL0     H    8   3.986   2.603   7.722  0.4987  0.0372  0.7687
  741MOL0     H    9   4.111   2.483   7.973  1.8944  2.3110  0.6579
  741MOL0     H   10   4.148   2.447   7.799  2.5631  1.5296 -0.7726
  741MOL0     H   11   4.173   2.730   7.902 -1.7251 -1.2440  1.8108
  741MOL0     H   12   4.200   2.671   7.734 -1.1409  0.0449 -0.6259
  741MOL0     H   13   4.397   2.700   7.895 -0.2258  0.2666 -1.2837
  741MOL0     H   14   4.348   2.552   7.971 -2.0846  0.3264  0.8602
  741MOL0     H   15   3.420   2.721   7.678  1.1690 -1.0766  0.1913
  741MOL0     H   16   3.178   2.835   7.621 -0.8294  1.8909  3.7711
  741MOL0     H   17   2.697   2.681   7.499 -1.9448  0.0085 -0.9034
  741MOL0     H   18   2.466   2.728   7.480  1.7060  0.9965 -1.6021
  741MOL0     H   19   0.717   2.816   8.181 -0.0764 -0.0801  0.7765
  741MOL0     H   20   0.501   2.971   8.141  0.3747  2.9944 -2.4466
  741MOL0     H   21   0.154   3.016   7.882 -0.4340 -1.0919  0.7668
  741MOL0     H   22  -0.054   3.111   7.833  1.1713 -0.1468 -0.3336
  741MOL0     H   23  -0.101   3.575   7.873 -0.5515  3.2849  2.2632
  741MOL0     H   24  -0.155   3.529   8.035  2.2563  0.1897 -0.7425
  741MOL0     H   25  -0.308   3.555   7.764  1.2805 -0.5918 -0.1189
  741MOL0     H   26  -0.339   3.640   7.909 -1.2966  0.2795 -1.3610
  741MOL0     H   27  -0.402   3.381   8.017  3.0692  1.8209  1.1253
  741MOL0     H   28  -0.423   3.355   7.838 -0.6723  0.9500 -0.2722
  741MOL0     H   29  -0.590   3.550   7.841  2.4365  0.2717 -0.2142
  741MOL0     H   30  -0.636   3.401   7.921 -1.3302  0.9214 -1.7011
  741MOL0     H   31  -0.589   3.622   8.271 -3.0593 -0.3436 -0.2953
  741MOL0     H   32   0.085   3.493   7.991  0.9756  0.5600  0.2728
  741MOL0     H   33   0.386   3.402   8.105 -2.2246  0.5596  1.7454
  741MOL0     H   34   0.416   3.408   7.930 -1.0933 -0.5460 -0.4112
  741MOL0     H   35   0.307   3.528   7.991  2.5832  1.5036  0.6817
  742MOL0     O   36  10.850   7.654   7.524  0.3672  0.0131  0.9425
  742MOL0     C   37  10.826   7.651   7.647 -0.0779  0.9213  0.4449
  742MOL0     O   38  10.920   7.669   7.748 -0.0319 -0.6504 -0.5758
  742MOL0     C   39  11.052   7.704   7.718  0.6500  0.1213 -0.0124
  742MOL0     C   40  11.080   7.798   7.626 -0.4732 -0.7048 -0.4107
  742MOL0     C   41  11.210   7.829   7.585 -0.5301 -0.4771  0.3016
  742MOL0     C   42  11.312   7.763   7.651  0.6367 -0.2272  0.3886
  742MOL0     O   43  11.440   7.790   7.627 -0.9397 -0.1851 -0.3385
  742MOL0     C   44  11.461   7.923   7.580 -0.2481 -0.1395 -0.7823
  742MOL0     C   45  11.610   7.949   7.566 -0.6791  0.0004  0.0843
  742MOL0     C   46  11.662   7.847   7.451 -0.5834 -0.2977 -0.6969
  742MOL0     C   47  11.813   7.856   7.430 -0.2674  0.2383  0.3440
  742MOL0     C   48  11.901   7.750   7.507  0.5605  0.4018 -0.2759
  742MOL0     C   49  12.032   7.813   7.557 -0.2086 -0.5766  1.4306
  742MOL0     C   50  12.120   7.721   7.636 -0.1440  0.2086  0.2095
  742MOL0     C   51  12.186   7.608   7.552  0.0253  0.1462 -0.1347
  742MOL0     N   52  12.277   7.633   7.443  0.7273  0.5149 -0.0337
  742MOL0     C   53  12.406   7.664   7.460 -0.2830 -0.3667 -0.0496
  742MOL0     C   54  12.445   7.727   7.344 -0.2607 -0.0994 -0.0357
  742MOL0     C   55  12.564   7.806   7.318 -0.6669 -0.5965 -0.1375
  742MOL0     C   56  12.702   7.759   7.375  0.3115  0.0871 -0.5346
  742MOL0     C   57  12.737   7.621   7.318 -0.2288 -0.8347 -0.0984
  742MOL0     C   58  12.875   7.577   7.354 -0.2422  0.0546  0.1672
  742MOL0     O   59  12.884   7.561   7.500  0.4042 -0.7517 -0.4457
  742MOL0     C   60  13.016   7.560   7.549 -0.1995 -0.5036  0.1909
  742MOL0     C   61  13.022   7.583   7.684 -0.0032 -0.3749 -0.0424
  742MOL0     C   62  13.144   7.586   7.753 -0.5086  0.1066 -0.3222
  742MOL0     C   63  13.274   7.560   7.695  0.3229  0.4657  0.9935
  742MOL0     C   64  13.396   7.540   7.771  0.1993 -0.0748 -0.3862
  742MOL0     O   65  13.505   7.510   7.705  0.0520 -0.4926  0.3280
  742MOL0     C   66  13.615   7.477   7.781  0.5880 -0.4507  0.1741
  742MOL0     C   67  13.623   7.366   7.861 -0.3384 -0.1987 -1.0627
  742MOL0     C   68  13.742   7.343   7.934 -1.0397 -1.1348 -0.2925
  742MOL0     C   69  13.849   7.430   7.934 -0.7181 -0.6745 -0.2350
  742MOL0     O   70  13.960   7.419   8.011 -0.7880 -0.6452 -0.1866
  742MOL0     C   71  14.017   7.284   8.030 -0.2388  0.0636  0.2494
  742MOL0     C   72  14.159   7.308   8.093  0.2164  0.0405 -0.2416
  742MOL0     C   73  14.258   7.189   8.057  0.2216  0.3096 -0.0747
  742MOL0     C   74  14.403   7.220   8.075  0.1835 -0.0696  0.1432
  742MOL0     C   75  14.493   7.097   8.040 -0.3882 -0.4241  0.1859
  742MOL0     C   76  14.575   7.065   8.169 -0.7734 -1.2073  0.0248
  742MOL0     C   77  14.681   6.958   8.136  0.0343  0.0601  0.0626
  742MOL0     C   78  14.772   6.943   8.253  1.0231 -0.3717 -0.6772
  742MOL0    Cl   79  14.858   6.798   8.213 -0.1257  0.0835 -0.4442
  742MOL0     C   80  13.846   7.530   7.839 -0.3471  0.2334 -0.1379
  742MOL0     C   81  13.729   7.562   7.770  0.3643 -0.8849 -0.2450
  742MOL0     O   82  13.398   7.572   7.892 -0.3072 -0.0508 -0.2908
  742MOL0     C   83  13.261   7.529   7.556  0.4044  0.0216  0.9141
  742MOL0     C   84  13.138   7.534   7.484  0.1035  0.4774 -0.3168
  742MOL0     N   85  12.339   7.732   7.263 -0.4024 -0.9456  0.2223
  742MOL0     N   86  12.230   7.685   7.327 -0.9512 -0.3513  0.0488
  742MOL0     C   87  11.279   7.667   7.751 -0.4122 -0.4343 -0.3079
  742MOL0     C   88  11.149   7.637   7.783  0.6058  1.1011 -0.5945
  742MOL0     C   89  10.688   7.625   7.696  0.3403 -0.2296  1.0543
  742MOL0     C   90  10.608   7.543   7.610  0.0067  1.0476 -0.4087
  742MOL0     C   91  10.487   7.486   7.653  0.6437  1.0544 -0.0151
  742MOL0     C   92  10.439   7.517   7.779  1.0375  0.2592  0.0951
  742MOL0     O   93  10.311   7.468   7.803 -0.2964 -0.1868  0.2484
  742MOL0     C   94  10.232   7.532   7.904  0.5539 -0.2172 -0.4698
  742MOL0     C   95  10.089   7.489   7.888  0.3921  0.0253  0.9446
  742MOL0     C   96  10.033   7.507   7.750 -0.8632  1.0259 -0.6597
  742MOL0     C   97   9.876   7.493   7.754  0.2599  0.8158  0.7690
  742MOL0     C   98   9.801   7.612   7.801  0.5043 -0.0449  0.1355
  742MOL0     C   99   9.757   7.700   7.869  0.1997  0.4498 -0.0248
  742MOL0     C  100  10.512   7.606   7.862 -0.4909 -0.1069 -0.7911
  742MOL0     C  101  10.640   7.654   7.825 -0.4663  0.3610  0.4788
  742MOL0     C  102  10.704   7.755   7.913 -0.3406  0.2448  0.9185
  742MOL0     H  103  11.002   7.841   7.565  0.7466  1.0374 -0.8267
  742MOL0     H  104  11.231   7.900   7.505  1.5161 -1.0413  0.2727
  742MOL0     H  105  11.419   7.932   7.480  0.6476 -2.1631 -1.3924
  742MOL0     H  106  11.431   7.998   7.654  0.2502 -2.1917  1.6566
  742MOL0     H  107  11.667   7.934   7.659 -2.9452 -0.6835  1.4397
  742MOL0     H  108  11.627   8.052   7.533 -2.2089  0.8797  1.8560
  742MOL0     H  109  11.617   7.866   7.353  0.4186 -1.6119 -1.4526
  742MOL0     H  110  11.638   7.743   7.475  0.9238 -0.4762  0.1844
  742MOL0     H  111  11.831   7.838   7.323 -0.0067  0.6905  0.3091
  742MOL0     H  112  11.847   7.957   7.456 -1.8657  0.2119  2.7806
  742MOL0     H  113  11.842   7.718   7.592 -3.2137 -0.4017 -2.9555
  742MOL0     H  114  11.922   7.667   7.439  2.9665  1.4616 -0.9409
  742MOL0     H  115  12.086   7.842   7.466 -2.3262 -2.1304 -0.4339
  742MOL0     H  116  12.010   7.903   7.614  0.2896  1.2060 -1.0183
  742MOL0     H  117  12.070   7.678   7.723  0.5194  2.9709  2.0687
  742MOL0     H  118  12.207   7.771   7.679 -1.2414  1.5437  0.9530
  742MOL0     H  119  12.237   7.544   7.624  1.2784 -0.1359 -1.2235
  742MOL0     H  120  12.105   7.545   7.515  0.1790  0.6559 -1.3837
  742MOL0     H  121  12.468   7.657   7.549 -0.4759 -1.0066  0.0379
  742MOL0     H  122  12.573   7.807   7.209  2.4482 -1.4598  0.0160
  742MOL0     H  123  12.550   7.910   7.349  0.4465 -0.4805 -0.0076
  742MOL0     H  124  12.778   7.832   7.346  0.3973  0.2335  0.0356
  742MOL0     H  125  12.706   7.747   7.484  2.0949  0.6008 -0.5045
  742MOL0     H  126  12.742   7.638   7.210 -2.6643 -0.3367 -0.1747
  742MOL0     H  127  12.667   7.545   7.353 -1.0046  0.5819  1.6022
  742MOL0     H  128  12.946   7.657   7.327  0.0873 -0.9257 -2.1237
  742MOL0     H  129  12.906   7.488   7.298  1.7864  0.8561 -0.0917
  742MOL0     H  130  12.928   7.603   7.733 -0.9932 -2.6727 -0.8231
  742MOL0     H  131  13.126   7.593   7.860 -1.6530 -1.2742 -0.3974
  742MOL0     H  132  13.534   7.305   7.876  1.4841 -2.1959  3.4750
  742MOL0     H  133  13.751   7.250   7.990 -0.8653 -1.9681 -1.6503
  742MOL0     H  134  13.961   7.220   8.099  0.5144  0.0623  0.8786
  742MOL0     H  135  14.033   7.244   7.930  0.7544 -1.3684  0.9513
  742MOL0     H  136  14.208   7.399   8.059 -0.1644  0.6334  0.7546
  742MOL0     H  137  14.142   7.317   8.201 -4.6671 -1.9135 -0.5948
  742MOL0     H  138  14.234   7.101   8.117  1.4401 -0.8662 -1.2429
  742MOL0     H  139  14.243   7.168   7.950 -1.3106  2.1428 -0.2716
  742MOL0     H  140  14.411   7.255   8.178 -3.5072  1.2214  0.1243
  742MOL0     H  141  14.426   7.302   8.007 -4.2725 -1.4762 -3.6356
  742MOL0     H  142  14.555   7.128   7.956 -1.7835  3.5175  0.4028
  742MOL0     H  143  14.430   7.012   8.014  0.5277 -1.0604  0.0130
  742MOL0     H  144  14.632   7.152   8.204 -0.7052  0.1845 -3.2319
  742MOL0     H  145  14.504   7.030   8.245 -0.8174  2.4800  1.8704
  742MOL0     H  146  14.738   6.984   8.046 -1.0627  2.7169  0.0454
  742MOL0     H  147  14.619   6.870   8.117 -1.3845  0.2164  3.2720
  742MOL0     H  148  14.838   7.029   8.242  0.3015  0.3115  0.2065
  742MOL0     H  149  14.727   6.952   8.352  1.7174  1.1253 -0.4609
  742MOL0     H  150  13.933   7.594   7.838 -0.2041  0.4525  4.5898
  742MOL0     H  151  13.731   7.639   7.693 -2.0154  1.0292  1.4801
  742MOL0     H  152  13.352   7.510   7.500 -0.8144 -0.3607 -1.0538
  742MOL0     H  153  13.146   7.528   7.376  0.5899 -2.0348 -0.2210
  742MOL0     H  154  11.357   7.613   7.804 -0.7856 -1.4742 -0.7965
  742MOL0     H  155  11.109   7.559   7.846 -1.8344  1.1243 -2.0090
  742MOL0     H  156  10.648   7.517   7.512 -0.2355 -0.9872 -0.0205
  742MOL0     H  157  10.426   7.434   7.580 -0.5357  0.9517  1.0035
  742MOL0     H  158  10.246   7.640   7.892  1.2749  0.0758  2.3133
  742MOL0     H  159  10.270   7.491   7.998 -0.6901  1.9655  1.0744
  742MOL0     H  160  10.026   7.548   7.955 -1.2426  1.8587 -1.9507
  742MOL0     H  161  10.081   7.382   7.904 -1.7852 -0.4492 -2.3493
  742MOL0     H  162  10.076   7.425   7.691  0.4706 -0.0262  1.6345
  742MOL0     H  163  10.073   7.600   7.706  1.0964 -0.0687 -1.3239
  742MOL0     H  164   9.848   7.458   7.654  0.5511  1.3094  0.5162
  742MOL0     H  165   9.855   7.416   7.829 -2.1157  1.2620  0.6403
  742MOL0     H  166   9.713   7.762   7.944 -0.2345  0.5803 -0.3789
  742MOL0     H  167  10.470   7.641   7.956  0.6303 -1.5757  0.3085
  742MOL0     H  168  10.797   7.718   7.957  0.3979  0.6822 -0.2291
  742MOL0     H  169  10.737   7.830   7.840 -0.5464  0.6717  1.2587
  742MOL0     H  170  10.635   7.807   7.981 -1.0775  1.0673 -0.4133
  743MOL0     O  171   4.999   4.903   2.951 -0.1184 -0.2384  0.3537
  743MOL0     C  172   4.918   4.815   2.982 -0.6880  0.2258  0.3233
  743MOL0     O  173   4.937   4.682   2.947 -0.6459 -0.1689  0.4458
  743MOL0     C  174   5.026   4.663   2.839 -0.1971 -0.1904 -0.0564
  743MOL0     C  175   5.162   4.665   2.872 -0.2963  0.6808  0.0991
  743MOL0     C  176   5.248   4.637   2.765  0.7536 -0.0706  0.0746
  743MOL0     C  177   5.209   4.633   2.629 -0.0013  0.2606 -0.3208
  743MOL0     O  178   5.306   4.618   2.531 -0.4405 -0.9744 -0.2265
  743MOL0     C  179   5.260   4.582   2.402  0.1392 -0.1133  0.3001
  743MOL0     C  180   5.369   4.566   2.302 -0.1253 -0.3244  0.3282
  743MOL0     C  181   5.460   4.447   2.322  0.1738 -0.1816  0.6117
  743MOL0     C  182   5.573   4.461   2.232  0.0241 -0.0141 -0.2741
  743MOL0     C  183   5.646   4.332   2.219 -0.2650  0.7070  0.2970
  743MOL0     C  184   5.771   4.366   2.141  0.1253 -0.4237 -0.5346
  743MOL0     C  185   5.852   4.251   2.083 -0.1017  0.1983 -0.5194
  743MOL0     C  186   5.921   4.185   2.200  0.1401 -0.3579 -0.4340
  743MOL0     N  187   5.985   4.066   2.147 -0.0366 -0.3439 -0.2228
  743MOL0     C  188   6.077   4.056   2.046 -0.4595 -0.0405  0.8542
  743MOL0     C  189   6.109   3.923   2.034  0.6139 -0.0209  0.3054
  743MOL0     C  190   6.210   3.838   1.949  0.3647 -0.4018 -0.1468
  743MOL0     C  191   6.357   3.854   1.998  0.1541 -0.5363  0.3589
  743MOL0     C  192   6.413   3.983   1.931  0.3693 -0.2299 -0.3305
  743MOL0     C  193   6.568   3.981   1.938 -0.3845 -0.0754  0.4484
  743MOL0     O  194   6.618   3.971   2.074  0.5477 -0.6475 -0.0826
  743MOL0     C  195   6.750   3.957   2.095 -1.2952 -0.8040  0.0061
  743MOL0     C  196   6.852   3.999   2.006 -0.3716 -0.0799 -0.3403
  743MOL0     C  197   6.990   3.996   2.044 -0.4165 -0.4172 -0.6948
  743MOL0     C  198   7.032   3.932   2.160 -0.3497 -0.4099 -1.0507
  743MOL0     C  199   7.175   3.934   2.197 -0.0418  0.3346  0.9800
  743MOL0     O  200   7.214   3.863   2.312  0.3558  0.2017  0.0484
  743MOL0     C  201   7.338   3.820   2.337 -0.3750  0.4297  0.9523
  743MOL0     C  202   7.381   3.813   2.468  0.8192  0.2877 -0.2984
  743MOL0     C  203   7.508   3.756   2.489 -0.2834 -0.1665 -0.3968
  743MOL0     C  204   7.588   3.705   2.389  1.0546  0.3675  0.3088
  743MOL0     O  205   7.701   3.641   2.446 -0.7935 -0.0426  0.1071
  743MOL0     C  206   7.799   3.594   2.356  0.0961 -0.4084  0.1125
  743MOL0     C  207   7.770   3.451   2.312  0.1711  0.6080 -0.4224
  743MOL0     C  208   7.878   3.371   2.229 -0.9282 -1.2173  0.2531
  743MOL0     C  209   8.014   3.346   2.291  0.5973 -0.9525 -0.4656
  743MOL0     C  210   8.105   3.264   2.203  0.0068 -0.0202 -0.3639
  743MOL0     C  211   8.236   3.229   2.275 -0.3121 -0.2731 -0.0208
  743MOL0     C  212   8.344   3.183   2.183  0.0098 -0.3193  0.8260
  743MOL0     C  213   8.462   3.148   2.263  0.0569  0.4414 -0.9386
  743MOL0    Cl  214   8.555   3.288   2.326  0.2673 -0.4285  0.1339
  743MOL0     C  215   7.542   3.710   2.261 -0.2526  0.5962 -0.0388
  743MOL0     C  216   7.414   3.762   2.230 -0.3029 -0.3173  0.3537
  743MOL0     O  217   7.251   3.988   2.118 -0.6669  0.0642 -0.5371
  743MOL0     C  218   6.930   3.880   2.247 -0.4778 -0.4812 -0.1567
  743MOL0     C  219   6.789   3.902   2.216 -0.7927 -0.7473 -0.6015
  743MOL0     N  220   6.027   3.861   2.127 -0.2172  0.0372  0.3116
  743MOL0     N  221   5.948   3.943   2.191 -0.5397  0.5213  0.3584
  743MOL0     C  222   5.067   4.624   2.612 -0.2818  0.1821  0.7817
  743MOL0     C  223   4.974   4.633   2.712  0.1287 -0.2225 -0.3214
  743MOL0     C  224   4.794   4.845   3.063  0.1341 -0.7413  0.2811
  743MOL0     C  225   4.691   4.743   3.056 -0.0405  0.1020  0.1453
  743MOL0     C  226   4.575   4.752   3.136  0.6258 -0.3166 -0.3444
  743MOL0     C  227   4.565   4.860   3.220  0.8635  0.0679 -0.4819
  743MOL0     O  228   4.453   4.857   3.294  0.1318  0.6191 -0.2867
  743MOL0     C  229   4.395   4.986   3.326 -0.1042  0.1741 -0.4887
  743MOL0     C  230   4.393   4.982   3.482 -0.0154 -0.8511 -0.0894
  743MOL0     C  231   4.319   5.102   3.539  0.7259  0.0821 -0.2491
  743MOL0     C  232   4.307   5.103   3.693  0.2799 -0.1664  0.0546
  743MOL0     C  233   4.436   5.125   3.748 -0.8343 -0.6932 -0.2908
  743MOL0     C  234   4.546   5.155   3.795  0.0608 -0.1263 -0.4782
  743MOL0     C  235   4.662   4.965   3.216  0.2991  0.6004 -0.3997
  743MOL0     C  236   4.777   4.958   3.143  0.0959 -0.7027 -0.0416
  743MOL0     C  237   4.886   5.060   3.180  0.4748  0.5751  0.2208
  743MOL0     H  238   5.192   4.665   2.977 -0.5933 -0.0257  0.1948
  743MOL0     H  239   5.352   4.649   2.793  1.1448 -0.6543 -1.0839
  743MOL0     H  240   5.212   4.484   2.406 -2.1181  0.9910  3.0622
  743MOL0     H  241   5.193   4.654   2.354 -1.2685 -1.1990  0.5491
  743MOL0     H  242   5.434   4.654   2.312 -2.5560  1.6225  0.1926
  743MOL0     H  243   5.329   4.559   2.200  2.3352  0.4370 -0.7890
  743MOL0     H  244   5.408   4.354   2.298 -1.1843  0.4473  0.9758
  743MOL0     H  245   5.501   4.432   2.422  1.1445  1.9997  0.6126
  743MOL0     H  246   5.527   4.493   2.139 -2.5543  3.8390  2.0370
  743MOL0     H  247   5.633   4.544   2.269 -0.6090 -0.2302  1.3268
  743MOL0     H  248   5.676   4.289   2.315  0.7211 -0.7415 -0.6136
  743MOL0     H  249   5.589   4.253   2.169  0.4502  0.9257 -0.8977
  743MOL0     H  250   5.741   4.428   2.056  0.9280  2.1697  0.9778
  743MOL0     H  251   5.838   4.426   2.202 -0.1522 -1.8453  1.2434
  743MOL0     H  252   5.931   4.288   2.018  1.2623 -0.3138  0.7919
  743MOL0     H  253   5.787   4.182   2.029  0.1645 -1.0901  0.7603
  743MOL0     H  254   6.001   4.255   2.224 -0.2615  0.1283 -0.5140
  743MOL0     H  255   5.854   4.157   2.282  0.0292  0.3781 -0.2691
  743MOL0     H  256   6.124   4.144   2.003  2.9670 -1.9650  0.2877
  743MOL0     H  257   6.181   3.732   1.945  0.1407 -0.3333 -3.1242
  743MOL0     H  258   6.214   3.869   1.844 -0.9332 -3.6082 -1.2805
  743MOL0     H  259   6.364   3.839   2.106  1.5751 -1.8617  0.1298
  743MOL0     H  260   6.408   3.768   1.953 -2.3161 -2.2883  0.7336
  743MOL0     H  261   6.379   4.075   1.979  2.6607  0.7102 -0.3624
  743MOL0     H  262   6.389   3.985   1.824  1.3974 -0.0338 -0.5732
  743MOL0     H  263   6.598   4.074   1.888 -0.6771 -0.8159 -1.1642
  743MOL0     H  264   6.602   3.890   1.888  0.3303 -0.0365  0.8485
  743MOL0     H  265   6.825   4.057   1.919 -0.8625  0.0249 -0.1218
  743MOL0     H  266   7.067   4.030   1.976  1.1569  0.6077  1.5036
  743MOL0     H  267   7.315   3.861   2.539  1.7091 -0.0070  0.7482
  743MOL0     H  268   7.548   3.749   2.590  1.0550 -2.0082 -1.0039
  743MOL0     H  269   7.815   3.664   2.274 -1.0250 -0.6229 -0.3164
  743MOL0     H  270   7.896   3.591   2.406  0.5910  2.6642 -0.4866
  743MOL0     H  271   7.740   3.388   2.396 -0.5599  0.7309 -0.5792
  743MOL0     H  272   7.682   3.460   2.246 -1.1297 -1.8636  0.8291
  743MOL0     H  273   7.839   3.271   2.210  1.6333 -2.7804  2.3833
  743MOL0     H  274   7.900   3.424   2.136 -1.3149  0.8869  1.2928
  743MOL0     H  275   8.008   3.299   2.390 -0.0078 -1.8668 -0.9273
  743MOL0     H  276   8.057   3.445   2.309 -0.5307 -0.3680 -0.9596
  743MOL0     H  277   8.128   3.331   2.120  0.5958  1.0761  0.6523
  743MOL0     H  278   8.059   3.170   2.169  1.4511 -1.4737  1.4334
  743MOL0     H  279   8.281   3.316   2.322  3.0927 -2.7499  1.6793
  743MOL0     H  280   8.213   3.160   2.356 -1.0968  1.1329  0.9870
  743MOL0     H  281   8.371   3.255   2.106  0.0914  1.8194  2.7530
  743MOL0     H  282   8.315   3.091   2.131 -1.4978  0.4753  0.1895
  743MOL0     H  283   8.428   3.100   2.355  1.7508  0.9617  0.0102
  743MOL0     H  284   8.522   3.079   2.203  1.6928  0.3585  0.7127
  743MOL0     H  285   7.599   3.666   2.180 -2.4175 -1.7081 -0.4240
  743MOL0     H  286   7.380   3.747   2.128  0.6588  1.7430 -0.3269
  743MOL0     H  287   6.961   3.826   2.336 -0.2389  0.2203  0.1957
  743MOL0     H  288   6.710   3.858   2.275  0.2931 -0.2630  1.2758
  743MOL0     H  289   5.026   4.629   2.512 -1.6541  0.3477  1.3251
  743MOL0     H  290   4.865   4.631   2.710  0.0118  2.2874  0.7516
  743MOL0     H  291   4.698   4.659   2.988  3.5018 -0.9029  1.5465
  743MOL0     H  292   4.501   4.674   3.121  2.3390 -1.8469 -1.3677
  743MOL0     H  293   4.290   4.995   3.299 -0.3549  1.4202  0.8090
  743MOL0     H  294   4.447   5.075   3.289 -1.5562  1.4465  0.4208
  743MOL0     H  295   4.496   4.970   3.517  0.9222  0.2227 -2.3105
  743MOL0     H  296   4.342   4.888   3.503  0.1719 -1.0271 -0.4211
  743MOL0     H  297   4.221   5.105   3.490  1.0336 -0.9184 -0.9448
  743MOL0     H  298   4.365   5.195   3.503 -0.1521  0.4067 -0.5772
  743MOL0     H  299   4.252   5.190   3.732  1.4980  2.3234 -3.2900
  743MOL0     H  300   4.255   5.014   3.731  0.0773  0.5376  1.5244
  743MOL0     H  301   4.628   5.193   3.852 -0.3026 -0.0555  0.0023
  743MOL0     H  302   4.653   5.053   3.278  0.3253 -0.0517  0.5592
  743MOL0     H  303   4.836   5.156   3.202  1.1516  0.5272  2.1525
  743MOL0     H  304   4.942   5.029   3.268  0.9022  1.3401  0.2310
  743MOL0     H  305   4.974   5.081   3.119  1.4746 -1.1117  1.0298
  744MOL0     O  306   0.319   2.211   9.182 -0.7328 -0.5155 -0.2736
  744MOL0     C  307   0.241   2.305   9.183 -0.2726  0.4300  0.2624
  744MOL0     O  308   0.258   2.425   9.120 -0.0607  0.5703  0.0943
  744MOL0     C  309   0.355   2.426   9.019  0.8543 -0.0966 -1.0656
  744MOL0     C  310   0.483   2.461   9.050 -0.1457 -0.6463 -0.3554
  744MOL0     C  311   0.581   2.476   8.955  0.1179  0.7141  0.6717
  744MOL0     C  312   0.552   2.445   8.823 -1.0123  0.7988 -0.8210
  744MOL0     O  313   0.660   2.455   8.735  0.0571 -0.0390 -0.5091
  744MOL0     C  314   0.639   2.409   8.593  0.3291  0.1788 -1.7029
  744MOL0     C  315   0.761   2.457   8.521  0.0374  0.4746 -0.3304
  744MOL0     C  316   0.890   2.387   8.571  0.5853 -0.2808  0.0745
  744MOL0     C  317   0.996   2.401   8.464  0.2747  0.9853 -0.2401
  744MOL0     C  318   1.123   2.320   8.497  0.0733 -0.4174 -1.1204
  744MOL0     C  319   1.205   2.399   8.603  1.0221 -0.5539  0.3971
  744MOL0     C  320   1.342   2.339   8.626  0.0918  0.1258 -0.3667
  744MOL0     C  321   1.432   2.439   8.690  0.3875  0.1261 -0.3606
  744MOL0     N  322   1.566   2.391   8.729  1.1296 -0.5214 -0.0367
  744MOL0     C  323   1.582   2.291   8.820 -0.6203  0.0545 -0.3146
  744MOL0     C  324   1.704   2.234   8.790 -0.4504 -0.3033 -0.0711
  744MOL0     C  325   1.783   2.122   8.853  0.2085  0.5651  0.0196
  744MOL0     C  326   1.873   2.159   8.971 -0.1025  0.5916  1.2245
  744MOL0     C  327   1.790   2.195   9.094  0.3427 -0.3310  0.2075
  744MOL0     C  328   1.884   2.231   9.209  0.1461  0.5402  0.3305
  744MOL0     O  329   1.949   2.110   9.250  0.8423  0.1414  0.6582
  744MOL0     C  330   2.044   2.122   9.347  0.8181  0.5803 -0.1235
  744MOL0     C  331   2.102   1.998   9.384 -0.7259  0.2142  0.3720
  744MOL0     C  332   2.196   1.992   9.488 -0.3045 -0.0758 -0.0743
  744MOL0     C  333   2.233   2.109   9.558 -0.1074 -0.2637  0.5126
  744MOL0     C  334   2.333   2.101   9.666 -0.1363 -0.6277 -0.4930
  744MOL0     O  335   2.362   1.975   9.719 -0.0460  0.1978 -0.3401
  744MOL0     C  336   2.472   1.964   9.799  0.4703 -0.0074 -0.8375
  744MOL0     C  337   2.601   1.950   9.755  0.6085  0.2822  0.5463
  744MOL0     C  338   2.709   1.950   9.841  0.6620  0.4647 -0.2038
  744MOL0     C  339   2.687   1.964   9.980 -0.5157 -0.0615  0.2933
  744MOL0     O  340   2.795   1.964  10.060 -1.0168 -0.0883 -0.1951
  744MOL0     C  341   2.869   2.086  10.069 -0.5598  0.0247  0.5659
  744MOL0     C  342   3.007   2.032  10.029 -0.0180  0.3305  0.3966
  744MOL0     C  343   3.117   2.129   9.985 -0.7398 -0.0314 -0.0724
  744MOL0     C  344   3.257   2.109  10.055  0.2637 -0.1567 -0.0767
  744MOL0     C  345   3.248   2.169  10.201  1.1963 -0.2543  0.4282
  744MOL0     C  346   3.353   2.128  10.296  0.7603 -0.0638 -0.4586
  744MOL0     C  347   3.495   2.181  10.243  0.2625  0.3736 -0.9102
  744MOL0     C  348   3.603   2.219  10.346  0.1740  0.8772 -0.5599
  744MOL0    Cl  349   3.602   2.384  10.422  0.1432  0.1110  0.3416
  744MOL0     C  350   2.561   1.964  10.027 -0.8560 -0.2785  0.1905
  744MOL0     C  351   2.447   1.960   9.937 -0.1391 -0.8298  0.1332
  744MOL0     O  352   2.377   2.212   9.705 -1.0580  0.7254 -0.6534
  744MOL0     C  353   2.172   2.233   9.518 -0.3610 -0.2682  0.1704
  744MOL0     C  354   2.070   2.235   9.418 -0.2669 -0.1865  0.2682
  744MOL0     N  355   1.758   2.305   8.682 -0.1279  0.0416  0.0837
  744MOL0     N  356   1.676   2.400   8.655  0.2531 -0.4832 -0.0536
  744MOL0     C  357   0.419   2.408   8.790  0.1143 -0.7323  0.1990
  744MOL0     C  358   0.314   2.397   8.887 -0.2398  1.2576  0.1023
  744MOL0     C  359   0.114   2.286   9.265 -0.1808  0.4074  0.3349
  744MOL0     C  360   0.107   2.189   9.365  0.1845  0.4285  0.7459
  744MOL0     C  361  -0.010   2.174   9.433  0.5933  0.2460 -0.5658
  744MOL0     C  362  -0.118   2.252   9.404  0.6316  0.0671  0.8439
  744MOL0     O  363  -0.240   2.242   9.478  0.1720  0.1531 -0.4609
  744MOL0     C  364  -0.260   2.141   9.580 -0.0570 -0.6258  0.3046
  744MOL0     C  365  -0.397   2.165   9.646  0.5270 -0.5836 -0.4138
  744MOL0     C  366  -0.500   2.098   9.552  0.2910 -0.4331  0.3450
  744MOL0     C  367  -0.642   2.127   9.593  0.0306  1.4034 -0.8992
  744MOL0     C  368  -0.686   2.061   9.719 -0.4011 -0.0256 -0.1593
  744MOL0     C  369  -0.708   2.010   9.818  0.3018  0.2429 -0.6283
  744MOL0     C  370  -0.110   2.354   9.317  0.3073 -0.0314 -0.0938
  744MOL0     C  371  -0.001   2.383   9.241 -0.5349  0.7306 -0.4414
  744MOL0     C  372  -0.013   2.483   9.125 -0.3098  1.0000  0.1235
  744MOL0     H  373   0.514   2.490   9.150  3.1721 -0.0460 -1.4237
  744MOL0     H  374   0.677   2.502   8.997  1.7804 -3.3681 -0.1519
  744MOL0     H  375   0.639   2.299   8.591 -0.8139 -0.0382  2.2837
  744MOL0     H  376   0.553   2.458   8.547  1.0066  0.1981 -2.9942
  744MOL0     H  377   0.761   2.567   8.526  0.2392  0.4577  0.0604
  744MOL0     H  378   0.737   2.423   8.420 -1.8397 -0.1215  0.2814
  744MOL0     H  379   0.876   2.281   8.593  1.2243 -1.0750 -2.9053
  744MOL0     H  380   0.908   2.433   8.669 -2.1255  1.6974 -0.2258
  744MOL0     H  381   0.959   2.369   8.366  2.3702  0.1805 -0.8211
  744MOL0     H  382   1.012   2.509   8.458 -2.8635  1.8421  2.9236
  744MOL0     H  383   1.102   2.218   8.529 -1.3288  0.0201 -0.5792
  744MOL0     H  384   1.180   2.314   8.404 -0.3851  0.1447 -1.4403
  744MOL0     H  385   1.214   2.502   8.566 -2.3364  0.5865  2.2616
  744MOL0     H  386   1.150   2.419   8.696 -1.2840  2.7674 -1.4761
  744MOL0     H  387   1.385   2.315   8.529  0.1702  0.2530 -0.3618
  744MOL0     H  388   1.331   2.252   8.693  0.2775  0.9967  0.8324
  744MOL0     H  389   1.447   2.529   8.630  0.1584  0.7888  0.5520
  744MOL0     H  390   1.378   2.476   8.778 -0.3820  2.0177 -1.5706
  744MOL0     H  391   1.511   2.261   8.897  0.1222  0.4775  0.5483
  744MOL0     H  392   1.720   2.040   8.889  0.6500 -1.2842 -3.0589
  744MOL0     H  393   1.840   2.076   8.772  1.7388  1.8086  0.3485
  744MOL0     H  394   1.943   2.080   8.997 -0.8439 -0.2949  0.5851
  744MOL0     H  395   1.933   2.246   8.943 -1.5150  0.4576 -2.9100
  744MOL0     H  396   1.721   2.114   9.120 -1.9039  0.3112 -3.1828
  744MOL0     H  397   1.728   2.284   9.079  1.2138  0.6570  2.1092
  744MOL0     H  398   1.836   2.271   9.299  3.2044 -0.7875  2.7120
  744MOL0     H  399   1.960   2.305   9.181 -0.0241  1.2315  1.6115
  744MOL0     H  400   2.071   1.910   9.328  0.5160  1.5880 -2.6940
  744MOL0     H  401   2.240   1.894   9.504  2.9068  1.1707 -0.5704
  744MOL0     H  402   2.614   1.958   9.648  1.3788  0.4033  0.6433
  744MOL0     H  403   2.807   1.930   9.798  0.6065 -1.4351  0.4624
  744MOL0     H  404   2.830   2.163  10.002 -1.0509  1.0835  2.0303
  744MOL0     H  405   2.861   2.135  10.167 -0.0692  1.2187  0.0200
  744MOL0     H  406   3.038   1.985  10.123  0.3442  0.4159  0.3202
  744MOL0     H  407   3.000   1.959   9.948 -1.4678  1.0119 -0.1385
  744MOL0     H  408   3.133   2.133   9.877  0.7214  2.4926  0.1695
  744MOL0     H  409   3.085   2.227  10.022  1.6110 -0.3523  3.2616
  744MOL0     H  410   3.338   2.155   9.998 -0.7513 -0.0236 -1.4534
  744MOL0     H  411   3.275   2.001  10.067  1.9550  0.1153  0.0779
  744MOL0     H  412   3.152   2.140  10.247  0.1502 -0.6955 -1.9035
  744MOL0     H  413   3.265   2.277  10.203 -1.0730  0.1943  2.9809
  744MOL0     H  414   3.324   2.160  10.397 -2.0466  1.3793 -1.6110
  744MOL0     H  415   3.353   2.019  10.309 -1.6403  0.0816  1.5995
  744MOL0     H  416   3.486   2.273  10.183  1.6728  1.5135  0.5511
  744MOL0     H  417   3.538   2.100  10.184 -1.1752 -1.3753  0.3567
  744MOL0     H  418   3.601   2.141  10.422 -2.2233  1.5812  0.1821
  744MOL0     H  419   3.696   2.219  10.288  0.9128  1.9563  0.5525
  744MOL0     H  420   2.546   1.955  10.135 -1.6413 -1.9995 -0.0357
  744MOL0     H  421   2.345   1.972   9.972 -0.8459  3.6912 -2.6433
  744MOL0     H  422   2.196   2.329   9.562  0.6971 -0.3922 -0.0992
  744MOL0     H  423   2.027   2.333   9.397 -0.0469 -0.0213  0.5658
  744MOL0     H  424   0.384   2.393   8.688  0.6036  0.4727 -0.1642
  744MOL0     H  425   0.215   2.364   8.856 -0.4547  3.1822 -1.4304
  744MOL0     H  426   0.190   2.124   9.391  0.3702 -0.0357 -0.9173
  744MOL0     H  427  -0.018   2.095   9.508  0.9850  1.2967  0.6114
  744MOL0     H  428  -0.189   2.159   9.661  0.1397 -2.4759  0.5978
  744MOL0     H  429  -0.258   2.037   9.544 -2.2907 -0.6568  0.1081
  744MOL0     H  430  -0.420   2.271   9.659 -1.6226 -0.8883 -1.2315
  744MOL0     H  431  -0.390   2.123   9.747  0.8465  1.2156  0.3546
  744MOL0     H  432  -0.470   1.994   9.539  2.6191  0.0962  0.9861
  744MOL0     H  433  -0.485   2.135   9.450 -3.1811  1.7741  0.4956
  744MOL0     H  434  -0.651   2.236   9.592 -2.7325  1.2566 -1.8181
  744MOL0     H  435  -0.715   2.090   9.521 -1.6559  0.7418  1.0402
  744MOL0     H  436  -0.719   1.943   9.902  2.7881 -2.8346 -2.5292
  744MOL0     H  437  -0.197   2.417   9.307  1.2360  1.2665 -0.2984
  744MOL0     H  438  -0.120   2.502   9.114 -0.6560 -1.6859 -2.2418
  744MOL0     H  439   0.050   2.572   9.135  0.7914  0.2543 -0.0269
  744MOL0     H  440   0.019   2.429   9.036  2.5526 -2.2671  2.8594
  745MOL0     O  441   3.442   0.064   1.162 -0.5619 -0.1930 -0.8338
  745MOL0     C  442   3.385  -0.040   1.194  0.2912  0.2913  0.4934
  745MOL0     O  443   3.419  -0.140   1.291 -0.2551 -0.2543  0.1443
  745MOL0     C  444   3.523  -0.110   1.377  0.3780  0.9013  0.1354
  745MOL0     C  445   3.648  -0.144   1.345  0.8345 -0.8093 -1.3916
  745MOL0     C  446   3.747  -0.102   1.425 -1.2440  0.8516 -0.8743
  745MOL0     C  447   3.724  -0.038   1.550  0.2849 -0.2439 -0.3566
  745MOL0     O  448   3.814   0.026   1.625 -0.1126 -1.0807 -0.5935
  745MOL0     C  449   3.949   0.045   1.575 -0.1312 -0.0941 -0.1327
  745MOL0     C  450   4.037   0.096   1.697  0.4466 -0.2216 -0.2488
  745MOL0     C  451   4.161   0.174   1.646  0.0877  0.2015  0.2362
  745MOL0     C  452   4.233   0.244   1.763  0.5961 -0.8103 -0.1923
  745MOL0     C  453   4.366   0.308   1.725 -0.2763 -0.5483 -0.0269
  745MOL0     C  454   4.479   0.210   1.712 -0.3729  1.1733  0.2400
  745MOL0     C  455   4.618   0.260   1.651 -0.5725  0.9326 -0.7698
  745MOL0     C  456   4.587   0.322   1.516  0.0313 -0.0834  0.6182
  745MOL0     N  457   4.710   0.353   1.452  0.5005 -0.9706  0.5239
  745MOL0     C  458   4.794   0.451   1.506  0.5264 -0.0710 -0.4071
  745MOL0     C  459   4.904   0.449   1.431  0.0955  0.1177  0.7757
  745MOL0     C  460   5.009   0.557   1.426 -0.5702  0.0261  0.1251
  745MOL0     C  461   5.155   0.505   1.433 -0.4788  0.3205  0.4131
  745MOL0     C  462   5.181   0.493   1.578 -0.9884  0.1457 -0.2436
  745MOL0     C  463   5.327   0.450   1.598  0.2444  0.5472 -0.4146
  745MOL0     O  464   5.367   0.470   1.734 -0.9501  0.8050  0.1019
  745MOL0     C  465   5.501   0.475   1.769 -0.6785  0.9767 -0.2212
  745MOL0     C  466   5.606   0.517   1.691 -0.0434 -0.0468  0.6607
  745MOL0     C  467   5.740   0.512   1.732  0.3631 -0.7829 -0.1401
  745MOL0     C  468   5.770   0.465   1.858 -0.4715 -0.5408  0.2456
  745MOL0     C  469   5.919   0.456   1.893  0.1548 -0.1320  0.0409
  745MOL0     O  470   6.013   0.508   1.808  0.5075 -0.1658 -0.2520
  745MOL0     C  471   6.149   0.493   1.840  0.0438 -0.6014  0.3148
  745MOL0     C  472   6.225   0.409   1.764 -1.4753  0.9483  0.2810
  745MOL0     C  473   6.364   0.409   1.777 -0.3622 -0.6883  0.0723
  745MOL0     C  474   6.427   0.503   1.870  0.3343 -0.2232 -0.0325
  745MOL0     O  475   6.561   0.519   1.900 -0.1591 -0.8207 -0.6190
  745MOL0     C  476   6.653   0.414   1.891 -0.3454  1.4763 -0.0878
  745MOL0     C  477   6.798   0.447   1.922  0.3486  0.1041 -0.1620
  745MOL0     C  478   6.801   0.522   2.057 -0.4599 -0.5938 -0.4521
  745MOL0     C  479   6.950   0.553   2.086  0.1258  0.4348  0.2996
  745MOL0     C  480   6.967   0.606   2.232  1.3556 -0.3319 -0.4492
  745MOL0     C  481   6.872   0.731   2.263 -0.6930 -0.1534  0.0778
  745MOL0     C  482   6.912   0.801   2.402  0.4875  0.0661  1.3236
  745MOL0     C  483   6.882   0.952   2.396  0.4594  0.3390  0.3622
  745MOL0    Cl  484   6.706   0.970   2.348  0.3770  0.0305  0.2625
  745MOL0     C  485   6.342   0.579   1.940 -0.0065  0.5667 -0.3011
  745MOL0     C  486   6.204   0.580   1.928 -0.1385 -0.1564  0.2948
  745MOL0     O  487   5.946   0.400   1.999 -0.1714  0.2067 -0.2224
  745MOL0     C  488   5.668   0.411   1.938  0.3906  0.0131  0.2502
  745MOL0     C  489   5.533   0.418   1.892  0.2623 -0.7139 -0.4658
  745MOL0     N  490   4.887   0.348   1.338  0.1305  0.4057 -0.4446
  745MOL0     N  491   4.768   0.287   1.356 -0.2720  0.3823 -1.0920
  745MOL0     C  492   3.582  -0.022   1.587 -0.1785  0.2470  0.3999
  745MOL0     C  493   3.484  -0.062   1.503 -0.3685  0.6336 -0.2088
  745MOL0     C  494   3.254  -0.064   1.127 -0.0761 -0.2270  0.3990
  745MOL0     C  495   3.167  -0.162   1.184  0.3990 -0.4769 -0.0044
  745MOL0     C  496   3.041  -0.185   1.142  0.0336 -0.1683  0.0391
  745MOL0     C  497   2.989  -0.128   1.031 -0.5751 -0.9161 -0.2479
  745MOL0     O  498   2.873  -0.156   0.977  0.3078 -0.8354 -0.8767
  745MOL0     C  499   2.760  -0.186   1.064 -0.0205 -0.0292  0.2559
  745MOL0     C  500   2.645  -0.103   0.999  0.9405 -0.0000  0.2564
  745MOL0     C  501   2.612  -0.130   0.844 -0.3642 -0.3698  0.1061
  745MOL0     C  502   2.482  -0.210   0.832  0.5944 -0.5868 -0.6961
  745MOL0     C  503   2.488  -0.349   0.849 -0.3643  0.2718 -0.3406
  745MOL0     C  504   2.499  -0.467   0.859 -0.0901 -0.7576  0.0751
  745MOL0     C  505   3.075  -0.037   0.961  0.1153 -0.1104  0.5511
  745MOL0     C  506   3.202  -0.001   1.009 -0.3982 -0.0300  1.0799
  745MOL0     C  507   3.256   0.122   0.937 -0.5931  0.0406 -0.5965
  745MOL0     H  508   3.680  -0.193   1.253  0.1936 -0.8398 -1.5976
  745MOL0     H  509   3.847  -0.126   1.391 -1.4113 -0.3157 -0.5940
  745MOL0     H  510   3.999  -0.049   1.549  1.2663 -1.3504  5.5663
  745MOL0     H  511   3.945   0.123   1.499  0.5905  2.6637  2.4811
  745MOL0     H  512   4.067   0.003   1.746  3.2788 -0.3445 -1.9752
  745MOL0     H  513   3.976   0.155   1.766 -1.4406 -1.0259 -1.1519
  745MOL0     H  514   4.125   0.249   1.575 -2.2267 -0.1117  0.9825
  745MOL0     H  515   4.227   0.098   1.604 -1.0957  0.5157 -2.3228
  745MOL0     H  516   4.157   0.317   1.792 -0.7194 -2.4139  0.6300
  745MOL0     H  517   4.247   0.180   1.851 -1.6652 -3.3276 -1.4985
  745MOL0     H  518   4.346   0.354   1.628  0.6694 -2.2025 -1.0605
  745MOL0     H  519   4.402   0.385   1.794  0.5303 -1.6589  0.8182
  745MOL0     H  520   4.488   0.162   1.809 -0.1041  0.4669 -0.1272
  745MOL0     H  521   4.450   0.125   1.649 -0.7064  0.9095  0.7428
  745MOL0     H  522   4.683   0.172   1.641 -2.3558 -0.6917  1.0459
  745MOL0     H  523   4.658   0.333   1.722  1.6610  1.0366 -2.0277
  745MOL0     H  524   4.523   0.258   1.455  0.6002 -2.1705  2.0929
  745MOL0     H  525   4.530   0.415   1.526 -2.7976 -1.5906 -0.4348
  745MOL0     H  526   4.769   0.517   1.588 -0.6035  1.7184 -2.1141
  745MOL0     H  527   4.991   0.604   1.329 -3.1262 -2.7458 -0.8812
  745MOL0     H  528   4.995   0.630   1.506  1.9819 -0.3630  1.0129
  745MOL0     H  529   5.148   0.408   1.383 -1.9839  1.3337 -1.5079
  745MOL0     H  530   5.223   0.567   1.375 -1.8230  0.6535 -0.8745
  745MOL0     H  531   5.109   0.427   1.628 -0.8602 -0.5602 -0.9564
  745MOL0     H  532   5.173   0.589   1.629 -2.0782  0.0509 -0.2239
  745MOL0     H  533   5.401   0.505   1.539  2.6819  2.3532  3.8408
  745MOL0     H  534   5.336   0.346   1.564  0.2195  0.8445 -1.3481
  745MOL0     H  535   5.593   0.573   1.599  0.4060 -0.0577  0.5858
  745MOL0     H  536   5.809   0.565   1.668  1.2995 -2.6649 -0.7595
  745MOL0     H  537   6.177   0.341   1.694  1.5680 -0.5963 -0.5045
  745MOL0     H  538   6.429   0.340   1.724 -0.1002  1.1177 -2.1367
  745MOL0     H  539   6.627   0.328   1.953  0.5065  0.4856 -1.0574
  745MOL0     H  540   6.647   0.385   1.786 -1.4604  2.6716 -0.3848
  745MOL0     H  541   6.852   0.353   1.935 -1.3800 -0.7410  1.2577
  745MOL0     H  542   6.832   0.507   1.836 -1.0889 -1.4114 -1.8684
  745MOL0     H  543   6.749   0.616   2.040 -0.2345 -0.7305 -2.0406
  745MOL0     H  544   6.743   0.460   2.127  1.5750 -1.7003  0.3701
  745MOL0     H  545   6.989   0.619   2.009 -0.3341 -3.7246 -3.9336
  745MOL0     H  546   7.004   0.458   2.079 -1.9530 -1.1540  3.2016
  745MOL0     H  547   7.074   0.614   2.252  1.4201 -0.6975 -0.6408
  745MOL0     H  548   6.932   0.536   2.309 -3.5481  0.5567 -1.5204
  745MOL0     H  549   6.875   0.808   2.185 -1.0901 -1.0354 -0.8299
  745MOL0     H  550   6.767   0.700   2.270 -0.7620  0.1875  0.6088
  745MOL0     H  551   7.020   0.787   2.416  0.9319 -1.5050 -2.3824
  745MOL0     H  552   6.858   0.751   2.482 -2.0380 -1.9103 -1.3971
  745MOL0     H  553   6.905   1.003   2.490  0.1770  0.6247  0.2801
  745MOL0     H  554   6.942   0.991   2.313  0.2760 -0.5885 -0.2105
  745MOL0     H  555   6.399   0.648   2.002  1.2656  0.2435 -1.0636
  745MOL0     H  556   6.149   0.656   1.983  2.1165  0.1992  2.1976
  745MOL0     H  557   5.694   0.345   2.020 -0.0105 -1.7396 -0.9793
  745MOL0     H  558   5.452   0.374   1.949 -0.3245  0.2977 -0.4837
  745MOL0     H  559   3.550   0.024   1.680 -1.8006  1.3086 -0.6334
  745MOL0     H  560   3.379  -0.047   1.522 -0.6004  3.8404 -3.0273
  745MOL0     H  561   3.190  -0.202   1.282 -2.4345 -1.3537  0.3982
  745MOL0     H  562   2.977  -0.249   1.203 -0.0649  0.5951  0.7496
  745MOL0     H  563   2.772  -0.164   1.170  2.1417 -0.8899  0.2390
  745MOL0     H  564   2.745  -0.294   1.066  0.3816 -0.1232 -0.8614
  745MOL0     H  565   2.652   0.005   1.013 -2.0219  0.4134 -0.8068
  745MOL0     H  566   2.558  -0.133   1.059  0.4503  1.0196  0.0671
  745MOL0     H  567   2.699  -0.182   0.802 -0.7561 -2.5070  1.7436
  745MOL0     H  568   2.600  -0.031   0.801  0.1159  0.0259  0.8715
  745MOL0     H  569   2.411  -0.177   0.908 -1.1034  0.4618 -2.6181
  745MOL0     H  570   2.429  -0.188   0.738 -0.8847  0.4313  0.3250
  745MOL0     H  571   2.524  -0.569   0.878  0.7536 -0.3059  1.5273
  745MOL0     H  572   3.029   0.027   0.888  3.1198  2.3896  0.6389
  745MOL0     H  573   3.361   0.113   0.905 -0.3272  2.0112 -0.4511
  745MOL0     H  574   3.198   0.145   0.847  0.0968 -0.7968 -1.2798
  745MOL0     H  575   3.259   0.210   1.002  2.5182  0.6645 -1.3835
  746MOL0     O  576  10.095   1.844   0.650 -0.4504  0.5327 -0.0089
  746MOL0     C  577  10.036   1.779   0.732  0.6329 -0.0421  0.0497
  746MOL0     O  578  10.090   1.703   0.834  0.6371 -0.4770  0.2755
  746MOL0     C  579  10.227   1.719   0.853  0.5486 -0.2801  0.9203
  746MOL0     C  580  10.306   1.835   0.855 -0.5138 -0.1789  0.2945
  746MOL0     C  581  10.448   1.824   0.863  0.6085  0.3041 -0.3138
  746MOL0     C  582  10.514   1.703   0.893  1.2832  0.1650 -0.5830
  746MOL0     O  583  10.646   1.698   0.916 -0.1600  0.3401  0.4152
  746MOL0     C  584  10.680   1.676   1.050 -0.3290  0.0273  0.1074
  746MOL0     C  585  10.780   1.569   1.076 -0.8569  0.3130  0.9021
  746MOL0     C  586  10.750   1.489   1.197 -0.1755  0.2914 -0.7523
  746MOL0     C  587  10.845   1.369   1.198 -0.6802 -0.1969 -0.3416
  746MOL0     C  588  10.863   1.305   1.336  0.1796 -0.1412  0.1064
  746MOL0     C  589  10.792   1.174   1.350  0.0041  0.1783 -0.3948
  746MOL0     C  590  10.792   1.127   1.495  0.2908  0.9627 -0.2532
  746MOL0     C  591  10.932   1.078   1.540 -0.0375  1.0887 -0.7564
  746MOL0     N  592  10.924   1.037   1.680 -0.2476  0.5745 -0.4576
  746MOL0     C  593  10.878   0.916   1.724  0.6558  0.5533  0.3944
  746MOL0     C  594  10.857   0.934   1.858 -0.3890 -0.6848  0.2168
  746MOL0     C  595  10.782   0.841   1.958 -0.1666 -0.5351 -0.7221
  746MOL0     C  596  10.856   0.807   2.093 -0.0389 -0.5194  0.2844
  746MOL0     C  597  10.964   0.713   2.069 -0.4938  0.6454 -0.3098
  746MOL0     C  598  11.088   0.760   1.988 -0.1084  0.1292  0.8869
  746MOL0     O  599  11.182   0.648   1.968  0.2662 -0.0282  0.5234
  746MOL0     C  600  11.304   0.674   1.924 -0.6323 -0.0610  0.0784
  746MOL0     C  601  11.412   0.608   1.985  0.3532  0.5190 -0.9192
  746MOL0     C  602  11.539   0.621   1.931 -0.2269  0.1612  0.0974
  746MOL0     C  603  11.558   0.692   1.813 -1.1902 -0.5223  0.2587
  746MOL0     C  604  11.694   0.720   1.758 -0.4444 -0.7729  0.4576
  746MOL0     O  605  11.807   0.685   1.826 -0.2291  0.6077 -0.4264
  746MOL0     C  606  11.932   0.692   1.764  0.2571 -0.6079 -0.6198
  746MOL0     C  607  12.042   0.773   1.822  0.2666  0.4732  0.2620
  746MOL0     C  608  12.169   0.774   1.752 -0.2091  0.1045  0.4017
  746MOL0     C  609  12.187   0.699   1.640 -0.0689  0.4802  0.3878
  746MOL0     O  610  12.309   0.709   1.589 -0.1253 -1.0374 -0.1263
  746MOL0     C  611  12.318   0.740   1.447  0.1757  0.0806 -0.3058
  746MOL0     C  612  12.398   0.639   1.376 -0.0276  0.5845  0.6095
  746MOL0     C  613  12.541   0.643   1.428  1.0626 -0.3833  0.7311
  746MOL0     C  614  12.631   0.545   1.348 -0.5275 -0.2868 -0.1962
  746MOL0     C  615  12.778   0.562   1.389 -0.5359 -0.6243  0.9571
  746MOL0     C  616  12.861   0.450   1.324  0.0103  0.2359  0.3172
  746MOL0     C  617  13.021   0.480   1.345  0.0877 -1.0177  0.1755
  746MOL0     C  618  13.071   0.436   1.485  0.4641 -0.4569 -0.4094
  746MOL0    Cl  619  13.043   0.264   1.503  0.1358 -0.3762  0.0861
  746MOL0     C  620  12.087   0.620   1.589 -0.4975 -0.7129 -0.0070
  746MOL0     C  621  11.967   0.611   1.652  0.0845  0.1697  0.3260
  746MOL0     O  622  11.698   0.763   1.642  0.4648  1.0744  0.9932
  746MOL0     C  623  11.443   0.746   1.743  0.2132  0.2780 -0.4056
  746MOL0     C  624  11.316   0.740   1.803 -0.7383  0.9009  0.3845
  746MOL0     N  625  10.896   1.063   1.888 -0.0501 -0.8976  0.7497
  746MOL0     N  626  10.936   1.123   1.782 -0.3520  0.0292  0.6446
  746MOL0     C  627  10.429   1.592   0.910  0.7359 -0.3899 -0.0321
  746MOL0     C  628  10.287   1.602   0.888 -0.7771  0.0538 -0.0889
  746MOL0     C  629   9.884   1.769   0.722  0.0016 -0.5244 -0.9034
  746MOL0     C  630   9.821   1.892   0.695  0.7277  0.3448  0.5739
  746MOL0     C  631   9.681   1.906   0.713  0.1635  0.1470  0.6705
  746MOL0     C  632   9.612   1.792   0.740  0.2686 -0.5094 -0.6272
  746MOL0     O  633   9.479   1.815   0.747  0.3455 -0.4263 -0.0095
  746MOL0     C  634   9.386   1.711   0.786  0.3377 -0.3082 -0.3900
  746MOL0     C  635   9.239   1.752   0.778  0.4678 -0.4798  0.6554
  746MOL0     C  636   9.144   1.724   0.901  0.3908 -0.0280 -0.4927
  746MOL0     C  637   9.160   1.841   1.005  0.4358 -0.0698  0.1509
  746MOL0     C  638   9.090   1.962   0.953  0.6454  0.0599 -0.3394
  746MOL0     C  639   9.037   2.068   0.909  0.3388 -0.0235 -0.3799
  746MOL0     C  640   9.673   1.663   0.748 -0.7219 -0.5844  0.2828
  746MOL0     C  641   9.811   1.648   0.745 -0.2433  0.0608 -0.5098
  746MOL0     C  642   9.870   1.506   0.785  0.1291 -0.2198  0.0047
  746MOL0     H  643  10.268   1.937   0.852  2.2111  1.0099  2.2586
  746MOL0     H  644  10.511   1.912   0.860  1.7917 -0.3550  2.1972
  746MOL0     H  645  10.725   1.769   1.087  0.4013 -0.0490 -0.5642
  746MOL0     H  646  10.588   1.667   1.109  0.2746  1.9334  1.4159
  746MOL0     H  647  10.882   1.609   1.072 -1.4971  1.9974 -1.2212
  746MOL0     H  648  10.783   1.507   0.986  4.8412  0.3920  0.7099
  746MOL0     H  649  10.648   1.450   1.201  0.3755 -1.1801 -0.3583
  746MOL0     H  650  10.761   1.559   1.281  0.5293 -0.2794 -0.3590
  746MOL0     H  651  10.802   1.290   1.135  1.4007 -0.5516 -1.4033
  746MOL0     H  652  10.946   1.380   1.158  0.0302 -1.5974  0.9334
  746MOL0     H  653  10.967   1.299   1.367 -0.2953 -1.4494  1.6044
  746MOL0     H  654  10.819   1.374   1.408  0.1410  1.1773 -1.1460
  746MOL0     H  655  10.685   1.193   1.337  0.1290  0.5076 -0.9860
  746MOL0     H  656  10.833   1.094   1.288 -0.5911  0.4428 -1.1440
  746MOL0     H  657  10.730   1.038   1.510  2.4992 -0.6928 -0.6023
  746MOL0     H  658  10.756   1.203   1.565 -0.5162  0.3183  0.0484
  746MOL0     H  659  10.972   1.007   1.467  0.7415  2.1098 -1.3570
  746MOL0     H  660  11.000   1.164   1.537 -0.2744  1.3010 -0.2608
  746MOL0     H  661  10.850   0.831   1.661 -1.0169  1.3788 -0.0523
  746MOL0     H  662  10.684   0.888   1.967  0.4680  0.8081 -0.5071
  746MOL0     H  663  10.774   0.746   1.905 -0.4759 -0.0774 -1.4942
  746MOL0     H  664  10.891   0.900   2.140  2.3764  0.0830 -2.3939
  746MOL0     H  665  10.773   0.767   2.151 -0.5125  0.2226  0.1326
  746MOL0     H  666  10.930   0.625   2.015  2.5945 -1.2175  0.5539
  746MOL0     H  667  11.003   0.681   2.166  1.8571 -0.5502 -1.5711
  746MOL0     H  668  11.141   0.842   2.038 -1.2870  0.5447  1.4817
  746MOL0     H  669  11.048   0.790   1.891  1.2370  0.4448  0.4084
  746MOL0     H  670  11.387   0.543   2.068  0.4383 -1.1867 -2.1771
  746MOL0     H  671  11.623   0.566   1.971 -1.1511 -0.6343  1.0335
  746MOL0     H  672  12.029   0.827   1.915  1.0712  1.9669 -0.4471
  746MOL0     H  673  12.253   0.835   1.784 -1.0813  2.0840 -0.8650
  746MOL0     H  674  12.213   0.746   1.415 -0.4671  0.0336  1.6783
  746MOL0     H  675  12.363   0.839   1.435 -2.3219  1.3509 -0.0026
  746MOL0     H  676  12.342   0.549   1.403 -0.1373  0.4756  0.0272
  746MOL0     H  677  12.403   0.650   1.267  0.4829 -0.3800  0.5220
  746MOL0     H  678  12.575   0.747   1.419  0.4714 -0.3153 -1.2072
  746MOL0     H  679  12.540   0.615   1.534 -0.0403 -0.1917  0.7724
  746MOL0     H  680  12.625   0.566   1.241 -2.2658  2.7644  0.3664
  746MOL0     H  681  12.597   0.443   1.368 -2.4740  1.0844  5.0729
  746MOL0     H  682  12.783   0.558   1.498 -3.3455 -1.9123  1.1459
  746MOL0     H  683  12.815   0.660   1.357  1.3999 -1.3335  0.8691
  746MOL0     H  684  12.828   0.352   1.362 -0.4010 -1.2676 -3.4689
  746MOL0     H  685  12.832   0.448   1.219 -2.1099 -0.7316  0.8535
  746MOL0     H  686  13.041   0.587   1.341 -1.2349 -0.7693 -3.1539
  746MOL0     H  687  13.077   0.422   1.270 -1.0370 -2.2366  0.2419
  746MOL0     H  688  13.173   0.468   1.505  0.3181 -0.1644 -0.1319
  746MOL0     H  689  13.001   0.475   1.559  1.9153  2.5967 -0.5036
  746MOL0     H  690  12.120   0.567   1.500  0.0693  1.1159 -0.9633
  746MOL0     H  691  11.883   0.556   1.610 -2.3160  3.7619 -0.0632
  746MOL0     H  692  11.448   0.797   1.647  2.2693  0.8975 -0.0200
  746MOL0     H  693  11.228   0.769   1.748  1.0668  0.4648 -3.0038
  746MOL0     H  694  10.473   1.495   0.927  0.0662 -1.7585 -4.5806
  746MOL0     H  695  10.219   1.518   0.899  0.5880 -0.8886  1.4878
  746MOL0     H  696   9.876   1.980   0.662  0.1930  1.8190  3.2485
  746MOL0     H  697   9.629   2.001   0.712 -2.3814 -1.1742  0.4634
  746MOL0     H  698   9.413   1.681   0.887 -3.5561  0.7129  1.1334
  746MOL0     H  699   9.397   1.626   0.717  1.0540  1.4702 -2.5908
  746MOL0     H  700   9.196   1.711   0.686 -0.6125  0.9501  0.4679
  746MOL0     H  701   9.241   1.857   0.746  1.3907 -1.2670 -2.1681
  746MOL0     H  702   9.170   1.625   0.939  1.7706  0.0199 -1.2665
  746MOL0     H  703   9.043   1.720   0.861  0.2860 -0.1832 -0.2169
  746MOL0     H  704   9.107   1.812   1.096  0.4283 -2.5956 -0.5979
  746MOL0     H  705   9.263   1.860   1.038 -0.3739  2.7702  1.4291
  746MOL0     H  706   8.983   2.154   0.874 -0.7743 -1.7664 -3.4142
  746MOL0     H  707   9.616   1.573   0.769 -0.4458 -0.6020  0.9658
  746MOL0     H  708   9.878   1.491   0.893  1.0431 -1.9198 -0.2736
  746MOL0     H  709   9.789   1.439   0.756  0.9750 -0.4895 -1.8939
  746MOL0     H  710   9.968   1.494   0.738  0.7565  3.7127 -0.0480
  747MOL0     O  711   3.449   6.352   5.531 -0.6780  0.0416 -0.8047
  747MOL0     C  712   3.425   6.241   5.579  0.7422 -0.4729  0.3447
  747MOL0     O  713   3.517   6.139   5.598  0.2567  0.1891 -0.6270
  747MOL0     C  714   3.656   6.164   5.598  0.2692 -1.1117  0.2504
  747MOL0     C  715   3.731   6.247   5.508  0.6797  0.1271 -0.4699
  747MOL0     C  716   3.872   6.252   5.530 -0.5563 -0.7800 -0.2882
  747MOL0     C  717   3.928   6.191   5.640 -0.7625 -0.0240 -0.0001
  747MOL0     O  718   4.063   6.206   5.671 -0.1445  0.5502  0.2630
  747MOL0     C  719   4.148   6.310   5.610  0.0878  0.4071  0.9703
  747MOL0     C  720   4.291   6.305   5.661 -0.2193  1.1989 -0.2866
  747MOL0     C  721   4.388   6.399   5.590 -0.4261  0.1535  0.7754
  747MOL0     C  722   4.460   6.345   5.463 -0.3832  0.3283  0.3270
  747MOL0     C  723   4.501   6.467   5.375 -0.6539  0.2500 -0.0291
  747MOL0     C  724   4.616   6.446   5.267  0.3496  0.0401 -0.5756
  747MOL0     C  725   4.576   6.344   5.152  0.2754  0.3401 -0.0074
  747MOL0     C  726   4.685   6.250   5.114  0.0834  1.0576  0.2880
  747MOL0     N  727   4.678   6.135   5.206 -0.7770 -0.0837 -0.0745
  747MOL0     C  728   4.597   6.030   5.176  1.5468 -0.4065 -0.0821
  747MOL0     C  729   4.601   5.950   5.289  0.4755 -0.3962  0.0993
  747MOL0     C  730   4.516   5.823   5.322 -0.4048 -0.4336 -0.0098
  747MOL0     C  731   4.422   5.843   5.435  0.5960 -0.4393  0.2338
  747MOL0     C  732   4.326   5.953   5.409 -0.5973 -0.6098 -1.2072
  747MOL0     C  733   4.186   5.924   5.468  0.2418 -0.4780 -0.3684
  747MOL0     O  734   4.090   5.983   5.382  1.0175 -0.0246  0.3289
  747MOL0     C  735   3.961   5.943   5.369  0.2966 -0.3594 -0.1924
  747MOL0     C  736   3.883   6.012   5.276 -0.2786  0.1657  0.9594
  747MOL0     C  737   3.752   5.974   5.258 -0.3473 -0.1363  0.5376
  747MOL0     C  738   3.691   5.877   5.340 -0.4409  0.4605  0.3631
  747MOL0     C  739   3.544   5.854   5.315 -0.3830  0.0273 -0.4981
  747MOL0     O  740   3.476   5.956   5.259 -0.5464 -0.4606 -0.4348
  747MOL0     C  741   3.338   5.939   5.248 -0.0023  0.2090  0.1154
  747MOL0     C  742   3.251   6.027   5.308 -0.9895 -0.3682 -0.5186
  747MOL0     C  743   3.113   6.010   5.291 -0.2933  0.2229  0.0803
  747MOL0     C  744   3.054   5.919   5.209 -0.6405  0.0493  0.6894
  747MOL0     O  745   2.911   5.911   5.203 -0.4237  0.2926  0.1722
  747MOL0     C  746   2.871   5.785   5.261  0.7175  0.7509 -0.8505
  747MOL0     C  747   2.713   5.773   5.274  0.4190  0.3481 -0.3959
  747MOL0     C  748   2.672   5.640   5.333  0.4975 -1.3036  0.2930
  747MOL0     C  749   2.550   5.639   5.441 -1.0575  0.1969 -0.2921
  747MOL0     C  750   2.531   5.497   5.486  0.1145 -0.0514  0.4904
  747MOL0     C  751   2.427   5.494   5.594 -0.3454  0.3551 -0.5043
  747MOL0     C  752   2.399   5.354   5.641  1.0240  0.2719  0.2744
  747MOL0     C  753   2.293   5.291   5.548 -0.0790  0.6075  0.0741
  747MOL0    Cl  754   2.138   5.375   5.552  0.3987 -0.3518 -0.2452
  747MOL0     C  755   3.140   5.822   5.148 -0.4192  0.2795 -0.0262
  747MOL0     C  756   3.282   5.833   5.166 -0.9763 -0.2762 -0.0724
  747MOL0     O  757   3.503   5.739   5.341 -0.5992 -0.0355 -0.0197
  747MOL0     C  758   3.771   5.794   5.415  0.3820 -1.1267 -0.7581
  747MOL0     C  759   3.906   5.832   5.444 -0.0777  0.2540  0.3811
  747MOL0     N  760   4.705   5.993   5.366  0.0777  0.1656  0.3543
  747MOL0     N  761   4.747   6.101   5.318  0.5073  0.1056  0.2068
  747MOL0     C  762   3.856   6.110   5.719  0.8795  0.0364  0.6433
  747MOL0     C  763   3.720   6.099   5.692 -1.1647 -0.2298 -0.2420
  747MOL0     C  764   3.275   6.214   5.614 -0.3371 -0.5387  0.4859
  747MOL0     C  765   3.246   6.086   5.641 -0.3554  0.4693  1.0332
  747MOL0     C  766   3.112   6.046   5.662  0.2149 -0.2657 -0.1210
  747MOL0     C  767   3.008   6.137   5.646  0.4841  0.0512 -0.4577
  747MOL0     O  768   2.884   6.109   5.683  0.5546 -0.1321  0.3217
  747MOL0     C  769   2.828   6.004   5.608 -0.8257  0.9107  0.2608
  747MOL0     C  770   2.699   5.930   5.656  0.6167  0.4671  0.0355
  747MOL0     C  771   2.579   6.014   5.620  0.5257 -0.3091 -0.1968
  747MOL0     C  772   2.450   5.962   5.678  0.1249 -0.4203  0.0427
  747MOL0     C  773   2.335   6.047   5.657  0.3651  0.0460 -0.4828
  747MOL0     C  774   2.245   6.122   5.633  0.1323 -0.5110  0.4395
  747MOL0     C  775   3.033   6.269   5.609 -0.5505  0.2644 -0.6223
  747MOL0     C  776   3.164   6.306   5.596  0.0936  0.8283 -0.5922
  747MOL0     C  777   3.180   6.453   5.558  0.8534 -1.0369 -0.3020
  747MOL0     H  778   3.689   6.303   5.424  0.7745  2.0696  0.7154
  747MOL0     H  779   3.944   6.300   5.465  0.1013 -2.1641 -0.6107
  747MOL0     H  780   4.157   6.289   5.503  0.3602  0.1604  1.0386
  747MOL0     H  781   4.100   6.407   5.623 -1.2928 -0.0008 -0.7273
  747MOL0     H  782   4.331   6.204   5.666  0.6689  1.6101  2.0879
  747MOL0     H  783   4.291   6.338   5.766  1.9852 -0.6521  0.3674
  747MOL0     H  784   4.465   6.425   5.664 -0.7017 -0.2641  1.2136
  747MOL0     H  785   4.338   6.493   5.566  0.4599 -0.1412 -2.8365
  747MOL0     H  786   4.554   6.292   5.481  1.2757  2.1110 -2.4525
  747MOL0     H  787   4.385   6.285   5.411 -0.6657  1.8699 -1.1377
  747MOL0     H  788   4.416   6.516   5.326  1.7082  1.9825 -2.8092
  747MOL0     H  789   4.530   6.542   5.449 -2.9528 -1.0796  2.3926
  747MOL0     H  790   4.663   6.536   5.226  4.3508 -2.2337 -1.5361
  747MOL0     H  791   4.697   6.403   5.327 -0.5153 -0.2012  0.4558
  747MOL0     H  792   4.556   6.404   5.063  0.3495 -2.2924 -1.8916
  747MOL0     H  793   4.482   6.294   5.177  0.9055 -2.0772 -2.0766
  747MOL0     H  794   4.665   6.213   5.013  1.1328  0.9330  0.1086
  747MOL0     H  795   4.784   6.296   5.104 -0.5981  2.3939 -0.5043
  747MOL0     H  796   4.539   6.019   5.085  1.4594  0.2475 -0.1054
  747MOL0     H  797   4.445   5.809   5.240  0.4697  0.0911 -0.8750
  747MOL0     H  798   4.573   5.737   5.357 -1.4245 -1.0274  0.2422
  747MOL0     H  799   4.369   5.749   5.447 -2.2208  1.2033  1.6709
  747MOL0     H  800   4.479   5.867   5.525  2.8920  3.1781 -1.9026
  747MOL0     H  801   4.314   5.966   5.301 -2.5349 -0.7688 -1.0367
  747MOL0     H  802   4.371   6.047   5.444 -0.6155 -1.5213  1.4779
  747MOL0     H  803   4.177   5.952   5.573  1.3652  0.7898 -0.5805
  747MOL0     H  804   4.176   5.816   5.455  2.1911 -0.8798  1.0622
  747MOL0     H  805   3.924   6.100   5.228 -0.6601  0.3881  1.0312
  747MOL0     H  806   3.695   6.024   5.182 -1.8304 -0.8809  1.1234
  747MOL0     H  807   3.292   6.115   5.357  1.7409  0.1604 -3.4060
  747MOL0     H  808   3.042   6.080   5.334  0.2728  2.6085 -2.5900
  747MOL0     H  809   2.905   5.702   5.198 -2.1497  0.1991 -1.8236
  747MOL0     H  810   2.916   5.766   5.359 -0.7776 -2.0916 -0.6012
  747MOL0     H  811   2.683   5.860   5.335  3.2014  1.2451 -0.1994
  747MOL0     H  812   2.667   5.787   5.176  0.4301  0.2980 -0.4081
  747MOL0     H  813   2.646   5.580   5.245 -2.5065  0.4576 -0.1634
  747MOL0     H  814   2.756   5.596   5.387  1.2480 -0.9413 -0.5596
  747MOL0     H  815   2.458   5.673   5.392 -1.7763  0.5276  1.2110
  747MOL0     H  816   2.563   5.701   5.530 -0.0412 -1.7958  1.0170
  747MOL0     H  817   2.626   5.461   5.528  0.2658  0.0692  0.2515
  747MOL0     H  818   2.507   5.440   5.396 -0.3828  0.2515  0.4309
  747MOL0     H  819   2.466   5.559   5.673  1.6375  2.2641 -2.9227
  747MOL0     H  820   2.333   5.541   5.566 -0.8561 -0.4717 -0.2214
  747MOL0     H  821   2.370   5.366   5.745  2.3176 -1.5787  0.8970
  747MOL0     H  822   2.493   5.298   5.632  0.3013 -0.8625 -0.6019
  747MOL0     H  823   2.336   5.295   5.448 -0.9534 -1.8925 -0.4742
  747MOL0     H  824   2.277   5.187   5.580 -2.2820  0.2684 -1.8233
  747MOL0     H  825   3.099   5.742   5.088  0.7839 -1.5867  1.5164
  747MOL0     H  826   3.349   5.759   5.124 -0.0577  0.1066  0.6766
  747MOL0     H  827   3.733   5.704   5.464 -2.0819  0.4316  0.3723
  747MOL0     H  828   3.966   5.781   5.518  0.2988  0.7921  0.4506
  747MOL0     H  829   3.904   6.062   5.804  0.4007 -2.4797 -0.4063
  747MOL0     H  830   3.669   6.041   5.768 -2.3030  1.5406  0.4064
  747MOL0     H  831   3.324   6.010   5.643 -1.5729 -0.9535 -1.2999
  747MOL0     H  832   3.096   5.948   5.706 -0.4808  0.5132  1.4327
  747MOL0     H  833   2.909   5.931   5.612  0.2760  2.1396  1.9059
  747MOL0     H  834   2.826   6.032   5.502 -0.1229 -2.5024 -0.7544
  747MOL0     H  835   2.703   5.906   5.763 -2.4632  0.3255  0.1950
  747MOL0     H  836   2.699   5.833   5.606  2.0921  0.7562 -0.5721
  747MOL0     H  837   2.558   6.022   5.513  0.1260 -3.6277 -0.4637
  747MOL0     H  838   2.590   6.114   5.663  1.9704 -1.7299  3.1007
  747MOL0     H  839   2.431   5.869   5.623  0.7256 -0.1423 -0.6574
  747MOL0     H  840   2.468   5.944   5.784 -2.1232 -0.5972  0.4470
  747MOL0     H  841   2.159   6.180   5.607  1.1159 -0.3659 -3.0226
  747MOL0     H  842   2.951   6.340   5.607 -2.0784 -1.4120 -0.3059
  747MOL0     H  843   3.085   6.509   5.554  1.0218 -0.7874 -1.1760
  747MOL0     H  844   3.240   6.500   5.636  1.6787  0.4895 -1.7744
  747MOL0     H  845   3.212   6.475   5.456 -1.2310  0.5523 -0.6919
  748MOL0     O  846   2.197  11.213   6.124  0.4589  0.3459 -0.5652
  748MOL0     C  847   2.127  11.303   6.165 -0.1328  0.9489 -0.1371
  748MOL0     O  848   2.164  11.391   6.261  0.6037  0.8964  0.5079
  748MOL0     C  849   2.277  11.375   6.327  0.4227 -0.3930 -0.1726
  748MOL0     C  850   2.287  11.309   6.447 -0.3285 -0.9092 -0.5611
  748MOL0     C  851   2.408  11.313   6.523  0.7788  0.0895 -0.6271
  748MOL0     C  852   2.525  11.367   6.470  0.1527 -0.1955  0.0243
  748MOL0     O  853   2.631  11.370   6.551 -0.7541  0.6917 -0.5704
  748MOL0     C  854   2.761  11.358   6.491 -0.1283 -0.4021 -0.2061
  748MOL0     C  855   2.870  11.388   6.598 -0.0331 -0.5362  0.1431
  748MOL0     C  856   2.879  11.536   6.631  0.0088 -0.3296  0.2743
  748MOL0     C  857   2.978  11.565   6.731 -0.1907 -0.4451 -0.2589
  748MOL0     C  858   2.946  11.512   6.869 -0.1749 -0.7069 -0.0702
  748MOL0     C  859   3.051  11.553   6.970 -1.1856  0.9427  1.2025
  748MOL0     C  860   3.023  11.518   7.117  0.1162  0.4169  0.0242
  748MOL0     C  861   3.154  11.531   7.202 -0.5137  0.7542 -0.5506
  748MOL0     N  862   3.181  11.669   7.236  0.1137  0.9085 -0.0185
  748MOL0     C  863   3.284  11.687   7.323 -0.0298 -0.3916  0.9563
  748MOL0     C  864   3.300  11.826   7.316  0.1343  0.8657 -0.6958
  748MOL0     C  865   3.393  11.897   7.392  0.0361 -0.1900 -0.3364
  748MOL0     C  866   3.480  12.000   7.311 -0.7510 -1.4179  0.0728
  748MOL0     C  867   3.558  12.094   7.397 -0.1849 -0.6557 -0.5446
  748MOL0     C  868   3.648  12.182   7.314  0.3432 -0.3879  1.2414
  748MOL0     O  869   3.737  12.264   7.394 -0.3325  0.6953  0.7202
  748MOL0     C  870   3.845  12.328   7.330  0.3562 -0.5846  0.0999
  748MOL0     C  871   3.883  12.316   7.195 -0.0298 -0.1450 -0.7460
  748MOL0     C  872   3.987  12.392   7.151 -0.1934  0.3293  0.1989
  748MOL0     C  873   4.069  12.475   7.228 -0.4690 -0.9107 -0.7668
  748MOL0     C  874   4.182  12.550   7.171 -0.4419  0.2107  0.3193
  748MOL0     O  875   4.242  12.641   7.252 -0.0576 -0.3159 -0.2523
  748MOL0     C  876   4.339  12.712   7.184 -0.3340 -0.8768  0.4838
  748MOL0     C  877   4.311  12.790   7.068  0.9370  0.1161 -0.2090
  748MOL0     C  878   4.420  12.847   7.008 -0.7156 -0.6319  0.7793
  748MOL0     C  879   4.554  12.834   7.053 -0.0496 -0.1268 -0.7944
  748MOL0     O  880   4.665  12.885   6.991  0.2037  0.3982  0.2497
  748MOL0     C  881   4.659  12.937   6.861 -0.3352 -0.1585 -0.5218
  748MOL0     C  882   4.794  12.928   6.804 -0.4976 -0.3510  0.2997
  748MOL0     C  883   4.898  13.019   6.876 -0.4302  0.4884 -0.1244
  748MOL0     C  884   5.024  13.031   6.789  0.4703  0.6847  0.3512
  748MOL0     C  885   5.128  13.117   6.845 -0.3298 -0.6744 -0.0968
  748MOL0     C  886   5.231  13.136   6.734  0.5403  0.3616 -0.3122
  748MOL0     C  887   5.345  13.213   6.786 -0.2277  0.2839 -0.0695
  748MOL0     C  888   5.451  13.203   6.673  0.4805  0.5508  0.5906
  748MOL0    Cl  889   5.572  13.332   6.689 -0.3571  0.4630 -0.0762
  748MOL0     C  890   4.576  12.758   7.172 -0.2517  0.0644  0.3264
  748MOL0     C  891   4.467  12.700   7.238 -0.1680  0.1898  0.4411
  748MOL0     O  892   4.229  12.513   7.066  0.4038 -0.1008  0.4364
  748MOL0     C  893   4.033  12.485   7.363  0.5792 -0.3809 -0.1534
  748MOL0     C  894   3.928  12.409   7.416  0.3147  0.0038 -0.2862
  748MOL0     N  895   3.205  11.873   7.226  0.7679 -0.5789  0.1715
  748MOL0     N  896   3.135  11.781   7.173  0.1416 -0.4560 -0.4426
  748MOL0     C  897   2.513  11.428   6.345  0.2284  0.2925  0.4900
  748MOL0     C  898   2.388  11.438   6.278 -0.1716 -0.4458 -0.0225
  748MOL0     C  899   1.991  11.317   6.113  0.6449  0.5943  0.5854
  748MOL0     C  900   1.954  11.227   6.014 -0.6342 -0.1177 -0.4904
  748MOL0     C  901   1.844  11.244   5.941  0.4990 -0.3679 -0.0499
  748MOL0     C  902   1.746  11.327   5.981  0.2849  0.6601  0.2199
  748MOL0     O  903   1.630  11.326   5.898 -0.3693  0.2950 -0.5436
  748MOL0     C  904   1.522  11.411   5.932 -0.3732 -0.3076  0.1910
  748MOL0     C  905   1.415  11.386   5.818 -0.3272  0.1320  1.0623
  748MOL0     C  906   1.460  11.436   5.674 -0.6564  1.0372  0.1933
  748MOL0     C  907   1.468  11.586   5.663 -0.1891  0.1258 -0.4995
  748MOL0     C  908   1.341  11.656   5.670 -0.1479 -0.3454  0.4570
  748MOL0     C  909   1.233  11.712   5.676 -0.5035 -0.3001 -0.6125
  748MOL0     C  910   1.765  11.399   6.095 -0.5412  0.2305  0.1911
  748MOL0     C  911   1.885  11.396   6.175  0.0347 -0.2080 -0.1643
  748MOL0     C  912   1.894  11.483   6.297 -0.0755  0.1988 -0.0016
  748MOL0     H  913   2.196  11.269   6.489 -0.6623  0.5491  0.1877
  748MOL0     H  914   2.405  11.270   6.622  2.6550  0.6962 -0.2715
  748MOL0     H  915   2.769  11.254   6.456  1.5046  0.2453 -1.8690
  748MOL0     H  916   2.775  11.426   6.407  1.7878 -0.1691  0.2538
  748MOL0     H  917   2.966  11.360   6.554 -1.0727 -0.7913 -2.0861
  748MOL0     H  918   2.863  11.314   6.678  0.7375  0.3923  1.0982
  748MOL0     H  919   2.775  11.556   6.656 -0.5480 -1.3834 -1.0362
  748MOL0     H  920   2.883  11.598   6.541 -1.7144  1.4904  1.3740
  748MOL0     H  921   3.080  11.532   6.706  0.9610  2.2440  0.4580
  748MOL0     H  922   2.979  11.673   6.748  0.7938 -0.7410  2.0182
  748MOL0     H  923   2.852  11.558   6.903  1.0657  0.9989  1.2108
  748MOL0     H  924   2.939  11.404   6.857  0.9055 -1.5471  4.7205
  748MOL0     H  925   3.150  11.515   6.940 -1.2111  2.9463 -1.7859
  748MOL0     H  926   3.058  11.662   6.965  0.5443  0.9542  2.5836
  748MOL0     H  927   2.988  11.415   7.124  0.4838  0.2380 -0.6639
  748MOL0     H  928   2.946  11.586   7.156 -0.9171 -1.5367  1.6005
  748MOL0     H  929   3.142  11.475   7.295 -1.4996  1.1205 -0.4410
  748MOL0     H  930   3.241  11.492   7.149  1.0990  0.7562  1.9052
  748MOL0     H  931   3.341  11.606   7.368  1.9733  1.3683  1.8209
  748MOL0     H  932   3.337  11.947   7.471 -0.8626 -0.6448 -0.6709
  748MOL0     H  933   3.463  11.831   7.445  0.1461 -0.5434 -0.9064
  748MOL0     H  934   3.542  11.957   7.231  2.0405  1.7776  0.2697
  748MOL0     H  935   3.413  12.065   7.255  2.6487  2.5588  0.1698
  748MOL0     H  936   3.622  12.041   7.468  1.8738 -0.4524 -2.1413
  748MOL0     H  937   3.491  12.155   7.458 -0.8367 -1.2217 -0.6775
  748MOL0     H  938   3.583  12.246   7.253  1.0520  0.6648  1.5747
  748MOL0     H  939   3.702  12.122   7.240  0.5623 -1.6039  2.3524
  748MOL0     H  940   3.825  12.256   7.126  0.4489 -1.3555 -0.1243
  748MOL0     H  941   4.019  12.369   7.050  0.9637 -0.3709  0.7050
  748MOL0     H  942   4.218  12.811   7.015 -0.4904  1.8866  2.7473
  748MOL0     H  943   4.413  12.925   6.932  1.7101 -1.4939 -0.4369
  748MOL0     H  944   4.588  12.886   6.795 -0.5942  1.6903 -1.7661
  748MOL0     H  945   4.625  13.041   6.862 -0.6171 -0.2509  0.9263
  748MOL0     H  946   4.823  12.823   6.794 -1.9790 -0.9289  1.6702
  748MOL0     H  947   4.772  12.967   6.704  1.2269  0.1418  0.0845
  748MOL0     H  948   4.851  13.118   6.887  0.3381  0.9170 -0.6306
  748MOL0     H  949   4.935  12.996   6.976  1.5023 -0.8136 -1.0772
  748MOL0     H  950   4.993  13.060   6.688  0.8814 -4.1059 -1.4208
  748MOL0     H  951   5.049  12.925   6.775 -1.5607 -0.1667  2.4325
  748MOL0     H  952   5.159  13.077   6.942  0.9259  1.2474  0.3333
  748MOL0     H  953   5.101  13.221   6.866  1.6994 -0.4045  1.6108
  748MOL0     H  954   5.269  13.039   6.701  1.3375 -0.9864  3.8510
  748MOL0     H  955   5.188  13.192   6.651  0.8880 -0.4560 -1.0555
  748MOL0     H  956   5.392  13.168   6.874  1.8428 -0.2753 -1.3790
  748MOL0     H  957   5.321  13.316   6.817 -1.0438  0.5583 -1.5573
  748MOL0     H  958   5.501  13.107   6.675  0.0675  0.0313 -3.7457
  748MOL0     H  959   5.402  13.211   6.575  0.2591 -0.1452  0.6418
  748MOL0     H  960   4.677  12.751   7.210  1.3912 -0.5333 -3.7140
  748MOL0     H  961   4.479  12.644   7.330 -2.1396  0.0312  0.6472
  748MOL0     H  962   4.106  12.538   7.424  1.2187 -1.1079 -0.2645
  748MOL0     H  963   3.901  12.412   7.521 -0.1304  1.7688 -0.4366
  748MOL0     H  964   2.595  11.487   6.305  0.2422 -0.7055 -1.0478
  748MOL0     H  965   2.374  11.511   6.199 -0.7059  3.4046  3.2698
  748MOL0     H  966   2.022  11.152   5.977 -1.7344 -1.6445  0.4429
  748MOL0     H  967   1.836  11.180   5.854  1.4995 -0.2262 -0.2574
  748MOL0     H  968   1.547  11.517   5.929  0.5717 -0.5381 -0.5744
  748MOL0     H  969   1.492  11.377   6.032 -1.2946 -2.3414 -0.7093
  748MOL0     H  970   1.327  11.449   5.829 -0.2329  0.7722 -1.3489
  748MOL0     H  971   1.396  11.278   5.814  0.5849 -0.0213 -2.8419
  748MOL0     H  972   1.406  11.407   5.583 -2.4983  2.9046  0.6096
  748MOL0     H  973   1.558  11.392   5.652  1.0656  2.5841  3.9182
  748MOL0     H  974   1.536  11.633   5.734  0.3935  1.8788 -2.1189
  748MOL0     H  975   1.504  11.605   5.561  0.4296 -1.3117 -0.5710
  748MOL0     H  976   1.143  11.770   5.683  0.2619  0.9695 -0.8977
  748MOL0     H  977   1.691  11.475   6.120  0.1114  0.8402  0.3178
  748MOL0     H  978   1.794  11.518   6.324 -2.2490 -1.8611 -4.2780
  748MOL0     H  979   1.954  11.438   6.377 -0.0514  3.3064  1.8915
  748MOL0     H  980   1.956  11.564   6.258 -2.6089  3.4845  2.2229
  749MOL0     O  981   8.120   6.461   6.540  0.1353 -0.3370  0.1532
  749MOL0     C  982   8.058   6.563   6.511 -0.6760 -0.7884 -0.1234
  749MOL0     O  983   8.112   6.672   6.444 -0.0943  0.2786 -0.3071
  749MOL0     C  984   8.247   6.696   6.460 -0.1416 -0.0156 -0.1462
  749MOL0     C  985   8.333   6.698   6.362 -0.0593  0.1605  0.3067
  749MOL0     C  986   8.467   6.727   6.385 -0.2891 -0.1536  0.1646
  749MOL0     C  987   8.510   6.744   6.513  0.2226  0.0640 -0.0695
  749MOL0     O  988   8.652   6.767   6.533 -0.3565  0.4915  0.2311
  749MOL0     C  989   8.710   6.686   6.635  0.8053 -0.9370 -0.4543
  749MOL0     C  990   8.850   6.687   6.593  0.0387  0.3316  0.4308
  749MOL0     C  991   8.930   6.564   6.651 -0.1301  0.4528 -0.1661
  749MOL0     C  992   8.858   6.424   6.626 -0.4352  0.1012 -0.4266
  749MOL0     C  993   8.965   6.311   6.620  0.1725 -0.0027  0.1059
  749MOL0     C  994   9.068   6.312   6.505 -0.0261 -0.3061  0.0585
  749MOL0     C  995   9.163   6.188   6.524 -0.0690  0.3988 -0.1201
  749MOL0     C  996   9.264   6.164   6.410 -0.9890  0.6437 -0.0756
  749MOL0     N  997   9.315   6.293   6.357 -0.3104 -0.9347  0.5663
  749MOL0     C  998   9.429   6.358   6.408  0.1717  0.4283  0.2369
  749MOL0     C  999   9.423   6.484   6.340 -0.0723 -0.0839  0.4414
  749MOL0     C 1000   9.518   6.603   6.376  0.0854 -0.1643  0.2295
  749MOL0     C 1001   9.666   6.557   6.369 -0.2203 -0.1926 -0.2058
  749MOL0     C 1002   9.746   6.673   6.399 -0.1847 -0.7828 -0.8046
  749MOL0     C 1003   9.890   6.651   6.417  0.5037  0.5373  0.6138
  749MOL0     O 1004   9.943   6.608   6.289 -0.4547  0.4458  0.2343
  749MOL0     C 1005  10.067   6.545   6.312  0.3095  0.1499  0.0863
  749MOL0     C 1006  10.178   6.636   6.317  0.6424 -0.1286  0.2013
  749MOL0     C 1007  10.305   6.584   6.341  0.8256 -0.8317 -0.8449
  749MOL0     C 1008  10.325   6.445   6.345 -0.1368 -0.1496 -0.6515
  749MOL0     C 1009  10.464   6.391   6.357  0.6300 -0.7304 -0.4099
  749MOL0     O 1010  10.471   6.255   6.367  0.7057 -0.6611  0.2023
  749MOL0     C 1011  10.599   6.203   6.372  0.8311  0.0159  0.1053
  749MOL0     C 1012  10.651   6.166   6.249 -0.6987  0.6098  0.4705
  749MOL0     C 1013  10.779   6.110   6.231  0.1381 -0.0430 -0.2217
  749MOL0     C 1014  10.858   6.089   6.347 -0.4577 -0.4537  0.0972
  749MOL0     O 1015  10.981   6.030   6.334  0.3444 -0.1454  0.3262
  749MOL0     C 1016  11.026   5.953   6.449  0.1653  0.0369  0.2386
  749MOL0     C 1017  11.160   5.900   6.413  0.1004  0.4297  0.0905
  749MOL0     C 1018  11.196   5.784   6.504  0.4946  1.0068  0.3462
  749MOL0     C 1019  11.314   5.715   6.439  0.2467 -0.2399  0.4276
  749MOL0     C 1020  11.355   5.590   6.518 -0.7450  0.9034 -0.1148
  749MOL0     C 1021  11.480   5.526   6.453  0.0715 -0.1306 -0.0800
  749MOL0     C 1022  11.483   5.519   6.304 -1.1258 -0.1977 -0.6700
  749MOL0     C 1023  11.607   5.439   6.256  0.1399  0.1013  0.4258
  749MOL0    Cl 1024  11.767   5.508   6.323  0.0285  0.1458  0.1055
  749MOL0     C 1025  10.798   6.124   6.475 -0.0857 -0.5123 -0.1366
  749MOL0     C 1026  10.671   6.183   6.486  1.2443 -0.2058  0.2294
  749MOL0     O 1027  10.554   6.468   6.342  0.3982 -0.2342 -0.7652
  749MOL0     C 1028  10.216   6.360   6.342  0.1494  0.1411  0.7790
  749MOL0     C 1029  10.089   6.414   6.327  0.3396  0.4554  0.0835
  749MOL0     N 1030   9.317   6.487   6.251 -0.3761 -0.3545  0.0083
  749MOL0     N 1031   9.262   6.370   6.256 -0.6365  0.4791  0.6347
  749MOL0     C 1032   8.419   6.741   6.625 -0.2466  0.8577 -0.0528
  749MOL0     C 1033   8.285   6.724   6.592 -0.1229  0.5776 -0.3958
  749MOL0     C 1034   7.909   6.573   6.545 -0.2005 -0.3583  1.0460
  749MOL0     C 1035   7.856   6.698   6.518  0.9668 -0.0024  0.1885
  749MOL0     C 1036   7.728   6.738   6.557  0.4653 -0.6401  0.0395
  749MOL0     C 1037   7.657   6.647   6.629  0.7569  0.4748 -0.5519
  749MOL0     O 1038   7.529   6.684   6.661 -0.4987 -0.3677  0.5296
  749MOL0     C 1039   7.456   6.628   6.775 -0.1471  0.3969 -0.2556
  749MOL0     C 1040   7.385   6.738   6.854  0.2122  0.2195  0.0347
  749MOL0     C 1041   7.275   6.811   6.780  0.0832 -0.1572  0.4868
  749MOL0     C 1042   7.168   6.871   6.874 -0.2971 -0.4222  1.8360
  749MOL0     C 1043   7.076   6.766   6.929  0.5171  0.3479 -0.4927
  749MOL0     C 1044   7.020   6.670   6.979  0.7425 -1.3955 -0.9321
  749MOL0     C 1045   7.707   6.519   6.653  0.1562 -0.0809  0.7960
  749MOL0     C 1046   7.834   6.473   6.609  0.1490 -1.0518 -0.8776
  749MOL0     C 1047   7.873   6.333   6.622  0.4731 -0.1372  0.3838
  749MOL0     H 1048   8.293   6.693   6.261  0.0473  1.0610  0.2109
  749MOL0     H 1049   8.534   6.740   6.301  3.1574 -0.3830  2.6624
  749MOL0     H 1050   8.695   6.726   6.735 -3.6073  0.3256 -1.4102
  749MOL0     H 1051   8.663   6.588   6.635 -0.4367 -0.4076  1.7699
  749MOL0     H 1052   8.905   6.780   6.609  2.9443 -1.3086  0.8468
  749MOL0     H 1053   8.857   6.683   6.484 -1.7694  0.8794  0.2709
  749MOL0     H 1054   8.956   6.573   6.758 -1.3024  0.0849  0.1542
  749MOL0     H 1055   9.026   6.572   6.598 -0.6636  1.2799 -1.0302
  749MOL0     H 1056   8.794   6.403   6.712  0.0607 -1.4330 -0.3964
  749MOL0     H 1057   8.795   6.428   6.537 -1.5323  2.8026  0.3779
  749MOL0     H 1058   9.010   6.311   6.719 -2.3562  3.0120  1.4330
  749MOL0     H 1059   8.910   6.217   6.611 -0.1990  0.3376 -1.4898
  749MOL0     H 1060   9.021   6.308   6.406 -0.4441  3.0657 -0.0017
  749MOL0     H 1061   9.122   6.407   6.504 -1.1551  0.3822  1.3200
  749MOL0     H 1062   9.107   6.095   6.538  2.1750 -0.8024  1.3913
  749MOL0     H 1063   9.214   6.199   6.620 -2.3964  0.4754  1.1840
  749MOL0     H 1064   9.353   6.107   6.437 -0.8178 -1.6488 -4.5756
  749MOL0     H 1065   9.212   6.112   6.329 -1.8146  1.0897  0.1640
  749MOL0     H 1066   9.493   6.330   6.491 -0.1517  2.0614  1.0993
  749MOL0     H 1067   9.498   6.681   6.301  2.6878 -0.8517 -1.3093
  749MOL0     H 1068   9.490   6.637   6.476 -2.0637 -0.6242 -0.1553
  749MOL0     H 1069   9.683   6.480   6.444  2.8167  0.6033  0.0563
  749MOL0     H 1070   9.674   6.506   6.273 -1.9795 -0.1408 -0.4160
  749MOL0     H 1071   9.709   6.708   6.496 -0.5622  1.0233 -1.5648
  749MOL0     H 1072   9.730   6.750   6.323 -1.2252  2.0858  2.1225
  749MOL0     H 1073   9.905   6.582   6.500  1.5014  0.5211  0.4315
  749MOL0     H 1074   9.943   6.741   6.449  0.1924  1.8715 -2.3002
  749MOL0     H 1075  10.164   6.741   6.294 -1.1777 -0.1962  0.8033
  749MOL0     H 1076  10.388   6.654   6.341 -1.5929  2.2528 -0.7993
  749MOL0     H 1077  10.600   6.186   6.155 -0.4961 -0.9997 -0.0034
  749MOL0     H 1078  10.820   6.091   6.132  0.6394  1.6352 -0.3669
  749MOL0     H 1079  11.028   6.009   6.543 -1.4160 -0.1769  0.4245
  749MOL0     H 1080  10.952   5.876   6.475 -1.8094  2.2096  1.4607
  749MOL0     H 1081  11.160   5.871   6.308  2.8212  0.0782  0.0928
  749MOL0     H 1082  11.238   5.976   6.423  2.0079 -1.5302  1.2280
  749MOL0     H 1083  11.231   5.827   6.598  0.9622  0.5041  0.4032
  749MOL0     H 1084  11.108   5.720   6.513 -0.6638  2.0366 -2.4240
  749MOL0     H 1085  11.394   5.786   6.418 -0.6772  0.9270  0.7127
  749MOL0     H 1086  11.286   5.676   6.341  1.9881 -2.0394  0.5775
  749MOL0     H 1087  11.278   5.513   6.517 -0.4091  0.5487  0.4924
  749MOL0     H 1088  11.383   5.611   6.622  2.9349  2.4102 -1.2216
  749MOL0     H 1089  11.565   5.573   6.502  0.8032 -1.8251  0.3073
  749MOL0     H 1090  11.486   5.420   6.476  0.5689  0.4289  2.7124
  749MOL0     H 1091  11.480   5.608   6.241  1.0791 -0.0158 -0.5869
  749MOL0     H 1092  11.392   5.471   6.266 -1.7733  2.1810 -2.3385
  749MOL0     H 1093  11.599   5.333   6.286 -1.6618 -0.1362 -0.7474
  749MOL0     H 1094  11.608   5.449   6.147  2.1922 -0.5889  0.3433
  749MOL0     H 1095  10.847   6.103   6.569  0.9671 -0.9727 -0.7667
  749MOL0     H 1096  10.631   6.228   6.576  1.5036  3.8413 -1.4312
  749MOL0     H 1097  10.212   6.253   6.357  0.0696  0.0663  0.2351
  749MOL0     H 1098  10.004   6.348   6.314 -0.6706  2.0454 -2.0819
  749MOL0     H 1099   8.454   6.746   6.728 -0.2924  1.1864 -0.0532
  749MOL0     H 1100   8.212   6.738   6.671 -0.6556  2.8140 -1.2027
  749MOL0     H 1101   7.916   6.768   6.460  0.4037  0.8857  0.6607
  749MOL0     H 1102   7.680   6.830   6.527  0.3247 -0.0031  2.0333
  749MOL0     H 1103   7.520   6.573   6.843  0.2633 -0.5127 -1.3432
  749MOL0     H 1104   7.379   6.557   6.743  0.3864 -0.4000  0.2372
  749MOL0     H 1105   7.450   6.816   6.894 -0.1070  0.6603 -0.2945
  749MOL0     H 1106   7.340   6.687   6.940  1.7168  0.4100  0.9676
  749MOL0     H 1107   7.212   6.739   6.727 -0.6462  0.4769  0.4692
  749MOL0     H 1108   7.321   6.880   6.709 -0.2865 -0.8395 -0.4182
  749MOL0     H 1109   7.209   6.943   6.945 -0.5945  0.7982  0.8119
  749MOL0     H 1110   7.097   6.920   6.806  0.7447 -4.5306 -2.7312
  749MOL0     H 1111   6.977   6.578   7.014 -2.4113  0.1893 -0.2063
  749MOL0     H 1112   7.634   6.453   6.698  0.9092 -0.4136  1.5585
  749MOL0     H 1113   7.941   6.316   6.706  2.6633  0.5621 -1.1665
  749MOL0     H 1114   7.790   6.268   6.652  0.0151  0.6348  0.8090
  749MOL0     H 1115   7.924   6.296   6.532  0.5294 -1.0650  0.7787
  750MOL0     O 1116   9.649   4.179   2.101 -0.4854 -0.0736 -0.2786
  750MOL0     C 1117   9.601   4.090   2.163  0.9444  0.1976 -0.3541
  750MOL0     O 1118   9.635   4.061   2.295 -0.1894 -0.0299  0.2642
  750MOL0     C 1119   9.752   4.107   2.348  0.0688 -0.1819 -0.6048
  750MOL0     C 1120   9.735   4.164   2.476 -0.0837 -1.0857 -0.2630
  750MOL0     C 1121   9.842   4.245   2.525  0.0128  0.2981 -0.1008
  750MOL0     C 1122   9.963   4.257   2.450 -0.3535  0.4369  0.2692
  750MOL0     O 1123  10.080   4.325   2.490 -0.3878 -0.3285  0.0095
  750MOL0     C 1124  10.095   4.392   2.609 -0.1883  0.0215  0.7495
  750MOL0     C 1125  10.237   4.395   2.628 -0.3059  0.1713 -0.4507
  750MOL0     C 1126  10.284   4.416   2.776 -0.3336  0.4555 -0.7592
  750MOL0     C 1127  10.280   4.561   2.818 -0.0105 -0.0280 -0.8194
  750MOL0     C 1128  10.306   4.587   2.963  0.7579  0.4694  0.8300
  750MOL0     C 1129  10.280   4.736   2.997 -0.7713 -0.1214  0.4837
  750MOL0     C 1130  10.347   4.780   3.134  0.0346  0.3551 -0.2521
  750MOL0     C 1131  10.334   4.930   3.157  0.6842 -0.3669 -0.2238
  750MOL0     N 1132  10.413   5.010   3.061 -0.0874 -0.1222  0.1619
  750MOL0     C 1133  10.546   4.979   3.029 -0.1648  0.1025 -0.1090
  750MOL0     C 1134  10.597   5.078   2.955  0.4563  0.1260 -0.0138
  750MOL0     C 1135  10.745   5.100   2.920 -0.2335  0.1704  0.2975
  750MOL0     C 1136  10.779   5.070   2.773 -0.2396 -0.5866  0.1695
  750MOL0     C 1137  10.922   5.093   2.731  0.7570 -0.0997 -0.4155
  750MOL0     C 1138  11.024   4.976   2.752 -0.2178 -0.4198 -0.1117
  750MOL0     O 1139  10.999   4.882   2.652 -0.1435 -0.4930 -0.4448
  750MOL0     C 1140  11.083   4.775   2.643  0.4617  0.0268  0.3300
  750MOL0     C 1141  11.102   4.725   2.517 -0.2157 -0.1779  0.7159
  750MOL0     C 1142  11.178   4.610   2.494 -0.3530 -0.3415 -0.1797
  750MOL0     C 1143  11.248   4.554   2.601  0.3970  0.2430  0.0425
  750MOL0     C 1144  11.321   4.433   2.591 -0.1763 -0.4909  0.3371
  750MOL0     O 1145  11.374   4.407   2.474  0.2568 -0.2158  0.2402
  750MOL0     C 1146  11.475   4.321   2.455  0.1389  0.6830  0.3544
  750MOL0     C 1147  11.568   4.277   2.548 -0.0501 -0.2652 -0.1009
  750MOL0     C 1148  11.682   4.205   2.512  0.4127  0.4206  0.6273
  750MOL0     C 1149  11.713   4.173   2.378  0.4562  0.5183 -0.2696
  750MOL0     O 1150  11.831   4.101   2.342 -0.0335 -0.5367  0.4283
  750MOL0     C 1151  11.906   4.038   2.451  0.0437 -0.7181 -0.3963
  750MOL0     C 1152  11.984   3.932   2.373 -0.2597  0.5907  0.2841
  750MOL0     C 1153  12.076   3.854   2.464 -0.4382  0.6412 -0.3254
  750MOL0     C 1154  12.181   3.754   2.395  0.4921 -0.4049 -0.8991
  750MOL0     C 1155  12.248   3.661   2.499 -0.4524 -0.2220  0.5039
  750MOL0     C 1156  12.331   3.553   2.433  0.5963  0.1662  0.9619
  750MOL0     C 1157  12.378   3.446   2.525 -0.1999  0.2437  0.0434
  750MOL0     C 1158  12.463   3.515   2.634  0.0910 -0.6758 -0.0757
  750MOL0    Cl 1159  12.538   3.390   2.737  0.1254 -0.0699 -0.1659
  750MOL0     C 1160  11.622   4.217   2.288 -0.1469  0.0490 -0.5706
  750MOL0     C 1161  11.505   4.290   2.321 -0.5370 -0.0659 -1.0530
  750MOL0     O 1162  11.334   4.364   2.689 -0.7978 -0.6299  0.7482
  750MOL0     C 1163  11.215   4.598   2.734  0.0905  0.7899  0.0901
  750MOL0     C 1164  11.136   4.708   2.751  0.1413  0.2073  0.8293
  750MOL0     N 1165  10.497   5.166   2.926  0.2333  0.7195 -0.0774
  750MOL0     N 1166  10.389   5.123   2.995 -0.1032  0.2762 -0.1811
  750MOL0     C 1167   9.975   4.192   2.330  0.7692 -0.3327  0.7235
  750MOL0     C 1168   9.873   4.109   2.280 -0.0008 -0.0786 -1.1066
  750MOL0     C 1169   9.471   4.020   2.113  0.3761 -0.2588 -0.4230
  750MOL0     C 1170   9.404   3.941   2.207 -0.2853 -0.0794  0.1172
  750MOL0     C 1171   9.284   3.883   2.170 -0.6774  0.0632 -0.0183
  750MOL0     C 1172   9.228   3.901   2.043 -0.2706 -0.2856 -0.3222
  750MOL0     O 1173   9.114   3.832   1.986 -0.1677  0.5729 -0.1329
  750MOL0     C 1174   9.042   3.745   2.068  0.6026  0.2928 -0.4645
  750MOL0     C 1175   8.923   3.687   1.984 -0.6082 -0.4333  0.3398
  750MOL0     C 1176   8.875   3.578   2.089 -0.1638  0.5902  0.3165
  750MOL0     C 1177   8.738   3.525   2.059  0.4730 -0.7402 -0.0957
  750MOL0     C 1178   8.630   3.624   2.040 -0.4221 -0.2957 -0.6311
  750MOL0     C 1179   8.549   3.713   2.033 -0.4950  0.2666 -0.3335
  750MOL0     C 1180   9.284   3.992   1.954 -0.1127 -0.4313 -0.2476
  750MOL0     C 1181   9.412   4.052   1.988 -0.0684  0.5466  1.0588
  750MOL0     C 1182   9.467   4.144   1.887  0.1551  0.2391  0.1431
  750MOL0     H 1183   9.634   4.161   2.517  0.1095  0.5290  0.4303
  750MOL0     H 1184   9.811   4.305   2.610 -1.4879 -0.9876  0.3045
  750MOL0     H 1185  10.047   4.490   2.608 -1.0273 -0.3214  2.5921
  750MOL0     H 1186  10.055   4.334   2.693  0.9029 -0.9945  0.5872
  750MOL0     H 1187  10.276   4.470   2.559 -2.8037 -0.4866 -2.7812
  750MOL0     H 1188  10.275   4.298   2.593  1.0525  0.7658 -0.7248
  750MOL0     H 1189  10.387   4.379   2.781 -0.1229  1.1452  0.3062
  750MOL0     H 1190  10.217   4.360   2.841 -0.2506  0.2539 -0.8444
  750MOL0     H 1191  10.352   4.616   2.756  1.3250 -0.7212  0.0465
  750MOL0     H 1192  10.179   4.600   2.807 -0.3926 -1.4336 -3.0318
  750MOL0     H 1193  10.238   4.531   3.028  0.0436  0.1385 -0.1657
  750MOL0     H 1194  10.405   4.544   2.980  0.3295 -1.1376 -0.3773
  750MOL0     H 1195  10.316   4.801   2.917 -2.1036  1.7281  1.3381
  750MOL0     H 1196  10.172   4.752   2.999 -1.4281 -3.6164  0.7531
  750MOL0     H 1197  10.453   4.755   3.134  0.0723  0.5067 -0.5369
  750MOL0     H 1198  10.297   4.720   3.211  0.4375  1.0921  0.5980
  750MOL0     H 1199  10.233   4.971   3.151  1.3044  1.0084 -2.0538
  750MOL0     H 1200  10.372   4.943   3.259  0.0778  0.1073 -0.0532
  750MOL0     H 1201  10.595   4.888   3.062  1.1313  0.5631 -0.6841
  750MOL0     H 1202  10.767   5.206   2.936 -3.6115  1.2531 -1.3628
  750MOL0     H 1203  10.816   5.049   2.986  0.0119 -1.7647 -1.3515
  750MOL0     H 1204  10.751   4.969   2.744 -1.3186  0.5007 -3.0260
  750MOL0     H 1205  10.709   5.134   2.717 -0.7453 -2.3986 -1.3847
  750MOL0     H 1206  10.963   5.186   2.771 -0.5020 -0.1776  1.1470
  750MOL0     H 1207  10.917   5.113   2.624  1.1495  1.3189 -0.1886
  750MOL0     H 1208  11.010   4.938   2.853  0.3811 -3.6161 -1.1380
  750MOL0     H 1209  11.124   5.018   2.738 -0.3572  0.2630  0.8566
  750MOL0     H 1210  11.052   4.777   2.436  2.1806 -3.6872 -3.4570
  750MOL0     H 1211  11.198   4.578   2.393 -1.6303  2.0209 -1.2562
  750MOL0     H 1212  11.553   4.298   2.653  1.3997 -0.7101  0.2286
  750MOL0     H 1213  11.752   4.183   2.591  1.3329  2.0938  0.3355
  750MOL0     H 1214  11.981   4.111   2.484 -1.2214  1.1274 -1.4310
  750MOL0     H 1215  11.851   3.994   2.535  0.8019  1.3410  1.2742
  750MOL0     H 1216  11.918   3.851   2.341  1.4522  0.7277 -4.2072
  750MOL0     H 1217  12.027   3.983   2.286 -1.4901  1.3424  0.0911
  750MOL0     H 1218  12.130   3.929   2.521 -1.5130  1.8540 -0.8594
  750MOL0     H 1219  12.014   3.798   2.535  0.4211 -2.5463 -1.8774
  750MOL0     H 1220  12.266   3.804   2.347  0.5079  1.2256  0.7071
  750MOL0     H 1221  12.121   3.687   2.333 -0.4277 -1.4584  1.0307
  750MOL0     H 1222  12.177   3.620   2.572  0.9525  0.0673  2.0886
  750MOL0     H 1223  12.313   3.727   2.557  0.0723 -0.3148  0.0225
  750MOL0     H 1224  12.265   3.500   2.363 -0.9952  2.7732  0.3630
  750MOL0     H 1225  12.413   3.594   2.373 -1.9620  1.7614 -1.7033
  750MOL0     H 1226  12.435   3.362   2.484 -1.0100 -0.4334  0.2926
  750MOL0     H 1227  12.299   3.400   2.584  1.2489 -0.0100  1.9005
  750MOL0     H 1228  12.540   3.578   2.588 -0.3851  0.2903  0.4203
  750MOL0     H 1229  12.411   3.583   2.702 -0.0563 -0.5251 -0.3367
  750MOL0     H 1230  11.633   4.200   2.181 -0.0013  3.5119 -1.2048
  750MOL0     H 1231  11.440   4.323   2.240 -2.7949 -1.5737  0.0475
  750MOL0     H 1232  11.257   4.569   2.830  2.3902  4.0374  0.2137
  750MOL0     H 1233  11.110   4.741   2.852 -0.7856  2.3668 -0.0500
  750MOL0     H 1234  10.064   4.196   2.266 -0.4786 -0.2767 -1.0837
  750MOL0     H 1235   9.879   4.058   2.185 -1.2581 -0.2431 -1.1189
  750MOL0     H 1236   9.447   3.925   2.306  1.4605 -0.7023 -0.7095
  750MOL0     H 1237   9.238   3.818   2.244  2.7620 -1.2307  1.1699
  750MOL0     H 1238   9.020   3.791   2.165  2.7639  1.0717 -0.2941
  750MOL0     H 1239   9.112   3.664   2.092 -0.5569  0.0483  2.5837
  750MOL0     H 1240   8.969   3.638   1.898  0.9963 -0.2396  1.0600
  750MOL0     H 1241   8.856   3.767   1.953 -0.6846  0.4286  2.5430
  750MOL0     H 1242   8.874   3.608   2.194  3.4211 -0.2032  0.7059
  750MOL0     H 1243   8.945   3.495   2.099  0.3881  0.7607 -1.7341
  750MOL0     H 1244   8.747   3.470   1.964 -0.6112 -0.8181 -0.1608
  750MOL0     H 1245   8.712   3.461   2.144  0.7640 -1.9029 -0.8510
  750MOL0     H 1246   8.470   3.785   2.027  1.0553  2.0628 -0.0639
  750MOL0     H 1247   9.239   4.020   1.859 -3.7354  1.4639  1.7960
  750MOL0     H 1248   9.569   4.115   1.859  0.1000  1.1587 -1.0969
  750MOL0     H 1249   9.408   4.152   1.795 -1.6535 -1.2552  1.0981
  750MOL0     H 1250   9.463   4.246   1.924 -0.8215 -0.1148  1.0765
  751MOL0     O 1251   7.097   7.159   2.805  0.5442 -0.2164 -0.1573
  751MOL0     C 1252   7.032   7.107   2.718 -0.9157  0.7550 -0.4669
  751MOL0     O 1253   7.043   6.975   2.685  0.8307 -0.5559 -0.1102
  751MOL0     C 1254   7.103   6.895   2.781  0.2049  0.4902  0.7991
  751MOL0     C 1255   7.037   6.863   2.894 -0.1513 -0.3605  0.0595
  751MOL0     C 1256   7.096   6.793   2.994  0.2383 -1.1532 -1.2090
  751MOL0     C 1257   7.218   6.734   2.987  0.1455  0.5583  0.4071
  751MOL0     O 1258   7.267   6.660   3.094  0.3916  0.9275 -0.3179
  751MOL0     C 1259   7.232   6.681   3.230  0.6679  0.0811  1.1049
  751MOL0     C 1260   7.282   6.824   3.275  0.5784  0.2179  0.3422
  751MOL0     C 1261   7.431   6.845   3.255 -0.0592 -0.3211  0.3364
  751MOL0     C 1262   7.482   6.951   3.347  0.2323  1.2765  0.3345
  751MOL0     C 1263   7.628   6.975   3.323  0.7937 -0.1920 -0.2489
  751MOL0     C 1264   7.693   7.084   3.417 -0.3113  0.1225 -0.6095
  751MOL0     C 1265   7.844   7.077   3.408  0.2710 -0.5314 -0.2392
  751MOL0     C 1266   7.918   7.158   3.511 -0.5743 -0.5200  0.5061
  751MOL0     N 1267   7.886   7.299   3.531 -0.1875 -0.1581 -0.1577
  751MOL0     C 1268   7.815   7.333   3.643 -0.4456  0.2721 -0.4851
  751MOL0     C 1269   7.841   7.468   3.656  0.0775  0.1237  0.0409
  751MOL0     C 1270   7.783   7.550   3.770  0.4192  0.2539  0.3644
  751MOL0     C 1271   7.888   7.561   3.885  0.1871  0.3891  0.1052
  751MOL0     C 1272   8.034   7.576   3.846  0.5774 -0.3130  0.1458
  751MOL0     C 1273   8.066   7.717   3.774  0.3364 -0.3839 -0.8486
  751MOL0     O 1274   8.192   7.723   3.712 -0.0163 -0.0942  0.0556
  751MOL0     C 1275   8.303   7.738   3.798 -0.0009  0.2992 -0.1881
  751MOL0     C 1276   8.293   7.756   3.943  0.1581 -0.1039  0.2004
  751MOL0     C 1277   8.399   7.775   4.021  1.1231 -0.5627 -0.1641
  751MOL0     C 1278   8.526   7.775   3.963 -0.8007 -0.2340 -0.0467
  751MOL0     C 1279   8.653   7.794   4.039 -0.0425 -0.0262 -0.2789
  751MOL0     O 1280   8.636   7.783   4.178  0.0985  0.4161  0.1240
  751MOL0     C 1281   8.752   7.805   4.259  0.4002 -0.8500 -0.9006
  751MOL0     C 1282   8.725   7.874   4.379 -0.1796  0.7171 -1.0586
  751MOL0     C 1283   8.828   7.899   4.478 -0.2253 -0.2406  0.8801
  751MOL0     C 1284   8.963   7.861   4.450 -0.3051 -0.0319 -1.7590
  751MOL0     O 1285   9.068   7.892   4.538  0.2007 -0.1790 -0.0836
  751MOL0     C 1286   9.189   7.811   4.525 -0.6346  0.8271 -0.1372
  751MOL0     C 1287   9.293   7.863   4.629 -0.9862 -0.1454  0.5937
  751MOL0     C 1288   9.436   7.807   4.617  0.3147 -0.4442  1.3069
  751MOL0     C 1289   9.432   7.662   4.676 -0.9648  0.2296  0.4470
  751MOL0     C 1290   9.570   7.605   4.651 -0.2239  0.1333 -0.2112
  751MOL0     C 1291   9.663   7.625   4.769  0.2100 -1.3743 -0.2234
  751MOL0     C 1292   9.804   7.579   4.750  0.2198  0.0618  0.1265
  751MOL0     C 1293   9.888   7.600   4.882  0.0969  0.0749  0.0497
  751MOL0    Cl 1294   9.989   7.457   4.893 -0.3767 -0.0973  0.0527
  751MOL0     C 1295   8.982   7.785   4.334  0.1900  0.7669 -0.6887
  751MOL0     C 1296   8.886   7.765   4.233 -0.1269 -0.3817  0.4399
  751MOL0     O 1297   8.764   7.789   3.983  0.1408  0.0701 -0.0456
  751MOL0     C 1298   8.541   7.763   3.822  0.0965  0.3762  0.9781
  751MOL0     C 1299   8.427   7.737   3.742 -0.7570 -0.3830  0.1052
  751MOL0     N 1300   7.907   7.510   3.539 -0.4938 -0.6709 -0.6555
  751MOL0     N 1301   7.927   7.410   3.466  0.7105  0.6994  0.1417
  751MOL0     C 1302   7.289   6.754   2.863  0.2469  1.1900 -0.7565
  751MOL0     C 1303   7.229   6.834   2.759  0.3814 -1.1558  0.4171
  751MOL0     C 1304   6.954   7.184   2.621 -0.3937 -0.4178  0.2417
  751MOL0     C 1305   6.912   7.114   2.511  0.6818 -0.4731  0.7877
  751MOL0     C 1306   6.819   7.169   2.420 -0.0061  0.3370 -0.6940
  751MOL0     C 1307   6.777   7.304   2.431 -0.7189 -0.3190 -0.7634
  751MOL0     O 1308   6.704   7.375   2.339  0.3578 -0.7851 -0.6601
  751MOL0     C 1309   6.662   7.303   2.218 -0.0100  0.0199  1.1526
  751MOL0     C 1310   6.514   7.326   2.188 -0.5214 -0.1813 -0.8977
  751MOL0     C 1311   6.485   7.473   2.191 -0.5932  0.5135  0.2530
  751MOL0     C 1312   6.339   7.502   2.158 -0.3894 -0.0841 -0.0208
  751MOL0     C 1313   6.312   7.486   2.014 -0.7643  0.5541 -0.0659
  751MOL0     C 1314   6.284   7.475   1.900 -0.2423  0.1557 -0.4735
  751MOL0     C 1315   6.842   7.376   2.530 -0.4060 -0.2997  0.3548
  751MOL0     C 1316   6.911   7.317   2.633 -0.4744 -0.1170 -0.4174
  751MOL0     C 1317   6.949   7.409   2.743 -0.1924 -0.4456 -0.2908
  751MOL0     H 1318   6.940   6.908   2.911  0.3930  0.6984  0.4464
  751MOL0     H 1319   7.036   6.800   3.085 -2.8035  1.3486 -3.1932
  751MOL0     H 1320   7.124   6.664   3.229  0.4107  1.4232 -1.7558
  751MOL0     H 1321   7.280   6.608   3.296 -0.8907 -1.2103  0.8641
  751MOL0     H 1322   7.252   6.843   3.379 -1.2547  0.3100 -0.1536
  751MOL0     H 1323   7.242   6.904   3.212 -0.9850 -0.9386 -0.2026
  751MOL0     H 1324   7.446   6.878   3.152 -0.1380 -1.0601  0.0806
  751MOL0     H 1325   7.493   6.756   3.272  2.3066  1.6109  2.7904
  751MOL0     H 1326   7.420   7.041   3.337 -3.3528 -1.0923 -0.9337
  751MOL0     H 1327   7.470   6.907   3.446 -0.1600 -3.2578 -1.5187
  751MOL0     H 1328   7.668   6.877   3.350  0.1834 -1.2413 -2.8167
  751MOL0     H 1329   7.657   6.994   3.219  0.0271 -1.2887 -0.6735
  751MOL0     H 1330   7.659   7.184   3.391 -0.5698  1.1889  3.2733
  751MOL0     H 1331   7.671   7.066   3.522  0.9765 -1.7152 -0.5987
  751MOL0     H 1332   7.875   7.106   3.307 -0.9177 -0.8204 -0.6988
  751MOL0     H 1333   7.863   6.970   3.416 -2.4276 -1.0177  0.6080
  751MOL0     H 1334   7.906   7.114   3.610 -3.0630  2.1714  1.5426
  751MOL0     H 1335   8.020   7.148   3.472 -0.9281 -0.5718 -0.4313
  751MOL0     H 1336   7.759   7.266   3.707  0.3603  0.2814  0.2620
  751MOL0     H 1337   7.759   7.648   3.727  1.0597 -0.9977 -3.2652
  751MOL0     H 1338   7.692   7.496   3.796  0.6806 -0.1736  0.4010
  751MOL0     H 1339   7.861   7.652   3.939 -0.4393  1.0230 -1.2237
  751MOL0     H 1340   7.889   7.473   3.949  0.1450 -0.1142 -0.5657
  751MOL0     H 1341   8.070   7.486   3.796  0.9197 -0.4690  0.6625
  751MOL0     H 1342   8.083   7.575   3.944  0.1986  1.0138  0.3832
  751MOL0     H 1343   8.054   7.807   3.835  1.4669  0.0083 -1.1776
  751MOL0     H 1344   7.997   7.729   3.690  1.1537 -0.0491 -1.4814
  751MOL0     H 1345   8.194   7.754   3.986  0.1961  0.0280  0.2965
  751MOL0     H 1346   8.380   7.791   4.127  1.6896  0.2094 -0.1714
  751MOL0     H 1347   8.620   7.895   4.394 -0.5965 -0.9895 -1.4250
  751MOL0     H 1348   8.813   7.948   4.573  1.3524 -0.2244  1.1445
  751MOL0     H 1349   9.162   7.707   4.545 -2.1988  1.2626  0.1406
  751MOL0     H 1350   9.247   7.804   4.433 -0.5341 -1.8806  0.0529
  751MOL0     H 1351   9.312   7.970   4.620  3.3439 -0.6772  1.3816
  751MOL0     H 1352   9.259   7.830   4.728 -0.7383 -0.6368  0.5181
  751MOL0     H 1353   9.462   7.820   4.512 -0.3393  0.1532  1.2102
  751MOL0     H 1354   9.501   7.872   4.676  1.3747 -1.0215  0.8027
  751MOL0     H 1355   9.368   7.604   4.609  1.2351 -0.5688 -1.1055
  751MOL0     H 1356   9.402   7.659   4.781  1.0494  3.1994  1.2323
  751MOL0     H 1357   9.615   7.645   4.560 -3.4159  1.3587 -1.4160
  751MOL0     H 1358   9.548   7.499   4.633 -1.5086  0.3987 -0.3211
  751MOL0     H 1359   9.667   7.729   4.801 -1.9014 -1.8607  1.9477
  751MOL0     H 1360   9.612   7.590   4.859  0.7081  0.9898  1.0664
  751MOL0     H 1361   9.858   7.633   4.672  0.5127  2.0586  1.6194
  751MOL0     H 1362   9.792   7.473   4.726 -0.5139 -0.3227  1.9912
  751MOL0     H 1363   9.951   7.689   4.891  0.8211 -0.4813  0.7208
  751MOL0     H 1364   9.816   7.596   4.964  0.1375 -0.2166  0.0737
  751MOL0     H 1365   9.073   7.733   4.303 -1.6102 -3.1958  0.0762
  751MOL0     H 1366   8.910   7.701   4.150 -0.0419 -0.3212  0.4172
  751MOL0     H 1367   8.637   7.770   3.773 -1.7233 -0.3591 -3.0954
  751MOL0     H 1368   8.439   7.744   3.635  2.1012 -0.6513  0.3397
  751MOL0     H 1369   7.389   6.713   2.852 -0.0314 -0.1320  1.2636
  751MOL0     H 1370   7.284   6.850   2.667 -0.6602  2.8703  0.2997
  751MOL0     H 1371   6.955   7.019   2.482 -0.8166 -0.0525 -3.4587
  751MOL0     H 1372   6.816   7.121   2.323 -0.0963  1.7596 -1.4307
  751MOL0     H 1373   6.675   7.195   2.219  2.7692  0.0575 -3.2316
  751MOL0     H 1374   6.717   7.339   2.130 -0.6617 -1.9602 -0.1287
  751MOL0     H 1375   6.445   7.268   2.250 -1.0574  0.8203 -0.5364
  751MOL0     H 1376   6.502   7.295   2.084  2.8659  0.1256 -1.4940
  751MOL0     H 1377   6.546   7.530   2.121 -1.3182  1.1736  0.1392
  751MOL0     H 1378   6.515   7.519   2.285 -0.4757  1.2954 -0.1584
  751MOL0     H 1379   6.281   7.434   2.221 -2.2967 -0.8071 -2.3934
  751MOL0     H 1380   6.312   7.603   2.193 -0.3378 -0.2227  0.4280
  751MOL0     H 1381   6.265   7.464   1.795 -0.5086 -0.2583 -0.3842
  751MOL0     H 1382   6.837   7.484   2.518 -0.5484 -0.4076 -0.6566
  751MOL0     H 1383   6.886   7.498   2.738  2.3380  1.6033  1.3511
  751MOL0     H 1384   6.930   7.363   2.841  2.9979  1.3261  1.3121
  751MOL0     H 1385   7.053   7.443   2.748 -0.5269  0.4731  1.3226
  752MOL0     O 1386   2.959   8.966   3.235  0.5375  0.8083 -0.1119
  752MOL0     C 1387   2.989   8.944   3.117 -0.1502  0.7984  0.3110
  752MOL0     O 1388   2.896   8.920   3.008 -0.2679 -0.5296 -0.0820
  752MOL0     C 1389   2.765   8.919   3.046  0.2113  0.3564  0.3147
  752MOL0     C 1390   2.698   8.804   3.094 -0.2395 -0.3212  0.1640
  752MOL0     C 1391   2.559   8.812   3.132 -0.6977 -0.2798 -0.1216
  752MOL0     C 1392   2.502   8.938   3.131 -0.6168 -0.0395 -0.0104
  752MOL0     O 1393   2.358   8.954   3.153 -0.7260  0.6471  0.6648
  752MOL0     C 1394   2.276   8.844   3.185 -0.4524  0.4308 -0.7787
  752MOL0     C 1395   2.130   8.878   3.147  0.6262  0.0806  0.4816
  752MOL0     C 1396   2.036   8.759   3.132  0.1617 -0.4120 -0.1392
  752MOL0     C 1397   1.994   8.705   3.266 -1.1374 -1.0156  0.5403
  752MOL0     C 1398   1.876   8.616   3.249  0.8621 -0.1891 -0.5750
  752MOL0     C 1399   1.833   8.557   3.384 -0.5373 -0.4297 -0.9883
  752MOL0     C 1400   1.699   8.486   3.382 -0.5960 -1.3741 -0.4010
  752MOL0     C 1401   1.690   8.336   3.368  1.0405 -0.1501  0.3629
  752MOL0     N 1402   1.748   8.284   3.250  0.6604  0.0411  0.7878
  752MOL0     C 1403   1.881   8.275   3.227  1.2291  0.6078  0.0173
  752MOL0     C 1404   1.899   8.195   3.115  0.0876 -0.1790  0.2190
  752MOL0     C 1405   2.025   8.127   3.051 -0.1817  0.1770  0.9198
  752MOL0     C 1406   2.145   8.218   3.068 -1.4136  0.2981 -0.3358
  752MOL0     C 1407   2.264   8.146   2.995  0.4104  0.4880 -0.9396
  752MOL0     C 1408   2.405   8.225   2.983  1.0535  0.1457 -0.3310
  752MOL0     O 1409   2.381   8.358   2.938 -0.2364  0.7174  0.1936
  752MOL0     C 1410   2.483   8.435   2.895 -0.2503  0.9323 -0.2207
  752MOL0     C 1411   2.613   8.423   2.947 -0.9552  0.6759  0.1007
  752MOL0     C 1412   2.712   8.501   2.895  0.2582 -0.9627 -0.1042
  752MOL0     C 1413   2.695   8.586   2.788 -0.1669  0.1509 -0.4193
  752MOL0     C 1414   2.812   8.663   2.738  0.2740 -0.0529 -0.2782
  752MOL0     O 1415   2.791   8.709   2.611 -0.0952 -0.3845  0.6746
  752MOL0     C 1416   2.885   8.787   2.542  0.1431  0.3084  0.1616
  752MOL0     C 1417   2.837   8.898   2.463 -0.0250  1.1482  0.2438
  752MOL0     C 1418   2.930   8.969   2.395  0.7107  0.3307  0.1996
  752MOL0     C 1419   3.064   8.939   2.399 -0.6056 -0.3618  0.2550
  752MOL0     O 1420   3.153   9.005   2.314 -0.5020 -0.6585 -0.2271
  752MOL0     C 1421   3.105   9.059   2.188 -0.7631 -0.3459 -0.1360
  752MOL0     C 1422   3.214   9.092   2.084  0.1126 -0.5411  0.3363
  752MOL0     C 1423   3.311   8.986   2.041  0.0226 -0.3855 -0.3715
  752MOL0     C 1424   3.415   9.034   1.946 -0.0821 -0.6780 -0.2795
  752MOL0     C 1425   3.525   8.926   1.931  0.2452 -0.4458  0.6984
  752MOL0     C 1426   3.635   8.986   1.838  0.2477 -0.6817 -0.2455
  752MOL0     C 1427   3.591   9.038   1.691  0.2051 -0.1859 -0.0496
  752MOL0     C 1428   3.715   9.076   1.613  0.7491 -0.6577  0.1914
  752MOL0    Cl 1429   3.805   9.218   1.675  0.2159 -0.2055 -0.1434
  752MOL0     C 1430   3.117   8.835   2.469 -0.7537 -0.3552  0.3181
  752MOL0     C 1431   3.026   8.749   2.541 -0.3296 -0.0048 -0.5988
  752MOL0     O 1432   2.912   8.679   2.804 -0.1390 -0.0695  0.2006
  752MOL0     C 1433   2.570   8.602   2.738 -0.3190 -0.6225  0.5476
  752MOL0     C 1434   2.467   8.528   2.794  0.3290 -0.2515 -0.3197
  752MOL0     N 1435   1.770   8.182   3.062 -0.6075 -0.6716  0.9053
  752MOL0     N 1436   1.681   8.222   3.145  0.3259 -0.3151  0.3231
  752MOL0     C 1437   2.572   9.045   3.087 -0.1204 -1.1568 -0.0932
  752MOL0     C 1438   2.700   9.043   3.048 -0.2972  0.1955 -0.8821
  752MOL0     C 1439   3.134   8.927   3.079 -0.7780  0.2509  0.1335
  752MOL0     C 1440   3.169   8.880   2.952 -0.0345  0.3635 -0.3378
  752MOL0     C 1441   3.295   8.876   2.904 -0.9815  0.5308 -0.2005
  752MOL0     C 1442   3.398   8.907   2.993 -0.0978  0.2841  0.3749
  752MOL0     O 1443   3.536   8.903   2.965  0.3961 -0.4855  0.1900
  752MOL0     C 1444   3.576   8.847   2.840  0.3250 -0.3330  0.0414
  752MOL0     C 1445   3.729   8.833   2.842  0.4657 -0.1540 -0.9304
  752MOL0     C 1446   3.791   8.772   2.715  0.4151 -0.1756  0.3106
  752MOL0     C 1447   3.946   8.791   2.701 -0.0156  0.3279  0.4333
  752MOL0     C 1448   4.020   8.717   2.803 -0.0008 -0.9396  0.0904
  752MOL0     C 1449   4.062   8.660   2.900  0.8572  0.0584  0.8156
  752MOL0     C 1450   3.372   8.957   3.117  0.3033 -0.1968 -0.9464
  752MOL0     C 1451   3.245   8.967   3.166 -0.4235 -0.2879  0.0800
  752MOL0     C 1452   3.233   9.003   3.314 -0.0354  0.6096 -0.6755
  752MOL0     H 1453   2.754   8.711   3.096 -0.1857 -0.3638 -1.4715
  752MOL0     H 1454   2.506   8.725   3.171  0.8667 -0.7080  1.1530
  752MOL0     H 1455   2.301   8.757   3.124  0.9890  0.9538 -0.9767
  752MOL0     H 1456   2.293   8.813   3.289 -2.0362 -0.5971 -0.7948
  752MOL0     H 1457   2.124   8.933   3.052  0.3501  1.0386  1.0450
  752MOL0     H 1458   2.088   8.942   3.224  2.7327  1.3942  0.6044
  752MOL0     H 1459   2.082   8.681   3.070  2.6623  0.0605  1.0128
  752MOL0     H 1460   1.949   8.802   3.081 -0.0928 -1.3747 -0.5495
  752MOL0     H 1461   2.070   8.647   3.319 -1.8590 -1.8673  0.6653
  752MOL0     H 1462   1.966   8.791   3.327  1.1835 -1.2409  2.0438
  752MOL0     H 1463   1.796   8.676   3.204  0.0798  0.6490  1.7547
  752MOL0     H 1464   1.896   8.536   3.177  2.2904  2.1893 -3.0064
  752MOL0     H 1465   1.906   8.490   3.431 -1.6965 -0.9015  0.2010
  752MOL0     H 1466   1.830   8.639   3.457  4.9718 -1.7112  1.1985
  752MOL0     H 1467   1.648   8.541   3.302 -0.4487 -0.1314  0.3345
  752MOL0     H 1468   1.659   8.515   3.479 -1.0198  1.9344 -1.4324
  752MOL0     H 1469   1.720   8.285   3.460 -0.0792 -4.2801 -1.3150
  752MOL0     H 1470   1.585   8.314   3.348  1.3288 -1.3923  0.1426
  752MOL0     H 1471   1.957   8.308   3.298  1.7478 -3.3666  1.5708
  752MOL0     H 1472   2.027   8.026   3.092  0.5221 -0.4726 -0.6484
  752MOL0     H 1473   2.011   8.111   2.944 -1.7144  0.9160  0.9798
  752MOL0     H 1474   2.127   8.322   3.041  2.0309  1.8489  2.5159
  752MOL0     H 1475   2.178   8.210   3.172  2.1143 -2.6945 -1.4730
  752MOL0     H 1476   2.230   8.114   2.896  2.7073 -1.7883 -1.0935
  752MOL0     H 1477   2.283   8.053   3.048  0.6572  1.0699  0.0124
  752MOL0     H 1478   2.480   8.175   2.920  1.0766 -1.7058  1.0621
  752MOL0     H 1479   2.439   8.229   3.087  1.7343 -2.0185 -0.4149
  752MOL0     H 1480   2.643   8.358   3.028 -1.3655 -0.6631 -0.7903
  752MOL0     H 1481   2.807   8.488   2.946  0.5786 -3.2989 -1.1244
  752MOL0     H 1482   2.732   8.916   2.443  0.1078  0.2905 -1.3297
  752MOL0     H 1483   2.878   9.052   2.348 -0.4564  0.7819  2.1228
  752MOL0     H 1484   3.028   8.990   2.152  0.1126 -2.1964  1.4194
  752MOL0     H 1485   3.061   9.154   2.220  1.5486 -0.1769  3.0144
  752MOL0     H 1486   3.162   9.140   2.001 -0.3164  0.5968  1.2414
  752MOL0     H 1487   3.276   9.172   2.125  0.6346 -0.4091 -0.6935
  752MOL0     H 1488   3.366   8.954   2.130  1.2947 -0.3112 -1.1101
  752MOL0     H 1489   3.254   8.902   2.000 -1.3525 -0.8543  2.2958
  752MOL0     H 1490   3.462   9.128   1.975 -1.1428 -0.0566 -0.4946
  752MOL0     H 1491   3.368   9.046   1.848 -2.4805 -0.9747  0.7649
  752MOL0     H 1492   3.484   8.838   1.881 -1.2569  0.7502 -0.2715
  752MOL0     H 1493   3.563   8.894   2.028  1.4655 -0.7015  0.1543
  752MOL0     H 1494   3.676   9.072   1.893  0.4663 -1.1059  0.2717
  752MOL0     H 1495   3.711   8.907   1.842  0.3419 -0.5580  0.6734
  752MOL0     H 1496   3.534   9.130   1.703  3.1944  1.9536 -1.0981
  752MOL0     H 1497   3.529   8.965   1.638 -2.5715 -0.9651  3.8373
  752MOL0     H 1498   3.771   8.982   1.616 -0.4015 -1.3914 -0.6761
  752MOL0     H 1499   3.675   9.113   1.518 -2.1740  0.9032  1.9121
  752MOL0     H 1500   3.221   8.807   2.464 -1.3311 -2.9392  1.2354
  752MOL0     H 1501   3.066   8.670   2.604 -0.5615  1.5933  1.6541
  752MOL0     H 1502   2.564   8.677   2.660  1.3326  1.2423  2.1273
  752MOL0     H 1503   2.369   8.536   2.747 -0.9892 -2.1513  1.8946
  752MOL0     H 1504   2.521   9.141   3.084  0.3233 -0.9223 -0.1481
  752MOL0     H 1505   2.762   9.127   3.021 -0.8717  1.4399  1.3706
  752MOL0     H 1506   3.096   8.843   2.880  0.2435 -0.0481 -0.4116
  752MOL0     H 1507   3.309   8.821   2.811 -3.0307  0.6875 -0.6454
  752MOL0     H 1508   3.541   8.908   2.756  2.9772  1.7999  0.3240
  752MOL0     H 1509   3.531   8.749   2.826  2.1529 -1.2180  0.0124
  752MOL0     H 1510   3.742   8.756   2.918  0.3580 -1.3129 -2.0410
  752MOL0     H 1511   3.773   8.932   2.860  2.1855 -1.0528  0.0246
  752MOL0     H 1512   3.751   8.824   2.628  1.9524 -1.3656 -1.1827
  752MOL0     H 1513   3.759   8.668   2.711 -0.6311  0.1425  0.1885
  752MOL0     H 1514   3.976   8.763   2.600  1.6195 -1.8763  1.4626
  752MOL0     H 1515   3.966   8.897   2.717  0.0667  0.2646  0.7550
  752MOL0     H 1516   4.093   8.610   2.990 -0.4081 -1.9476  0.2051
  752MOL0     H 1517   3.452   8.992   3.182 -0.1213  1.8520 -1.4753
  752MOL0     H 1518   3.330   8.977   3.357 -0.1739  0.3539 -0.5176
  752MOL0     H 1519   3.212   9.110   3.330  2.1853  0.9184  0.5874
  752MOL0     H 1520   3.153   8.953   3.368  0.5516 -0.3884 -0.7131
  753MOL0     O 1521  10.566  10.830   3.018 -0.2520 -0.3263 -1.1209
  753MOL0     C 1522  10.494  10.786   2.932 -0.0511  0.1375 -0.2513
  753MOL0     O 1523  10.512  10.796   2.795  0.0120  0.2808  0.0062
  753MOL0     C 1524  10.615  10.878   2.752  0.1581 -0.4227 -1.3203
  753MOL0     C 1525  10.743  10.833   2.732 -0.0624  0.3394  0.2276
  753MOL0     C 1526  10.845  10.929   2.718  0.1224  0.1880  0.1828
  753MOL0     C 1527  10.812  11.061   2.720  1.1503 -0.7503  0.6772
  753MOL0     O 1528  10.907  11.155   2.716 -0.1064 -0.0846 -1.0800
  753MOL0     C 1529  10.946  11.201   2.849 -0.7114 -0.2374  0.1975
  753MOL0     C 1530  11.101  11.204   2.870  0.4578  0.0799  0.2351
  753MOL0     C 1531  11.171  11.300   2.776  0.2530  0.7183 -0.5332
  753MOL0     C 1532  11.323  11.283   2.791  0.2066 -0.3149  0.2146
  753MOL0     C 1533  11.407  11.376   2.705  0.7092 -0.4203  0.0133
  753MOL0     C 1534  11.559  11.375   2.752 -0.0898 -0.0214  0.5533
  753MOL0     C 1535  11.643  11.474   2.670  0.2157 -0.7055 -0.2519
  753MOL0     C 1536  11.675  11.414   2.540 -0.5885 -0.5272 -0.4579
  753MOL0     N 1537  11.725  11.517   2.446  0.2810 -1.3871  0.9382
  753MOL0     C 1538  11.844  11.591   2.449 -0.3992 -0.3646 -0.7232
  753MOL0     C 1539  11.830  11.692   2.364 -0.1119  0.6326 -0.6419
  753MOL0     C 1540  11.926  11.814   2.344  0.0525  0.1186  0.4881
  753MOL0     C 1541  11.924  11.849   2.193 -0.4264 -0.0472 -0.5361
  753MOL0     C 1542  11.989  11.755   2.099 -0.1429 -0.0687 -0.5401
  753MOL0     C 1543  12.144  11.753   2.113  0.3143 -0.4514 -0.3163
  753MOL0     O 1544  12.217  11.652   2.044  0.4469  0.2673  0.1887
  753MOL0     C 1545  12.341  11.680   2.009 -0.4291 -0.5136  0.5065
  753MOL0     C 1546  12.361  11.772   1.906 -0.2960  0.3577  0.1149
  753MOL0     C 1547  12.495  11.788   1.858  0.2306  0.7922 -0.5198
  753MOL0     C 1548  12.602  11.705   1.909  0.0755  0.3574  0.9176
  753MOL0     C 1549  12.739  11.721   1.864 -0.7194  0.7965 -0.1683
  753MOL0     O 1550  12.832  11.640   1.923 -0.0471  0.0578  0.3481
  753MOL0     C 1551  12.964  11.666   1.916 -0.1757 -0.7258 -0.6973
  753MOL0     C 1552  13.014  11.791   1.925  0.1049 -0.3344  0.3177
  753MOL0     C 1553  13.153  11.816   1.904 -0.8495  0.1226  0.3701
  753MOL0     C 1554  13.245  11.709   1.881 -0.4864 -0.2669  0.3995
  753MOL0     O 1555  13.372  11.739   1.863 -0.6795  0.8425 -0.9446
  753MOL0     C 1556  13.467  11.633   1.880  0.8683 -0.3234 -0.8741
  753MOL0     C 1557  13.604  11.695   1.861 -0.3348  0.5515  0.1563
  753MOL0     C 1558  13.699  11.573   1.877  0.0832 -0.2235  0.6852
  753MOL0     C 1559  13.845  11.612   1.871  0.4266 -0.8984  0.4390
  753MOL0     C 1560  13.902  11.668   1.998  0.0487  0.2751 -0.6508
  753MOL0     C 1561  14.058  11.652   1.995  0.3883  0.7716 -0.3363
  753MOL0     C 1562  14.098  11.511   2.047 -0.1310 -0.6978 -0.5997
  753MOL0     C 1563  14.050  11.492   2.188 -0.1785  0.5509  0.6514
  753MOL0    Cl 1564  14.081  11.632   2.300 -0.0365 -0.0624  0.0154
  753MOL0     C 1565  13.190  11.582   1.885 -0.8228  0.8371  0.5260
  753MOL0     C 1566  13.054  11.561   1.897  0.2951 -0.2145  0.0983
  753MOL0     O 1567  12.759  11.817   1.790  0.2414  0.1506  0.0816
  753MOL0     C 1568  12.571  11.619   2.013  0.1541 -0.0049 -0.6820
  753MOL0     C 1569  12.441  11.605   2.061 -0.6004 -0.0207  0.1823
  753MOL0     N 1570  11.708  11.688   2.307  0.1099 -0.1723 -0.7382
  753MOL0     N 1571  11.646  11.586   2.354 -0.5902 -0.3872 -0.0180
  753MOL0     C 1572  10.679  11.108   2.725 -0.4225  0.8499 -0.2455
  753MOL0     C 1573  10.582  11.009   2.736 -0.2570  0.2061 -0.4343
  753MOL0     C 1574  10.371  10.715   2.975 -0.2628 -0.1262  0.7468
  753MOL0     C 1575  10.259  10.714   2.887 -0.0134 -0.5934 -0.0097
  753MOL0     C 1576  10.151  10.634   2.914 -0.0601 -0.4248 -0.3492
  753MOL0     C 1577  10.142  10.557   3.034  0.0302 -1.4116 -0.0436
  753MOL0     O 1578  10.035  10.495   3.081 -0.3101 -0.2529 -0.4458
  753MOL0     C 1579   9.924  10.463   2.998 -0.6473  0.4262  0.2903
  753MOL0     C 1580   9.920  10.322   2.936 -0.2503 -0.5075 -0.7225
  753MOL0     C 1581   9.896  10.216   3.042 -0.0884  0.4684 -0.2181
  753MOL0     C 1582   9.746  10.209   3.094 -0.1240 -0.4267 -0.5499
  753MOL0     C 1583   9.656  10.136   3.006  0.9608  0.0855  0.1121
  753MOL0     C 1584   9.589  10.074   2.923  0.0896 -0.0297 -0.4653
  753MOL0     C 1585  10.246  10.573   3.122  0.0889  1.3645 -0.2485
  753MOL0     C 1586  10.363  10.639   3.094  0.5790 -0.6997 -0.0103
  753MOL0     C 1587  10.480  10.613   3.188  0.2937 -0.4700 -0.4909
  753MOL0     H 1588  10.782  10.732   2.739  0.2444  0.4137 -0.2943
  753MOL0     H 1589  10.950  10.908   2.697  0.3449  3.0397 -2.3838
  753MOL0     H 1590  10.900  11.299   2.865  0.3678  0.6564 -1.6701
  753MOL0     H 1591  10.900  11.132   2.920  0.0289 -1.6054 -0.6104
  753MOL0     H 1592  11.132  11.099   2.858 -0.7071 -0.1964 -0.5193
  753MOL0     H 1593  11.119  11.236   2.973 -1.4094 -2.1470  1.3571
  753MOL0     H 1594  11.134  11.402   2.793 -1.1291  0.3094 -0.9819
  753MOL0     H 1595  11.167  11.274   2.670  0.5238  0.2906 -0.4398
  753MOL0     H 1596  11.360  11.284   2.894  3.7349 -1.0556 -0.8837
  753MOL0     H 1597  11.354  11.184   2.758 -0.3447 -0.9045  1.4355
  753MOL0     H 1598  11.407  11.343   2.601 -0.3990  0.3910 -0.2656
  753MOL0     H 1599  11.363  11.476   2.713 -2.0970 -1.6547  1.3145
  753MOL0     H 1600  11.573  11.409   2.855  2.8345  2.5733 -0.5568
  753MOL0     H 1601  11.593  11.271   2.742  2.1496  0.9024 -3.4335
  753MOL0     H 1602  11.731  11.495   2.731  0.0836 -0.4904 -0.1304
  753MOL0     H 1603  11.582  11.565   2.669 -2.7954 -2.4689  2.6006
  753MOL0     H 1604  11.759  11.344   2.545 -1.0386 -1.1515 -1.3042
  753MOL0     H 1605  11.593  11.366   2.486 -1.3406  0.3756 -0.1639
  753MOL0     H 1606  11.929  11.575   2.515 -0.9282  0.6201  0.2290
  753MOL0     H 1607  11.884  11.899   2.398 -1.7231  0.0127 -0.6551
  753MOL0     H 1608  12.025  11.790   2.384  0.3105  1.7597  0.8843
  753MOL0     H 1609  11.818  11.863   2.174 -1.0188 -2.3780  0.6821
  753MOL0     H 1610  11.974  11.943   2.168  1.0965 -1.4160 -3.2121
  753MOL0     H 1611  11.947  11.781   2.001 -1.1372  1.4704  0.2505
  753MOL0     H 1612  11.955  11.654   2.123  1.4729 -0.2547  1.2130
  753MOL0     H 1613  12.165  11.726   2.218  1.1936 -2.8466 -1.0226
  753MOL0     H 1614  12.190  11.846   2.079 -0.5070 -0.9435 -3.0333
  753MOL0     H 1615  12.277  11.820   1.857  0.4158  0.7575 -0.7384
  753MOL0     H 1616  12.516  11.865   1.784  0.7525  0.3080 -0.8822
  753MOL0     H 1617  12.957  11.881   1.940 -1.5442 -1.4430  0.9918
  753MOL0     H 1618  13.181  11.921   1.901  0.4038 -0.2149 -0.4787
  753MOL0     H 1619  13.467  11.596   1.983  0.0522  1.5542 -0.1575
  753MOL0     H 1620  13.447  11.555   1.806 -2.7961 -0.6004  0.2321
  753MOL0     H 1621  13.608  11.740   1.761 -2.5453  0.7005  0.0915
  753MOL0     H 1622  13.627  11.771   1.935  0.0094 -1.9103  2.7549
  753MOL0     H 1623  13.675  11.532   1.976 -0.8581  1.4220  1.1712
  753MOL0     H 1624  13.682  11.501   1.797  2.9741 -1.1163  0.7536
  753MOL0     H 1625  13.871  11.689   1.798  2.8908 -0.5126  1.6218
  753MOL0     H 1626  13.899  11.521   1.842  0.7466 -1.0004  1.3452
  753MOL0     H 1627  13.848  11.631   2.086  3.3404 -0.3891  1.2636
  753MOL0     H 1628  13.890  11.777   1.997  0.3552  0.3114 -1.9900
  753MOL0     H 1629  14.086  11.662   1.890 -2.9920  0.1152 -1.4238
  753MOL0     H 1630  14.106  11.731   2.053  0.8632 -1.3140  2.2928
  753MOL0     H 1631  14.207  11.512   2.056 -0.3157  0.1990  2.5922
  753MOL0     H 1632  14.050  11.445   1.974  2.1798 -1.0598 -1.9125
  753MOL0     H 1633  13.944  11.467   2.197 -0.5114  1.8717  0.4742
  753MOL0     H 1634  14.103  11.402   2.221  0.5613  1.1582  1.1472
  753MOL0     H 1635  13.255  11.496   1.868  0.7322  2.3064 -1.4538
  753MOL0     H 1636  13.016  11.460   1.886  0.9547 -0.6164  1.3339
  753MOL0     H 1637  12.647  11.559   2.062  1.2542  0.8962 -1.2222
  753MOL0     H 1638  12.422  11.532   2.139 -1.5745  2.3971  2.3489
  753MOL0     H 1639  10.649  11.212   2.737 -1.1253  0.7371 -0.9557
  753MOL0     H 1640  10.477  11.036   2.728 -0.8098 -2.1078 -1.9427
  753MOL0     H 1641  10.268  10.765   2.792 -1.1302  1.2581  0.8245
  753MOL0     H 1642  10.065  10.648   2.848  0.9679  0.0245 -1.6286
  753MOL0     H 1643   9.914  10.528   2.911  0.2040 -0.9118 -0.8532
  753MOL0     H 1644   9.836  10.481   3.061  0.8844  2.9200  1.9037
  753MOL0     H 1645  10.008  10.308   2.872 -0.0051  1.2191 -0.7929
  753MOL0     H 1646   9.833  10.339   2.871 -0.6955 -1.0832 -0.2876
  753MOL0     H 1647   9.968  10.240   3.121 -1.1221 -0.0016  0.8872
  753MOL0     H 1648   9.926  10.119   3.001  2.2769  0.9182  0.2958
  753MOL0     H 1649   9.745  10.157   3.190 -2.3468  3.7064  1.9881
  753MOL0     H 1650   9.706  10.306   3.126 -1.9416 -1.9825  2.2223
  753MOL0     H 1651   9.521  10.022   2.859  2.7436 -3.6073 -0.6803
  753MOL0     H 1652  10.229  10.516   3.213 -0.5519 -1.0327 -1.7900
  753MOL0     H 1653  10.570  10.585   3.132 -0.1250  0.8725 -1.9179
  753MOL0     H 1654  10.507  10.703   3.244 -1.4285  1.2814 -2.3271
  753MOL0     H 1655  10.453  10.533   3.257 -0.3548  2.0009  2.3480
  754MOL0     O 1656   8.205   2.361   2.935  0.3491  0.2999 -0.1375
  754MOL0     C 1657   8.132   2.363   3.038 -0.2439  0.3908 -0.3071
  754MOL0     O 1658   8.180   2.411   3.153  0.1556 -0.5705  0.2113
  754MOL0     C 1659   8.308   2.462   3.163  0.2633 -0.4669 -0.2430
  754MOL0     C 1660   8.329   2.580   3.234 -0.3898 -0.1163  0.3765
  754MOL0     C 1661   8.464   2.629   3.240  0.0685 -0.5330 -1.1447
  754MOL0     C 1662   8.575   2.560   3.192  0.1511 -0.2669  0.4278
  754MOL0     O 1663   8.705   2.604   3.199  0.2702  0.2398  0.2016
  754MOL0     C 1664   8.723   2.739   3.160  0.2280  0.0694  0.0563
  754MOL0     C 1665   8.876   2.780   3.143 -0.8777  0.0731 -0.0725
  754MOL0     C 1666   8.953   2.801   3.271 -0.1433 -0.1207  0.2535
  754MOL0     C 1667   8.982   2.668   3.338  0.3029 -0.0932 -0.4198
  754MOL0     C 1668   9.083   2.678   3.453  0.1165  0.2101 -0.1356
  754MOL0     C 1669   9.040   2.769   3.571  0.5031 -0.0241  0.4872
  754MOL0     C 1670   9.122   2.725   3.691 -0.8373  0.1786  0.1789
  754MOL0     C 1671   9.270   2.753   3.688 -0.0239 -0.2779  0.3616
  754MOL0     N 1672   9.304   2.886   3.655  0.1866 -0.6832  0.0066
  754MOL0     C 1673   9.253   3.004   3.708 -0.3199  0.3344 -0.7597
  754MOL0     C 1674   9.332   3.100   3.665 -1.2200 -0.1124 -0.8081
  754MOL0     C 1675   9.296   3.238   3.712  0.4874  0.4680  0.1579
  754MOL0     C 1676   9.374   3.294   3.832 -0.2172 -0.0072  0.0464
  754MOL0     C 1677   9.519   3.301   3.786  1.0363  0.0607 -0.8783
  754MOL0     C 1678   9.593   3.388   3.880  1.1234  0.0720  0.3668
  754MOL0     O 1679   9.629   3.333   4.009  0.4950 -0.0465  0.4681
  754MOL0     C 1680   9.725   3.383   4.090  0.2218  0.3274 -0.3956
  754MOL0     C 1681   9.816   3.302   4.147  0.6208 -0.4966  1.2899
  754MOL0     C 1682   9.916   3.355   4.240  0.8087 -0.7874  1.0137
  754MOL0     C 1683   9.930   3.493   4.254  0.5208 -0.2116  0.2500
  754MOL0     C 1684  10.049   3.557   4.320 -0.4259 -0.5567 -0.3919
  754MOL0     O 1685  10.082   3.684   4.300 -0.5580 -0.4211 -0.7863
  754MOL0     C 1686  10.197   3.728   4.351  0.6307 -0.1858  0.1214
  754MOL0     C 1687  10.189   3.858   4.402  0.0756  0.3093 -0.5061
  754MOL0     C 1688  10.300   3.936   4.437  1.5136  0.2474 -0.1049
  754MOL0     C 1689  10.428   3.883   4.423 -0.5083  0.1070  0.9524
  754MOL0     O 1690  10.536   3.960   4.456  0.4783  0.2767 -0.7747
  754MOL0     C 1691  10.664   3.908   4.446 -0.0352  0.8289  0.0350
  754MOL0     C 1692  10.758   4.007   4.520 -0.1307  0.2353  0.3303
  754MOL0     C 1693  10.904   3.960   4.520 -0.1859  0.0161 -1.0913
  754MOL0     C 1694  11.005   4.053   4.587 -0.1617  0.3898 -0.2605
  754MOL0     C 1695  11.147   4.058   4.526  0.1140 -0.0738  0.0942
  754MOL0     C 1696  11.238   4.156   4.612  0.1155 -0.5801  0.2229
  754MOL0     C 1697  11.371   4.170   4.544 -0.4063 -0.5204  0.8431
  754MOL0     C 1698  11.426   4.320   4.573  0.0329  0.0978 -0.2818
  754MOL0    Cl 1699  11.599   4.352   4.510  0.2114 -0.1814  0.2423
  754MOL0     C 1700  10.435   3.743   4.385 -0.8602 -0.0981 -0.5323
  754MOL0     C 1701  10.319   3.668   4.338 -0.6575 -0.1199 -1.1727
  754MOL0     O 1702  10.113   3.473   4.391  0.2387  0.0220  0.2239
  754MOL0     C 1703   9.827   3.578   4.200 -0.2994  0.2766  1.0114
  754MOL0     C 1704   9.722   3.522   4.119  0.2573  0.5504  0.3666
  754MOL0     N 1705   9.422   3.052   3.575  0.7518  0.4752 -0.6273
  754MOL0     N 1706   9.399   2.925   3.576 -0.4617  0.9764  0.7028
  754MOL0     C 1707   8.547   2.436   3.139 -0.2495 -0.4955 -0.3733
  754MOL0     C 1708   8.421   2.385   3.131  0.5491 -0.1645  0.0242
  754MOL0     C 1709   7.995   2.305   3.044  1.0811 -1.0415  0.1803
  754MOL0     C 1710   7.896   2.367   3.128  0.0819  0.4020 -0.5739
  754MOL0     C 1711   7.758   2.313   3.130 -0.2371 -0.4863 -1.6484
  754MOL0     C 1712   7.724   2.197   3.062 -0.7014  0.1856 -0.5384
  754MOL0     O 1713   7.603   2.137   3.069  0.0101  0.1550 -0.7381
  754MOL0     C 1714   7.483   2.209   3.075 -0.2060 -0.2434 -0.2065
  754MOL0     C 1715   7.368   2.122   3.022  0.5025 -0.1976 -0.9566
  754MOL0     C 1716   7.334   1.999   3.104  0.5321  0.3655  0.5211
  754MOL0     C 1717   7.229   1.909   3.037  0.4905 -0.0908  0.2600
  754MOL0     C 1718   7.098   1.974   3.027  0.6391 -0.6409 -0.0353
  754MOL0     C 1719   6.995   2.038   3.035 -0.4541 -0.5421 -0.4267
  754MOL0     C 1720   7.827   2.135   2.987 -0.9488 -0.6191  0.9759
  754MOL0     C 1721   7.959   2.184   2.976 -0.1116  0.5980 -0.0143
  754MOL0     C 1722   8.046   2.120   2.875  0.1662  0.4445 -0.3080
  754MOL0     H 1723   8.246   2.634   3.278 -0.0227  0.1358  0.7747
  754MOL0     H 1724   8.478   2.723   3.293 -0.9103 -1.9187  1.7886
  754MOL0     H 1725   8.673   2.759   3.064 -0.3681 -1.8230 -0.0643
  754MOL0     H 1726   8.673   2.808   3.229 -2.1080 -0.3103 -1.1472
  754MOL0     H 1727   8.887   2.863   3.073  0.4184  0.3056  0.3798
  754MOL0     H 1728   8.923   2.706   3.078  0.2051  0.8968 -0.2674
  754MOL0     H 1729   8.897   2.868   3.337 -0.2135  0.8230 -0.7402
  754MOL0     H 1730   9.054   2.841   3.259 -0.5992  2.3075  3.3179
  754MOL0     H 1731   8.889   2.623   3.376 -0.3736  0.2698 -1.5891
  754MOL0     H 1732   9.034   2.610   3.262  0.0468 -0.2537 -0.4748
  754MOL0     H 1733   9.080   2.575   3.490  2.7848  0.2580  0.4301
  754MOL0     H 1734   9.176   2.712   3.405  0.7126  1.6769  1.9528
  754MOL0     H 1735   9.061   2.870   3.534 -5.0480  0.9134 -1.0503
  754MOL0     H 1736   8.934   2.755   3.592  0.3204  0.8375  0.1885
  754MOL0     H 1737   9.099   2.620   3.711 -0.7848 -0.1566 -1.3835
  754MOL0     H 1738   9.089   2.791   3.771  1.4007  0.9312  0.5447
  754MOL0     H 1739   9.315   2.729   3.785  3.5325 -1.2141 -1.3601
  754MOL0     H 1740   9.322   2.689   3.616  0.7585  0.9759 -0.2257
  754MOL0     H 1741   9.170   3.011   3.778  1.1994 -1.6468  1.3924
  754MOL0     H 1742   9.291   3.308   3.629 -0.7225  1.0516  0.7038
  754MOL0     H 1743   9.192   3.240   3.745  0.9710 -3.6742  2.6722
  754MOL0     H 1744   9.328   3.386   3.869 -4.5332 -1.3940 -1.2458
  754MOL0     H 1745   9.366   3.215   3.907 -1.1575 -1.4349 -1.4748
  754MOL0     H 1746   9.525   3.332   3.682  1.6611  0.5284 -0.7116
  754MOL0     H 1747   9.564   3.201   3.787 -0.0187 -0.4219 -0.9166
  754MOL0     H 1748   9.529   3.475   3.899  3.6255  1.9030  0.9330
  754MOL0     H 1749   9.678   3.434   3.829  0.0972  1.2811 -0.3048
  754MOL0     H 1750   9.828   3.201   4.110 -0.3256  0.3699 -1.7220
  754MOL0     H 1751   9.991   3.289   4.282  2.9168 -0.5761 -2.0929
  754MOL0     H 1752  10.087   3.892   4.413  0.9999  3.7248 -1.4143
  754MOL0     H 1753  10.280   4.042   4.449  0.6198 -0.1847  2.8806
  754MOL0     H 1754  10.665   3.809   4.493 -0.5436  1.1936  0.8311
  754MOL0     H 1755  10.689   3.891   4.341  0.5589 -3.0597  0.6358
  754MOL0     H 1756  10.741   4.105   4.476 -1.1561  0.3405  0.9129
  754MOL0     H 1757  10.735   4.011   4.627 -0.2166 -0.9875  0.3799
  754MOL0     H 1758  10.902   3.864   4.571  1.8609  1.3663  1.7304
  754MOL0     H 1759  10.932   3.952   4.414  0.2678  3.6264 -1.3739
  754MOL0     H 1760  11.015   4.028   4.693 -0.6666 -0.8788 -0.4959
  754MOL0     H 1761  10.965   4.154   4.585 -2.0372 -0.3170 -0.1525
  754MOL0     H 1762  11.141   4.099   4.425 -3.4111  1.0321  0.6209
  754MOL0     H 1763  11.181   3.954   4.534  0.8792  0.2903  2.1532
  754MOL0     H 1764  11.190   4.253   4.599 -0.3758 -0.6567  1.3683
  754MOL0     H 1765  11.236   4.132   4.719 -1.6365 -3.1925 -0.2731
  754MOL0     H 1766  11.361   4.163   4.435 -0.3755 -2.4873  0.9319
  754MOL0     H 1767  11.447   4.094   4.564 -0.6408 -0.5495  1.6767
  754MOL0     H 1768  11.359   4.382   4.513 -0.6705 -0.6383 -0.2712
  754MOL0     H 1769  11.421   4.348   4.678  1.3977  0.9297 -0.4143
  754MOL0     H 1770  10.529   3.688   4.379  1.2556  2.9047  1.8369
  754MOL0     H 1771  10.329   3.572   4.288 -5.2731 -0.6890 -1.4421
  754MOL0     H 1772   9.838   3.682   4.229  1.7135  0.9460 -1.7301
  754MOL0     H 1773   9.640   3.583   4.082  0.0303  0.6122  0.9543
  754MOL0     H 1774   8.630   2.377   3.100 -1.5989 -0.3441 -3.7764
  754MOL0     H 1775   8.406   2.285   3.091  2.0881  0.8618 -3.5924
  754MOL0     H 1776   7.927   2.453   3.187 -2.4141  1.6921 -1.0090
  754MOL0     H 1777   7.683   2.370   3.184  1.5948  1.3936 -0.9073
  754MOL0     H 1778   7.491   2.297   3.010 -0.8896 -0.8652 -1.1660
  754MOL0     H 1779   7.461   2.252   3.174 -0.1217  1.2539 -0.8024
  754MOL0     H 1780   7.390   2.085   2.921 -3.9746 -0.2159 -2.1447
  754MOL0     H 1781   7.277   2.183   3.017  0.1649 -0.7526 -1.8109
  754MOL0     H 1782   7.288   2.029   3.199  0.3282 -0.3184  0.6472
  754MOL0     H 1783   7.431   1.951   3.122  0.4905  0.3872  0.8068
  754MOL0     H 1784   7.264   1.879   2.937  0.1099  0.5136 -0.0612
  754MOL0     H 1785   7.213   1.816   3.093 -1.8408  0.3754  0.4538
  754MOL0     H 1786   6.907   2.094   3.012  0.7592  1.4462 -0.4697
  754MOL0     H 1787   7.804   2.039   2.941  1.6378 -1.8351  2.0554
  754MOL0     H 1788   8.076   2.192   2.799  0.0687  1.9911  1.0582
  754MOL0     H 1789   8.129   2.064   2.920  0.2777 -0.3869 -1.4959
  754MOL0     H 1790   7.992   2.049   2.812  2.1438 -1.1964 -0.2405
  755MOL0     O 1791   6.007   5.528   6.960 -0.7054  0.2040  0.1049
  755MOL0     C 1792   6.029   5.452   6.870 -0.1008 -0.4093 -0.0240
  755MOL0     O 1793   6.143   5.438   6.814  0.2273 -0.5116  0.0069
  755MOL0     C 1794   6.243   5.534   6.812  0.3349  0.4226  0.1659
  755MOL0     C 1795   6.329   5.525   6.703  0.4076  0.5023 -0.2843
  755MOL0     C 1796   6.442   5.603   6.700  0.3886  0.9928  0.1887
  755MOL0     C 1797   6.473   5.694   6.805 -0.0854 -0.0818  0.2017
  755MOL0     O 1798   6.581   5.785   6.803  0.3809  0.5525  0.1781
  755MOL0     C 1799   6.656   5.810   6.683 -0.0232  0.0125  0.2148
  755MOL0     C 1800   6.788   5.738   6.680 -0.2866 -0.5469 -0.0902
  755MOL0     C 1801   6.883   5.791   6.784  0.5040  0.2998 -1.1401
  755MOL0     C 1802   7.019   5.754   6.756 -0.1898 -0.3915  1.0502
  755MOL0     C 1803   7.108   5.761   6.884  0.4586 -0.4436  0.4237
  755MOL0     C 1804   7.254   5.765   6.857 -0.6630 -0.0248  0.6641
  755MOL0     C 1805   7.325   5.730   6.988  0.2129 -0.2931  0.5781
  755MOL0     C 1806   7.477   5.715   6.958  0.1681 -0.1337 -0.0393
  755MOL0     N 1807   7.551   5.842   6.926  0.7775 -0.5913  0.5488
  755MOL0     C 1808   7.612   5.940   7.009 -0.0760  0.6705  0.1577
  755MOL0     C 1809   7.674   6.020   6.923 -0.3686 -0.2901  0.4488
  755MOL0     C 1810   7.762   6.127   6.973 -0.2567  0.6792 -0.3005
  755MOL0     C 1811   7.898   6.068   7.026 -0.2665  0.0196  0.0306
  755MOL0     C 1812   7.983   6.173   7.093  0.6557 -0.5097  0.2178
  755MOL0     C 1813   8.128   6.144   7.075 -0.0688 -0.2249 -0.9738
  755MOL0     O 1814   8.151   6.126   6.930 -0.5470 -0.2547 -0.2235
  755MOL0     C 1815   8.274   6.079   6.889  0.3241  0.0884 -0.0297
  755MOL0     C 1816   8.302   6.089   6.753  0.4927  1.1815  0.6427
  755MOL0     C 1817   8.429   6.059   6.704 -0.9067  0.3629 -0.3157
  755MOL0     C 1818   8.533   6.020   6.788 -0.1571  0.6265 -0.0840
  755MOL0     C 1819   8.669   5.976   6.734 -0.6426 -0.0554 -0.2001
  755MOL0     O 1820   8.671   5.960   6.596 -0.0061 -1.1128 -0.2092
  755MOL0     C 1821   8.779   5.948   6.514  0.0521 -0.4918 -0.1039
  755MOL0     C 1822   8.770   6.030   6.392  0.3283  0.3156 -0.3941
  755MOL0     C 1823   8.869   6.037   6.296  0.7505  0.6255 -0.3826
  755MOL0     C 1824   8.976   5.953   6.312 -0.6988 -0.1248 -0.4965
  755MOL0     O 1825   9.075   5.930   6.223 -0.3309 -0.3476 -0.1122
  755MOL0     C 1826   9.037   5.925   6.087  0.2398  0.1125  0.3183
  755MOL0     C 1827   9.142   5.884   5.982  0.0474 -0.2867 -0.1342
  755MOL0     C 1828   9.269   5.977   6.003 -0.4238 -0.7923  0.4316
  755MOL0     C 1829   9.354   5.921   6.118 -0.8851  0.4340 -0.0636
  755MOL0     C 1830   9.486   5.997   6.136 -0.2859 -0.0108 -0.4461
  755MOL0     C 1831   9.556   5.972   6.269 -0.4383 -0.7294 -0.5234
  755MOL0     C 1832   9.663   6.076   6.318  0.2785 -1.4914  0.9651
  755MOL0     C 1833   9.777   6.083   6.216  0.0964 -0.3780  0.6231
  755MOL0    Cl 1834   9.894   5.944   6.214  0.1628 -0.2121 -0.4732
  755MOL0     C 1835   8.992   5.885   6.434  0.4949  0.8950 -0.5337
  755MOL0     C 1836   8.894   5.880   6.535  0.2781  0.1898 -0.3237
  755MOL0     O 1837   8.765   5.962   6.806 -0.9324  0.1366 -0.5822
  755MOL0     C 1838   8.509   6.016   6.927  0.7581 -0.3097  0.0952
  755MOL0     C 1839   8.385   6.053   6.979 -1.2685 -0.0371 -0.4372
  755MOL0     N 1840   7.673   5.976   6.791 -0.2843  0.5946 -0.0639
  755MOL0     N 1841   7.596   5.863   6.800  0.3821  0.4424 -0.5041
  755MOL0     C 1842   6.392   5.688   6.919 -0.2789 -0.6967 -0.7609
  755MOL0     C 1843   6.279   5.606   6.922  0.3947  0.4898  0.1150
  755MOL0     C 1844   5.922   5.360   6.839  1.3060 -0.5917 -0.5646
  755MOL0     C 1845   5.815   5.338   6.936  0.6127  0.7245  0.4353
  755MOL0     C 1846   5.700   5.257   6.907  0.5864 -0.1635  0.5351
  755MOL0     C 1847   5.673   5.223   6.777  0.1517  0.2234 -0.3535
  755MOL0     O 1848   5.560   5.161   6.731  0.9353 -0.0339 -0.0947
  755MOL0     C 1849   5.447   5.162   6.823  0.4382  0.1937 -1.0848
  755MOL0     C 1850   5.330   5.080   6.761  0.9050  0.1850  0.3306
  755MOL0     C 1851   5.371   4.937   6.721 -0.5798 -0.1788  0.1208
  755MOL0     C 1852   5.255   4.884   6.638 -0.4289  0.6539  0.3215
  755MOL0     C 1853   5.146   4.852   6.733 -0.1213 -0.3040 -0.3874
  755MOL0     C 1854   5.063   4.807   6.805 -0.4349 -0.7818  0.2012
  755MOL0     C 1855   5.772   5.239   6.683  0.1098 -0.4852 -0.1781
  755MOL0     C 1856   5.888   5.312   6.708 -0.6824  0.5238  0.1319
  755MOL0     C 1857   5.970   5.356   6.585  0.4232 -0.3350  0.1660
  755MOL0     H 1858   6.301   5.462   6.619  2.0504  1.7439 -1.8363
  755MOL0     H 1859   6.501   5.594   6.610 -1.5857  0.4569 -1.1289
  755MOL0     H 1860   6.590   5.791   6.598 -1.4439 -1.7729  1.6269
  755MOL0     H 1861   6.677   5.917   6.673 -0.8996  0.0478 -1.5040
  755MOL0     H 1862   6.840   5.757   6.586  1.5849  2.0030  1.3347
  755MOL0     H 1863   6.766   5.631   6.688  0.3504 -0.8387 -1.8232
  755MOL0     H 1864   6.855   5.749   6.881  3.1885 -1.3267 -0.9906
  755MOL0     H 1865   6.884   5.900   6.793  2.5266  0.2102  0.3461
  755MOL0     H 1866   7.043   5.653   6.723  0.5904 -0.1078  0.7197
  755MOL0     H 1867   7.067   5.828   6.691 -1.0233 -0.7347  0.0194
  755MOL0     H 1868   7.081   5.851   6.940  1.2932 -1.2962  2.2852
  755MOL0     H 1869   7.084   5.676   6.949 -3.1884  1.8395  2.4296
  755MOL0     H 1870   7.277   5.691   6.780 -3.6405 -0.0229 -0.3415
  755MOL0     H 1871   7.281   5.864   6.819 -1.7682 -0.7447 -2.2380
  755MOL0     H 1872   7.299   5.629   7.023 -3.1868  0.8068  1.5799
  755MOL0     H 1873   7.303   5.803   7.067 -3.9915  0.0174 -0.6193
  755MOL0     H 1874   7.520   5.672   7.049  0.3745  0.2044  0.0255
  755MOL0     H 1875   7.485   5.635   6.884 -3.3237 -0.5731 -0.0818
  755MOL0     H 1876   7.614   5.946   7.117  1.5746  1.0313  0.1325
  755MOL0     H 1877   7.784   6.211   6.908  0.1844  1.1033  0.3783
  755MOL0     H 1878   7.719   6.179   7.060 -0.1076 -0.0447  0.2157
  755MOL0     H 1879   7.872   5.993   7.101  3.0808 -2.0918 -0.6850
  755MOL0     H 1880   7.946   6.012   6.946 -1.7308 -0.4769 -0.5339
  755MOL0     H 1881   7.966   6.174   7.201 -2.3379 -3.4914 -0.0621
  755MOL0     H 1882   7.959   6.271   7.051  0.0172 -1.0819 -0.7859
  755MOL0     H 1883   8.152   6.050   7.126 -2.0311 -0.3625 -0.2100
  755MOL0     H 1884   8.190   6.221   7.122 -0.5290 -0.9468  0.9177
  755MOL0     H 1885   8.234   6.129   6.679  1.7653  0.8341 -0.7753
  755MOL0     H 1886   8.456   6.082   6.602  2.6130  2.7129  0.9583
  755MOL0     H 1887   8.680   6.090   6.392 -0.8689 -1.3139  1.8990
  755MOL0     H 1888   8.853   6.100   6.209  0.1832  3.1353  1.4263
  755MOL0     H 1889   8.943   5.871   6.072 -0.3794  1.2630 -0.1361
  755MOL0     H 1890   9.012   6.027   6.056  0.4161  0.1554  0.3178
  755MOL0     H 1891   9.163   5.777   5.992  0.3055 -0.1734  0.6388
  755MOL0     H 1892   9.103   5.902   5.881  0.0820  1.5287  0.1293
  755MOL0     H 1893   9.329   5.971   5.911 -0.9206  3.1806 -0.3272
  755MOL0     H 1894   9.242   6.078   6.035  0.9008  0.2285 -1.4119
  755MOL0     H 1895   9.378   5.817   6.094 -0.2927  0.5424  0.0326
  755MOL0     H 1896   9.301   5.942   6.212 -0.9076 -0.9021  0.2369
  755MOL0     H 1897   9.457   6.103   6.136 -2.9361 -0.6561 -1.8697
  755MOL0     H 1898   9.549   5.966   6.052 -1.7542 -2.1286 -0.8438
  755MOL0     H 1899   9.484   5.964   6.351  0.7276  0.4580  0.6678
  755MOL0     H 1900   9.603   5.874   6.258  0.6296 -0.0551 -2.4450
  755MOL0     H 1901   9.696   6.042   6.416  1.3210 -2.2288  0.3698
  755MOL0     H 1902   9.615   6.174   6.330  1.6182 -0.8328  1.1586
  755MOL0     H 1903   9.741   6.090   6.113 -0.9718  0.8159  1.0513
  755MOL0     H 1904   9.837   6.175   6.224 -1.0382  0.7788 -2.6160
  755MOL0     H 1905   9.089   5.837   6.443  0.9411  1.7923 -0.3781
  755MOL0     H 1906   8.912   5.821   6.624  0.0194  2.0249  1.0034
  755MOL0     H 1907   8.580   5.986   7.004 -0.1822  0.1912  1.1708
  755MOL0     H 1908   8.379   6.049   7.087  0.9411 -1.9514 -0.3032
  755MOL0     H 1909   6.408   5.753   7.005  1.0846 -2.7923  0.6487
  755MOL0     H 1910   6.222   5.599   7.015  2.3844 -3.2126  1.2530
  755MOL0     H 1911   5.821   5.383   7.034  1.8306 -1.1671  1.2961
  755MOL0     H 1912   5.634   5.224   6.987  1.4016  1.4781  1.9362
  755MOL0     H 1913   5.404   5.260   6.843  1.0890  0.6098 -1.6645
  755MOL0     H 1914   5.465   5.118   6.922 -1.7815  2.6845  0.5554
  755MOL0     H 1915   5.302   5.132   6.669  1.0452 -0.0617  0.1497
  755MOL0     H 1916   5.245   5.077   6.829 -0.7861  3.2730 -1.4198
  755MOL0     H 1917   5.400   4.873   6.805  3.7690 -3.6880 -3.5027
  755MOL0     H 1918   5.464   4.946   6.663 -1.2996  1.7714 -0.8281
  755MOL0     H 1919   5.225   4.944   6.551  3.4755  1.9930 -0.3054
  755MOL0     H 1920   5.290   4.790   6.594 -3.1064  0.6103 -1.9915
  755MOL0     H 1921   4.989   4.763   6.870  1.0617  0.2821  2.7780
  755MOL0     H 1922   5.755   5.207   6.581  0.0061  0.8493 -0.5951
  755MOL0     H 1923   5.996   5.461   6.600  2.3970 -0.9289  1.2888
  755MOL0     H 1924   6.059   5.299   6.560 -0.7462 -2.4031  0.4819
  755MOL0     H 1925   5.918   5.346   6.489 -0.2504 -1.6478  0.6340
  756MOL0     O 1926   7.413   7.787  10.838  0.3854 -0.5791 -0.3217
  756MOL0     C 1927   7.328   7.861  10.797  0.3060 -0.1945 -0.3377
  756MOL0     O 1928   7.354   7.984  10.753 -0.4669  0.0162  0.2587
  756MOL0     C 1929   7.467   8.046  10.803  0.2347  0.0924  0.1067
  756MOL0     C 1930   7.497   8.077  10.941  0.2811 -0.0059  0.8547
  756MOL0     C 1931   7.603   8.160  10.976  0.0256 -0.3658 -0.0069
  756MOL0     C 1932   7.671   8.233  10.875 -0.4571  0.0045 -0.5732
  756MOL0     O 1933   7.761   8.324  10.925 -0.1938 -0.7531 -0.4965
  756MOL0     C 1934   7.892   8.335  10.866 -0.0671 -1.2257  0.5702
  756MOL0     C 1935   7.966   8.428  10.966  0.6307 -0.2070 -0.5778
  756MOL0     C 1936   8.110   8.464  10.911 -0.1811 -1.2758  0.1626
  756MOL0     C 1937   8.198   8.335  10.931 -0.6006 -0.6246 -0.2323
  756MOL0     C 1938   8.347   8.377  10.947  0.1195  0.4449 -0.1401
  756MOL0     C 1939   8.440   8.254  10.934 -0.0521 -0.1767 -0.3592
  756MOL0     C 1940   8.590   8.272  10.949 -0.5097 -0.0992  0.6933
  756MOL0     C 1941   8.647   8.389  10.865  0.3718  0.5773  0.0419
  756MOL0     N 1942   8.797   8.384  10.868  0.0093 -0.6874  0.0985
  756MOL0     C 1943   8.882   8.370  10.978 -0.6290 -0.3291 -0.4672
  756MOL0     C 1944   9.004   8.378  10.915  0.2363 -1.3993 -0.7353
  756MOL0     C 1945   9.131   8.384  10.990  0.1252  0.6326  0.1796
  756MOL0     C 1946   9.261   8.336  10.921  0.2019 -0.4247  0.3262
  756MOL0     C 1947   9.384   8.350  11.012  0.0034 -0.2718 -0.4571
  756MOL0     C 1948   9.514   8.308  10.943 -0.8742 -0.4764 -0.4775
  756MOL0     O 1949   9.504   8.171  10.914  0.1748 -0.4259 -0.2840
  756MOL0     C 1950   9.620   8.107  10.878  0.3512 -0.2700 -0.4218
  756MOL0     C 1951   9.744   8.170  10.865 -0.9471 -0.3883 -0.2341
  756MOL0     C 1952   9.863   8.102  10.840  0.5429  0.1311  0.1940
  756MOL0     C 1953   9.854   7.964  10.833 -1.0614 -0.4053  1.0815
  756MOL0     C 1954   9.978   7.883  10.859  0.3591 -0.2029 -0.3878
  756MOL0     O 1955   9.962   7.749  10.869  0.1454  0.1803 -0.1103
  756MOL0     C 1956  10.075   7.683  10.911  0.7047 -0.0003  0.6874
  756MOL0     C 1957  10.088   7.639  11.038  0.4305  0.3389  1.1622
  756MOL0     C 1958  10.199   7.572  11.082  0.2879 -0.5369  0.4067
  756MOL0     C 1959  10.311   7.550  11.004  0.0962 -0.4154  0.2465
  756MOL0     O 1960  10.420   7.482  11.059 -0.0438 -0.5275  0.4874
  756MOL0     C 1961  10.528   7.455  10.971  0.2296  0.2513  0.0686
  756MOL0     C 1962  10.633   7.380  11.058  0.1466  0.2440 -0.3355
  756MOL0     C 1963  10.718   7.286  10.961  0.3273 -0.0436 -0.2409
  756MOL0     C 1964  10.820   7.215  11.050  0.0857 -0.5119 -0.6710
  756MOL0     C 1965  10.870   7.087  10.987  0.3357  0.9186  0.1829
  756MOL0     C 1966  10.987   7.111  10.886 -0.7042 -0.0651  0.0745
  756MOL0     C 1967  11.027   6.972  10.820  0.3520 -0.9194 -0.1119
  756MOL0     C 1968  11.141   6.994  10.723  0.9130 -0.3332 -0.5002
  756MOL0    Cl 1969  11.224   6.832  10.696  0.7331 -0.2037 -0.5252
  756MOL0     C 1970  10.307   7.602  10.867 -0.6609  0.1068 -0.2481
  756MOL0     C 1971  10.185   7.663  10.823  0.3775  0.2242  0.3053
  756MOL0     O 1972  10.083   7.949  10.881 -0.0118  0.7029 -0.0793
  756MOL0     C 1973   9.723   7.899  10.816 -0.4413 -0.1939 -0.7841
  756MOL0     C 1974   9.608   7.971  10.847 -0.2441  1.0197 -1.0020
  756MOL0     N 1975   8.991   8.399  10.780  0.0198 -0.2988 -0.7958
  756MOL0     N 1976   8.867   8.408  10.754 -0.3399 -0.5884  0.2241
  756MOL0     C 1977   7.640   8.208  10.749  0.3764 -0.1214  0.3348
  756MOL0     C 1978   7.548   8.107  10.712 -0.1204  0.8580  0.5704
  756MOL0     C 1979   7.181   7.823  10.797 -0.0527  0.0092 -0.0574
  756MOL0     C 1980   7.150   7.695  10.780  0.0031  0.5999  0.2444
  756MOL0     C 1981   7.018   7.650  10.790 -0.0390  0.3238  0.8882
  756MOL0     C 1982   6.913   7.737  10.816 -0.5421 -0.1690  0.1611
  756MOL0     O 1983   6.781   7.707  10.819 -0.2122  0.3730 -0.5046
  756MOL0     C 1984   6.744   7.565  10.851 -0.4930  0.5556  0.2986
  756MOL0     C 1985   6.598   7.560  10.903 -0.4846  0.2100 -1.1721
  756MOL0     C 1986   6.558   7.413  10.908 -0.5422  0.3725 -0.0377
  756MOL0     C 1987   6.449   7.376  11.006  0.1902 -0.0846  0.2361
  756MOL0     C 1988   6.323   7.425  10.955 -0.8702 -0.5017 -0.2009
  756MOL0     C 1989   6.208   7.462  10.924 -0.4918  0.0093 -0.1247
  756MOL0     C 1990   6.948   7.872  10.849 -0.1509 -0.0878  0.6796
  756MOL0     C 1991   7.076   7.912  10.842 -0.8855 -1.2123 -0.2897
  756MOL0     C 1992   7.113   8.059  10.885 -0.1552  0.0131  0.8368
  756MOL0     H 1993   7.429   8.047  11.020 -1.2218  1.7682  0.3245
  756MOL0     H 1994   7.630   8.194  11.075 -1.7795 -1.2976  0.8503
  756MOL0     H 1995   7.948   8.243  10.846  0.4426 -0.5289 -1.5607
  756MOL0     H 1996   7.897   8.385  10.769  1.7147  1.6289  2.0218
  756MOL0     H 1997   7.957   8.388  11.068  0.9440 -0.2494 -0.5679
  756MOL0     H 1998   7.911   8.522  10.979 -1.9575 -1.9335  2.4600
  756MOL0     H 1999   8.140   8.537  10.986 -0.8374  1.2826 -1.8987
  756MOL0     H 2000   8.100   8.498  10.808 -0.2118  0.2287  0.6473
  756MOL0     H 2001   8.182   8.283  11.027  3.9715 -0.0305  1.0755
  756MOL0     H 2002   8.191   8.260  10.852 -1.0828 -0.4896 -0.3199
  756MOL0     H 2003   8.371   8.438  10.859 -0.5683 -2.2553 -2.3488
  756MOL0     H 2004   8.364   8.418  11.047  2.0304  1.0728 -0.6811
  756MOL0     H 2005   8.415   8.181  11.011  0.6650 -0.8263 -0.7313
  756MOL0     H 2006   8.410   8.199  10.844 -2.0334 -2.2628  1.4469
  756MOL0     H 2007   8.643   8.177  10.935  0.1431  0.1716  1.2803
  756MOL0     H 2008   8.622   8.301  11.049  1.9099  1.7398 -0.4820
  756MOL0     H 2009   8.607   8.395  10.763  3.1395  2.3484 -1.0408
  756MOL0     H 2010   8.616   8.486  10.906  2.7967  1.4395 -0.0439
  756MOL0     H 2011   8.854   8.365  11.083 -0.8970 -1.4882 -0.5778
  756MOL0     H 2012   9.144   8.487  11.023  2.9216 -0.1614  1.8826
  756MOL0     H 2013   9.121   8.320  11.079  0.1832 -0.8470 -0.8410
  756MOL0     H 2014   9.261   8.229  10.896 -0.7425 -0.6746  1.3023
  756MOL0     H 2015   9.279   8.394  10.830 -0.5835  0.8637  0.9592
  756MOL0     H 2016   9.373   8.289  11.102  1.9053  1.8051  1.3164
  756MOL0     H 2017   9.400   8.454  11.043  2.2734 -0.5959 -0.3494
  756MOL0     H 2018   9.595   8.327  11.014 -3.5207  1.8081  2.1678
  756MOL0     H 2019   9.535   8.368  10.854 -1.4767 -1.3052 -1.2080
  756MOL0     H 2020   9.759   8.277  10.872 -1.1875 -0.3863  0.2901
  756MOL0     H 2021   9.958   8.152  10.827  0.5215  0.0234 -0.4195
  756MOL0     H 2022  10.006   7.658  11.106 -0.2887  0.1073  0.3838
  756MOL0     H 2023  10.209   7.546  11.187 -1.9065 -1.7890  0.3727
  756MOL0     H 2024  10.504   7.401  10.879 -2.1091  1.1686  0.0752
  756MOL0     H 2025  10.577   7.545  10.933  0.3266 -0.6568 -2.0960
  756MOL0     H 2026  10.695   7.457  11.105 -0.7453 -0.9907  3.2072
  756MOL0     H 2027  10.576   7.333  11.139 -0.2359  1.0678 -0.1164
  756MOL0     H 2028  10.655   7.213  10.908  0.6899  0.4024 -1.3113
  756MOL0     H 2029  10.776   7.338  10.884  0.7174  2.0738  1.4120
  756MOL0     H 2030  10.759   7.199  11.139 -1.8295  2.2521 -1.3530
  756MOL0     H 2031  10.893   7.293  11.071  0.2777  0.0682 -3.1437
  756MOL0     H 2032  10.784   7.036  10.941 -0.4831  0.6028  1.9470
  756MOL0     H 2033  10.912   7.011  11.054 -0.3371 -1.7796 -2.2581
  756MOL0     H 2034  10.975   7.190  10.811 -1.1982 -0.3843 -0.1913
  756MOL0     H 2035  11.070   7.140  10.951 -0.5111 -0.8168  0.1658
  756MOL0     H 2036  10.943   6.927  10.767 -0.4398 -1.9113  1.8755
  756MOL0     H 2037  11.054   6.900  10.898 -0.9069  0.0656  1.3081
  756MOL0     H 2038  11.098   7.032  10.630 -1.2318 -0.7891  0.2518
  756MOL0     H 2039  11.220   7.057  10.765  1.0407 -1.2393  0.6755
  756MOL0     H 2040  10.376   7.575  10.789 -0.6788 -1.7028  0.3257
  756MOL0     H 2041  10.156   7.692  10.722 -3.0306 -0.2771  1.0492
  756MOL0     H 2042   9.700   7.794  10.805  0.9231 -0.7801  1.4552
  756MOL0     H 2043   9.509   7.929  10.834  0.0745 -0.5432  1.1904
  756MOL0     H 2044   7.699   8.261  10.675 -0.9091  1.3709  0.3266
  756MOL0     H 2045   7.543   8.072  10.610 -1.9354 -0.0660  0.9442
  756MOL0     H 2046   7.228   7.622  10.761 -2.9222 -2.6113 -0.4862
  756MOL0     H 2047   7.011   7.541  10.793  1.8135  0.0993 -0.7094
  756MOL0     H 2048   6.810   7.550  10.937 -0.0788  0.2935 -0.0617
  756MOL0     H 2049   6.767   7.496  10.769  1.8756  1.2113  0.3385
  756MOL0     H 2050   6.532   7.616  10.836 -1.4254 -0.9216 -1.2315
  756MOL0     H 2051   6.596   7.603  11.004  1.7536 -3.3484  0.6138
  756MOL0     H 2052   6.652   7.370  10.944  1.1412  1.4691 -2.8582
  756MOL0     H 2053   6.532   7.377  10.808 -4.3662 -2.0558  1.5686
  756MOL0     H 2054   6.449   7.267  11.016 -0.0815 -0.1301 -0.2437
  756MOL0     H 2055   6.468   7.431  11.099  0.6525  0.9331 -0.4425
  756MOL0     H 2056   6.108   7.493  10.903 -1.0513 -2.7133 -2.0199
  756MOL0     H 2057   6.865   7.938  10.872 -0.2203  0.3451 -0.7587
  756MOL0     H 2058   7.119   8.117  10.793 -0.0775 -0.0149  0.8247
  756MOL0     H 2059   7.035   8.110  10.942 -0.1040  1.2587 -0.1581
  756MOL0     H 2060   7.211   8.067  10.932  1.7369 -0.0749 -2.7538
  757MOL0     O 2061   2.041   9.810   0.556 -0.3992 -0.6041  0.1531
  757MOL0     C 2062   2.053   9.927   0.582  0.3834  0.0773 -0.1249
  757MOL0     O 2063   2.175   9.994   0.612 -0.0580 -0.1532  0.1401
  757MOL0     C 2064   2.292   9.927   0.625 -0.5511 -0.3460  0.2620
  757MOL0     C 2065   2.373   9.984   0.722  0.4102  0.5767 -0.7628
  757MOL0     C 2066   2.499   9.937   0.736 -0.3946 -0.1185  0.3964
  757MOL0     C 2067   2.554   9.845   0.640  0.7695  0.0567 -0.0226
  757MOL0     O 2068   2.682   9.797   0.639 -0.0579  0.5893  0.1942
  757MOL0     C 2069   2.776   9.852   0.726  0.3177 -0.6508 -0.8474
  757MOL0     C 2070   2.897   9.755   0.732  1.1557 -0.0086  0.3845
  757MOL0     C 2071   3.021   9.805   0.792  0.3800 -0.9990  0.6337
  757MOL0     C 2072   3.092   9.900   0.691  0.5842 -0.1645 -0.0536
  757MOL0     C 2073   3.234   9.918   0.739 -0.2028 -0.5107 -0.4775
  757MOL0     C 2074   3.303  10.027   0.658  0.2095 -0.0113 -0.4236
  757MOL0     C 2075   3.450  10.035   0.681 -0.7544 -0.8345  0.2771
  757MOL0     C 2076   3.481  10.123   0.811 -0.1200  0.6633  0.0951
  757MOL0     N 2077   3.608  10.184   0.801  0.0327 -0.0059 -0.0937
  757MOL0     C 2078   3.732  10.126   0.791  0.4063  0.2488  0.3712
  757MOL0     C 2079   3.814  10.228   0.748  0.0493  0.9136  0.6109
  757MOL0     C 2080   3.951  10.206   0.692  0.5900 -0.2721  0.5535
  757MOL0     C 2081   4.048  10.241   0.807  0.3209 -0.2211 -0.3961
  757MOL0     C 2082   4.192  10.223   0.762  0.0105 -0.3295  0.3466
  757MOL0     C 2083   4.295  10.256   0.869 -0.1766  0.5580  0.2310
  757MOL0     O 2084   4.420  10.263   0.803 -0.2697  0.1165  0.0487
  757MOL0     C 2085   4.533  10.303   0.866 -0.3829  0.7321 -0.4540
  757MOL0     C 2086   4.658  10.280   0.803 -0.4972  0.4203  0.3541
  757MOL0     C 2087   4.781  10.303   0.877 -0.0439  0.2825  0.5746
  757MOL0     C 2088   4.777  10.357   1.003 -0.6209  0.0932 -0.3987
  757MOL0     C 2089   4.901  10.392   1.079 -0.2280 -0.6566  0.7761
  757MOL0     O 2090   5.011  10.414   1.009 -0.5456 -0.3361  0.6700
  757MOL0     C 2091   5.116  10.472   1.066  0.0674  0.5760 -0.2808
  757MOL0     C 2092   5.226  10.393   1.111  0.6521  0.1549 -0.1384
  757MOL0     C 2093   5.342  10.453   1.165 -0.4355  0.8184  0.0960
  757MOL0     C 2094   5.339  10.592   1.186  0.5482 -0.3564 -0.2476
  757MOL0     O 2095   5.445  10.648   1.253  0.4322  1.1649 -0.2123
  757MOL0     C 2096   5.421  10.775   1.313 -0.7816 -0.1649 -0.0031
  757MOL0     C 2097   5.524  10.793   1.425 -0.1958  0.3972  0.2233
  757MOL0     C 2098   5.670  10.816   1.367 -0.9263  0.2884 -0.6838
  757MOL0     C 2099   5.766  10.853   1.491  0.7817 -0.2070  0.2722
  757MOL0     C 2100   5.913  10.853   1.446  0.7518 -0.6680 -0.1837
  757MOL0     C 2101   5.995  10.921   1.564  0.4043 -0.0114  0.6162
  757MOL0     C 2102   6.131  10.964   1.517  0.2931 -0.1651  0.3708
  757MOL0     C 2103   6.229  10.981   1.634  0.1899 -0.2047  0.7682
  757MOL0    Cl 2104   6.385  11.028   1.572 -0.7012 -0.0823 -0.5640
  757MOL0     C 2105   5.230  10.663   1.142  0.9661 -0.4833 -0.5495
  757MOL0     C 2106   5.124  10.604   1.082  1.0295 -0.0034  0.1549
  757MOL0     O 2107   4.889  10.405   1.204 -0.1653  0.6159  0.6278
  757MOL0     C 2108   4.651  10.382   1.062 -0.1048  0.2073  0.5198
  757MOL0     C 2109   4.540  10.346   0.995 -0.2940  0.3075  0.4781
  757MOL0     N 2110   3.743  10.341   0.746  0.1167 -0.4118  0.6427
  757MOL0     N 2111   3.624  10.317   0.781  1.0823  0.2048 -0.0202
  757MOL0     C 2112   2.474   9.795   0.546  0.3193 -0.0672  1.1113
  757MOL0     C 2113   2.340   9.828   0.540  1.0046 -1.1686 -0.2245
  757MOL0     C 2114   1.921  10.001   0.586 -0.1539 -0.4397 -0.3454
  757MOL0     C 2115   1.815   9.946   0.658  0.3737  0.2747 -1.0982
  757MOL0     C 2116   1.687  10.009   0.653  0.0442 -0.4325  0.7070
  757MOL0     C 2117   1.664  10.129   0.585 -0.2077 -0.1920 -0.1636
  757MOL0     O 2118   1.551  10.183   0.538 -0.1174  0.4547  0.4585
  757MOL0     C 2119   1.432  10.156   0.616 -0.8385 -0.2086 -0.7793
  757MOL0     C 2120   1.321  10.255   0.605 -0.0516  0.0408 -0.2367
  757MOL0     C 2121   1.273  10.283   0.462  0.4431  0.0613  0.2200
  757MOL0     C 2122   1.176  10.170   0.407  0.2685  0.0941  0.2751
  757MOL0     C 2123   1.265  10.072   0.344 -0.4447  0.5786  1.0963
  757MOL0     C 2124   1.348   9.995   0.306 -0.2011  0.0361 -0.4221
  757MOL0     C 2125   1.775  10.189   0.532 -0.8387 -0.3129 -0.4554
  757MOL0     C 2126   1.906  10.133   0.534 -0.7117  0.1747  0.3376
  757MOL0     C 2127   2.020  10.201   0.456 -0.0586  0.1583 -0.5145
  757MOL0     H 2128   2.343  10.060   0.793  1.3949 -2.1124  2.8409
  757MOL0     H 2129   2.562   9.964   0.820  0.6367  0.5853 -0.5715
  757MOL0     H 2130   2.810   9.953   0.703 -1.7703  0.4218  0.4168
  757MOL0     H 2131   2.732   9.844   0.826  0.8520  0.4536 -0.5210
  757MOL0     H 2132   2.922   9.728   0.629  3.4233  3.0367  0.0183
  757MOL0     H 2133   2.863   9.669   0.789  2.8011 -0.4194  0.7937
  757MOL0     H 2134   3.081   9.719   0.823 -0.1720 -1.6975 -0.1846
  757MOL0     H 2135   3.007   9.861   0.885  0.9526 -0.3908  0.3584
  757MOL0     H 2136   3.092   9.850   0.593 -0.2133 -1.3167  0.4966
  757MOL0     H 2137   3.046   9.999   0.698  0.6478 -0.2300  2.0800
  757MOL0     H 2138   3.235   9.952   0.842  3.5677  0.1654 -0.6219
  757MOL0     H 2139   3.291   9.824   0.738  1.6187  0.5028 -3.0912
  757MOL0     H 2140   3.284   9.998   0.554  0.6505 -4.0414  0.4549
  757MOL0     H 2141   3.246  10.117   0.684 -1.4119 -1.0315 -0.3474
  757MOL0     H 2142   3.495  10.087   0.596  0.8020 -2.2031  0.2122
  757MOL0     H 2143   3.503   9.939   0.684  0.9095  0.0701  1.8186
  757MOL0     H 2144   3.400  10.195   0.828  0.3192  0.8246  1.6579
  757MOL0     H 2145   3.478  10.057   0.899 -0.6220  0.1273 -0.3170
  757MOL0     H 2146   3.746  10.019   0.795 -0.1844  0.1320 -0.4869
  757MOL0     H 2147   3.955  10.104   0.652 -3.0628 -0.4541  0.2608
  757MOL0     H 2148   3.955  10.267   0.601 -0.3014 -3.7622 -2.0687
  757MOL0     H 2149   4.041  10.343   0.846  1.4997 -0.7228  1.2706
  757MOL0     H 2150   4.031  10.172   0.891 -3.1901  0.4050 -0.4433
  757MOL0     H 2151   4.205  10.279   0.668 -2.1799 -1.8422 -0.9466
  757MOL0     H 2152   4.202  10.117   0.739 -0.8979 -0.4466  0.4689
  757MOL0     H 2153   4.311  10.175   0.941  2.3703  0.1536 -0.7017
  757MOL0     H 2154   4.269  10.349   0.921  2.5438  0.5981  1.7247
  757MOL0     H 2155   4.658  10.231   0.706 -0.2584 -1.0251  1.0533
  757MOL0     H 2156   4.877  10.278   0.834 -1.6588 -0.6189 -2.8922
  757MOL0     H 2157   5.228  10.285   1.096 -1.7909 -0.7006  3.9699
  757MOL0     H 2158   5.426  10.400   1.208  0.4076  2.1983  0.2357
  757MOL0     H 2159   5.416  10.850   1.233 -0.6256 -0.0525  0.0895
  757MOL0     H 2160   5.326  10.766   1.365 -0.3602 -0.2986  0.7609
  757MOL0     H 2161   5.498  10.873   1.495  3.0478  1.2250  0.6473
  757MOL0     H 2162   5.526  10.699   1.481  0.3712  1.3211  1.8213
  757MOL0     H 2163   5.694  10.723   1.314 -0.2532  0.9418 -1.5748
  757MOL0     H 2164   5.666  10.886   1.283 -1.3430 -1.4071 -2.1510
  757MOL0     H 2165   5.751  10.786   1.577  0.1069 -0.0255  0.2997
  757MOL0     H 2166   5.734  10.954   1.518 -1.4149 -1.0773  1.1663
  757MOL0     H 2167   5.925  10.905   1.351 -0.1360  2.7949  1.4542
  757MOL0     H 2168   5.952  10.750   1.439  1.3779 -0.5474  1.1666
  757MOL0     H 2169   5.938  11.001   1.612 -0.7483  1.6385 -3.0814
  757MOL0     H 2170   6.008  10.838   1.634  1.1547 -1.3057 -0.9830
  757MOL0     H 2171   6.123  11.053   1.454 -1.7255 -0.9485 -0.5705
  757MOL0     H 2172   6.162  10.881   1.453 -0.9304 -0.2032 -0.1998
  757MOL0     H 2173   6.192  11.062   1.698 -0.5562 -1.6061  2.1564
  757MOL0     H 2174   6.229  10.883   1.682 -2.9143 -1.0555 -0.6696
  757MOL0     H 2175   5.239  10.771   1.143  4.3618 -0.6352  0.2000
  757MOL0     H 2176   5.049  10.670   1.040 -0.4228 -3.2758 -2.9609
  757MOL0     H 2177   4.639  10.418   1.164 -0.3215  2.0480 -0.1170
  757MOL0     H 2178   4.449  10.362   1.053 -0.7071  0.7128 -0.2598
  757MOL0     H 2179   2.514   9.722   0.476  5.0212  3.2802 -0.1412
  757MOL0     H 2180   2.274   9.784   0.465  1.6187 -2.9627  0.2495
  757MOL0     H 2181   1.825   9.847   0.702  1.0069  1.2280  1.0316
  757MOL0     H 2182   1.599   9.955   0.687  1.4212 -2.1952  1.6707
  757MOL0     H 2183   1.448  10.158   0.724 -1.5238  1.2136 -0.6757
  757MOL0     H 2184   1.392  10.056   0.599  2.2044 -2.0317  1.7390
  757MOL0     H 2185   1.353  10.351   0.647 -0.5519  1.0362 -2.0449
  757MOL0     H 2186   1.237  10.217   0.664  0.3870  0.1862  0.4910
  757MOL0     H 2187   1.355  10.305   0.393 -0.2900 -2.1152 -1.4703
  757MOL0     H 2188   1.218  10.377   0.472  2.9026  1.6083  0.1347
  757MOL0     H 2189   1.123  10.125   0.491  1.3777  0.0656  0.9696
  757MOL0     H 2190   1.091  10.197   0.343 -0.0339  2.3295  1.5113
  757MOL0     H 2191   1.433   9.932   0.285 -1.6905 -2.4004  0.3703
  757MOL0     H 2192   1.753  10.280   0.477  1.4927  0.3814 -0.3176
  757MOL0     H 2193   2.091  10.234   0.532  0.6220 -2.8357  0.2830
  757MOL0     H 2194   2.071  10.144   0.378  0.5995  0.9989 -0.6977
  757MOL0     H 2195   1.962  10.276   0.402 -0.5905 -0.9122 -1.4688
  758MOL0     O 2196   3.703   8.018   4.430  0.0723  0.3726 -0.0833
  758MOL0     C 2197   3.705   8.101   4.517 -0.2601 -0.4913 -0.9388
  758MOL0     O 2198   3.813   8.140   4.585  0.7471  0.2566  1.0015
  758MOL0     C 2199   3.939   8.114   4.548  0.2921 -0.0911  0.2419
  758MOL0     C 2200   3.989   8.122   4.421 -0.2842  0.3047 -0.8652
  758MOL0     C 2201   4.118   8.082   4.400 -0.4120 -0.4058 -0.3103
  758MOL0     C 2202   4.211   8.052   4.506 -0.1367  0.0822 -0.7568
  758MOL0     O 2203   4.346   8.015   4.473  0.4852 -0.6379 -0.0674
  758MOL0     C 2204   4.439   8.008   4.581  0.3233  0.7663  0.9041
  758MOL0     C 2205   4.574   7.982   4.536  1.0146  0.2686  0.7190
  758MOL0     C 2206   4.596   7.828   4.518  0.3633 -0.3972  0.3143
  758MOL0     C 2207   4.733   7.805   4.445  0.4037  0.2796 -0.6896
  758MOL0     C 2208   4.776   7.658   4.454  0.9041  0.1277  0.2260
  758MOL0     C 2209   4.681   7.548   4.410  0.6939 -0.2489 -0.1074
  758MOL0     C 2210   4.642   7.533   4.264 -0.3652  0.1305 -0.5099
  758MOL0     C 2211   4.720   7.425   4.184 -0.2049  0.1269 -0.4242
  758MOL0     N 2212   4.867   7.449   4.197  0.8236  0.6192  0.1004
  758MOL0     C 2213   4.941   7.500   4.095  0.3043 -0.0108  0.1516
  758MOL0     C 2214   5.063   7.509   4.152  0.1119 -0.8242  0.0229
  758MOL0     C 2215   5.183   7.549   4.074 -0.0459 -0.5430 -0.8483
  758MOL0     C 2216   5.305   7.610   4.158  0.1133  0.7684  0.4395
  758MOL0     C 2217   5.389   7.498   4.221 -0.2581  0.4329 -0.0911
  758MOL0     C 2218   5.461   7.528   4.347 -0.7445  0.2429  0.0965
  758MOL0     O 2219   5.510   7.665   4.354  0.4739  0.4302 -0.4273
  758MOL0     C 2220   5.628   7.689   4.287  0.1167 -0.1826  0.6795
  758MOL0     C 2221   5.663   7.825   4.275  0.3066  0.7274  0.0854
  758MOL0     C 2222   5.786   7.866   4.223 -0.1407 -0.1526 -0.0823
  758MOL0     C 2223   5.869   7.767   4.163 -0.4724  0.6598 -0.0993
  758MOL0     C 2224   6.001   7.802   4.106  0.3403  0.8920  0.6163
  758MOL0     O 2225   6.065   7.709   4.023 -0.3635  0.2638  0.0914
  758MOL0     C 2226   6.191   7.744   3.977  0.3825  0.1712 -0.1396
  758MOL0     C 2227   6.294   7.656   4.008 -0.4812 -0.0602  0.0666
  758MOL0     C 2228   6.430   7.683   3.975 -0.7520 -0.0103  0.0819
  758MOL0     C 2229   6.457   7.803   3.905  0.0483  0.1318  0.3547
  758MOL0     O 2230   6.584   7.830   3.877 -0.0111  0.1566 -0.0799
  758MOL0     C 2231   6.626   7.910   3.761 -0.5660 -0.2655 -0.3118
  758MOL0     C 2232   6.781   7.885   3.742  0.4507  0.8089 -0.2685
  758MOL0     C 2233   6.813   7.764   3.657 -0.4465 -0.8980  0.9154
  758MOL0     C 2234   6.966   7.751   3.659 -0.1165 -0.0214 -0.0166
  758MOL0     C 2235   6.998   7.624   3.577  0.1728 -0.3557 -0.3303
  758MOL0     C 2236   7.147   7.612   3.542 -0.2679  0.1163  0.2343
  758MOL0     C 2237   7.246   7.607   3.651 -0.3072 -0.7071 -0.7894
  758MOL0     C 2238   7.383   7.538   3.597  0.3489  0.4478  0.1949
  758MOL0    Cl 2239   7.375   7.361   3.572  0.3665 -0.1909 -0.3741
  758MOL0     C 2240   6.357   7.894   3.867  0.3447 -0.1273  0.0173
  758MOL0     C 2241   6.223   7.856   3.893 -0.1791  0.3075  0.8469
  758MOL0     O 2242   6.061   7.901   4.152  0.6052  0.6565 -0.0288
  758MOL0     C 2243   5.837   7.631   4.166 -0.4111  0.3078  1.3811
  758MOL0     C 2244   5.710   7.595   4.223 -0.0036 -0.5861 -1.0880
  758MOL0     N 2245   5.066   7.443   4.275  0.3653 -0.3474  1.0437
  758MOL0     N 2246   4.944   7.393   4.296  0.4850 -0.1004  0.5293
  758MOL0     C 2247   4.158   8.051   4.638  0.0537 -0.8179  0.4869
  758MOL0     C 2248   4.024   8.076   4.653  0.6968 -0.1729  0.6208
  758MOL0     C 2249   3.574   8.157   4.563  0.0577  1.1198  1.1331
  758MOL0     C 2250   3.580   8.234   4.677 -0.1445 -0.1356 -0.1660
  758MOL0     C 2251   3.468   8.305   4.726  0.3482 -0.3991 -0.0505
  758MOL0     C 2252   3.347   8.306   4.661 -0.8685  0.2713  0.6082
  758MOL0     O 2253   3.249   8.394   4.699 -0.3757 -0.2932  0.2912
  758MOL0     C 2254   3.222   8.501   4.599 -1.2242 -0.1969 -0.4587
  758MOL0     C 2255   3.337   8.610   4.598 -0.7137  0.5161  0.5485
  758MOL0     C 2256   3.344   8.684   4.728  0.1228  0.1694 -0.0808
  758MOL0     C 2257   3.463   8.766   4.763 -0.0489 -1.0239  0.8396
  758MOL0     C 2258   3.452   8.810   4.910  0.7651  0.1116  0.3006
  758MOL0     C 2259   3.457   8.856   5.024  0.0713 -0.3333  0.3978
  758MOL0     C 2260   3.345   8.236   4.537  0.0913  0.8466  0.0229
  758MOL0     C 2261   3.451   8.157   4.492 -0.7805  0.3727 -0.0859
  758MOL0     C 2262   3.421   8.063   4.376  0.2295 -0.2767  0.9492
  758MOL0     H 2263   3.931   8.155   4.335 -1.8149 -1.1148 -0.4539
  758MOL0     H 2264   4.168   8.071   4.304  0.3228 -0.8068  0.1103
  758MOL0     H 2265   4.440   8.109   4.625  1.0722  1.3205 -0.3216
  758MOL0     H 2266   4.406   7.931   4.651 -1.7025 -0.8209 -1.6082
  758MOL0     H 2267   4.647   8.019   4.608  2.5288 -0.3101 -0.4549
  758MOL0     H 2268   4.597   8.024   4.438  1.5442  1.8859  1.5133
  758MOL0     H 2269   4.510   7.769   4.484 -0.1062 -1.2688  2.7583
  758MOL0     H 2270   4.603   7.797   4.623  3.2868 -4.2594 -0.7963
  758MOL0     H 2271   4.723   7.841   4.342 -1.0325 -1.7321 -1.3277
  758MOL0     H 2272   4.809   7.867   4.493 -2.6132  1.2264  3.5048
  758MOL0     H 2273   4.868   7.646   4.394 -0.6779 -0.9984 -2.1633
  758MOL0     H 2274   4.796   7.656   4.561  3.4162 -0.0389 -0.1672
  758MOL0     H 2275   4.718   7.452   4.448  0.6772 -0.3967 -0.4647
  758MOL0     H 2276   4.589   7.569   4.465  1.5700  0.0112  1.3363
  758MOL0     H 2277   4.650   7.629   4.212  0.3230 -0.0684 -0.7863
  758MOL0     H 2278   4.537   7.505   4.250  0.3129 -3.1911  0.3954
  758MOL0     H 2279   4.700   7.328   4.232 -1.6701  0.2187 -0.8054
  758MOL0     H 2280   4.695   7.428   4.078  1.5720  2.5420 -0.8551
  758MOL0     H 2281   4.909   7.528   3.995 -1.7761 -2.6796 -0.0565
  758MOL0     H 2282   5.204   7.455   4.022  2.0226 -2.8816  3.6777
  758MOL0     H 2283   5.148   7.614   3.993 -0.6849  1.6018  1.0362
  758MOL0     H 2284   5.364   7.669   4.086  0.1090 -0.3704 -0.5375
  758MOL0     H 2285   5.263   7.673   4.237 -1.4683 -0.0757  0.3048
  758MOL0     H 2286   5.458   7.463   4.143 -0.6739  1.2431 -0.8432
  758MOL0     H 2287   5.319   7.416   4.239  1.6424 -1.1823  0.2023
  758MOL0     H 2288   5.547   7.463   4.362  0.4885  1.3099 -1.9177
  758MOL0     H 2289   5.392   7.522   4.432  0.0269  0.5718  0.7603
  758MOL0     H 2290   5.595   7.903   4.308  1.2639  1.8451 -0.4822
  758MOL0     H 2291   5.804   7.973   4.213  0.6643 -0.4650 -3.2022
  758MOL0     H 2292   6.263   7.569   4.065  1.2303 -0.4447  0.4384
  758MOL0     H 2293   6.509   7.613   4.001 -1.6005 -0.5256  1.3831
  758MOL0     H 2294   6.569   7.887   3.670 -0.7872  0.1788 -0.2845
  758MOL0     H 2295   6.602   8.015   3.776  0.2049  0.1396 -1.6925
  758MOL0     H 2296   6.829   7.974   3.702  1.6018  0.9886  1.4571
  758MOL0     H 2297   6.826   7.875   3.841  0.9728  1.6983 -0.4149
  758MOL0     H 2298   6.762   7.679   3.701 -0.0707 -2.0643 -0.8037
  758MOL0     H 2299   6.774   7.770   3.555  3.5618  0.1509 -0.7862
  758MOL0     H 2300   6.989   7.734   3.765  0.7261  2.3035  0.2351
  758MOL0     H 2301   7.014   7.846   3.632  0.9978 -0.8484 -1.0560
  758MOL0     H 2302   6.942   7.612   3.484  1.3080 -3.3034 -0.7245
  758MOL0     H 2303   6.966   7.536   3.633  1.3802 -0.5688  0.0566
  758MOL0     H 2304   7.160   7.517   3.489  2.6323  0.9856 -0.8593
  758MOL0     H 2305   7.177   7.684   3.464  1.7804 -0.6303  0.2650
  758MOL0     H 2306   7.209   7.544   3.733  0.8796 -1.0684 -0.4980
  758MOL0     H 2307   7.261   7.707   3.693 -1.8711 -0.6515 -0.2992
  758MOL0     H 2308   7.406   7.574   3.496 -1.2552 -0.3181 -0.4755
  758MOL0     H 2309   7.465   7.548   3.668  0.1640 -2.3597  0.9221
  758MOL0     H 2310   6.378   7.993   3.829 -2.8904  1.7056  2.5253
  758MOL0     H 2311   6.144   7.927   3.869  0.4058  1.4558  2.2212
  758MOL0     H 2312   5.902   7.550   4.132 -2.4192 -1.4240  1.4701
  758MOL0     H 2313   5.698   7.488   4.239  2.6781 -0.8920 -0.6561
  758MOL0     H 2314   4.221   8.023   4.721  1.2364 -1.7968 -0.6858
  758MOL0     H 2315   3.982   8.071   4.753 -0.2429  1.5124  0.3402
  758MOL0     H 2316   3.674   8.252   4.727 -0.1900 -0.4895  0.0463
  758MOL0     H 2317   3.475   8.370   4.813  2.0150  0.7308 -0.9689
  758MOL0     H 2318   3.132   8.547   4.641  1.3114  3.0096  2.0473
  758MOL0     H 2319   3.201   8.470   4.496  0.6455 -1.0025 -0.6413
  758MOL0     H 2320   3.331   8.683   4.517  2.0771  1.9660  1.5363
  758MOL0     H 2321   3.426   8.557   4.564 -1.3031  0.1343 -0.4626
  758MOL0     H 2322   3.346   8.602   4.800 -0.0652 -0.0964 -0.3722
  758MOL0     H 2323   3.254   8.745   4.730 -0.2495 -0.1627 -2.5422
  758MOL0     H 2324   3.556   8.711   4.746 -0.8506 -2.8761  2.1597
  758MOL0     H 2325   3.464   8.863   4.711 -0.9628 -0.5090  1.7438
  758MOL0     H 2326   3.450   8.883   5.127  0.7436 -1.2685  0.7017
  758MOL0     H 2327   3.254   8.238   4.478  0.5272 -1.6261 -0.8402
  758MOL0     H 2328   3.328   8.086   4.323  1.4116  1.7046 -0.3565
  758MOL0     H 2329   3.496   8.067   4.297 -0.1346  1.8508  0.6670
  758MOL0     H 2330   3.410   7.959   4.409 -0.0034 -0.7971 -0.7011
  759MOL0     O 2331   4.490   6.232  10.701 -0.2656  0.0208 -0.3588
  759MOL0     C 2332   4.438   6.346  10.671 -1.3740  0.4696 -0.4444
  759MOL0     O 2333   4.511   6.455  10.637 -0.3020 -0.1728 -0.5034
  759MOL0     C 2334   4.645   6.456  10.638 -0.8924 -0.6530  0.2691
  759MOL0     C 2335   4.699   6.584  10.643 -0.9141 -0.0044 -0.6766
  759MOL0     C 2336   4.838   6.612  10.640 -0.2966  0.5787  0.3416
  759MOL0     C 2337   4.927   6.500  10.648  0.1640 -0.2769  0.0855
  759MOL0     O 2338   5.063   6.513  10.655  0.0781 -0.0343  0.3297
  759MOL0     C 2339   5.119   6.629  10.718 -0.0959  0.7643 -0.0754
  759MOL0     C 2340   5.274   6.612  10.726  0.0041  1.2591  0.2143
  759MOL0     C 2341   5.345   6.710  10.817  0.2905  0.0692  0.3720
  759MOL0     C 2342   5.455   6.636  10.896 -0.2134 -0.5967 -0.5590
  759MOL0     C 2343   5.531   6.747  10.980  0.1702  0.1242  0.2701
  759MOL0     C 2344   5.676   6.704  11.000 -0.0306 -1.3236 -0.4102
  759MOL0     C 2345   5.738   6.800  11.100 -0.3157 -0.9434 -0.6108
  759MOL0     C 2346   5.894   6.760  11.127  0.2585 -0.0154  0.6599
  759MOL0     N 2347   5.942   6.855  11.224 -0.2023  0.7256  0.3694
  759MOL0     C 2348   6.002   6.970  11.199 -1.2372 -0.2442 -0.6886
  759MOL0     C 2349   6.054   7.008  11.324 -0.1370  0.5153 -0.0315
  759MOL0     C 2350   6.133   7.138  11.345  0.1769  0.2089  0.9609
  759MOL0     C 2351   6.271   7.134  11.277 -0.5436  0.6532 -0.7044
  759MOL0     C 2352   6.373   7.032  11.339  0.1691  0.0201  0.0184
  759MOL0     C 2353   6.508   7.024  11.265  0.0456 -0.4999 -0.2757
  759MOL0     O 2354   6.557   7.157  11.239 -0.0296 -0.5962  0.3529
  759MOL0     C 2355   6.676   7.171  11.168  0.2957  1.6834  0.3753
  759MOL0     C 2356   6.736   7.293  11.196 -0.7801 -0.3929  0.5002
  759MOL0     C 2357   6.856   7.326  11.141  0.0904 -0.2061 -0.9942
  759MOL0     C 2358   6.919   7.246  11.051 -0.7952  0.2621 -0.4004
  759MOL0     C 2359   7.051   7.282  11.006 -0.2007  0.0763 -0.0022
  759MOL0     O 2360   7.083   7.413  10.978 -0.9158 -0.4297  0.5375
  759MOL0     C 2361   7.217   7.436  10.957 -0.0289 -0.0203 -0.7817
  759MOL0     C 2362   7.293   7.505  11.059 -0.7363  0.3166  0.1928
  759MOL0     C 2363   7.433   7.533  11.040  0.1158  0.1963  1.0491
  759MOL0     C 2364   7.495   7.485  10.931 -0.3560  0.3777  0.0607
  759MOL0     O 2365   7.630   7.510  10.914 -0.0532 -0.0751 -0.3833
  759MOL0     C 2366   7.697   7.479  10.789 -0.4325 -0.1040 -0.4279
  759MOL0     C 2367   7.839   7.538  10.823 -0.5694 -0.0023 -1.1101
  759MOL0     C 2368   7.932   7.527  10.705 -0.1641 -1.2565  0.4008
  759MOL0     C 2369   8.063   7.617  10.720  0.3672  0.4681 -0.5815
  759MOL0     C 2370   8.151   7.540  10.830  0.3426 -0.9262  0.7205
  759MOL0     C 2371   8.290   7.591  10.841  0.7096  0.1064 -0.2153
  759MOL0     C 2372   8.365   7.495  10.922 -0.0116 -0.4365 -0.1602
  759MOL0     C 2373   8.512   7.493  10.890 -0.4344 -0.5419  0.4386
  759MOL0    Cl 2374   8.627   7.406  10.999 -0.0691 -0.1299  0.2019
  759MOL0     C 2375   7.421   7.423  10.827  0.1797  0.0144 -0.3500
  759MOL0     C 2376   7.285   7.390  10.839 -0.2711  0.5089 -0.7422
  759MOL0     O 2377   7.127   7.181  10.994 -0.6539  0.5413 -0.0199
  759MOL0     C 2378   6.867   7.120  11.022  0.0184  0.0861  1.0633
  759MOL0     C 2379   6.743   7.085  11.082  0.4013  0.2597 -0.9316
  759MOL0     N 2380   6.021   6.914  11.425  0.4917  0.4066  0.2516
  759MOL0     N 2381   5.943   6.826  11.362  0.2319 -0.2324 -0.6298
  759MOL0     C 2382   4.871   6.380  10.620 -0.3260  0.1824  0.0322
  759MOL0     C 2383   4.732   6.353  10.614 -0.6657 -0.3688  0.5082
  759MOL0     C 2384   4.287   6.348  10.667 -0.1823  0.3347  0.0177
  759MOL0     C 2385   4.236   6.476  10.695 -0.5120  0.0373  0.3653
  759MOL0     C 2386   4.100   6.492  10.692  0.0062  0.7338 -0.0234
  759MOL0     C 2387   4.017   6.381  10.662  0.1369 -0.1546 -0.5438
  759MOL0     O 2388   3.880   6.382  10.654 -0.1345  0.6772  0.3773
  759MOL0     C 2389   3.819   6.496  10.694 -0.3837  0.6621  0.7028
  759MOL0     C 2390   3.669   6.477  10.714 -0.5587  0.0819 -0.2733
  759MOL0     C 2391   3.591   6.490  10.583  0.3944 -0.3153 -0.4622
  759MOL0     C 2392   3.445   6.522  10.614 -0.1541  0.9324 -0.0295
  759MOL0     C 2393   3.371   6.421  10.686 -0.5045 -1.1353  1.1865
  759MOL0     C 2394   3.296   6.340  10.733 -0.4320  0.0887  0.0465
  759MOL0     C 2395   4.067   6.255  10.632  0.2300  0.5955  0.7186
  759MOL0     C 2396   4.205   6.242  10.624 -0.4950 -0.4299  1.0232
  759MOL0     C 2397   4.259   6.108  10.574 -0.1878 -0.3356  0.2267
  759MOL0     H 2398   4.632   6.669  10.637  1.1494  1.8963  1.5284
  759MOL0     H 2399   4.875   6.714  10.634 -0.4999  0.5916 -0.8322
  759MOL0     H 2400   5.091   6.720  10.664 -0.1867 -0.2143 -1.7104
  759MOL0     H 2401   5.082   6.631  10.821  2.2274  2.9413  0.8281
  759MOL0     H 2402   5.312   6.629  10.625 -0.9115  1.9314 -0.0296
  759MOL0     H 2403   5.293   6.509  10.758  0.6892  1.8487  1.7871
  759MOL0     H 2404   5.276   6.755  10.889 -1.3239 -1.2421 -0.3082
  759MOL0     H 2405   5.391   6.791  10.758 -0.9446  1.1245  0.8241
  759MOL0     H 2406   5.405   6.566  10.962  1.4821 -0.3398  1.0939
  759MOL0     H 2407   5.530   6.589  10.831 -1.1714  0.6310 -2.6490
  759MOL0     H 2408   5.523   6.844  10.929  0.1317  0.2461  0.5050
  759MOL0     H 2409   5.475   6.761  11.073  1.3762  3.3167  0.6336
  759MOL0     H 2410   5.678   6.600  11.036 -4.7620 -0.5696  2.8102
  759MOL0     H 2411   5.725   6.703  10.902  1.2510 -0.8106  0.2001
  759MOL0     H 2412   5.686   6.777  11.194  2.3114 -0.7045  1.0149
  759MOL0     H 2413   5.732   6.904  11.070  1.7870 -1.6314 -3.9277
  759MOL0     H 2414   5.910   6.661  11.170  3.2365  0.2742  0.3942
  759MOL0     H 2415   5.948   6.772  11.033 -0.8479 -0.4287 -0.0489
  759MOL0     H 2416   6.002   7.010  11.099  3.0331 -1.5030 -1.3966
  759MOL0     H 2417   6.064   7.214  11.306  0.9618  1.0214  1.1344
  759MOL0     H 2418   6.145   7.158  11.452 -3.5722  1.4912  1.3220
  759MOL0     H 2419   6.259   7.095  11.176  1.2482 -1.3647 -0.2102
  759MOL0     H 2420   6.316   7.234  11.280  1.4705 -0.0064 -4.0468
  759MOL0     H 2421   6.324   6.934  11.339  0.8818 -0.3447 -0.6195
  759MOL0     H 2422   6.396   7.068  11.440  0.6677  2.4794 -0.9088
  759MOL0     H 2423   6.493   6.958  11.180 -0.1942 -0.9039  0.0764
  759MOL0     H 2424   6.574   6.978  11.338 -0.4212 -2.5387 -1.0926
  759MOL0     H 2425   6.682   7.354  11.268 -1.3968 -1.6648  1.1548
  759MOL0     H 2426   6.905   7.417  11.174  1.0395 -1.1931  0.4208
  759MOL0     H 2427   7.238   7.539  11.146  1.1247  1.5753  0.9489
  759MOL0     H 2428   7.489   7.594  11.111  1.8805 -1.4745  1.1942
  759MOL0     H 2429   7.699   7.370  10.779 -3.2073 -0.2186 -0.3860
  759MOL0     H 2430   7.647   7.528  10.705 -1.6986  2.0435  1.4592
  759MOL0     H 2431   7.842   7.642  10.856  0.8219 -0.0802 -0.9209
  759MOL0     H 2432   7.883   7.472  10.898 -1.9193  0.9455  0.5970
  759MOL0     H 2433   7.960   7.423  10.682  1.4321 -1.1955  1.8037
  759MOL0     H 2434   7.879   7.564  10.617  0.1941 -3.4347 -0.8058
  759MOL0     H 2435   8.038   7.719  10.753 -1.0399  0.5858 -1.9075
  759MOL0     H 2436   8.110   7.621  10.621  0.1756 -2.8476 -0.9005
  759MOL0     H 2437   8.150   7.433  10.807  0.9298 -1.2563  2.1102
  759MOL0     H 2438   8.098   7.561  10.923 -0.8542  1.6585 -0.4400
  759MOL0     H 2439   8.328   7.595  10.738  0.2248  1.8612 -0.3552
  759MOL0     H 2440   8.283   7.692  10.882  1.6459 -1.1460  3.3618
  759MOL0     H 2441   8.327   7.392  10.911 -2.3559  0.4298 -0.7393
  759MOL0     H 2442   8.345   7.523  11.026  0.0825  0.2828 -0.3328
  759MOL0     H 2443   8.520   7.463  10.785  2.0518  2.7480 -0.4584
  759MOL0     H 2444   8.543   7.598  10.891 -0.4957 -0.5240  0.4629
  759MOL0     H 2445   7.468   7.390  10.735 -0.2105 -1.5270 -0.0205
  759MOL0     H 2446   7.234   7.332  10.763  0.1211 -0.1424 -0.5214
  759MOL0     H 2447   6.915   7.049  10.954 -3.2459  0.9735 -2.5640
  759MOL0     H 2448   6.713   6.982  11.070 -1.5772  0.7242 -0.3458
  759MOL0     H 2449   4.935   6.292  10.618 -0.2652  0.1743  1.5534
  759MOL0     H 2450   4.691   6.256  10.588 -0.6451 -0.3582  0.4343
  759MOL0     H 2451   4.297   6.560  10.726 -0.3895 -0.1817  0.7247
  759MOL0     H 2452   4.075   6.594  10.719  3.0992  1.7552 -0.6671
  759MOL0     H 2453   3.836   6.569  10.614 -0.6223  0.0530  0.0817
  759MOL0     H 2454   3.857   6.536  10.788 -1.1517  0.8862  0.9288
  759MOL0     H 2455   3.638   6.561  10.777  0.7769 -0.0509  0.6135
  759MOL0     H 2456   3.648   6.387  10.773  0.3230  0.3205  0.4220
  759MOL0     H 2457   3.600   6.402  10.518 -0.3579 -0.3143 -0.5732
  759MOL0     H 2458   3.624   6.581  10.532 -0.8893  1.8710  2.3362
  759MOL0     H 2459   3.440   6.620  10.662 -0.9541  0.1091  1.6508
  759MOL0     H 2460   3.393   6.531  10.518  0.2833  0.3695 -0.3277
  759MOL0     H 2461   3.225   6.264  10.759  0.2665 -0.3642  0.6473
  759MOL0     H 2462   4.006   6.169  10.608  2.7856 -1.2779  0.5795
  759MOL0     H 2463   4.364   6.118  10.547 -0.5849  0.8568 -0.9691
  759MOL0     H 2464   4.239   6.030  10.648 -1.2108  0.4761  0.8305
  759MOL0     H 2465   4.206   6.081  10.482 -1.7755  2.3107  0.2691
  760MOL0     O 2466   1.523   7.801   3.447  0.2236  0.0207 -0.2647
  760MOL0     C 2467   1.585   7.815   3.547  0.0630  0.2924  0.3851
  760MOL0     O 2468   1.542   7.773   3.669 -0.1176  0.1035  0.5914
  760MOL0     C 2469   1.408   7.734   3.684 -0.0372 -0.4088 -0.0173
  760MOL0     C 2470   1.359   7.753   3.814 -1.1644  0.6338 -0.5989
  760MOL0     C 2471   1.229   7.716   3.848 -1.1326 -1.2989 -0.4389
  760MOL0     C 2472   1.141   7.662   3.756 -0.0775  0.0028  0.1867
  760MOL0     O 2473   1.012   7.641   3.784 -0.1754  0.5552 -0.5791
  760MOL0     C 2474   0.985   7.497   3.782  0.4998  0.2228  0.2388
  760MOL0     C 2475   0.850   7.458   3.843  0.1041  0.7800 -0.1571
  760MOL0     C 2476   0.735   7.535   3.781 -0.1109 -0.1797 -0.1963
  760MOL0     C 2477   0.608   7.483   3.828 -1.2299  0.3137 -0.3489
  760MOL0     C 2478   0.490   7.560   3.771 -0.3269 -0.1212  0.6959
  760MOL0     C 2479   0.356   7.484   3.798  0.0581  0.1207  0.2365
  760MOL0     C 2480   0.242   7.565   3.732  0.3069 -0.3162  0.0245
  760MOL0     C 2481   0.118   7.469   3.715 -0.1119 -0.7106 -0.3558
  760MOL0     N 2482   0.029   7.456   3.839 -1.0484 -0.7260  0.2207
  760MOL0     C 2483  -0.103   7.487   3.847  0.5884 -0.4561  1.0128
  760MOL0     C 2484  -0.130   7.503   3.977  0.8334 -1.2435  0.3996
  760MOL0     C 2485  -0.270   7.544   4.026 -0.7995  0.0370 -0.5201
  760MOL0     C 2486  -0.329   7.684   4.002  0.0732  0.2765  1.1721
  760MOL0     C 2487  -0.259   7.787   4.094 -0.8475 -0.7397  0.2375
  760MOL0     C 2488  -0.283   7.944   4.066 -0.5901 -0.3547 -0.0826
  760MOL0     O 2489  -0.269   7.964   3.925  0.0422 -0.4860 -0.3863
  760MOL0     C 2490  -0.134   7.955   3.885  0.0468  0.2719 -0.2341
  760MOL0     C 2491  -0.110   7.896   3.756  0.5266 -0.1523 -0.6334
  760MOL0     C 2492   0.020   7.893   3.708 -0.0399  0.5901  0.2090
  760MOL0     C 2493   0.123   7.958   3.778  1.2681 -0.7048  1.1842
  760MOL0     C 2494   0.264   7.970   3.717  0.0414  1.2059  0.5564
  760MOL0     O 2495   0.358   8.044   3.783 -0.1433 -0.1283 -0.1270
  760MOL0     C 2496   0.488   8.041   3.755 -0.7853 -0.8529 -0.2003
  760MOL0     C 2497   0.556   7.936   3.699  0.9017  0.0558 -0.0545
  760MOL0     C 2498   0.692   7.941   3.675  0.5418 -0.2799  0.2059
  760MOL0     C 2499   0.762   8.063   3.698 -0.7441 -1.0162 -0.7543
  760MOL0     O 2500   0.897   8.080   3.688 -0.2787  0.3499 -0.5479
  760MOL0     C 2501   0.976   7.965   3.668  0.3708 -0.6777  0.6348
  760MOL0     C 2502   1.116   8.015   3.630 -0.1650 -0.2912  0.2037
  760MOL0     C 2503   1.189   8.073   3.749  0.0279 -0.3063  0.6955
  760MOL0     C 2504   1.319   8.148   3.692  0.2077  0.3214 -1.0523
  760MOL0     C 2505   1.378   8.226   3.809 -0.3231 -0.5793 -0.0479
  760MOL0     C 2506   1.460   8.345   3.762 -0.7239 -0.7581  0.6662
  760MOL0     C 2507   1.502   8.439   3.876 -0.0718 -0.1715 -0.2843
  760MOL0     C 2508   1.628   8.387   3.946 -0.0268 -0.0479  0.0676
  760MOL0    Cl 2509   1.760   8.410   3.825 -0.0237 -0.0260 -0.4089
  760MOL0     C 2510   0.698   8.177   3.751  0.7058  1.0378  0.0922
  760MOL0     C 2511   0.557   8.161   3.782 -0.2970  0.2005 -0.3363
  760MOL0     O 2512   0.281   7.928   3.602  0.1821  1.4473  0.4281
  760MOL0     C 2513   0.099   8.015   3.904  0.4206 -0.6847 -0.6969
  760MOL0     C 2514  -0.032   8.002   3.960  0.1503 -0.1756  0.6609
  760MOL0     N 2515  -0.023   7.487   4.052  0.6768 -0.0977  0.1406
  760MOL0     N 2516   0.070   7.478   3.968 -0.4242  0.0989  0.2888
  760MOL0     C 2517   1.184   7.632   3.631 -1.0960 -0.4447 -0.0455
  760MOL0     C 2518   1.317   7.661   3.590 -0.6639  0.9434 -0.4277
  760MOL0     C 2519   1.714   7.889   3.537 -0.4915  0.9314 -1.3106
  760MOL0     C 2520   1.765   7.949   3.656 -0.7320 -0.3509  0.4633
  760MOL0     C 2521   1.885   8.019   3.650 -0.2956  0.1929 -0.3366
  760MOL0     C 2522   1.964   8.018   3.535  0.0920 -1.2436 -0.2589
  760MOL0     O 2523   2.097   8.060   3.538  0.2675  0.7019  0.1965
  760MOL0     C 2524   2.190   7.949   3.534  0.0598 -0.2514  1.1493
  760MOL0     C 2525   2.312   7.995   3.459 -0.4787 -0.1118 -0.2086
  760MOL0     C 2526   2.424   7.884   3.451 -0.4474 -0.2332  0.4002
  760MOL0     C 2527   2.499   7.882   3.315  0.0619 -0.2486 -0.2966
  760MOL0     C 2528   2.574   8.005   3.275  0.2623  0.0912  0.4678
  760MOL0     C 2529   2.628   8.108   3.241  0.5680  0.2919  0.1967
  760MOL0     C 2530   1.902   7.977   3.415  0.0354 -0.2596 -0.4276
  760MOL0     C 2531   1.779   7.903   3.412 -0.2889 -0.5529  0.6372
  760MOL0     C 2532   1.759   7.848   3.274 -0.4440  1.0233  0.8175
  760MOL0     H 2533   1.427   7.806   3.880  0.4955 -0.1770 -1.6094
  760MOL0     H 2534   1.199   7.720   3.952 -3.9990 -1.9809 -1.1511
  760MOL0     H 2535   0.985   7.449   3.683 -0.9990 -3.4797  1.8670
  760MOL0     H 2536   1.060   7.445   3.841 -1.8376 -3.0442  0.5979
  760MOL0     H 2537   0.857   7.474   3.951  1.9115 -2.7703  0.3994
  760MOL0     H 2538   0.845   7.349   3.840  0.2846  0.4396  4.6280
  760MOL0     H 2539   0.739   7.530   3.672  0.4839  1.1918 -0.2559
  760MOL0     H 2540   0.735   7.643   3.800 -2.5879 -0.3741  1.3860
  760MOL0     H 2541   0.609   7.380   3.792  4.2148 -0.1943  0.3858
  760MOL0     H 2542   0.615   7.481   3.937  1.7308  0.0655 -0.4666
  760MOL0     H 2543   0.495   7.656   3.824  1.2726 -1.7192  3.6721
  760MOL0     H 2544   0.501   7.569   3.662  0.1071  1.5393  0.8367
  760MOL0     H 2545   0.351   7.389   3.744 -1.4960  0.3241 -0.0402
  760MOL0     H 2546   0.341   7.467   3.905 -1.7041  0.6554  0.1102
  760MOL0     H 2547   0.264   7.601   3.631  0.2979 -2.2401 -0.7229
  760MOL0     H 2548   0.221   7.651   3.795  2.7262  2.2489 -2.4050
  760MOL0     H 2549   0.051   7.510   3.638  0.0347  0.8497  0.2912
  760MOL0     H 2550   0.151   7.371   3.680  1.1728 -0.3612 -0.1632
  760MOL0     H 2551  -0.168   7.492   3.761 -0.5621 -1.2227  1.8143
  760MOL0     H 2552  -0.341   7.468   3.993 -3.8711  1.6904  1.7418
  760MOL0     H 2553  -0.278   7.522   4.133 -1.6425  1.7404 -0.2063
  760MOL0     H 2554  -0.321   7.715   3.897  1.0379 -0.7484  0.9251
  760MOL0     H 2555  -0.436   7.677   4.023  0.0991  2.3562  2.1877
  760MOL0     H 2556  -0.151   7.778   4.103 -1.0135 -0.3631  4.3632
  760MOL0     H 2557  -0.300   7.771   4.194 -1.1242  1.8715  0.6102
  760MOL0     H 2558  -0.218   7.998   4.136 -0.3463 -3.0416  1.9041
  760MOL0     H 2559  -0.382   7.981   4.095 -0.0365  0.7087  0.5364
  760MOL0     H 2560  -0.192   7.862   3.695  0.7784 -1.2992 -0.3447
  760MOL0     H 2561   0.040   7.836   3.618  1.4080  0.1115  0.8113
  760MOL0     H 2562   0.494   7.847   3.691 -0.6245  0.6881  3.1659
  760MOL0     H 2563   0.740   7.850   3.640 -1.3860 -2.4699  2.8180
  760MOL0     H 2564   0.984   7.901   3.756 -0.8001 -2.9211 -0.7948
  760MOL0     H 2565   0.932   7.899   3.593  0.9240 -0.1674 -0.1506
  760MOL0     H 2566   1.186   7.937   3.600  2.8784  1.5404  1.9383
  760MOL0     H 2567   1.108   8.085   3.546 -1.7205 -1.5027 -0.7027
  760MOL0     H 2568   1.125   8.146   3.799  1.9968 -0.5602  3.8640
  760MOL0     H 2569   1.201   7.995   3.825 -4.4288  0.4430  2.4795
  760MOL0     H 2570   1.280   8.216   3.615 -0.7233  0.9293 -0.0686
  760MOL0     H 2571   1.390   8.081   3.643  0.8067 -0.6114  0.9830
  760MOL0     H 2572   1.443   8.162   3.869  1.0328 -0.1806 -1.0358
  760MOL0     H 2573   1.298   8.261   3.875 -1.3900 -1.5341 -0.8002
  760MOL0     H 2574   1.543   8.314   3.698  0.9096  3.0513  0.6941
  760MOL0     H 2575   1.402   8.413   3.699  0.5250 -1.1187 -0.9345
  760MOL0     H 2576   1.425   8.448   3.954  0.1000 -3.8968  0.5256
  760MOL0     H 2577   1.524   8.537   3.833  1.5868 -0.2210  0.3809
  760MOL0     H 2578   1.637   8.443   4.039 -2.1876 -0.4294  0.5543
  760MOL0     H 2579   1.621   8.282   3.977 -1.4052  0.0190  0.0360
  760MOL0     H 2580   0.752   8.269   3.772 -0.8178  2.2229 -1.0127
  760MOL0     H 2581   0.505   8.246   3.825  2.0696  0.5345  2.1616
  760MOL0     H 2582   0.180   8.065   3.957 -1.3133 -0.1326  1.6147
  760MOL0     H 2583  -0.058   8.052   4.052  0.2417 -2.4870  2.0041
  760MOL0     H 2584   1.113   7.586   3.564 -3.1216  0.5948  1.3033
  760MOL0     H 2585   1.355   7.631   3.493  0.7972  0.7196  0.1789
  760MOL0     H 2586   1.716   7.945   3.753 -2.3460  4.2586  0.0941
  760MOL0     H 2587   1.918   8.068   3.741 -0.5810  2.7137 -1.5136
  760MOL0     H 2588   2.146   7.854   3.500  1.9870 -0.6842 -0.2959
  760MOL0     H 2589   2.218   7.930   3.638 -0.3217 -2.2487  0.9382
  760MOL0     H 2590   2.360   8.080   3.509 -0.6329 -0.9777  1.4991
  760MOL0     H 2591   2.283   8.030   3.360  1.7811  0.6684 -0.6720
  760MOL0     H 2592   2.382   7.785   3.470 -1.0467 -0.1356 -0.3435
  760MOL0     H 2593   2.501   7.901   3.527 -0.9080 -1.4455  1.1690
  760MOL0     H 2594   2.561   7.792   3.317 -0.3690 -0.5619 -0.7247
  760MOL0     H 2595   2.424   7.857   3.239 -1.3151  0.3295  0.8274
  760MOL0     H 2596   2.669   8.203   3.216  0.8529  1.0845  3.2015
  760MOL0     H 2597   1.954   7.989   3.320 -2.6627 -2.0224 -2.2904
  760MOL0     H 2598   1.852   7.798   3.247 -1.2988 -1.0722  1.5263
  760MOL0     H 2599   1.678   7.774   3.271  1.9942 -1.7819  0.6605
  760MOL0     H 2600   1.738   7.928   3.201 -0.1698  1.1537  0.8817
  761MOL0     O 2601   0.782  10.228   9.521  0.3317  0.1743 -0.8885
  761MOL0     C 2602   0.723  10.294   9.604  0.4417  0.0506 -0.5747
  761MOL0     O 2603   0.732  10.425   9.629 -0.2569  0.5880 -0.3844
  761MOL0     C 2604   0.846  10.466   9.571 -0.6969 -1.0824 -0.0959
  761MOL0     C 2605   0.851  10.526   9.448  0.7689 -0.0119 -0.4835
  761MOL0     C 2606   0.976  10.547   9.389 -0.1976 -0.1777 -0.1311
  761MOL0     C 2607   1.097  10.518   9.453  0.0879  0.2084  0.3110
  761MOL0     O 2608   1.213  10.563   9.393 -0.6821 -0.0494 -0.2840
  761MOL0     C 2609   1.340  10.521   9.458 -0.3748 -1.0071  1.3825
  761MOL0     C 2610   1.376  10.597   9.586  0.6338  0.1542  0.7771
  761MOL0     C 2611   1.491  10.524   9.655  0.0236 -0.6458  0.5718
  761MOL0     C 2612   1.580  10.633   9.710  0.4639 -0.4203  0.4238
  761MOL0     C 2613   1.707  10.574   9.767 -0.1148  0.2536 -0.5846
  761MOL0     C 2614   1.810  10.687   9.772  0.8692 -0.1729 -0.4039
  761MOL0     C 2615   1.925  10.657   9.862  0.2406 -0.8135 -0.4007
  761MOL0     C 2616   2.019  10.781   9.880  0.2571  0.4825  0.2378
  761MOL0     N 2617   2.153  10.730   9.910 -0.4190 -0.4169 -0.0711
  761MOL0     C 2618   2.208  10.606   9.954  0.4103  0.1199 -0.0350
  761MOL0     C 2619   2.339  10.614   9.927 -0.2099 -0.2310 -0.5110
  761MOL0     C 2620   2.443  10.501   9.956  0.2006  0.0133  0.7578
  761MOL0     C 2621   2.446  10.400   9.835  0.7364 -0.6444  0.6320
  761MOL0     C 2622   2.459  10.468   9.696 -0.1406 -0.5291  0.1621
  761MOL0     C 2623   2.590  10.548   9.682  0.5995  0.7164 -0.3140
  761MOL0     O 2624   2.703  10.467   9.705 -0.0002  0.4463  0.5300
  761MOL0     C 2625   2.832  10.503   9.674  0.1178  0.0989  0.2347
  761MOL0     C 2626   2.869  10.645   9.680 -0.0172 -0.2020 -0.0107
  761MOL0     C 2627   2.998  10.678   9.665 -0.0964 -0.5087 -0.6110
  761MOL0     C 2628   3.101  10.584   9.646  0.3161 -0.8396  0.5730
  761MOL0     C 2629   3.237  10.634   9.612  0.8004  0.1891  0.1275
  761MOL0     O 2630   3.326  10.534   9.609  0.4991 -0.4691 -0.1097
  761MOL0     C 2631   3.464  10.546   9.575  0.0379  0.8883 -0.0479
  761MOL0     C 2632   3.523  10.442   9.511  0.2453  0.3996 -1.1065
  761MOL0     C 2633   3.660  10.444   9.476 -0.2837  0.6295 -0.3970
  761MOL0     C 2634   3.747  10.554   9.493  0.1583  0.2988 -0.4691
  761MOL0     O 2635   3.869  10.547   9.446  0.1838 -1.3748 -0.3818
  761MOL0     C 2636   3.975  10.638   9.490  0.1440  0.3450  1.5252
  761MOL0     C 2637   4.113  10.563   9.486  0.8602 -0.3732 -0.9631
  761MOL0     C 2638   4.143  10.476   9.606 -0.3452  0.1145  0.0579
  761MOL0     C 2639   4.270  10.385   9.586  0.1525  0.7833 -1.0288
  761MOL0     C 2640   4.300  10.271   9.699  0.4267  0.6684  0.5122
  761MOL0     C 2641   4.206  10.156   9.700  0.1253  0.3179 -0.1984
  761MOL0     C 2642   4.245  10.035   9.791  0.1949 -0.0440  0.8799
  761MOL0     C 2643   4.228  10.071   9.933 -0.7811  1.3995  0.7345
  761MOL0    Cl 2644   4.270   9.930  10.040 -0.0086 -0.1858 -0.0574
  761MOL0     C 2645   3.688  10.651   9.577 -0.1972 -0.3555 -0.1424
  761MOL0     C 2646   3.545  10.650   9.617  0.1834  0.3217 -1.0223
  761MOL0     O 2647   3.254  10.752   9.604  0.2260 -0.2101  0.2508
  761MOL0     C 2648   3.065  10.449   9.643  0.0884  0.0912  0.6070
  761MOL0     C 2649   2.933  10.407   9.670 -0.1333  0.2967 -0.2866
  761MOL0     N 2650   2.361  10.745   9.874 -0.7496  0.5711  0.2222
  761MOL0     N 2651   2.254  10.809   9.867  0.1363  0.6876 -0.7564
  761MOL0     C 2652   1.085  10.458   9.581 -0.7480  0.2067 -0.0761
  761MOL0     C 2653   0.965  10.443   9.642 -0.0281 -0.2238  0.1419
  761MOL0     C 2654   0.608  10.229   9.671  0.3236  0.2087 -0.1100
  761MOL0     C 2655   0.491  10.296   9.647 -0.0556 -0.8102  0.1312
  761MOL0     C 2656   0.371  10.246   9.694 -0.4719  0.2305  0.2961
  761MOL0     C 2657   0.359  10.131   9.764  0.7370 -0.7505 -0.2475
  761MOL0     O 2658   0.233  10.108   9.805  0.0334 -0.4159 -0.1648
  761MOL0     C 2659   0.191   9.989   9.867 -0.3188  0.0452 -0.1228
  761MOL0     C 2660   0.043   9.969   9.880 -0.3697  1.6473  0.0344
  761MOL0     C 2661  -0.040  10.101   9.898 -0.9516  0.5873  0.3833
  761MOL0     C 2662   0.004  10.183  10.018 -1.0295  0.1589 -0.3888
  761MOL0     C 2663  -0.102  10.242  10.093 -0.1940 -0.6377  0.6855
  761MOL0     C 2664  -0.196  10.280  10.156  0.4018  0.3573 -0.4603
  761MOL0     C 2665   0.476  10.072   9.806 -0.5057  0.4532 -0.2589
  761MOL0     C 2666   0.602  10.114   9.756  0.5662  0.7940  0.4361
  761MOL0     C 2667   0.732  10.045   9.789 -0.7815  0.6314 -0.4506
  761MOL0     H 2668   0.758  10.555   9.401 -1.4192 -0.3532  3.2731
  761MOL0     H 2669   0.990  10.594   9.292 -1.4599  0.0601 -0.2059
  761MOL0     H 2670   1.330  10.415   9.480 -0.6705 -2.3151 -3.7111
  761MOL0     H 2671   1.414  10.526   9.377 -2.3271 -4.5861 -0.9021
  761MOL0     H 2672   1.290  10.590   9.653 -1.9010  1.2727 -2.0910
  761MOL0     H 2673   1.394  10.704   9.570 -1.9113  0.9316  2.4243
  761MOL0     H 2674   1.552  10.464   9.587  0.0695 -1.1879  1.0815
  761MOL0     H 2675   1.465  10.466   9.744 -1.7157  1.2585  1.3696
  761MOL0     H 2676   1.605  10.686   9.618 -1.2190  0.6667  0.5436
  761MOL0     H 2677   1.528  10.690   9.788 -0.2103 -1.4680  0.7607
  761MOL0     H 2678   1.694  10.531   9.867  3.0350  1.2900  0.4070
  761MOL0     H 2679   1.752  10.497   9.703 -0.4630 -1.1581  0.7970
  761MOL0     H 2680   1.845  10.725   9.676  0.2266 -0.6067 -0.8138
  761MOL0     H 2681   1.760  10.774   9.815  1.7558  0.3213 -0.3637
  761MOL0     H 2682   1.976  10.572   9.816 -1.5550 -1.4704 -1.2803
  761MOL0     H 2683   1.882  10.621   9.956  0.6944 -4.6445 -1.4880
  761MOL0     H 2684   2.013  10.847   9.794 -1.5168  1.7938  1.2967
  761MOL0     H 2685   1.976  10.833   9.967 -0.2505 -0.7754  0.7694
  761MOL0     H 2686   2.167  10.531  10.021 -0.2844  1.0349  0.5894
  761MOL0     H 2687   2.544  10.541   9.967  0.7423 -1.2009  0.3415
  761MOL0     H 2688   2.400  10.451  10.043 -1.8281  1.5690  0.7306
  761MOL0     H 2689   2.525  10.326   9.849  1.8252  0.9917  4.4168
  761MOL0     H 2690   2.347  10.355   9.836  1.5426 -2.5509  2.6098
  761MOL0     H 2691   2.370  10.529   9.681 -1.5158 -1.7928  2.4722
  761MOL0     H 2692   2.452  10.393   9.616 -1.0179  1.7579 -2.0311
  761MOL0     H 2693   2.584  10.626   9.759 -1.3875 -1.1729  1.5984
  761MOL0     H 2694   2.604  10.587   9.581 -0.3981 -0.6730 -1.0151
  761MOL0     H 2695   2.788  10.716   9.692 -0.4332 -0.6292 -0.2899
  761MOL0     H 2696   3.025  10.783   9.668  3.3235 -1.2881 -0.0993
  761MOL0     H 2697   3.458  10.360   9.484  2.6973 -1.8906 -0.4494
  761MOL0     H 2698   3.707  10.359   9.427  3.8987  3.2789 -1.4900
  761MOL0     H 2699   3.976  10.722   9.419 -2.0519 -1.5069 -0.8872
  761MOL0     H 2700   3.953  10.675   9.591 -0.0703  0.1040  1.5677
  761MOL0     H 2701   4.119  10.500   9.397 -0.6889 -1.8891 -0.0712
  761MOL0     H 2702   4.187  10.643   9.479  1.9205 -1.3742 -1.3605
  761MOL0     H 2703   4.155  10.545   9.691  0.6858  1.4836 -1.1332
  761MOL0     H 2704   4.057  10.412   9.624 -0.3891  0.2297  0.2639
  761MOL0     H 2705   4.359  10.448   9.583  0.6331  0.0802 -2.1306
  761MOL0     H 2706   4.259  10.329   9.493  0.9369  0.7083 -1.0846
  761MOL0     H 2707   4.299  10.309   9.801 -2.6881 -0.6939  1.1104
  761MOL0     H 2708   4.399  10.229   9.679  0.0379 -0.3522  0.6831
  761MOL0     H 2709   4.106  10.189   9.728 -0.1847 -1.2011  0.5969
  761MOL0     H 2710   4.205  10.104   9.603  2.5159 -0.5848  0.1946
  761MOL0     H 2711   4.348  10.008   9.767  0.6528  2.8816 -1.0140
  761MOL0     H 2712   4.177   9.953   9.768  0.0540  0.5100 -0.8811
  761MOL0     H 2713   4.282  10.163   9.956  1.9197  0.0370  0.3505
  761MOL0     H 2714   4.124  10.093   9.957 -0.8689  2.7964 -0.7945
  761MOL0     H 2715   3.752  10.729   9.618  1.6161 -1.4724 -0.6836
  761MOL0     H 2716   3.504  10.735   9.670 -2.7699 -1.3484 -0.4247
  761MOL0     H 2717   3.140  10.373   9.624 -0.8668 -0.6303 -0.3134
  761MOL0     H 2718   2.904  10.302   9.672  1.3229 -0.1261  0.1862
  761MOL0     H 2719   1.167  10.419   9.639 -0.1258 -1.2647 -1.8735
  761MOL0     H 2720   0.941  10.406   9.741 -5.2594  2.4715  0.2410
  761MOL0     H 2721   0.484  10.378   9.576  1.0580  0.8525  1.8342
  761MOL0     H 2722   0.278  10.299   9.675  0.3939  2.4021  1.7412
  761MOL0     H 2723   0.243   9.973   9.962  1.8969 -0.4901 -1.3377
  761MOL0     H 2724   0.239   9.917   9.800 -0.5577 -0.1858 -0.0480
  761MOL0     H 2725   0.031   9.913   9.973  1.2366  2.0777  0.5302
  761MOL0     H 2726  -0.002   9.912   9.799 -1.8226 -0.3152  2.0781
  761MOL0     H 2727  -0.142  10.062   9.908 -0.1590 -1.5107  0.8772
  761MOL0     H 2728  -0.042  10.165   9.809  2.4179  1.9606  1.1283
  761MOL0     H 2729   0.057  10.121  10.090 -0.1628  0.5296 -0.6923
  761MOL0     H 2730   0.081  10.258  10.000 -2.4355  2.2605  1.7221
  761MOL0     H 2731  -0.289  10.313  10.199  0.8065  0.1853  0.5607
  761MOL0     H 2732   0.485   9.991   9.878  0.0619  1.3098  0.6631
  761MOL0     H 2733   0.710   9.972   9.868 -3.0078  1.1615 -0.5033
  761MOL0     H 2734   0.773   9.992   9.703 -1.4169  0.1942 -0.4932
  761MOL0     H 2735   0.797  10.122   9.832 -1.5589  1.1174 -0.1121
  762MOL0     O 2736   3.021   2.103  11.113 -0.6010  0.2041 -0.3780
  762MOL0     C 2737   2.918   2.030  11.140 -0.6515  0.2037 -0.0054
  762MOL0     O 2738   2.916   1.915  11.201  0.2916  0.8163 -0.7887
  762MOL0     C 2739   3.022   1.865  11.276 -0.1494 -0.1066 -0.0149
  762MOL0     C 2740   3.032   1.729  11.282  0.6087  0.2527 -0.0624
  762MOL0     C 2741   3.126   1.654  11.354  0.4084 -0.3063 -0.4299
  762MOL0     C 2742   3.214   1.724  11.432  0.1252 -0.7099 -0.5003
  762MOL0     O 2743   3.310   1.668  11.506 -0.1892  0.0005  0.4944
  762MOL0     C 2744   3.255   1.594  11.622 -0.3616 -0.1645  1.1136
  762MOL0     C 2745   3.348   1.472  11.669 -0.2748 -0.0179 -1.0178
  762MOL0     C 2746   3.489   1.515  11.712 -0.0116 -0.2687  0.1857
  762MOL0     C 2747   3.480   1.563  11.850 -0.3805 -0.0755  0.6694
  762MOL0     C 2748   3.612   1.594  11.920 -0.3241  0.1236 -0.2606
  762MOL0     C 2749   3.721   1.484  11.922 -0.3251  0.4548 -0.2463
  762MOL0     C 2750   3.664   1.352  11.973  0.1198  0.8131 -0.2962
  762MOL0     C 2751   3.616   1.359  12.123 -0.6637  0.2210 -0.2176
  762MOL0     N 2752   3.728   1.375  12.221  0.1350 -0.1405 -0.0560
  762MOL0     C 2753   3.791   1.281  12.295 -0.5199 -0.1286  0.1624
  762MOL0     C 2754   3.871   1.340  12.387  0.2608 -0.1952  0.1526
  762MOL0     C 2755   3.964   1.282  12.485 -0.7400  0.1431  0.1068
  762MOL0     C 2756   4.107   1.306  12.456 -0.2895 -0.1104  0.1811
  762MOL0     C 2757   4.198   1.275  12.574  0.4093 -0.5101 -0.0513
  762MOL0     C 2758   4.344   1.287  12.540 -0.4338 -1.1921 -0.6334
  762MOL0     O 2759   4.353   1.422  12.502 -0.2291  1.0642  0.2713
  762MOL0     C 2760   4.472   1.478  12.456 -0.2054  0.5038 -0.5261
  762MOL0     C 2761   4.466   1.613  12.405 -0.0126  0.0323 -0.1076
  762MOL0     C 2762   4.582   1.674  12.367 -0.5975  0.1062  0.5011
  762MOL0     C 2763   4.709   1.618  12.378 -0.0297 -0.0848 -0.3406
  762MOL0     C 2764   4.827   1.699  12.345  0.0779 -0.6056  0.4698
  762MOL0     O 2765   4.800   1.827  12.301  0.8898  0.7675  0.4180
  762MOL0     C 2766   4.909   1.915  12.292 -0.0472  0.1662  0.1828
  762MOL0     C 2767   5.034   1.916  12.357 -0.0411  0.4868  0.7216
  762MOL0     C 2768   5.128   2.012  12.335 -0.6320 -0.1216  0.2048
  762MOL0     C 2769   5.113   2.107  12.230 -0.2599  0.3007 -0.8495
  762MOL0     O 2770   5.225   2.185  12.204 -0.1073  0.0569  0.2949
  762MOL0     C 2771   5.216   2.288  12.105 -0.2221  0.2052  0.7183
  762MOL0     C 2772   5.328   2.384  12.092  0.5081 -0.5462  0.3749
  762MOL0     C 2773   5.468   2.314  12.066  0.6322 -0.0226  0.7339
  762MOL0     C 2774   5.579   2.415  12.035  0.0695  0.2076  0.3630
  762MOL0     C 2775   5.721   2.354  11.998  0.6206 -0.0420 -0.1023
  762MOL0     C 2776   5.837   2.449  12.014 -0.8564  0.3602  1.0100
  762MOL0     C 2777   5.961   2.397  11.933  0.2347  1.2032 -0.4500
  762MOL0     C 2778   6.063   2.504  11.930 -0.5666 -0.5287 -0.4522
  762MOL0    Cl 2779   6.010   2.641  11.825 -0.0842 -0.2956 -0.0352
  762MOL0     C 2780   4.993   2.105  12.157  0.3352 -0.3120  0.2716
  762MOL0     C 2781   4.890   2.018  12.198 -0.2101  0.2456  0.4799
  762MOL0     O 2782   4.936   1.646  12.342 -0.0034  0.3699  0.8491
  762MOL0     C 2783   4.715   1.484  12.421  0.3409 -0.0040  0.9790
  762MOL0     C 2784   4.600   1.422  12.464 -0.1508  0.2133  0.4133
  762MOL0     N 2785   3.857   1.472  12.368 -0.5231  0.2265  0.6632
  762MOL0     N 2786   3.771   1.496  12.269  0.6407  0.0003  0.3287
  762MOL0     C 2787   3.215   1.872  11.426 -0.4337  0.7830  0.3620
  762MOL0     C 2788   3.110   1.935  11.358  0.3577 -0.1276 -0.3224
  762MOL0     C 2789   2.792   2.073  11.082 -0.1555  1.0983  0.5284
  762MOL0     C 2790   2.798   2.165  10.967  0.2538  0.1850 -0.2246
  762MOL0     C 2791   2.675   2.201  10.907 -0.4347  0.0213 -0.0408
  762MOL0     C 2792   2.547   2.144  10.956 -0.0599 -1.4094 -0.2985
  762MOL0     O 2793   2.437   2.195  10.886 -0.0060 -0.4313 -0.2222
  762MOL0     C 2794   2.315   2.132  10.908  0.8271 -0.0043  0.5944
  762MOL0     C 2795   2.211   2.205  10.820 -0.6352 -0.2233  0.3967
  762MOL0     C 2796   2.074   2.135  10.815 -0.9083 -0.2186 -0.3747
  762MOL0     C 2797   1.975   2.207  10.721  0.0850 -0.0724  0.5076
  762MOL0     C 2798   1.998   2.192  10.579 -0.2573 -0.2684  0.9866
  762MOL0     C 2799   2.006   2.177  10.457 -0.1072  0.1950 -0.5372
  762MOL0     C 2800   2.553   2.055  11.062 -0.1964  0.7728  0.5075
  762MOL0     C 2801   2.668   2.025  11.133  0.8488 -0.4499 -0.4181
  762MOL0     C 2802   2.647   1.946  11.261  0.0995  0.2509  0.2377
  762MOL0     H 2803   2.965   1.670  11.221  0.6397 -1.2013  1.2256
  762MOL0     H 2804   3.115   1.546  11.352  0.8554 -0.3564 -0.1075
  762MOL0     H 2805   3.239   1.669  11.700  1.8323  3.0392 -1.2611
  762MOL0     H 2806   3.161   1.551  11.587  0.6475 -1.9914  0.5252
  762MOL0     H 2807   3.376   1.413  11.581  3.2237 -0.3722  0.1883
  762MOL0     H 2808   3.297   1.410  11.743  2.4459 -3.3127 -1.6553
  762MOL0     H 2809   3.530   1.600  11.657  0.7507  1.1897  2.8131
  762MOL0     H 2810   3.561   1.433  11.704  1.7392  0.9801  1.9880
  762MOL0     H 2811   3.426   1.658  11.844 -0.2218 -0.0094  0.2549
  762MOL0     H 2812   3.419   1.491  11.906 -1.3518 -0.3183 -0.6557
  762MOL0     H 2813   3.664   1.673  11.866 -1.1123 -1.0993 -2.9532
  762MOL0     H 2814   3.594   1.623  12.024  1.6237  0.7396 -0.0570
  762MOL0     H 2815   3.771   1.473  11.825  0.4040  0.6806  0.0977
  762MOL0     H 2816   3.802   1.509  11.992  0.4267 -0.1817 -0.8694
  762MOL0     H 2817   3.739   1.274  11.958 -3.0718 -2.1567 -2.0486
  762MOL0     H 2818   3.573   1.325  11.919 -1.7395  1.8991  2.1184
  762MOL0     H 2819   3.541   1.437  12.137 -3.6718 -2.1294 -2.1063
  762MOL0     H 2820   3.562   1.267  12.149 -0.4313  0.3500  0.7734
  762MOL0     H 2821   3.758   1.178  12.284 -1.1450 -0.0545  1.1474
  762MOL0     H 2822   3.942   1.327  12.582  3.8699  0.2712  1.3496
  762MOL0     H 2823   3.940   1.177  12.503 -0.9768  0.1282 -0.2765
  762MOL0     H 2824   4.122   1.232  12.378  1.1980  0.3702 -0.0148
  762MOL0     H 2825   4.111   1.403  12.406 -0.2454 -1.1968 -2.0589
  762MOL0     H 2826   4.184   1.173  12.610 -1.8035 -0.1258  0.2954
  762MOL0     H 2827   4.172   1.347  12.653 -2.6710  2.7893 -3.6439
  762MOL0     H 2828   4.375   1.223  12.457  1.4100 -0.0202 -0.9147
  762MOL0     H 2829   4.406   1.264  12.627  2.0137 -0.5843 -2.1333
  762MOL0     H 2830   4.372   1.666  12.397 -1.1085 -2.0536 -2.0870
  762MOL0     H 2831   4.555   1.777  12.342 -0.2550  0.6403  2.1763
  762MOL0     H 2832   5.048   1.827  12.416 -2.0460 -1.2719 -1.2499
  762MOL0     H 2833   5.220   1.998  12.390 -0.7648 -4.2436 -0.2620
  762MOL0     H 2834   5.206   2.242  12.006 -0.8615 -0.9806  1.3081
  762MOL0     H 2835   5.127   2.343  12.138  0.0986  0.8707  0.4860
  762MOL0     H 2836   5.298   2.446  12.008 -0.7444 -0.4150  0.8971
  762MOL0     H 2837   5.334   2.437  12.188  0.1620 -1.2984  0.8232
  762MOL0     H 2838   5.507   2.248  12.143  2.9473 -1.2861 -1.3592
  762MOL0     H 2839   5.462   2.256  11.974 -3.0606  2.3348 -0.7627
  762MOL0     H 2840   5.599   2.475  12.125  2.3856 -2.5323  1.8451
  762MOL0     H 2841   5.550   2.480  11.952 -0.7676 -1.3811 -0.6293
  762MOL0     H 2842   5.715   2.318  11.895  0.9853  0.6511 -0.3736
  762MOL0     H 2843   5.733   2.271  12.068 -1.3697 -1.7384 -1.6907
  762MOL0     H 2844   5.821   2.550  11.975  1.2122  1.3234  2.4797
  762MOL0     H 2845   5.863   2.453  12.120 -0.4706  0.4347  0.9116
  762MOL0     H 2846   5.932   2.374  11.830 -1.6502  0.1725  0.2795
  762MOL0     H 2847   5.993   2.300  11.971 -1.6148  0.5768 -0.3975
  762MOL0     H 2848   6.090   2.542  12.029 -0.4764 -1.8602  0.0681
  762MOL0     H 2849   6.159   2.463  11.896 -0.8505 -3.8517  2.2247
  762MOL0     H 2850   4.976   2.158  12.064 -0.8695  0.7265  1.0552
  762MOL0     H 2851   4.801   2.026  12.135 -1.4858 -0.5853  2.0817
  762MOL0     H 2852   4.815   1.443  12.438  0.1309 -0.4492  1.1517
  762MOL0     H 2853   4.603   1.323  12.508  0.3414  0.1692  0.2909
  762MOL0     H 2854   3.286   1.929  11.486  0.6857 -1.3219  1.1642
  762MOL0     H 2855   3.094   2.041  11.377 -0.3453 -0.3297  0.2974
  762MOL0     H 2856   2.894   2.191  10.925  0.4947 -1.8687 -1.0674
  762MOL0     H 2857   2.673   2.275  10.828 -0.8169  2.0874  1.8061
  762MOL0     H 2858   2.279   2.144  11.010  1.0773 -0.5654  0.7525
  762MOL0     H 2859   2.310   2.026  10.880 -5.0955 -0.3361  1.6321
  762MOL0     H 2860   2.245   2.200  10.715 -0.6519 -0.9525  0.4182
  762MOL0     H 2861   2.205   2.306  10.860 -0.1244  1.2190 -2.8521
  762MOL0     H 2862   2.024   2.137  10.912 -1.5037  0.2699 -0.6789
  762MOL0     H 2863   2.070   2.030  10.782 -2.2514 -0.5439  0.7572
  762MOL0     H 2864   1.876   2.163  10.735  0.6924 -1.9152 -0.6204
  762MOL0     H 2865   1.982   2.313  10.748 -0.3698  0.5041 -1.4395
  762MOL0     H 2866   2.004   2.168  10.350  1.5917 -1.5865 -0.4748
  762MOL0     H 2867   2.456   2.020  11.096 -0.3430  1.4356  0.7878
  762MOL0     H 2868   2.546   1.967  11.297 -0.1254 -0.2429 -0.0870
  762MOL0     H 2869   2.655   1.842  11.226 -1.3087  0.9309 -2.3210
  762MOL0     H 2870   2.727   1.961  11.334  0.3308 -1.2085  0.3214
  763MOL0     O 2871   3.596   9.527   8.003  0.6992  0.4974 -0.0767
  763MOL0     C 2872   3.559   9.450   7.915 -0.4688  0.2829  0.4079
  763MOL0     O 2873   3.647   9.388   7.832 -0.4767  0.1264  0.1246
  763MOL0     C 2874   3.776   9.428   7.841  0.3321 -0.0483  0.9474
  763MOL0     C 2875   3.862   9.375   7.941 -0.3455 -0.0387  0.9387
  763MOL0     C 2876   3.995   9.405   7.954 -0.1625 -0.3241  0.3668
  763MOL0     C 2877   4.055   9.482   7.848 -0.3005  0.2999 -0.2002
  763MOL0     O 2878   4.187   9.516   7.834 -0.1028 -0.1280  0.1593
  763MOL0     C 2879   4.276   9.430   7.904  0.0820 -0.2140  0.2984
  763MOL0     C 2880   4.418   9.476   7.861 -0.2001 -0.4347  0.2507
  763MOL0     C 2881   4.525   9.470   7.970  0.7356  0.5220 -0.2105
  763MOL0     C 2882   4.651   9.543   7.927 -0.1758 -0.4483 -0.3362
  763MOL0     C 2883   4.755   9.544   8.040 -0.0548 -0.2571  0.3640
  763MOL0     C 2884   4.863   9.630   8.010 -0.5107 -0.4019  0.1057
  763MOL0     C 2885   4.976   9.606   8.112  0.5201  0.4230 -0.5151
  763MOL0     C 2886   5.091   9.520   8.058  0.4742 -0.0811 -0.1158
  763MOL0     N 2887   5.211   9.544   8.142 -0.8789  0.2566 -0.0127
  763MOL0     C 2888   5.283   9.665   8.137 -0.4064 -0.4702  0.1534
  763MOL0     C 2889   5.410   9.627   8.169 -0.9564 -0.1844  0.1090
  763MOL0     C 2890   5.525   9.715   8.192 -0.7384  0.1932 -0.0442
  763MOL0     C 2891   5.661   9.668   8.147  0.0391  0.0542 -0.3883
  763MOL0     C 2892   5.754   9.790   8.121 -0.3748  0.1516 -0.4101
  763MOL0     C 2893   5.895   9.757   8.127 -0.1560  0.5184  0.3311
  763MOL0     O 2894   5.974   9.876   8.156  0.4222 -0.1786 -0.1267
  763MOL0     C 2895   6.109   9.851   8.144  0.9601  0.0323 -0.4925
  763MOL0     C 2896   6.181   9.949   8.217  0.5339 -0.0856 -0.2466
  763MOL0     C 2897   6.317   9.945   8.220 -0.2032  0.5514 -0.8400
  763MOL0     C 2898   6.381   9.825   8.168 -0.4183 -0.4371  0.3065
  763MOL0     C 2899   6.526   9.792   8.196  0.4012  0.1746 -0.0589
  763MOL0     O 2900   6.566   9.671   8.157  0.1368  0.4429  0.7776
  763MOL0     C 2901   6.695   9.627   8.169 -0.6768 -0.1255  0.1836
  763MOL0     C 2902   6.768   9.655   8.286 -0.0480 -0.5963  0.5940
  763MOL0     C 2903   6.901   9.613   8.289 -0.3764 -0.1625  0.1920
  763MOL0     C 2904   6.966   9.539   8.185 -0.1771 -0.2670 -0.9714
  763MOL0     O 2905   7.097   9.518   8.203 -0.4580  0.5092 -0.2791
  763MOL0     C 2906   7.181   9.487   8.089  0.3585  0.0136 -0.4080
  763MOL0     C 2907   7.325   9.468   8.122 -1.7528 -0.3587  1.0096
  763MOL0     C 2908   7.424   9.473   8.004 -0.0832  0.7167  0.0429
  763MOL0     C 2909   7.469   9.613   7.997 -0.6581  0.1505  0.4615
  763MOL0     C 2910   7.565   9.644   7.887 -0.3430  0.3122  0.7063
  763MOL0     C 2911   7.698   9.568   7.908 -1.0629 -0.6545 -0.1201
  763MOL0     C 2912   7.807   9.624   7.819 -0.9355  0.4776 -0.1457
  763MOL0     C 2913   7.946   9.578   7.874 -0.1240 -0.0417 -0.4636
  763MOL0    Cl 2914   8.060   9.595   7.739  0.3838  0.6134 -0.0807
  763MOL0     C 2915   6.891   9.491   8.080  0.8516 -0.4179  0.9934
  763MOL0     C 2916   6.756   9.534   8.079  0.1864 -0.0503 -0.4939
  763MOL0     O 2917   6.591   9.879   8.250 -0.2658  0.4379 -0.1340
  763MOL0     C 2918   6.309   9.728   8.098  0.0047  0.1562 -0.1397
  763MOL0     C 2919   6.177   9.742   8.082 -0.3549 -0.0573 -0.7945
  763MOL0     N 2920   5.421   9.495   8.198  0.0513  0.0791  0.4420
  763MOL0     N 2921   5.306   9.448   8.176  0.4947  0.8150  0.8049
  763MOL0     C 2922   3.973   9.523   7.744  0.5983 -0.8710  0.8316
  763MOL0     C 2923   3.838   9.502   7.734 -0.2534  0.7518 -0.0638
  763MOL0     C 2924   3.417   9.419   7.892 -0.1080 -1.0257 -0.4892
  763MOL0     C 2925   3.384   9.365   7.771  0.0943  0.0210  0.5987
  763MOL0     C 2926   3.256   9.332   7.732 -0.3567  0.0697 -0.6342
  763MOL0     C 2927   3.147   9.354   7.819  0.1492 -0.3082  0.2711
  763MOL0     O 2928   3.014   9.342   7.782 -0.0532 -0.0836 -0.3141
  763MOL0     C 2929   2.982   9.272   7.668 -0.1223 -0.0652  0.2620
  763MOL0     C 2930   2.832   9.269   7.640 -0.5106 -0.1804 -0.2506
  763MOL0     C 2931   2.741   9.236   7.766 -1.0261  0.7592 -0.0340
  763MOL0     C 2932   2.603   9.260   7.715 -0.0191  0.0234 -0.5366
  763MOL0     C 2933   2.499   9.220   7.816 -0.2509 -0.3183  0.2652
  763MOL0     C 2934   2.442   9.176   7.908  0.7259  0.7471 -0.0997
  763MOL0     C 2935   3.178   9.421   7.934 -0.2521  0.7116 -0.5583
  763MOL0     C 2936   3.307   9.440   7.983 -0.4441 -0.8164  0.4293
  763MOL0     C 2937   3.331   9.498   8.126  0.1273 -0.1853  0.0836
  763MOL0     H 2938   3.818   9.306   8.013  3.2970 -0.7567  2.7087
  763MOL0     H 2939   4.043   9.366   8.043 -2.6936 -1.9642  1.0963
  763MOL0     H 2940   4.259   9.449   8.011 -0.4089 -0.7014  0.3128
  763MOL0     H 2941   4.260   9.324   7.882 -0.0439  0.2038 -1.7807
  763MOL0     H 2942   4.408   9.575   7.817  1.6136 -1.2125 -2.1479
  763MOL0     H 2943   4.460   9.411   7.783 -0.7114 -2.0757  1.2910
  763MOL0     H 2944   4.545   9.371   8.012  1.0065  0.8023  0.3254
  763MOL0     H 2945   4.485   9.523   8.056  4.1269  1.4568  0.9691
  763MOL0     H 2946   4.690   9.500   7.835  1.3626  1.3034 -0.5677
  763MOL0     H 2947   4.635   9.651   7.916  2.9065  0.2353  0.9272
  763MOL0     H 2948   4.709   9.574   8.135 -0.4339  2.3264 -0.5728
  763MOL0     H 2949   4.785   9.439   8.053  1.3507  0.0401 -0.2571
  763MOL0     H 2950   4.898   9.628   7.906 -1.5098 -2.4226 -0.2479
  763MOL0     H 2951   4.828   9.733   8.020  1.5917  0.4624 -0.7913
  763MOL0     H 2952   4.936   9.568   8.207  1.2549 -1.8235 -1.0357
  763MOL0     H 2953   5.006   9.710   8.126 -2.3680  1.2223  0.4489
  763MOL0     H 2954   5.063   9.414   8.056  3.1324 -0.8946  0.7946
  763MOL0     H 2955   5.115   9.561   7.960 -0.8496  0.8564 -0.0702
  763MOL0     H 2956   5.252   9.767   8.116 -2.3668 -1.0165  0.2062
  763MOL0     H 2957   5.490   9.806   8.142 -0.2722 -0.5795 -1.8784
  763MOL0     H 2958   5.533   9.735   8.299  0.8795 -1.6915  0.2364
  763MOL0     H 2959   5.694   9.597   8.223  0.1600  2.2409  1.7393
  763MOL0     H 2960   5.654   9.612   8.054  0.8500 -1.2162  0.2901
  763MOL0     H 2961   5.735   9.857   8.205  2.5050  0.6139 -0.0540
  763MOL0     H 2962   5.735   9.845   8.028  1.3350  1.6435  0.0690
  763MOL0     H 2963   5.924   9.712   8.032  0.1456 -0.7112  0.9834
  763MOL0     H 2964   5.912   9.678   8.200  0.3810  1.3224  1.1076
  763MOL0     H 2965   6.122  10.021   8.271  1.4441  0.5040 -0.0096
  763MOL0     H 2966   6.367  10.016   8.286  0.4006 -0.0190 -0.6727
  763MOL0     H 2967   6.712   9.681   8.375 -2.3550 -1.3957 -0.5383
  763MOL0     H 2968   6.956   9.628   8.381  0.6110  0.9672 -0.5471
  763MOL0     H 2969   7.144   9.394   8.044 -0.0694  0.5683 -1.2241
  763MOL0     H 2970   7.155   9.562   8.015  0.5566  1.2698  0.7510
  763MOL0     H 2971   7.352   9.553   8.186  2.5692  0.9874 -2.1043
  763MOL0     H 2972   7.349   9.370   8.163  0.1771 -0.0861  0.6132
  763MOL0     H 2973   7.502   9.399   8.021 -0.7502 -0.1599 -0.6309
  763MOL0     H 2974   7.369   9.439   7.916  2.5491  0.8821 -1.7878
  763MOL0     H 2975   7.512   9.634   8.095 -0.7977 -3.0704  1.3414
  763MOL0     H 2976   7.386   9.684   7.983 -1.3529 -0.3996  1.6477
  763MOL0     H 2977   7.581   9.753   7.889  0.8288  0.1559  1.7722
  763MOL0     H 2978   7.536   9.624   7.784  1.4035 -0.5644  0.3442
  763MOL0     H 2979   7.730   9.565   8.012 -0.7638 -4.6702 -0.1957
  763MOL0     H 2980   7.691   9.462   7.880 -2.6792 -0.7978  0.7260
  763MOL0     H 2981   7.795   9.733   7.817 -0.7088  0.4952 -1.3632
  763MOL0     H 2982   7.781   9.585   7.720 -0.1519 -2.0060  0.5475
  763MOL0     H 2983   7.977   9.634   7.962 -1.3278  0.9898 -0.6613
  763MOL0     H 2984   7.948   9.471   7.896  1.3761  0.4670  2.3121
  763MOL0     H 2985   6.929   9.436   7.995 -1.5799  0.0023 -0.4731
  763MOL0     H 2986   6.691   9.498   8.001 -1.0210 -0.4104  0.6388
  763MOL0     H 2987   6.361   9.641   8.057 -3.1375 -1.3832 -1.1657
  763MOL0     H 2988   6.118   9.677   8.018 -1.5223  1.0098 -0.8543
  763MOL0     H 2989   4.022   9.579   7.666 -1.2869 -1.2763 -0.7267
  763MOL0     H 2990   3.771   9.536   7.655 -0.8368  3.3998  1.4554
  763MOL0     H 2991   3.468   9.343   7.706 -0.6570 -1.1244 -0.0170
  763MOL0     H 2992   3.242   9.305   7.628  1.4917  3.1527 -1.8044
  763MOL0     H 2993   3.039   9.179   7.663  0.2270  0.0595  1.4621
  763MOL0     H 2994   3.010   9.342   7.589 -1.9285 -0.7080 -1.0143
  763MOL0     H 2995   2.814   9.195   7.561  1.6164 -1.1095  0.0705
  763MOL0     H 2996   2.798   9.368   7.609  0.8416 -0.4355 -2.8262
  763MOL0     H 2997   2.774   9.276   7.863 -0.7662  1.2249 -0.3124
  763MOL0     H 2998   2.745   9.128   7.788 -0.9844  0.8275  0.2993
  763MOL0     H 2999   2.596   9.369   7.708  0.3557  0.0181 -1.0384
  763MOL0     H 3000   2.577   9.205   7.625 -1.8561  0.8705 -0.5676
  763MOL0     H 3001   2.393   9.123   7.987  0.9174 -1.6669 -1.4737
  763MOL0     H 3002   3.100   9.448   8.005 -0.0221 -2.4904  1.0926
  763MOL0     H 3003   3.257   9.460   8.197  1.6177 -1.9638  0.7355
  763MOL0     H 3004   3.426   9.468   8.170  1.3796  1.5359 -1.2745
  763MOL0     H 3005   3.335   9.607   8.117  1.0860 -0.2928 -1.2123
  764MOL0     O 3006   8.836   7.822  10.659 -0.1314 -0.2661  0.1907
  764MOL0     C 3007   8.738   7.860  10.721 -0.0002  0.2126 -0.3233
  764MOL0     O 3008   8.747   7.906  10.851  0.5120 -0.3999 -0.1828
  764MOL0     C 3009   8.866   7.896  10.911  0.2922  0.4572  0.2567
  764MOL0     C 3010   8.893   7.776  10.973 -0.3071  0.9837  0.2218
  764MOL0     C 3011   9.005   7.762  11.056 -0.2177 -0.1666  0.1632
  764MOL0     C 3012   9.091   7.872  11.080 -0.4525  0.1485 -0.4854
  764MOL0     O 3013   9.197   7.853  11.170  0.7602 -0.5120 -0.3001
  764MOL0     C 3014   9.315   7.944  11.168  0.7166 -0.1182 -0.2420
  764MOL0     C 3015   9.425   7.912  11.273 -0.5125 -0.0123 -0.4885
  764MOL0     C 3016   9.566   7.948  11.240 -0.7333 -0.2749 -0.8163
  764MOL0     C 3017   9.662   7.901  11.359 -0.4235  0.2087  0.0321
  764MOL0     C 3018   9.787   7.985  11.359 -0.4042 -0.0733  0.5079
  764MOL0     C 3019   9.883   7.962  11.241  0.8365 -0.1877  0.0865
  764MOL0     C 3020  10.024   8.016  11.278  0.2151 -0.1918  1.0564
  764MOL0     C 3021  10.029   8.169  11.301 -0.3213 -0.7792  0.5151
  764MOL0     N 3022  10.166   8.218  11.316 -0.2102 -0.2352  0.5639
  764MOL0     C 3023  10.251   8.200  11.421 -0.5342  0.3771  0.3524
  764MOL0     C 3024  10.349   8.276  11.391 -0.5465 -0.1291 -0.1001
  764MOL0     C 3025  10.477   8.287  11.470 -0.3874 -0.7629  0.0981
  764MOL0     C 3026  10.598   8.214  11.404 -0.1939 -0.1925  0.0836
  764MOL0     C 3027  10.662   8.292  11.291  0.4108 -0.4648  0.4012
  764MOL0     C 3028  10.775   8.208  11.230  1.0315  0.0047 -0.0309
  764MOL0     O 3029  10.873   8.177  11.328  0.5026 -0.5697  0.3047
  764MOL0     C 3030  10.997   8.142  11.278  0.6080  0.8744 -0.2732
  764MOL0     C 3031  11.101   8.146  11.365 -0.3428  0.0439 -0.0857
  764MOL0     C 3032  11.237   8.119  11.329 -0.5628 -0.3378  0.0761
  764MOL0     C 3033  11.262   8.078  11.198 -0.3173 -0.0723  0.1022
  764MOL0     C 3034  11.394   8.052  11.145  0.2788  0.3969 -0.7345
  764MOL0     O 3035  11.489   8.094  11.230  0.1642  0.2742  0.3358
  764MOL0     C 3036  11.622   8.052  11.222 -1.4849  0.2400  0.1979
  764MOL0     C 3037  11.693   7.966  11.137 -0.3789 -0.3194  0.0193
  764MOL0     C 3038  11.829   7.972  11.116 -1.3409  0.2022 -0.0637
  764MOL0     C 3039  11.911   8.049  11.199 -0.1123 -0.8737 -0.8056
  764MOL0     O 3040  12.052   8.060  11.191 -0.1602  0.0364  0.4878
  764MOL0     C 3041  12.128   7.970  11.104 -0.9553  0.4088 -0.0024
  764MOL0     C 3042  12.276   7.989  11.120 -0.3441 -0.5996 -0.8338
  764MOL0     C 3043  12.326   7.953  11.265 -0.3210 -0.3144 -0.5188
  764MOL0     C 3044  12.466   7.887  11.266  0.6110 -0.4290  0.3753
  764MOL0     C 3045  12.581   7.977  11.226  0.0818 -0.3934 -0.0165
  764MOL0     C 3046  12.717   7.903  11.227 -0.1007  0.4386 -0.0104
  764MOL0     C 3047  12.837   7.992  11.220  0.3480 -0.4391  0.2304
  764MOL0     C 3048  12.954   7.927  11.142  0.4912 -0.3798  0.4243
  764MOL0    Cl 3049  13.019   7.772  11.211  0.2517  0.1907 -0.5238
  764MOL0     C 3050  11.840   8.125  11.294  0.1199  0.5309 -0.0160
  764MOL0     C 3051  11.702   8.125  11.303  0.2844 -0.2705 -0.1009
  764MOL0     O 3052  11.410   7.997  11.033  0.3102  0.7072 -0.6334
  764MOL0     C 3053  11.150   8.052  11.115 -0.0030 -0.5396  1.0501
  764MOL0     C 3054  11.021   8.090  11.145  0.3826  0.1938 -0.2176
  764MOL0     N 3055  10.336   8.342  11.269 -0.7660  0.5522 -0.5864
  764MOL0     N 3056  10.219   8.307  11.224  0.2658  0.3817  0.9040
  764MOL0     C 3057   9.052   7.993  11.026 -0.1327 -0.2122 -0.4471
  764MOL0     C 3058   8.937   8.005  10.949  0.0904 -0.1060  0.4186
  764MOL0     C 3059   8.599   7.862  10.661 -0.5038  0.2729 -0.1476
  764MOL0     C 3060   8.500   7.944  10.720  0.2428 -1.0025  0.3123
  764MOL0     C 3061   8.370   7.952  10.665  0.1154 -0.4524  1.1145
  764MOL0     C 3062   8.337   7.878  10.555 -0.2389 -0.5051  0.3037
  764MOL0     O 3063   8.213   7.888  10.505  0.1747 -0.0577 -0.0325
  764MOL0     C 3064   8.177   7.798  10.395  0.4904  0.7416  0.4734
  764MOL0     C 3065   8.195   7.873  10.258 -0.7977  0.3513  0.2834
  764MOL0     C 3066   8.118   7.809  10.143  0.3830  0.2921 -0.3183
  764MOL0     C 3067   7.970   7.838  10.125 -0.2007 -0.0736 -0.3823
  764MOL0     C 3068   7.935   7.976  10.106 -0.1588  0.0177 -0.5222
  764MOL0     C 3069   7.914   8.092  10.081  0.2241 -0.7073  0.7606
  764MOL0     C 3070   8.439   7.800  10.497 -0.2064  0.2625  0.6148
  764MOL0     C 3071   8.567   7.786  10.545 -0.3683 -0.4404  0.1296
  764MOL0     C 3072   8.665   7.704  10.465  0.0929 -0.3979 -0.2950
  764MOL0     H 3073   8.823   7.695  10.955  0.4025  0.3884  0.1282
  764MOL0     H 3074   9.028   7.664  11.096 -0.6757 -2.3201 -4.2484
  764MOL0     H 3075   9.363   7.946  11.070  0.0794  0.4970 -0.5580
  764MOL0     H 3076   9.286   8.048  11.185 -1.1023 -0.5634 -0.3870
  764MOL0     H 3077   9.414   7.806  11.298 -4.1288  0.3132 -0.0929
  764MOL0     H 3078   9.402   7.964  11.366  1.4063  0.3809 -0.2015
  764MOL0     H 3079   9.570   8.057  11.240 -1.3205 -0.2153  1.3829
  764MOL0     H 3080   9.597   7.910  11.142 -1.3833  1.4110 -1.7031
  764MOL0     H 3081   9.617   7.905  11.459  0.5623 -0.6265  0.5291
  764MOL0     H 3082   9.697   7.798  11.347 -0.2786  0.3530 -0.8227
  764MOL0     H 3083   9.756   8.090  11.357  0.2650  0.1799 -2.4226
  764MOL0     H 3084   9.832   7.953  11.453 -1.0187 -1.5441  0.3169
  764MOL0     H 3085   9.887   7.855  11.219  1.1491  0.4354 -3.4540
  764MOL0     H 3086   9.849   8.010  11.149  2.7487 -1.7678 -1.5414
  764MOL0     H 3087  10.094   7.988  11.199 -2.7639 -3.1618 -0.8114
  764MOL0     H 3088  10.051   7.963  11.370 -0.0565 -0.5411  0.9357
  764MOL0     H 3089   9.980   8.220  11.218  1.6292 -0.0219 -0.2430
  764MOL0     H 3090   9.982   8.193  11.396 -3.1991 -1.7323 -0.5593
  764MOL0     H 3091  10.250   8.125  11.500 -1.9436 -0.3124 -0.2981
  764MOL0     H 3092  10.507   8.391  11.482  2.0826 -1.4733  0.5239
  764MOL0     H 3093  10.459   8.248  11.571 -2.3129  0.4756  0.2919
  764MOL0     H 3094  10.673   8.206  11.483  0.3874  0.6502 -0.3739
  764MOL0     H 3095  10.567   8.119  11.361  0.6332 -0.3765 -0.1226
  764MOL0     H 3096  10.707   8.386  11.327 -0.9310  1.6105 -2.8868
  764MOL0     H 3097  10.595   8.329  11.213  1.9235  1.6258 -0.0034
  764MOL0     H 3098  10.807   8.255  11.137 -1.2722  0.4252 -0.6622
  764MOL0     H 3099  10.734   8.111  11.199  0.3835  0.9958 -2.4074
  764MOL0     H 3100  11.069   8.164  11.467 -1.2749 -3.1551  0.3096
  764MOL0     H 3101  11.318   8.124  11.401 -0.3555  0.3619 -0.1947
  764MOL0     H 3102  11.638   7.896  11.076  0.3893  0.3409 -1.4752
  764MOL0     H 3103  11.880   7.908  11.045 -2.1063 -1.5351  0.8958
  764MOL0     H 3104  12.092   7.867  11.114  1.4284 -0.6924 -1.7948
  764MOL0     H 3105  12.116   8.001  11.000  0.4936 -2.2280 -1.0342
  764MOL0     H 3106  12.341   7.958  11.038  1.0106  0.2962 -0.1501
  764MOL0     H 3107  12.304   8.093  11.101  0.4389 -0.8596 -1.1387
  764MOL0     H 3108  12.325   8.050  11.317 -0.5192 -1.8059  2.4783
  764MOL0     H 3109  12.256   7.884  11.313 -2.4230 -2.1010 -5.5495
  764MOL0     H 3110  12.464   7.801  11.197 -0.6348 -2.2867  2.5929
  764MOL0     H 3111  12.486   7.848  11.366  1.7330 -0.2419  0.2424
  764MOL0     H 3112  12.574   8.063  11.293 -1.6111  0.2368 -0.9526
  764MOL0     H 3113  12.569   8.021  11.126  0.2307  2.5406  1.1537
  764MOL0     H 3114  12.727   7.844  11.318 -0.2299  1.7642  0.8820
  764MOL0     H 3115  12.711   7.835  11.141 -0.6984  0.6869 -0.1692
  764MOL0     H 3116  12.869   8.042  11.312  0.4133  1.5045 -0.7823
  764MOL0     H 3117  12.822   8.074  11.149  0.9385 -1.2159 -0.8315
  764MOL0     H 3118  12.923   7.906  11.039  2.2628 -3.0894  0.3747
  764MOL0     H 3119  13.036   7.999  11.133 -0.3754  0.3562 -2.8646
  764MOL0     H 3120  11.883   8.184  11.374 -0.0781 -0.8583  1.1610
  764MOL0     H 3121  11.651   8.185  11.378 -0.6727  1.3704 -1.9455
  764MOL0     H 3122  11.159   8.004  11.017 -1.5289  1.4788 -0.1592
  764MOL0     H 3123  10.938   8.086  11.075  0.2044  1.7581 -0.1320
  764MOL0     H 3124   9.119   8.075  11.049  2.7385 -2.5983  0.4573
  764MOL0     H 3125   8.917   8.099  10.899 -1.5348 -1.7941 -2.2930
  764MOL0     H 3126   8.534   8.010  10.799 -6.4290  0.8850  2.2523
  764MOL0     H 3127   8.301   8.032  10.690  1.9003  2.1007 -1.4917
  764MOL0     H 3128   8.073   7.767  10.412  1.7424 -3.2801  2.0257
  764MOL0     H 3129   8.225   7.699  10.399 -1.3009 -0.1695  0.5103
  764MOL0     H 3130   8.302   7.868  10.236 -0.6172 -3.6814  1.3489
  764MOL0     H 3131   8.154   7.974  10.270  0.2172  0.7289  0.7115
  764MOL0     H 3132   8.137   7.702  10.151 -0.3873  0.2879  2.7493
  764MOL0     H 3133   8.166   7.851  10.054 -1.4902  3.0848 -0.1561
  764MOL0     H 3134   7.939   7.788  10.032 -0.7135  0.2143 -0.3691
  764MOL0     H 3135   7.909   7.801  10.208  0.3948  0.4983  0.3236
  764MOL0     H 3136   7.906   8.197  10.060  0.6559 -1.2815 -2.7660
  764MOL0     H 3137   8.433   7.751  10.400  3.2011  1.4777 -0.3468
  764MOL0     H 3138   8.712   7.637  10.537  2.1273  1.3655  0.1126
  764MOL0     H 3139   8.607   7.665  10.381 -1.4832 -1.0585  1.0540
  764MOL0     H 3140   8.741   7.771  10.422 -1.9073  0.4580 -2.7784
  765MOL0     O 3141   0.101   1.567   6.279  0.6319 -0.1179  0.0895
  765MOL0     C 3142   0.088   1.464   6.207  0.8629 -0.6678  1.1338
  765MOL0     O 3143   0.167   1.438   6.096  0.0914  0.6948  0.0386
  765MOL0     C 3144   0.281   1.512   6.063 -0.6130  0.2089 -0.8192
  765MOL0     C 3145   0.392   1.440   6.017  0.5654 -0.4617 -0.3472
  765MOL0     C 3146   0.509   1.511   5.983 -0.7230  1.0914 -0.4058
  765MOL0     C 3147   0.524   1.647   5.981 -0.3071 -1.0176  0.1414
  765MOL0     O 3148   0.643   1.703   5.953  0.3494 -0.9149 -0.2571
  765MOL0     C 3149   0.636   1.838   5.915 -0.2826  0.3859  0.5631
  765MOL0     C 3150   0.780   1.864   5.861 -1.2878  0.0957  0.8339
  765MOL0     C 3151   0.891   1.835   5.968  1.2305  0.3286  0.5545
  765MOL0     C 3152   1.022   1.896   5.925  0.5468 -0.6183 -0.1822
  765MOL0     C 3153   1.136   1.850   6.012  0.1276  0.4662  0.3192
  765MOL0     C 3154   1.253   1.942   5.978  0.2505  0.8116 -0.0213
  765MOL0     C 3155   1.372   1.908   6.071  0.0395  0.1463  0.1122
  765MOL0     C 3156   1.483   2.005   6.051 -0.5908 -0.4185 -0.0223
  765MOL0     N 3157   1.560   1.973   5.928 -0.0486  0.3489 -0.9187
  765MOL0     C 3158   1.677   1.900   5.931  0.1829 -0.2279  0.0653
  765MOL0     C 3159   1.715   1.903   5.802 -0.2047  0.6687  0.4702
  765MOL0     C 3160   1.842   1.839   5.755 -0.0192 -0.3132 -0.9724
  765MOL0     C 3161   1.966   1.935   5.761 -0.1253  0.5007 -0.1460
  765MOL0     C 3162   2.057   1.885   5.875  0.5011 -0.3198  0.3064
  765MOL0     C 3163   2.149   1.770   5.823 -0.0615 -0.3846  0.4534
  765MOL0     O 3164   2.201   1.722   5.942 -0.4151 -0.4778 -1.1386
  765MOL0     C 3165   2.331   1.684   5.935 -0.5898  1.4080  0.4049
  765MOL0     C 3166   2.349   1.546   5.911 -0.5524  0.3547  0.1946
  765MOL0     C 3167   2.486   1.498   5.895  0.5838 -0.2491 -0.4400
  765MOL0     C 3168   2.592   1.590   5.896 -0.6856  0.7767 -0.1858
  765MOL0     C 3169   2.731   1.558   5.883 -0.1114 -0.0409  0.0620
  765MOL0     O 3170   2.751   1.424   5.854 -0.6665 -0.0119 -0.6709
  765MOL0     C 3171   2.876   1.378   5.871 -0.1553 -0.0074  0.3976
  765MOL0     C 3172   2.941   1.307   5.764 -0.1541 -0.3608  0.7294
  765MOL0     C 3173   3.061   1.245   5.799 -0.4486 -0.7935 -0.3103
  765MOL0     C 3174   3.111   1.241   5.929  0.0178  0.4787  0.1997
  765MOL0     O 3175   3.227   1.178   5.961 -0.7095 -0.0497 -0.9355
  765MOL0     C 3176   3.266   1.063   5.881 -0.3960 -0.2618 -0.0996
  765MOL0     C 3177   3.390   0.997   5.952  0.1095 -0.2461 -0.3316
  765MOL0     C 3178   3.343   0.863   6.013  0.0990 -0.3761 -0.8494
  765MOL0     C 3179   3.262   0.872   6.141 -0.8472  0.1941 -0.5645
  765MOL0     C 3180   3.118   0.912   6.124 -1.0099 -0.2979 -0.3637
  765MOL0     C 3181   3.039   0.914   6.252 -0.5341 -0.2411  0.2091
  765MOL0     C 3182   2.890   0.883   6.235  0.8797  0.5028  0.3369
  765MOL0     C 3183   2.806   0.953   6.346 -0.0057 -0.1926  0.5783
  765MOL0    Cl 3184   2.650   0.878   6.349  0.1706 -0.5336 -0.2867
  765MOL0     C 3185   3.042   1.310   6.026 -0.3207 -0.5880 -0.1466
  765MOL0     C 3186   2.920   1.375   5.999 -0.3192  0.7588  0.6192
  765MOL0     O 3187   2.825   1.634   5.910 -0.1584  0.1927  0.0295
  765MOL0     C 3188   2.567   1.720   5.913  0.0404  0.3364  0.6437
  765MOL0     C 3189   2.437   1.772   5.930  0.3188  0.1100  0.6033
  765MOL0     N 3190   1.624   1.966   5.724 -0.7832  0.2847 -0.1666
  765MOL0     N 3191   1.533   2.011   5.803 -0.7403 -0.3865 -0.1354
  765MOL0     C 3192   0.412   1.715   6.035  0.0018  0.1117  0.1251
  765MOL0     C 3193   0.293   1.657   6.072 -0.6055 -0.2860  0.0568
  765MOL0     C 3194  -0.024   1.367   6.243  0.5756  0.3710  0.4569
  765MOL0     C 3195  -0.020   1.249   6.169  0.4023 -0.0632 -0.2614
  765MOL0     C 3196  -0.117   1.145   6.192  0.0116  0.2835 -0.5115
  765MOL0     C 3197  -0.216   1.161   6.287  0.3255  0.1625  0.1450
  765MOL0     O 3198  -0.314   1.066   6.300  0.7624 -0.2839  0.4560
  765MOL0     C 3199  -0.442   1.110   6.364 -0.5319 -0.0600 -0.3656
  765MOL0     C 3200  -0.557   1.007   6.340  0.7241  0.1557 -0.1149
  765MOL0     C 3201  -0.527   0.884   6.423  0.8097 -0.2162 -0.1934
  765MOL0     C 3202  -0.635   0.763   6.421 -0.4271  0.2557 -0.3100
  765MOL0     C 3203  -0.769   0.796   6.476 -0.5366 -0.3290 -0.0799
  765MOL0     C 3204  -0.873   0.823   6.528  1.0061  0.2553  0.5067
  765MOL0     C 3205  -0.217   1.277   6.366  0.3421  0.1153 -0.3786
  765MOL0     C 3206  -0.119   1.382   6.348 -0.2502 -0.2846  1.0339
  765MOL0     C 3207  -0.111   1.506   6.439  0.1012  0.0996 -0.3323
  765MOL0     H 3208   0.388   1.332   6.007 -1.9763 -0.2693 -2.3913
  765MOL0     H 3209   0.595   1.452   5.951  0.8342  1.0933  3.2593
  765MOL0     H 3210   0.555   1.853   5.843 -0.7678  1.6960  1.3517
  765MOL0     H 3211   0.618   1.897   6.005  0.8091  0.3968  0.7937
  765MOL0     H 3212   0.783   1.970   5.836  0.0554  1.2520  5.0605
  765MOL0     H 3213   0.802   1.802   5.774  1.9525 -0.2106  1.7398
  765MOL0     H 3214   0.898   1.726   5.975 -2.1727 -0.0174  0.4924
  765MOL0     H 3215   0.864   1.871   6.068  2.5039 -1.1958  1.4816
  765MOL0     H 3216   1.049   1.865   5.824 -0.8840  1.0591 -1.1380
  765MOL0     H 3217   1.015   2.005   5.923 -1.9738 -0.5825  2.6951
  765MOL0     H 3218   1.113   1.858   6.119 -0.5819 -1.4887  0.3492
  765MOL0     H 3219   1.154   1.743   6.001  1.3834  0.6429  0.4970
  765MOL0     H 3220   1.274   1.940   5.870  0.3016  0.3593 -0.0044
  765MOL0     H 3221   1.214   2.043   5.996 -4.1028 -0.5633 -0.5790
  765MOL0     H 3222   1.403   1.807   6.046  0.1574 -0.4815  2.6192
  765MOL0     H 3223   1.346   1.924   6.176  1.5369 -1.4856  0.7696
  765MOL0     H 3224   1.439   2.105   6.055  2.8287  1.2069 -0.3582
  765MOL0     H 3225   1.556   2.001   6.132 -2.4486 -1.3802  1.7019
  765MOL0     H 3226   1.728   1.855   6.016  0.4587  0.4566  0.2690
  765MOL0     H 3227   1.848   1.744   5.810 -1.8853  0.4982  0.7746
  765MOL0     H 3228   1.817   1.811   5.653 -2.5145  0.8090 -0.7383
  765MOL0     H 3229   2.019   1.930   5.666  1.2345  1.3272  0.5241
  765MOL0     H 3230   1.928   2.036   5.778 -0.7438  0.5558 -1.7458
  765MOL0     H 3231   1.991   1.855   5.957  0.4406  0.5554  0.5844
  765MOL0     H 3232   2.119   1.964   5.919 -1.2342  0.6402  1.1330
  765MOL0     H 3233   2.226   1.815   5.760 -1.4289 -0.1747 -1.1520
  765MOL0     H 3234   2.102   1.689   5.768  0.6750 -0.5524  0.0643
  765MOL0     H 3235   2.270   1.472   5.905  0.5589 -0.7620 -1.8625
  765MOL0     H 3236   2.498   1.392   5.875 -0.0381 -0.5496  0.6823
  765MOL0     H 3237   2.891   1.302   5.668 -3.4552  2.2008  2.1387
  765MOL0     H 3238   3.101   1.182   5.720 -0.2235 -0.7374 -0.2413
  765MOL0     H 3239   3.176   1.003   5.864  0.4209 -1.9028  1.0498
  765MOL0     H 3240   3.291   1.103   5.782 -1.7120  0.1291 -0.2826
  765MOL0     H 3241   3.467   0.966   5.881 -1.5964  1.7207 -3.3049
  765MOL0     H 3242   3.429   1.059   6.033 -3.4919  0.1682  1.3216
  765MOL0     H 3243   3.291   0.810   5.933  0.2288 -0.6019 -0.7841
  765MOL0     H 3244   3.432   0.807   6.044  0.0394  0.0573  0.1518
  765MOL0     H 3245   3.309   0.936   6.217 -1.2640  0.0839 -0.2107
  765MOL0     H 3246   3.263   0.777   6.195 -2.4641  2.5547  4.2240
  765MOL0     H 3247   3.070   0.839   6.058 -0.4304 -1.5829  0.5819
  765MOL0     H 3248   3.101   1.011   6.081 -0.1926  1.1144  2.3302
  765MOL0     H 3249   3.075   0.845   6.330  1.4640  0.3285 -0.1397
  765MOL0     H 3250   3.039   1.018   6.285 -3.7787  0.5613 -1.8743
  765MOL0     H 3251   2.882   0.775   6.223  2.8143  0.4684 -1.1431
  765MOL0     H 3252   2.876   0.926   6.136  2.7764 -0.3593 -0.3584
  765MOL0     H 3253   2.851   0.950   6.445  0.9690  0.0647  0.1578
  765MOL0     H 3254   2.798   1.058   6.318 -0.4602 -0.6584 -1.1915
  765MOL0     H 3255   3.081   1.300   6.127  1.5506  0.3843 -0.7208
  765MOL0     H 3256   2.877   1.426   6.085  0.6563 -0.4019  1.8478
  765MOL0     H 3257   2.641   1.800   5.915  0.8025 -0.3732  2.2327
  765MOL0     H 3258   2.420   1.877   5.952 -1.0481  0.3461 -1.3729
  765MOL0     H 3259   0.407   1.823   6.044 -0.8969 -0.0595  2.1722
  765MOL0     H 3260   0.212   1.712   6.118  0.2562  2.4304 -1.4376
  765MOL0     H 3261   0.046   1.231   6.084  2.4158  1.2437  0.9377
  765MOL0     H 3262  -0.128   1.055   6.132 -1.0385  1.6980 -2.5767
  765MOL0     H 3263  -0.479   1.197   6.308 -0.5542 -1.0284 -1.9106
  765MOL0     H 3264  -0.437   1.135   6.470  1.4761 -2.3870  0.1626
  765MOL0     H 3265  -0.567   0.985   6.233 -0.8336 -2.0106  0.4202
  765MOL0     H 3266  -0.654   1.037   6.381 -0.5797 -1.6291 -1.7543
  765MOL0     H 3267  -0.503   0.917   6.524 -0.3548  3.4782 -0.9729
  765MOL0     H 3268  -0.439   0.829   6.386  0.0085 -1.1854 -0.7416
  765MOL0     H 3269  -0.656   0.746   6.314 -0.8209  1.6986 -0.4793
  765MOL0     H 3270  -0.583   0.674   6.456 -0.6110 -0.4433 -1.7115
  765MOL0     H 3271  -0.972   0.843   6.565  0.6363 -2.9846  1.6167
  765MOL0     H 3272  -0.293   1.284   6.443  1.4262 -1.8275  0.9542
  765MOL0     H 3273  -0.188   1.499   6.516  1.4461  1.1705  1.1820
  765MOL0     H 3274  -0.014   1.520   6.489 -0.8433 -0.6169  1.8078
  765MOL0     H 3275  -0.139   1.589   6.375  0.8134  2.1434  1.8703
  766MOL0     O 3276   2.312   3.523   8.539 -0.4254  0.7033 -0.3905
  766MOL0     C 3277   2.294   3.464   8.433 -0.3313 -0.2810 -0.1180
  766MOL0     O 3278   2.372   3.471   8.332  0.1423 -0.1894  0.0388
  766MOL0     C 3279   2.510   3.459   8.349  0.5355  0.0047 -0.2460
  766MOL0     C 3280   2.587   3.535   8.253  0.2823 -0.5752 -0.8878
  766MOL0     C 3281   2.728   3.557   8.282 -0.6190 -0.1621  0.6066
  766MOL0     C 3282   2.791   3.487   8.383  0.1080 -0.6754 -0.3131
  766MOL0     O 3283   2.929   3.497   8.400 -0.1335 -0.1984  0.5265
  766MOL0     C 3284   3.003   3.370   8.396 -0.2560  0.3739 -0.0986
  766MOL0     C 3285   3.151   3.415   8.384 -0.5735 -0.4321 -0.1914
  766MOL0     C 3286   3.240   3.300   8.359  0.1608 -0.0195  0.2251
  766MOL0     C 3287   3.379   3.334   8.358 -0.3041  0.3574  0.3632
  766MOL0     C 3288   3.474   3.226   8.294 -0.9270 -0.0307  0.5150
  766MOL0     C 3289   3.480   3.097   8.376 -0.2349  0.3336 -0.7379
  766MOL0     C 3290   3.620   3.024   8.353  0.6772 -0.0707 -0.8190
  766MOL0     C 3291   3.611   2.895   8.439  0.0557 -0.0242  0.3068
  766MOL0     N 3292   3.732   2.808   8.425 -0.5259  0.6106 -0.1420
  766MOL0     C 3293   3.756   2.721   8.316  0.9494 -0.1713 -0.4585
  766MOL0     C 3294   3.873   2.662   8.343 -0.6040 -0.2175 -0.0336
  766MOL0     C 3295   3.940   2.540   8.293  0.1217 -0.3851  0.3943
  766MOL0     C 3296   3.870   2.414   8.328  1.4095  0.1308 -0.2249
  766MOL0     C 3297   3.762   2.378   8.223  0.2123 -0.3586 -0.6339
  766MOL0     C 3298   3.676   2.266   8.289 -0.2592  0.2861  0.3219
  766MOL0     O 3299   3.586   2.200   8.198  0.7221  0.0168  0.6088
  766MOL0     C 3300   3.456   2.248   8.170  0.0172  0.3694  0.9785
  766MOL0     C 3301   3.386   2.179   8.071  0.2878 -1.0649  0.0006
  766MOL0     C 3302   3.258   2.223   8.042 -0.3472 -0.2567  0.9975
  766MOL0     C 3303   3.210   2.347   8.077  0.3673 -0.2717 -0.7574
  766MOL0     C 3304   3.064   2.382   8.034 -0.1474  0.5848  0.0777
  766MOL0     O 3305   2.999   2.479   8.100  0.4321  0.8102  0.9443
  766MOL0     C 3306   2.864   2.505   8.075 -0.7130 -0.2886 -0.0005
  766MOL0     C 3307   2.827   2.592   7.977 -0.0925  0.2039  0.9566
  766MOL0     C 3308   2.685   2.618   7.963 -0.9642 -0.7116 -0.7379
  766MOL0     C 3309   2.588   2.559   8.048 -0.3372  0.4564  0.1947
  766MOL0     O 3310   2.459   2.597   8.020  0.1565  0.2167  0.0815
  766MOL0     C 3311   2.352   2.544   8.096  0.4235  0.1402  0.1649
  766MOL0     C 3312   2.222   2.553   8.014  0.4565  0.1838  0.0908
  766MOL0     C 3313   2.093   2.535   8.092 -0.2164 -0.9931 -0.0253
  766MOL0     C 3314   1.978   2.505   8.001  0.8002 -0.7576 -0.7127
  766MOL0     C 3315   1.857   2.459   8.082  1.2062  0.2979 -0.7893
  766MOL0     C 3316   1.773   2.582   8.116  0.4819  0.6046 -0.9253
  766MOL0     C 3317   1.620   2.551   8.140 -0.2521 -0.6744 -0.4289
  766MOL0     C 3318   1.608   2.463   8.263 -0.1234 -0.1146 -0.0151
  766MOL0    Cl 3319   1.438   2.403   8.289  0.1781  0.1562 -0.2019
  766MOL0     C 3320   2.630   2.465   8.141 -0.3752  0.4951  0.5481
  766MOL0     C 3321   2.767   2.439   8.154  0.0136  0.1834 -0.6121
  766MOL0     O 3322   3.018   2.314   7.944  0.0013 -0.2393  0.7091
  766MOL0     C 3323   3.285   2.419   8.173 -0.8650 -0.2980 -0.2444
  766MOL0     C 3324   3.413   2.373   8.216 -0.1603 -0.8289  0.8433
  766MOL0     N 3325   3.923   2.728   8.453 -0.2274 -0.3129  0.0966
  766MOL0     N 3326   3.838   2.806   8.507  0.5684 -0.1267  0.1676
  766MOL0     C 3327   2.717   3.403   8.461 -0.3331  0.5041 -0.3144
  766MOL0     C 3328   2.575   3.398   8.451 -0.4389 -0.7564  0.4277
  766MOL0     C 3329   2.158   3.405   8.403  0.1279  0.0211 -0.4097
  766MOL0     C 3330   2.137   3.329   8.286 -0.6498 -0.1826  0.5841
  766MOL0     C 3331   2.006   3.298   8.247  0.2334  0.2710  0.6691
  766MOL0     C 3332   1.891   3.319   8.324 -0.1816  0.3389 -0.7471
  766MOL0     O 3333   1.762   3.273   8.303  0.1170  0.1729 -0.1090
  766MOL0     C 3334   1.729   3.209   8.177  0.1433  0.0619 -0.2151
  766MOL0     C 3335   1.570   3.194   8.157  0.3409 -0.9695  0.2472
  766MOL0     C 3336   1.485   3.323   8.095 -1.0564 -0.5950 -0.8937
  766MOL0     C 3337   1.342   3.282   8.065 -0.4367  0.3164 -0.0358
  766MOL0     C 3338   1.270   3.205   8.165 -0.2737 -0.1803  0.3696
  766MOL0     C 3339   1.221   3.112   8.237  0.8648 -0.3040  0.1393
  766MOL0     C 3340   1.917   3.375   8.452  0.2643 -0.0940 -0.1085
  766MOL0     C 3341   2.042   3.428   8.487 -0.6652  0.6489 -0.4436
  766MOL0     C 3342   2.055   3.490   8.619  0.9062  0.4127 -0.2757
  766MOL0     H 3343   2.531   3.584   8.174  1.9775  1.5899 -0.8287
  766MOL0     H 3344   2.791   3.616   8.217 -1.0316 -1.6712 -1.2246
  766MOL0     H 3345   2.982   3.302   8.479 -0.6524 -0.1000 -0.5756
  766MOL0     H 3346   2.991   3.320   8.299 -1.1365 -1.3341  0.8409
  766MOL0     H 3347   3.168   3.466   8.479 -0.5012  1.5195 -1.2061
  766MOL0     H 3348   3.170   3.484   8.302 -2.9362 -0.8559 -1.1720
  766MOL0     H 3349   3.212   3.272   8.257  0.9691 -0.6266  0.1587
  766MOL0     H 3350   3.229   3.210   8.421  1.9869 -0.7555 -0.4325
  766MOL0     H 3351   3.398   3.428   8.306 -2.0243 -0.4384 -1.8392
  766MOL0     H 3352   3.411   3.346   8.462 -1.0379 -0.5434  0.7075
  766MOL0     H 3353   3.446   3.203   8.191  0.5092 -0.3226  0.1722
  766MOL0     H 3354   3.576   3.266   8.288 -0.8895  0.1135  1.7815
  766MOL0     H 3355   3.468   3.123   8.482 -0.3187 -0.2735 -0.5968
  766MOL0     H 3356   3.399   3.033   8.339 -1.6810  1.3410  0.5599
  766MOL0     H 3357   3.707   3.075   8.396  2.2974 -2.5504 -0.9422
  766MOL0     H 3358   3.649   3.008   8.248  0.6568  2.1110 -1.2066
  766MOL0     H 3359   3.609   2.922   8.544  0.5594  0.8151  0.1084
  766MOL0     H 3360   3.524   2.835   8.409  0.8661 -2.3034  2.1457
  766MOL0     H 3361   3.688   2.712   8.232 -0.6134  0.5591  0.6902
  766MOL0     H 3362   3.959   2.550   8.186  0.5234  1.5854  0.6241
  766MOL0     H 3363   4.036   2.532   8.345 -1.1202 -0.7945  2.7393
  766MOL0     H 3364   3.939   2.330   8.341  0.3251 -0.5751  1.3489
  766MOL0     H 3365   3.827   2.430   8.428  3.5073  1.1848  0.5610
  766MOL0     H 3366   3.819   2.342   8.137 -0.9322 -0.8681 -1.1967
  766MOL0     H 3367   3.700   2.465   8.199 -0.4401 -0.9742 -1.1840
  766MOL0     H 3368   3.620   2.289   8.380 -1.4642 -1.8591  0.2055
  766MOL0     H 3369   3.740   2.185   8.324 -1.6474 -0.3254  1.5697
  766MOL0     H 3370   3.427   2.088   8.027  2.5889 -1.0695  1.9532
  766MOL0     H 3371   3.210   2.147   7.981  3.6016 -3.1244  1.0963
  766MOL0     H 3372   2.900   2.633   7.908  0.8477  0.0464  1.8377
  766MOL0     H 3373   2.651   2.683   7.883 -3.2190 -2.3099 -1.2073
  766MOL0     H 3374   2.367   2.439   8.122 -0.9003  0.1297  0.9960
  766MOL0     H 3375   2.351   2.597   8.192  4.3867 -2.2075  1.7378
  766MOL0     H 3376   2.216   2.651   7.967 -1.2750 -0.8338 -1.9772
  766MOL0     H 3377   2.224   2.490   7.925  1.2059  1.4734 -0.8365
  766MOL0     H 3378   2.109   2.457   8.167 -0.7338 -0.6133  0.4883
  766MOL0     H 3379   2.081   2.630   8.146  2.2420  0.3374 -1.6205
  766MOL0     H 3380   2.006   2.423   7.933  3.2279 -0.0448 -0.6602
  766MOL0     H 3381   1.962   2.589   7.933 -1.0844 -0.8186 -0.4154
  766MOL0     H 3382   1.887   2.398   8.168 -1.6777  0.4977  0.4895
  766MOL0     H 3383   1.787   2.396   8.026  1.0344  0.2110 -0.4744
  766MOL0     H 3384   1.818   2.631   8.203 -1.5969 -2.3422  2.0620
  766MOL0     H 3385   1.770   2.652   8.032 -0.0618  4.5745  2.0715
  766MOL0     H 3386   1.584   2.502   8.049  0.7344 -1.6998 -0.2899
  766MOL0     H 3387   1.566   2.645   8.155  0.9260  0.6357 -3.5445
  766MOL0     H 3388   1.664   2.369   8.258 -0.9416 -0.5489 -1.5771
  766MOL0     H 3389   1.633   2.530   8.346 -0.2976  2.7141 -2.1016
  766MOL0     H 3390   2.565   2.410   8.209 -0.5338 -1.1547 -0.8575
  766MOL0     H 3391   2.813   2.386   8.237  0.3963 -0.0101 -0.9448
  766MOL0     H 3392   3.241   2.510   8.211  0.8166  1.5171 -2.3320
  766MOL0     H 3393   3.474   2.435   8.281 -0.1558  0.9036 -0.7253
  766MOL0     H 3394   2.781   3.365   8.540  2.1400  1.4839 -1.7398
  766MOL0     H 3395   2.515   3.357   8.532 -0.3841  0.8959  1.3506
  766MOL0     H 3396   2.217   3.307   8.216  2.1942  1.1225  3.1540
  766MOL0     H 3397   1.994   3.242   8.155  0.6452 -0.7802  1.2384
  766MOL0     H 3398   1.766   3.106   8.185  0.8969  0.4196  1.3606
  766MOL0     H 3399   1.776   3.251   8.088  1.2913 -0.5987  0.0599
  766MOL0     H 3400   1.524   3.155   8.249 -1.2933 -0.4651 -0.3259
  766MOL0     H 3401   1.573   3.121   8.076 -0.8228 -0.3607 -0.3566
  766MOL0     H 3402   1.530   3.362   8.003  1.4344 -0.9569  0.1020
  766MOL0     H 3403   1.492   3.400   8.172  0.3580 -0.4357 -1.1668
  766MOL0     H 3404   1.285   3.373   8.044 -1.0290 -0.4787 -2.1727
  766MOL0     H 3405   1.338   3.226   7.971 -1.9987 -0.9833  0.7554
  766MOL0     H 3406   1.174   3.035   8.295  1.0707 -0.5165  0.0261
  766MOL0     H 3407   1.821   3.373   8.503 -0.0070  0.1714 -0.6096
  766MOL0     H 3408   2.076   3.597   8.607  0.6305  0.4033 -0.8878
  766MOL0     H 3409   1.962   3.488   8.678  0.4625 -1.8443 -0.9429
  766MOL0     H 3410   2.134   3.441   8.676  1.7862  0.5192 -1.3689
  767MOL0     O 3411   9.823   3.615   2.963 -0.7471  0.1013 -0.0395
  767MOL0     C 3412   9.726   3.663   2.903 -0.2219  0.1030 -0.8296
  767MOL0     O 3413   9.731   3.743   2.789 -0.1054  1.0816 -0.2164
  767MOL0     C 3414   9.856   3.764   2.730 -0.1051 -0.6250 -0.2876
  767MOL0     C 3415   9.888   3.892   2.673 -0.1360  1.4228  0.4248
  767MOL0     C 3416  10.004   3.902   2.596 -1.0437  0.2055 -0.4708
  767MOL0     C 3417  10.098   3.801   2.579 -0.0108 -0.0548 -0.1155
  767MOL0     O 3418  10.223   3.810   2.512 -0.2410 -0.9917  0.2009
  767MOL0     C 3419  10.249   3.937   2.442  0.6449  0.1293  0.1628
  767MOL0     C 3420  10.395   3.923   2.378 -0.2459  0.2700 -1.4906
  767MOL0     C 3421  10.495   3.900   2.492  0.5926  0.0494 -0.4620
  767MOL0     C 3422  10.645   3.879   2.445 -0.6343 -0.9111  0.6142
  767MOL0     C 3423  10.664   3.763   2.348 -0.0878 -0.5396  0.1799
  767MOL0     C 3424  10.811   3.733   2.304  0.4897  0.0017  0.1850
  767MOL0     C 3425  10.918   3.733   2.418  0.2769 -0.6174  0.3385
  767MOL0     C 3426  10.888   3.611   2.511 -0.2463 -0.2452 -0.1799
  767MOL0     N 3427  10.991   3.627   2.622 -0.0004 -0.1138  0.4934
  767MOL0     C 3428  11.116   3.583   2.598 -0.1015  0.2575 -0.9957
  767MOL0     C 3429  11.172   3.605   2.723 -0.6344 -0.6437  0.2843
  767MOL0     C 3430  11.314   3.563   2.754 -0.3695  0.5635  0.5860
  767MOL0     C 3431  11.422   3.664   2.719 -1.0241 -0.2277  0.2525
  767MOL0     C 3432  11.424   3.680   2.563 -0.3454  0.1231  0.1293
  767MOL0     C 3433  11.544   3.763   2.513 -0.1304 -0.6454  0.4329
  767MOL0     O 3434  11.666   3.703   2.557  0.2818 -0.2082 -0.7033
  767MOL0     C 3435  11.719   3.603   2.479 -0.1571 -0.0338  0.6631
  767MOL0     C 3436  11.657   3.539   2.372 -0.4703 -0.4629  0.6074
  767MOL0     C 3437  11.726   3.452   2.294 -0.2671  0.2006 -0.1839
  767MOL0     C 3438  11.866   3.427   2.314 -0.4111  0.1178 -0.5017
  767MOL0     C 3439  11.934   3.335   2.225  0.1412  0.2586 -0.0584
  767MOL0     O 3440  12.066   3.306   2.249  0.0057 -0.4963 -0.5913
  767MOL0     C 3441  12.147   3.237   2.161  0.5108  0.7509 -0.2184
  767MOL0     C 3442  12.245   3.165   2.215 -0.2050  0.2352 -0.7432
  767MOL0     C 3443  12.350   3.103   2.138 -0.8611 -0.0952 -0.0366
  767MOL0     C 3444  12.330   3.109   2.000  0.6713  0.1899  0.0423
  767MOL0     O 3445  12.424   3.060   1.904  0.0586  0.0182 -0.1689
  767MOL0     C 3446  12.545   2.998   1.953  0.2041  0.5926 -0.4361
  767MOL0     C 3447  12.637   2.942   1.844  0.3976 -0.7859  0.6988
  767MOL0     C 3448  12.581   2.816   1.784  0.2578  0.1040  0.9425
  767MOL0     C 3449  12.614   2.806   1.631 -0.4981 -0.5381  1.2301
  767MOL0     C 3450  12.765   2.825   1.590 -0.0635 -0.4305 -0.4470
  767MOL0     C 3451  12.790   2.800   1.444 -0.2771  0.2941  0.6147
  767MOL0     C 3452  12.938   2.816   1.398 -0.6463 -0.3087  0.3633
  767MOL0     C 3453  12.972   2.958   1.361  0.0677  0.2547 -0.0092
  767MOL0    Cl 3454  13.137   2.973   1.287  0.4098 -0.3764 -0.9386
  767MOL0     C 3455  12.218   3.178   1.942 -0.7850  0.6302  0.1679
  767MOL0     C 3456  12.135   3.247   2.022 -0.3350 -0.0423  0.4456
  767MOL0     O 3457  11.861   3.282   2.142 -0.0780  0.5610  0.4035
  767MOL0     C 3458  11.926   3.477   2.428 -0.1158  0.3925 -0.1091
  767MOL0     C 3459  11.851   3.566   2.510  0.7748 -0.2700  0.0696
  767MOL0     N 3460  11.088   3.670   2.812 -0.2951  0.0862 -0.2059
  767MOL0     N 3461  10.973   3.682   2.747 -0.1433  0.0577  0.0124
  767MOL0     C 3462  10.066   3.674   2.634  0.9236  0.4748 -0.4971
  767MOL0     C 3463   9.952   3.655   2.711  0.5994  0.5241  0.0213
  767MOL0     C 3464   9.601   3.621   2.951  0.6006 -0.4437 -0.0163
  767MOL0     C 3465   9.536   3.522   2.879 -0.0328 -0.3277  0.2865
  767MOL0     C 3466   9.419   3.472   2.927  0.8185  0.9102 -0.2905
  767MOL0     C 3467   9.356   3.521   3.043 -0.2257 -0.2544  0.0664
  767MOL0     O 3468   9.223   3.496   3.084 -0.4355  0.1225 -0.2746
  767MOL0     C 3469   9.135   3.444   2.992 -0.1502 -0.6241  0.1911
  767MOL0     C 3470   8.992   3.472   3.034  1.0349 -0.2546  0.1668
  767MOL0     C 3471   8.888   3.401   2.953 -0.2015 -0.8238  1.2255
  767MOL0     C 3472   8.746   3.418   2.995 -0.0279 -0.9473  0.3078
  767MOL0     C 3473   8.705   3.302   3.075 -0.0028  1.0339  0.7206
  767MOL0     C 3474   8.677   3.197   3.136  0.4211  0.6139  0.2110
  767MOL0     C 3475   9.421   3.607   3.119 -0.7910 -0.5128  0.1053
  767MOL0     C 3476   9.546   3.659   3.078  0.0429 -0.5047 -0.0459
  767MOL0     C 3477   9.617   3.757   3.167 -0.1782 -1.2549 -0.4613
  767MOL0     H 3478   9.807   3.965   2.673  0.0740  1.7001 -1.3071
  767MOL0     H 3479  10.021   3.994   2.540  3.0410 -1.7427 -2.9469
  767MOL0     H 3480  10.181   3.950   2.358  1.0361 -0.7524 -0.3100
  767MOL0     H 3481  10.246   4.025   2.507 -0.7838 -1.1050  1.8966
  767MOL0     H 3482  10.437   4.011   2.328  3.1264  1.1989  2.4021
  767MOL0     H 3483  10.412   3.835   2.316 -0.4930 -0.2608 -0.8220
  767MOL0     H 3484  10.475   3.807   2.546 -1.6621 -0.7785 -2.5171
  767MOL0     H 3485  10.502   3.981   2.564  0.4457 -0.4302  0.1021
  767MOL0     H 3486  10.681   3.972   2.400 -0.2654 -1.9531 -1.3859
  767MOL0     H 3487  10.713   3.874   2.531 -2.5587  2.6883  2.5854
  767MOL0     H 3488  10.606   3.680   2.389 -2.3400  0.7216 -0.2404
  767MOL0     H 3489  10.612   3.792   2.256  0.5887  1.1599  0.2893
  767MOL0     H 3490  10.818   3.640   2.247 -3.8213 -1.2104  1.2623
  767MOL0     H 3491  10.839   3.815   2.237  0.8802 -0.1506  0.1644
  767MOL0     H 3492  10.903   3.830   2.467 -1.7355  0.3681 -1.9955
  767MOL0     H 3493  11.018   3.722   2.377  0.1376 -0.1826 -0.1213
  767MOL0     H 3494  10.794   3.606   2.566  0.5603 -2.6340  1.1478
  767MOL0     H 3495  10.905   3.518   2.456 -0.5667 -1.9568  2.4175
  767MOL0     H 3496  11.160   3.543   2.507 -0.7390 -1.1167 -0.7179
  767MOL0     H 3497  11.327   3.533   2.858  2.1619 -1.6084 -0.2491
  767MOL0     H 3498  11.328   3.471   2.697 -0.4429 -0.5257  2.2648
  767MOL0     H 3499  11.397   3.760   2.766 -0.9076 -0.4867  0.8634
  767MOL0     H 3500  11.519   3.624   2.750 -0.7845 -0.4270 -0.7254
  767MOL0     H 3501  11.330   3.731   2.541  0.6561  2.4709  0.9036
  767MOL0     H 3502  11.427   3.576   2.530 -0.4966 -0.3263  1.4751
  767MOL0     H 3503  11.530   3.870   2.535 -3.4196 -1.1395  1.1985
  767MOL0     H 3504  11.551   3.758   2.404 -0.7513 -1.3006  0.4237
  767MOL0     H 3505  11.552   3.551   2.344 -0.1728  3.5456  0.6505
  767MOL0     H 3506  11.673   3.410   2.209 -0.0301  0.1566 -0.3114
  767MOL0     H 3507  12.255   3.166   2.323 -1.1096 -1.4725 -0.6078
  767MOL0     H 3508  12.431   3.058   2.194 -2.1793 -2.8238 -0.1479
  767MOL0     H 3509  12.592   3.071   2.020  2.1598 -2.2860  1.5671
  767MOL0     H 3510  12.526   2.917   2.024 -1.5210  1.7483  0.5098
  767MOL0     H 3511  12.658   3.020   1.771 -0.3232 -1.1870  0.0498
  767MOL0     H 3512  12.732   2.916   1.893  1.1514  1.0575  0.3011
  767MOL0     H 3513  12.614   2.728   1.841  0.9832 -2.2163 -2.7024
  767MOL0     H 3514  12.472   2.807   1.790  0.3087  0.4177  2.8832
  767MOL0     H 3515  12.552   2.885   1.588 -0.6461  0.2394  2.7813
  767MOL0     H 3516  12.564   2.716   1.594 -1.9141  0.3928  0.8096
  767MOL0     H 3517  12.827   2.755   1.647 -0.1128  1.1888  1.7124
  767MOL0     H 3518  12.801   2.927   1.603 -0.0898 -0.1291 -2.5013
  767MOL0     H 3519  12.769   2.693   1.432  0.5343  0.0686  1.1066
  767MOL0     H 3520  12.711   2.853   1.390  0.9081  0.3963 -1.0845
  767MOL0     H 3521  12.971   2.767   1.306  4.8352  0.0715  1.7686
  767MOL0     H 3522  13.007   2.783   1.475  0.4900 -0.3287 -0.6291
  767MOL0     H 3523  12.906   2.994   1.281  0.1347 -1.9642 -1.1458
  767MOL0     H 3524  12.955   3.029   1.442 -0.1126  3.3151 -2.4888
  767MOL0     H 3525  12.208   3.183   1.834 -3.1056 -0.3901  0.2748
  767MOL0     H 3526  12.053   3.304   1.979  0.1915  1.5699  1.4980
  767MOL0     H 3527  12.032   3.468   2.447 -0.2925 -1.9619 -0.0142
  767MOL0     H 3528  11.905   3.614   2.591 -0.6841  1.2390  0.2192
  767MOL0     H 3529  10.126   3.587   2.607 -0.6595 -0.4270 -1.2774
  767MOL0     H 3530   9.927   3.551   2.726  0.7889  0.7551  2.2957
  767MOL0     H 3531   9.583   3.490   2.787  0.4175 -0.9453  0.7243
  767MOL0     H 3532   9.358   3.400   2.875  3.6072 -0.2281 -2.2244
  767MOL0     H 3533   9.151   3.336   2.992 -1.7229 -0.8893 -0.5113
  767MOL0     H 3534   9.154   3.481   2.891  0.3806 -0.7088  0.2593
  767MOL0     H 3535   8.958   3.576   3.028 -3.8319 -1.6429 -3.5263
  767MOL0     H 3536   8.986   3.454   3.141 -1.7708  0.3713  0.2045
  767MOL0     H 3537   8.923   3.297   2.951  0.7958 -0.5332 -2.3063
  767MOL0     H 3538   8.896   3.444   2.853  3.4809 -1.3167  1.1699
  767MOL0     H 3539   8.743   3.511   3.052  2.5420 -0.7330  0.2111
  767MOL0     H 3540   8.686   3.425   2.904 -0.0488 -0.3142  0.3662
  767MOL0     H 3541   8.645   3.108   3.186  1.2158 -0.1562 -0.6114
  767MOL0     H 3542   9.385   3.635   3.218  1.5652 -0.2510  0.9511
  767MOL0     H 3543   9.549   3.815   3.230  1.5793  0.8923 -0.4035
  767MOL0     H 3544   9.691   3.708   3.231  0.9248 -0.1690 -0.8627
  767MOL0     H 3545   9.674   3.832   3.112 -0.6586  2.2579  3.3442
  768MOL0     O 3546   3.178   9.166   5.462  0.1352  0.2146 -0.0137
  768MOL0     C 3547   3.213   9.256   5.387 -0.3622 -0.6633  0.4773
  768MOL0     O 3548   3.147   9.371   5.367  0.5614 -0.0390 -0.9285
  768MOL0     C 3549   3.048   9.409   5.456  0.2224 -0.0850  0.2370
  768MOL0     C 3550   2.915   9.408   5.419  0.3885 -0.2515  0.2321
  768MOL0     C 3551   2.809   9.449   5.506  0.2057 -0.2853  0.3558
  768MOL0     C 3552   2.831   9.485   5.636 -1.2381 -0.5591  0.2565
  768MOL0     O 3553   2.722   9.526   5.703 -0.0099  0.1589  0.8885
  768MOL0     C 3554   2.721   9.506   5.842  0.5611 -0.0651 -0.3144
  768MOL0     C 3555   2.605   9.583   5.914 -0.6778  0.3375  0.7281
  768MOL0     C 3556   2.464   9.537   5.869  0.9287 -0.3635 -0.5333
  768MOL0     C 3557   2.360   9.636   5.938 -0.2693 -0.0120  0.2028
  768MOL0     C 3558   2.245   9.635   5.836 -0.5252 -0.4002  0.0315
  768MOL0     C 3559   2.134   9.723   5.898 -0.1207 -0.0195  0.4871
  768MOL0     C 3560   2.033   9.775   5.805  0.0926  0.0948  0.2676
  768MOL0     C 3561   1.942   9.663   5.754  0.2459 -1.1861 -1.1013
  768MOL0     N 3562   1.909   9.671   5.616  0.7154 -0.4358 -0.3310
  768MOL0     C 3563   1.999   9.642   5.511 -0.2855 -0.2825 -0.3114
  768MOL0     C 3564   1.927   9.661   5.402 -0.0928 -0.2949  0.3277
  768MOL0     C 3565   1.981   9.665   5.266  0.3611 -0.0551 -0.2270
  768MOL0     C 3566   1.921   9.552   5.187 -0.6850 -0.3298  0.2080
  768MOL0     C 3567   1.950   9.414   5.252  1.5475 -1.2280  0.9132
  768MOL0     C 3568   2.094   9.378   5.270 -0.5258  0.1652  1.1245
  768MOL0     O 3569   2.116   9.317   5.395 -0.8526 -0.2260 -0.2271
  768MOL0     C 3570   2.251   9.300   5.427 -0.1964 -0.6983 -0.2370
  768MOL0     C 3571   2.338   9.229   5.341  0.2521 -1.1403  0.3318
  768MOL0     C 3572   2.473   9.195   5.370  0.3869 -0.1210  0.9474
  768MOL0     C 3573   2.519   9.224   5.496  0.7321  0.0096 -0.1150
  768MOL0     C 3574   2.650   9.169   5.536 -0.7595 -0.7479  0.3439
  768MOL0     O 3575   2.666   9.143   5.667  0.2249 -0.3969 -0.5762
  768MOL0     C 3576   2.790   9.130   5.727  1.2745 -0.8159  0.0886
  768MOL0     C 3577   2.779   9.111   5.871 -0.5025 -0.0199 -0.5838
  768MOL0     C 3578   2.894   9.088   5.945  0.8846  0.5882 -0.0430
  768MOL0     C 3579   3.017   9.092   5.885  0.3392 -0.1466  0.0023
  768MOL0     O 3580   3.134   9.059   5.960  0.1477  0.6776  0.1617
  768MOL0     C 3581   3.136   9.098   6.099  0.1737  0.2084  0.6066
  768MOL0     C 3582   3.281   9.095   6.162  0.4914 -0.3504 -0.4786
  768MOL0     C 3583   3.349   8.955   6.170 -0.3217  0.8379  0.7556
  768MOL0     C 3584   3.491   8.970   6.215  0.2597  0.4108 -0.6982
  768MOL0     C 3585   3.584   8.979   6.093  0.0005  0.4424 -0.0041
  768MOL0     C 3586   3.733   9.000   6.131 -0.2788 -0.4278 -0.6546
  768MOL0     C 3587   3.799   8.869   6.180  0.3882  0.1033  0.4520
  768MOL0     C 3588   3.949   8.877   6.176  0.4204  0.1180 -0.4369
  768MOL0    Cl 3589   4.014   8.713   6.178  0.5849 -0.2235  0.4786
  768MOL0     C 3590   3.030   9.130   5.754 -0.3437 -0.1831 -0.5591
  768MOL0     C 3591   2.913   9.145   5.676 -0.4996 -0.2801  0.2851
  768MOL0     O 3592   2.727   9.143   5.445 -0.5012 -0.0361 -0.8902
  768MOL0     C 3593   2.431   9.286   5.588  0.6077  0.0661 -0.3719
  768MOL0     C 3594   2.303   9.317   5.558  0.5182 -0.0045 -0.1690
  768MOL0     N 3595   1.799   9.692   5.435 -0.1946  0.2255 -0.9852
  768MOL0     N 3596   1.791   9.711   5.561  0.6694 -0.3505 -0.5139
  768MOL0     C 3597   2.971   9.482   5.672  0.4074 -0.4759 -0.2775
  768MOL0     C 3598   3.078   9.445   5.588 -0.7519 -0.5296  0.2103
  768MOL0     C 3599   3.340   9.238   5.306 -0.1608  0.2837 -0.7156
  768MOL0     C 3600   3.362   9.318   5.193  0.1510 -0.1559 -0.3884
  768MOL0     C 3601   3.473   9.300   5.110 -0.8756 -0.3276 -0.2784
  768MOL0     C 3602   3.559   9.187   5.128 -0.1284  0.2221  0.2375
  768MOL0     O 3603   3.662   9.153   5.034 -0.3018 -0.3778  0.4155
  768MOL0     C 3604   3.661   9.193   4.900  0.1014  0.4558  0.1910
  768MOL0     C 3605   3.747   9.320   4.889 -0.7621 -0.2260 -0.3789
  768MOL0     C 3606   3.713   9.397   4.761  0.2994  0.9556 -0.7999
  768MOL0     C 3607   3.767   9.542   4.771 -0.0025  0.3474  0.4468
  768MOL0     C 3608   3.910   9.551   4.799  0.5441  0.3605 -0.3793
  768MOL0     C 3609   4.030   9.565   4.809 -0.2043  0.1272 -0.8931
  768MOL0     C 3610   3.536   9.111   5.235 -0.4630  0.6569 -0.7310
  768MOL0     C 3611   3.437   9.128   5.324  1.3257  0.7454  1.0080
  768MOL0     C 3612   3.432   9.029   5.437  0.1705 -0.7037 -0.4234
  768MOL0     H 3613   2.880   9.373   5.323 -0.1556 -2.1058  1.0538
  768MOL0     H 3614   2.705   9.446   5.473  0.2690  0.9994 -0.0050
  768MOL0     H 3615   2.707   9.402   5.872 -4.4370  1.0368  2.2500
  768MOL0     H 3616   2.814   9.551   5.879  0.4110  0.8883 -1.0353
  768MOL0     H 3617   2.621   9.688   5.886 -0.2059  0.2925  0.8116
  768MOL0     H 3618   2.601   9.558   6.020  0.9028  0.1844  0.7724
  768MOL0     H 3619   2.448   9.433   5.900 -1.8233  0.4547  1.1783
  768MOL0     H 3620   2.463   9.540   5.760 -0.5685  1.1753 -0.5201
  768MOL0     H 3621   2.335   9.600   6.038  0.7142 -0.4858  0.2901
  768MOL0     H 3622   2.399   9.736   5.959  1.2064  0.0131 -2.2376
  768MOL0     H 3623   2.279   9.678   5.741 -0.1698 -1.5845 -0.3988
  768MOL0     H 3624   2.212   9.539   5.795 -1.0245 -0.8976  1.5239
  768MOL0     H 3625   2.081   9.675   5.981  0.1186  2.0046  1.9037
  768MOL0     H 3626   2.184   9.812   5.939  1.2759  0.2395 -1.6228
  768MOL0     H 3627   2.093   9.811   5.721 -1.0302 -0.2593 -0.7157
  768MOL0     H 3628   1.975   9.860   5.843  0.5791  1.9326 -2.7337
  768MOL0     H 3629   1.984   9.562   5.761 -0.8615 -1.6745 -1.2266
  768MOL0     H 3630   1.845   9.662   5.805  0.0179 -0.0475 -1.4870
  768MOL0     H 3631   2.107   9.648   5.507 -0.4080  3.1729 -1.7885
  768MOL0     H 3632   1.954   9.756   5.211  1.6035  0.1342 -0.5710
  768MOL0     H 3633   2.090   9.653   5.266  0.1695 -2.1733 -1.5232
  768MOL0     H 3634   1.812   9.564   5.192 -0.7366 -0.4782 -0.4897
  768MOL0     H 3635   1.949   9.562   5.082  1.2936  3.5143  0.8936
  768MOL0     H 3636   1.891   9.344   5.192 -2.2213  2.6713 -0.4368
  768MOL0     H 3637   1.897   9.420   5.348 -1.0832  1.8522 -0.5713
  768MOL0     H 3638   2.163   9.464   5.265 -0.4140  0.1590  2.1943
  768MOL0     H 3639   2.118   9.312   5.187 -0.9990  1.5963 -0.2085
  768MOL0     H 3640   2.307   9.196   5.243  2.5022  1.4001 -1.3700
  768MOL0     H 3641   2.527   9.145   5.291 -0.3934 -1.5348  1.2651
  768MOL0     H 3642   2.677   9.121   5.904 -0.5725  2.2344 -1.2893
  768MOL0     H 3643   2.882   9.063   6.050  0.7127  3.7159  0.7980
  768MOL0     H 3644   3.107   9.204   6.104 -1.1951 -0.2117  1.9460
  768MOL0     H 3645   3.075   9.033   6.161  1.0923 -0.5274  0.7585
  768MOL0     H 3646   3.344   9.155   6.096 -0.5789 -1.8541 -3.0351
  768MOL0     H 3647   3.281   9.150   6.256  0.2453 -0.3296 -0.4899
  768MOL0     H 3648   3.289   8.900   6.243  1.5653 -0.3099  1.5348
  768MOL0     H 3649   3.343   8.887   6.085 -1.8851 -0.1748  1.6390
  768MOL0     H 3650   3.526   8.896   6.289  3.0091  1.3172 -0.9674
  768MOL0     H 3651   3.498   9.062   6.273 -0.6620 -1.1961  2.2058
  768MOL0     H 3652   3.546   9.067   6.040  0.4344 -0.3349 -1.6701
  768MOL0     H 3653   3.571   8.893   6.026  1.1102  0.9378 -0.8708
  768MOL0     H 3654   3.778   9.033   6.037 -0.4231  1.2136 -0.1723
  768MOL0     H 3655   3.745   9.077   6.207 -0.7388  0.2042 -1.2064
  768MOL0     H 3656   3.776   8.793   6.104  2.2567  0.3480 -0.4382
  768MOL0     H 3657   3.756   8.836   6.274 -2.1733  1.0797 -0.2965
  768MOL0     H 3658   3.992   8.922   6.086  1.3403  0.3161  0.0919
  768MOL0     H 3659   3.986   8.933   6.262 -4.2776  0.4669  1.6729
  768MOL0     H 3660   3.129   9.134   5.710 -0.5161  2.3066 -0.8723
  768MOL0     H 3661   2.927   9.178   5.574 -0.0565  0.6482  0.6329
  768MOL0     H 3662   2.462   9.313   5.689 -1.3556  1.2315 -0.0332
  768MOL0     H 3663   2.247   9.379   5.627  1.4669  0.0452  0.5833
  768MOL0     H 3664   2.987   9.501   5.778 -1.5184 -1.0508  0.1500
  768MOL0     H 3665   3.179   9.432   5.625 -0.5851  1.2097  0.4187
  768MOL0     H 3666   3.290   9.396   5.171  0.7693  0.1020 -1.6371
  768MOL0     H 3667   3.477   9.375   5.032 -0.0675 -0.7746 -0.6812
  768MOL0     H 3668   3.560   9.211   4.865  0.2500 -1.0798 -1.1629
  768MOL0     H 3669   3.705   9.109   4.845  1.3703 -0.3018  2.2055
  768MOL0     H 3670   3.856   9.309   4.892 -0.4727  2.2282  0.1518
  768MOL0     H 3671   3.729   9.384   4.976  1.0250  1.6515 -1.2993
  768MOL0     H 3672   3.604   9.409   4.759 -0.0722 -1.5621  0.0411
  768MOL0     H 3673   3.731   9.354   4.662 -1.9558 -0.6256 -0.6009
  768MOL0     H 3674   3.750   9.601   4.681  4.1098 -0.4398 -1.0941
  768MOL0     H 3675   3.713   9.599   4.847 -3.5299 -0.7490 -1.0117
  768MOL0     H 3676   4.136   9.569   4.824 -0.5364  1.2672  1.5513
  768MOL0     H 3677   3.601   9.026   5.253 -2.1148 -0.6553 -0.7575
  768MOL0     H 3678   3.334   8.979   5.434  0.0794 -0.6239  0.8658
  768MOL0     H 3679   3.509   8.952   5.424 -0.3733 -1.1905 -0.8337
  768MOL0     H 3680   3.447   9.071   5.537 -1.8949 -3.9762  1.4799
  769MOL0     O 3681   8.084   3.780   1.574 -0.3355 -0.3199 -0.3134
  769MOL0     C 3682   8.063   3.763   1.697  0.9801 -0.0912  0.2453
  769MOL0     O 3683   8.158   3.748   1.795  0.6597  0.4148  0.3487
  769MOL0     C 3684   8.289   3.728   1.752  0.4950  0.0559 -0.7427
  769MOL0     C 3685   8.361   3.826   1.690 -0.3639 -0.0530  0.1003
  769MOL0     C 3686   8.497   3.798   1.663 -0.5262 -0.3060  0.2773
  769MOL0     C 3687   8.558   3.677   1.695 -0.2861 -0.3545 -0.3572
  769MOL0     O 3688   8.686   3.637   1.675  0.3668 -0.4361 -0.7666
  769MOL0     C 3689   8.782   3.713   1.611  0.1459 -0.2920 -0.6522
  769MOL0     C 3690   8.903   3.628   1.593  1.1413  0.3013  0.1569
  769MOL0     C 3691   9.018   3.713   1.532  0.0607  0.5802  0.7430
  769MOL0     C 3692   9.088   3.800   1.639  0.2937  0.5549  0.5309
  769MOL0     C 3693   9.186   3.909   1.574  0.0534  0.1214 -0.2433
  769MOL0     C 3694   9.314   3.847   1.528 -1.2260 -0.0343 -0.4430
  769MOL0     C 3695   9.433   3.902   1.615 -1.3197  0.5574 -0.1253
  769MOL0     C 3696   9.557   3.814   1.577  0.7793  0.3122 -0.1838
  769MOL0     N 3697   9.655   3.827   1.680 -0.2834 -0.4142  0.2938
  769MOL0     C 3698   9.732   3.943   1.701  0.3327  0.0830 -0.5009
  769MOL0     C 3699   9.824   3.901   1.796  0.2841  0.4102 -0.3645
  769MOL0     C 3700   9.904   3.978   1.896  1.1417 -0.0874 -0.9085
  769MOL0     C 3701  10.015   4.061   1.832  0.3222  1.3376 -0.5452
  769MOL0     C 3702  10.046   4.178   1.917  0.0552  0.4246 -0.6563
  769MOL0     C 3703  10.167   4.251   1.873 -0.3895  0.3351  0.6757
  769MOL0     O 3704  10.130   4.362   1.788 -0.2011  0.9746 -0.1009
  769MOL0     C 3705  10.231   4.436   1.729 -0.2733  0.3441  0.7236
  769MOL0     C 3706  10.195   4.552   1.654 -0.6910  0.5603 -0.9803
  769MOL0     C 3707  10.292   4.625   1.588 -0.4487 -0.6610 -0.8145
  769MOL0     C 3708  10.425   4.607   1.618 -0.2843 -0.6149  0.0348
  769MOL0     C 3709  10.532   4.691   1.542  1.0737  0.0497  0.6883
  769MOL0     O 3710  10.660   4.651   1.554  0.6904 -0.0584  0.1580
  769MOL0     C 3711  10.762   4.707   1.492 -0.2280 -1.4152 -0.9582
  769MOL0     C 3712  10.886   4.695   1.552  0.3473  0.8647 -0.0753
  769MOL0     C 3713  11.001   4.745   1.500 -0.2348  0.0306 -0.5112
  769MOL0     C 3714  10.992   4.831   1.381 -0.2162  0.7904 -0.7779
  769MOL0     O 3715  11.097   4.900   1.325  0.4835 -0.3292  0.6059
  769MOL0     C 3716  11.227   4.884   1.379  0.4276  0.1568  0.0402
  769MOL0     C 3717  11.333   4.975   1.303  0.1304 -0.3818  0.5120
  769MOL0     C 3718  11.319   5.129   1.314  0.2416 -0.5751 -0.4282
  769MOL0     C 3719  11.325   5.177   1.458  0.3050  0.8067  0.5016
  769MOL0     C 3720  11.432   5.284   1.469 -1.1133  0.0498 -0.8571
  769MOL0     C 3721  11.558   5.212   1.529  0.4117  0.3893 -0.0766
  769MOL0     C 3722  11.676   5.293   1.537  0.3209  0.0348 -0.0298
  769MOL0     C 3723  11.659   5.421   1.614 -0.4463 -0.8104  0.6897
  769MOL0    Cl 3724  11.818   5.501   1.667  0.9890 -0.4081 -0.6888
  769MOL0     C 3725  10.861   4.848   1.327 -0.1285  0.7410 -0.0347
  769MOL0     C 3726  10.751   4.784   1.372  0.7507  0.5149  0.5802
  769MOL0     O 3727  10.495   4.794   1.486 -0.2759  0.4721 -0.9313
  769MOL0     C 3728  10.466   4.503   1.697 -1.3832  0.3227  0.5345
  769MOL0     C 3729  10.373   4.408   1.741 -0.2542 -0.0637 -0.4909
  769MOL0     N 3730   9.824   3.763   1.799  1.5373 -0.3354  0.2028
  769MOL0     N 3731   9.713   3.720   1.749 -0.6509 -0.4046 -0.1611
  769MOL0     C 3732   8.477   3.583   1.747  0.2325 -0.2729  1.2819
  769MOL0     C 3733   8.348   3.607   1.783  0.7752  0.1540  0.7027
  769MOL0     C 3734   7.918   3.737   1.725  0.8970  0.1606 -0.8592
  769MOL0     C 3735   7.814   3.766   1.622 -0.1241 -0.5653  0.7979
  769MOL0     C 3736   7.681   3.753   1.643  0.4004 -0.0158  0.3673
  769MOL0     C 3737   7.635   3.723   1.767 -1.1151 -0.4226  0.5810
  769MOL0     O 3738   7.509   3.695   1.804 -0.7490 -0.0018  0.7662
  769MOL0     C 3739   7.405   3.702   1.706 -0.4552 -1.0631  0.2089
  769MOL0     C 3740   7.272   3.664   1.767  0.1323  0.2006 -0.3186
  769MOL0     C 3741   7.149   3.712   1.688 -1.2508  0.1828  0.9397
  769MOL0     C 3742   7.026   3.624   1.723  0.2915  0.0427 -0.1259
  769MOL0     C 3743   6.900   3.691   1.683 -0.5817 -0.2198 -0.1776
  769MOL0     C 3744   6.794   3.723   1.634 -0.4462 -0.3051 -0.3513
  769MOL0     C 3745   7.724   3.712   1.871 -0.6172 -0.7742  0.0351
  769MOL0     C 3746   7.866   3.715   1.855  1.0107  0.7547 -0.6837
  769MOL0     C 3747   7.939   3.696   1.987 -0.1441  0.4756  0.3420
  769MOL0     H 3748   8.313   3.922   1.674  0.3940  0.5238  1.1737
  769MOL0     H 3749   8.558   3.876   1.619 -0.5077  0.5823  1.7886
  769MOL0     H 3750   8.757   3.754   1.513  2.9706 -0.8975 -1.7235
  769MOL0     H 3751   8.796   3.791   1.687  0.9479 -0.5043 -0.5762
  769MOL0     H 3752   8.872   3.557   1.517  0.1025 -0.9767  1.7106
  769MOL0     H 3753   8.936   3.570   1.680 -1.2632  0.3577  1.1888
  769MOL0     H 3754   8.976   3.771   1.449 -0.3921 -1.0355 -0.2147
  769MOL0     H 3755   9.087   3.640   1.490 -1.6955 -1.5785  1.4068
  769MOL0     H 3756   9.011   3.859   1.689 -1.1330  0.1093 -1.0667
  769MOL0     H 3757   9.134   3.739   1.717 -3.8318  0.8482  3.5167
  769MOL0     H 3758   9.148   3.968   1.489  0.2087 -1.1003 -1.1853
  769MOL0     H 3759   9.210   3.983   1.651 -0.5525 -0.3011  0.3544
  769MOL0     H 3760   9.301   3.738   1.538 -0.4818  0.0513  2.0985
  769MOL0     H 3761   9.335   3.870   1.423 -2.2952  1.2868 -0.3920
  769MOL0     H 3762   9.413   3.876   1.719  1.6552  1.4296  0.7656
  769MOL0     H 3763   9.452   4.009   1.608  0.5598  0.3888  1.5401
  769MOL0     H 3764   9.527   3.709   1.566  4.2596 -0.5589 -3.9946
  769MOL0     H 3765   9.581   3.847   1.476 -2.5832  3.4074 -0.1510
  769MOL0     H 3766   9.716   4.048   1.680 -1.9743 -0.1125  0.0357
  769MOL0     H 3767   9.838   4.057   1.932  0.3820 -1.0842 -0.0561
  769MOL0     H 3768   9.952   3.919   1.974  0.1336  0.6367  0.2853
  769MOL0     H 3769  10.092   3.983   1.827 -2.2578 -1.7760  2.7114
  769MOL0     H 3770   9.986   4.093   1.732  0.1259  1.2708 -0.5099
  769MOL0     H 3771  10.081   4.142   2.015 -0.1124  3.1471  0.4889
  769MOL0     H 3772   9.963   4.246   1.936 -0.2386 -0.0666 -0.1306
  769MOL0     H 3773  10.235   4.183   1.822 -1.7726  0.5530 -1.5893
  769MOL0     H 3774  10.216   4.301   1.957 -1.9488  3.8269 -0.3076
  769MOL0     H 3775  10.091   4.561   1.626 -0.7931 -1.1162 -1.2212
  769MOL0     H 3776  10.263   4.705   1.521 -0.6286  3.0423  3.1959
  769MOL0     H 3777  10.908   4.630   1.636  1.1000  0.8801 -0.2543
  769MOL0     H 3778  11.094   4.723   1.551 -0.0752 -0.5577 -1.0409
  769MOL0     H 3779  11.226   4.922   1.482  0.1311  0.6669 -0.1441
  769MOL0     H 3780  11.256   4.779   1.373  1.3197  0.4439 -1.0740
  769MOL0     H 3781  11.429   4.942   1.344 -0.2769  0.3253  2.1001
  769MOL0     H 3782  11.324   4.945   1.198 -1.4464  2.9264 -0.4202
  769MOL0     H 3783  11.401   5.172   1.256  0.6622  1.1332  1.3061
  769MOL0     H 3784  11.229   5.174   1.272 -1.3016 -0.2916  2.8839
  769MOL0     H 3785  11.332   5.098   1.533 -1.0977  0.8718  0.7420
  769MOL0     H 3786  11.230   5.224   1.486  0.3108  0.6459  0.7964
  769MOL0     H 3787  11.398   5.359   1.540  1.1650 -0.1874  0.5856
  769MOL0     H 3788  11.449   5.338   1.376 -1.4002 -0.1854 -1.0495
  769MOL0     H 3789  11.529   5.178   1.629 -0.5747 -2.7082 -1.3072
  769MOL0     H 3790  11.594   5.127   1.470 -1.9570 -1.1002  0.5064
  769MOL0     H 3791  11.710   5.311   1.434  0.1131  4.2252  0.4909
  769MOL0     H 3792  11.751   5.236   1.593  0.8964  1.2247  0.4454
  769MOL0     H 3793  11.598   5.488   1.553  1.8471 -0.6051 -1.5729
  769MOL0     H 3794  11.603   5.401   1.706  3.0136 -0.7187  3.0223
  769MOL0     H 3795  10.856   4.905   1.235 -0.1725  0.0477 -0.4681
  769MOL0     H 3796  10.662   4.774   1.311  0.0973 -0.9297  1.7129
  769MOL0     H 3797  10.570   4.480   1.718 -0.6505  2.0210 -0.9715
  769MOL0     H 3798  10.400   4.322   1.802 -0.0930 -0.6319 -1.3429
  769MOL0     H 3799   8.515   3.484   1.769  0.5728 -0.1344  1.3251
  769MOL0     H 3800   8.275   3.539   1.828 -1.4098  2.7450  1.3885
  769MOL0     H 3801   7.844   3.805   1.525  0.4039 -1.0003  0.7854
  769MOL0     H 3802   7.605   3.757   1.565  0.8116 -2.3628 -0.2418
  769MOL0     H 3803   7.416   3.641   1.615  0.7399 -1.1202  0.3677
  769MOL0     H 3804   7.398   3.804   1.667 -0.9721 -1.6639 -1.3842
  769MOL0     H 3805   7.264   3.706   1.868  0.4529  1.8100 -0.9358
  769MOL0     H 3806   7.266   3.555   1.766 -0.5235  0.1660  2.0251
  769MOL0     H 3807   7.171   3.708   1.581  0.7792 -0.5059  1.3339
  769MOL0     H 3808   7.130   3.814   1.724 -0.8147  0.9680 -0.9196
  769MOL0     H 3809   7.037   3.520   1.693 -0.4067 -0.9444  2.7201
  769MOL0     H 3810   7.022   3.617   1.833  0.8578  0.9613 -0.0378
  769MOL0     H 3811   6.710   3.751   1.574 -0.4503  0.0103 -0.1989
  769MOL0     H 3812   7.692   3.702   1.975  1.5367 -0.8073  0.7586
  769MOL0     H 3813   8.039   3.657   1.965  0.1585  2.5621 -2.3614
  769MOL0     H 3814   7.952   3.797   2.028 -3.5873  0.5990  1.4805
  769MOL0     H 3815   7.874   3.645   2.059 -0.8771  0.7498 -0.1186
  770MOL0     O 3816   7.567   4.789   5.221  0.8260 -0.6461  0.3289
  770MOL0     C 3817   7.455   4.743   5.218 -0.4970  0.8751 -0.1012
  770MOL0     O 3818   7.422   4.613   5.209 -0.1300  0.3702  1.0483
  770MOL0     C 3819   7.510   4.521   5.240 -1.2986 -0.6138  0.5081
  770MOL0     C 3820   7.632   4.500   5.163  0.2114 -0.2243 -0.2019
  770MOL0     C 3821   7.722   4.408   5.209 -0.0706  0.6029 -0.0957
  770MOL0     C 3822   7.700   4.327   5.319 -0.4457  0.1572 -0.1763
  770MOL0     O 3823   7.772   4.215   5.354  0.4708 -0.1655  0.0035
  770MOL0     C 3824   7.923   4.222   5.338 -0.4054 -0.8721  0.2134
  770MOL0     C 3825   7.978   4.336   5.437 -0.3841 -0.4815  0.0277
  770MOL0     C 3826   7.959   4.289   5.583 -0.2228 -0.5599 -0.3027
  770MOL0     C 3827   8.075   4.214   5.647 -0.2605 -1.2015 -0.0136
  770MOL0     C 3828   8.197   4.307   5.670 -0.0390  0.0696  0.5901
  770MOL0     C 3829   8.304   4.229   5.746  0.3555  0.1443  0.0460
  770MOL0     C 3830   8.441   4.277   5.716 -0.3386  0.5583 -0.1432
  770MOL0     C 3831   8.472   4.422   5.753  0.4184 -0.0822 -0.0080
  770MOL0     N 3832   8.609   4.448   5.712  0.4857 -0.1654  0.1975
  770MOL0     C 3833   8.725   4.405   5.788  0.1974 -0.6766 -0.4572
  770MOL0     C 3834   8.825   4.454   5.716 -0.1891 -0.9776  0.3477
  770MOL0     C 3835   8.971   4.431   5.735 -0.3862  0.4882  0.2763
  770MOL0     C 3836   9.040   4.390   5.600 -0.2013 -0.3359  0.7815
  770MOL0     C 3837   9.192   4.356   5.621 -0.4994 -0.5791 -0.2834
  770MOL0     C 3838   9.264   4.464   5.696  0.3164 -0.1290 -0.3805
  770MOL0     O 3839   9.403   4.441   5.704  0.3046  0.0995  0.8634
  770MOL0     C 3840   9.481   4.525   5.775 -0.2211 -0.4157 -0.1744
  770MOL0     C 3841   9.432   4.621   5.860  0.6727 -1.0447  0.0657
  770MOL0     C 3842   9.517   4.714   5.923  0.0526  0.8676 -0.0659
  770MOL0     C 3843   9.651   4.705   5.913  0.1039 -0.4314  0.1879
  770MOL0     C 3844   9.727   4.789   6.001  0.0747 -0.5836  0.1150
  770MOL0     O 3845   9.862   4.772   5.998  0.2885  0.5137  0.0251
  770MOL0     C 3846   9.944   4.856   6.069 -0.0156  0.0706  0.0778
  770MOL0     C 3847   9.975   4.987   6.024 -0.3984  0.0047 -0.5801
  770MOL0     C 3848  10.050   5.082   6.109 -0.5806  0.4851  0.1007
  770MOL0     C 3849  10.086   5.041   6.242 -0.6649  0.3154  0.7724
  770MOL0     O 3850  10.133   5.130   6.326  0.1128  0.0743 -0.3462
  770MOL0     C 3851  10.228   5.077   6.418 -0.0601  0.0689  0.1575
  770MOL0     C 3852  10.338   5.174   6.460 -0.0882  0.1769 -0.2277
  770MOL0     C 3853  10.421   5.108   6.574 -0.0141  0.0039 -0.7066
  770MOL0     C 3854  10.533   5.207   6.618  0.9528 -0.1010 -0.9078
  770MOL0     C 3855  10.611   5.181   6.753  0.1132  0.2349 -0.5205
  770MOL0     C 3856  10.697   5.053   6.748  0.2546 -0.2956  1.3139
  770MOL0     C 3857  10.775   5.031   6.884  0.1438 -0.6500  0.1602
  770MOL0     C 3858  10.850   4.902   6.889  0.8197 -0.3086  0.5367
  770MOL0    Cl 3859  10.968   4.896   7.035  0.3916 -0.0758  0.4590
  770MOL0     C 3860  10.062   4.909   6.281  1.0329  0.3614  0.0794
  770MOL0     C 3861   9.992   4.815   6.197 -0.2589  0.0670  0.6122
  770MOL0     O 3862   9.673   4.880   6.060 -0.2836 -0.0336 -0.6873
  770MOL0     C 3863   9.709   4.605   5.829 -0.3633 -0.0072  0.6248
  770MOL0     C 3864   9.624   4.514   5.760  0.5293 -0.2564  0.2418
  770MOL0     N 3865   8.782   4.524   5.610  0.6228 -0.0325 -0.1694
  770MOL0     N 3866   8.654   4.528   5.613  1.2812  1.1738 -0.0875
  770MOL0     C 3867   7.590   4.350   5.394 -0.3908  0.0605  0.6565
  770MOL0     C 3868   7.494   4.444   5.360 -1.0656 -0.1434  0.1865
  770MOL0     C 3869   7.337   4.836   5.193 -0.1574 -0.0956 -0.3234
  770MOL0     C 3870   7.215   4.773   5.143 -0.1518 -0.0777 -0.2351
  770MOL0     C 3871   7.098   4.846   5.114 -0.0080 -0.3253 -1.3832
  770MOL0     C 3872   7.092   4.986   5.133 -0.2948 -0.2987  0.5023
  770MOL0     O 3873   6.988   5.045   5.079 -0.1063 -0.7715 -0.1960
  770MOL0     C 3874   6.985   5.183   5.058 -0.6927 -0.4625  0.1130
  770MOL0     C 3875   6.864   5.218   4.970 -0.3110 -0.0041 -0.0173
  770MOL0     C 3876   6.725   5.183   5.031  0.2955 -0.1222  0.9243
  770MOL0     C 3877   6.610   5.257   4.968  0.1156  0.0449  0.2206
  770MOL0     C 3878   6.544   5.159   4.884  0.3297  0.2109  0.9408
  770MOL0     C 3879   6.476   5.084   4.822  0.7803 -0.1712  0.8498
  770MOL0     C 3880   7.209   5.045   5.192 -0.0676 -0.1129 -0.4449
  770MOL0     C 3881   7.335   4.977   5.212 -0.3410  0.4023 -0.5355
  770MOL0     C 3882   7.459   5.053   5.266  0.4994 -0.3910 -0.1008
  770MOL0     H 3883   7.649   4.559   5.074  0.5496  1.2390  0.7785
  770MOL0     H 3884   7.804   4.373   5.147 -0.6215 -2.8886  0.9202
  770MOL0     H 3885   7.974   4.127   5.357 -0.3078 -0.8774 -0.0829
  770MOL0     H 3886   7.951   4.242   5.234 -0.6499  0.1361  0.3302
  770MOL0     H 3887   7.922   4.428   5.418  1.0416 -0.1078 -2.9941
  770MOL0     H 3888   8.084   4.356   5.418 -0.7174  2.4442  0.6529
  770MOL0     H 3889   7.877   4.216   5.583  0.3696 -1.3216  1.7396
  770MOL0     H 3890   7.923   4.365   5.652  0.5594  0.7960 -1.3495
  770MOL0     H 3891   8.051   4.162   5.740  1.1408  0.0102  1.0746
  770MOL0     H 3892   8.103   4.135   5.578  1.9280 -0.4698 -0.0601
  770MOL0     H 3893   8.238   4.350   5.578  2.1326 -0.5844  1.1941
  770MOL0     H 3894   8.175   4.388   5.740 -3.7591 -1.7782  1.7746
  770MOL0     H 3895   8.293   4.232   5.855 -0.0750  0.0098  0.0062
  770MOL0     H 3896   8.297   4.122   5.723  0.5166  0.2032 -0.2789
  770MOL0     H 3897   8.464   4.261   5.610  2.1263 -2.0237  0.6633
  770MOL0     H 3898   8.505   4.218   5.782 -1.8281  0.2892  1.1081
  770MOL0     H 3899   8.402   4.479   5.691  0.6510 -0.1880 -0.3686
  770MOL0     H 3900   8.459   4.436   5.861 -0.7993 -1.2400  0.0243
  770MOL0     H 3901   8.732   4.348   5.880 -0.4816 -1.4890 -0.9033
  770MOL0     H 3902   9.008   4.520   5.786  0.4678  0.2231  0.1231
  770MOL0     H 3903   8.989   4.350   5.807  0.5546  1.9083  1.7050
  770MOL0     H 3904   9.003   4.290   5.574  1.3161 -0.3685 -1.4767
  770MOL0     H 3905   9.021   4.461   5.520 -1.0167  0.1555  1.4009
  770MOL0     H 3906   9.237   4.355   5.522 -2.5550 -1.1065 -1.2777
  770MOL0     H 3907   9.210   4.261   5.671 -0.2755  0.1099  0.9865
  770MOL0     H 3908   9.209   4.454   5.790 -2.6068 -1.3740 -2.0843
  770MOL0     H 3909   9.247   4.563   5.652 -1.2998 -0.9659 -1.7899
  770MOL0     H 3910   9.324   4.622   5.872  0.2190  0.3661 -3.1198
  770MOL0     H 3911   9.467   4.772   6.000  0.6824 -0.0214  1.0662
  770MOL0     H 3912   9.935   5.029   5.933 -2.5930 -0.5504  0.0649
  770MOL0     H 3913  10.063   5.186   6.084  2.0323  0.1531 -0.1833
  770MOL0     H 3914  10.169   5.057   6.508  1.6444  0.1478  1.3439
  770MOL0     H 3915  10.272   4.983   6.383  0.8399 -0.0952  1.6430
  770MOL0     H 3916  10.399   5.203   6.374  0.9494 -2.6318 -0.5643
  770MOL0     H 3917  10.286   5.262   6.498 -0.2505 -0.8028  1.9356
  770MOL0     H 3918  10.354   5.090   6.659 -1.8881 -2.8314 -2.5780
  770MOL0     H 3919  10.469   5.016   6.539  4.8688  1.7470  0.6338
  770MOL0     H 3920  10.488   5.306   6.631  0.7567 -0.2857 -0.1043
  770MOL0     H 3921  10.606   5.205   6.537  1.8164 -1.4431 -0.1257
  770MOL0     H 3922  10.551   5.175   6.844 -0.5331  0.9787 -0.8875
  770MOL0     H 3923  10.676   5.267   6.775 -0.7052  0.0699  3.3240
  770MOL0     H 3924  10.624   4.974   6.731  1.4189 -1.1401  0.0659
  770MOL0     H 3925  10.769   5.056   6.666 -3.0352  1.1664 -1.8062
  770MOL0     H 3926  10.701   5.030   6.964  1.0839 -1.4012  1.0338
  770MOL0     H 3927  10.845   5.108   6.915 -1.8742  1.4557 -0.2535
  770MOL0     H 3928  10.770   4.829   6.881  0.1099  0.3897  1.0792
  770MOL0     H 3929  10.902   4.895   6.793 -1.2839 -2.0230 -0.5438
  770MOL0     H 3930  10.095   4.880   6.380  0.3370  2.0873  0.8390
  770MOL0     H 3931   9.958   4.719   6.234 -2.5061  0.8384  0.6795
  770MOL0     H 3932   9.815   4.589   5.813 -0.6207 -0.8940 -0.2899
  770MOL0     H 3933   9.682   4.443   5.702 -1.2331 -1.4139 -0.1926
  770MOL0     H 3934   7.570   4.291   5.482 -2.5878 -0.9636 -0.4724
  770MOL0     H 3935   7.406   4.463   5.421 -1.7629 -1.0571 -0.4951
  770MOL0     H 3936   7.214   4.666   5.126  2.4206 -0.0396 -1.0167
  770MOL0     H 3937   7.000   4.804   5.093  0.9668 -3.3557 -0.3243
  770MOL0     H 3938   7.074   5.222   5.008  1.8414 -0.7110  3.9558
  770MOL0     H 3939   6.994   5.239   5.152  3.9046  0.1598 -0.4817
  770MOL0     H 3940   6.878   5.160   4.879 -1.2244 -2.0751  1.1104
  770MOL0     H 3941   6.856   5.324   4.943 -1.1486 -0.3802 -1.3692
  770MOL0     H 3942   6.728   5.212   5.137  2.3669  1.3016  0.5311
  770MOL0     H 3943   6.704   5.076   5.023 -2.3159  0.4522 -2.1828
  770MOL0     H 3944   6.532   5.286   5.039  0.4982  2.7829 -0.3556
  770MOL0     H 3945   6.650   5.350   4.927 -0.1516  2.2019  4.3061
  770MOL0     H 3946   6.406   5.019   4.774  0.0058  0.9217  0.4437
  770MOL0     H 3947   7.208   5.152   5.210 -0.2393 -0.0210 -0.9850
  770MOL0     H 3948   7.535   5.055   5.187  0.8254 -2.0092  0.1187
  770MOL0     H 3949   7.442   5.155   5.300  3.3029  0.9274 -2.2568
  770MOL0     H 3950   7.519   5.011   5.348 -0.0046  1.6876  1.4049
  771MOL0     O 3951   5.783   8.273   1.960 -0.0838 -0.4556 -0.7108
  771MOL0     C 3952   5.785   8.331   1.850  0.5394 -0.0554 -1.1414
  771MOL0     O 3953   5.903   8.355   1.783 -0.0073 -0.1178  0.0698
  771MOL0     C 3954   6.023   8.325   1.844  0.5755 -0.1817 -0.5093
  771MOL0     C 3955   6.056   8.196   1.879 -1.0307 -0.0437  0.2919
  771MOL0     C 3956   6.188   8.158   1.911  0.3428 -0.3720 -0.2394
  771MOL0     C 3957   6.283   8.254   1.910 -0.4171 -0.1075  0.1814
  771MOL0     O 3958   6.419   8.217   1.918 -0.6314 -0.4871 -0.0477
  771MOL0     C 3959   6.462   8.132   2.026  1.4794 -0.1004  0.4420
  771MOL0     C 3960   6.601   8.187   2.074  0.2359  0.7860  0.5282
  771MOL0     C 3961   6.697   8.174   1.954 -0.2451 -0.2412 -0.0684
  771MOL0     C 3962   6.836   8.233   1.981 -0.0391 -0.7176  0.5857
  771MOL0     C 3963   6.919   8.147   2.078 -0.3072 -0.1586 -0.9835
  771MOL0     C 3964   7.070   8.179   2.087  0.3783 -0.7717 -0.2558
  771MOL0     C 3965   7.156   8.092   2.184  0.1819  1.1549 -0.7295
  771MOL0     C 3966   7.149   7.944   2.141 -0.4917  0.4957  0.0177
  771MOL0     N 3967   7.259   7.914   2.033 -0.4858 -0.5830  0.0375
  771MOL0     C 3968   7.261   7.962   1.904 -0.2591  0.0517  0.1609
  771MOL0     C 3969   7.372   7.902   1.849 -0.2170 -0.2809  0.4237
  771MOL0     C 3970   7.402   7.915   1.707 -0.6502  0.4975 -0.8925
  771MOL0     C 3971   7.453   7.786   1.646  0.2110 -0.7152 -0.4603
  771MOL0     C 3972   7.499   7.820   1.508 -0.0938 -0.3838  0.4689
  771MOL0     C 3973   7.524   7.686   1.445 -1.1012  0.1647  0.6167
  771MOL0     O 3974   7.611   7.697   1.330 -0.5923  0.4697 -0.5015
  771MOL0     C 3975   7.749   7.686   1.348 -0.4159  0.5623  0.4514
  771MOL0     C 3976   7.822   7.659   1.232  0.9431  0.0757 -0.5014
  771MOL0     C 3977   7.956   7.636   1.231 -0.3275  0.5475 -0.1383
  771MOL0     C 3978   8.028   7.646   1.355 -0.4245 -0.1882 -0.1736
  771MOL0     C 3979   8.173   7.620   1.364 -0.1399 -0.2678 -0.2957
  771MOL0     O 3980   8.232   7.599   1.244 -0.2644  0.5597 -0.1998
  771MOL0     C 3981   8.363   7.577   1.244 -0.2240  0.3215 -0.5428
  771MOL0     C 3982   8.458   7.678   1.242  0.6525  1.2271  0.2715
  771MOL0     C 3983   8.590   7.660   1.272 -0.3869  0.3870 -0.4350
  771MOL0     C 3984   8.643   7.529   1.301  0.4024 -0.5774  0.4255
  771MOL0     O 3985   8.780   7.508   1.320  0.2764 -0.3825 -0.6792
  771MOL0     C 3986   8.856   7.516   1.198 -0.3947  0.5423 -0.8474
  771MOL0     C 3987   9.004   7.567   1.219 -0.7655  0.3757  0.3001
  771MOL0     C 3988   9.093   7.535   1.096 -0.6430  0.1940 -0.0484
  771MOL0     C 3989   9.234   7.598   1.100  0.3596 -0.8230 -0.1303
  771MOL0     C 3990   9.301   7.577   0.966  0.0793 -0.3413 -0.0376
  771MOL0     C 3991   9.444   7.626   0.970 -0.0208 -0.1346  1.2460
  771MOL0     C 3992   9.539   7.529   1.040 -0.4648  0.0790  0.5450
  771MOL0     C 3993   9.680   7.574   1.012 -0.8612 -0.0312 -0.0569
  771MOL0    Cl 3994   9.715   7.591   0.835 -0.1607  0.0730  0.0946
  771MOL0     C 3995   8.544   7.432   1.306  0.6094  0.1353 -0.2539
  771MOL0     C 3996   8.406   7.452   1.279 -0.1363  0.8071 -0.1976
  771MOL0     O 3997   8.226   7.625   1.475 -0.1831 -0.0503  0.3239
  771MOL0     C 3998   7.954   7.669   1.477 -0.0566  0.1329  0.6085
  771MOL0     C 3999   7.814   7.680   1.472  0.6836 -0.5786  0.1510
  771MOL0     N 4000   7.444   7.841   1.946 -1.0450  0.4945 -0.9284
  771MOL0     N 4001   7.375   7.849   2.056 -0.4078 -0.3405  0.1062
  771MOL0     C 4002   6.254   8.385   1.884 -0.6728 -0.9170 -0.1771
  771MOL0     C 4003   6.121   8.428   1.853  0.1141 -0.6946 -0.5507
  771MOL0     C 4004   5.659   8.370   1.785  0.0066 -0.0421 -0.3689
  771MOL0     C 4005   5.542   8.371   1.864  0.3663  0.6697 -0.4422
  771MOL0     C 4006   5.419   8.394   1.806  0.4692  0.3196  0.8647
  771MOL0     C 4007   5.401   8.403   1.671  0.6317 -0.7189  0.1271
  771MOL0     O 4008   5.287   8.436   1.599  0.3479 -0.0704  0.1856
  771MOL0     C 4009   5.166   8.463   1.660 -0.1049 -0.7023  0.2777
  771MOL0     C 4010   5.146   8.613   1.692 -0.7831 -0.3097 -0.3021
  771MOL0     C 4011   5.188   8.690   1.564 -0.1106 -0.5435 -0.2137
  771MOL0     C 4012   5.102   8.658   1.441 -0.0779  1.2097 -0.5502
  771MOL0     C 4013   4.965   8.672   1.477  0.8829 -0.2683 -0.6821
  771MOL0     C 4014   4.843   8.666   1.498  0.1339 -0.4940  0.8363
  771MOL0     C 4015   5.512   8.416   1.595 -0.4127 -0.2949  0.1796
  771MOL0     C 4016   5.643   8.400   1.644 -0.0602  1.0681 -0.3380
  771MOL0     C 4017   5.755   8.427   1.548  0.5019  0.0900  0.3136
  771MOL0     H 4018   5.978   8.121   1.865 -0.2032 -0.7966 -0.4291
  771MOL0     H 4019   6.214   8.057   1.943 -0.3946 -1.1015 -1.8440
  771MOL0     H 4020   6.388   8.122   2.105  0.1465 -2.0496 -0.9691
  771MOL0     H 4021   6.469   8.033   1.982  1.8569 -0.0971  0.4881
  771MOL0     H 4022   6.639   8.124   2.155 -2.0692  2.9745  3.5437
  771MOL0     H 4023   6.592   8.292   2.105  0.2651  1.2778 -1.0433
  771MOL0     H 4024   6.662   8.242   1.876  2.1689  1.8270  0.5030
  771MOL0     H 4025   6.694   8.068   1.928 -1.2693 -0.0030 -1.0002
  771MOL0     H 4026   6.886   8.231   1.883  2.0865  1.9810  1.4967
  771MOL0     H 4027   6.821   8.336   2.015  1.4077 -1.2204  2.9451
  771MOL0     H 4028   6.869   8.148   2.175 -1.9331  1.0251 -1.7851
  771MOL0     H 4029   6.911   8.050   2.027 -0.8254 -1.3479  1.2145
  771MOL0     H 4030   7.114   8.181   1.988 -0.5496  0.1967 -0.6771
  771MOL0     H 4031   7.070   8.283   2.123 -0.0736 -1.0437  0.5770
  771MOL0     H 4032   7.113   8.094   2.285 -1.0276  0.2003 -1.2112
  771MOL0     H 4033   7.258   8.132   2.186  1.3966 -1.7286 -1.2245
  771MOL0     H 4034   7.168   7.872   2.221 -0.7228  0.8611  0.3979
  771MOL0     H 4035   7.054   7.916   2.093 -0.7665 -0.5984  1.1393
  771MOL0     H 4036   7.189   8.008   1.836  0.4146 -1.6921 -1.8774
  771MOL0     H 4037   7.307   7.947   1.663 -2.3001 -0.6275  1.5746
  771MOL0     H 4038   7.474   7.997   1.698 -0.8824  0.8827  0.5341
  771MOL0     H 4039   7.539   7.753   1.705 -1.5893 -0.9032  2.2534
  771MOL0     H 4040   7.379   7.706   1.656  1.5702 -2.0352 -0.4302
  771MOL0     H 4041   7.588   7.884   1.503 -0.2966 -0.2281 -1.7481
  771MOL0     H 4042   7.421   7.868   1.449  0.5294  0.3536  0.2315
  771MOL0     H 4043   7.434   7.637   1.408  0.0376 -0.0703 -2.0820
  771MOL0     H 4044   7.569   7.618   1.519 -3.5780 -1.4781  0.7210
  771MOL0     H 4045   7.767   7.651   1.139  2.3038  0.6360 -1.3801
  771MOL0     H 4046   7.995   7.600   1.137 -3.6136 -0.1165 -1.3901
  771MOL0     H 4047   8.421   7.776   1.214  2.6238  2.1851  0.8699
  771MOL0     H 4048   8.659   7.743   1.284 -1.7865  1.4486  0.6496
  771MOL0     H 4049   8.853   7.411   1.168 -3.7791 -0.0100  0.9064
  771MOL0     H 4050   8.808   7.577   1.122  1.2033  3.1738  0.1039
  771MOL0     H 4051   9.015   7.674   1.238  1.0906  0.1927  0.4139
  771MOL0     H 4052   9.033   7.513   1.309 -0.8837  0.5172  0.4227
  771MOL0     H 4053   9.104   7.428   1.076  1.6883  0.2742  0.5038
  771MOL0     H 4054   9.034   7.582   1.017  0.6100 -0.1440 -1.2349
  771MOL0     H 4055   9.289   7.547   1.179 -2.3093  1.3503  3.4199
  771MOL0     H 4056   9.221   7.697   1.143 -1.6171 -1.0723 -0.0666
  771MOL0     H 4057   9.242   7.630   0.891  2.5969  6.1228  1.8369
  771MOL0     H 4058   9.304   7.470   0.939 -1.6824 -0.5556  0.5151
  771MOL0     H 4059   9.475   7.643   0.866 -0.5680  0.4202  1.1670
  771MOL0     H 4060   9.440   7.726   1.015 -0.2562  2.0005 -2.9904
  771MOL0     H 4061   9.528   7.431   0.995 -0.4349  1.3396 -2.3942
  771MOL0     H 4062   9.520   7.529   1.148 -3.1467 -1.0863  0.1321
  771MOL0     H 4063   9.693   7.668   1.068 -3.5741  0.0211  0.6515
  771MOL0     H 4064   9.756   7.501   1.041 -1.7811 -0.9155  0.1834
  771MOL0     H 4065   8.575   7.334   1.340 -3.4448 -2.0711 -2.1675
  771MOL0     H 4066   8.340   7.371   1.308  0.8852  0.7806  2.2993
  771MOL0     H 4067   7.997   7.669   1.577  2.1686 -0.6339 -0.2940
  771MOL0     H 4068   7.765   7.694   1.568  1.3559  3.4134  0.0982
  771MOL0     H 4069   6.339   8.452   1.873  0.7670 -2.7955 -0.9337
  771MOL0     H 4070   6.097   8.528   1.820 -1.1361 -0.6270  0.4393
  771MOL0     H 4071   5.540   8.349   1.971 -1.1510  0.9609 -0.3939
  771MOL0     H 4072   5.336   8.390   1.876  0.2954  0.6668  0.6819
  771MOL0     H 4073   5.154   8.404   1.751 -2.7228  1.8140  1.7300
  771MOL0     H 4074   5.080   8.438   1.597 -0.8707  0.6476  0.7396
  771MOL0     H 4075   5.222   8.634   1.769 -2.0881 -1.6461  1.4173
  771MOL0     H 4076   5.048   8.643   1.730 -1.4201 -3.6750  0.9973
  771MOL0     H 4077   5.294   8.677   1.538  0.1572 -1.0248  1.0612
  771MOL0     H 4078   5.172   8.797   1.579 -0.1994 -0.6970  0.8971
  771MOL0     H 4079   5.110   8.730   1.359 -1.9695  1.4319 -0.5952
  771MOL0     H 4080   5.117   8.555   1.410 -1.4024  0.2570  1.7251
  771MOL0     H 4081   4.745   8.644   1.535 -0.6212 -0.3553 -0.9606
  771MOL0     H 4082   5.494   8.440   1.490 -0.6495  0.0738  0.2990
  771MOL0     H 4083   5.813   8.514   1.578  2.2641 -0.8524 -0.2316
  771MOL0     H 4084   5.821   8.339   1.545 -1.0276 -1.0750 -0.4254
  771MOL0     H 4085   5.718   8.446   1.447  0.4245 -1.0914  0.1085
  772MOL0     O 4086   9.812   2.749   8.429  0.5072 -0.0752  0.0845
  772MOL0     C 4087   9.748   2.773   8.535 -0.2196  1.0504 -0.2146
  772MOL0     O 4088   9.803   2.776   8.664 -0.1197 -0.6348  0.1330
  772MOL0     C 4089   9.939   2.749   8.666  0.2713  0.0638  0.5566
  772MOL0     C 4090   9.997   2.652   8.745  0.5193 -0.4472  0.8528
  772MOL0     C 4091  10.130   2.642   8.759 -0.3371 -0.1585 -0.2377
  772MOL0     C 4092  10.223   2.719   8.687  0.0420  0.5000 -0.0430
  772MOL0     O 4093  10.345   2.708   8.733 -0.1045  0.1577 -0.5331
  772MOL0     C 4094  10.449   2.790   8.682  0.1205  0.5444  0.0748
  772MOL0     C 4095  10.585   2.773   8.748  0.1672 -0.0993 -0.4509
  772MOL0     C 4096  10.698   2.859   8.683 -0.8163  0.5759  0.0724
  772MOL0     C 4097  10.831   2.882   8.760  0.9651 -0.2094  0.0439
  772MOL0     C 4098  10.933   2.970   8.683 -0.3016 -0.1702 -0.0082
  772MOL0     C 4099  10.867   3.105   8.660 -0.0570  0.3967  0.5970
  772MOL0     C 4100  10.968   3.196   8.592 -0.6011  0.3423 -0.0063
  772MOL0     C 4101  10.940   3.348   8.593  0.1144 -0.3826 -0.1708
  772MOL0     N 4102  11.032   3.397   8.494 -0.0857 -0.5732 -0.2883
  772MOL0     C 4103  11.168   3.398   8.510  0.2600  0.2877 -0.3743
  772MOL0     C 4104  11.218   3.452   8.397 -0.2678 -0.3155 -0.6111
  772MOL0     C 4105  11.358   3.491   8.372  0.4241  0.2117  0.0760
  772MOL0     C 4106  11.369   3.641   8.341 -0.0088  0.1560  0.3982
  772MOL0     C 4107  11.489   3.668   8.252 -1.0609  0.8654  0.4225
  772MOL0     C 4108  11.489   3.814   8.203 -1.4194  0.5703 -0.0885
  772MOL0     O 4109  11.594   3.839   8.109  0.1750  0.3794 -0.6071
  772MOL0     C 4110  11.729   3.828   8.138  0.1447 -0.1767  0.5649
  772MOL0     C 4111  11.821   3.827   8.031  0.4354 -0.7964  0.0262
  772MOL0     C 4112  11.957   3.832   8.056 -0.9775  0.3407  0.4833
  772MOL0     C 4113  12.015   3.809   8.181  0.3565 -1.1064  0.4717
  772MOL0     C 4114  12.165   3.825   8.204 -0.3207 -0.2909  0.0127
  772MOL0     O 4115  12.209   3.810   8.336 -0.4232 -0.3627  0.0600
  772MOL0     C 4116  12.350   3.811   8.342 -0.3990  0.3613 -0.5280
  772MOL0     C 4117  12.420   3.926   8.324  0.1250  0.1083  0.2984
  772MOL0     C 4118  12.558   3.926   8.340 -0.5978 -0.4818 -0.9422
  772MOL0     C 4119  12.628   3.803   8.370  0.2561  0.2587 -1.2241
  772MOL0     O 4120  12.759   3.778   8.378  0.4210 -0.1111  0.1244
  772MOL0     C 4121  12.854   3.888   8.372  0.2913  0.0742 -0.0957
  772MOL0     C 4122  12.996   3.834   8.411  0.6083 -0.4814  0.4308
  772MOL0     C 4123  13.083   3.786   8.298  0.6635 -0.0185  0.0876
  772MOL0     C 4124  13.228   3.757   8.340 -0.4839  0.4694 -0.3728
  772MOL0     C 4125  13.317   3.696   8.231 -0.9427  0.2137 -0.7242
  772MOL0     C 4126  13.378   3.803   8.142  0.5274  0.4076 -0.4320
  772MOL0     C 4127  13.488   3.881   8.213  0.3460  0.2173 -0.3689
  772MOL0     C 4128  13.481   4.025   8.168 -0.7158  0.4058  0.4312
  772MOL0    Cl 4129  13.642   4.087   8.166  0.5134 -0.2470 -0.0261
  772MOL0     C 4130  12.551   3.691   8.369 -0.0438  0.1229 -0.1227
  772MOL0     C 4131  12.410   3.693   8.366 -0.0436  0.5591  0.0070
  772MOL0     O 4132  12.239   3.835   8.104  0.1840 -0.4935 -0.1361
  772MOL0     C 4133  11.923   3.808   8.286 -0.1556 -0.9633 -0.1098
  772MOL0     C 4134  11.787   3.816   8.265 -0.3432 -0.4293 -0.6576
  772MOL0     N 4135  11.114   3.482   8.313 -0.4220 -0.2442  0.3785
  772MOL0     N 4136  11.003   3.448   8.377 -0.0515  0.7980 -0.4250
  772MOL0     C 4137  10.168   2.830   8.614  0.0990  0.0308 -0.1657
  772MOL0     C 4138  10.027   2.841   8.593  0.3800 -0.0021 -0.1885
  772MOL0     C 4139   9.601   2.790   8.529  0.0754  0.5100  0.6402
  772MOL0     C 4140   9.516   2.691   8.580 -0.0691 -0.0272 -0.3676
  772MOL0     C 4141   9.373   2.697   8.557 -0.9252 -0.0324 -0.0706
  772MOL0     C 4142   9.318   2.805   8.495 -0.8058 -0.4563  0.5283
  772MOL0     O 4143   9.185   2.810   8.486 -0.5903 -0.3634  0.6088
  772MOL0     C 4144   9.114   2.914   8.425  0.1622 -0.1855 -0.9185
  772MOL0     C 4145   9.094   2.875   8.275  0.1917 -1.4206 -0.1837
  772MOL0     C 4146   8.972   2.788   8.248 -0.5754 -0.8155  0.0572
  772MOL0     C 4147   9.000   2.668   8.165  0.1288 -0.2900 -0.7494
  772MOL0     C 4148   9.084   2.576   8.233  0.5110  0.8867  1.1384
  772MOL0     C 4149   9.157   2.495   8.291 -0.3308  0.0807  0.4055
  772MOL0     C 4150   9.403   2.903   8.436  0.2019 -0.0122  0.0366
  772MOL0     C 4151   9.541   2.900   8.458 -0.3118  0.4842 -0.5388
  772MOL0     C 4152   9.627   3.007   8.398 -0.0499 -0.0346  0.2511
  772MOL0     H 4153   9.927   2.600   8.810 -3.5341  1.6464 -1.4353
  772MOL0     H 4154  10.168   2.572   8.832  3.0023  0.9836 -0.7275
  772MOL0     H 4155  10.453   2.776   8.573 -1.8956  0.3269 -0.0100
  772MOL0     H 4156  10.425   2.896   8.690 -0.3851  0.4848 -0.5233
  772MOL0     H 4157  10.620   2.669   8.749 -2.2115 -1.0482 -3.2948
  772MOL0     H 4158  10.585   2.810   8.851 -1.6424 -0.5484 -0.2681
  772MOL0     H 4159  10.651   2.957   8.669 -3.0937 -0.3458  0.6948
  772MOL0     H 4160  10.717   2.826   8.581 -2.3930  0.6594 -0.2768
  772MOL0     H 4161  10.801   2.921   8.857 -0.2644 -0.1408 -0.3390
  772MOL0     H 4162  10.872   2.781   8.766  0.1001 -0.5363  0.7405
  772MOL0     H 4163  11.012   2.981   8.758 -1.4502 -1.0320  1.3839
  772MOL0     H 4164  10.970   2.918   8.594 -1.8373  0.4267 -1.0391
  772MOL0     H 4165  10.793   3.091   8.581  0.1281 -0.3280  0.5438
  772MOL0     H 4166  10.818   3.160   8.741 -2.4914 -0.4496 -0.2225
  772MOL0     H 4167  10.981   3.157   8.491 -1.6129 -3.3934  1.1288
  772MOL0     H 4168  11.067   3.171   8.633 -0.1541 -2.1675 -2.3018
  772MOL0     H 4169  10.839   3.367   8.555 -0.0045 -0.8784 -0.1051
  772MOL0     H 4170  10.949   3.391   8.693 -4.0444 -2.4181  1.3075
  772MOL0     H 4171  11.219   3.374   8.602  1.5013  2.0234 -0.5694
  772MOL0     H 4172  11.421   3.466   8.458  1.1658 -1.3181 -0.8685
  772MOL0     H 4173  11.389   3.416   8.299  1.3073 -0.1419  0.8002
  772MOL0     H 4174  11.277   3.669   8.290 -0.0241  1.3460  1.0646
  772MOL0     H 4175  11.371   3.702   8.432 -1.9378 -0.4135  0.8667
  772MOL0     H 4176  11.489   3.608   8.160  2.0470  1.8624 -0.3654
  772MOL0     H 4177  11.577   3.651   8.314  0.5487  1.2385 -1.6204
  772MOL0     H 4178  11.503   3.886   8.285  0.8848  1.6021 -1.2987
  772MOL0     H 4179  11.393   3.830   8.154 -1.5976 -1.8293 -0.6460
  772MOL0     H 4180  11.785   3.849   7.931 -0.6628  3.0222  1.1139
  772MOL0     H 4181  12.021   3.843   7.969 -2.7975  2.0169 -0.7254
  772MOL0     H 4182  12.372   4.020   8.299  0.5818 -0.2598 -2.2970
  772MOL0     H 4183  12.633   4.004   8.353 -0.9043 -0.1815 -0.9474
  772MOL0     H 4184  12.870   3.929   8.272  2.8772  0.7025  0.4936
  772MOL0     H 4185  12.812   3.953   8.450 -0.6417 -1.4729  0.7314
  772MOL0     H 4186  13.048   3.910   8.470  0.3906 -1.5487  2.0595
  772MOL0     H 4187  12.972   3.751   8.477  0.7792 -1.2880 -0.5087
  772MOL0     H 4188  13.040   3.698   8.249  1.5649  0.6519 -1.9868
  772MOL0     H 4189  13.089   3.869   8.228  1.1272  0.2385  0.4281
  772MOL0     H 4190  13.230   3.678   8.416  0.3202  0.5454 -0.3030
  772MOL0     H 4191  13.263   3.853   8.379 -1.0980  1.0610 -1.2407
  772MOL0     H 4192  13.248   3.643   8.165  1.0173 -0.7826 -2.0750
  772MOL0     H 4193  13.389   3.630   8.280 -2.6015  0.2019  1.8909
  772MOL0     H 4194  13.428   3.751   8.059  0.0220 -1.8203  0.5823
  772MOL0     H 4195  13.297   3.866   8.105  0.4208  2.1084  2.3736
  772MOL0     H 4196  13.582   3.833   8.185  0.6306  0.1767  0.6356
  772MOL0     H 4197  13.482   3.868   8.321  1.1012  0.6535 -0.2756
  772MOL0     H 4198  13.426   4.047   8.076 -0.8563  2.6887  0.9954
  772MOL0     H 4199  13.428   4.081   8.246  0.3106  0.9228  0.7824
  772MOL0     H 4200  12.592   3.594   8.397 -0.3449 -0.1759 -0.7084
  772MOL0     H 4201  12.347   3.612   8.402  0.2885  0.5680  0.6208
  772MOL0     H 4202  11.967   3.799   8.384  0.5486 -1.9995 -0.5005
  772MOL0     H 4203  11.725   3.830   8.353 -0.6105 -1.3556 -0.6933
  772MOL0     H 4204  10.225   2.897   8.551  0.3870 -0.2436 -0.1978
  772MOL0     H 4205   9.982   2.918   8.531 -0.6958 -0.6905 -0.3046
  772MOL0     H 4206   9.550   2.608   8.641 -1.3852 -1.8643 -1.9932
  772MOL0     H 4207   9.322   2.613   8.602 -0.3272  0.5315  1.7242
  772MOL0     H 4208   9.161   3.012   8.435 -1.5162  0.4340  2.3704
  772MOL0     H 4209   9.012   2.933   8.460 -0.9875 -0.1743 -3.9301
  772MOL0     H 4210   9.184   2.824   8.242 -0.7207 -2.6890 -0.8146
  772MOL0     H 4211   9.080   2.961   8.208  0.5525 -1.5297 -0.3982
  772MOL0     H 4212   8.894   2.847   8.199  0.7421 -0.0898 -1.2429
  772MOL0     H 4213   8.937   2.753   8.346 -1.7875  1.2888  0.4605
  772MOL0     H 4214   8.904   2.620   8.146 -0.1646  0.1761 -0.4556
  772MOL0     H 4215   9.043   2.693   8.067  2.2577  1.3929  0.5214
  772MOL0     H 4216   9.232   2.434   8.336 -0.1430  0.2845  0.3678
  772MOL0     H 4217   9.361   2.990   8.387 -2.1847 -0.7450  0.6286
  772MOL0     H 4218   9.681   3.061   8.476 -1.3969 -1.2399  2.0758
  772MOL0     H 4219   9.701   2.962   8.330 -3.2749 -3.6620 -1.2174
  772MOL0     H 4220   9.564   3.074   8.339 -0.6006 -0.7535  0.0094
  773MOL0     O 4221   2.911   9.347   8.994 -0.4395  0.5325  0.4747
  773MOL0     C 4222   2.801   9.315   8.956  0.5348  0.0818  0.2044
  773MOL0     O 4223   2.772   9.200   8.888  0.1114  0.0438  0.3489
  773MOL0     C 4224   2.860   9.119   8.829 -0.2917 -0.1359  0.4299
  773MOL0     C 4225   2.995   9.151   8.801 -0.1417  0.4840  0.5553
  773MOL0     C 4226   3.081   9.050   8.765  0.4780  0.2381  0.8867
  773MOL0     C 4227   3.028   8.917   8.747  0.4918 -0.2736  0.1729
  773MOL0     O 4228   3.096   8.820   8.686  0.3234  0.0185 -0.2390
  773MOL0     C 4229   3.239   8.835   8.653 -2.1929 -0.3784 -0.0041
  773MOL0     C 4230   3.333   8.832   8.769  0.0876 -0.1355 -0.6346
  773MOL0     C 4231   3.475   8.858   8.721 -0.1934  0.3939  0.9267
  773MOL0     C 4232   3.563   8.878   8.845 -0.0212  0.3001  0.5178
  773MOL0     C 4233   3.707   8.907   8.804  0.4459 -1.1466 -0.1468
  773MOL0     C 4234   3.792   8.781   8.816 -0.4016  0.3284 -0.0268
  773MOL0     C 4235   3.928   8.821   8.879  0.2194 -0.4976 -0.1059
  773MOL0     C 4236   4.013   8.691   8.908 -0.1751 -0.4297  0.4583
  773MOL0     N 4237   4.150   8.737   8.937 -0.3346 -0.0448 -0.2390
  773MOL0     C 4238   4.185   8.793   9.056 -0.3569  0.1708 -0.1388
  773MOL0     C 4239   4.308   8.841   9.025 -0.2365 -0.0559 -0.1850
  773MOL0     C 4240   4.387   8.905   9.132  0.0191 -0.4315  0.6261
  773MOL0     C 4241   4.383   9.060   9.136 -0.7487  0.6401  0.6272
  773MOL0     C 4242   4.259   9.136   9.191  0.4265  0.0332  0.0535
  773MOL0     C 4243   4.120   9.130   9.124 -0.2758  0.3800  0.3914
  773MOL0     O 4244   4.044   9.232   9.179  0.3649 -0.8832 -0.5825
  773MOL0     C 4245   3.915   9.253   9.148 -0.1188  0.0655  0.6630
  773MOL0     C 4246   3.845   9.363   9.212 -0.1909 -0.7936  0.2078
  773MOL0     C 4247   3.714   9.398   9.176 -1.1775 -0.5864  0.0066
  773MOL0     C 4248   3.650   9.320   9.082 -1.0576 -0.6990  0.6918
  773MOL0     C 4249   3.508   9.357   9.057  0.7896 -0.2074 -0.0781
  773MOL0     O 4250   3.465   9.486   9.090 -0.7499 -0.5064  0.5347
  773MOL0     C 4251   3.360   9.551   9.032  0.8580  0.3016 -1.2635
  773MOL0     C 4252   3.263   9.497   8.946 -0.5501  1.3352 -0.0569
  773MOL0     C 4253   3.162   9.590   8.909  0.2226  0.9854 -0.4134
  773MOL0     C 4254   3.155   9.717   8.956  1.1388 -1.0855 -0.8758
  773MOL0     O 4255   3.086   9.818   8.883 -0.7607  0.2630 -0.2294
  773MOL0     C 4256   2.979   9.882   8.951  0.5369  0.4830 -0.3548
  773MOL0     C 4257   3.022  10.028   8.993 -0.4861 -0.1079 -0.0308
  773MOL0     C 4258   3.102  10.108   8.882 -0.6243 -0.2889  0.0468
  773MOL0     C 4259   3.000  10.136   8.767  0.2603 -0.4908 -0.5189
  773MOL0     C 4260   3.047  10.228   8.661 -0.4439 -0.6032 -0.2864
  773MOL0     C 4261   3.098  10.370   8.703  0.2837 -0.2530  0.6073
  773MOL0     C 4262   3.163  10.448   8.570  0.2038 -0.9677 -0.1129
  773MOL0     C 4263   3.276  10.552   8.609 -0.2364 -0.6872  0.1749
  773MOL0    Cl 4264   3.212  10.702   8.681  0.0863 -0.1111 -0.1765
  773MOL0     C 4265   3.236   9.753   9.060 -0.0114 -0.9963  0.1323
  773MOL0     C 4266   3.335   9.669   9.108  0.1484 -0.1312  0.3893
  773MOL0     O 4267   3.442   9.277   8.993 -0.5206  0.5604  1.0386
  773MOL0     C 4268   3.714   9.207   9.030 -0.1497  0.0594 -0.2965
  773MOL0     C 4269   3.841   9.176   9.058  0.2577  0.4568  0.2316
  773MOL0     N 4270   4.343   8.811   8.895 -0.5003  0.1305  0.0539
  773MOL0     N 4271   4.239   8.757   8.844 -0.7307  0.2676  0.6287
  773MOL0     C 4272   2.893   8.889   8.773 -0.3937  0.4750  0.1921
  773MOL0     C 4273   2.806   8.989   8.805 -0.4489  0.9806 -0.2626
  773MOL0     C 4274   2.692   9.408   8.991 -0.4307 -0.6628  0.4891
  773MOL0     C 4275   2.717   9.549   9.017 -1.0103  0.1128  1.1867
  773MOL0     C 4276   2.624   9.644   9.060 -0.6782  0.1460  0.1979
  773MOL0     C 4277   2.490   9.604   9.063 -0.4527 -0.1047 -0.3525
  773MOL0     O 4278   2.380   9.687   9.096  0.2902  0.2748  0.9966
  773MOL0     C 4279   2.406   9.808   9.166 -0.1564 -0.2710 -0.0669
  773MOL0     C 4280   2.283   9.887   9.156  0.1769 -0.5965  0.2495
  773MOL0     C 4281   2.164   9.829   9.223  0.8566  0.0792  1.1646
  773MOL0     C 4282   2.030   9.900   9.207 -0.6551 -0.0988  0.0231
  773MOL0     C 4283   1.943   9.839   9.309  0.3419  1.6124  0.4692
  773MOL0     C 4284   1.871   9.815   9.405  0.0367  0.6020 -0.6781
  773MOL0     C 4285   2.465   9.466   9.046  0.3400 -0.4752  0.1596
  773MOL0     C 4286   2.557   9.370   9.013  0.3992  0.4447  0.4870
  773MOL0     C 4287   2.514   9.225   8.988  0.0118  0.0974 -0.3657
  773MOL0     H 4288   3.032   9.249   8.826 -1.5254  0.5668  2.4910
  773MOL0     H 4289   3.174   9.084   8.721 -0.2676  0.5815 -0.4927
  773MOL0     H 4290   3.264   8.745   8.596 -2.1263 -0.0675 -0.4736
  773MOL0     H 4291   3.264   8.915   8.582 -1.8017 -1.2825 -0.9178
  773MOL0     H 4292   3.341   8.731   8.811  3.0770  1.3062  2.6722
  773MOL0     H 4293   3.309   8.911   8.840  0.1203 -0.3637 -0.3692
  773MOL0     H 4294   3.484   8.943   8.652  1.2424 -0.6634 -0.2705
  773MOL0     H 4295   3.524   8.781   8.660 -1.6187  1.3060 -1.5130
  773MOL0     H 4296   3.531   8.967   8.900  2.9836  2.7791 -1.4150
  773MOL0     H 4297   3.552   8.794   8.914 -0.6571 -0.7072 -0.7408
  773MOL0     H 4298   3.717   8.954   8.705  0.9087 -1.6695 -0.3563
  773MOL0     H 4299   3.746   8.974   8.881 -1.7205 -0.0485  0.0621
  773MOL0     H 4300   3.750   8.716   8.894 -0.2908 -0.3036 -0.4865
  773MOL0     H 4301   3.806   8.728   8.722 -3.0139 -2.6508  1.0638
  773MOL0     H 4302   3.914   8.874   8.974 -1.0388  0.4932 -0.8054
  773MOL0     H 4303   3.982   8.885   8.808  0.4018 -0.5461 -0.0130
  773MOL0     H 4304   3.977   8.641   8.999  0.0542 -0.9674  0.2585
  773MOL0     H 4305   4.010   8.624   8.821 -4.4609 -0.2915  0.2682
  773MOL0     H 4306   4.137   8.790   9.153  0.5504 -0.2454  0.3149
  773MOL0     H 4307   4.345   8.870   9.226 -0.8653  1.6832  1.0800
  773MOL0     H 4308   4.492   8.875   9.130  0.5694  1.1044  3.0290
  773MOL0     H 4309   4.468   9.079   9.203  0.5743 -1.7285 -0.2835
  773MOL0     H 4310   4.399   9.108   9.039  2.6443 -1.2966  0.0911
  773MOL0     H 4311   4.298   9.239   9.188 -0.8574  0.6406  2.1445
  773MOL0     H 4312   4.235   9.106   9.293  1.2995 -2.4456 -0.4169
  773MOL0     H 4313   4.067   9.037   9.145  1.0926 -1.1421 -2.2661
  773MOL0     H 4314   4.123   9.118   9.015 -2.3062 -0.4158  0.3707
  773MOL0     H 4315   3.905   9.426   9.277 -0.6435 -0.6044  0.4404
  773MOL0     H 4316   3.672   9.490   9.216  0.4143  1.1768 -2.1161
  773MOL0     H 4317   3.279   9.401   8.899 -0.5897  1.7041 -0.8623
  773MOL0     H 4318   3.098   9.579   8.822  0.1840  3.2284 -0.7328
  773MOL0     H 4319   2.887   9.889   8.892 -0.2393 -0.7150  0.6628
  773MOL0     H 4320   2.939   9.816   9.029  0.0283 -2.8219 -3.1609
  773MOL0     H 4321   2.929  10.079   9.019 -0.9934 -1.7652  1.6235
  773MOL0     H 4322   3.086  10.020   9.081  3.9515 -1.9811 -3.0260
  773MOL0     H 4323   3.133  10.205   8.922 -0.3792 -0.5749  0.5582
  773MOL0     H 4324   3.197  10.069   8.846 -0.4485  0.0659  0.1223
  773MOL0     H 4325   2.915  10.189   8.811 -1.2390 -1.9850 -1.4655
  773MOL0     H 4326   2.967  10.037   8.733  3.3142 -1.7655 -0.0402
  773MOL0     H 4327   2.971  10.238   8.584 -0.5197 -0.8802 -0.2444
  773MOL0     H 4328   3.127  10.173   8.610 -0.0470 -1.5904  1.3130
  773MOL0     H 4329   3.024  10.438   8.746 -0.3144  0.0078 -0.7838
  773MOL0     H 4330   3.184  10.365   8.770  0.5696  3.3681  0.7327
  773MOL0     H 4331   3.087  10.494   8.508  1.2137 -0.0378 -0.6986
  773MOL0     H 4332   3.212  10.373   8.507 -1.7182 -2.8806  0.5448
  773MOL0     H 4333   3.342  10.516   8.690  0.2987 -1.0818 -0.4268
  773MOL0     H 4334   3.338  10.570   8.521  1.9461 -5.0315  0.5386
  773MOL0     H 4335   3.225   9.855   9.095 -0.5742 -0.9069 -0.3017
  773MOL0     H 4336   3.395   9.687   9.197 -0.2502  0.7656  0.4893
  773MOL0     H 4337   3.654   9.136   8.975 -0.2114  1.4893 -2.1904
  773MOL0     H 4338   3.892   9.089   9.019  0.9636  0.4464  1.1468
  773MOL0     H 4339   2.850   8.792   8.749  0.8463  0.2201 -1.1436
  773MOL0     H 4340   2.700   8.979   8.823 -0.1410  1.5663  2.4278
  773MOL0     H 4341   2.818   9.586   9.006 -1.9226  2.1639 -1.6653
  773MOL0     H 4342   2.657   9.743   9.091  1.2380 -0.1441 -0.7209
  773MOL0     H 4343   2.485   9.875   9.131  1.1385 -0.6986  1.8769
  773MOL0     H 4344   2.446   9.790   9.266 -2.0446 -0.2362  0.7397
  773MOL0     H 4345   2.262   9.908   9.051  0.2400  1.4558  0.5955
  773MOL0     H 4346   2.306   9.984   9.202  2.3630 -0.6796 -0.5516
  773MOL0     H 4347   2.190   9.830   9.329  0.1132  0.0077  1.3480
  773MOL0     H 4348   2.140   9.734   9.176 -0.6857  2.2342 -2.9094
  773MOL0     H 4349   2.043  10.008   9.207 -0.8677 -0.0679  0.3842
  773MOL0     H 4350   1.982   9.873   9.113 -1.5958 -0.2387  0.5308
  773MOL0     H 4351   1.830   9.792   9.502  0.6591 -1.3023 -0.8105
  773MOL0     H 4352   2.366   9.427   9.067  0.0466  0.3974  0.4510
  773MOL0     H 4353   2.535   9.198   8.884  1.6393  2.7377 -0.8169
  773MOL0     H 4354   2.557   9.162   9.066  0.7453  1.3433  0.2620
  773MOL0     H 4355   2.408   9.206   9.004  0.2102  0.7180  2.0915
  774MOL0     O 4356   3.899   6.950   3.697 -0.2919  0.7614  0.1935
  774MOL0     C 4357   3.809   7.023   3.656  0.7244 -0.3520  0.1492
  774MOL0     O 4358   3.819   7.120   3.554  0.6982  0.3344 -0.5100
  774MOL0     C 4359   3.927   7.096   3.473 -0.6260 -0.8181 -0.1854
  774MOL0     C 4360   3.914   7.034   3.347 -0.2138 -0.3146  0.1596
  774MOL0     C 4361   4.024   7.001   3.267 -0.0696 -0.4412 -0.1897
  774MOL0     C 4362   4.153   7.050   3.297  0.1348 -0.6469  0.2308
  774MOL0     O 4363   4.264   7.030   3.216  0.0162  0.6009 -0.3720
  774MOL0     C 4364   4.256   6.976   3.076 -0.3492  0.3115  0.0180
  774MOL0     C 4365   4.398   6.977   3.007 -0.5156 -0.9880  0.5772
  774MOL0     C 4366   4.484   6.869   3.068  0.1858  0.4617  0.0019
  774MOL0     C 4367   4.612   6.847   2.999 -1.0437  0.5296 -0.4734
  774MOL0     C 4368   4.711   6.748   3.074 -0.7191  0.4919 -0.0779
  774MOL0     C 4369   4.830   6.819   3.147 -0.5624 -0.8386 -0.3017
  774MOL0     C 4370   4.912   6.923   3.064 -0.3411  0.3005  0.3048
  774MOL0     C 4371   4.960   6.867   2.929 -0.0967 -0.3945  0.1849
  774MOL0     N 4372   5.072   6.773   2.942 -0.0950 -0.6792  0.1828
  774MOL0     C 4373   5.207   6.804   2.962  0.6675 -0.6659  0.4381
  774MOL0     C 4374   5.266   6.680   2.979  0.2716 -1.0096  0.1214
  774MOL0     C 4375   5.415   6.656   3.014  0.6418  0.9642  0.0767
  774MOL0     C 4376   5.500   6.750   2.933 -0.2174  0.0196 -0.1825
  774MOL0     C 4377   5.491   6.718   2.781  0.0984 -0.5403  0.6950
  774MOL0     C 4378   5.567   6.816   2.696  0.9250  0.7450 -0.2006
  774MOL0     O 4379   5.704   6.832   2.740 -0.4533 -0.3648 -0.9233
  774MOL0     C 4380   5.787   6.730   2.747 -0.0206  0.2670  0.0436
  774MOL0     C 4381   5.811   6.641   2.636  0.7543 -0.6304 -0.6040
  774MOL0     C 4382   5.909   6.545   2.652 -0.1204  0.5007  0.2650
  774MOL0     C 4383   5.988   6.528   2.771  0.0361 -0.5759 -0.0684
  774MOL0     C 4384   6.097   6.421   2.788 -0.3105 -0.2221  0.5516
  774MOL0     O 4385   6.101   6.316   2.694 -0.7149  0.3441  0.4827
  774MOL0     C 4386   6.207   6.218   2.709  0.3342 -0.4972  0.9875
  774MOL0     C 4387   6.274   6.182   2.593  0.1406  0.9144  0.3534
  774MOL0     C 4388   6.361   6.069   2.592 -0.4562 -0.6488  0.6781
  774MOL0     C 4389   6.390   6.010   2.720 -0.1455 -0.8288 -0.1684
  774MOL0     O 4390   6.484   5.910   2.719  0.1469 -0.6346 -0.4217
  774MOL0     C 4391   6.624   5.943   2.726 -0.6095 -0.2798  0.3219
  774MOL0     C 4392   6.715   5.817   2.737 -0.7508 -0.1756  0.1614
  774MOL0     C 4393   6.866   5.850   2.717 -0.2920 -0.8153  0.5404
  774MOL0     C 4394   6.951   5.735   2.765 -0.5637  0.2597 -0.1224
  774MOL0     C 4395   7.080   5.726   2.690  0.2845  0.1963  0.1493
  774MOL0     C 4396   7.177   5.843   2.723 -0.6553 -0.4756  0.1858
  774MOL0     C 4397   7.284   5.864   2.619 -0.8226 -0.5482  0.4185
  774MOL0     C 4398   7.379   5.973   2.660  0.6811  0.3504  0.2083
  774MOL0    Cl 4399   7.495   5.998   2.534 -0.9583 -0.1700 -0.0190
  774MOL0     C 4400   6.334   6.057   2.841  0.0787  0.9436 -0.0653
  774MOL0     C 4401   6.237   6.153   2.829 -0.1368 -0.6813 -0.5098
  774MOL0     O 4402   6.179   6.439   2.881  0.1346  0.3813  0.2591
  774MOL0     C 4403   5.969   6.617   2.875  0.4152  0.2730  0.2166
  774MOL0     C 4404   5.862   6.708   2.861 -0.5461  0.2349  0.4014
  774MOL0     N 4405   5.172   6.582   2.967 -0.3065 -0.1298  0.0687
  774MOL0     N 4406   5.056   6.639   2.940  0.4354  0.6340 -0.0989
  774MOL0     C 4407   4.166   7.121   3.421  0.6757  0.8605  1.0612
  774MOL0     C 4408   4.056   7.130   3.512  0.3076  0.0599  0.3714
  774MOL0     C 4409   3.679   7.029   3.740  0.0784 -0.4989  0.9349
  774MOL0     C 4410   3.573   7.100   3.682  0.4546  1.1901 -0.2875
  774MOL0     C 4411   3.448   7.110   3.746  0.2175  1.0946 -0.1136
  774MOL0     C 4412   3.429   7.050   3.873 -0.6774  0.0004 -0.6659
  774MOL0     O 4413   3.316   7.044   3.957  0.7711  0.3239  0.0700
  774MOL0     C 4414   3.201   7.109   3.906  0.6804 -0.1473 -0.1599
  774MOL0     C 4415   3.075   7.079   3.982  0.0549 -0.2231 -0.2106
  774MOL0     C 4416   2.951   7.145   3.919  0.5442 -0.0712 -0.4680
  774MOL0     C 4417   2.837   7.157   4.021  0.7047  0.4419 -0.0256
  774MOL0     C 4418   2.716   7.215   3.965 -0.8220 -0.5044 -0.1814
  774MOL0     C 4419   2.606   7.257   3.938  0.1419 -0.2400  0.0842
  774MOL0     C 4420   3.536   6.983   3.929 -0.8610  0.0242  1.3188
  774MOL0     C 4421   3.659   6.974   3.866 -0.0001  0.3286 -0.2965
  774MOL0     C 4422   3.770   6.905   3.944  0.0360 -0.4483  0.4302
  774MOL0     H 4423   3.813   7.012   3.316 -0.1839 -2.2246  1.2032
  774MOL0     H 4424   4.015   6.948   3.173 -0.7883  0.7256 -0.8063
  774MOL0     H 4425   4.218   6.873   3.074  3.1870 -1.2764  3.1317
  774MOL0     H 4426   4.193   7.035   3.009  0.5078 -1.2279 -2.2617
  774MOL0     H 4427   4.441   7.077   3.019 -1.4227 -0.4472 -0.4749
  774MOL0     H 4428   4.392   6.961   2.899  1.3547  2.6071 -0.2146
  774MOL0     H 4429   4.421   6.780   3.064  1.2870 -0.3183 -0.2991
  774MOL0     H 4430   4.507   6.877   3.175  0.6620 -2.2414  0.1579
  774MOL0     H 4431   4.603   6.819   2.894 -1.2736  2.0457 -0.8799
  774MOL0     H 4432   4.660   6.945   2.990 -1.5860  0.9823  1.2512
  774MOL0     H 4433   4.658   6.687   3.148 -1.1765  1.8189  0.7260
  774MOL0     H 4434   4.757   6.677   3.005  2.4217 -1.3360  3.5100
  774MOL0     H 4435   4.781   6.867   3.233 -0.9567 -0.4307 -0.7453
  774MOL0     H 4436   4.895   6.736   3.174  1.2778  0.4250 -0.6803
  774MOL0     H 4437   5.001   6.950   3.121  1.4577 -0.5321 -1.9775
  774MOL0     H 4438   4.856   7.015   3.046  1.0589  1.6939  2.6269
  774MOL0     H 4439   4.874   6.825   2.876  2.6222 -2.8647 -2.6471
  774MOL0     H 4440   4.990   6.957   2.873 -0.7967  1.3507  2.4625
  774MOL0     H 4441   5.252   6.902   2.950  0.4564 -0.6391 -0.2040
  774MOL0     H 4442   5.431   6.669   3.121 -2.4286 -0.2111  0.7829
  774MOL0     H 4443   5.424   6.550   2.990 -0.6609  0.9766 -0.5583
  774MOL0     H 4444   5.479   6.856   2.951  1.9809  0.4499  0.0681
  774MOL0     H 4445   5.606   6.749   2.957  0.4873  1.1776 -2.8843
  774MOL0     H 4446   5.385   6.721   2.753  0.1628 -0.6833  0.4366
  774MOL0     H 4447   5.521   6.614   2.770 -2.0508 -1.2921  1.4200
  774MOL0     H 4448   5.522   6.916   2.700  0.5291  0.6214 -1.4184
  774MOL0     H 4449   5.549   6.787   2.593 -3.3687 -1.5663  0.9533
  774MOL0     H 4450   5.753   6.660   2.547  0.3015 -0.3097 -0.2439
  774MOL0     H 4451   5.936   6.481   2.569 -1.1338  0.4113 -0.0027
  774MOL0     H 4452   6.254   6.238   2.502  1.4088  0.4295 -0.2453
  774MOL0     H 4453   6.410   6.033   2.501 -0.9401 -0.6933  0.4320
  774MOL0     H 4454   6.654   6.000   2.638  0.9146 -0.3980  0.7318
  774MOL0     H 4455   6.651   6.004   2.812  2.1074 -0.1418 -0.5352
  774MOL0     H 4456   6.701   5.760   2.829  2.0391 -0.6553  0.3965
  774MOL0     H 4457   6.676   5.753   2.657 -1.2935 -0.5174  0.6912
  774MOL0     H 4458   6.882   5.876   2.612  2.0539 -1.3894  0.6960
  774MOL0     H 4459   6.895   5.940   2.774  0.7752 -1.1579  0.5646
  774MOL0     H 4460   6.895   5.644   2.744 -2.8168  1.7634 -1.0408
  774MOL0     H 4461   6.970   5.739   2.873 -2.1589 -0.5177  0.2237
  774MOL0     H 4462   7.051   5.732   2.585  1.1017 -0.9294 -0.1525
  774MOL0     H 4463   7.139   5.635   2.705  0.3678 -0.0973 -1.7618
  774MOL0     H 4464   7.121   5.934   2.746  0.4758  0.6155 -1.1863
  774MOL0     H 4465   7.238   5.824   2.812 -0.2677  0.9882  0.2653
  774MOL0     H 4466   7.227   5.878   2.526 -1.7442 -1.2533  0.8662
  774MOL0     H 4467   7.346   5.775   2.610 -1.1237 -0.6987 -0.2127
  774MOL0     H 4468   7.314   6.060   2.668  1.6933  1.1635 -0.1320
  774MOL0     H 4469   7.430   5.952   2.755 -0.3523 -1.0100  0.5009
  774MOL0     H 4470   6.353   5.992   2.926  1.1226  2.6842  1.0727
  774MOL0     H 4471   6.184   6.187   2.917  0.5751  0.3985 -0.4711
  774MOL0     H 4472   6.037   6.625   2.960 -0.5124 -0.2946  1.0426
  774MOL0     H 4473   5.850   6.776   2.945  3.2522  1.3218  0.2497
  774MOL0     H 4474   4.262   7.159   3.451 -0.1782  4.3531 -0.1576
  774MOL0     H 4475   4.070   7.191   3.601  3.2332  0.8629 -0.5055
  774MOL0     H 4476   3.585   7.151   3.587 -0.0821  1.0826 -0.4148
  774MOL0     H 4477   3.367   7.165   3.699 -0.7794 -0.0160  0.2782
  774MOL0     H 4478   3.185   7.094   3.798 -2.5140 -0.0641  0.1867
  774MOL0     H 4479   3.210   7.218   3.901  0.0343 -0.0294  0.9608
  774MOL0     H 4480   3.095   7.099   4.087  1.2588  0.5696 -0.5740
  774MOL0     H 4481   3.064   6.970   3.979  0.7178 -0.2889 -2.4370
  774MOL0     H 4482   2.921   7.087   3.831 -0.4392  1.4335 -1.1689
  774MOL0     H 4483   2.979   7.248   3.895  0.3693  0.0045 -0.3416
  774MOL0     H 4484   2.799   7.058   4.049 -2.7097  1.7180  0.3629
  774MOL0     H 4485   2.870   7.216   4.106 -0.5692  0.6931  0.3147
  774MOL0     H 4486   2.521   7.307   3.896  1.8591  3.4603  0.5848
  774MOL0     H 4487   3.522   6.936   4.025  0.1078 -5.0815 -0.6940
  774MOL0     H 4488   3.846   6.982   3.956  0.6526 -1.0625  0.5280
  774MOL0     H 4489   3.739   6.854   4.036  2.8647 -2.2275  0.5140
  774MOL0     H 4490   3.805   6.819   3.887 -2.2826 -1.7024  0.7979
  775MOL0     O 4491   5.763  11.103   5.579  0.0670 -0.1275  0.4873
  775MOL0     C 4492   5.709  11.219   5.558  0.4018  0.9569  0.0413
  775MOL0     O 4493   5.751  11.332   5.612  0.3527  0.5411 -0.3315
  775MOL0     C 4494   5.881  11.345   5.658 -0.4115  0.8374  0.1024
  775MOL0     C 4495   5.949  11.453   5.599  0.5291 -0.9590 -0.4720
  775MOL0     C 4496   6.081  11.483   5.623 -0.6349  0.0703  0.0042
  775MOL0     C 4497   6.154  11.398   5.708  0.4514  0.0463  0.6984
  775MOL0     O 4498   6.286  11.407   5.739 -0.5892 -0.0456  0.1919
  775MOL0     C 4499   6.386  11.451   5.636  0.8794 -0.2860 -0.4728
  775MOL0     C 4500   6.532  11.432   5.688  0.7676  0.4912  0.2927
  775MOL0     C 4501   6.554  11.546   5.795 -0.0298 -2.1050 -0.0884
  775MOL0     C 4502   6.706  11.535   5.833  0.4609 -0.0102 -1.3522
  775MOL0     C 4503   6.769  11.656   5.907  0.5147  0.6766  0.5724
  775MOL0     C 4504   6.705  11.671   6.046  0.2880 -0.5060 -0.7754
  775MOL0     C 4505   6.766  11.767   6.142  0.2912 -0.2924  0.7082
  775MOL0     C 4506   6.683  11.764   6.284 -0.8398 -0.1382  0.7497
  775MOL0     N 4507   6.770  11.834   6.380  0.2827  0.1995 -0.3438
  775MOL0     C 4508   6.777  11.972   6.384  1.6770  1.0940  0.4952
  775MOL0     C 4509   6.856  11.994   6.488 -0.1644 -1.8546  0.1508
  775MOL0     C 4510   6.870  12.135   6.543 -1.2834  0.6065  0.2384
  775MOL0     C 4511   7.007  12.146   6.617  0.0585 -0.2269 -0.2493
  775MOL0     C 4512   7.122  12.107   6.533 -0.3842 -1.3060  0.0780
  775MOL0     C 4513   7.257  12.140   6.591  0.0124  0.1757 -0.6058
  775MOL0     O 4514   7.261  12.283   6.607 -0.2393  0.2482  0.3948
  775MOL0     C 4515   7.379  12.349   6.610 -0.2255  0.2790  0.6142
  775MOL0     C 4516   7.427  12.447   6.516  0.3744 -0.0935  0.0422
  775MOL0     C 4517   7.546  12.521   6.532 -0.7746  0.0976 -0.1319
  775MOL0     C 4518   7.626  12.483   6.640 -0.2889 -0.2927  0.3355
  775MOL0     C 4519   7.764  12.547   6.651  0.2604  0.1068  1.0386
  775MOL0     O 4520   7.790  12.643   6.556  0.4793  0.4461  0.2409
  775MOL0     C 4521   7.911  12.707   6.549 -0.0520 -0.0372 -0.0036
  775MOL0     C 4522   7.925  12.778   6.425  0.7683  0.0890 -1.1277
  775MOL0     C 4523   8.037  12.860   6.412 -0.3437 -0.0078 -0.1615
  775MOL0     C 4524   8.134  12.869   6.510 -0.0152  0.2602 -0.5297
  775MOL0     O 4525   8.248  12.938   6.509 -0.4165  0.1634 -0.0802
  775MOL0     C 4526   8.274  13.036   6.411 -0.3613 -0.3885 -0.4071
  775MOL0     C 4527   8.400  13.109   6.465  0.2039  0.4686  0.3214
  775MOL0     C 4528   8.524  13.026   6.445 -0.8903 -0.3623 -0.9737
  775MOL0     C 4529   8.655  13.116   6.466 -0.0322 -0.2838 -0.6064
  775MOL0     C 4530   8.778  13.041   6.450  0.4621 -0.1943 -0.0657
  775MOL0     C 4531   8.908  13.125   6.455 -0.0069 -0.0637 -0.4240
  775MOL0     C 4532   9.032  13.043   6.487  0.1997  0.4644  0.1544
  775MOL0     C 4533   9.141  13.138   6.539  1.0492 -0.3873  0.8486
  775MOL0    Cl 4534   9.214  13.197   6.385 -0.1587  0.0281 -0.4639
  775MOL0     C 4535   8.118  12.789   6.624 -0.9832 -0.2095  0.0721
  775MOL0     C 4536   8.006  12.715   6.653  0.0164  0.0618  1.2436
  775MOL0     O 4537   7.844  12.505   6.735  0.2438 -0.8442  1.2460
  775MOL0     C 4538   7.583  12.390   6.736 -0.1705 -0.5773 -0.1995
  775MOL0     C 4539   7.457  12.329   6.721  0.3000 -0.4966 -0.7866
  775MOL0     N 4540   6.888  11.880   6.547 -0.8108  0.1567 -0.2599
  775MOL0     N 4541   6.843  11.784   6.483  0.3573  0.0220  0.7157
  775MOL0     C 4542   6.080  11.299   5.774 -0.5452 -0.8514 -0.1558
  775MOL0     C 4543   5.950  11.269   5.746 -0.4310  0.2386 -0.9184
  775MOL0     C 4544   5.582  11.217   5.482 -0.7128  0.2599  0.1774
  775MOL0     C 4545   5.515  11.094   5.478 -0.5577 -0.0992  0.4589
  775MOL0     C 4546   5.394  11.074   5.406  0.4782 -0.5491  0.2924
  775MOL0     C 4547   5.339  11.183   5.328 -0.1432  1.0339  0.0008
  775MOL0     O 4548   5.235  11.151   5.250 -0.4619 -0.0738  0.3392
  775MOL0     C 4549   5.159  11.251   5.173  0.0026  1.1308  0.5185
  775MOL0     C 4550   5.070  11.340   5.255 -0.5774 -0.2989  0.2352
  775MOL0     C 4551   4.987  11.283   5.365  0.2001  0.7108 -0.2258
  775MOL0     C 4552   4.887  11.175   5.305  0.2763  0.0241  0.3277
  775MOL0     C 4553   4.771  11.136   5.401  0.2999  0.5012  1.0335
  775MOL0     C 4554   4.681  11.103   5.478 -0.4380  0.0750 -0.4967
  775MOL0     C 4555   5.418  11.306   5.333  0.1893 -0.6310  0.2954
  775MOL0     C 4556   5.542  11.325   5.403 -0.1636 -0.5653 -0.0349
  775MOL0     C 4557   5.622  11.460   5.390 -0.4795  0.4914  0.0129
  775MOL0     H 4558   5.898  11.527   5.538  1.6069 -1.2274 -1.7403
  775MOL0     H 4559   6.125  11.575   5.588 -1.3948  1.2005  1.8979
  775MOL0     H 4560   6.366  11.385   5.552 -1.5896 -0.0921 -0.1083
  775MOL0     H 4561   6.367  11.556   5.611 -0.5748  0.2762  2.5012
  775MOL0     H 4562   6.601  11.436   5.604  2.4391 -2.2034  1.4371
  775MOL0     H 4563   6.540  11.336   5.740  0.5561  0.5945  0.5239
  775MOL0     H 4564   6.491  11.554   5.884  0.2575 -0.6945  0.0036
  775MOL0     H 4565   6.541  11.645   5.750 -0.5649 -1.4766  1.3598
  775MOL0     H 4566   6.712  11.442   5.890 -0.6641  1.4282  1.3520
  775MOL0     H 4567   6.764  11.517   5.742  1.3372 -0.4141 -0.7269
  775MOL0     H 4568   6.876  11.634   5.919  0.9925  1.8472 -1.1984
  775MOL0     H 4569   6.754  11.744   5.844 -0.5961  1.1033  1.3956
  775MOL0     H 4570   6.599  11.699   6.041  0.1454 -1.2163 -2.3087
  775MOL0     H 4571   6.708  11.571   6.091 -0.7108  1.0658  3.2101
  775MOL0     H 4572   6.762  11.867   6.097 -0.3913 -1.7551 -2.8077
  775MOL0     H 4573   6.870  11.738   6.157 -0.6527 -3.8876  1.1455
  775MOL0     H 4574   6.583  11.807   6.272 -0.6182  0.0382 -0.5675
  775MOL0     H 4575   6.668  11.661   6.316  1.4876 -0.8492 -0.1809
  775MOL0     H 4576   6.724  12.040   6.318 -1.6819 -2.5810 -1.0178
  775MOL0     H 4577   6.870  12.209   6.463 -0.6447  1.0718  0.6635
  775MOL0     H 4578   6.785  12.151   6.610 -1.0128 -4.5809  2.2696
  775MOL0     H 4579   7.022  12.251   6.644  1.0054 -0.8326  1.7294
  775MOL0     H 4580   6.998  12.097   6.715  0.5120  0.7271  0.2809
  775MOL0     H 4581   7.119  12.151   6.433 -2.1548  1.8565  1.4097
  775MOL0     H 4582   7.116  11.998   6.523 -1.8884 -1.1391 -1.0815
  775MOL0     H 4583   7.336  12.112   6.521 -0.3317 -0.3109 -0.8047
  775MOL0     H 4584   7.268  12.102   6.693 -0.7744  0.6160 -0.3497
  775MOL0     H 4585   7.374  12.462   6.422 -0.1574 -3.4779 -0.3287
  775MOL0     H 4586   7.578  12.609   6.477 -0.2845  0.9975  1.5390
  775MOL0     H 4587   7.844  12.793   6.355 -0.1998 -0.4242 -0.1540
  775MOL0     H 4588   8.068  12.902   6.317  6.9404 -4.9993 -0.8108
  775MOL0     H 4589   8.287  12.994   6.310 -0.7189 -2.0300  0.1888
  775MOL0     H 4590   8.187  13.102   6.403 -0.3998 -0.5985 -2.5243
  775MOL0     H 4591   8.421  13.198   6.406  1.4011 -0.8512 -1.3512
  775MOL0     H 4592   8.378  13.134   6.570 -1.8971  0.9842 -0.1850
  775MOL0     H 4593   8.532  12.944   6.517 -1.1196  0.4578  0.0074
  775MOL0     H 4594   8.524  12.993   6.341  2.9073 -2.5025 -0.4491
  775MOL0     H 4595   8.657  13.161   6.566 -0.3609  0.7430 -1.0533
  775MOL0     H 4596   8.668  13.193   6.390  2.4616  1.0386  1.0334
  775MOL0     H 4597   8.777  12.973   6.364 -0.8384  0.1999 -0.3962
  775MOL0     H 4598   8.778  12.961   6.525 -2.6962  0.8668  1.2688
  775MOL0     H 4599   8.919  13.182   6.362 -0.7549  1.3527  0.3223
  775MOL0     H 4600   8.885  13.197   6.534  1.8026 -0.7902  0.8266
  775MOL0     H 4601   9.057  12.975   6.405 -1.1402 -1.4536  1.2560
  775MOL0     H 4602   9.009  12.978   6.572  1.7816 -2.6843 -1.6490
  775MOL0     H 4603   9.103  13.219   6.602  0.4123 -0.1727  0.1945
  775MOL0     H 4604   9.217  13.080   6.593  0.5183 -0.6835  1.2886
  775MOL0     H 4605   8.204  12.791   6.691  0.4599  2.0559 -1.7007
  775MOL0     H 4606   7.998  12.666   6.749  2.7996 -0.4436  1.3000
  775MOL0     H 4607   7.645  12.367   6.822  3.5171 -0.1843 -2.5002
  775MOL0     H 4608   7.411  12.265   6.796  0.0524 -0.3448 -0.8096
  775MOL0     H 4609   6.140  11.242   5.845 -0.8806 -1.6308 -0.4876
  775MOL0     H 4610   5.898  11.186   5.793  3.0073 -2.8868 -2.1471
  775MOL0     H 4611   5.550  11.013   5.540  4.1457  1.4701  0.2165
  775MOL0     H 4612   5.337  10.982   5.404 -1.7308  0.7160  1.4530
  775MOL0     H 4613   5.097  11.196   5.102  0.6410 -0.2199  0.9803
  775MOL0     H 4614   5.240  11.312   5.131 -0.5542  4.3688  3.6012
  775MOL0     H 4615   5.007  11.399   5.187 -1.5447 -3.3867 -1.7674
  775MOL0     H 4616   5.134  11.408   5.311  0.6429  0.2205 -1.7162
  775MOL0     H 4617   4.937  11.360   5.425  2.3093 -0.7479  3.7473
  775MOL0     H 4618   5.050  11.230   5.436 -1.1652  0.5713  0.9133
  775MOL0     H 4619   4.842  11.217   5.215  0.8951  2.9949  1.2794
  775MOL0     H 4620   4.934  11.079   5.281 -1.3838 -0.9940  0.9231
  775MOL0     H 4621   4.593  11.080   5.535 -0.7957 -0.6629 -1.3108
  775MOL0     H 4622   5.386  11.383   5.264 -3.6332 -1.5707  0.8038
  775MOL0     H 4623   5.574  11.537   5.327  1.5402  2.5502  0.8601
  775MOL0     H 4624   5.638  11.515   5.483 -1.4610 -0.7218  0.9337
  775MOL0     H 4625   5.726  11.448   5.359  0.4697 -0.2497  3.1499
  776MOL0     O 4626   9.139   5.779  10.129 -0.1571  0.0816  0.0651
  776MOL0     C 4627   9.046   5.850  10.107  0.0889  0.8475  0.0497
  776MOL0     O 4628   9.050   5.978  10.040  0.0825 -0.1818 -0.4511
  776MOL0     C 4629   9.175   6.010  10.000 -0.2947 -0.2947 -0.1353
  776MOL0     C 4630   9.251   6.104  10.077 -0.2605  0.3670  0.3105
  776MOL0     C 4631   9.380   6.118  10.045  1.1065  0.0717 -0.5748
  776MOL0     C 4632   9.431   6.082   9.921 -0.0965  0.3562 -0.3786
  776MOL0     O 4633   9.566   6.090   9.883 -0.2088  0.0320 -0.4546
  776MOL0     C 4634   9.587   6.191   9.782 -0.1286  0.0174 -0.3673
  776MOL0     C 4635   9.606   6.341   9.826 -0.5227 -0.2031 -0.2118
  776MOL0     C 4636   9.592   6.430   9.705 -0.1196  0.2686 -0.1154
  776MOL0     C 4637   9.634   6.571   9.758  0.4219  0.0702 -0.0270
  776MOL0     C 4638   9.778   6.598   9.743 -0.0872  0.3771  0.0562
  776MOL0     C 4639   9.836   6.587   9.599 -0.8130 -1.0238 -1.0726
  776MOL0     C 4640   9.987   6.639   9.604 -0.0352  0.1950 -0.3698
  776MOL0     C 4641  10.035   6.654   9.460  0.4837  0.7699 -0.2308
  776MOL0     N 4642  10.179   6.644   9.443 -1.0055  0.3561 -0.1333
  776MOL0     C 4643  10.247   6.526   9.454 -0.6921 -0.1735 -0.1498
  776MOL0     C 4644  10.374   6.561   9.477  0.5335  0.9151 -0.8883
  776MOL0     C 4645  10.480   6.464   9.499  0.6005 -0.0061 -0.7045
  776MOL0     C 4646  10.621   6.524   9.482 -0.0357  0.3303 -0.0273
  776MOL0     C 4647  10.717   6.426   9.550 -0.3263  0.4140 -0.4800
  776MOL0     C 4648  10.865   6.474   9.549  0.5788  0.4481  0.4960
  776MOL0     O 4649  10.900   6.466   9.407 -0.1072 -0.8478 -0.2245
  776MOL0     C 4650  11.028   6.504   9.371  0.5457  0.1557 -0.8694
  776MOL0     C 4651  11.053   6.506   9.233 -0.5279  0.4166 -0.0359
  776MOL0     C 4652  11.171   6.551   9.178  0.1491 -0.1317 -0.2393
  776MOL0     C 4653  11.264   6.617   9.260 -1.0013  0.7871 -0.7302
  776MOL0     C 4654  11.391   6.666   9.206  0.3084 -0.1116 -0.1481
  776MOL0     O 4655  11.409   6.655   9.069 -0.5799  0.0633 -0.1415
  776MOL0     C 4656  11.530   6.652   9.006  0.1159 -0.0156  0.0106
  776MOL0     C 4657  11.515   6.674   8.868 -0.0397  0.3241  0.0957
  776MOL0     C 4658  11.629   6.658   8.786  0.6509  0.3467  0.1716
  776MOL0     C 4659  11.762   6.646   8.831 -1.0281 -0.0523  0.0880
  776MOL0     O 4660  11.870   6.647   8.746  0.2026  0.3385 -0.0808
  776MOL0     C 4661  11.992   6.587   8.795 -0.2254  0.0352  0.0236
  776MOL0     C 4662  12.095   6.552   8.689 -0.1022 -1.0871  0.8569
  776MOL0     C 4663  12.192   6.676   8.667  0.3079  0.3573  0.1869
  776MOL0     C 4664  12.279   6.655   8.539 -0.5273  0.1119  0.3687
  776MOL0     C 4665  12.355   6.782   8.511  1.2697  0.2520 -0.3206
  776MOL0     C 4666  12.449   6.772   8.387  0.3300 -0.1511 -0.0869
  776MOL0     C 4667  12.537   6.889   8.375  1.1697  0.5584  0.1663
  776MOL0     C 4668  12.594   6.894   8.229 -0.1163 -0.2651 -0.3406
  776MOL0    Cl 4669  12.696   6.757   8.180  0.4790  0.1628 -0.1150
  776MOL0     C 4670  11.776   6.647   8.972  0.7078 -0.2268 -0.0133
  776MOL0     C 4671  11.664   6.641   9.056  0.4117 -0.7134 -0.7047
  776MOL0     O 4672  11.479   6.708   9.285 -1.0917  0.6497  0.2830
  776MOL0     C 4673  11.236   6.631   9.402 -0.1913  0.6802 -0.1965
  776MOL0     C 4674  11.123   6.571   9.453  0.1585 -0.0926 -0.0487
  776MOL0     N 4675  10.385   6.700   9.480  0.3459  0.6234  0.7705
  776MOL0     N 4676  10.264   6.747   9.474 -1.0776  0.6432  0.0669
  776MOL0     C 4677   9.350   6.005   9.830 -0.5066 -0.9088 -1.4024
  776MOL0     C 4678   9.222   5.968   9.870  0.8166 -0.4343 -0.0816
  776MOL0     C 4679   8.912   5.806  10.157  0.6178  0.6780  0.3265
  776MOL0     C 4680   8.804   5.880  10.128  0.5380 -0.7595 -0.4388
  776MOL0     C 4681   8.672   5.848  10.176 -0.0512  0.5167  0.0807
  776MOL0     C 4682   8.645   5.731  10.245 -0.6245  0.8170 -0.1663
  776MOL0     O 4683   8.528   5.689  10.281 -0.0364 -0.4064 -0.1978
  776MOL0     C 4684   8.416   5.780  10.278  0.0156  0.5160  0.2322
  776MOL0     C 4685   8.296   5.706  10.347 -0.2119  0.4067  0.2312
  776MOL0     C 4686   8.166   5.782  10.349  0.2880 -0.2324 -0.7904
  776MOL0     C 4687   8.052   5.697  10.404  0.6243 -0.2904  0.6074
  776MOL0     C 4688   7.925   5.763  10.352 -0.1420  0.8667  0.6289
  776MOL0     C 4689   7.821   5.817  10.305  0.4211  0.0421 -0.2523
  776MOL0     C 4690   8.757   5.645  10.263  0.1246 -0.0809  0.3712
  776MOL0     C 4691   8.890   5.680  10.225 -0.2329  0.6832  0.1364
  776MOL0     C 4692   8.994   5.571  10.256 -0.5085  0.0887  0.0642
  776MOL0     H 4693   9.207   6.144  10.168  0.6094  0.3927  0.7255
  776MOL0     H 4694   9.450   6.166  10.113  0.3766  2.5182 -1.4651
  776MOL0     H 4695   9.681   6.167   9.731 -1.1207 -0.3992 -2.0524
  776MOL0     H 4696   9.511   6.191   9.704 -0.9392 -1.0512  0.3989
  776MOL0     H 4697   9.705   6.359   9.870  0.6869  0.0509 -2.8222
  776MOL0     H 4698   9.533   6.374   9.900  0.7998  1.3806  0.4563
  776MOL0     H 4699   9.493   6.438   9.658 -0.7638  2.5224  1.4397
  776MOL0     H 4700   9.670   6.403   9.634  0.9231  0.7740  0.8117
  776MOL0     H 4701   9.577   6.647   9.705 -0.2864  0.2249  0.9283
  776MOL0     H 4702   9.607   6.574   9.864  2.0501  0.8262  0.3927
  776MOL0     H 4703   9.791   6.698   9.786  0.8864 -0.0946  0.8873
  776MOL0     H 4704   9.837   6.526   9.799 -1.1624  2.4755  4.3116
  776MOL0     H 4705   9.849   6.482   9.571  0.1909 -0.9949 -0.7742
  776MOL0     H 4706   9.772   6.650   9.536 -1.1958 -1.4577 -1.1197
  776MOL0     H 4707  10.052   6.577   9.666  0.0816  0.1884 -0.4990
  776MOL0     H 4708   9.994   6.741   9.642 -0.3594  1.2308 -2.9253
  776MOL0     H 4709   9.979   6.571   9.414 -2.2329  1.7019  1.1958
  776MOL0     H 4710  10.001   6.751   9.423 -0.7871  1.0101  1.4537
  776MOL0     H 4711  10.206   6.426   9.462  0.7054 -0.6424  1.9118
  776MOL0     H 4712  10.477   6.407   9.592 -0.5768 -0.4718 -1.0041
  776MOL0     H 4713  10.463   6.388   9.423  0.1583 -0.1815 -0.4377
  776MOL0     H 4714  10.661   6.535   9.381  2.6827 -1.6994  0.6965
  776MOL0     H 4715  10.630   6.616   9.540 -0.5628  1.6221 -1.9244
  776MOL0     H 4716  10.717   6.327   9.502  0.5645 -0.5746  1.4378
  776MOL0     H 4717  10.689   6.420   9.656 -0.1160 -1.7617 -0.5028
  776MOL0     H 4718  10.935   6.420   9.613  2.0560  0.2748 -1.1693
  776MOL0     H 4719  10.865   6.579   9.579 -2.6132  0.4166  0.8676
  776MOL0     H 4720  10.975   6.469   9.168 -2.0226  4.2485 -0.7127
  776MOL0     H 4721  11.180   6.554   9.070  0.2951 -1.5067 -0.2758
  776MOL0     H 4722  11.411   6.693   8.844 -0.9752 -1.2949  2.4026
  776MOL0     H 4723  11.612   6.664   8.679 -0.5117 -1.0888  0.2355
  776MOL0     H 4724  12.034   6.644   8.878  0.6059 -0.8376  0.2143
  776MOL0     H 4725  11.961   6.489   8.835 -2.0793  0.6701  0.2762
  776MOL0     H 4726  12.167   6.478   8.726  2.7512  1.4901  0.8910
  776MOL0     H 4727  12.048   6.521   8.596  2.9476  2.2294 -2.0852
  776MOL0     H 4728  12.113   6.750   8.649 -2.0055 -2.0058  0.0799
  776MOL0     H 4729  12.255   6.692   8.755 -0.0696 -0.4418  0.6089
  776MOL0     H 4730  12.225   6.636   8.447  1.8808  0.3758 -1.1958
  776MOL0     H 4731  12.353   6.574   8.549 -2.1841 -1.5982 -0.7184
  776MOL0     H 4732  12.423   6.797   8.596 -0.9315  3.2573  1.1080
  776MOL0     H 4733  12.296   6.873   8.497  0.9933  0.2802  0.9179
  776MOL0     H 4734  12.511   6.683   8.398  0.2150 -0.3133 -0.7568
  776MOL0     H 4735  12.384   6.752   8.302  0.5463 -2.6647  0.2583
  776MOL0     H 4736  12.611   6.900   8.455 -0.8929  0.0702  2.2631
  776MOL0     H 4737  12.478   6.981   8.383  0.9270  0.3422  0.9286
  776MOL0     H 4738  12.510   6.893   8.159 -0.2652 -0.8921 -0.1641
  776MOL0     H 4739  12.654   6.984   8.237 -1.8023  0.9006 -0.2348
  776MOL0     H 4740  11.876   6.660   9.011  0.5883  0.9364 -0.0859
  776MOL0     H 4741  11.683   6.646   9.163  1.1847  3.9525 -0.8484
  776MOL0     H 4742  11.305   6.690   9.462  2.3942 -0.3698 -1.9116
  776MOL0     H 4743  11.117   6.574   9.561  0.7081  0.9757 -0.0326
  776MOL0     H 4744   9.398   5.966   9.741 -1.3921 -1.6575 -1.5689
  776MOL0     H 4745   9.173   5.901   9.800  1.4669  0.8021 -1.7797
  776MOL0     H 4746   8.808   5.979  10.084 -2.5360 -0.3675 -0.0611
  776MOL0     H 4747   8.588   5.913  10.154 -2.4136 -0.5297  4.7251
  776MOL0     H 4748   8.391   5.794  10.172 -1.7486  0.5948  0.6292
  776MOL0     H 4749   8.429   5.878  10.323 -0.5117  0.2460  0.9816
  776MOL0     H 4750   8.324   5.710  10.453 -3.0089 -0.9083  1.0900
  776MOL0     H 4751   8.273   5.610  10.300  2.4547 -0.4266  0.4420
  776MOL0     H 4752   8.147   5.808  10.244 -0.5569  1.6459 -0.2139
  776MOL0     H 4753   8.184   5.879  10.397  1.2146  0.9603 -3.3320
  776MOL0     H 4754   8.056   5.595  10.365  1.2668 -0.4369  1.0396
  776MOL0     H 4755   8.057   5.688  10.513  1.2372  0.2463  0.6285
  776MOL0     H 4756   7.735   5.868  10.268  2.1415  0.5963 -3.9253
  776MOL0     H 4757   8.740   5.555  10.321 -0.4480  1.4897  2.7890
  776MOL0     H 4758   9.082   5.614  10.305 -0.8602  1.2909 -0.3345
  776MOL0     H 4759   8.960   5.500  10.332 -1.0176  0.4635  0.1936
  776MOL0     H 4760   9.024   5.517  10.165 -1.0189  3.5087 -2.3080
  777MOL0     O 4761   1.685   3.868   3.312  0.5190  0.0558  0.0154
  777MOL0     C 4762   1.694   3.987   3.349  0.0249  0.1670 -0.7996
  777MOL0     O 4763   1.812   4.057   3.362 -0.1740 -0.1758 -0.5575
  777MOL0     C 4764   1.927   3.991   3.325  0.0178 -0.0391  0.0077
  777MOL0     C 4765   1.955   3.931   3.201  0.0392 -0.2185 -0.1506
  777MOL0     C 4766   2.070   3.853   3.183 -0.7483  0.2135  0.0134
  777MOL0     C 4767   2.175   3.851   3.281  0.3399  0.0752  0.2473
  777MOL0     O 4768   2.289   3.773   3.270 -0.3195 -0.3165  0.5759
  777MOL0     C 4769   2.358   3.780   3.141 -0.1318  0.0394 -0.5433
  777MOL0     C 4770   2.504   3.756   3.142 -0.3442  0.1590 -0.2353
  777MOL0     C 4771   2.562   3.743   3.003  0.1287 -0.0981  0.5499
  777MOL0     C 4772   2.628   3.873   2.945  0.1962 -0.2897  0.8973
  777MOL0     C 4773   2.704   3.837   2.820 -0.0340 -0.4723 -0.1564
  777MOL0     C 4774   2.606   3.815   2.702 -0.1262 -0.0467 -0.3700
  777MOL0     C 4775   2.686   3.809   2.572 -0.3133  0.5488 -0.1853
  777MOL0     C 4776   2.796   3.699   2.571  0.5230 -0.3156 -0.3639
  777MOL0     N 4777   2.877   3.714   2.454  0.4745  0.6665  0.4966
  777MOL0     C 4778   3.005   3.755   2.463 -0.5855 -0.3759  0.8096
  777MOL0     C 4779   3.055   3.747   2.336  0.1398 -0.1601 -0.1330
  777MOL0     C 4780   3.182   3.804   2.279  0.8651  0.2831  0.7065
  777MOL0     C 4781   3.313   3.747   2.323 -0.5843  0.4021 -0.1056
  777MOL0     C 4782   3.430   3.831   2.262  0.1941 -1.1410  0.5149
  777MOL0     C 4783   3.569   3.769   2.279 -0.5977  0.5285  0.1271
  777MOL0     O 4784   3.569   3.666   2.179  0.5535  0.0688 -0.4302
  777MOL0     C 4785   3.685   3.626   2.120 -0.2886  0.0482  0.0660
  777MOL0     C 4786   3.684   3.563   1.992  0.4340 -0.2475  0.4469
  777MOL0     C 4787   3.803   3.529   1.926  0.1960 -0.2776  0.4104
  777MOL0     C 4788   3.927   3.553   1.984  0.3175 -0.4916 -0.0334
  777MOL0     C 4789   4.051   3.521   1.911  0.6328 -1.0071  0.2051
  777MOL0     O 4790   4.167   3.539   1.980  0.6150 -0.3973 -0.8513
  777MOL0     C 4791   4.285   3.522   1.913  0.5541  0.2258  0.0924
  777MOL0     C 4792   4.395   3.594   1.958 -0.1126  0.1548  0.1459
  777MOL0     C 4793   4.522   3.574   1.899  0.1401  0.1044  0.3055
  777MOL0     C 4794   4.554   3.485   1.800  0.1507  0.7075 -0.6650
  777MOL0     O 4795   4.680   3.489   1.747 -0.1138 -0.3709  0.8399
  777MOL0     C 4796   4.717   3.362   1.691  0.6563 -1.4146 -0.1796
  777MOL0     C 4797   4.856   3.358   1.641  0.6533  1.1829 -0.3414
  777MOL0     C 4798   4.886   3.212   1.610 -1.1575  0.5894 -0.1276
  777MOL0     C 4799   5.030   3.219   1.558 -0.7469 -0.0107 -0.5743
  777MOL0     C 4800   5.086   3.079   1.538 -0.4424  0.6975 -0.3195
  777MOL0     C 4801   5.236   3.086   1.499 -0.6071  0.2174  0.0756
  777MOL0     C 4802   5.254   3.173   1.375 -0.9864  0.3786  0.2963
  777MOL0     C 4803   5.392   3.163   1.332 -0.0193  0.1521 -0.6135
  777MOL0    Cl 4804   5.419   3.288   1.204  0.3517  0.4176  0.1038
  777MOL0     C 4805   4.449   3.393   1.774 -0.9658 -0.2947 -0.5931
  777MOL0     C 4806   4.316   3.417   1.818 -0.0097  0.5482  0.3005
  777MOL0     O 4807   4.038   3.480   1.792  0.5547  0.5355 -0.0035
  777MOL0     C 4808   3.928   3.607   2.114 -1.1975  0.0944 -0.4344
  777MOL0     C 4809   3.810   3.657   2.176 -0.7114  0.8575  1.2227
  777MOL0     N 4810   2.955   3.696   2.258 -0.3053  0.2261 -0.3125
  777MOL0     N 4811   2.847   3.680   2.324 -0.1668  0.3593  0.0236
  777MOL0     C 4812   2.150   3.916   3.398  0.4267 -0.0290 -0.0997
  777MOL0     C 4813   2.035   3.984   3.422  0.2512 -0.7195  0.2714
  777MOL0     C 4814   1.576   4.052   3.396  0.9876  0.2195  0.0128
  777MOL0     C 4815   1.591   4.148   3.492  0.1820 -0.4628  0.1690
  777MOL0     C 4816   1.480   4.204   3.561 -0.4696  0.2572 -0.5314
  777MOL0     C 4817   1.351   4.165   3.526  0.3987 -0.0108 -0.7704
  777MOL0     O 4818   1.239   4.210   3.589 -0.4460 -0.2031  0.4984
  777MOL0     C 4819   1.240   4.300   3.695  0.2999  0.3573 -0.0947
  777MOL0     C 4820   1.100   4.341   3.745  0.4099  0.0190 -0.9116
  777MOL0     C 4821   1.094   4.362   3.905  0.3905  0.3943 -0.1691
  777MOL0     C 4822   0.949   4.372   3.963  0.0602 -0.2687 -0.7616
  777MOL0     C 4823   0.903   4.508   3.915 -0.3837  0.7408 -0.5471
  777MOL0     C 4824   0.853   4.615   3.893  0.9272  0.6705 -1.1561
  777MOL0     C 4825   1.339   4.071   3.428  0.2468 -0.2176  0.2275
  777MOL0     C 4826   1.442   4.011   3.361 -0.1359  0.2176 -0.2538
  777MOL0     C 4827   1.408   3.909   3.254  0.0633 -0.3072  0.0455
  777MOL0     H 4828   1.886   3.925   3.118 -1.0570  0.6468  0.6565
  777MOL0     H 4829   2.078   3.792   3.093 -0.3259 -0.7985  0.7203
  777MOL0     H 4830   2.307   3.709   3.075 -2.6330  2.0644 -0.9399
  777MOL0     H 4831   2.335   3.874   3.090 -0.5060  0.5300  0.5038
  777MOL0     H 4832   2.531   3.668   3.200  2.6702  0.3793 -1.1359
  777MOL0     H 4833   2.559   3.842   3.182  2.2393 -2.5356  2.4710
  777MOL0     H 4834   2.485   3.719   2.929 -2.5796 -0.1979  3.2081
  777MOL0     H 4835   2.636   3.662   3.009  0.4563  0.0280 -1.2019
  777MOL0     H 4836   2.576   3.970   2.952  1.8601  0.5337  2.9213
  777MOL0     H 4837   2.705   3.894   3.019  0.4188  0.4444  0.4694
  777MOL0     H 4838   2.777   3.914   2.793 -0.0121 -0.8419 -1.1883
  777MOL0     H 4839   2.759   3.747   2.849  0.7170  0.5960  1.9418
  777MOL0     H 4840   2.540   3.729   2.714 -0.3382  0.4569  3.2058
  777MOL0     H 4841   2.536   3.898   2.695 -1.7798 -1.0831  2.3532
  777MOL0     H 4842   2.725   3.908   2.549 -2.3782  1.6446  0.7295
  777MOL0     H 4843   2.613   3.788   2.493  1.0285 -0.3178 -1.2390
  777MOL0     H 4844   2.862   3.702   2.658 -0.6830  0.0800  0.5561
  777MOL0     H 4845   2.755   3.598   2.581 -0.7032  0.3091  1.3070
  777MOL0     H 4846   3.057   3.796   2.549 -2.8169  1.1621  1.5363
  777MOL0     H 4847   3.177   3.802   2.169  0.5418  1.0906  0.6950
  777MOL0     H 4848   3.182   3.910   2.307  1.1126  0.2469  0.8445
  777MOL0     H 4849   3.322   3.750   2.432 -2.9195 -0.3564  0.1620
  777MOL0     H 4850   3.324   3.641   2.295  2.2634  0.8405 -1.0124
  777MOL0     H 4851   3.435   3.926   2.315 -2.3643 -0.2002 -0.7606
  777MOL0     H 4852   3.413   3.847   2.155 -1.0575 -1.9768  0.5672
  777MOL0     H 4853   3.572   3.724   2.378 -1.7117  1.5397  0.6519
  777MOL0     H 4854   3.647   3.845   2.271 -0.5541  0.5445  0.6580
  777MOL0     H 4855   3.586   3.555   1.946  0.2170  1.2047  0.5961
  777MOL0     H 4856   3.783   3.478   1.832 -1.5289  0.9530  0.0569
  777MOL0     H 4857   4.383   3.671   2.034  1.3460 -1.4354  2.1010
  777MOL0     H 4858   4.607   3.636   1.925 -0.1364  1.0071 -0.9125
  777MOL0     H 4859   4.699   3.280   1.762  1.2850 -1.2592  0.1617
  777MOL0     H 4860   4.648   3.346   1.607  0.1380  0.0067 -0.0420
  777MOL0     H 4861   4.869   3.409   1.545 -1.8126 -0.3068 -1.5535
  777MOL0     H 4862   4.932   3.392   1.712 -0.0041 -0.4729  1.2332
  777MOL0     H 4863   4.887   3.145   1.697  2.9206 -2.3061 -2.0695
  777MOL0     H 4864   4.821   3.164   1.537 -0.7994 -0.8795  0.4760
  777MOL0     H 4865   5.101   3.270   1.624  1.4670 -0.0266 -2.7865
  777MOL0     H 4866   5.033   3.279   1.467 -3.1865  3.2569  1.3081
  777MOL0     H 4867   5.036   3.025   1.457  1.1262  0.0896 -0.9270
  777MOL0     H 4868   5.059   3.010   1.619 -1.8912  0.4324 -0.9852
  777MOL0     H 4869   5.300   3.129   1.576  1.0687  0.3880 -1.3610
  777MOL0     H 4870   5.281   2.987   1.491  0.0384  0.4471  0.8037
  777MOL0     H 4871   5.234   3.278   1.397  0.4364  0.9065 -0.8023
  777MOL0     H 4872   5.187   3.156   1.290 -1.3210 -3.3944  1.1246
  777MOL0     H 4873   5.453   3.185   1.421  0.4512  0.5694 -1.0379
  777MOL0     H 4874   5.417   3.062   1.300  1.5838  0.5183 -0.6036
  777MOL0     H 4875   4.466   3.313   1.704 -0.1460 -2.0454  1.4984
  777MOL0     H 4876   4.232   3.357   1.787  0.7670 -0.1192 -0.5655
  777MOL0     H 4877   4.023   3.614   2.166 -1.4501  0.9938 -0.0747
  777MOL0     H 4878   3.812   3.705   2.273 -0.8183 -2.1111  2.8158
  777MOL0     H 4879   2.213   3.927   3.485  0.0958 -0.1166  0.1531
  777MOL0     H 4880   2.009   4.030   3.517 -1.1179 -0.8538 -0.0117
  777MOL0     H 4881   1.686   4.193   3.518  0.2488 -1.9169  2.7022
  777MOL0     H 4882   1.495   4.281   3.636  0.5705 -0.8104  0.4215
  777MOL0     H 4883   1.293   4.394   3.676 -0.6302  0.6402 -1.4256
  777MOL0     H 4884   1.294   4.245   3.773  0.1728 -1.0941 -0.9883
  777MOL0     H 4885   1.030   4.261   3.719  0.0750  1.0552 -3.4429
  777MOL0     H 4886   1.063   4.432   3.697  1.6646  0.8930 -0.2814
  777MOL0     H 4887   1.138   4.459   3.932 -2.6840  1.2792  2.3923
  777MOL0     H 4888   1.146   4.283   3.960 -3.2276  0.6672  4.3162
  777MOL0     H 4889   0.881   4.293   3.930 -2.2609  1.7350 -1.0671
  777MOL0     H 4890   0.959   4.367   4.071 -0.9004  4.7409 -0.1671
  777MOL0     H 4891   0.787   4.697   3.874  0.8004  1.5267  2.3137
  777MOL0     H 4892   1.240   4.029   3.412 -0.1180 -1.1482  4.0694
  777MOL0     H 4893   1.482   3.924   3.174  1.4412  1.1080  1.5232
  777MOL0     H 4894   1.414   3.810   3.299  1.1783  0.3858  1.4927
  777MOL0     H 4895   1.308   3.929   3.215 -0.3192 -0.5891  0.8717
  778MOL0     O 4896   8.452   5.482   6.381 -0.4098  0.8063  0.2617
  778MOL0     C 4897   8.463   5.596   6.421 -0.1645  0.1992 -0.0115
  778MOL0     O 4898   8.580   5.661   6.444 -0.4389  0.4357 -0.0612
  778MOL0     C 4899   8.697   5.603   6.409 -0.4971 -0.3279  0.3880
  778MOL0     C 4900   8.732   5.481   6.449  0.3871 -0.3291  0.0187
  778MOL0     C 4901   8.851   5.419   6.408  0.1374  0.1299  0.1095
  778MOL0     C 4902   8.939   5.490   6.327 -0.1297 -0.2799 -0.4655
  778MOL0     O 4903   9.053   5.422   6.287 -0.2872  0.0514  0.3440
  778MOL0     C 4904   9.129   5.466   6.176 -0.3962  0.3291  0.4691
  778MOL0     C 4905   9.219   5.584   6.217  0.3954  0.0416 -0.5788
  778MOL0     C 4906   9.316   5.543   6.333 -0.1455 -0.7916 -0.5784
  778MOL0     C 4907   9.412   5.660   6.358 -0.0102  0.2648  0.0570
  778MOL0     C 4908   9.520   5.609   6.461  0.5026 -0.2472 -0.0262
  778MOL0     C 4909   9.627   5.723   6.474  0.2596  0.4078 -0.1896
  778MOL0     C 4910   9.730   5.680   6.576 -0.9175  0.5015 -0.9062
  778MOL0     C 4911   9.845   5.788   6.594 -0.2111 -0.3616  0.6114
  778MOL0     N 4912   9.954   5.767   6.692  0.0056 -0.0807  0.0360
  778MOL0     C 4913  10.026   5.650   6.699  0.4653 -0.0098 -0.6793
  778MOL0     C 4914  10.130   5.672   6.783 -0.3485  0.3111 -0.8559
  778MOL0     C 4915  10.238   5.571   6.807  0.2894  0.8481 -0.2778
  778MOL0     C 4916  10.381   5.638   6.789  0.4826  0.3207  0.2524
  778MOL0     C 4917  10.404   5.712   6.642 -0.4232 -0.6380  1.0411
  778MOL0     C 4918  10.537   5.790   6.643  0.7020 -0.4213  0.2344
  778MOL0     O 4919  10.646   5.706   6.691  0.7682  0.2916  0.0317
  778MOL0     C 4920  10.702   5.618   6.608 -0.0840 -0.2188 -0.7950
  778MOL0     C 4921  10.673   5.605   6.470 -0.8589 -0.3493 -0.5639
  778MOL0     C 4922  10.745   5.512   6.394 -0.3967  0.0157 -0.8838
  778MOL0     C 4923  10.846   5.427   6.451 -0.1760 -0.3463 -0.7379
  778MOL0     C 4924  10.916   5.321   6.376 -0.3631 -0.2299  0.6012
  778MOL0     O 4925  10.941   5.345   6.243 -0.2398  0.0389 -0.2950
  778MOL0     C 4926  10.960   5.231   6.165 -0.0818 -1.0753 -0.8351
  778MOL0     C 4927  11.045   5.250   6.054 -0.0975  0.8830 -0.1004
  778MOL0     C 4928  11.063   5.144   5.964 -0.1393 -0.0981 -0.3947
  778MOL0     C 4929  11.009   5.018   5.978  0.1262 -1.5285 -0.4039
  778MOL0     O 4930  11.035   4.927   5.887 -0.2541  0.0997 -0.4257
  778MOL0     C 4931  11.017   4.799   5.931 -0.8894  0.2779  0.7683
  778MOL0     C 4932  11.070   4.716   5.819 -0.4188 -0.0411  0.4404
  778MOL0     C 4933  11.114   4.582   5.871  0.5341  0.3813 -0.4927
  778MOL0     C 4934  11.001   4.494   5.935  0.2206  0.2332  0.3995
  778MOL0     C 4935  11.057   4.352   5.970 -0.1356 -0.5674  0.2745
  778MOL0     C 4936  10.959   4.270   6.053  0.9452 -0.2297 -0.6988
  778MOL0     C 4937  11.024   4.146   6.110 -0.4224 -1.2478  0.3601
  778MOL0     C 4938  10.922   4.067   6.191 -0.0812 -0.0636  0.1580
  778MOL0    Cl 4939  10.989   3.914   6.209  0.0659  0.1986  0.0953
  778MOL0     C 4940  10.924   5.005   6.086  0.6885 -0.5593 -0.0134
  778MOL0     C 4941  10.899   5.108   6.178  0.5060 -0.3358  0.3185
  778MOL0     O 4942  10.944   5.221   6.440  0.0243  0.3074  0.0223
  778MOL0     C 4943  10.866   5.436   6.587 -0.7500  0.4854  0.4112
  778MOL0     C 4944  10.797   5.526   6.661 -0.0629  0.8605  0.9219
  778MOL0     N 4945  10.122   5.807   6.826  0.4691  0.9846  0.6001
  778MOL0     N 4946  10.024   5.862   6.762  0.1634 -0.2008 -1.3530
  778MOL0     C 4947   8.899   5.614   6.267  0.2233 -0.1674 -0.9368
  778MOL0     C 4948   8.773   5.661   6.300  0.2526 -0.0571 -1.0071
  778MOL0     C 4949   8.346   5.690   6.429  0.2600  0.8115  0.6639
  778MOL0     C 4950   8.368   5.831   6.416  0.2136 -0.0008  0.6489
  778MOL0     C 4951   8.251   5.918   6.417 -0.0835  1.0948  0.2337
  778MOL0     C 4952   8.126   5.872   6.438  0.0876 -0.1469  0.1097
  778MOL0     O 4953   8.029   5.965   6.436  0.4159 -0.2691  0.2217
  778MOL0     C 4954   7.917   5.961   6.518  0.2060 -0.2298 -0.3237
  778MOL0     C 4955   7.793   5.894   6.454  1.0305  0.6998 -0.8235
  778MOL0     C 4956   7.752   5.950   6.317 -0.0903 -0.8669  0.3323
  778MOL0     C 4957   7.608   5.920   6.293 -1.0042 -0.4884  0.3756
  778MOL0     C 4958   7.536   6.026   6.228  0.0889 -0.0627  0.7928
  778MOL0     C 4959   7.470   6.100   6.169 -0.0876  0.2619  0.4527
  778MOL0     C 4960   8.108   5.737   6.465  0.1125  0.4069 -0.3826
  778MOL0     C 4961   8.216   5.642   6.462 -0.3040  0.1322  0.5203
  778MOL0     C 4962   8.191   5.490   6.496 -0.7542 -0.1967  0.5816
  778MOL0     H 4963   8.677   5.429   6.526  1.1909 -0.4047  0.5563
  778MOL0     H 4964   8.876   5.325   6.456 -0.8918  0.1136  0.6399
  778MOL0     H 4965   9.199   5.385   6.153  0.0849  0.8916 -0.0860
  778MOL0     H 4966   9.069   5.479   6.086 -0.3462 -2.1012  0.0058
  778MOL0     H 4967   9.163   5.672   6.248  1.1009  0.4680 -0.4950
  778MOL0     H 4968   9.279   5.621   6.133 -1.5225  1.2514 -1.4903
  778MOL0     H 4969   9.367   5.448   6.317  0.1738 -0.7488  0.1466
  778MOL0     H 4970   9.267   5.525   6.429  0.8793 -1.3185 -0.1358
  778MOL0     H 4971   9.460   5.686   6.264 -1.5307  1.1517 -0.5115
  778MOL0     H 4972   9.355   5.747   6.394 -0.3812 -0.1882  0.5860
  778MOL0     H 4973   9.470   5.596   6.557  2.4761  1.5201  1.3164
  778MOL0     H 4974   9.557   5.514   6.420 -0.0627 -0.2816 -0.4854
  778MOL0     H 4975   9.668   5.743   6.375 -2.0844 -0.8420 -1.5003
  778MOL0     H 4976   9.588   5.819   6.508  1.9134  1.3270 -0.8025
  778MOL0     H 4977   9.772   5.580   6.561 -2.5778 -0.0752 -1.8964
  778MOL0     H 4978   9.683   5.679   6.675  0.8199 -1.8690 -0.0194
  778MOL0     H 4979   9.903   5.783   6.500  0.0582 -2.5895  0.8341
  778MOL0     H 4980   9.810   5.891   6.600 -0.0523 -0.3872  2.6228
  778MOL0     H 4981  10.002   5.559   6.644  1.4454 -1.2634  0.8748
  778MOL0     H 4982  10.232   5.519   6.903 -0.3087 -0.8209 -1.1931
  778MOL0     H 4983  10.217   5.488   6.740 -4.3582 -0.7059  2.6097
  778MOL0     H 4984  10.395   5.718   6.863 -0.3845 -0.2026  1.0040
  778MOL0     H 4985  10.455   5.557   6.795 -0.6929 -0.7866  0.2654
  778MOL0     H 4986  10.332   5.789   6.617 -0.1640 -0.7428 -0.0909
  778MOL0     H 4987  10.388   5.636   6.565  1.1465 -1.1319  1.1437
  778MOL0     H 4988  10.527   5.879   6.706 -0.1857 -0.4601  0.1559
  778MOL0     H 4989  10.571   5.826   6.546 -0.7025  0.3921  0.0127
  778MOL0     H 4990  10.591   5.658   6.424 -1.5892  1.0875  2.2009
  778MOL0     H 4991  10.733   5.501   6.287  1.1672 -2.4749 -0.8965
  778MOL0     H 4992  11.079   5.353   6.050  0.3077  0.7532 -0.0150
  778MOL0     H 4993  11.116   5.173   5.874  0.5709  0.3344  0.1500
  778MOL0     H 4994  11.064   4.766   6.025 -3.5450 -0.4667  1.9355
  778MOL0     H 4995  10.909   4.784   5.943 -0.8478  0.7592  1.9466
  778MOL0     H 4996  11.005   4.698   5.733  1.3393  3.2578 -1.8245
  778MOL0     H 4997  11.159   4.766   5.779  0.4217 -1.9380 -0.1439
  778MOL0     H 4998  11.149   4.528   5.782  0.5757  0.1027 -0.3119
  778MOL0     H 4999  11.192   4.589   5.948 -3.2024  1.3046  3.6028
  778MOL0     H 5000  10.914   4.505   5.868 -0.0434  1.0931  0.8623
  778MOL0     H 5001  10.974   4.544   6.028 -0.5222 -0.5361  0.6106
  778MOL0     H 5002  11.157   4.365   6.014  0.9160 -1.5116 -1.6720
  778MOL0     H 5003  11.054   4.295   5.876 -1.6781 -0.8380  0.4647
  778MOL0     H 5004  10.924   4.329   6.138  1.7974 -1.9308  0.8977
  778MOL0     H 5005  10.874   4.247   5.989  0.6101 -1.0954  0.0407
  778MOL0     H 5006  11.106   4.169   6.179 -0.5274  0.2370  0.0406
  778MOL0     H 5007  11.064   4.085   6.028 -3.3580 -1.5316 -0.9779
  778MOL0     H 5008  10.904   4.121   6.284  1.6100  0.6007  0.1323
  778MOL0     H 5009  10.825   4.062   6.140 -1.2512  0.0641  2.2305
  778MOL0     H 5010  10.879   4.909   6.110  1.7295 -0.6950  1.5368
  778MOL0     H 5011  10.820   5.082   6.248  0.1089  1.1020  0.4327
  778MOL0     H 5012  10.939   5.375   6.640  0.5613  1.6408 -0.0419
  778MOL0     H 5013  10.809   5.552   6.766 -0.1659  1.5951  0.7569
  778MOL0     H 5014   8.956   5.663   6.189 -1.8766  2.4644 -0.9638
  778MOL0     H 5015   8.734   5.753   6.258  0.6657  1.7563  2.2285
  778MOL0     H 5016   8.464   5.877   6.397  0.4103 -0.5271  0.3638
  778MOL0     H 5017   8.268   6.026   6.411  2.9919  0.8638  2.3256
  778MOL0     H 5018   7.878   6.062   6.533  1.9567  0.2490  1.4729
  778MOL0     H 5019   7.941   5.917   6.615 -1.8152 -0.7990 -0.0402
  778MOL0     H 5020   7.716   5.879   6.530  0.9564 -0.1758 -1.0524
  778MOL0     H 5021   7.840   5.800   6.423  0.5514  0.8122 -1.9774
  778MOL0     H 5022   7.821   5.915   6.239  2.4324  1.0236  1.5976
  778MOL0     H 5023   7.765   6.055   6.344  0.7037 -1.1624  1.1319
  778MOL0     H 5024   7.614   5.830   6.231  0.5426 -0.0440 -0.1895
  778MOL0     H 5025   7.558   5.890   6.385  0.4771 -4.9153 -0.0142
  778MOL0     H 5026   7.414   6.180   6.124 -0.7998 -0.5003 -0.0650
  778MOL0     H 5027   8.010   5.700   6.492 -1.3265  2.5661 -2.2611
  778MOL0     H 5028   8.087   5.462   6.512 -0.2670 -1.2100  2.1423
  778MOL0     H 5029   8.223   5.427   6.413  2.3835  0.7001  0.9564
  778MOL0     H 5030   8.242   5.464   6.589  1.5913  0.3191 -0.4978
  779MOL0     O 5031  10.589   7.535   5.842 -0.0739 -0.2587 -0.3971
  779MOL0     C 5032  10.508   7.626   5.870 -0.8410 -0.0893 -0.2515
  779MOL0     O 5033  10.540   7.756   5.889 -0.2276  0.1164  0.4643
  779MOL0     C 5034  10.648   7.827   5.846  0.2570  0.5251  0.6618
  779MOL0     C 5035  10.782   7.796   5.869  0.6770  0.5494  0.0278
  779MOL0     C 5036  10.877   7.891   5.834  0.0707  0.6645  0.4376
  779MOL0     C 5037  10.844   8.016   5.787 -1.2168 -0.2973  1.5255
  779MOL0     O 5038  10.937   8.111   5.754 -0.5138  0.5640 -0.2685
  779MOL0     C 5039  11.050   8.125   5.847  0.0071 -0.4876  0.0120
  779MOL0     C 5040  11.146   8.227   5.777 -0.2070 -0.0826 -0.3499
  779MOL0     C 5041  11.219   8.162   5.655  0.0191  0.3324  0.3097
  779MOL0     C 5042  11.296   8.266   5.563  0.0770 -0.1045 -0.5144
  779MOL0     C 5043  11.375   8.200   5.446  0.1566 -0.3775 -1.0011
  779MOL0     C 5044  11.456   8.311   5.383 -0.1756 -0.0154  0.0997
  779MOL0     C 5045  11.564   8.250   5.292  0.4427  0.4146  0.3382
  779MOL0     C 5046  11.656   8.367   5.247  0.0327 -0.6746 -0.5361
  779MOL0     N 5047  11.746   8.327   5.138  0.1430 -0.3305 -0.3006
  779MOL0     C 5048  11.877   8.299   5.160  0.2542 -0.1539  0.5733
  779MOL0     C 5049  11.927   8.283   5.037 -0.2353  0.7955 -0.2151
  779MOL0     C 5050  12.068   8.247   5.008 -0.8923  1.1863 -0.1646
  779MOL0     C 5051  12.088   8.107   5.074 -0.7639 -0.5329  0.3816
  779MOL0     C 5052  12.188   8.024   4.995  0.0967  0.1097  0.0581
  779MOL0     C 5053  12.228   7.896   5.061  0.5148 -0.1838  0.4949
  779MOL0     O 5054  12.301   7.811   4.969 -0.2822 -0.2935 -0.4879
  779MOL0     C 5055  12.435   7.837   4.947  0.3107  0.4885 -0.6728
  779MOL0     C 5056  12.504   7.753   4.862 -0.1238  0.2606 -0.5003
  779MOL0     C 5057  12.640   7.756   4.849  1.0265 -0.2665 -0.0326
  779MOL0     C 5058  12.726   7.851   4.921  0.4644  0.0454  0.2741
  779MOL0     C 5059  12.865   7.870   4.888  0.2073  0.2866 -0.6808
  779MOL0     O 5060  12.940   7.961   4.958 -0.5470  0.5422  0.4185
  779MOL0     C 5061  13.064   8.001   4.911  0.5080 -0.6476  0.1473
  779MOL0     C 5062  13.174   7.920   4.910 -0.3988 -0.0783 -0.5322
  779MOL0     C 5063  13.298   7.960   4.864  0.1173 -0.4801 -0.7547
  779MOL0     C 5064  13.319   8.093   4.804  0.8310  0.0652 -0.1179
  779MOL0     O 5065  13.440   8.127   4.753 -0.2282 -0.7213  0.0318
  779MOL0     C 5066  13.453   8.263   4.706 -0.2490  0.0902  0.6868
  779MOL0     C 5067  13.589   8.255   4.633  0.2430 -0.1764 -0.3205
  779MOL0     C 5068  13.587   8.163   4.505  0.4288 -0.3206 -0.2413
  779MOL0     C 5069  13.710   8.181   4.416 -0.7720 -0.0400 -0.1903
  779MOL0     C 5070  13.848   8.119   4.475  0.4117 -0.4939 -0.3512
  779MOL0     C 5071  13.975   8.161   4.403  1.0409 -1.0318 -0.1355
  779MOL0     C 5072  14.102   8.114   4.469 -0.6487 -0.1273  0.0475
  779MOL0     C 5073  14.212   8.213   4.431 -0.1567 -0.4744  0.6225
  779MOL0    Cl 5074  14.177   8.390   4.475 -0.2165 -0.1710 -0.2172
  779MOL0     C 5075  13.203   8.181   4.809  0.5552 -0.7618 -0.5495
  779MOL0     C 5076  13.085   8.137   4.867  0.3688  0.4185  0.1636
  779MOL0     O 5077  12.907   7.797   4.799 -0.8427  0.8923  0.1595
  779MOL0     C 5078  12.656   7.948   4.997 -0.6373  0.3058 -0.1644
  779MOL0     C 5079  12.517   7.934   5.017 -0.4026  0.7070  0.6673
  779MOL0     N 5080  11.828   8.310   4.941  0.4802  0.1712 -0.3961
  779MOL0     N 5081  11.717   8.324   5.009 -0.0857 -0.5033 -0.3438
  779MOL0     C 5082  10.716   8.038   5.756 -0.6473 -0.6411  0.0772
  779MOL0     C 5083  10.619   7.948   5.780  0.2571  0.3309 -0.8317
  779MOL0     C 5084  10.361   7.585   5.898  0.3159 -0.8339  0.7157
  779MOL0     C 5085  10.337   7.454   5.936  0.2495  0.6249  0.3934
  779MOL0     C 5086  10.198   7.406   5.944 -0.5366  0.1433 -0.8477
  779MOL0     C 5087  10.092   7.486   5.914  0.5487 -0.0931 -0.0608
  779MOL0     O 5088   9.965   7.430   5.910  0.1044 -0.0293 -0.1235
  779MOL0     C 5089   9.868   7.484   6.005  0.1014  0.4787 -0.4348
  779MOL0     C 5090   9.723   7.448   5.975 -0.8133 -0.1201 -0.3686
  779MOL0     C 5091   9.685   7.489   5.829 -0.5899  0.3290 -0.2626
  779MOL0     C 5092   9.598   7.615   5.829  0.4241  0.6476 -0.4738
  779MOL0     C 5093   9.675   7.736   5.869 -1.0176  0.6539 -0.5137
  779MOL0     C 5094   9.747   7.823   5.925  0.2193 -0.2149 -0.4066
  779MOL0     C 5095  10.120   7.617   5.873  0.8806 -0.1706 -0.4629
  779MOL0     C 5096  10.251   7.671   5.882  0.7273  0.8476 -0.3371
  779MOL0     C 5097  10.262   7.826   5.852 -0.1678  0.4756 -0.3119
  779MOL0     H 5098  10.799   7.694   5.901  4.3978 -0.2834 -3.7154
  779MOL0     H 5099  10.979   7.865   5.863 -0.0833 -0.6198 -0.1090
  779MOL0     H 5100  11.023   8.175   5.940  3.4044  0.5607  0.5583
  779MOL0     H 5101  11.106   8.034   5.867  0.7117  0.0665  0.6306
  779MOL0     H 5102  11.221   8.267   5.845 -0.9955 -2.0875  1.8427
  779MOL0     H 5103  11.085   8.316   5.759 -2.1701 -0.9073  1.7460
  779MOL0     H 5104  11.143   8.124   5.586  0.6864 -0.5593  0.0563
  779MOL0     H 5105  11.287   8.080   5.677  1.3750  1.5661  0.8892
  779MOL0     H 5106  11.214   8.326   5.522  0.9712  1.1412 -0.5346
  779MOL0     H 5107  11.368   8.325   5.620 -0.5761 -0.2290  0.4533
  779MOL0     H 5108  11.451   8.131   5.486  2.1424  2.1240 -0.1542
  779MOL0     H 5109  11.312   8.146   5.375 -0.8996 -1.8333  0.9133
  779MOL0     H 5110  11.383   8.372   5.330 -0.4707 -1.7109 -1.5062
  779MOL0     H 5111  11.498   8.365   5.469 -2.9122 -1.3915  2.4788
  779MOL0     H 5112  11.519   8.197   5.207 -1.3807 -1.4181  2.3305
  779MOL0     H 5113  11.623   8.176   5.346  0.1494 -1.3212 -1.5945
  779MOL0     H 5114  11.597   8.453   5.214  1.2947  0.4021 -0.0694
  779MOL0     H 5115  11.704   8.396   5.340  3.6997 -2.8828 -1.5227
  779MOL0     H 5116  11.922   8.295   5.259  0.8045  0.6929  0.3689
  779MOL0     H 5117  12.082   8.244   4.899 -0.3586 -1.7229 -0.1048
  779MOL0     H 5118  12.138   8.321   5.049 -1.6677  1.7993  0.0665
  779MOL0     H 5119  12.128   8.115   5.175  1.9785  1.6716 -0.7593
  779MOL0     H 5120  11.992   8.054   5.084  0.1599 -3.0871 -2.4350
  779MOL0     H 5121  12.265   8.092   4.958 -1.5413  1.5894 -0.8327
  779MOL0     H 5122  12.138   7.992   4.903  1.7286 -2.6226  0.0285
  779MOL0     H 5123  12.136   7.839   5.078 -1.1289  2.4115  0.9770
  779MOL0     H 5124  12.279   7.907   5.157 -1.0784 -1.7822  1.5908
  779MOL0     H 5125  12.451   7.673   4.813 -2.8689  0.9012  1.2192
  779MOL0     H 5126  12.677   7.674   4.788 -3.6504 -0.9974 -2.3544
  779MOL0     H 5127  13.173   7.817   4.947 -0.4460  0.4764  1.0742
  779MOL0     H 5128  13.385   7.895   4.860  0.8018  0.3902 -0.2562
  779MOL0     H 5129  13.373   8.276   4.632  0.0452 -0.1993  0.3091
  779MOL0     H 5130  13.444   8.341   4.782  1.1100  0.8663  0.1010
  779MOL0     H 5131  13.599   8.358   4.598 -4.7706  1.5044  2.1611
  779MOL0     H 5132  13.673   8.227   4.698 -1.3668 -1.0792  1.4948
  779MOL0     H 5133  13.578   8.056   4.525  0.6791 -0.4991 -1.0216
  779MOL0     H 5134  13.495   8.193   4.453  0.8327  0.2944 -0.6154
  779MOL0     H 5135  13.722   8.290   4.416 -2.5684  0.1803 -0.1578
  779MOL0     H 5136  13.697   8.144   4.314  1.6392  0.8193 -0.8821
  779MOL0     H 5137  13.833   8.011   4.473  0.8525 -0.6483  1.7840
  779MOL0     H 5138  13.859   8.164   4.575 -0.4937  1.3164 -1.0150
  779MOL0     H 5139  13.971   8.122   4.301  0.2500 -0.4688 -0.3271
  779MOL0     H 5140  13.971   8.270   4.406 -2.0370 -1.0520 -0.2684
  779MOL0     H 5141  14.122   8.018   4.421  0.3951 -0.3978  0.9727
  779MOL0     H 5142  14.098   8.108   4.578 -0.4353  0.2344  0.0735
  779MOL0     H 5143  14.303   8.181   4.483 -0.2626  0.8339  1.6710
  779MOL0     H 5144  14.232   8.199   4.324 -3.1402  0.4745 -0.1358
  779MOL0     H 5145  13.202   8.285   4.778 -1.6831  0.4577  2.9981
  779MOL0     H 5146  13.005   8.210   4.865 -0.2851 -0.1972  2.0574
  779MOL0     H 5147  12.701   8.037   5.040 -2.6888  1.1747  0.2795
  779MOL0     H 5148  12.486   8.005   5.094  1.2763 -0.4694  2.5056
  779MOL0     H 5149  10.676   8.131   5.717 -0.4454 -0.8275 -0.5712
  779MOL0     H 5150  10.517   7.970   5.750 -0.0638 -1.5905 -1.2820
  779MOL0     H 5151  10.420   7.384   5.943  0.2753  0.3820 -1.7513
  779MOL0     H 5152  10.182   7.301   5.967  0.5673 -0.3117 -1.9873
  779MOL0     H 5153   9.883   7.592   6.006  3.5781  0.1079  1.9002
  779MOL0     H 5154   9.879   7.447   6.107 -3.1307  3.9430  1.3908
  779MOL0     H 5155   9.668   7.500   6.053  0.4370  0.5853  0.0730
  779MOL0     H 5156   9.704   7.342   5.998 -1.1625 -0.1356 -0.7358
  779MOL0     H 5157   9.639   7.405   5.776  2.3140 -2.4499  1.2775
  779MOL0     H 5158   9.781   7.514   5.783 -0.1039 -0.4319  0.3236
  779MOL0     H 5159   9.553   7.621   5.730 -0.4122  2.0732 -0.0450
  779MOL0     H 5160   9.518   7.589   5.900  0.2633  1.0034 -0.5184
  779MOL0     H 5161   9.807   7.892   5.980 -0.7469  2.1109 -2.0907
  779MOL0     H 5162  10.035   7.679   5.847 -0.4775 -1.8935 -0.2780
  779MOL0     H 5163  10.333   7.869   5.924 -0.1565  0.0017 -0.0346
  779MOL0     H 5164  10.297   7.831   5.748  0.2470  2.7174 -0.1112
  779MOL0     H 5165  10.171   7.886   5.855  0.3195  1.1964  1.4591
  780MOL0     O 5166   2.977   3.274  10.768  0.0828 -0.0973  0.5302
  780MOL0     C 5167   2.900   3.359  10.819 -0.5033  0.2016 -0.1528
  780MOL0     O 5168   2.890   3.492  10.776 -0.2613  0.8507 -0.2151
  780MOL0     C 5169   2.998   3.551  10.705  0.5825  0.2852 -0.7548
  780MOL0     C 5170   3.128   3.525  10.725  0.3072  0.7620  0.7518
  780MOL0     C 5171   3.227   3.578  10.641 -0.4201 -0.7170 -0.1259
  780MOL0     C 5172   3.194   3.647  10.524 -0.0193  0.3727 -0.4286
  780MOL0     O 5173   3.298   3.673  10.435 -0.0230  0.1941 -0.9410
  780MOL0     C 5174   3.273   3.678  10.294  0.6080  0.2059 -0.3470
  780MOL0     C 5175   3.391   3.634  10.210 -0.0694 -0.4068  0.1338
  780MOL0     C 5176   3.517   3.713  10.247 -0.4378  0.4683  0.3686
  780MOL0     C 5177   3.503   3.860  10.210 -0.3596  0.0853 -0.1562
  780MOL0     C 5178   3.639   3.923  10.211  0.0088  0.4922 -0.0577
  780MOL0     C 5179   3.634   4.066  10.153  0.0609 -0.5051 -0.3990
  780MOL0     C 5180   3.575   4.172  10.248 -0.0818  0.1326  0.4085
  780MOL0     C 5181   3.625   4.306  10.196 -0.5285 -0.5373 -0.2941
  780MOL0     N 5182   3.762   4.331  10.237  0.6775 -0.5766 -0.1700
  780MOL0     C 5183   3.876   4.313  10.158 -0.2372 -0.3418 -0.0742
  780MOL0     C 5184   3.967   4.403  10.215  1.3195  0.5439 -0.2427
  780MOL0     C 5185   4.098   4.445  10.169  0.4815 -0.2435 -1.1852
  780MOL0     C 5186   4.135   4.385  10.034  0.6014 -0.0584  0.0776
  780MOL0     C 5187   4.284   4.445   9.992 -0.2346  0.0824 -0.5648
  780MOL0     C 5188   4.261   4.594   9.962 -0.2173 -0.1404 -0.8837
  780MOL0     O 5189   4.373   4.678   9.916  0.4977 -0.2445  0.2904
  780MOL0     C 5190   4.493   4.696   9.983  0.1434  0.6009  1.1289
  780MOL0     C 5191   4.607   4.693   9.905  0.0653 -0.2247 -0.0374
  780MOL0     C 5192   4.732   4.710   9.958  0.4357  0.2095 -0.3961
  780MOL0     C 5193   4.739   4.742  10.095 -0.5712  0.6152 -0.9987
  780MOL0     C 5194   4.874   4.756  10.165  0.4573  0.5340  0.4096
  780MOL0     O 5195   4.888   4.701  10.286 -0.7253 -0.3743  0.0456
  780MOL0     C 5196   5.004   4.726  10.353 -0.9139  0.4087  0.1055
  780MOL0     C 5197   5.130   4.681  10.309 -0.6192  0.2676  0.1603
  780MOL0     C 5198   5.242   4.696  10.388  0.1868 -0.2123 -0.6479
  780MOL0     C 5199   5.237   4.772  10.510 -0.1612  0.2858  0.6042
  780MOL0     O 5200   5.342   4.797  10.593 -0.1483 -0.2596  0.9973
  780MOL0     C 5201   5.478   4.781  10.546 -0.3318 -0.2732  0.8935
  780MOL0     C 5202   5.580   4.802  10.669  0.6447 -0.4022  0.7507
  780MOL0     C 5203   5.715   4.750  10.634 -0.0341  0.2792  0.2690
  780MOL0     C 5204   5.801   4.766  10.754  0.4419  0.3422 -0.4714
  780MOL0     C 5205   5.947   4.722  10.728 -0.4894 -0.2355 -0.4507
  780MOL0     C 5206   5.998   4.809  10.615 -1.0257  0.0474 -0.0316
  780MOL0     C 5207   6.146   4.827  10.605 -0.0719  0.1491  0.0596
  780MOL0     C 5208   6.179   4.935  10.504 -0.7493  0.2344  0.1945
  780MOL0    Cl 5209   6.130   4.873  10.341  0.1585 -0.0208 -0.7650
  780MOL0     C 5210   5.118   4.829  10.539  0.2288  0.3566 -0.3555
  780MOL0     C 5211   5.001   4.812  10.464  0.1157 -0.3950  0.1241
  780MOL0     O 5212   4.960   4.824  10.106 -0.6665 -0.3637  0.1066
  780MOL0     C 5213   4.623   4.749  10.174  0.4368  0.3210  0.2136
  780MOL0     C 5214   4.499   4.719  10.117  0.3920 -0.3517 -0.0760
  780MOL0     N 5215   3.910   4.450  10.333 -0.8564  0.0796  0.2372
  780MOL0     N 5216   3.791   4.404  10.349  0.3919  0.6001  0.3147
  780MOL0     C 5217   3.057   3.680  10.510 -0.1012 -0.4737 -0.3171
  780MOL0     C 5218   2.958   3.629  10.603 -0.0503 -0.3840  0.7818
  780MOL0     C 5219   2.809   3.327  10.936  0.3599  0.9418  0.1492
  780MOL0     C 5220   2.689   3.395  10.949  0.5837 -0.1440  1.3947
  780MOL0     C 5221   2.589   3.361  11.037  0.3770  0.2866 -1.0792
  780MOL0     C 5222   2.621   3.271  11.140 -0.3309  0.5619 -0.2645
  780MOL0     O 5223   2.533   3.242  11.241  0.3312  0.3767 -0.8135
  780MOL0     C 5224   2.398   3.292  11.229  0.3381  0.7376 -0.0300
  780MOL0     C 5225   2.309   3.238  11.348  0.6691  0.1208 -0.3170
  780MOL0     C 5226   2.272   3.090  11.323  0.5596  0.1331 -0.0094
  780MOL0     C 5227   2.192   3.033  11.441 -0.0727 -0.0218  0.0859
  780MOL0     C 5228   2.275   2.983  11.553 -0.1525  0.9465  0.4708
  780MOL0     C 5229   2.338   2.915  11.633  0.2181 -0.6317  0.7736
  780MOL0     C 5230   2.739   3.202  11.136 -0.9514  0.8838 -0.3921
  780MOL0     C 5231   2.832   3.224  11.030 -0.4332 -0.4940  0.2694
  780MOL0     C 5232   2.942   3.125  11.031  0.1865  0.3040  0.8612
  780MOL0     H 5233   3.165   3.467  10.810  0.5694  1.5147  1.1626
  780MOL0     H 5234   3.330   3.552  10.664  0.3885 -2.4893 -4.7417
  780MOL0     H 5235   3.190   3.610  10.273  1.0894 -0.3916 -0.3403
  780MOL0     H 5236   3.244   3.780  10.268 -2.7480 -0.6916 -0.6551
  780MOL0     H 5237   3.371   3.645  10.103  0.7192  1.1596  0.1062
  780MOL0     H 5238   3.403   3.526  10.216  1.5225 -0.3631 -1.3766
  780MOL0     H 5239   3.605   3.678  10.193  0.7768 -0.1100  2.5891
  780MOL0     H 5240   3.535   3.709  10.355  0.4876 -0.3731  0.1987
  780MOL0     H 5241   3.454   3.866  10.112 -0.7852 -0.9701 -0.0283
  780MOL0     H 5242   3.440   3.918  10.278 -0.9728 -0.2282 -0.4515
  780MOL0     H 5243   3.679   3.918  10.313 -0.0513 -0.6764 -0.0853
  780MOL0     H 5244   3.701   3.867  10.140 -0.7311 -0.3701 -0.0443
  780MOL0     H 5245   3.741   4.085  10.144 -0.2376  1.7688  0.3444
  780MOL0     H 5246   3.585   4.073  10.055  0.1063 -1.7109 -0.5226
  780MOL0     H 5247   3.615   4.158  10.349  0.5672 -0.2082  0.1069
  780MOL0     H 5248   3.467   4.160  10.256  0.0821 -2.2092 -0.1071
  780MOL0     H 5249   3.619   4.302  10.087 -0.4327 -1.5595 -0.2745
  780MOL0     H 5250   3.560   4.386  10.232  2.4063  2.6782 -1.6331
  780MOL0     H 5251   3.898   4.254  10.069  1.4644 -0.1167  0.1607
  780MOL0     H 5252   4.104   4.554  10.173  1.0041 -0.3195  1.5354
  780MOL0     H 5253   4.166   4.408  10.246 -2.6598  1.9589  3.1186
  780MOL0     H 5254   4.161   4.279  10.039  0.4489 -0.0911  0.1688
  780MOL0     H 5255   4.054   4.401   9.963  0.6093  0.2090  0.1298
  780MOL0     H 5256   4.325   4.389   9.908 -3.1430 -0.6732 -1.6110
  780MOL0     H 5257   4.356   4.446  10.074  1.2327  2.4303 -1.7739
  780MOL0     H 5258   4.234   4.639  10.058  0.7446 -0.9745 -0.1947
  780MOL0     H 5259   4.170   4.597   9.902 -1.3671  3.3795  0.7417
  780MOL0     H 5260   4.611   4.672   9.798  0.9330  1.9979 -0.4952
  780MOL0     H 5261   4.820   4.695   9.896  0.3339  0.2447 -0.5494
  780MOL0     H 5262   5.142   4.632  10.213  0.3266 -1.9405  1.3353
  780MOL0     H 5263   5.334   4.644  10.362  2.5640  2.7594  1.2417
  780MOL0     H 5264   5.498   4.679  10.513  0.3445  0.1481 -0.0631
  780MOL0     H 5265   5.490   4.849  10.461 -1.3027 -0.8430  0.2825
  780MOL0     H 5266   5.568   4.904  10.705 -0.0866 -0.6135  1.1340
  780MOL0     H 5267   5.540   4.743  10.752 -0.2612  0.8093  1.1985
  780MOL0     H 5268   5.708   4.645  10.606 -0.4543  0.5133 -0.5166
  780MOL0     H 5269   5.758   4.811  10.554  2.3355 -2.1776 -0.4835
  780MOL0     H 5270   5.761   4.694  10.826 -1.4356 -0.8684 -2.6325
  780MOL0     H 5271   5.799   4.871  10.787 -0.5668  0.7147 -1.6542
  780MOL0     H 5272   5.942   4.617  10.699 -2.4669 -0.7392  1.4697
  780MOL0     H 5273   6.017   4.737  10.811 -1.6890  1.4038  0.3126
  780MOL0     H 5274   5.955   4.774  10.520 -0.0862 -0.1812 -0.3842
  780MOL0     H 5275   5.969   4.913  10.631  0.8516  0.9340 -1.9318
  780MOL0     H 5276   6.196   4.731  10.585  1.9716  0.4116  3.1048
  780MOL0     H 5277   6.192   4.857  10.700  2.2268 -4.4654  0.7514
  780MOL0     H 5278   6.124   5.027  10.526 -0.9535  0.2757 -0.4686
  780MOL0     H 5279   6.286   4.958  10.502 -1.3734  3.7766 -0.6605
  780MOL0     H 5280   5.122   4.902  10.619 -0.5343 -0.8207  0.8151
  780MOL0     H 5281   4.911   4.868  10.486  0.9548  1.7925 -1.6139
  780MOL0     H 5282   4.624   4.772  10.280 -4.6612 -1.6002  0.9726
  780MOL0     H 5283   4.409   4.726  10.178  0.0019  3.6031 -0.7813
  780MOL0     H 5284   3.015   3.742  10.432  0.0328  2.1699  1.5732
  780MOL0     H 5285   2.855   3.661  10.591  0.4057  0.9365  0.2563
  780MOL0     H 5286   2.673   3.466  10.869  0.3821  0.7853  2.2365
  780MOL0     H 5287   2.487   3.397  11.024  0.2091 -0.4230 -1.7779
  780MOL0     H 5288   2.364   3.260  11.130  0.4353 -1.7322  0.6737
  780MOL0     H 5289   2.401   3.401  11.220 -1.6347  0.8911  0.7124
  780MOL0     H 5290   2.213   3.291  11.348 -1.7759 -3.8643 -1.5654
  780MOL0     H 5291   2.348   3.255  11.449  0.9870  1.0057 -0.5756
  780MOL0     H 5292   2.360   3.027  11.306  2.2272  2.2021  0.4955
  780MOL0     H 5293   2.203   3.086  11.238 -0.6593 -1.8036  1.0133
  780MOL0     H 5294   2.134   3.119  11.475 -1.5489 -0.3082 -1.5429
  780MOL0     H 5295   2.120   2.956  11.412  0.6538  0.3719 -3.1173
  780MOL0     H 5296   2.396   2.869  11.711  0.7238 -0.1838  0.6677
  780MOL0     H 5297   2.749   3.126  11.212 -0.7545  1.6325  0.3555
  780MOL0     H 5298   2.955   3.071  11.126 -1.8111 -0.8362  0.5258
  780MOL0     H 5299   2.946   3.047  10.954 -1.1604  1.2837 -0.2486
  780MOL0     H 5300   3.033   3.186  11.022  0.8256 -0.1916  3.1253
  781MOL0     O 5301   7.862   3.720  11.202  0.0797 -0.5436  0.3812
  781MOL0     C 5302   7.877   3.664  11.095 -0.7978  0.4782 -0.1238
  781MOL0     O 5303   8.006   3.646  11.034  0.4964 -0.4078 -0.3290
  781MOL0     C 5304   8.120   3.713  11.074 -0.6416 -1.2164  0.1041
  781MOL0     C 5305   8.117   3.836  11.136  0.5319 -0.5808 -0.5649
  781MOL0     C 5306   8.235   3.893  11.188  0.8393 -0.7537 -0.3601
  781MOL0     C 5307   8.359   3.838  11.154  0.1693  0.1507  0.1415
  781MOL0     O 5308   8.470   3.910  11.186  0.3904  0.1805 -0.1778
  781MOL0     C 5309   8.585   3.831  11.222 -0.1621 -0.3390  0.6597
  781MOL0     C 5310   8.699   3.929  11.229  1.0150  0.2114  0.3420
  781MOL0     C 5311   8.835   3.868  11.259 -0.2526 -0.1772 -0.3478
  781MOL0     C 5312   8.945   3.968  11.231 -0.8116  0.0882 -0.5446
  781MOL0     C 5313   9.080   3.909  11.195 -0.0241  0.0306  0.4072
  781MOL0     C 5314   9.184   4.013  11.147  0.0261  0.5430 -0.1555
  781MOL0     C 5315   9.302   3.948  11.071  0.1277 -0.5631 -0.0639
  781MOL0     C 5316   9.404   3.874  11.167 -0.4818 -0.3154  0.0605
  781MOL0     N 5317   9.535   3.844  11.111  0.0836 -0.1263 -0.1040
  781MOL0     C 5318   9.562   3.739  11.032 -0.2883 -0.1186 -0.0520
  781MOL0     C 5319   9.700   3.744  11.015  0.3518 -0.1236  0.4206
  781MOL0     C 5320   9.791   3.651  10.941 -0.5990  0.1468 -0.0495
  781MOL0     C 5321   9.943   3.681  10.962  0.1306 -0.5584 -0.8078
  781MOL0     C 5322  10.043   3.588  10.885  0.2893 -0.2983 -0.2374
  781MOL0     C 5323  10.048   3.608  10.732 -0.7467 -0.6500 -0.6598
  781MOL0     O 5324  10.149   3.524  10.681  0.2514  0.3265  0.0617
  781MOL0     C 5325  10.277   3.568  10.672  0.7995  0.7544 -0.2457
  781MOL0     C 5326  10.366   3.493  10.597 -0.0241 -0.4439 -0.1425
  781MOL0     C 5327  10.497   3.525  10.600 -0.4199  0.1073 -0.5695
  781MOL0     C 5328  10.552   3.631  10.669 -0.3329  0.2522  0.1197
  781MOL0     C 5329  10.697   3.656  10.670  0.4372 -0.4828 -0.4325
  781MOL0     O 5330  10.750   3.723  10.779 -0.4201 -0.4105  0.4215
  781MOL0     C 5331  10.881   3.740  10.782 -0.1407  0.1535 -0.0121
  781MOL0     C 5332  10.970   3.639  10.749 -0.0240 -0.4730 -1.2245
  781MOL0     C 5333  11.113   3.655  10.757  0.2462  0.1463 -0.0808
  781MOL0     C 5334  11.168   3.770  10.807  0.4320 -0.1276  0.6338
  781MOL0     O 5335  11.307   3.765  10.809 -0.0933  0.3405  0.2368
  781MOL0     C 5336  11.371   3.836  10.911 -0.7629 -0.0296  0.2340
  781MOL0     C 5337  11.443   3.960  10.853  0.3269 -0.5041  0.7987
  781MOL0     C 5338  11.518   4.035  10.962  1.0212 -0.9856 -0.0162
  781MOL0     C 5339  11.668   3.999  10.971  0.2287  0.3884  0.0142
  781MOL0     C 5340  11.745   4.087  11.072  0.7090 -0.1713  0.3847
  781MOL0     C 5341  11.890   4.028  11.080  0.4469 -0.5868  1.0892
  781MOL0     C 5342  11.979   4.082  10.966 -0.2405  0.4751 -0.9961
  781MOL0     C 5343  12.126   4.044  10.978 -0.4004 -0.7320 -0.0682
  781MOL0    Cl 5344  12.203   4.137  11.110  0.1485 -0.5631  0.7141
  781MOL0     C 5345  11.073   3.881  10.843 -0.1648  0.5054 -0.3585
  781MOL0     C 5346  10.935   3.861  10.824  0.4199  0.7180 -0.8007
  781MOL0     O 5347  10.754   3.629  10.559 -0.1256  0.6140 -0.0920
  781MOL0     C 5348  10.457   3.711  10.741 -0.2386  0.0970  0.3549
  781MOL0     C 5349  10.326   3.682  10.736  0.5545 -0.4798 -0.2609
  781MOL0     N 5350   9.741   3.861  11.067  0.0051  0.1878 -0.7669
  781MOL0     N 5351   9.647   3.922  11.120 -0.0797 -0.1055  0.5887
  781MOL0     C 5352   8.363   3.716  11.087  0.5933 -0.5783  0.7749
  781MOL0     C 5353   8.245   3.652  11.049  0.9001  0.3270 -0.2232
  781MOL0     C 5354   7.756   3.641  11.011 -0.0785  0.4528  0.0256
  781MOL0     C 5355   7.643   3.719  11.042 -0.7288 -0.2047 -1.0565
  781MOL0     C 5356   7.523   3.700  10.973 -0.0734 -0.4053  0.5981
  781MOL0     C 5357   7.519   3.614  10.862 -0.1518  0.0100 -0.0720
  781MOL0     O 5358   7.413   3.596  10.786 -0.2042 -0.1987 -0.1651
  781MOL0     C 5359   7.343   3.720  10.756  0.4841  0.7595  0.2626
  781MOL0     C 5360   7.253   3.710  10.637  0.3332  0.2856 -0.1415
  781MOL0     C 5361   7.174   3.842  10.598 -0.1085 -0.5878  0.0372
  781MOL0     C 5362   7.022   3.832  10.594  0.6089  0.4784 -0.2387
  781MOL0     C 5363   6.976   3.750  10.477 -0.3146  0.6615 -0.2780
  781MOL0     C 5364   6.948   3.698  10.369  0.0766 -0.5647 -0.3742
  781MOL0     C 5365   7.634   3.539  10.832  0.9618 -0.3929 -0.0145
  781MOL0     C 5366   7.751   3.539  10.905  0.7079 -1.3450 -0.3995
  781MOL0     C 5367   7.860   3.447  10.868 -0.8371 -0.1781  0.4358
  781MOL0     H 5368   8.025   3.892  11.155  1.0269 -0.2172  0.8996
  781MOL0     H 5369   8.232   3.986  11.243 -0.2386 -0.5980 -0.6611
  781MOL0     H 5370   8.567   3.775  11.314 -2.1651 -1.5574 -0.4001
  781MOL0     H 5371   8.611   3.767  11.137 -0.5473  1.3868 -0.8178
  781MOL0     H 5372   8.680   4.016  11.293  1.7586  0.8091 -0.2306
  781MOL0     H 5373   8.715   3.964  11.127  0.7041  0.9194  0.5288
  781MOL0     H 5374   8.849   3.778  11.200  1.0982 -1.1291  1.3257
  781MOL0     H 5375   8.835   3.825  11.360  0.9868  0.6603  0.0348
  781MOL0     H 5376   8.921   4.054  11.168  1.0405  0.5039 -0.7619
  781MOL0     H 5377   8.969   4.018  11.326  0.9672 -2.8052  0.6751
  781MOL0     H 5378   9.122   3.854  11.280 -0.1186  0.2856  0.6204
  781MOL0     H 5379   9.064   3.834  11.117  3.4493 -0.7496  0.2548
  781MOL0     H 5380   9.135   4.072  11.069 -1.8276  0.0733  0.6074
  781MOL0     H 5381   9.204   4.075  11.236 -1.7163 -0.2201  0.8301
  781MOL0     H 5382   9.341   4.018  10.997 -1.0593  1.5270  1.1605
  781MOL0     H 5383   9.257   3.872  11.008 -0.9671  1.6373 -2.0992
  781MOL0     H 5384   9.427   3.953  11.239 -1.5150  1.5461 -1.5375
  781MOL0     H 5385   9.364   3.785  11.216 -0.7450 -0.2573 -0.0464
  781MOL0     H 5386   9.490   3.664  11.001 -1.8249  1.2505  0.0717
  781MOL0     H 5387   9.785   3.552  10.988  1.2452 -1.6528 -3.1964
  781MOL0     H 5388   9.767   3.643  10.835 -0.8184  2.8178 -0.2688
  781MOL0     H 5389   9.968   3.787  10.950  3.8311 -1.3249 -1.0919
  781MOL0     H 5390   9.968   3.660  11.066  0.5776 -0.5989 -0.9242
  781MOL0     H 5391  10.019   3.484  10.908 -2.4593 -0.0062 -1.4517
  781MOL0     H 5392  10.141   3.608  10.929  0.3930  0.2637 -0.7074
  781MOL0     H 5393  10.061   3.712  10.702 -2.0687  0.1740  1.3632
  781MOL0     H 5394   9.952   3.572  10.694 -0.2278 -1.1377 -1.5348
  781MOL0     H 5395  10.332   3.400  10.553 -0.4766 -0.8178  0.9581
  781MOL0     H 5396  10.562   3.450  10.555  1.4174  0.9976  0.4458
  781MOL0     H 5397  10.921   3.550  10.710  0.1208 -0.6733 -0.9569
  781MOL0     H 5398  11.186   3.578  10.734  1.6351  1.4547 -0.2299
  781MOL0     H 5399  11.298   3.858  10.989  0.7172  1.1335  1.3536
  781MOL0     H 5400  11.452   3.768  10.938  0.2034  0.6262 -0.8952
  781MOL0     H 5401  11.518   3.935  10.778  2.1090  4.5124  0.5894
  781MOL0     H 5402  11.365   4.022  10.808 -0.0810  0.6885  2.9753
  781MOL0     H 5403  11.519   4.142  10.943  0.3703 -1.0947 -0.7478
  781MOL0     H 5404  11.468   4.016  11.057  1.8656 -0.1225  0.6073
  781MOL0     H 5405  11.715   4.018  10.875 -2.6925  0.1322 -1.5717
  781MOL0     H 5406  11.681   3.892  10.989  2.6744  0.9683  2.6045
  781MOL0     H 5407  11.690   4.100  11.166  3.1957 -0.9673  2.0341
  781MOL0     H 5408  11.747   4.190  11.035 -0.4673 -0.1927  0.2048
  781MOL0     H 5409  11.929   4.055  11.178 -1.0120  0.0070  1.5257
  781MOL0     H 5410  11.885   3.919  11.071 -3.4060 -0.4351 -0.8467
  781MOL0     H 5411  11.972   4.191  10.958 -0.8194  0.6093  0.8048
  781MOL0     H 5412  11.947   4.037  10.871 -2.1970 -2.0226  0.7028
  781MOL0     H 5413  12.140   3.938  11.001 -0.9482 -0.3974  1.9634
  781MOL0     H 5414  12.178   4.069  10.884 -1.0972  3.3990  0.4500
  781MOL0     H 5415  11.112   3.974  10.882  1.2389 -0.2745  0.1430
  781MOL0     H 5416  10.859   3.936  10.842 -2.5303 -1.8944 -1.4911
  781MOL0     H 5417  10.490   3.806  10.781  1.8962 -0.5865  0.3348
  781MOL0     H 5418  10.269   3.756  10.792  0.4718 -0.7902  0.0663
  781MOL0     H 5419   8.456   3.661  11.075  0.5251 -1.0775  2.3560
  781MOL0     H 5420   8.252   3.553  11.005 -2.6954 -1.1659  2.0510
  781MOL0     H 5421   7.656   3.781  11.130  2.5157  1.0585 -2.2592
  781MOL0     H 5422   7.442   3.763  11.007 -0.9231 -0.0739 -1.8069
  781MOL0     H 5423   7.412   3.805  10.757  2.3697 -0.6365  3.1185
  781MOL0     H 5424   7.276   3.730  10.842 -0.5962  0.2802 -0.5074
  781MOL0     H 5425   7.174   3.640  10.666  1.1956 -1.5490 -2.0171
  781MOL0     H 5426   7.305   3.660  10.555 -1.4752 -0.8716 -0.6325
  781MOL0     H 5427   7.211   3.886  10.505  0.8837 -0.7740  0.3281
  781MOL0     H 5428   7.203   3.924  10.663 -2.0628  1.6429 -1.7275
  781MOL0     H 5429   6.981   3.784  10.683  2.5131 -0.8314  0.0100
  781MOL0     H 5430   6.984   3.934  10.591 -1.5101 -0.2706 -0.2539
  781MOL0     H 5431   6.941   3.654  10.272  0.2609 -2.3538  0.3781
  781MOL0     H 5432   7.616   3.472  10.748 -0.2014  0.3252 -0.3653
  781MOL0     H 5433   7.866   3.359  10.932 -0.5303 -0.4831 -0.0009
  781MOL0     H 5434   7.855   3.406  10.767 -0.0179 -2.9725  1.4585
  781MOL0     H 5435   7.956   3.500  10.868 -0.8104 -0.1965 -0.6378
  782MOL0     O 5436   5.964   3.108   5.668  0.5354  0.5671 -0.3602
  782MOL0     C 5437   5.930   3.174   5.570 -0.1975  0.6769 -0.3055
  782MOL0     O 5438   6.012   3.216   5.474 -0.3112  0.3333  0.6364
  782MOL0     C 5439   6.149   3.208   5.483  0.2808  0.1360 -0.1120
  782MOL0     C 5440   6.210   3.162   5.368 -0.4897 -0.2025  0.8236
  782MOL0     C 5441   6.346   3.149   5.361  0.6965  0.4223  0.3930
  782MOL0     C 5442   6.426   3.187   5.470 -0.3323 -0.2349  0.5734
  782MOL0     O 5443   6.565   3.183   5.450 -0.0499  0.1989 -0.0766
  782MOL0     C 5444   6.627   3.315   5.435  0.1290 -0.1763 -0.5227
  782MOL0     C 5445   6.562   3.408   5.344  0.1497 -0.8781  0.3960
  782MOL0     C 5446   6.608   3.553   5.377  0.0314  0.0132 -0.5278
  782MOL0     C 5447   6.758   3.579   5.374 -0.4118 -0.4870  0.4899
  782MOL0     C 5448   6.831   3.540   5.240 -0.4886  1.0886  0.1157
  782MOL0     C 5449   6.819   3.643   5.127  0.1628 -0.5360 -0.6570
  782MOL0     C 5450   6.934   3.610   5.026  0.0613  0.5617  0.4523
  782MOL0     C 5451   6.898   3.488   4.941  0.8078 -0.0412  0.5968
  782MOL0     N 5452   6.997   3.470   4.840 -0.4401 -0.4544 -0.7058
  782MOL0     C 5453   7.134   3.466   4.852  0.5117  0.0217 -0.5851
  782MOL0     C 5454   7.178   3.480   4.727  0.4064 -0.5609  0.4396
  782MOL0     C 5455   7.320   3.483   4.671 -0.6838  1.1156 -0.8813
  782MOL0     C 5456   7.421   3.417   4.775 -0.2501 -0.2931  1.1802
  782MOL0     C 5457   7.572   3.415   4.722 -0.4277 -0.0510  0.4681
  782MOL0     C 5458   7.621   3.557   4.721 -0.0547 -0.2403 -0.7585
  782MOL0     O 5459   7.722   3.577   4.624  0.3778  0.1001 -0.1149
  782MOL0     C 5460   7.848   3.552   4.666  0.3442  0.1345  0.8532
  782MOL0     C 5461   7.888   3.492   4.788 -0.0694 -0.8420  0.6050
  782MOL0     C 5462   8.022   3.480   4.810 -1.3827  0.7022 -0.0354
  782MOL0     C 5463   8.124   3.507   4.719 -0.8377 -0.1728  0.1708
  782MOL0     C 5464   8.270   3.495   4.742  0.5890 -0.4309  0.1319
  782MOL0     O 5465   8.293   3.464   4.867 -0.3189 -0.0881 -0.0588
  782MOL0     C 5466   8.417   3.414   4.902 -0.1012  0.0085 -0.2742
  782MOL0     C 5467   8.427   3.321   5.004 -0.4523  0.0531  0.5609
  782MOL0     C 5468   8.550   3.259   5.029 -0.1326 -0.2753  0.1692
  782MOL0     C 5469   8.664   3.317   4.983 -1.0292  0.0198 -0.0199
  782MOL0     O 5470   8.783   3.260   5.023 -0.0021 -0.3891  0.2074
  782MOL0     C 5471   8.903   3.328   5.006 -0.2606 -0.8033  0.3926
  782MOL0     C 5472   9.011   3.257   5.084  0.0370 -0.1867 -0.2376
  782MOL0     C 5473   9.143   3.315   5.021  0.1156 -0.3049 -0.6692
  782MOL0     C 5474   9.272   3.251   5.079 -0.5995  1.4531 -0.3674
  782MOL0     C 5475   9.410   3.312   5.034 -0.0193  0.4355 -0.5517
  782MOL0     C 5476   9.529   3.257   5.119 -0.2677  0.3036  0.6616
  782MOL0     C 5477   9.554   3.112   5.070  0.3972 -0.4180 -0.0035
  782MOL0     C 5478   9.682   3.049   5.144 -0.9970 -0.9513  0.0205
  782MOL0    Cl 5479   9.642   3.038   5.319 -0.0657  0.0435 -0.1824
  782MOL0     C 5480   8.660   3.416   4.885  0.3111  0.1268  0.0971
  782MOL0     C 5481   8.537   3.465   4.849 -0.2516 -0.4051  1.1064
  782MOL0     O 5482   8.346   3.499   4.641  0.2726 -0.4932 -0.7681
  782MOL0     C 5483   8.081   3.566   4.591  0.7873  0.8843 -0.1863
  782MOL0     C 5484   7.941   3.584   4.570  0.4982  0.4587  0.7064
  782MOL0     N 5485   7.072   3.501   4.645 -0.1156 -0.5993  0.0080
  782MOL0     N 5486   6.966   3.494   4.712 -0.0084 -0.3285  0.3913
  782MOL0     C 5487   6.364   3.246   5.583  0.6014  0.1578  0.3036
  782MOL0     C 5488   6.226   3.254   5.595  0.0059 -0.4799  0.3899
  782MOL0     C 5489   5.785   3.206   5.550 -0.3651 -0.5675  0.0319
  782MOL0     C 5490   5.747   3.278   5.430 -0.4531 -0.5931 -0.6712
  782MOL0     C 5491   5.612   3.308   5.403  0.2223 -0.9501 -0.0176
  782MOL0     C 5492   5.514   3.289   5.498  0.3276 -0.1056 -0.1600
  782MOL0     O 5493   5.383   3.333   5.486  0.2742  0.1477  0.3058
  782MOL0     C 5494   5.290   3.248   5.411 -0.2003  0.5793  0.1031
  782MOL0     C 5495   5.199   3.330   5.311 -0.6099 -0.1175  0.0365
  782MOL0     C 5496   5.145   3.460   5.372  0.5387 -0.7142  0.5734
  782MOL0     C 5497   5.015   3.442   5.447  0.3754  0.0741  0.0220
  782MOL0     C 5498   4.915   3.406   5.340  0.2577  0.0032  0.1938
  782MOL0     C 5499   4.843   3.361   5.248  1.0175  0.2085 -0.0138
  782MOL0     C 5500   5.545   3.223   5.619  0.4065 -0.7901  0.5008
  782MOL0     C 5501   5.681   3.180   5.639  0.5202 -0.2938 -0.3543
  782MOL0     C 5502   5.705   3.100   5.765  0.2967  0.2634 -0.1710
  782MOL0     H 5503   6.140   3.145   5.287 -0.5143 -0.9689  0.9986
  782MOL0     H 5504   6.392   3.111   5.270 -2.9424 -0.2388 -1.3603
  782MOL0     H 5505   6.632   3.358   5.536  1.1842  0.1067 -0.6848
  782MOL0     H 5506   6.729   3.296   5.400  0.4630 -0.7487  0.7106
  782MOL0     H 5507   6.453   3.402   5.351  0.1233  0.5334  1.4378
  782MOL0     H 5508   6.583   3.399   5.237  0.9435  2.5076  0.1784
  782MOL0     H 5509   6.580   3.583   5.478  2.4339 -0.9724  0.4929
  782MOL0     H 5510   6.553   3.618   5.308 -0.4159 -0.9753 -1.1361
  782MOL0     H 5511   6.769   3.687   5.389 -2.3902  0.1316 -1.8155
  782MOL0     H 5512   6.812   3.516   5.446  0.7282  0.3754  0.4114
  782MOL0     H 5513   6.935   3.538   5.274 -0.8862  1.1787  1.3889
  782MOL0     H 5514   6.800   3.440   5.207  2.0051  0.8524 -1.9188
  782MOL0     H 5515   6.723   3.634   5.077  1.1350  0.8508 -2.9324
  782MOL0     H 5516   6.822   3.747   5.161  1.7786 -1.3260  1.9337
  782MOL0     H 5517   7.029   3.584   5.073  1.3317  1.8348 -1.2795
  782MOL0     H 5518   6.942   3.700   4.963 -0.4689  0.0890 -0.3030
  782MOL0     H 5519   6.889   3.394   4.996 -0.7056 -0.7893 -0.8484
  782MOL0     H 5520   6.808   3.512   4.885  2.1397  2.1659 -0.7586
  782MOL0     H 5521   7.195   3.456   4.941  0.7079  1.5551 -0.5307
  782MOL0     H 5522   7.322   3.425   4.577  0.2337 -2.6114  1.2151
  782MOL0     H 5523   7.346   3.588   4.661 -1.5137  1.3582 -0.5639
  782MOL0     H 5524   7.407   3.467   4.871 -1.1767 -1.2014  1.5388
  782MOL0     H 5525   7.394   3.311   4.782  0.8519 -0.5111  2.4341
  782MOL0     H 5526   7.567   3.364   4.625  1.9962 -1.7512  1.1469
  782MOL0     H 5527   7.627   3.354   4.793 -1.2456 -0.8105  0.4628
  782MOL0     H 5528   7.636   3.598   4.821 -0.8965 -0.7671 -0.4036
  782MOL0     H 5529   7.543   3.621   4.676  0.5045  1.1383  0.1691
  782MOL0     H 5530   7.816   3.454   4.859 -0.7417 -0.7768 -0.0328
  782MOL0     H 5531   8.034   3.455   4.915 -1.5296  0.3688 -0.0963
  782MOL0     H 5532   8.332   3.291   5.048 -0.7253  1.3881  0.9534
  782MOL0     H 5533   8.560   3.171   5.092  1.6021 -0.8801 -0.8857
  782MOL0     H 5534   8.931   3.343   4.901  1.8523  1.4064  1.1970
  782MOL0     H 5535   8.891   3.429   5.045  1.2499 -0.4640  0.0277
  782MOL0     H 5536   9.006   3.287   5.189  4.1840 -1.1579  0.4032
  782MOL0     H 5537   9.014   3.148   5.073  0.2280 -0.0617 -1.7186
  782MOL0     H 5538   9.145   3.304   4.912 -2.3793  3.1673 -1.2258
  782MOL0     H 5539   9.154   3.419   5.052  0.5858 -1.0830  2.0098
  782MOL0     H 5540   9.274   3.147   5.048 -0.6956  2.1499 -2.9400
  782MOL0     H 5541   9.268   3.261   5.188  1.8065 -0.3110 -0.0473
  782MOL0     H 5542   9.405   3.419   5.057  0.3227  0.1844  0.7314
  782MOL0     H 5543   9.421   3.312   4.925 -2.4974 -1.1730 -0.8781
  782MOL0     H 5544   9.618   3.319   5.105 -1.2598  2.2436  2.3879
  782MOL0     H 5545   9.515   3.260   5.227 -1.5214  1.6550  0.4970
  782MOL0     H 5546   9.567   3.123   4.962  2.6417  0.6682  0.3294
  782MOL0     H 5547   9.469   3.047   5.093 -1.4545  1.3289 -1.5311
  782MOL0     H 5548   9.706   2.949   5.107  1.0610 -0.1559 -0.9436
  782MOL0     H 5549   9.767   3.116   5.128 -1.9956  1.1765  2.9066
  782MOL0     H 5550   8.752   3.431   4.830  1.1452 -2.3020  0.6673
  782MOL0     H 5551   8.539   3.551   4.783  2.3922  1.9221  3.9110
  782MOL0     H 5552   8.156   3.593   4.518  2.0025 -0.2433  0.6069
  782MOL0     H 5553   7.897   3.621   4.478  3.3172 -0.3059 -1.1010
  782MOL0     H 5554   6.426   3.302   5.652  1.2409 -0.0996 -0.0523
  782MOL0     H 5555   6.181   3.290   5.688 -0.9120 -1.3544  0.3055
  782MOL0     H 5556   5.823   3.312   5.359 -0.4263 -1.5845 -1.1432
  782MOL0     H 5557   5.584   3.361   5.312 -1.2075  1.2299  1.5841
  782MOL0     H 5558   5.220   3.194   5.476  1.3679 -1.4682  0.1855
  782MOL0     H 5559   5.345   3.172   5.355  0.8007  0.3824  1.3223
  782MOL0     H 5560   5.120   3.267   5.268 -0.0557  1.7133 -4.2052
  782MOL0     H 5561   5.261   3.351   5.223 -0.8765 -4.9452 -1.6137
  782MOL0     H 5562   5.119   3.519   5.283 -0.0376 -0.3309  0.9868
  782MOL0     H 5563   5.217   3.511   5.437  0.9677 -2.1437  1.2434
  782MOL0     H 5564   5.020   3.363   5.523  0.1810 -0.2059 -0.2510
  782MOL0     H 5565   4.985   3.539   5.487 -1.2618  1.0862 -3.2843
  782MOL0     H 5566   4.791   3.310   5.170  2.7136 -1.9945  0.2029
  782MOL0     H 5567   5.459   3.201   5.682 -0.1387 -2.1656 -0.6536
  782MOL0     H 5568   5.771   3.015   5.745  0.5165 -0.2590  2.4140
  782MOL0     H 5569   5.757   3.158   5.842  2.3150  0.8375 -1.8573
  782MOL0     H 5570   5.611   3.060   5.802  1.0882  1.4335  3.5354
  783MOL0     O 5571   3.835   2.188   2.121  0.1600 -0.4168  0.2552
  783MOL0     C 5572   3.812   2.081   2.071  0.4283  0.4938  0.7112
  783MOL0     O 5573   3.901   1.977   2.084  0.1429  0.1239  0.7948
  783MOL0     C 5574   4.035   1.998   2.067  0.1224 -0.1915  0.3724
  783MOL0     C 5575   4.116   1.998   2.179  1.0872 -0.0061 -0.6959
  783MOL0     C 5576   4.251   2.001   2.152  0.1820 -0.0129 -0.3761
  783MOL0     C 5577   4.297   2.036   2.026 -0.1645  0.2311  0.1145
  783MOL0     O 5578   4.434   2.027   2.002  0.1768  0.3927 -0.1403
  783MOL0     C 5579   4.492   2.000   1.876  0.6979  0.6168  0.6504
  783MOL0     C 5580   4.627   1.921   1.882  1.0978 -0.1329  0.0315
  783MOL0     C 5581   4.741   2.002   1.958  0.4574 -0.4415 -0.0979
  783MOL0     C 5582   4.842   1.912   2.024  0.3638 -0.1549 -0.2611
  783MOL0     C 5583   4.920   1.995   2.129 -0.1621  0.2944 -0.1037
  783MOL0     C 5584   5.036   1.918   2.200  0.8131 -0.0974  0.7709
  783MOL0     C 5585   5.080   1.988   2.326  0.5527  0.0618 -0.2478
  783MOL0     C 5586   5.129   2.130   2.306 -0.0204  0.0427  0.3376
  783MOL0     N 5587   5.151   2.203   2.436 -0.2047  0.1142 -0.2058
  783MOL0     C 5588   5.247   2.301   2.453 -0.1372 -0.6858  0.7451
  783MOL0     C 5589   5.200   2.372   2.559 -0.0042 -0.5318  0.1538
  783MOL0     C 5590   5.291   2.481   2.620  0.6078 -0.9000  1.0907
  783MOL0     C 5591   5.387   2.405   2.715 -0.0335 -0.7963 -0.5266
  783MOL0     C 5592   5.518   2.359   2.655  0.7848 -1.0164  0.7476
  783MOL0     C 5593   5.618   2.320   2.761 -0.5940 -0.3163  0.4991
  783MOL0     O 5594   5.739   2.287   2.685 -0.2263 -0.2649 -0.6327
  783MOL0     C 5595   5.857   2.290   2.760 -0.5169 -0.0917  0.1773
  783MOL0     C 5596   5.879   2.292   2.902  0.7734  0.2785 -0.2956
  783MOL0     C 5597   6.005   2.305   2.964 -0.7605  0.4800 -0.1409
  783MOL0     C 5598   6.118   2.319   2.882  0.3685  0.0042  0.0312
  783MOL0     C 5599   6.254   2.348   2.940  0.5891  0.3603 -0.0092
  783MOL0     O 5600   6.366   2.298   2.876 -0.0091 -0.6693  0.5713
  783MOL0     C 5601   6.494   2.315   2.925  1.1560  0.0730  0.2049
  783MOL0     C 5602   6.518   2.340   3.058 -0.2109 -0.1159  0.0389
  783MOL0     C 5603   6.649   2.351   3.097 -0.3493 -0.1811  0.0405
  783MOL0     C 5604   6.754   2.336   3.007 -0.5384 -0.0432  0.5896
  783MOL0     O 5605   6.887   2.377   3.030  0.5803 -0.1691  0.5917
  783MOL0     C 5606   6.920   2.390   3.170  0.3361  0.1311 -0.3484
  783MOL0     C 5607   7.067   2.395   3.204  0.4088 -0.6189 -0.5518
  783MOL0     C 5608   7.137   2.525   3.152 -0.0409 -0.5091 -0.2216
  783MOL0     C 5609   7.287   2.508   3.148 -0.0635 -0.4041 -0.1798
  783MOL0     C 5610   7.354   2.649   3.153 -0.7950 -0.3758  1.0831
  783MOL0     C 5611   7.427   2.682   3.286  0.5835  0.0354  0.6001
  783MOL0     C 5612   7.486   2.821   3.284  0.1169  0.1989 -0.4103
  783MOL0     C 5613   7.559   2.841   3.416  0.2083  0.1940  0.2698
  783MOL0    Cl 5614   7.687   2.719   3.450  0.0162  0.2191  0.0112
  783MOL0     C 5615   6.727   2.301   2.877 -0.2927  0.4065  0.1832
  783MOL0     C 5616   6.596   2.295   2.830  0.2666  1.2157  0.2413
  783MOL0     O 5617   6.246   2.393   3.056 -1.2052 -0.3991 -0.0816
  783MOL0     C 5618   6.099   2.318   2.744  0.4160  0.2559 -0.0969
  783MOL0     C 5619   5.971   2.310   2.682 -1.4948 -0.3632 -0.4304
  783MOL0     N 5620   5.073   2.330   2.596 -0.1388  0.5261 -0.5329
  783MOL0     N 5621   5.051   2.237   2.519  0.2025 -1.1249  0.4407
  783MOL0     C 5622   4.208   2.053   1.921 -0.3096 -0.1354  0.8415
  783MOL0     C 5623   4.076   2.032   1.939  0.6799 -0.4928 -0.5119
  783MOL0     C 5624   3.676   2.062   2.017  0.2487  0.1540 -0.0971
  783MOL0     C 5625   3.576   2.154   2.051  0.4265 -0.3748  0.2428
  783MOL0     C 5626   3.446   2.152   1.997  0.5053  0.1509 -0.0377
  783MOL0     C 5627   3.411   2.053   1.914 -0.0410  0.2226 -0.2548
  783MOL0     O 5628   3.280   2.040   1.883 -0.4160 -0.1145  0.2478
  783MOL0     C 5629   3.220   1.919   1.824  0.0772  0.5030 -0.6164
  783MOL0     C 5630   3.071   1.951   1.818  0.1970  0.8368 -0.4491
  783MOL0     C 5631   3.001   1.861   1.715  0.4283  0.0004 -0.2358
  783MOL0     C 5632   2.853   1.865   1.725  0.5125 -0.3347 -0.7321
  783MOL0     C 5633   2.796   1.763   1.633  1.2995 -0.3357  0.9781
  783MOL0     C 5634   2.750   1.681   1.550 -0.8311  0.0585  0.5648
  783MOL0     C 5635   3.508   1.954   1.874  0.1642 -0.1766 -0.1159
  783MOL0     C 5636   3.635   1.958   1.926 -0.2451 -0.0863 -0.5499
  783MOL0     C 5637   3.722   1.847   1.876 -0.3116 -0.0520 -0.3345
  783MOL0     H 5638   4.084   1.973   2.279  3.2478 -1.2296 -0.2311
  783MOL0     H 5639   4.323   1.979   2.231 -0.6494  0.7771  0.6264
  783MOL0     H 5640   4.423   1.948   1.809 -0.0604  0.1054  1.7755
  783MOL0     H 5641   4.510   2.096   1.827  3.6731  0.2226  0.7969
  783MOL0     H 5642   4.659   1.890   1.782  1.9254 -0.0744  0.2698
  783MOL0     H 5643   4.591   1.835   1.939 -1.1108 -0.8000 -2.2007
  783MOL0     H 5644   4.694   2.056   2.040 -0.8527 -2.1646  0.3503
  783MOL0     H 5645   4.786   2.076   1.891 -2.0162  0.3052 -1.0602
  783MOL0     H 5646   4.794   1.835   2.084  0.9518  0.6392  1.2797
  783MOL0     H 5647   4.909   1.863   1.952 -1.2047 -1.1724 -1.0676
  783MOL0     H 5648   4.960   2.080   2.072 -1.1167 -0.5929 -2.1940
  783MOL0     H 5649   4.852   2.049   2.195 -0.2847 -0.5501  0.4709
  783MOL0     H 5650   4.998   1.820   2.231  3.4336 -2.5753 -3.0519
  783MOL0     H 5651   5.115   1.899   2.127 -0.1405  1.6037 -0.7904
  783MOL0     H 5652   5.165   1.927   2.359  0.5084  0.1780  0.0840
  783MOL0     H 5653   4.998   1.981   2.398  0.9449  0.0037  0.2005
  783MOL0     H 5654   5.222   2.133   2.248  1.2981 -2.9875  2.0492
  783MOL0     H 5655   5.045   2.175   2.252 -1.4983 -2.6855  0.1698
  783MOL0     H 5656   5.337   2.316   2.395 -0.0209  0.6415  1.2263
  783MOL0     H 5657   5.335   2.541   2.539 -0.5724 -1.8993 -0.3477
  783MOL0     H 5658   5.229   2.549   2.679  0.9786 -0.0400  0.5048
  783MOL0     H 5659   5.414   2.466   2.802  1.6749 -2.3082  0.0633
  783MOL0     H 5660   5.333   2.320   2.757 -0.5091 -1.7467 -2.8973
  783MOL0     H 5661   5.567   2.430   2.588 -1.4539 -0.2053 -0.1075
  783MOL0     H 5662   5.508   2.267   2.597 -0.7539 -2.0118  2.4794
  783MOL0     H 5663   5.586   2.234   2.820  0.5912 -0.8991  0.3124
  783MOL0     H 5664   5.644   2.395   2.836  0.2734  0.6206 -0.6945
  783MOL0     H 5665   5.801   2.286   2.978  1.6274 -0.8165  0.5418
  783MOL0     H 5666   6.011   2.302   3.072  0.2192  0.1282 -0.2004
  783MOL0     H 5667   6.457   2.334   3.148  1.5293  2.7760  1.5581
  783MOL0     H 5668   6.668   2.369   3.203  0.5155 -0.9206  0.0277
  783MOL0     H 5669   6.873   2.477   3.217 -0.1639  0.4864 -1.4696
  783MOL0     H 5670   6.882   2.302   3.223  0.8022  1.0715  1.6339
  783MOL0     H 5671   7.070   2.409   3.313  2.7806 -0.3802 -0.5880
  783MOL0     H 5672   7.113   2.300   3.177  0.8465  0.2043 -2.9146
  783MOL0     H 5673   7.104   2.550   3.051  0.7909 -1.4590 -0.7470
  783MOL0     H 5674   7.111   2.606   3.221 -0.6260 -2.0302  1.4287
  783MOL0     H 5675   7.332   2.450   3.067  1.2979 -0.8058  0.8245
  783MOL0     H 5676   7.318   2.455   3.239 -1.4266  0.0050  0.5494
  783MOL0     H 5677   7.284   2.730   3.131 -1.0373 -1.0743 -0.8776
  783MOL0     H 5678   7.425   2.658   3.071 -0.5412 -1.2750  1.1933
  783MOL0     H 5679   7.354   2.691   3.367  1.7902  1.6577  1.5609
  783MOL0     H 5680   7.502   2.609   3.316  0.1347 -2.3560 -3.3194
  783MOL0     H 5681   7.404   2.894   3.289  1.2024  1.3651  1.8743
  783MOL0     H 5682   7.538   2.858   3.196  0.7526  0.9172  0.2524
  783MOL0     H 5683   7.608   2.939   3.414  2.8095 -1.0163  0.2224
  783MOL0     H 5684   7.485   2.840   3.496 -2.0985  2.9833 -1.6028
  783MOL0     H 5685   6.809   2.277   2.809 -1.1318 -1.1805 -0.3209
  783MOL0     H 5686   6.577   2.269   2.727  0.2007  3.6591 -0.4220
  783MOL0     H 5687   6.179   2.342   2.675  1.9369 -3.1268  0.3085
  783MOL0     H 5688   5.974   2.321   2.574  0.3867 -1.8402 -0.5886
  783MOL0     H 5689   4.240   2.092   1.825 -1.9039 -4.2090 -1.5704
  783MOL0     H 5690   3.997   2.053   1.868 -1.3276  1.4400  2.0475
  783MOL0     H 5691   3.595   2.237   2.119 -0.9462  0.9116 -0.8863
  783MOL0     H 5692   3.384   2.239   2.019  0.2924 -0.5960  2.7639
  783MOL0     H 5693   3.240   1.831   1.886 -0.0680  2.1181  1.8504
  783MOL0     H 5694   3.264   1.899   1.725 -0.3902  2.4962 -1.2768
  783MOL0     H 5695   3.047   2.056   1.800 -0.2523  0.8428  0.1381
  783MOL0     H 5696   3.032   1.933   1.919 -0.1150  1.2798 -0.4892
  783MOL0     H 5697   3.029   1.762   1.753 -1.0782 -0.0730  0.7660
  783MOL0     H 5698   3.037   1.877   1.613  0.9293 -1.0715 -0.2492
  783MOL0     H 5699   2.819   1.826   1.821  0.9294 -0.9397 -0.8201
  783MOL0     H 5700   2.811   1.964   1.708  1.5159  0.4760  1.2368
  783MOL0     H 5701   2.732   1.599   1.484 -1.0838 -0.5401  1.3537
  783MOL0     H 5702   3.478   1.872   1.808  0.5900 -0.4837  0.0643
  783MOL0     H 5703   3.821   1.889   1.854 -0.6613  2.0738  1.7803
  783MOL0     H 5704   3.727   1.783   1.965  0.9802 -0.1203 -0.4290
  783MOL0     H 5705   3.686   1.794   1.787 -1.4016 -2.2752  1.3296
  784MOL0     O 5706   2.450   1.592  10.845  0.1663  0.9011 -0.0824
  784MOL0     C 5707   2.416   1.689  10.776  0.4912  1.3840 -1.2405
  784MOL0     O 5708   2.509   1.767  10.710  0.1389 -0.8546 -0.1270
  784MOL0     C 5709   2.638   1.738  10.738  0.3657 -1.3038 -0.3692
  784MOL0     C 5710   2.712   1.637  10.666  0.1155 -0.5241  0.1579
  784MOL0     C 5711   2.828   1.581  10.711  0.2825 -0.5049 -0.1883
  784MOL0     C 5712   2.891   1.638  10.825 -0.3233 -0.0402  0.5430
  784MOL0     O 5713   3.000   1.588  10.882  0.3292 -0.4096  0.4294
  784MOL0     C 5714   3.079   1.497  10.798 -0.4720 -0.0901  0.5778
  784MOL0     C 5715   3.229   1.521  10.828  0.2517  0.1773  0.0773
  784MOL0     C 5716   3.311   1.408  10.765  0.2254 -0.0589 -0.2989
  784MOL0     C 5717   3.456   1.414  10.829  0.5075  0.7214 -0.2106
  784MOL0     C 5718   3.454   1.345  10.966 -0.7636  0.0638  0.3344
  784MOL0     C 5719   3.581   1.376  11.048  0.3605  0.6142  0.2356
  784MOL0     C 5720   3.597   1.526  11.087 -0.0950  0.8586 -0.5247
  784MOL0     C 5721   3.475   1.578  11.165  0.0745 -0.0839 -1.1598
  784MOL0     N 5722   3.466   1.719  11.162 -0.7295 -1.2816 -0.4502
  784MOL0     C 5723   3.377   1.795  11.093 -0.0372  0.3072 -0.5402
  784MOL0     C 5724   3.430   1.919  11.103  0.4315  0.4560 -0.0459
  784MOL0     C 5725   3.373   2.041  11.039 -0.2231  0.2533  0.2562
  784MOL0     C 5726   3.487   2.134  10.986 -0.5165 -0.2538 -0.2617
  784MOL0     C 5727   3.449   2.236  10.882  0.1484  0.2977 -0.0900
  784MOL0     C 5728   3.568   2.328  10.838  0.6451 -0.4990  0.0159
  784MOL0     O 5729   3.653   2.260  10.743 -0.0097  0.2374 -0.2596
  784MOL0     C 5730   3.769   2.323  10.707 -0.0757 -0.2365 -0.6057
  784MOL0     C 5731   3.858   2.257  10.618 -0.2634 -0.7436  0.5252
  784MOL0     C 5732   3.997   2.289  10.616 -0.4374 -0.7357 -0.2344
  784MOL0     C 5733   4.038   2.407  10.686 -0.2465 -0.0576  0.6338
  784MOL0     C 5734   4.180   2.443  10.667  0.4946 -0.2305 -0.2301
  784MOL0     O 5735   4.278   2.347  10.641  0.1763 -0.0930 -0.4369
  784MOL0     C 5736   4.404   2.387  10.637 -0.8462  0.8161 -0.2487
  784MOL0     C 5737   4.500   2.328  10.728 -0.0435 -0.9177 -0.5429
  784MOL0     C 5738   4.627   2.369  10.727  0.4927  0.3721  0.5004
  784MOL0     C 5739   4.675   2.457  10.634 -0.1114  0.0721  0.4712
  784MOL0     O 5740   4.806   2.499  10.629  0.2967 -0.4204  0.6989
  784MOL0     C 5741   4.911   2.405  10.660  0.3120  0.3697  0.5515
  784MOL0     C 5742   5.046   2.468  10.639 -0.5487  0.0445 -0.3974
  784MOL0     C 5743   5.144   2.359  10.579  0.4755  0.2786 -0.5235
  784MOL0     C 5744   5.288   2.405  10.571 -0.3702  0.1108 -0.4200
  784MOL0     C 5745   5.387   2.287  10.569  0.7662 -0.4701 -0.2150
  784MOL0     C 5746   5.519   2.351  10.545 -0.7660  0.5034 -0.4523
  784MOL0     C 5747   5.630   2.243  10.556  0.5188 -0.2047  0.5084
  784MOL0     C 5748   5.766   2.314  10.519 -0.6170 -0.5067  0.4073
  784MOL0    Cl 5749   5.888   2.200  10.453 -0.0009 -0.0901  0.3048
  784MOL0     C 5750   4.588   2.508  10.538 -0.5877 -0.2288  0.5323
  784MOL0     C 5751   4.458   2.469  10.539  0.3045  0.0735  0.4724
  784MOL0     O 5752   4.208   2.558  10.693  0.4214  0.5045 -0.2107
  784MOL0     C 5753   3.942   2.482  10.756 -0.9008 -0.4725  0.4871
  784MOL0     C 5754   3.806   2.444  10.765 -0.2792  0.4636  1.0859
  784MOL0     N 5755   3.554   1.918  11.172  0.3832 -0.0901  0.1826
  784MOL0     N 5756   3.571   1.798  11.215 -0.7459  0.6488 -0.0725
  784MOL0     C 5757   2.828   1.749  10.887 -0.1057  0.2806 -0.1442
  784MOL0     C 5758   2.702   1.794  10.845  0.4965  0.6049  0.3312
  784MOL0     C 5759   2.269   1.700  10.746  0.2982  0.5162  0.5579
  784MOL0     C 5760   2.227   1.790  10.643 -0.2190 -0.3095  0.2034
  784MOL0     C 5761   2.095   1.820  10.617 -0.1051  0.3053  0.2376
  784MOL0     C 5762   1.989   1.749  10.685 -0.4323 -0.5820  0.3844
  784MOL0     O 5763   1.857   1.771  10.658  0.0072 -0.2189 -0.3390
  784MOL0     C 5764   1.819   1.886  10.587  0.5781 -0.2043  1.0016
  784MOL0     C 5765   1.672   1.902  10.585  0.0296  1.3337 -0.0993
  784MOL0     C 5766   1.623   1.985  10.706  1.0110 -0.3283 -0.0319
  784MOL0     C 5767   1.537   2.114  10.674 -0.7818  0.3510  0.2402
  784MOL0     C 5768   1.607   2.199  10.581 -0.3979  0.1985  0.2710
  784MOL0     C 5769   1.662   2.289  10.522  0.9938 -0.0972 -0.0005
  784MOL0     C 5770   2.027   1.645  10.772  0.2722 -1.0746 -0.3134
  784MOL0     C 5771   2.162   1.624  10.810 -0.5860 -0.2562 -0.5809
  784MOL0     C 5772   2.180   1.529  10.927 -1.2453  0.2187 -0.4175
  784MOL0     H 5773   2.652   1.586  10.592  0.6026 -0.7420 -0.0936
  784MOL0     H 5774   2.862   1.486  10.669  0.9297 -0.3076 -0.1244
  784MOL0     H 5775   3.052   1.396  10.830  0.3652 -1.2873 -2.2155
  784MOL0     H 5776   3.056   1.513  10.693 -4.9258  0.6178  1.4511
  784MOL0     H 5777   3.238   1.528  10.937 -1.6865 -0.2833  0.2984
  784MOL0     H 5778   3.259   1.617  10.784  0.7654  0.2724  0.6085
  784MOL0     H 5779   3.317   1.423  10.657 -2.8600  0.3274 -0.4899
  784MOL0     H 5780   3.262   1.310  10.769  0.9863 -0.5335 -1.7374
  784MOL0     H 5781   3.535   1.371  10.767  0.6085 -2.8496  2.1216
  784MOL0     H 5782   3.474   1.522  10.834 -0.1223  0.8673 -0.7969
  784MOL0     H 5783   3.368   1.377  11.026  0.3261  2.0489  0.9222
  784MOL0     H 5784   3.452   1.236  10.966 -0.1025  0.0432 -0.1769
  784MOL0     H 5785   3.589   1.308  11.134  1.7753 -0.7888 -0.9401
  784MOL0     H 5786   3.668   1.350  10.987  1.1625  0.6213  1.3439
  784MOL0     H 5787   3.614   1.577  10.991 -1.7638 -1.3922 -2.1465
  784MOL0     H 5788   3.691   1.544  11.139 -0.5086  0.6929  0.2949
  784MOL0     H 5789   3.379   1.534  11.137 -1.1495 -1.8475  4.5844
  784MOL0     H 5790   3.488   1.553  11.270 -0.4886  1.0818 -0.7887
  784MOL0     H 5791   3.282   1.762  11.053  0.7187 -0.1956 -2.0082
  784MOL0     H 5792   3.307   2.010  10.957  0.0753  0.0081  0.1086
  784MOL0     H 5793   3.305   2.088  11.111  0.3110  1.2812  0.1044
  784MOL0     H 5794   3.554   2.175  11.062  2.0795 -3.8496 -0.4038
  784MOL0     H 5795   3.557   2.066  10.937 -0.8722 -0.8573  0.0598
  784MOL0     H 5796   3.366   2.293  10.925  1.1920  1.7899  0.0242
  784MOL0     H 5797   3.412   2.182  10.794 -0.2243  0.7754 -0.2329
  784MOL0     H 5798   3.619   2.364  10.928  0.2194 -1.2591  0.5776
  784MOL0     H 5799   3.528   2.417  10.788  4.2027  1.1583 -0.1624
  784MOL0     H 5800   3.822   2.166  10.570 -1.5282  0.0479 -0.0832
  784MOL0     H 5801   4.071   2.228  10.563  2.1655  1.7881  0.2443
  784MOL0     H 5802   4.473   2.248  10.797 -0.8013  1.1086  1.6212
  784MOL0     H 5803   4.690   2.323  10.803  0.8860  0.2060  0.0819
  784MOL0     H 5804   4.913   2.380  10.767  0.5552 -2.5628 -0.0534
  784MOL0     H 5805   4.895   2.304  10.622 -1.2186  0.5135  0.7427
  784MOL0     H 5806   5.034   2.549  10.566 -1.1993 -1.7899 -2.4474
  784MOL0     H 5807   5.078   2.503  10.737 -5.0897  2.8080  0.4127
  784MOL0     H 5808   5.142   2.274  10.647  0.4194 -2.4972 -3.6948
  784MOL0     H 5809   5.112   2.329  10.478  3.4994 -0.7165 -1.3047
  784MOL0     H 5810   5.289   2.456  10.667 -1.2339  1.2750 -1.0111
  784MOL0     H 5811   5.296   2.471  10.484 -3.9423 -0.5878 -1.4477
  784MOL0     H 5812   5.377   2.217  10.485 -1.7583  1.5361 -1.7286
  784MOL0     H 5813   5.393   2.227  10.660  1.6006  1.2147  0.8923
  784MOL0     H 5814   5.529   2.395  10.445 -0.3984  0.1580 -0.5687
  784MOL0     H 5815   5.542   2.432  10.615 -2.0704  1.2071 -0.7889
  784MOL0     H 5816   5.625   2.175  10.471  3.5622  1.4646 -1.1413
  784MOL0     H 5817   5.631   2.180  10.646 -2.0439 -3.6688 -1.6159
  784MOL0     H 5818   5.743   2.372  10.430 -0.4481 -2.4131 -0.9302
  784MOL0     H 5819   5.813   2.374  10.598  0.6354 -2.1767  1.0079
  784MOL0     H 5820   4.631   2.564  10.455 -2.3498 -0.0403 -0.3020
  784MOL0     H 5821   4.389   2.495  10.459  2.0819 -1.2057 -1.5763
  784MOL0     H 5822   3.973   2.578  10.797 -0.4528 -2.2584  4.8310
  784MOL0     H 5823   3.743   2.516  10.816  2.0913  2.0302  1.9674
  784MOL0     H 5824   2.873   1.780  10.981 -0.7496  0.6322  0.0567
  784MOL0     H 5825   2.635   1.859  10.900 -0.5843  0.3625 -0.6674
  784MOL0     H 5826   2.301   1.844  10.584 -2.7164  1.4468 -1.5683
  784MOL0     H 5827   2.065   1.911  10.566 -4.1194 -0.4044  1.0270
  784MOL0     H 5828   1.860   1.884  10.485  0.3739 -0.5337  0.9271
  784MOL0     H 5829   1.868   1.977  10.624 -0.8668  1.0662 -0.0652
  784MOL0     H 5830   1.624   1.804  10.587 -1.0719  1.7013 -3.0863
  784MOL0     H 5831   1.642   1.949  10.491  0.0256 -1.7294 -1.7405
  784MOL0     H 5832   1.708   2.022  10.763  1.9088 -1.4160 -0.6181
  784MOL0     H 5833   1.565   1.920  10.772 -0.3639  0.1958 -0.6880
  784MOL0     H 5834   1.442   2.097  10.624  0.5200  2.3209 -3.2702
  784MOL0     H 5835   1.522   2.160  10.772  2.2446  2.9116 -0.3148
  784MOL0     H 5836   1.711   2.371  10.473 -1.4336  0.9933 -0.7900
  784MOL0     H 5837   1.944   1.595  10.820 -1.6271  1.0082 -1.2213
  784MOL0     H 5838   2.246   1.447  10.895 -1.1900 -0.4801  1.3474
  784MOL0     H 5839   2.233   1.576  11.011 -0.5946  1.2584 -1.3805
  784MOL0     H 5840   2.081   1.490  10.951 -1.3533 -1.2753 -2.9221
  785MOL0     O 5841   8.883   0.795   1.890 -0.4022 -0.3027 -0.2501
  785MOL0     C 5842   8.849   0.879   1.809 -0.1439  0.0021 -0.4869
  785MOL0     O 5843   8.934   0.967   1.738  0.2147  0.8743  0.1843
  785MOL0     C 5844   9.063   0.981   1.778 -0.0709  0.1613 -0.2292
  785MOL0     C 5845   9.114   1.099   1.824 -0.1018  0.2989  0.1539
  785MOL0     C 5846   9.251   1.111   1.865  0.2419 -1.0505  0.4286
  785MOL0     C 5847   9.335   1.012   1.854  0.4271  0.7409 -0.0045
  785MOL0     O 5848   9.464   1.043   1.890 -1.0676 -0.4488  0.0195
  785MOL0     C 5849   9.567   0.945   1.871  0.3403 -0.1541 -0.1948
  785MOL0     C 5850   9.686   1.008   1.928 -1.0006  0.5366 -1.2574
  785MOL0     C 5851   9.784   0.889   1.957  0.4719  0.0990 -0.8286
  785MOL0     C 5852   9.923   0.938   2.008  0.1429  0.2891 -1.0461
  785MOL0     C 5853  10.003   0.835   2.094  0.1204 -0.5546  0.2781
  785MOL0     C 5854  10.144   0.869   2.110  0.8654  0.2889  0.2841
  785MOL0     C 5855  10.170   0.993   2.183  0.1181 -1.4621 -0.6054
  785MOL0     C 5856  10.316   1.043   2.186  0.8552  0.2651  0.4174
  785MOL0     N 5857  10.358   1.114   2.059  0.7920  0.3286  0.1023
  785MOL0     C 5858  10.487   1.137   2.023 -0.3827 -0.5535 -0.2476
  785MOL0     C 5859  10.482   1.214   1.911 -0.2656 -1.1834  0.0385
  785MOL0     C 5860  10.589   1.266   1.816 -1.1033  0.0103 -0.0255
  785MOL0     C 5861  10.658   1.386   1.863  0.1811  0.4369 -0.6420
  785MOL0     C 5862  10.750   1.435   1.753 -0.0004 -0.6798  0.1964
  785MOL0     C 5863  10.795   1.581   1.781  0.2590 -0.1308 -0.5874
  785MOL0     O 5864  10.938   1.598   1.789  0.2683 -0.5120  0.3905
  785MOL0     C 5865  11.016   1.599   1.669  0.0113 -0.0942  0.5004
  785MOL0     C 5866  11.151   1.585   1.679  0.7167  0.0137 -0.1032
  785MOL0     C 5867  11.233   1.576   1.564 -0.2423 -0.1114 -0.2573
  785MOL0     C 5868  11.181   1.595   1.433 -0.1306 -0.4661 -1.0182
  785MOL0     C 5869  11.259   1.572   1.311  0.3064 -0.5194  0.4171
  785MOL0     O 5870  11.187   1.552   1.198 -0.2528  0.4773  0.2181
  785MOL0     C 5871  11.235   1.497   1.081 -0.3595  0.8048  0.3259
  785MOL0     C 5872  11.360   1.433   1.070 -0.9761 -0.6809 -0.0166
  785MOL0     C 5873  11.396   1.389   0.947  0.1234 -0.0455 -0.6063
  785MOL0     C 5874  11.320   1.392   0.837  0.9515  0.2500  0.7775
  785MOL0     O 5875  11.379   1.343   0.717  0.3175  0.0725  0.1765
  785MOL0     C 5876  11.315   1.392   0.595  0.9092  0.0814  0.1086
  785MOL0     C 5877  11.361   1.542   0.577 -0.3843  0.3143  0.6609
  785MOL0     C 5878  11.508   1.569   0.590 -0.1537 -0.5582  0.1677
  785MOL0     C 5879  11.588   1.503   0.484  0.7284  0.2757  0.3249
  785MOL0     C 5880  11.730   1.559   0.489 -0.0955  0.1455 -0.3190
  785MOL0     C 5881  11.834   1.480   0.406  0.9991 -0.7169 -0.1202
  785MOL0     C 5882  11.973   1.522   0.430 -0.4607 -0.7941 -0.2619
  785MOL0     C 5883  12.067   1.440   0.343 -0.8133 -0.1838  0.0802
  785MOL0    Cl 5884  12.228   1.497   0.379 -0.0609 -0.0076  0.5374
  785MOL0     C 5885  11.190   1.445   0.843  0.4198 -0.8672 -0.7010
  785MOL0     C 5886  11.152   1.508   0.969 -0.4630  0.1175 -0.1103
  785MOL0     O 5887  11.383   1.570   1.319  0.2580  0.1495  0.0229
  785MOL0     C 5888  11.052   1.637   1.426  0.2629  0.7946  0.7946
  785MOL0     C 5889  10.969   1.630   1.538  0.0957 -0.0810 -0.4707
  785MOL0     N 5890  10.348   1.246   1.889 -0.1413 -0.0773  0.2861
  785MOL0     N 5891  10.277   1.192   1.981 -0.2532 -0.5338 -0.2712
  785MOL0     C 5892   9.291   0.887   1.795  0.1296 -0.7737  0.4651
  785MOL0     C 5893   9.153   0.879   1.762 -0.1932 -0.1817  0.9049
  785MOL0     C 5894   8.708   0.906   1.781 -0.3135 -0.9998  0.7922
  785MOL0     C 5895   8.675   1.028   1.693 -0.4865 -0.5493 -0.2872
  785MOL0     C 5896   8.550   1.052   1.656  0.3723 -0.2993  0.1991
  785MOL0     C 5897   8.442   0.976   1.706 -1.0312 -0.1323 -0.4091
  785MOL0     O 5898   8.316   1.008   1.669  0.2940 -0.8891 -0.2765
  785MOL0     C 5899   8.198   0.938   1.712 -0.7406  0.7638 -0.0806
  785MOL0     C 5900   8.076   0.960   1.617  0.2881  0.6420  0.1211
  785MOL0     C 5901   7.980   0.838   1.611 -0.4043 -0.7240  0.1102
  785MOL0     C 5902   7.865   0.864   1.508 -0.1824  0.1335  0.0409
  785MOL0     C 5903   7.784   0.984   1.554 -0.5714 -0.9654  0.6754
  785MOL0     C 5904   7.707   1.068   1.597 -0.1999  0.1198 -0.5118
  785MOL0     C 5905   8.469   0.867   1.798 -0.2808 -0.8485  0.6103
  785MOL0     C 5906   8.604   0.826   1.822  0.7505  0.1384  0.4257
  785MOL0     C 5907   8.619   0.691   1.896  0.2553  0.2101  0.7192
  785MOL0     H 5908   9.042   1.180   1.838  0.2295  0.8517 -1.1628
  785MOL0     H 5909   9.283   1.207   1.904 -0.9439  0.1576 -1.4757
  785MOL0     H 5910   9.538   0.849   1.914 -0.0073 -1.5704 -3.3681
  785MOL0     H 5911   9.588   0.909   1.770  3.5642 -0.6197  0.5509
  785MOL0     H 5912   9.659   1.065   2.017  1.1084  1.2883 -1.0373
  785MOL0     H 5913   9.720   1.078   1.851 -1.0475  1.5994 -0.3444
  785MOL0     H 5914   9.785   0.821   1.871 -2.9043 -1.3505  0.1170
  785MOL0     H 5915   9.742   0.834   2.042  1.0390 -1.0069 -1.2470
  785MOL0     H 5916   9.984   0.961   1.920  0.0961 -0.6281 -1.3286
  785MOL0     H 5917   9.903   1.032   2.060  0.5680  0.2091 -0.7268
  785MOL0     H 5918   9.945   0.812   2.184 -0.9113 -1.4498 -0.5800
  785MOL0     H 5919  10.018   0.734   2.053  1.4352 -0.9451  1.6325
  785MOL0     H 5920  10.194   0.789   2.166  2.2657 -0.3327 -1.7360
  785MOL0     H 5921  10.184   0.878   2.009 -0.9433 -0.3913 -0.5338
  785MOL0     H 5922  10.144   0.983   2.289 -0.3877  1.0503 -0.4175
  785MOL0     H 5923  10.096   1.068   2.152 -0.3225 -1.6705 -0.0731
  785MOL0     H 5924  10.329   1.101   2.278  1.1527 -0.8432  1.0958
  785MOL0     H 5925  10.377   0.953   2.198 -1.6718 -2.2532 -3.4902
  785MOL0     H 5926  10.578   1.093   2.064  0.8122  1.0497 -1.0625
  785MOL0     H 5927  10.661   1.184   1.807 -1.7939 -0.4374 -2.1369
  785MOL0     H 5928  10.540   1.296   1.723  0.3123  2.5635 -0.0530
  785MOL0     H 5929  10.581   1.455   1.896 -0.4773 -1.2752  1.6258
  785MOL0     H 5930  10.707   1.351   1.954 -1.9952 -3.3289 -0.6925
  785MOL0     H 5931  10.702   1.433   1.655  0.8154 -0.8233 -0.2087
  785MOL0     H 5932  10.834   1.366   1.743 -0.9179 -2.7977  4.5699
  785MOL0     H 5933  10.755   1.605   1.880  1.5626 -2.2767  0.5253
  785MOL0     H 5934  10.754   1.657   1.713 -2.3620 -0.3176  0.6613
  785MOL0     H 5935  11.204   1.574   1.774  0.3174 -0.6896  0.0478
  785MOL0     H 5936  11.340   1.564   1.567 -0.1244  1.0278  0.5350
  785MOL0     H 5937  11.434   1.417   1.148 -0.6876  0.6119 -0.0159
  785MOL0     H 5938  11.495   1.347   0.931  0.0413 -0.1872 -0.7492
  785MOL0     H 5939  11.360   1.336   0.513  1.0429  0.4694 -0.0843
  785MOL0     H 5940  11.207   1.380   0.586  0.8719  0.5383 -0.0785
  785MOL0     H 5941  11.328   1.578   0.479 -0.7232 -1.3643  0.1121
  785MOL0     H 5942  11.303   1.603   0.645 -2.0461  1.3317 -1.5475
  785MOL0     H 5943  11.527   1.676   0.585  0.0020 -0.6275 -1.0195
  785MOL0     H 5944  11.549   1.536   0.686 -0.6709 -1.9481 -0.0627
  785MOL0     H 5945  11.546   1.520   0.385 -0.0065  0.8346  0.7189
  785MOL0     H 5946  11.606   1.397   0.503  0.8159 -0.1614 -1.9631
  785MOL0     H 5947  11.755   1.563   0.596 -2.0335 -2.5467  0.3328
  785MOL0     H 5948  11.724   1.661   0.451  0.5110  0.3929  0.2156
  785MOL0     H 5949  11.837   1.373   0.432 -1.3027 -0.7262  0.3836
  785MOL0     H 5950  11.802   1.481   0.302 -0.5328  0.0661  0.3258
  785MOL0     H 5951  11.998   1.507   0.536 -0.8783  0.0387 -0.0402
  785MOL0     H 5952  11.979   1.629   0.409 -0.1165 -0.0568  2.9897
  785MOL0     H 5953  12.050   1.333   0.357 -0.7445 -0.3874 -1.2765
  785MOL0     H 5954  12.049   1.452   0.236  3.4981  1.4697 -0.6504
  785MOL0     H 5955  11.112   1.456   0.769 -1.7436 -0.4211  1.5432
  785MOL0     H 5956  11.055   1.555   0.979 -0.7593 -0.5787  0.3909
  785MOL0     H 5957  10.999   1.652   1.332 -1.2822 -2.0387  1.1006
  785MOL0     H 5958  10.863   1.642   1.517  0.1642 -1.7942 -1.9898
  785MOL0     H 5959   9.355   0.805   1.765  1.6164 -0.7918  3.3414
  785MOL0     H 5960   9.104   0.791   1.722  0.5005  0.0020 -0.3843
  785MOL0     H 5961   8.748   1.102   1.663 -0.8169 -0.2551 -0.3656
  785MOL0     H 5962   8.533   1.133   1.586 -0.2857 -0.4109  0.2218
  785MOL0     H 5963   8.177   0.960   1.817 -0.0518 -0.0849  0.2505
  785MOL0     H 5964   8.218   0.831   1.699  1.9918  1.3713 -1.5686
  785MOL0     H 5965   8.101   0.981   1.512 -0.5597  1.4443  0.0620
  785MOL0     H 5966   8.033   1.050   1.661  0.6685  2.1453 -2.3588
  785MOL0     H 5967   7.925   0.825   1.705 -0.6404 -3.2181 -0.3032
  785MOL0     H 5968   8.035   0.747   1.583  1.3121  0.4409 -0.4950
  785MOL0     H 5969   7.903   0.880   1.407  1.5686  2.4278  0.9719
  785MOL0     H 5970   7.797   0.778   1.506 -1.5447  1.1699 -1.3925
  785MOL0     H 5971   7.647   1.146   1.639 -1.7568 -0.7959 -0.9601
  785MOL0     H 5972   8.388   0.808   1.841 -1.0406  0.6636  1.3222
  785MOL0     H 5973   8.685   0.630   1.833 -0.5607 -0.2584  0.3029
  785MOL0     H 5974   8.657   0.690   1.999  0.8243  0.2522  0.5146
  785MOL0     H 5975   8.528   0.632   1.892 -0.6818  1.2158  3.9552
  786MOL0     O 5976   9.489   4.842   8.622 -0.2248 -0.5718  0.0083
  786MOL0     C 5977   9.455   4.793   8.727  0.6230  0.0361 -0.7807
  786MOL0     O 5978   9.332   4.736   8.751  0.0639  0.8889  0.0198
  786MOL0     C 5979   9.241   4.723   8.643 -0.5664  0.4186  0.1543
  786MOL0     C 5980   9.114   4.783   8.664 -0.0392  0.2746  0.3219
  786MOL0     C 5981   9.020   4.780   8.553  0.4976  0.8689 -0.0978
  786MOL0     C 5982   9.063   4.712   8.433 -0.1292  0.7019 -0.0118
  786MOL0     O 5983   9.002   4.719   8.309 -0.2252 -0.0699 -0.7580
  786MOL0     C 5984   8.864   4.738   8.301 -0.2399 -0.5655 -0.4494
  786MOL0     C 5985   8.807   4.653   8.195 -0.3445 -0.1397 -0.3830
  786MOL0     C 5986   8.673   4.723   8.150 -0.1132 -0.9151 -0.6082
  786MOL0     C 5987   8.591   4.632   8.065 -0.3400 -0.1781  0.7732
  786MOL0     C 5988   8.475   4.707   7.997 -0.7510  0.2219 -0.4482
  786MOL0     C 5989   8.392   4.785   8.094 -0.3077  0.2547  0.2614
  786MOL0     C 5990   8.279   4.845   8.023 -0.0982  0.3454 -0.3951
  786MOL0     C 5991   8.206   4.947   8.108 -0.3344 -0.1166 -0.3859
  786MOL0     N 5992   8.096   5.004   8.024  0.1365  0.0482 -0.2467
  786MOL0     C 5993   7.976   4.938   8.009  0.0791 -0.1348  0.5088
  786MOL0     C 5994   7.904   5.035   7.955  0.3284 -0.3643  0.2563
  786MOL0     C 5995   7.765   5.004   7.919 -0.8644  0.0181 -0.1113
  786MOL0     C 5996   7.745   5.018   7.772  0.6763 -0.2736  0.3170
  786MOL0     C 5997   7.780   4.892   7.686 -0.0288  0.2919  0.0374
  786MOL0     C 5998   7.930   4.868   7.687  1.1066 -0.5708 -0.5829
  786MOL0     O 5999   7.978   4.807   7.565  1.0597  0.4999 -0.0930
  786MOL0     C 6000   8.101   4.754   7.568 -0.6117  0.2903 -0.2799
  786MOL0     C 6001   8.144   4.690   7.456  0.1741  0.5778  0.1023
  786MOL0     C 6002   8.274   4.640   7.447 -0.1001  0.2634 -0.2411
  786MOL0     C 6003   8.366   4.656   7.551  0.9801 -0.0621  0.0005
  786MOL0     C 6004   8.503   4.599   7.541 -0.1969 -0.5355  0.1723
  786MOL0     O 6005   8.598   4.665   7.601 -0.2369  1.0800 -0.5170
  786MOL0     C 6006   8.717   4.613   7.657  0.9106  0.0882 -0.6209
  786MOL0     C 6007   8.723   4.487   7.717  0.7612  0.2293  0.9751
  786MOL0     C 6008   8.836   4.442   7.781 -0.0256  0.9670  0.2937
  786MOL0     C 6009   8.946   4.524   7.791 -0.2150  0.0664  0.2716
  786MOL0     O 6010   9.054   4.479   7.865 -0.0004 -0.1653  0.1905
  786MOL0     C 6011   9.184   4.542   7.860  0.7032 -0.4920 -0.4128
  786MOL0     C 6012   9.255   4.502   7.989  0.1202 -0.0744 -0.2351
  786MOL0     C 6013   9.397   4.547   7.985  0.4816 -0.0625  0.1360
  786MOL0     C 6014   9.447   4.532   8.133 -0.6539 -0.1611  0.0452
  786MOL0     C 6015   9.466   4.385   8.173 -0.6116  0.8607  0.4262
  786MOL0     C 6016   9.503   4.353   8.311  0.2850  0.0989  0.4073
  786MOL0     C 6017   9.551   4.211   8.326  0.4403  1.2015  0.2622
  786MOL0     C 6018   9.701   4.199   8.302  0.2534  0.0801 -0.4268
  786MOL0    Cl 6019   9.749   4.034   8.291 -0.2536  0.1718  0.0413
  786MOL0     C 6020   8.950   4.642   7.719  0.4802 -0.2267  1.0511
  786MOL0     C 6021   8.832   4.690   7.662  0.6491  0.6778  0.0798
  786MOL0     O 6022   8.517   4.503   7.473  0.1176  0.2660  0.6457
  786MOL0     C 6023   8.325   4.744   7.659 -1.0031 -0.0422  0.1989
  786MOL0     C 6024   8.198   4.794   7.667 -0.3724  0.5010 -0.2667
  786MOL0     N 6025   7.973   5.149   7.935 -0.6463 -0.4701 -0.1904
  786MOL0     N 6026   8.089   5.133   7.985 -0.8028  0.4903  0.1722
  786MOL0     C 6027   9.179   4.641   8.432  0.2333  0.3009  0.0429
  786MOL0     C 6028   9.279   4.656   8.525  0.4675 -0.0049 -0.0519
  786MOL0     C 6029   9.549   4.804   8.848 -0.3714 -0.1495 -0.0916
  786MOL0     C 6030   9.498   4.768   8.973 -0.3360  0.0168  0.1566
  786MOL0     C 6031   9.575   4.772   9.087  0.0146  0.3913 -0.6214
  786MOL0     C 6032   9.707   4.814   9.082  0.1068  0.4814  0.7188
  786MOL0     O 6033   9.786   4.823   9.190  0.3318  0.9921  0.5753
  786MOL0     C 6034   9.741   4.927   9.276 -0.6892  0.7975 -0.7965
  786MOL0     C 6035   9.822   4.936   9.407 -0.2857 -0.3299  0.2109
  786MOL0     C 6036   9.834   4.812   9.484  0.7707  0.5407  0.1191
  786MOL0     C 6037   9.845   4.823   9.636 -0.6127  0.4252 -0.1177
  786MOL0     C 6038   9.944   4.919   9.683  0.2042 -0.4558 -1.0405
  786MOL0     C 6039  10.025   5.004   9.718  0.1140 -0.4157  0.0209
  786MOL0     C 6040   9.758   4.857   8.953  0.0300  0.0568  0.2233
  786MOL0     C 6041   9.688   4.852   8.832 -0.8928 -0.2516 -0.5820
  786MOL0     C 6042   9.753   4.908   8.709  0.1658  0.2111  0.6466
  786MOL0     H 6043   9.089   4.839   8.754  0.0785 -0.0694  0.5689
  786MOL0     H 6044   8.919   4.822   8.561  1.5933  3.4339  2.1015
  786MOL0     H 6045   8.824   4.709   8.399 -0.4755 -0.2715 -0.4569
  786MOL0     H 6046   8.846   4.845   8.291  2.7514 -0.0287 -0.8925
  786MOL0     H 6047   8.784   4.551   8.229 -1.2617  0.4100  0.7150
  786MOL0     H 6048   8.878   4.646   8.112  3.1398 -2.7934  2.4593
  786MOL0     H 6049   8.694   4.817   8.097  0.5476 -0.5659  0.2515
  786MOL0     H 6050   8.613   4.747   8.238 -1.3652 -0.2138 -1.6186
  786MOL0     H 6051   8.649   4.576   7.991 -1.2797 -1.7598  1.2003
  786MOL0     H 6052   8.551   4.561   8.137  0.8522  0.1194  1.7572
  786MOL0     H 6053   8.510   4.777   7.921 -0.9843 -0.8445 -1.5820
  786MOL0     H 6054   8.423   4.627   7.944  3.5408 -3.2331  0.0019
  786MOL0     H 6055   8.361   4.719   8.175 -0.5346 -0.4414 -0.3776
  786MOL0     H 6056   8.456   4.865   8.130  0.5054  0.7743 -2.1608
  786MOL0     H 6057   8.212   4.759   8.013  0.1890  0.3402 -2.8881
  786MOL0     H 6058   8.304   4.888   7.926 -0.2451 -1.9360 -1.5219
  786MOL0     H 6059   8.179   4.892   8.198  0.2544 -2.0001 -1.2884
  786MOL0     H 6060   8.279   5.024   8.130 -0.0966  0.6339 -3.3625
  786MOL0     H 6061   7.957   4.831   8.020  1.4899 -0.9984 -3.6457
  786MOL0     H 6062   7.743   4.902   7.952  2.8672 -0.8400  0.1493
  786MOL0     H 6063   7.702   5.078   7.970  1.0912  1.6091  0.1231
  786MOL0     H 6064   7.638   5.035   7.758  0.2856 -2.3120  0.5260
  786MOL0     H 6065   7.805   5.105   7.743 -0.2450 -0.1303 -1.2859
  786MOL0     H 6066   7.743   4.907   7.584  1.4292  1.3214 -0.3628
  786MOL0     H 6067   7.729   4.807   7.734  1.4059  1.1133  3.2617
  786MOL0     H 6068   7.959   4.818   7.781 -0.6407 -0.7705 -0.1194
  786MOL0     H 6069   7.975   4.967   7.685 -3.8800  2.0095 -0.1459
  786MOL0     H 6070   8.063   4.674   7.386 -1.2667  1.0361  1.5961
  786MOL0     H 6071   8.288   4.575   7.362 -2.2376 -0.2129 -0.2929
  786MOL0     H 6072   8.633   4.425   7.717  1.3818 -0.7107  0.2442
  786MOL0     H 6073   8.829   4.338   7.811  1.3772  0.1732 -1.8682
  786MOL0     H 6074   9.243   4.509   7.774  0.6574 -0.0070 -0.6325
  786MOL0     H 6075   9.177   4.651   7.861 -0.6312 -0.5521 -0.9015
  786MOL0     H 6076   9.204   4.549   8.074  0.7387 -1.8181  1.1445
  786MOL0     H 6077   9.250   4.393   8.000  0.1185 -0.1312 -0.7621
  786MOL0     H 6078   9.444   4.478   7.914  0.0176 -0.2180 -0.0234
  786MOL0     H 6079   9.400   4.652   7.956 -0.7996 -0.1928 -0.5921
  786MOL0     H 6080   9.384   4.584   8.206  0.1123 -0.6881  1.1132
  786MOL0     H 6081   9.545   4.579   8.143 -1.6762  1.6608  2.9221
  786MOL0     H 6082   9.538   4.342   8.103 -2.8772  0.5866 -1.8912
  786MOL0     H 6083   9.377   4.327   8.149  0.8138 -0.8089 -1.1187
  786MOL0     H 6084   9.584   4.421   8.339  2.2479 -1.2124 -1.7156
  786MOL0     H 6085   9.419   4.363   8.381 -0.1399 -1.6766  0.2135
  786MOL0     H 6086   9.498   4.143   8.258 -0.9068  0.9958  1.4586
  786MOL0     H 6087   9.524   4.175   8.426 -2.6156  0.9180 -0.5670
  786MOL0     H 6088   9.735   4.250   8.211 -0.8670 -0.6649 -1.2918
  786MOL0     H 6089   9.759   4.237   8.386 -1.2157  1.1547  0.1451
  786MOL0     H 6090   9.033   4.712   7.711  0.2594 -0.0218  0.5064
  786MOL0     H 6091   8.826   4.792   7.626  0.0463  0.3192 -0.8818
  786MOL0     H 6092   8.394   4.768   7.740  0.0667 -2.3404  0.0338
  786MOL0     H 6093   8.165   4.853   7.751 -2.2546 -1.1574  0.2424
  786MOL0     H 6094   9.205   4.591   8.339  2.9510 -1.9513  1.8784
  786MOL0     H 6095   9.377   4.617   8.501 -0.0845 -2.1461  0.9111
  786MOL0     H 6096   9.394   4.740   8.989 -0.1205 -0.6516  0.4371
  786MOL0     H 6097   9.529   4.732   9.177  1.2013 -0.8744 -0.5457
  786MOL0     H 6098   9.640   4.907   9.313 -0.2692  0.4592  0.2093
  786MOL0     H 6099   9.739   5.026   9.229  3.6090  1.3215 -0.2907
  786MOL0     H 6100   9.776   5.016   9.465  2.4104  2.0742 -0.7144
  786MOL0     H 6101   9.923   4.970   9.384  0.3605  0.1145  3.3115
  786MOL0     H 6102   9.917   4.755   9.439 -0.6186 -0.5145 -1.2370
  786MOL0     H 6103   9.750   4.747   9.459 -0.8996  2.9688 -0.9288
  786MOL0     H 6104   9.751   4.849   9.685  0.2371 -0.6842  2.2476
  786MOL0     H 6105   9.881   4.726   9.669 -1.4640 -0.1427 -0.8204
  786MOL0     H 6106  10.099   5.074   9.752  0.3362  1.1781 -3.3678
  786MOL0     H 6107   9.860   4.895   8.945  0.1557 -0.0507  1.1323
  786MOL0     H 6108   9.861   4.922   8.725  0.3207  0.4655 -0.5101
  786MOL0     H 6109   9.741   4.836   8.627 -1.0161 -2.9187  3.3424
  786MOL0     H 6110   9.718   5.007   8.679  2.4529  1.0683  0.6264
  787MOL0     O 6111   7.197   2.010   3.575 -0.3641  0.2549  0.0963
  787MOL0     C 6112   7.147   2.092   3.502  0.5731  0.3832  0.1531
  787MOL0     O 6113   7.213   2.194   3.443 -0.4513 -0.2968 -0.4125
  787MOL0     C 6114   7.348   2.205   3.458  0.0166 -0.3282 -0.1612
  787MOL0     C 6115   7.406   2.325   3.488  0.0570 -0.2209 -0.1320
  787MOL0     C 6116   7.543   2.339   3.509 -0.9596 -1.0160  0.7437
  787MOL0     C 6117   7.630   2.231   3.475  0.0404 -0.4954  0.1723
  787MOL0     O 6118   7.763   2.268   3.487  0.1033 -0.1178 -0.3364
  787MOL0     C 6119   7.856   2.172   3.444 -0.7746  0.2927 -0.4161
  787MOL0     C 6120   7.997   2.230   3.442 -0.7239  0.8821 -0.3195
  787MOL0     C 6121   8.057   2.234   3.584 -0.2362  0.1329  0.1937
  787MOL0     C 6122   8.186   2.310   3.592  0.4241 -0.6599  0.0833
  787MOL0     C 6123   8.311   2.255   3.521  0.7139  0.0204 -0.1991
  787MOL0     C 6124   8.428   2.352   3.549  0.2760  0.4916  0.3458
  787MOL0     C 6125   8.561   2.287   3.496  0.6474 -0.8616  0.1801
  787MOL0     C 6126   8.677   2.370   3.551 -0.7444 -0.4382 -0.1155
  787MOL0     N 6127   8.800   2.328   3.481  0.6906  0.2799 -0.0828
  787MOL0     C 6128   8.831   2.327   3.348  0.3319 -0.1947  0.4564
  787MOL0     C 6129   8.953   2.262   3.335 -0.3834  0.7565  0.4144
  787MOL0     C 6130   9.020   2.262   3.202 -0.0226  0.1456  0.9030
  787MOL0     C 6131   9.173   2.294   3.213 -0.9942 -0.1677 -1.1421
  787MOL0     C 6132   9.258   2.178   3.279  0.7868 -0.2144  0.8726
  787MOL0     C 6133   9.401   2.229   3.308  1.0892 -0.4392  0.4495
  787MOL0     O 6134   9.489   2.116   3.333 -0.5955 -0.0117  0.3830
  787MOL0     C 6135   9.622   2.129   3.353 -0.7041 -0.6505  0.4569
  787MOL0     C 6136   9.697   2.230   3.415  0.1522 -1.1709  0.6682
  787MOL0     C 6137   9.828   2.210   3.449  0.1542  0.4678 -0.6246
  787MOL0     C 6138   9.890   2.092   3.414  0.0386  0.3150 -0.0813
  787MOL0     C 6139  10.035   2.063   3.440 -0.2479 -0.5295  0.0595
  787MOL0     O 6140  10.110   2.158   3.508  0.6589  0.2812  0.2741
  787MOL0     C 6141  10.249   2.147   3.512  0.5990  0.4197  0.5900
  787MOL0     C 6142  10.319   2.187   3.627  0.1182  0.3689 -0.2160
  787MOL0     C 6143  10.457   2.154   3.637 -0.2539 -0.0616  0.2014
  787MOL0     C 6144  10.526   2.113   3.529  0.1095  0.0321 -0.4126
  787MOL0     O 6145  10.659   2.082   3.556 -0.3198  0.1590  0.2509
  787MOL0     C 6146  10.745   2.095   3.441 -1.0378  0.4698  0.4885
  787MOL0     C 6147  10.887   2.086   3.488  0.0716  0.2930  0.2483
  787MOL0     C 6148  10.920   2.199   3.594 -0.2364  0.7749 -0.2393
  787MOL0     C 6149  11.069   2.190   3.635  0.5890  0.1386 -0.4383
  787MOL0     C 6150  11.096   2.274   3.758  0.2788 -0.2224  0.2980
  787MOL0     C 6151  11.248   2.262   3.806  0.2868  0.3575  0.0849
  787MOL0     C 6152  11.250   2.139   3.902  0.3014  0.1226  0.8253
  787MOL0     C 6153  11.381   2.146   3.975  0.3306 -0.1032 -0.4315
  787MOL0    Cl 6154  11.509   2.141   3.861 -0.2318  0.4127 -0.0989
  787MOL0     C 6155  10.460   2.090   3.400  0.2993  0.3649  0.5368
  787MOL0     C 6156  10.322   2.110   3.398  0.5692 -0.7569 -0.1999
  787MOL0     O 6157  10.077   1.954   3.412 -0.3527 -0.8256  0.5163
  787MOL0     C 6158   9.811   1.987   3.353 -0.4308 -0.3565  0.3239
  787MOL0     C 6159   9.676   2.004   3.326  0.3427 -0.0913 -0.0173
  787MOL0     N 6160   8.985   2.213   3.460 -0.3033 -0.3431 -0.4983
  787MOL0     N 6161   8.895   2.255   3.543  0.7489  0.4162  0.2055
  787MOL0     C 6162   7.573   2.110   3.438  0.5460  0.0525 -0.3584
  787MOL0     C 6163   7.432   2.096   3.422  0.0228  0.0386 -0.1850
  787MOL0     C 6164   7.000   2.073   3.475  0.4174 -0.8941  1.0289
  787MOL0     C 6165   6.925   2.186   3.488 -0.4944  0.8748  0.3334
  787MOL0     C 6166   6.785   2.179   3.471  0.7434  0.1974  1.0456
  787MOL0     C 6167   6.721   2.065   3.421 -0.5667  0.3519 -0.3390
  787MOL0     O 6168   6.586   2.042   3.406 -0.5371 -0.4123  0.1469
  787MOL0     C 6169   6.498   2.117   3.493 -0.7591 -0.2589 -0.0562
  787MOL0     C 6170   6.365   2.050   3.528  0.0559 -0.1024 -0.4197
  787MOL0     C 6171   6.402   1.932   3.626 -0.5685  0.8406 -0.1490
  787MOL0     C 6172   6.270   1.913   3.712 -0.4712  0.3014  0.2238
  787MOL0     C 6173   6.166   1.851   3.623 -0.3571 -0.5632 -1.0998
  787MOL0     C 6174   6.082   1.814   3.543  0.9641 -0.5015  0.1845
  787MOL0     C 6175   6.807   1.950   3.398  0.1813  0.4000  0.0352
  787MOL0     C 6176   6.946   1.954   3.423 -0.0589  0.7122  0.2391
  787MOL0     C 6177   7.020   1.836   3.384 -0.3184  0.2139 -0.6153
  787MOL0     H 6178   7.335   2.407   3.499 -0.9470 -1.0051 -0.5671
  787MOL0     H 6179   7.579   2.436   3.541  1.2047 -1.3606 -0.4536
  787MOL0     H 6180   7.846   2.082   3.506 -2.2033  1.6524  1.4327
  787MOL0     H 6181   7.834   2.147   3.340  2.1084 -0.7417 -0.8719
  787MOL0     H 6182   7.995   2.332   3.403 -1.1702  2.0349  2.4421
  787MOL0     H 6183   8.051   2.169   3.368 -0.5049 -0.1800  0.6786
  787MOL0     H 6184   8.053   2.135   3.630 -2.1943  0.8838  1.7821
  787MOL0     H 6185   7.991   2.299   3.642  0.4323 -0.5708  1.7894
  787MOL0     H 6186   8.170   2.412   3.557  3.3683  0.0025  0.3981
  787MOL0     H 6187   8.206   2.302   3.700  0.1908 -1.8671  0.0543
  787MOL0     H 6188   8.335   2.157   3.563  3.9565  1.6025  2.1322
  787MOL0     H 6189   8.290   2.258   3.414 -2.6389  3.8638  0.2961
  787MOL0     H 6190   8.400   2.446   3.500  2.1682  0.6835 -0.4866
  787MOL0     H 6191   8.434   2.364   3.657  0.7777 -5.0233  1.2295
  787MOL0     H 6192   8.554   2.294   3.388 -1.0644  1.9646  0.3885
  787MOL0     H 6193   8.565   2.180   3.521  0.2592 -1.4913 -2.2346
  787MOL0     H 6194   8.660   2.476   3.533  1.0657 -0.1957 -0.6022
  787MOL0     H 6195   8.680   2.365   3.660 -0.6531  1.4477 -0.0067
  787MOL0     H 6196   8.775   2.381   3.273  0.4822 -0.3253  0.2503
  787MOL0     H 6197   9.011   2.164   3.155  1.2260 -2.0173  4.7482
  787MOL0     H 6198   8.974   2.341   3.142  1.7913  1.6207  1.3387
  787MOL0     H 6199   9.223   2.326   3.121  0.0897 -1.3505 -1.0024
  787MOL0     H 6200   9.179   2.376   3.284 -0.2629 -2.3527  1.5081
  787MOL0     H 6201   9.260   2.087   3.219  2.7931 -0.6818  1.5652
  787MOL0     H 6202   9.223   2.144   3.377 -0.8384 -4.2094 -0.8774
  787MOL0     H 6203   9.408   2.290   3.398  0.6236 -0.2543  0.3602
  787MOL0     H 6204   9.446   2.292   3.230 -0.2340  4.3359  3.1681
  787MOL0     H 6205   9.640   2.315   3.451  1.0419 -1.7005  3.6373
  787MOL0     H 6206   9.877   2.287   3.508  0.5161 -0.2342  0.0090
  787MOL0     H 6207  10.255   2.224   3.707  0.3183  0.4179 -0.0767
  787MOL0     H 6208  10.516   2.167   3.727 -1.0606 -1.5147  0.9717
  787MOL0     H 6209  10.727   2.017   3.366  2.5917  0.8791 -0.9794
  787MOL0     H 6210  10.730   2.193   3.394 -0.5300 -0.0318 -0.7746
  787MOL0     H 6211  10.889   1.990   3.542 -0.2973  0.1458  0.0050
  787MOL0     H 6212  10.958   2.077   3.406  0.2934  0.3950  0.4295
  787MOL0     H 6213  10.895   2.297   3.551  2.3272  1.4066 -0.4219
  787MOL0     H 6214  10.851   2.184   3.678 -0.3492 -0.2467 -0.5054
  787MOL0     H 6215  11.132   2.228   3.554 -1.0661  1.7440 -1.0334
  787MOL0     H 6216  11.096   2.084   3.639  0.2579  0.0190 -1.2752
  787MOL0     H 6217  11.029   2.243   3.840  0.2655 -1.5110 -0.1817
  787MOL0     H 6218  11.078   2.382   3.751 -1.2220 -0.0508  4.1771
  787MOL0     H 6219  11.311   2.247   3.718 -1.8398 -0.4069 -1.3970
  787MOL0     H 6220  11.273   2.358   3.853  1.0515  0.2127 -0.0079
  787MOL0     H 6221  11.236   2.045   3.847 -0.9505  1.2461 -0.8674
  787MOL0     H 6222  11.173   2.148   3.979  0.2571  0.2137  0.7700
  787MOL0     H 6223  11.388   2.238   4.034  0.0497 -0.3410 -0.0214
  787MOL0     H 6224  11.397   2.064   4.046 -2.0881 -0.5439 -0.3193
  787MOL0     H 6225  10.506   2.078   3.303  1.2841  0.9568  0.9089
  787MOL0     H 6226  10.274   2.102   3.301  2.3859  1.4913 -1.3869
  787MOL0     H 6227   9.852   1.891   3.324 -0.7894  0.3361 -2.9294
  787MOL0     H 6228   9.607   1.929   3.292 -0.8575 -0.4080  2.8102
  787MOL0     H 6229   7.630   2.018   3.427 -2.5728 -2.0824 -0.2757
  787MOL0     H 6230   7.391   1.999   3.396  1.1981 -0.5362  0.0347
  787MOL0     H 6231   6.973   2.276   3.527  0.8069 -0.3390  1.6640
  787MOL0     H 6232   6.730   2.259   3.520  1.0385  0.8577  0.3195
  787MOL0     H 6233   6.477   2.216   3.453 -0.3223  1.0599  2.7441
  787MOL0     H 6234   6.556   2.144   3.582 -0.4563 -0.7573 -0.0993
  787MOL0     H 6235   6.311   2.009   3.443  1.8544 -1.6690 -0.8756
  787MOL0     H 6236   6.307   2.132   3.573 -0.7406  1.0056 -3.2800
  787MOL0     H 6237   6.486   1.971   3.685  0.7400  0.7334 -1.8571
  787MOL0     H 6238   6.427   1.841   3.570 -2.5550  0.2692 -0.1751
  787MOL0     H 6239   6.298   1.847   3.795  3.1382 -2.2550 -2.7119
  787MOL0     H 6240   6.239   2.010   3.752  0.5190 -0.6320  3.6971
  787MOL0     H 6241   6.002   1.790   3.477 -0.3860  0.2701  1.4826
  787MOL0     H 6242   6.758   1.861   3.362  0.0107 -0.0561  1.3482
  787MOL0     H 6243   7.100   1.854   3.312 -0.4765 -0.6660 -1.0184
  787MOL0     H 6244   7.056   1.790   3.476 -0.7548  0.1197 -0.4891
  787MOL0     H 6245   6.956   1.758   3.342 -1.0523 -0.3676  1.4604
  788MOL0     O 6246   8.118   4.372   5.026 -0.5589 -0.2569 -0.4520
  788MOL0     C 6247   8.186   4.427   5.117 -0.1135  0.4730  0.0279
  788MOL0     O 6248   8.161   4.552   5.150  0.1132  0.0551 -0.8578
  788MOL0     C 6249   8.085   4.632   5.072  0.2292 -0.0942  0.2757
  788MOL0     C 6250   8.109   4.661   4.939 -0.5974 -0.3398  0.2945
  788MOL0     C 6251   8.027   4.760   4.879  0.2051  0.6556  0.6401
  788MOL0     C 6252   7.924   4.820   4.950  0.9142  0.2420  0.7531
  788MOL0     O 6253   7.834   4.898   4.881  0.5009  0.3827  0.2953
  788MOL0     C 6254   7.731   4.957   4.958  0.4666 -0.2930 -0.3100
  788MOL0     C 6255   7.639   5.037   4.853 -0.3263 -0.3557 -0.0281
  788MOL0     C 6256   7.487   5.019   4.887 -0.5309  0.6995  0.6101
  788MOL0     C 6257   7.404   5.082   4.777 -0.8176  0.9179  0.5402
  788MOL0     C 6258   7.260   5.062   4.800  0.2126 -0.6928  0.6060
  788MOL0     C 6259   7.170   5.110   4.679  0.6133 -0.5650  0.0509
  788MOL0     C 6260   7.170   5.264   4.662  0.0118 -0.2319 -0.3458
  788MOL0     C 6261   7.073   5.330   4.568 -0.1159  0.4733  0.7226
  788MOL0     N 6262   7.053   5.254   4.446 -0.5987 -0.0210  0.5992
  788MOL0     C 6263   7.147   5.239   4.343  0.0894  0.5832 -0.4201
  788MOL0     C 6264   7.099   5.136   4.276 -0.7773  0.1217  0.5362
  788MOL0     C 6265   7.168   5.081   4.155 -0.4692 -0.8363 -0.0108
  788MOL0     C 6266   7.253   4.962   4.193  0.3713  0.6629 -0.1522
  788MOL0     C 6267   7.384   4.967   4.273 -0.3196  0.5032 -0.5157
  788MOL0     C 6268   7.492   5.044   4.193 -1.0877  0.1790 -1.0149
  788MOL0     O 6269   7.475   5.184   4.223 -0.3866  0.9621 -0.0995
  788MOL0     C 6270   7.552   5.231   4.321 -0.7996 -0.3439  0.1334
  788MOL0     C 6271   7.518   5.254   4.449  0.2719  0.0992 -0.6682
  788MOL0     C 6272   7.593   5.315   4.543 -0.3796  0.9309  1.3404
  788MOL0     C 6273   7.720   5.363   4.504 -0.2049  0.8062  0.2079
  788MOL0     C 6274   7.810   5.432   4.603 -0.5936 -0.1213  0.0935
  788MOL0     O 6275   7.940   5.440   4.558  0.9488  0.1370 -0.4814
  788MOL0     C 6276   8.046   5.470   4.636 -0.1303 -0.0605 -0.0442
  788MOL0     C 6277   8.049   5.465   4.779  0.4217  0.7676 -0.6413
  788MOL0     C 6278   8.168   5.475   4.849 -0.5623 -0.2922  0.5708
  788MOL0     C 6279   8.290   5.523   4.789 -0.0272  0.1321 -0.0702
  788MOL0     O 6280   8.394   5.561   4.873 -0.2801 -0.2118  0.5586
  788MOL0     C 6281   8.471   5.674   4.825  0.3453  0.4820  0.5038
  788MOL0     C 6282   8.579   5.715   4.932 -0.7489  0.4470  1.2171
  788MOL0     C 6283   8.644   5.842   4.874 -0.5717  0.7134  0.4714
  788MOL0     C 6284   8.756   5.885   4.960 -0.0928  0.4292  0.3404
  788MOL0     C 6285   8.885   5.870   4.875  0.4026  0.7095 -0.6117
  788MOL0     C 6286   8.999   5.867   4.985  0.6186 -0.1230 -0.2776
  788MOL0     C 6287   9.136   5.858   4.922 -0.3295  0.3281 -0.3451
  788MOL0     C 6288   9.240   5.857   5.038  0.6441  0.4489 -0.9530
  788MOL0    Cl 6289   9.225   5.719   5.159 -0.3690 -0.0141  0.6010
  788MOL0     C 6290   8.291   5.527   4.649  0.7472 -0.3593  0.9004
  788MOL0     C 6291   8.168   5.494   4.578  0.3559  0.2015 -0.1322
  788MOL0     O 6292   7.772   5.459   4.713  0.4809  0.1130 -0.7907
  788MOL0     C 6293   7.766   5.349   4.372  0.6125  0.0460 -0.0741
  788MOL0     C 6294   7.679   5.285   4.284 -0.1363 -0.2456 -0.0317
  788MOL0     N 6295   6.985   5.088   4.319 -0.2562  0.3481  0.2680
  788MOL0     N 6296   6.962   5.155   4.431  0.2210  0.4312 -0.5991
  788MOL0     C 6297   7.903   4.792   5.086  0.0691 -0.0748 -0.1876
  788MOL0     C 6298   7.986   4.698   5.142 -0.7425  0.6448 -0.0484
  788MOL0     C 6299   8.309   4.361   5.162  0.1448  0.8066 -0.3314
  788MOL0     C 6300   8.331   4.222   5.117  0.8151  0.1739 -0.7454
  788MOL0     C 6301   8.441   4.146   5.163  0.0431 -0.5046  0.7386
  788MOL0     C 6302   8.544   4.209   5.239  0.2100  0.1736 -0.5608
  788MOL0     O 6303   8.640   4.123   5.290  0.0824  0.3461  0.5524
  788MOL0     C 6304   8.726   4.191   5.388  1.0206 -0.4360  0.5836
  788MOL0     C 6305   8.814   4.089   5.451  0.6265  0.5701  0.2174
  788MOL0     C 6306   8.938   4.062   5.363  0.7560 -0.1271  1.0438
  788MOL0     C 6307   9.035   3.950   5.411  0.2379 -0.6191 -0.0353
  788MOL0     C 6308   9.084   3.974   5.550 -0.4400 -0.8251 -0.0032
  788MOL0     C 6309   9.117   3.974   5.672 -0.8178  0.5165  0.8255
  788MOL0     C 6310   8.521   4.340   5.277  0.4266  0.0115 -0.1675
  788MOL0     C 6311   8.403   4.412   5.250 -0.5778 -0.0125 -0.0182
  788MOL0     C 6312   8.393   4.540   5.331  0.5972 -0.5081  0.0325
  788MOL0     H 6313   8.187   4.614   4.879 -1.4662 -0.6852 -0.5972
  788MOL0     H 6314   8.035   4.786   4.774  1.2077  1.8687  0.9842
  788MOL0     H 6315   7.669   4.879   5.003 -0.9043  0.3541 -1.0279
  788MOL0     H 6316   7.766   5.027   5.035  0.3728  1.7707 -2.0392
  788MOL0     H 6317   7.663   5.009   4.750  0.1827  1.6275 -0.4971
  788MOL0     H 6318   7.660   5.144   4.855 -1.8217 -0.0250 -0.9379
  788MOL0     H 6319   7.476   5.079   4.978  0.1945  0.0322  1.1460
  788MOL0     H 6320   7.460   4.916   4.914 -1.4374  0.6351 -0.4671
  788MOL0     H 6321   7.429   5.183   4.744 -0.6495  0.3894 -1.0307
  788MOL0     H 6322   7.423   5.025   4.686  0.2054  1.6833  0.2528
  788MOL0     H 6323   7.226   4.958   4.809 -0.5072 -0.4591  0.6907
  788MOL0     H 6324   7.223   5.103   4.894  2.1702  0.9119  0.7363
  788MOL0     H 6325   7.206   5.065   4.586 -0.7562  0.4316 -1.0053
  788MOL0     H 6326   7.065   5.084   4.695  1.1368 -2.9251 -0.0638
  788MOL0     H 6327   7.270   5.304   4.645  1.0111 -2.9118 -1.2598
  788MOL0     H 6328   7.132   5.293   4.761 -0.4332  0.1217 -0.6159
  788MOL0     H 6329   6.975   5.319   4.615  0.4622 -3.7551  1.3686
  788MOL0     H 6330   7.110   5.431   4.547  0.3951 -0.4658 -3.9094
  788MOL0     H 6331   7.241   5.293   4.329  0.7453 -0.3616  0.2816
  788MOL0     H 6332   7.105   5.073   4.065  1.2092 -0.4909 -1.2655
  788MOL0     H 6333   7.235   5.155   4.110 -0.8399 -1.3286 -1.4077
  788MOL0     H 6334   7.182   4.894   4.239  0.3356 -0.8775 -2.3318
  788MOL0     H 6335   7.279   4.916   4.097 -1.9835  1.0766 -1.0549
  788MOL0     H 6336   7.409   4.862   4.292 -4.5374 -0.4137  0.9757
  788MOL0     H 6337   7.366   5.004   4.375  2.9271 -1.2357  0.8540
  788MOL0     H 6338   7.479   5.036   4.085  2.9022 -0.5870 -1.6013
  788MOL0     H 6339   7.595   5.010   4.211 -1.3953 -1.9249 -2.8804
  788MOL0     H 6340   7.417   5.220   4.468  0.4757 -1.7463 -2.4453
  788MOL0     H 6341   7.549   5.327   4.641  0.9814  0.9001  1.9771
  788MOL0     H 6342   7.958   5.444   4.835  1.2832  1.3710  1.0714
  788MOL0     H 6343   8.181   5.455   4.955 -2.9466 -2.9453  0.4779
  788MOL0     H 6344   8.507   5.655   4.723 -1.7565  0.1147 -0.2316
  788MOL0     H 6345   8.400   5.756   4.808 -1.3786 -0.8391  1.0957
  788MOL0     H 6346   8.529   5.743   5.025  0.8188  4.2576  1.0878
  788MOL0     H 6347   8.647   5.629   4.939  0.9969  1.6741  0.1034
  788MOL0     H 6348   8.673   5.823   4.770 -1.7654  1.3151  0.0075
  788MOL0     H 6349   8.576   5.927   4.865 -2.3906 -0.7484 -0.1259
  788MOL0     H 6350   8.756   5.824   5.051 -0.2480 -0.5435 -0.3054
  788MOL0     H 6351   8.738   5.989   4.991 -0.5737  0.2086  0.8243
  788MOL0     H 6352   8.899   5.955   4.807  0.2553  1.8647  0.7496
  788MOL0     H 6353   8.892   5.776   4.819 -0.9655 -0.3287  0.8726
  788MOL0     H 6354   8.998   5.965   5.033  0.0607 -0.6651  0.8714
  788MOL0     H 6355   8.982   5.792   5.063 -1.2396 -1.3139 -1.7522
  788MOL0     H 6356   9.160   5.951   4.871 -2.7066  0.5999 -1.1090
  788MOL0     H 6357   9.140   5.773   4.854 -0.4375  0.6516 -0.7577
  788MOL0     H 6358   9.336   5.843   4.989  0.2359 -0.0061 -1.6494
  788MOL0     H 6359   9.240   5.952   5.091  2.6974 -1.3624  2.6546
  788MOL0     H 6360   8.386   5.553   4.603  0.5609 -0.9733  0.1505
  788MOL0     H 6361   8.165   5.476   4.472  1.6671  1.0519 -0.3442
  788MOL0     H 6362   7.858   5.392   4.333 -0.4221  2.6010  0.0981
  788MOL0     H 6363   7.703   5.277   4.178  1.4373 -3.7321  0.4229
  788MOL0     H 6364   7.819   4.828   5.144  0.3100  0.2174 -0.0226
  788MOL0     H 6365   7.974   4.658   5.242  0.1840 -1.8324 -0.8558
  788MOL0     H 6366   8.256   4.162   5.067 -2.4363 -1.9283  5.6134
  788MOL0     H 6367   8.454   4.041   5.140  0.9878 -0.0183 -1.2161
  788MOL0     H 6368   8.661   4.243   5.459 -1.1062 -0.0493 -1.5337
  788MOL0     H 6369   8.779   4.271   5.335 -2.6890  0.8857 -1.5324
  788MOL0     H 6370   8.761   3.994   5.462  1.0139  0.5877  2.9357
  788MOL0     H 6371   8.849   4.124   5.548 -1.5073  0.9065  0.9311
  788MOL0     H 6372   8.991   4.153   5.332  0.7476 -1.3652 -3.1580
  788MOL0     H 6373   8.903   4.036   5.263  0.2947  1.1470  0.8528
  788MOL0     H 6374   8.985   3.855   5.392  0.6905 -1.0573  0.9022
  788MOL0     H 6375   9.127   3.960   5.352  1.3260  2.2904  1.9431
  788MOL0     H 6376   9.143   3.971   5.776 -2.4300  4.3571  1.5214
  788MOL0     H 6377   8.591   4.399   5.333  1.3501 -0.2450 -1.0162
  788MOL0     H 6378   8.291   4.531   5.369  0.4493  0.2068 -0.1802
  788MOL0     H 6379   8.465   4.537   5.413  0.9867  0.3991 -0.2650
  788MOL0     H 6380   8.417   4.634   5.282  1.5331  0.1613  1.6953
  789MOL0     O 6381  10.572   0.896  10.953 -0.6951  0.5190  0.4245
  789MOL0     C 6382  10.511   0.934  10.853  0.5346  0.1376 -0.2958
  789MOL0     O 6383  10.556   0.945  10.734 -0.4611 -0.0751  0.3527
  789MOL0     C 6384  10.680   0.895  10.714  0.0240 -0.3934  0.3290
  789MOL0     C 6385  10.793   0.962  10.765  0.0132  0.5365  0.8906
  789MOL0     C 6386  10.920   0.908  10.759 -0.2956  0.2346  0.5024
  789MOL0     C 6387  10.942   0.782  10.689 -0.1060  0.1235  0.5097
  789MOL0     O 6388  11.059   0.706  10.699  0.0626 -0.1456 -0.4134
  789MOL0     C 6389  11.180   0.769  10.737 -0.8912 -0.1259 -0.2860
  789MOL0     C 6390  11.279   0.681  10.664 -0.6218 -0.4622 -0.4896
  789MOL0     C 6391  11.419   0.725  10.707  0.0133 -0.0374  0.9748
  789MOL0     C 6392  11.539   0.635  10.655 -0.6133 -0.9780  0.2540
  789MOL0     C 6393  11.662   0.666  10.730 -0.2205 -0.2739 -0.0581
  789MOL0     C 6394  11.774   0.581  10.668 -0.3186 -0.2424 -0.1125
  789MOL0     C 6395  11.914   0.595  10.739  0.4948  0.1156 -0.1946
  789MOL0     C 6396  11.970   0.734  10.756  0.5131  0.5403 -0.2585
  789MOL0     N 6397  12.099   0.731  10.831 -0.5758 -0.1623  0.3993
  789MOL0     C 6398  12.124   0.761  10.963  0.7593  0.1688 -0.2962
  789MOL0     C 6399  12.259   0.770  10.977  0.3117  0.6152  0.3329
  789MOL0     C 6400  12.329   0.835  11.090 -0.5351  0.0778 -0.2475
  789MOL0     C 6401  12.372   0.977  11.062  0.0647 -0.6755 -0.4259
  789MOL0     C 6402  12.439   1.046  11.189  0.4058 -0.3876  0.6909
  789MOL0     C 6403  12.575   0.982  11.213  0.0781 -0.1655  0.7937
  789MOL0     O 6404  12.656   1.011  11.095 -0.7704  0.3186 -0.1031
  789MOL0     C 6405  12.761   0.926  11.079 -0.1164  0.0028  0.9021
  789MOL0     C 6406  12.859   0.887  11.173  0.1947 -0.0235 -0.5204
  789MOL0     C 6407  12.963   0.802  11.146  0.4243 -0.0917  0.7446
  789MOL0     C 6408  12.978   0.741  11.021  0.3031 -0.8022  1.0896
  789MOL0     C 6409  13.096   0.667  10.974  0.4242 -0.7605  0.3470
  789MOL0     O 6410  13.208   0.681  11.043 -0.4495 -0.3160  0.7677
  789MOL0     C 6411  13.326   0.633  10.988 -0.2447  1.2693  0.2341
  789MOL0     C 6412  13.405   0.544  11.067 -0.4760  0.3198 -0.3701
  789MOL0     C 6413  13.529   0.494  11.010  0.4120 -1.0208 -0.7560
  789MOL0     C 6414  13.581   0.543  10.888  0.4385  0.3419 -0.1831
  789MOL0     O 6415  13.706   0.505  10.856  0.1048 -0.5407 -0.5570
  789MOL0     C 6416  13.740   0.486  10.719 -0.7621  0.1924  0.2943
  789MOL0     C 6417  13.854   0.389  10.694  0.0947  0.8575  0.0714
  789MOL0     C 6418  13.989   0.442  10.754 -0.4337 -0.1509 -0.0670
  789MOL0     C 6419  14.093   0.326  10.764 -0.1055 -0.3932 -0.5407
  789MOL0     C 6420  14.235   0.377  10.756  0.3999 -0.4011 -0.3842
  789MOL0     C 6421  14.329   0.254  10.749  0.2907 -0.4346 -0.1006
  789MOL0     C 6422  14.475   0.292  10.766 -0.7065 -0.0813 -0.3416
  789MOL0     C 6423  14.554   0.166  10.773 -1.2438  0.6580  0.1818
  789MOL0    Cl 6424  14.724   0.231  10.782 -0.0196 -0.0188 -0.2146
  789MOL0     C 6425  13.496   0.630  10.818  0.1246 -0.5887 -0.4439
  789MOL0     C 6426  13.372   0.677  10.866  0.4232 -0.0032 -0.6532
  789MOL0     O 6427  13.078   0.587  10.883 -0.1494  0.3100 -0.2961
  789MOL0     C 6428  12.885   0.789  10.922  0.6611 -0.2482  0.5431
  789MOL0     C 6429  12.776   0.875  10.955 -0.1007  0.1442  0.3709
  789MOL0     N 6430  12.314   0.730  10.857  1.2583  0.4012 -0.2036
  789MOL0     N 6431  12.217   0.712  10.772  0.2128 -0.4471 -1.4627
  789MOL0     C 6432  10.826   0.718  10.632 -0.0053 -0.4594 -0.8274
  789MOL0     C 6433  10.700   0.778  10.645  0.2215  0.5431  0.0644
  789MOL0     C 6434  10.369   0.970  10.878 -0.9747  0.1490  0.5584
  789MOL0     C 6435  10.295   1.029  10.777  0.2000 -0.2699 -0.4917
  789MOL0     C 6436  10.160   1.066  10.801  0.7278 -0.1805 -0.2321
  789MOL0     C 6437  10.094   1.049  10.921 -0.7399 -0.1605  0.5998
  789MOL0     O 6438   9.966   1.068  10.926  0.3370 -0.0039  0.3869
  789MOL0     C 6439   9.919   1.185  11.001  0.1645  0.4969 -0.5318
  789MOL0     C 6440   9.769   1.189  10.992  0.0185 -0.0804 -0.4250
  789MOL0     C 6441   9.716   1.231  10.851  0.0342 -0.3460  0.7899
  789MOL0     C 6442   9.568   1.259  10.847  0.3088  0.3332  0.2667
  789MOL0     C 6443   9.522   1.346  10.739 -0.8210  0.0246  0.4219
  789MOL0     C 6444   9.469   1.410  10.645 -0.6909 -0.5277 -0.3395
  789MOL0     C 6445  10.175   0.994  11.019 -0.5772  0.0513  0.2962
  789MOL0     C 6446  10.307   0.952  11.002  0.2564 -0.2933  0.8420
  789MOL0     C 6447  10.362   0.893  11.126  0.4015 -0.4173  1.0939
  789MOL0     H 6448  10.770   1.058  10.810  0.3476 -0.3899  3.1973
  789MOL0     H 6449  11.002   0.962  10.804 -0.1917 -0.0163  0.6158
  789MOL0     H 6450  11.193   0.872  10.704  0.8420  0.2917  1.5056
  789MOL0     H 6451  11.192   0.765  10.845  0.9185 -1.7264 -0.4945
  789MOL0     H 6452  11.270   0.676  10.555  1.2362  0.4058 -0.7131
  789MOL0     H 6453  11.275   0.582  10.710  0.4412  0.2776  1.2475
  789MOL0     H 6454  11.411   0.712  10.815 -0.8285 -0.4518  0.8739
  789MOL0     H 6455  11.440   0.831  10.688  0.4917 -0.5505 -1.8022
  789MOL0     H 6456  11.513   0.528  10.655 -1.0681 -0.8868 -0.8304
  789MOL0     H 6457  11.556   0.673  10.554  0.1584  1.0472  1.0956
  789MOL0     H 6458  11.680   0.773  10.710 -2.4685  0.0649 -0.5287
  789MOL0     H 6459  11.654   0.649  10.838  0.3832 -1.2977 -0.1613
  789MOL0     H 6460  11.743   0.476  10.669  0.8867 -0.6142 -0.0790
  789MOL0     H 6461  11.784   0.607  10.562 -0.5976 -0.1384 -0.1132
  789MOL0     H 6462  11.983   0.535  10.679 -0.7808 -3.4753  1.6309
  789MOL0     H 6463  11.909   0.550  10.839 -1.9045 -2.1668 -1.2371
  789MOL0     H 6464  11.986   0.776  10.656  0.1779  0.6203 -0.2777
  789MOL0     H 6465  11.895   0.787  10.816  1.0129 -2.2729  3.2190
  789MOL0     H 6466  12.047   0.788  11.034  2.1487 -2.9202  2.6856
  789MOL0     H 6467  12.292   0.821  11.192  1.6737 -2.9111  0.2867
  789MOL0     H 6468  12.422   0.778  11.097  0.8295  2.2775  0.9545
  789MOL0     H 6469  12.445   0.973  10.980  0.8931 -1.1936  0.3147
  789MOL0     H 6470  12.289   1.038  11.026  1.9863  1.2100 -1.9251
  789MOL0     H 6471  12.374   1.050  11.277  1.3790 -2.2952  1.5427
  789MOL0     H 6472  12.453   1.153  11.166 -0.4469 -0.6215 -1.1511
  789MOL0     H 6473  12.567   0.877  11.243  5.4274 -0.1846  3.3189
  789MOL0     H 6474  12.618   1.036  11.297  0.6277  1.1129 -0.2808
  789MOL0     H 6475  12.856   0.931  11.272 -1.0990 -2.6541  0.6942
  789MOL0     H 6476  13.037   0.785  11.224  2.1240  0.7821 -0.5913
  789MOL0     H 6477  13.383   0.494  11.160  1.5675 -4.0503 -1.9274
  789MOL0     H 6478  13.599   0.428  11.060  2.5333  2.5519  1.4577
  789MOL0     H 6479  13.663   0.438  10.657 -0.6159  0.3941 -0.0443
  789MOL0     H 6480  13.757   0.583  10.672  0.5281 -0.2806 -0.2525
  789MOL0     H 6481  13.825   0.293  10.738 -3.9781 -0.5024 -4.6927
  789MOL0     H 6482  13.867   0.374  10.587 -1.8837 -0.5137 -0.0245
  789MOL0     H 6483  14.027   0.523  10.691  1.0087 -0.4350  0.3912
  789MOL0     H 6484  13.971   0.473  10.857  1.4323 -3.0926  1.2785
  789MOL0     H 6485  14.064   0.247  10.695 -1.4983 -1.6826  1.4126
  789MOL0     H 6486  14.092   0.281  10.864 -0.7040 -0.0507 -0.3860
  789MOL0     H 6487  14.261   0.444  10.838 -3.2195  0.2969  0.3227
  789MOL0     H 6488  14.249   0.437  10.665  1.4382 -2.0095 -1.3379
  789MOL0     H 6489  14.308   0.174  10.820  3.0941 -0.3294  0.9949
  789MOL0     H 6490  14.302   0.209  10.653 -2.5374 -2.8600  1.6593
  789MOL0     H 6491  14.499   0.340  10.861  0.1139  0.1522 -0.6680
  789MOL0     H 6492  14.503   0.357  10.684  0.6670 -1.7989 -1.3100
  789MOL0     H 6493  14.528   0.098  10.855 -0.1022  0.3307  0.2913
  789MOL0     H 6494  14.556   0.108  10.681  0.3512 -0.9135  1.1433
  789MOL0     H 6495  13.531   0.655  10.718 -0.7947 -2.1334 -1.1763
  789MOL0     H 6496  13.313   0.737  10.797  0.2480 -0.4700 -0.9126
  789MOL0     H 6497  12.890   0.754  10.820 -1.4286 -0.6575  0.5325
  789MOL0     H 6498  12.696   0.898  10.885  2.3096  0.2992 -2.5584
  789MOL0     H 6499  10.846   0.615  10.606 -0.3629 -0.3819 -1.4336
  789MOL0     H 6500  10.611   0.722  10.619 -0.6634  1.8166  0.2614
  789MOL0     H 6501  10.318   1.026  10.671 -2.2452 -0.9526 -1.0781
  789MOL0     H 6502  10.106   1.112  10.720  0.8407  1.1777  0.4240
  789MOL0     H 6503   9.975   1.267  10.956  0.4025  0.5876 -0.0742
  789MOL0     H 6504   9.947   1.183  11.106 -0.1887 -0.4249 -0.4439
  789MOL0     H 6505   9.724   1.259  11.062  0.3486  1.1207 -1.3725
  789MOL0     H 6506   9.733   1.090  11.021  1.8664 -0.7332 -0.2114
  789MOL0     H 6507   9.736   1.150  10.780 -0.0998  0.8417 -0.6696
  789MOL0     H 6508   9.771   1.318  10.814  0.0253 -1.2677 -1.6359
  789MOL0     H 6509   9.520   1.161  10.837  1.2809 -0.2700  1.3240
  789MOL0     H 6510   9.547   1.310  10.942 -1.9346 -0.3071  0.1699
  789MOL0     H 6511   9.429   1.459  10.558  0.2103 -1.2154 -1.1612
  789MOL0     H 6512  10.117   0.982  11.110  0.3191 -0.1447  0.8520
  789MOL0     H 6513  10.372   0.786  11.106 -0.7680 -0.3822  0.2025
  789MOL0     H 6514  10.453   0.934  11.171  1.0286 -1.6999  1.0344
  789MOL0     H 6515  10.292   0.904  11.209 -0.3320 -0.4313  0.4815
  790MOL0     O 6516  10.538   8.544   2.616 -0.4264  0.5087  0.3885
  790MOL0     C 6517  10.519   8.560   2.742  1.0475 -0.3532 -0.1137
  790MOL0     O 6518  10.612   8.557   2.835 -0.5006 -0.1922  0.1952
  790MOL0     C 6519  10.741   8.537   2.783 -0.0629 -0.6230  0.4161
  790MOL0     C 6520  10.771   8.412   2.731 -0.8256 -0.3552 -1.1373
  790MOL0     C 6521  10.901   8.399   2.678 -0.5399 -0.1907  0.3820
  790MOL0     C 6522  10.998   8.494   2.693 -0.3440  0.0201  0.5296
  790MOL0     O 6523  11.116   8.464   2.635 -0.1137 -0.3352  0.1784
  790MOL0     C 6524  11.223   8.560   2.644  0.0988 -0.8831  0.4717
  790MOL0     C 6525  11.360   8.508   2.584  1.0768 -0.1793 -0.6042
  790MOL0     C 6526  11.475   8.600   2.642 -0.2876  1.0370 -0.9519
  790MOL0     C 6527  11.581   8.601   2.532 -0.0569 -0.6710  0.0004
  790MOL0     C 6528  11.718   8.658   2.585 -0.2486 -0.6032 -0.1759
  790MOL0     C 6529  11.805   8.541   2.644  0.0173 -0.1007  0.7966
  790MOL0     C 6530  11.913   8.589   2.733  0.3014  0.1654  0.4226
  790MOL0     C 6531  12.001   8.471   2.773  0.0666 -0.7534 -0.6086
  790MOL0     N 6532  12.117   8.528   2.843 -0.3184 -0.6058 -0.0004
  790MOL0     C 6533  12.144   8.540   2.976 -0.2260 -0.1385 -0.0419
  790MOL0     C 6534  12.266   8.599   2.989 -0.2220 -0.0869  0.4075
  790MOL0     C 6535  12.321   8.653   3.118 -0.2843 -0.4357 -0.3041
  790MOL0     C 6536  12.281   8.798   3.149 -0.0197 -0.6022 -0.3234
  790MOL0     C 6537  12.354   8.835   3.279 -0.1055 -0.2924  0.1599
  790MOL0     C 6538  12.506   8.873   3.268 -0.1305 -0.5725 -0.4647
  790MOL0     O 6539  12.542   8.972   3.176 -0.9111 -0.1193  0.3067
  790MOL0     C 6540  12.668   9.022   3.154 -0.4928  0.5696 -1.0015
  790MOL0     C 6541  12.783   8.973   3.214 -0.3586 -0.3817 -0.0553
  790MOL0     C 6542  12.908   9.032   3.201 -0.1220 -0.3511  0.2976
  790MOL0     C 6543  12.930   9.138   3.105  0.4149 -0.1219  0.3804
  790MOL0     C 6544  13.065   9.182   3.074  1.0052 -0.2970  0.6736
  790MOL0     O 6545  13.082   9.274   2.965  0.0971 -0.0341 -0.5242
  790MOL0     C 6546  13.205   9.322   2.926  0.1038 -0.2408  0.2483
  790MOL0     C 6547  13.224   9.458   2.896  0.1098  0.4321 -0.0545
  790MOL0     C 6548  13.344   9.503   2.848 -1.1402  0.7022  0.1682
  790MOL0     C 6549  13.459   9.419   2.853 -0.0563  0.5038 -0.0379
  790MOL0     O 6550  13.589   9.449   2.819 -0.6083 -0.4320 -0.3648
  790MOL0     C 6551  13.609   9.593   2.811 -0.9138  0.0683  0.2800
  790MOL0     C 6552  13.751   9.629   2.820 -0.1062  0.1838  0.2152
  790MOL0     C 6553  13.840   9.551   2.722 -0.5822 -0.0794  0.4805
  790MOL0     C 6554  13.980   9.604   2.723 -0.4105  0.1747 -0.2663
  790MOL0     C 6555  14.010   9.697   2.607  0.1317  0.3786 -0.3744
  790MOL0     C 6556  14.160   9.724   2.595 -0.3289  0.3938 -0.3624
  790MOL0     C 6557  14.225   9.782   2.720  0.2058 -0.0967  0.6441
  790MOL0     C 6558  14.366   9.841   2.701  0.5242  0.1083  0.2666
  790MOL0    Cl 6559  14.420   9.910   2.852 -0.2531  0.0427 -0.2311
  790MOL0     C 6560  13.437   9.281   2.893 -0.8072  0.0481  0.5397
  790MOL0     C 6561  13.307   9.233   2.910 -1.4153 -0.3314  0.4100
  790MOL0     O 6562  13.154   9.135   3.145 -0.3194  0.8649  0.2016
  790MOL0     C 6563  12.807   9.193   3.051  0.3605  0.1658  0.3959
  790MOL0     C 6564  12.684   9.135   3.075 -0.3946 -0.2838  0.4280
  790MOL0     N 6565  12.317   8.607   2.863 -0.0912 -0.9663  0.2380
  790MOL0     N 6566  12.234   8.561   2.778  0.1218  0.4988  0.2309
  790MOL0     C 6567  10.962   8.616   2.760 -0.9990 -0.2674  0.2186
  790MOL0     C 6568  10.838   8.637   2.805  0.6272 -0.2027  0.1402
  790MOL0     C 6569  10.380   8.577   2.801 -0.4005  0.5803 -0.0586
  790MOL0     C 6570  10.381   8.615   2.940  0.2862 -0.2339 -0.3255
  790MOL0     C 6571  10.252   8.641   2.997 -0.5904 -0.0352  0.1171
  790MOL0     C 6572  10.141   8.629   2.921 -0.4274  0.6099  0.7281
  790MOL0     O 6573  10.022   8.665   2.993  0.0778 -0.6243 -0.2803
  790MOL0     C 6574   9.906   8.611   2.937  0.8968  0.6036  0.6292
  790MOL0     C 6575   9.793   8.614   3.030  0.5969 -0.1435  0.0034
  790MOL0     C 6576   9.772   8.758   3.074  0.0087 -0.7202 -0.3060
  790MOL0     C 6577   9.631   8.787   3.145 -0.0838  0.1931 -0.6811
  790MOL0     C 6578   9.618   8.716   3.276 -0.1941 -0.9220 -0.8857
  790MOL0     C 6579   9.618   8.655   3.383 -0.6441 -1.0043 -0.8134
  790MOL0     C 6580  10.144   8.583   2.795 -1.0316  0.7127  0.7557
  790MOL0     C 6581  10.264   8.546   2.733 -0.1271 -0.8297 -0.8107
  790MOL0     C 6582  10.239   8.490   2.592  0.0118 -0.5300 -0.6411
  790MOL0     H 6583  10.706   8.326   2.735 -0.7790 -0.3827  2.8887
  790MOL0     H 6584  10.936   8.303   2.643  2.1604  0.7570  0.2647
  790MOL0     H 6585  11.209   8.662   2.608 -0.7288 -1.2737 -0.3392
  790MOL0     H 6586  11.237   8.577   2.751  0.3303 -0.7937  0.4279
  790MOL0     H 6587  11.339   8.520   2.478 -0.0035  1.4963 -0.2455
  790MOL0     H 6588  11.378   8.403   2.609 -1.6446 -0.0322  2.8982
  790MOL0     H 6589  11.504   8.551   2.736  1.7148  0.4681 -1.8057
  790MOL0     H 6590  11.441   8.703   2.659  0.9769  1.1881  0.9192
  790MOL0     H 6591  11.598   8.508   2.477  0.1114  0.6025 -2.2128
  790MOL0     H 6592  11.539   8.682   2.472  0.5346 -0.5673 -0.2819
  790MOL0     H 6593  11.784   8.709   2.514 -1.2413  0.3441 -0.4429
  790MOL0     H 6594  11.697   8.724   2.669  0.4697 -2.9195  1.9377
  790MOL0     H 6595  11.738   8.475   2.699 -1.9598  2.2112  1.3348
  790MOL0     H 6596  11.849   8.483   2.562 -0.3048  0.2526  0.3683
  790MOL0     H 6597  11.869   8.647   2.815 -0.5646  1.4442 -0.8966
  790MOL0     H 6598  11.967   8.665   2.676 -1.4297  2.2079  1.3474
  790MOL0     H 6599  11.955   8.399   2.841  1.6240 -0.6301  0.6175
  790MOL0     H 6600  12.029   8.412   2.684 -1.9473 -0.8550 -1.2317
  790MOL0     H 6601  12.076   8.538   3.061 -0.7412 -1.2180 -0.4682
  790MOL0     H 6602  12.290   8.597   3.207 -1.0104 -2.3296 -1.7012
  790MOL0     H 6603  12.430   8.647   3.119 -0.0982  1.3580 -2.4055
  790MOL0     H 6604  12.323   8.866   3.074  1.5936 -2.9664 -1.7228
  790MOL0     H 6605  12.173   8.809   3.148  0.0696  0.4031 -0.6091
  790MOL0     H 6606  12.329   8.761   3.357  0.2772 -1.8271 -1.1193
  790MOL0     H 6607  12.310   8.931   3.307 -1.2647 -1.1567  1.4812
  790MOL0     H 6608  12.570   8.787   3.248 -1.7345 -1.6114 -1.3281
  790MOL0     H 6609  12.527   8.906   3.370 -0.2020 -2.3547  0.1458
  790MOL0     H 6610  12.787   8.884   3.276 -0.6326 -0.1267  0.3351
  790MOL0     H 6611  12.995   8.976   3.236  0.7967 -0.6276 -2.2121
  790MOL0     H 6612  13.140   9.527   2.899 -0.1391  0.1160  0.3479
  790MOL0     H 6613  13.345   9.597   2.795  1.8460  0.3808 -0.4713
  790MOL0     H 6614  13.579   9.640   2.717  0.1963 -0.0711 -0.1583
  790MOL0     H 6615  13.557   9.631   2.899  1.9605 -0.5855  2.4094
  790MOL0     H 6616  13.763   9.737   2.806 -0.3740  0.5439  2.3511
  790MOL0     H 6617  13.800   9.609   2.916  0.9631  0.3730 -0.2741
  790MOL0     H 6618  13.827   9.444   2.740 -1.8675 -0.4697 -2.1703
  790MOL0     H 6619  13.809   9.549   2.617 -4.0307  2.8450  1.2237
  790MOL0     H 6620  14.053   9.524   2.713  0.0435  0.6441 -0.8335
  790MOL0     H 6621  14.007   9.654   2.817 -0.0128  0.4031 -0.4988
  790MOL0     H 6622  13.958   9.793   2.607 -1.1043 -0.2552 -1.3058
  790MOL0     H 6623  13.984   9.648   2.512  1.0595 -1.0623  0.0821
  790MOL0     H 6624  14.214   9.632   2.568  0.2885  1.4558 -3.0796
  790MOL0     H 6625  14.161   9.792   2.509  0.3776  0.3129 -0.4236
  790MOL0     H 6626  14.227   9.707   2.799 -2.2535 -1.6083 -0.6187
  790MOL0     H 6627  14.160   9.864   2.752 -1.8013 -2.0759  1.9673
  790MOL0     H 6628  14.440   9.768   2.667  0.5028  0.3361 -0.2771
  790MOL0     H 6629  14.344   9.912   2.621 -2.4413 -0.3039  0.6088
  790MOL0     H 6630  13.522   9.215   2.906 -0.8941 -0.2360 -0.2682
  790MOL0     H 6631  13.311   9.136   2.958  2.7753  0.1214  1.4211
  790MOL0     H 6632  12.821   9.279   2.986 -0.1247  0.9413  1.2810
  790MOL0     H 6633  12.604   9.178   3.016 -0.3054 -0.9614 -0.2101
  790MOL0     H 6634  11.040   8.688   2.779  1.0550 -1.8819 -1.6183
  790MOL0     H 6635  10.809   8.725   2.861 -0.9232 -1.1412  0.8641
  790MOL0     H 6636  10.461   8.612   3.013 -2.1338 -2.3822  2.5024
  790MOL0     H 6637  10.247   8.664   3.103  0.6040 -0.5618  0.2982
  790MOL0     H 6638   9.913   8.508   2.903  2.1733  1.1763 -0.9969
  790MOL0     H 6639   9.883   8.671   2.848 -0.2671 -1.5281 -0.5816
  790MOL0     H 6640   9.818   8.547   3.112 -2.4162 -3.1051 -1.2842
  790MOL0     H 6641   9.705   8.577   2.977  1.3375  0.5250 -1.7896
  790MOL0     H 6642   9.764   8.812   2.979  0.9914 -1.0704 -0.6067
  790MOL0     H 6643   9.862   8.787   3.128 -1.9471  0.0691  2.7692
  790MOL0     H 6644   9.608   8.894   3.156 -2.9478 -0.2427 -1.6009
  790MOL0     H 6645   9.552   8.751   3.078 -3.8125  2.1665  2.2355
  790MOL0     H 6646   9.624   8.609   3.480 -0.4083 -1.5782 -1.1013
  790MOL0     H 6647  10.053   8.560   2.741 -0.8686 -0.9260  1.1333
  790MOL0     H 6648  10.149   8.430   2.573  0.6010 -1.9927  0.9270
  790MOL0     H 6649  10.246   8.566   2.514  2.0796 -1.3481 -1.3317
  790MOL0     H 6650  10.319   8.419   2.571  1.4135  0.7789  0.0958
  791MOL0     O 6651   7.962   0.969   5.932  0.1443 -0.5173 -0.5676
  791MOL0     C 6652   7.905   0.990   5.824 -0.3270  0.4726 -0.4941
  791MOL0     O 6653   7.959   1.049   5.718 -0.5313 -0.2993  0.1206
  791MOL0     C 6654   8.076   1.118   5.732 -0.0516 -0.6253 -0.7412
  791MOL0     C 6655   8.079   1.239   5.666  0.8143 -0.1576  1.1500
  791MOL0     C 6656   8.189   1.316   5.661 -0.4660  0.2093  0.0088
  791MOL0     C 6657   8.312   1.266   5.709  0.5350 -0.3125  0.5444
  791MOL0     O 6658   8.419   1.341   5.711 -0.3796 -0.3823 -0.1049
  791MOL0     C 6659   8.515   1.344   5.608 -0.2744 -0.5572 -0.2497
  791MOL0     C 6660   8.633   1.240   5.637  0.9610 -0.5363 -0.5339
  791MOL0     C 6661   8.763   1.307   5.680  0.3782  0.5424 -0.4830
  791MOL0     C 6662   8.824   1.385   5.568 -0.1429  0.2711  0.6720
  791MOL0     C 6663   8.975   1.402   5.566  0.2516  0.5309  0.0308
  791MOL0     C 6664   9.017   1.492   5.688  0.7263  0.4459  0.1058
  791MOL0     C 6665   9.170   1.492   5.705 -0.4139 -0.1815  0.4259
  791MOL0     C 6666   9.218   1.373   5.784  0.7348  0.2116  0.0201
  791MOL0     N 6667   9.368   1.358   5.790 -0.2074 -1.2021  0.2671
  791MOL0     C 6668   9.450   1.327   5.684  0.1017  0.4647 -1.0650
  791MOL0     C 6669   9.570   1.370   5.728 -0.4218 -0.1824 -0.3868
  791MOL0     C 6670   9.706   1.359   5.658 -0.0166  1.2686  0.5523
  791MOL0     C 6671   9.818   1.287   5.736 -1.4168 -0.1534  0.0400
  791MOL0     C 6672   9.952   1.290   5.656  0.0023 -0.3684  0.5716
  791MOL0     C 6673   9.962   1.212   5.526 -0.0748 -0.5231  0.7602
  791MOL0     O 6674  10.101   1.229   5.482 -0.2893 -0.6888 -0.4089
  791MOL0     C 6675  10.146   1.163   5.366  0.8437  0.3665 -0.2246
  791MOL0     C 6676  10.059   1.085   5.291  0.0680  0.7121  0.2363
  791MOL0     C 6677  10.105   1.004   5.188 -0.6591 -0.6767  0.1240
  791MOL0     C 6678  10.237   1.018   5.138  0.3909  0.2037  0.2856
  791MOL0     C 6679  10.275   0.950   5.014 -0.5295 -0.1081  0.2670
  791MOL0     O 6680  10.375   1.000   4.926  0.2916  0.2278  0.0079
  791MOL0     C 6681  10.427   0.910   4.836  0.4912  0.2971  0.4012
  791MOL0     C 6682  10.376   0.915   4.709 -0.2910  1.3910 -0.2894
  791MOL0     C 6683  10.431   0.838   4.609 -0.3354 -0.3171 -0.5129
  791MOL0     C 6684  10.549   0.757   4.636  0.5786  0.2768  0.1421
  791MOL0     O 6685  10.620   0.694   4.547 -0.3076  0.1459  0.0827
  791MOL0     C 6686  10.559   0.639   4.432  0.8419  0.0850 -0.7155
  791MOL0     C 6687  10.664   0.573   4.344 -0.6483 -0.3121  0.0570
  791MOL0     C 6688  10.702   0.434   4.381 -0.8396  0.7791  0.3283
  791MOL0     C 6689  10.821   0.383   4.288 -0.2505  0.6770  0.3889
  791MOL0     C 6690  10.822   0.229   4.279 -0.9483 -0.0724  0.5506
  791MOL0     C 6691  10.927   0.171   4.374 -0.0359  0.2858  0.1609
  791MOL0     C 6692  10.897   0.187   4.520  0.0952 -0.4363  0.0067
  791MOL0     C 6693  11.014   0.127   4.605  0.6982 -0.3657 -0.3536
  791MOL0    Cl 6694  10.946   0.089   4.773  0.5391  0.6663  0.4967
  791MOL0     C 6695  10.606   0.752   4.761  0.9709  0.3831 -0.1363
  791MOL0     C 6696  10.539   0.823   4.860 -0.3029 -0.4503  0.4894
  791MOL0     O 6697  10.216   0.848   4.994 -0.0993  0.0798 -0.9933
  791MOL0     C 6698  10.314   1.120   5.200  1.0342 -0.1806  0.3050
  791MOL0     C 6699  10.269   1.175   5.324 -0.6166 -0.6226  0.5947
  791MOL0     N 6700   9.563   1.450   5.842 -0.0790  0.9192 -0.5167
  791MOL0     N 6701   9.440   1.441   5.878 -0.1727 -0.6883 -0.2782
  791MOL0     C 6702   8.314   1.142   5.768 -0.4870 -0.8238  0.3374
  791MOL0     C 6703   8.199   1.066   5.782  0.9674 -0.2423  0.2516
  791MOL0     C 6704   7.774   0.919   5.807  0.2929 -0.8788  0.3012
  791MOL0     C 6705   7.751   0.794   5.870  0.6709 -0.7832  0.2683
  791MOL0     C 6706   7.629   0.724   5.850 -0.4120  0.6529  0.6130
  791MOL0     C 6707   7.529   0.765   5.767  0.0691  0.4608 -0.1414
  791MOL0     O 6708   7.427   0.674   5.753  0.3375  0.2994 -0.4041
  791MOL0     C 6709   7.306   0.734   5.699  0.0245 -0.6258 -0.0233
  791MOL0     C 6710   7.196   0.638   5.681  0.4056 -0.1223  0.7429
  791MOL0     C 6711   7.115   0.592   5.794 -0.4749 -0.0814 -0.4962
  791MOL0     C 6712   7.029   0.703   5.845  0.4438  0.1146 -0.3908
  791MOL0     C 6713   7.012   0.703   5.995 -0.1401 -0.3403 -0.2845
  791MOL0     C 6714   7.019   0.695   6.117  0.0782 -0.1360  1.1361
  791MOL0     C 6715   7.555   0.882   5.694 -0.6445 -0.6915  0.5486
  791MOL0     C 6716   7.672   0.964   5.719 -0.3715  0.9605 -0.0655
  791MOL0     C 6717   7.691   1.093   5.645 -0.3459 -0.1534  0.1953
  791MOL0     H 6718   7.989   1.267   5.611  0.7386 -0.3102  1.1960
  791MOL0     H 6719   8.205   1.413   5.615  3.1669 -0.8082 -1.1899
  791MOL0     H 6720   8.458   1.318   5.518 -1.8154 -1.6076  0.9650
  791MOL0     H 6721   8.554   1.445   5.594 -0.3908 -0.7970 -2.6685
  791MOL0     H 6722   8.643   1.183   5.544 -3.3716  0.3237 -1.7520
  791MOL0     H 6723   8.598   1.168   5.711  0.6438 -1.8825 -1.9448
  791MOL0     H 6724   8.834   1.233   5.720  0.3406  1.2380  0.9319
  791MOL0     H 6725   8.754   1.383   5.759 -2.3026 -0.1534 -0.0179
  791MOL0     H 6726   8.801   1.332   5.475 -2.3245 -0.9740  1.8443
  791MOL0     H 6727   8.769   1.476   5.546 -0.3983  0.0976  0.5887
  791MOL0     H 6728   9.022   1.304   5.561  0.6237  0.3985  3.5647
  791MOL0     H 6729   8.998   1.450   5.470 -2.5714 -0.3914 -1.2154
  791MOL0     H 6730   8.987   1.595   5.665 -2.1150 -0.9611 -3.5016
  791MOL0     H 6731   8.967   1.472   5.783  1.2094  1.2911  0.5500
  791MOL0     H 6732   9.203   1.591   5.739 -2.0991  1.4377 -2.2405
  791MOL0     H 6733   9.209   1.492   5.603 -1.8281  3.1773 -0.2690
  791MOL0     H 6734   9.192   1.387   5.889 -0.1172  0.6078 -0.2379
  791MOL0     H 6735   9.175   1.282   5.741  0.7829 -0.1883  0.8022
  791MOL0     H 6736   9.431   1.266   5.596 -1.1814  1.2924 -1.3913
  791MOL0     H 6737   9.677   1.300   5.570  0.6768 -1.9249  2.2822
  791MOL0     H 6738   9.742   1.459   5.632 -0.3521  1.0854 -0.7237
  791MOL0     H 6739   9.841   1.340   5.829  0.7312 -2.1491  0.7195
  791MOL0     H 6740   9.799   1.181   5.754  1.3699 -0.6097  0.6830
  791MOL0     H 6741  10.020   1.236   5.722 -4.1444 -4.9708  1.7102
  791MOL0     H 6742   9.967   1.398   5.642 -1.6203  0.0563  1.7559
  791MOL0     H 6743   9.915   1.271   5.447  2.3129  0.2750 -0.1402
  791MOL0     H 6744   9.929   1.108   5.530  1.0474 -0.9299 -0.1871
  791MOL0     H 6745   9.957   1.078   5.327  0.7252  2.1782  2.6023
  791MOL0     H 6746  10.032   0.941   5.139 -1.0471  0.2826 -0.5515
  791MOL0     H 6747  10.313   0.993   4.668  0.9076  1.4314 -2.1991
  791MOL0     H 6748  10.383   0.851   4.513 -2.3633 -1.3322  0.3143
  791MOL0     H 6749  10.484   0.564   4.461  2.7465 -1.7676 -0.3638
  791MOL0     H 6750  10.510   0.721   4.378 -2.1858 -1.3778 -0.3904
  791MOL0     H 6751  10.618   0.554   4.246  2.2431 -3.1277 -0.9435
  791MOL0     H 6752  10.755   0.633   4.335 -0.4416 -0.6687 -0.2692
  791MOL0     H 6753  10.729   0.431   4.487 -1.4914 -1.2231  0.4878
  791MOL0     H 6754  10.618   0.366   4.364 -1.0157  0.7903  1.1012
  791MOL0     H 6755  10.898   0.435   4.345 -1.8724  0.4135  2.9692
  791MOL0     H 6756  10.806   0.431   4.191 -1.6597  2.8558  1.6080
  791MOL0     H 6757  10.853   0.198   4.179  2.2887  0.9256  1.1346
  791MOL0     H 6758  10.723   0.183   4.291 -0.8298 -0.9206 -1.3962
  791MOL0     H 6759  10.955   0.069   4.344  3.2334  1.1378 -0.0475
  791MOL0     H 6760  11.015   0.234   4.359 -0.0878  0.2416 -0.3572
  791MOL0     H 6761  10.805   0.135   4.547  0.9686 -0.3938  3.5894
  791MOL0     H 6762  10.884   0.293   4.545 -0.6354 -0.4501 -0.2933
  791MOL0     H 6763  11.043   0.032   4.559 -1.8071 -1.1990 -0.3426
  791MOL0     H 6764  11.104   0.190   4.610 -0.4568  1.2521  1.8981
  791MOL0     H 6765  10.691   0.690   4.787  0.2422 -0.6947 -0.2949
  791MOL0     H 6766  10.581   0.813   4.959  0.6468  2.5319  0.4807
  791MOL0     H 6767  10.414   1.143   5.165  0.3826  2.9125  0.1385
  791MOL0     H 6768  10.341   1.229   5.384  1.6533 -1.0018 -1.6006
  791MOL0     H 6769   8.413   1.115   5.804 -0.1330  1.5862  1.3334
  791MOL0     H 6770   8.201   0.963   5.814 -0.2631 -1.0506 -1.9989
  791MOL0     H 6771   7.828   0.756   5.936  0.1591  1.0279  2.0482
  791MOL0     H 6772   7.598   0.627   5.888 -1.1163 -0.1334 -1.8134
  791MOL0     H 6773   7.330   0.793   5.610 -2.2594  2.7537  1.3777
  791MOL0     H 6774   7.279   0.808   5.775  1.2358  0.4837 -0.6308
  791MOL0     H 6775   7.236   0.550   5.630  1.1667 -0.1198  1.3319
  791MOL0     H 6776   7.126   0.679   5.607 -0.1487 -1.0180  0.7521
  791MOL0     H 6777   7.186   0.552   5.866  1.3575  1.1084 -1.5706
  791MOL0     H 6778   7.053   0.510   5.755 -0.6578 -0.4708  0.5844
  791MOL0     H 6779   7.076   0.798   5.819  4.8038 -1.9983 -1.0023
  791MOL0     H 6780   6.934   0.694   5.791  2.2025  1.2434 -3.9426
  791MOL0     H 6781   7.028   0.689   6.223 -0.3966  1.5587  1.2889
  791MOL0     H 6782   7.476   0.916   5.626 -2.0156  0.8845  2.7995
  791MOL0     H 6783   7.764   1.088   5.564 -1.6446 -0.9019 -0.9769
  791MOL0     H 6784   7.594   1.127   5.609 -2.3749 -2.1121  3.3331
  791MOL0     H 6785   7.724   1.168   5.717  2.3136  0.9095 -1.9541
  792MOL0     O 6786   9.006   5.574   4.516 -0.3806  0.1155  0.3732
  792MOL0     C 6787   9.089   5.596   4.423  0.1528 -0.4660  0.1170
  792MOL0     O 6788   9.066   5.581   4.287 -0.5573 -0.4613 -0.7512
  792MOL0     C 6789   8.951   5.512   4.255  0.8010  0.0996 -0.9084
  792MOL0     C 6790   8.854   5.575   4.177 -0.7209  0.0729 -0.3169
  792MOL0     C 6791   8.747   5.500   4.130  0.1351 -0.7222 -0.0312
  792MOL0     C 6792   8.730   5.365   4.158 -0.4761  0.1218 -0.3183
  792MOL0     O 6793   8.629   5.288   4.109 -0.6267 -0.6984  0.1215
  792MOL0     C 6794   8.623   5.149   4.137 -0.4401  0.5944 -0.4159
  792MOL0     C 6795   8.486   5.086   4.093  0.0328  0.9161 -0.0471
  792MOL0     C 6796   8.374   5.122   4.186  0.4526 -0.2285 -0.0101
  792MOL0     C 6797   8.238   5.148   4.115 -0.1552  0.4291  0.3350
  792MOL0     C 6798   8.121   5.192   4.195 -0.1697 -0.4505  0.0597
  792MOL0     C 6799   8.010   5.234   4.096 -0.3196  0.8380 -0.0705
  792MOL0     C 6800   7.945   5.108   4.038 -0.1638  0.2735  0.7294
  792MOL0     C 6801   7.887   5.129   3.892  0.2454  0.5472 -0.1698
  792MOL0     N 6802   7.970   5.177   3.788  0.5557  0.3063  0.2846
  792MOL0     C 6803   8.089   5.112   3.742 -0.6567  0.3322  0.7446
  792MOL0     C 6804   8.116   5.173   3.625  0.1826  0.6766 -0.5382
  792MOL0     C 6805   8.237   5.151   3.536 -0.3447 -0.0167  0.0261
  792MOL0     C 6806   8.193   5.049   3.433  0.1749  0.4309  0.7730
  792MOL0     C 6807   8.297   4.994   3.336  0.4274  1.1549  0.7718
  792MOL0     C 6808   8.433   4.966   3.408 -0.7173 -0.3032  0.2585
  792MOL0     O 6809   8.410   4.886   3.527  0.8093  0.5790  0.2159
  792MOL0     C 6810   8.512   4.880   3.618 -0.2390 -0.5163  0.3210
  792MOL0     C 6811   8.481   4.837   3.749 -0.6346  0.0058  0.5775
  792MOL0     C 6812   8.580   4.838   3.851 -0.2690  0.2277 -0.0331
  792MOL0     C 6813   8.715   4.874   3.823  1.5806  0.7059 -0.1063
  792MOL0     C 6814   8.820   4.857   3.919 -0.2434 -0.4238  0.2217
  792MOL0     O 6815   8.956   4.879   3.881  0.4131  1.1534 -0.3535
  792MOL0     C 6816   9.055   4.918   3.966 -0.2794 -0.6910 -0.4692
  792MOL0     C 6817   9.172   4.837   3.985  0.3213 -0.5103  0.0013
  792MOL0     C 6818   9.284   4.872   4.054 -0.1799 -0.6965 -0.3845
  792MOL0     C 6819   9.279   4.995   4.128  0.4858 -1.1406 -0.6632
  792MOL0     O 6820   9.386   5.046   4.200  0.2694  0.4036 -0.4779
  792MOL0     C 6821   9.512   4.992   4.169 -1.5053 -0.3724  0.6461
  792MOL0     C 6822   9.617   5.054   4.272  0.5896 -0.8616  0.0818
  792MOL0     C 6823   9.759   5.005   4.254  0.5730  0.0626 -0.0678
  792MOL0     C 6824   9.850   5.044   4.378 -0.3501 -0.0368  0.9771
  792MOL0     C 6825   9.993   4.993   4.349  0.4514 -0.2176  0.6989
  792MOL0     C 6826  10.089   5.045   4.457 -0.0157  0.1919  0.0215
  792MOL0     C 6827  10.222   4.966   4.451 -0.2722  1.0266  1.3605
  792MOL0     C 6828  10.281   4.985   4.304  0.4652  0.4410  1.2680
  792MOL0    Cl 6829  10.449   4.943   4.306 -0.0540  0.0906 -0.2114
  792MOL0     C 6830   9.158   5.072   4.126 -0.1041 -0.6077  0.2350
  792MOL0     C 6831   9.050   5.029   4.050  0.2965 -0.5531  0.9830
  792MOL0     O 6832   8.785   4.827   4.031 -0.4315 -0.8591  0.0467
  792MOL0     C 6833   8.745   4.900   3.690  0.4654 -0.6462 -0.0287
  792MOL0     C 6834   8.646   4.904   3.587 -0.1817 -0.2886 -0.7895
  792MOL0     N 6835   8.023   5.269   3.608 -0.0158 -0.0290 -0.2336
  792MOL0     N 6836   7.940   5.276   3.707 -0.1014  0.3858  0.5725
  792MOL0     C 6837   8.832   5.307   4.228  0.2323  0.1622  0.1616
  792MOL0     C 6838   8.944   5.376   4.275  0.6333 -0.4385 -0.4398
  792MOL0     C 6839   9.202   5.684   4.458  0.7344 -0.4700  0.1615
  792MOL0     C 6840   9.228   5.801   4.380 -0.1357 -0.1323 -0.5483
  792MOL0     C 6841   9.310   5.903   4.429  0.6944 -0.3994 -0.3934
  792MOL0     C 6842   9.371   5.893   4.551  0.9976 -1.0532  0.2724
  792MOL0     O 6843   9.461   5.988   4.574 -0.2418 -0.0715 -0.8303
  792MOL0     C 6844   9.545   5.965   4.680 -0.6404  0.9253  0.2481
  792MOL0     C 6845   9.638   6.087   4.680 -0.1170  0.0103 -0.7129
  792MOL0     C 6846   9.788   6.054   4.693 -0.6434 -0.4417  0.0839
  792MOL0     C 6847   9.892   6.170   4.645 -0.0998  0.0965 -0.3677
  792MOL0     C 6848   9.888   6.281   4.737 -0.1142  0.1872 -0.3539
  792MOL0     C 6849   9.887   6.372   4.823  1.3880  0.3879 -0.0397
  792MOL0     C 6850   9.348   5.776   4.623 -0.0264  0.0997  0.0099
  792MOL0     C 6851   9.264   5.671   4.583 -0.5265  0.4579  0.5868
  792MOL0     C 6852   9.261   5.552   4.667  0.9367 -1.0026 -0.1749
  792MOL0     H 6853   8.873   5.675   4.139 -0.9216 -0.3782 -1.6575
  792MOL0     H 6854   8.667   5.541   4.068 -0.9251 -0.0365  1.6922
  792MOL0     H 6855   8.705   5.105   4.080  0.6230  2.2658 -0.2364
  792MOL0     H 6856   8.635   5.119   4.241  0.9707  0.4113 -0.6112
  792MOL0     H 6857   8.495   4.977   4.099 -0.8493  0.6648 -2.1802
  792MOL0     H 6858   8.466   5.108   3.987  1.0426 -2.5408 -1.0874
  792MOL0     H 6859   8.409   5.202   4.253  0.6790 -1.5013  1.4651
  792MOL0     H 6860   8.359   5.045   4.262 -0.5058  0.7527  0.8221
  792MOL0     H 6861   8.253   5.230   4.043  0.3025 -0.7472 -0.9738
  792MOL0     H 6862   8.214   5.057   4.059  1.2181 -0.1396  0.6297
  792MOL0     H 6863   8.085   5.119   4.268  1.8600 -1.2211  0.3539
  792MOL0     H 6864   8.152   5.283   4.247  1.4531 -2.3496  2.6190
  792MOL0     H 6865   7.924   5.271   4.153 -2.3145  0.6280 -2.7501
  792MOL0     H 6866   8.034   5.308   4.019  0.6181 -0.1173 -0.7179
  792MOL0     H 6867   7.860   5.069   4.096 -0.0995  0.8891  1.2501
  792MOL0     H 6868   8.014   5.023   4.038 -0.1915  0.2499  0.8608
  792MOL0     H 6869   7.835   5.038   3.859  0.8907  0.6014 -1.4002
  792MOL0     H 6870   7.804   5.199   3.902  0.4578  0.6483  1.0755
  792MOL0     H 6871   8.145   5.031   3.788 -2.0320 -2.3914 -1.9802
  792MOL0     H 6872   8.256   5.249   3.491 -1.5773  0.2152 -0.0223
  792MOL0     H 6873   8.325   5.113   3.588 -1.5562 -3.5882 -0.2655
  792MOL0     H 6874   8.163   4.959   3.487  3.1606 -0.1616  1.6041
  792MOL0     H 6875   8.100   5.079   3.385 -0.8352  0.0129  2.3872
  792MOL0     H 6876   8.311   5.059   3.248 -1.6850 -0.2617 -0.7209
  792MOL0     H 6877   8.255   4.903   3.292 -1.0670  1.4835  1.4582
  792MOL0     H 6878   8.471   5.061   3.444 -1.2955 -0.2879  0.8495
  792MOL0     H 6879   8.505   4.916   3.343 -0.7699 -0.3738  0.2536
  792MOL0     H 6880   8.383   4.817   3.791 -0.8253  1.9064  1.1270
  792MOL0     H 6881   8.563   4.798   3.951  3.1489  0.4041  0.7274
  792MOL0     H 6882   9.178   4.741   3.935 -0.5057 -0.0666 -0.9795
  792MOL0     H 6883   9.367   4.805   4.074 -1.6433 -1.9920  1.8423
  792MOL0     H 6884   9.527   4.884   4.175  2.9930 -0.1433 -1.8481
  792MOL0     H 6885   9.544   5.022   4.068  0.8060 -1.0243  1.1181
  792MOL0     H 6886   9.610   5.163   4.268  0.1420 -0.9209 -0.9147
  792MOL0     H 6887   9.600   5.011   4.371  1.5298  2.5313  1.8617
  792MOL0     H 6888   9.760   4.895   4.247  0.1224  0.0984 -0.8295
  792MOL0     H 6889   9.803   5.052   4.165  1.2198 -0.5455 -0.0784
  792MOL0     H 6890   9.808   4.990   4.463 -1.2195 -0.1884  0.4681
  792MOL0     H 6891   9.853   5.152   4.394  3.9533  0.1937 -0.2101
  792MOL0     H 6892  10.029   5.022   4.250 -1.8396 -0.1882 -0.1958
  792MOL0     H 6893   9.986   4.884   4.353  0.0703 -0.3614 -2.1282
  792MOL0     H 6894  10.118   5.150   4.465  3.1460 -0.5934  0.3694
  792MOL0     H 6895  10.032   5.028   4.549  2.0708  0.7733  1.4937
  792MOL0     H 6896  10.216   4.859   4.473  1.0543  0.1155 -2.0596
  792MOL0     H 6897  10.309   4.992   4.511  0.6902 -3.0299  2.0170
  792MOL0     H 6898  10.228   4.923   4.232  0.7427  2.1617 -0.5070
  792MOL0     H 6899  10.266   5.087   4.266  2.8598 -0.2592 -1.8893
  792MOL0     H 6900   9.159   5.161   4.188  2.2005 -1.4375  1.5182
  792MOL0     H 6901   8.959   5.086   4.062  0.7734  0.1987  1.0615
  792MOL0     H 6902   8.844   4.942   3.677 -0.5871  2.4332  1.0903
  792MOL0     H 6903   8.682   4.931   3.488  1.5747 -0.3795 -0.2133
  792MOL0     H 6904   8.826   5.201   4.249 -3.8623 -0.3157 -2.4044
  792MOL0     H 6905   9.019   5.318   4.328  0.6816  1.9098  2.2738
  792MOL0     H 6906   9.168   5.823   4.292  0.6855  2.3503 -0.5706
  792MOL0     H 6907   9.317   5.986   4.359 -0.7310 -0.9085 -1.1907
  792MOL0     H 6908   9.598   5.870   4.664 -2.3480 -0.8472  3.9071
  792MOL0     H 6909   9.499   5.962   4.779 -0.9432  2.8521  0.1951
  792MOL0     H 6910   9.603   6.156   4.757  0.5510  0.8210 -1.1306
  792MOL0     H 6911   9.625   6.132   4.582 -0.9113 -2.3463 -1.7622
  792MOL0     H 6912   9.813   5.964   4.637 -0.3888 -1.5505  1.9015
  792MOL0     H 6913   9.805   6.013   4.793 -1.8720 -0.6729  0.2168
  792MOL0     H 6914   9.991   6.125   4.648 -1.8195 -4.0386  1.9134
  792MOL0     H 6915   9.856   6.219   4.554  1.3897  2.0536  0.0367
  792MOL0     H 6916   9.910   6.449   4.894 -1.5023  0.4898  0.9484
  792MOL0     H 6917   9.395   5.774   4.721 -1.4394 -2.2993  0.7319
  792MOL0     H 6918   9.267   5.461   4.608  0.6016 -0.0133 -1.8126
  792MOL0     H 6919   9.355   5.552   4.723  0.6228 -2.2705  0.3892
  792MOL0     H 6920   9.180   5.560   4.740  0.9254 -1.2756 -0.1574
  793MOL0     O 6921   5.386   1.263  10.628 -0.6783 -0.4188 -0.2011
  793MOL0     C 6922   5.389   1.220  10.513 -0.7169  0.1609  0.0880
  793MOL0     O 6923   5.483   1.244  10.416 -0.1498 -0.3045 -0.4370
  793MOL0     C 6924   5.614   1.264  10.450 -0.6641  0.1645  0.4958
  793MOL0     C 6925   5.715   1.192  10.379  0.5248 -0.0545 -0.0041
  793MOL0     C 6926   5.850   1.196  10.424 -0.0205 -1.0745  0.6128
  793MOL0     C 6927   5.877   1.292  10.525 -0.6294  0.0431 -1.2509
  793MOL0     O 6928   6.009   1.315  10.563  0.6320 -0.6398  0.1325
  793MOL0     C 6929   6.111   1.275  10.471  0.2478 -1.1379 -0.1368
  793MOL0     C 6930   6.230   1.346  10.519 -0.9844  0.3930  0.0521
  793MOL0     C 6931   6.242   1.495  10.498 -0.0957  0.1717  0.7446
  793MOL0     C 6932   6.371   1.548  10.556 -0.2924 -0.2550  0.0929
  793MOL0     C 6933   6.370   1.703  10.573  0.5085  0.3688  0.7425
  793MOL0     C 6934   6.498   1.759  10.632 -0.3972  0.0536 -0.6377
  793MOL0     C 6935   6.494   1.755  10.785  0.0510 -0.2423  0.5586
  793MOL0     C 6936   6.565   1.874  10.853 -0.0705 -0.1306  0.2937
  793MOL0     N 6937   6.484   1.999  10.865  0.4503  0.7172  0.2497
  793MOL0     C 6938   6.355   2.004  10.914  0.5023  0.6320  0.0828
  793MOL0     C 6939   6.302   2.120  10.888 -0.9549 -0.3562 -0.4466
  793MOL0     C 6940   6.162   2.160  10.923 -0.8948 -0.3354 -0.5184
  793MOL0     C 6941   6.174   2.222  11.070 -0.2586 -0.1055 -0.0695
  793MOL0     C 6942   6.247   2.349  11.076 -0.6480  0.2123 -0.0151
  793MOL0     C 6943   6.214   2.447  11.195  0.2548  0.0404 -1.0932
  793MOL0     O 6944   6.316   2.550  11.223  0.6319 -0.2014  0.1018
  793MOL0     C 6945   6.439   2.509  11.268 -0.4028 -0.5871 -0.1223
  793MOL0     C 6946   6.535   2.604  11.255  0.4645  0.2834  0.0218
  793MOL0     C 6947   6.664   2.574  11.302  0.2615 -0.3057 -1.1924
  793MOL0     C 6948   6.700   2.451  11.359  0.9880  0.1008  0.4818
  793MOL0     C 6949   6.843   2.427  11.404 -0.2520 -0.3543 -0.3594
  793MOL0     O 6950   6.867   2.306  11.464 -0.8317  0.1904 -0.5863
  793MOL0     C 6951   6.999   2.274  11.515 -0.1793  0.2966  0.0050
  793MOL0     C 6952   7.091   2.362  11.575 -0.3296  0.3362  0.0501
  793MOL0     C 6953   7.218   2.321  11.623 -0.6955  0.7245  0.1444
  793MOL0     C 6954   7.261   2.185  11.612  0.0702 -0.0798  0.3450
  793MOL0     O 6955   7.389   2.153  11.655 -0.0528 -0.7269 -0.7459
  793MOL0     C 6956   7.385   2.059  11.766  0.3411 -0.7994  0.2771
  793MOL0     C 6957   7.492   2.077  11.867 -0.0394 -0.3310  0.6202
  793MOL0     C 6958   7.634   2.062  11.832 -0.0580  0.7175 -0.0263
  793MOL0     C 6959   7.715   2.058  11.962  0.6888 -0.1475  0.0901
  793MOL0     C 6960   7.867   2.015  11.935  0.2932  0.8403  0.9797
  793MOL0     C 6961   7.961   2.024  12.050  0.2333 -1.2251 -0.2230
  793MOL0     C 6962   8.098   1.977  12.009 -0.0816 -1.2584  0.2422
  793MOL0     C 6963   8.201   2.022  12.120  0.7419  0.4157 -0.5880
  793MOL0    Cl 6964   8.365   1.986  12.042  0.2876 -0.1077  0.2619
  793MOL0     C 6965   7.158   2.099  11.569  0.2865  0.4770  0.3726
  793MOL0     C 6966   7.033   2.137  11.519 -0.7056  0.3332 -0.0528
  793MOL0     O 6967   6.928   2.513  11.379  0.3594 -0.0518 -0.6954
  793MOL0     C 6968   6.599   2.355  11.371 -0.2210  1.0009  1.4155
  793MOL0     C 6969   6.471   2.380  11.317  0.0804  0.1381 -0.4787
  793MOL0     N 6970   6.403   2.194  10.840  0.1657  0.0473 -0.0121
  793MOL0     N 6971   6.515   2.122  10.840  0.2636  0.0371  0.4689
  793MOL0     C 6972   5.776   1.363  10.594 -0.4807  0.5350  1.3207
  793MOL0     C 6973   5.638   1.346  10.560  0.2302 -0.2391  0.5338
  793MOL0     C 6974   5.264   1.151  10.464 -0.3365  0.4205  0.1839
  793MOL0     C 6975   5.160   1.137  10.557  0.6941  1.1936  0.0038
  793MOL0     C 6976   5.036   1.070  10.529  0.1085  0.3789 -0.4572
  793MOL0     C 6977   5.015   1.030  10.402  0.1712  1.2969 -0.0262
  793MOL0     O 6978   4.891   0.979  10.373  0.8045  0.2471  0.0912
  793MOL0     C 6979   4.830   0.940  10.245 -0.0883 -0.6090  0.0264
  793MOL0     C 6980   4.692   0.879  10.264  0.1439 -0.2908 -0.0143
  793MOL0     C 6981   4.692   0.753  10.352 -0.3209  0.4056  1.0844
  793MOL0     C 6982   4.563   0.686  10.378 -0.5011  0.4638 -0.8973
  793MOL0     C 6983   4.560   0.561  10.453  0.2033  0.7428 -0.2082
  793MOL0     C 6984   4.515   0.458  10.505  0.4276 -0.0223 -0.4131
  793MOL0     C 6985   5.115   1.037  10.311  0.6268  0.4792 -0.7149
  793MOL0     C 6986   5.243   1.093  10.340 -0.2130  0.1364  0.8057
  793MOL0     C 6987   5.353   1.088  10.229 -0.5789  0.9387  0.3564
  793MOL0     H 6988   5.674   1.122  10.306 -1.5453  0.6767  0.3932
  793MOL0     H 6989   5.929   1.135  10.380  0.7436  0.8146 -0.7682
  793MOL0     H 6990   6.127   1.167  10.470  1.5302 -0.9630  0.3573
  793MOL0     H 6991   6.083   1.301  10.368  1.1016 -1.2689 -0.4080
  793MOL0     H 6992   6.313   1.303  10.462 -0.5095  0.9538  0.3099
  793MOL0     H 6993   6.251   1.328  10.625 -1.1172 -2.1333 -0.2968
  793MOL0     H 6994   6.164   1.550  10.551  2.9564  5.1128  0.6885
  793MOL0     H 6995   6.241   1.522  10.392  3.3732 -2.0025 -0.0004
  793MOL0     H 6996   6.395   1.509  10.655  2.5936  0.6794 -0.1417
  793MOL0     H 6997   6.458   1.517  10.498 -0.4804 -0.0474 -0.3057
  793MOL0     H 6998   6.357   1.746  10.473 -0.6564  0.1543  0.7923
  793MOL0     H 6999   6.276   1.722  10.625  0.1505 -2.9823  1.5389
  793MOL0     H 7000   6.584   1.705  10.591 -1.6752 -1.5881 -1.2772
  793MOL0     H 7001   6.512   1.863  10.602  0.8313  0.0024 -0.2962
  793MOL0     H 7002   6.553   1.670  10.821  2.1013  1.9722  2.8352
  793MOL0     H 7003   6.392   1.745  10.823 -0.4711  0.7142 -0.5215
  793MOL0     H 7004   6.607   1.836  10.947 -2.6329 -1.2673  1.0500
  793MOL0     H 7005   6.658   1.891  10.797  1.1862 -0.5907  2.1379
  793MOL0     H 7006   6.302   1.916  10.949 -0.2581  0.0201 -2.4010
  793MOL0     H 7007   6.121   2.235  10.855 -1.6326  0.5435  0.8250
  793MOL0     H 7008   6.098   2.071  10.936  1.3776 -1.7248  2.6550
  793MOL0     H 7009   6.071   2.227  11.107 -1.0010 -1.2926 -1.8217
  793MOL0     H 7010   6.232   2.150  11.127  1.5687  0.5313 -1.0301
  793MOL0     H 7011   6.227   2.400  10.981  0.2852  1.6690  0.5387
  793MOL0     H 7012   6.353   2.322  11.075 -0.7360 -0.1352 -1.0553
  793MOL0     H 7013   6.190   2.402  11.292 -0.5520  2.3436 -0.1629
  793MOL0     H 7014   6.127   2.506  11.167  1.4196  2.4557  0.0977
  793MOL0     H 7015   6.500   2.704  11.230 -0.6418 -0.2755 -0.7466
  793MOL0     H 7016   6.741   2.651  11.300  1.3828 -1.2898  1.0527
  793MOL0     H 7017   7.062   2.467  11.570  0.4647  0.5790 -4.7341
  793MOL0     H 7018   7.286   2.388  11.674  0.1157 -0.1883  0.3133
  793MOL0     H 7019   7.290   2.078  11.816 -0.8005  0.6881 -2.2265
  793MOL0     H 7020   7.379   1.957  11.726 -1.9131  0.4486 -3.0317
  793MOL0     H 7021   7.476   2.172  11.920 -1.1483 -0.7653  1.1004
  793MOL0     H 7022   7.482   1.987  11.928 -0.8731 -0.8027 -0.1891
  793MOL0     H 7023   7.645   1.975  11.767  0.1109  1.4939 -1.0585
  793MOL0     H 7024   7.670   2.148  11.774 -0.4112 -0.0259 -1.3910
  793MOL0     H 7025   7.673   1.993  12.039  0.5253 -0.6559 -0.4235
  793MOL0     H 7026   7.713   2.162  11.998 -1.4386 -0.2598  0.4289
  793MOL0     H 7027   7.904   2.074  11.851  1.4658 -2.0125 -0.6218
  793MOL0     H 7028   7.862   1.910  11.905  1.3124  0.8424  0.7940
  793MOL0     H 7029   7.963   2.127  12.086 -2.0765 -0.3006 -2.4212
  793MOL0     H 7030   7.910   1.970  12.130 -0.5040  2.3284  1.9550
  793MOL0     H 7031   8.123   2.034  11.919  3.2505  1.0386  2.4026
  793MOL0     H 7032   8.110   1.869  11.995 -1.2924 -1.4995  0.9255
  793MOL0     H 7033   8.184   2.128  12.143 -4.8283  0.1139 -1.8636
  793MOL0     H 7034   8.200   1.958  12.208 -2.5824  1.3077  0.1403
  793MOL0     H 7035   7.178   1.992  11.570  1.7137  0.6914 -0.9071
  793MOL0     H 7036   6.964   2.060  11.487  0.2407 -1.3812  1.7879
  793MOL0     H 7037   6.628   2.259  11.413  0.7604  0.9896  0.7329
  793MOL0     H 7038   6.382   2.318  11.328 -1.6305  2.0574 -2.5336
  793MOL0     H 7039   5.808   1.426  10.676 -0.6760  1.6652  0.5481
  793MOL0     H 7040   5.565   1.406  10.613  1.1910  1.5649 -0.1222
  793MOL0     H 7041   5.167   1.172  10.660  2.8910  1.4234 -0.1692
  793MOL0     H 7042   4.963   1.075  10.609  0.4177  2.8765 -0.2462
  793MOL0     H 7043   4.890   0.867  10.191  0.0973 -0.6134  0.2409
  793MOL0     H 7044   4.832   1.034  10.188  3.4884  0.7950  2.1450
  793MOL0     H 7045   4.647   0.849  10.169  1.4158 -1.2420 -0.3342
  793MOL0     H 7046   4.628   0.954  10.312  1.3577 -0.0551  1.3105
  793MOL0     H 7047   4.726   0.792  10.449 -1.5699  2.7509  0.6556
  793MOL0     H 7048   4.762   0.682  10.308 -2.3809  0.2911 -2.3454
  793MOL0     H 7049   4.513   0.762  10.439  0.2650  0.6464 -0.4740
  793MOL0     H 7050   4.502   0.675  10.288  0.1279  0.8338 -1.3835
  793MOL0     H 7051   4.470   0.364  10.530  1.4799 -0.8354 -1.4490
  793MOL0     H 7052   5.105   0.989  10.214  2.0481  1.0300 -1.1560
  793MOL0     H 7053   5.442   1.036  10.267 -1.7835  0.4468  2.7351
  793MOL0     H 7054   5.315   1.029  10.145 -1.6186  1.2955  0.5579
  793MOL0     H 7055   5.397   1.183  10.200  2.4500 -1.2428 -2.9806
  794MOL0     O 7056   5.360   6.527   9.625 -0.7300 -0.2120  0.2456
  794MOL0     C 7057   5.288   6.493   9.715 -0.0408 -0.8615  0.8339
  794MOL0     O 7058   5.321   6.500   9.850 -0.2253 -0.2417  0.1407
  794MOL0     C 7059   5.440   6.561   9.886 -0.1970  0.5275 -0.1211
  794MOL0     C 7060   5.517   6.489   9.982 -0.4350  0.8579 -0.9611
  794MOL0     C 7061   5.641   6.534  10.025  0.6440  0.1525 -1.1662
  794MOL0     C 7062   5.689   6.657   9.987 -0.3995 -0.4929  0.5289
  794MOL0     O 7063   5.797   6.712  10.054 -0.0108  0.0577 -0.2038
  794MOL0     C 7064   5.843   6.686  10.189 -0.2682 -0.3104 -0.1319
  794MOL0     C 7065   5.926   6.786  10.263 -1.2933 -0.5033  0.2881
  794MOL0     C 7066   6.062   6.808  10.197  0.2311  0.8618  0.1875
  794MOL0     C 7067   6.152   6.896  10.278  0.1747 -0.3108  0.0529
  794MOL0     C 7068   6.294   6.912  10.214 -0.4228 -0.2102 -0.3629
  794MOL0     C 7069   6.304   6.965  10.066 -0.1852 -0.4961  0.3408
  794MOL0     C 7070   6.430   7.042  10.039 -0.0960 -0.4766  0.4155
  794MOL0     C 7071   6.558   6.967  10.078 -0.0709  0.1653  0.1329
  794MOL0     N 7072   6.672   7.054  10.113  0.3560  0.1572 -0.4620
  794MOL0     C 7073   6.749   7.117  10.022  1.0150  0.2537  0.7907
  794MOL0     C 7074   6.844   7.180  10.091 -0.0808 -0.0149  0.4157
  794MOL0     C 7075   6.942   7.271  10.026 -0.4161 -0.6454 -0.6556
  794MOL0     C 7076   7.082   7.226  10.074 -0.1395  0.0510  0.7129
  794MOL0     C 7077   7.196   7.314  10.011  0.0349  0.7211  0.3715
  794MOL0     C 7078   7.328   7.254  10.057 -0.6619 -1.0048  0.3794
  794MOL0     O 7079   7.422   7.322   9.975 -0.5071 -0.1240  0.1200
  794MOL0     C 7080   7.553   7.327  10.033  0.8954 -0.4613 -0.1815
  794MOL0     C 7081   7.614   7.222  10.111 -0.2143  0.0278  0.9454
  794MOL0     C 7082   7.751   7.229  10.149  0.2179  0.6846  0.3634
  794MOL0     C 7083   7.827   7.337  10.110 -0.4914 -0.7676 -0.6452
  794MOL0     C 7084   7.968   7.352  10.162  0.4831  0.5434 -0.3009
  794MOL0     O 7085   8.031   7.242  10.215 -0.4593  0.3024 -0.6768
  794MOL0     C 7086   8.144   7.251  10.286  0.4812  0.5678 -0.7320
  794MOL0     C 7087   8.259   7.172  10.257  0.1343 -0.1929 -0.8252
  794MOL0     C 7088   8.384   7.192  10.328 -0.5135  0.4143 -1.0956
  794MOL0     C 7089   8.390   7.271  10.447 -0.3249 -0.2857 -0.3458
  794MOL0     O 7090   8.500   7.286  10.529  0.0935  0.1888  0.0052
  794MOL0     C 7091   8.599   7.183  10.517  0.6014 -0.1500 -0.0899
  794MOL0     C 7092   8.704   7.178  10.622  0.6665  0.0681  0.3371
  794MOL0     C 7093   8.806   7.294  10.597  0.1729  0.5197 -0.2430
  794MOL0     C 7094   8.881   7.305  10.728 -0.2427 -0.2403 -0.1537
  794MOL0     C 7095   8.991   7.206  10.765  0.4576 -1.0899  0.2795
  794MOL0     C 7096   9.051   7.241  10.906  0.4145 -0.1560  0.8411
  794MOL0     C 7097   9.180   7.159  10.918  0.3833 -0.3224 -0.0995
  794MOL0     C 7098   9.274   7.226  11.017  0.0301 -0.5233 -0.7043
  794MOL0    Cl 7099   9.415   7.121  11.056 -0.3842  0.2378  0.2819
  794MOL0     C 7100   8.278   7.350  10.473 -0.9973 -0.0503  0.0227
  794MOL0     C 7101   8.158   7.336  10.396  0.6300 -0.9855 -0.4281
  794MOL0     O 7102   8.014   7.465  10.167  0.3561 -0.4152  0.2798
  794MOL0     C 7103   7.771   7.434  10.025  0.4751  0.2884 -0.5067
  794MOL0     C 7104   7.637   7.430   9.998  0.5163  1.0849  0.4212
  794MOL0     N 7105   6.813   7.160  10.226  0.0643  0.3559  0.0982
  794MOL0     N 7106   6.707   7.086  10.241 -0.5101  0.6068  0.5748
  794MOL0     C 7107   5.626   6.726   9.885  0.6710 -0.3819  0.5743
  794MOL0     C 7108   5.504   6.676   9.835 -0.1528 -0.0150  0.6734
  794MOL0     C 7109   5.162   6.418   9.686  0.1764 -0.4938  1.2470
  794MOL0     C 7110   5.099   6.366   9.787  0.6651 -0.7777 -0.8074
  794MOL0     C 7111   4.965   6.307   9.763 -0.0101 -1.0356  0.5104
  794MOL0     C 7112   4.908   6.310   9.636  0.0160  0.0785  0.1863
  794MOL0     O 7113   4.802   6.228   9.609  0.1508 -0.6188 -0.1422
  794MOL0     C 7114   4.691   6.309   9.576 -0.3171  0.1187  0.2254
  794MOL0     C 7115   4.576   6.225   9.547  0.4093 -0.7658  0.3232
  794MOL0     C 7116   4.546   6.142   9.676 -0.7170 -0.0689  0.0478
  794MOL0     C 7117   4.441   6.042   9.667  0.5035 -0.1840  0.3650
  794MOL0     C 7118   4.316   6.097   9.605  0.1328  0.0705 -0.9091
  794MOL0     C 7119   4.213   6.138   9.557 -0.7682 -0.5952 -0.7203
  794MOL0     C 7120   4.977   6.368   9.526  0.4377 -0.1869  0.1950
  794MOL0     C 7121   5.103   6.426   9.547  0.3602  0.2062 -0.3549
  794MOL0     C 7122   5.170   6.481   9.422 -1.5307 -0.3246 -0.1218
  794MOL0     H 7123   5.483   6.391  10.016  2.2337  1.2843  3.7986
  794MOL0     H 7124   5.707   6.485  10.097  1.2011  1.6086 -0.6520
  794MOL0     H 7125   5.756   6.677  10.253  0.5222  2.1623  1.4247
  794MOL0     H 7126   5.900   6.592  10.189  0.8031  0.3063 -1.2319
  794MOL0     H 7127   5.940   6.759  10.368 -0.7389 -2.5304 -0.2674
  794MOL0     H 7128   5.881   6.886  10.266  0.1777  0.1864  0.9967
  794MOL0     H 7129   6.039   6.857  10.102 -2.9832 -1.1719 -0.2389
  794MOL0     H 7130   6.120   6.715  10.193  0.3513  0.8521  1.7974
  794MOL0     H 7131   6.095   6.989  10.275  0.1949 -0.3098 -0.4171
  794MOL0     H 7132   6.168   6.861  10.380 -0.0553  0.5383  0.3906
  794MOL0     H 7133   6.351   6.981  10.277  0.5245 -0.9000 -0.4469
  794MOL0     H 7134   6.333   6.810  10.215 -3.5158 -1.5153  0.2065
  794MOL0     H 7135   6.308   6.880   9.997  2.6257  0.9634 -1.4685
  794MOL0     H 7136   6.228   7.040  10.042  0.9537  0.6262  0.1095
  794MOL0     H 7137   6.432   7.140  10.086  2.2074  0.3273 -1.1766
  794MOL0     H 7138   6.434   7.063   9.932  0.1649  0.4175  0.5936
  794MOL0     H 7139   6.539   6.889  10.153 -1.1117  0.2502 -0.0240
  794MOL0     H 7140   6.582   6.915   9.986 -0.7272 -0.4648  0.3104
  794MOL0     H 7141   6.745   7.112   9.913 -0.3089  0.6182  0.8040
  794MOL0     H 7142   6.926   7.259   9.918 -1.9392  0.1870 -0.5485
  794MOL0     H 7143   6.923   7.377  10.044  3.5652  0.1686 -0.3001
  794MOL0     H 7144   7.082   7.244  10.182 -3.1416 -1.7598  1.1368
  794MOL0     H 7145   7.099   7.119  10.058 -1.9066 -0.0274 -0.9482
  794MOL0     H 7146   7.194   7.416  10.049 -0.8162  0.4713  1.0437
  794MOL0     H 7147   7.175   7.312   9.904  0.1001 -0.0261  0.3681
  794MOL0     H 7148   7.344   7.146  10.043 -0.8091 -1.0539  0.5885
  794MOL0     H 7149   7.345   7.283  10.161  1.7038 -1.2262  0.1151
  794MOL0     H 7150   7.544   7.147  10.148  1.6943 -2.1297  0.4241
  794MOL0     H 7151   7.795   7.151  10.212 -1.1399  1.7550  2.7855
  794MOL0     H 7152   8.247   7.087  10.190 -0.6714 -1.8856  1.3494
  794MOL0     H 7153   8.461   7.117  10.312  1.9140  2.3924  0.6063
  794MOL0     H 7154   8.546   7.087  10.525 -1.1836  0.6466 -1.8033
  794MOL0     H 7155   8.650   7.181  10.420  0.5461 -0.3586 -0.1157
  794MOL0     H 7156   8.646   7.197  10.713  1.1406  1.5916  0.3505
  794MOL0     H 7157   8.755   7.082  10.634  2.3316  0.6910 -1.3053
  794MOL0     H 7158   8.877   7.275  10.516  1.1311 -0.6957  0.8295
  794MOL0     H 7159   8.755   7.384  10.563 -1.2979 -0.3396 -0.4342
  794MOL0     H 7160   8.808   7.313  10.809 -0.6823  1.0815 -0.6588
  794MOL0     H 7161   8.928   7.402  10.740  1.3190 -1.0446  0.5364
  794MOL0     H 7162   9.070   7.224  10.691  0.5060  1.7402  0.9377
  794MOL0     H 7163   8.945   7.107  10.751 -1.6256 -0.2451  0.8430
  794MOL0     H 7164   9.067   7.349  10.908  1.8123 -0.2867 -0.5869
  794MOL0     H 7165   8.983   7.212  10.987 -1.2620  0.7887 -0.1700
  794MOL0     H 7166   9.227   7.155  10.819 -1.9753  2.9794 -1.5597
  794MOL0     H 7167   9.170   7.058  10.960  1.0010  0.7753  2.8774
  794MOL0     H 7168   9.323   7.310  10.967  0.8131 -0.8375 -0.4695
  794MOL0     H 7169   9.229   7.253  11.113 -0.7453 -1.0936 -0.8921
  794MOL0     H 7170   8.275   7.404  10.568  0.6837  0.4252 -0.1731
  794MOL0     H 7171   8.068   7.388  10.425  0.7589  0.0517 -1.7988
  794MOL0     H 7172   7.831   7.524  10.008  0.6858  0.2210 -0.1362
  794MOL0     H 7173   7.600   7.516   9.944  1.5699  0.9028 -0.6492
  794MOL0     H 7174   5.666   6.821   9.851  1.5119 -0.7666  0.4534
  794MOL0     H 7175   5.466   6.726   9.746  2.0988 -0.3067 -0.5115
  794MOL0     H 7176   5.141   6.347   9.886 -1.7011 -2.2296  0.0115
  794MOL0     H 7177   4.904   6.271   9.845 -1.3259  3.9193  2.0737
  794MOL0     H 7178   4.703   6.376   9.490 -0.6170  0.3495  0.3613
  794MOL0     H 7179   4.670   6.371   9.664  2.0732  3.5006 -1.3555
  794MOL0     H 7180   4.583   6.162   9.458 -0.6062 -1.4448  0.7054
  794MOL0     H 7181   4.492   6.294   9.537  1.8897  1.2369  0.9611
  794MOL0     H 7182   4.518   6.202   9.764 -2.9817 -1.1766  0.1675
  794MOL0     H 7183   4.639   6.091   9.703 -0.2278 -0.5641 -2.3677
  794MOL0     H 7184   4.473   5.967   9.595  2.2476  1.7685 -1.0182
  794MOL0     H 7185   4.436   5.983   9.759  2.3510 -0.5438  0.2592
  794MOL0     H 7186   4.113   6.166   9.529 -1.7993  0.8852  3.7062
  794MOL0     H 7187   4.935   6.362   9.426  1.7950 -1.2999 -0.3472
  794MOL0     H 7188   5.274   6.448   9.415 -0.8793  1.5146  0.3131
  794MOL0     H 7189   5.112   6.446   9.337 -2.1015  0.0842  0.0967
  794MOL0     H 7190   5.161   6.589   9.434 -0.5627 -0.4275  1.9455
  795MOL0     O 7191   1.465   5.769   0.111  0.4005  0.2191  0.7575
  795MOL0     C 7192   1.375   5.691   0.145 -0.1752  0.7081 -0.9173
  795MOL0     O 7193   1.383   5.585   0.226 -0.6083  0.0250  0.6164
  795MOL0     C 7194   1.493   5.528   0.266 -0.7442  0.5521  0.1522
  795MOL0     C 7195   1.530   5.536   0.396 -0.3077  0.6511 -0.2776
  795MOL0     C 7196   1.653   5.487   0.442 -0.1427  1.1159  0.3959
  795MOL0     C 7197   1.748   5.426   0.359 -0.2622  0.2507 -0.4273
  795MOL0     O 7198   1.872   5.392   0.406 -0.0469 -0.5681  0.6856
  795MOL0     C 7199   1.953   5.298   0.326 -0.8765  0.1728  0.2671
  795MOL0     C 7200   2.100   5.294   0.384 -0.4533 -0.4836  0.2501
  795MOL0     C 7201   2.197   5.394   0.327  0.3877  0.7658  0.2749
  795MOL0     C 7202   2.319   5.406   0.418 -0.6495  0.2533 -0.3595
  795MOL0     C 7203   2.423   5.493   0.351  0.2975 -0.2610  0.3504
  795MOL0     C 7204   2.556   5.497   0.428 -0.1071  0.7070 -0.7012
  795MOL0     C 7205   2.666   5.555   0.350 -0.0981  0.6893  0.6372
  795MOL0     C 7206   2.788   5.561   0.426 -0.6639  0.6162  0.3593
  795MOL0     N 7207   2.895   5.644   0.364  0.0240  0.1770 -0.2358
  795MOL0     C 7208   2.887   5.784   0.370 -1.1084  0.8257  0.2833
  795MOL0     C 7209   3.010   5.820   0.326 -0.1601  0.0541  0.9297
  795MOL0     C 7210   3.049   5.963   0.295  0.5297 -0.6070  0.6774
  795MOL0     C 7211   3.174   6.015   0.373  0.1526  0.8479 -0.1440
  795MOL0     C 7212   3.289   5.927   0.364  1.0000 -0.2179  0.5201
  795MOL0     C 7213   3.418   5.991   0.409  0.3114 -0.1948  0.7691
  795MOL0     O 7214   3.526   5.897   0.390 -0.0081 -0.4036 -0.6191
  795MOL0     C 7215   3.646   5.941   0.435 -0.6324  0.6518 -1.0364
  795MOL0     C 7216   3.736   5.839   0.468 -0.1274 -0.7702 -0.4597
  795MOL0     C 7217   3.861   5.863   0.516  0.9863  0.0088  0.2184
  795MOL0     C 7218   3.900   5.998   0.529  0.1448  0.6113 -0.0968
  795MOL0     C 7219   4.033   6.025   0.588 -0.6532  0.0284 -0.7859
  795MOL0     O 7220   4.120   5.913   0.602  0.0068  0.5494 -0.4984
  795MOL0     C 7221   4.250   5.921   0.666 -0.4891 -0.1289 -0.1212
  795MOL0     C 7222   4.327   6.039   0.697 -0.2344 -0.4727  0.2148
  795MOL0     C 7223   4.467   6.032   0.724 -0.1767 -0.1236 -0.1162
  795MOL0     C 7224   4.525   5.900   0.746 -0.1319 -0.4985 -0.2076
  795MOL0     O 7225   4.656   5.880   0.795  0.6623 -0.3051  0.1048
  795MOL0     C 7226   4.758   5.961   0.733 -0.1897 -0.3719  1.1049
  795MOL0     C 7227   4.866   5.965   0.831 -1.1707  0.0011  0.0716
  795MOL0     C 7228   4.994   6.024   0.780 -0.2619 -0.3439 -0.4402
  795MOL0     C 7229   5.077   6.060   0.903 -0.0119 -0.0329  0.3439
  795MOL0     C 7230   5.218   6.117   0.882 -0.1013  0.5753  0.2887
  795MOL0     C 7231   5.317   6.010   0.922 -0.0221  0.7072  0.4068
  795MOL0     C 7232   5.462   6.054   0.903 -0.2160 -0.5296  0.3298
  795MOL0     C 7233   5.563   5.957   0.968  0.2265 -0.2803 -0.0236
  795MOL0    Cl 7234   5.732   6.027   0.931 -0.0445 -0.2352 -0.1457
  795MOL0     C 7235   4.451   5.788   0.717  0.4174  0.3915  0.2177
  795MOL0     C 7236   4.322   5.800   0.683  0.3326  0.1681  0.2774
  795MOL0     O 7237   4.056   6.135   0.643  0.3810 -0.2729  0.5808
  795MOL0     C 7238   3.808   6.095   0.499 -0.0538 -0.1872  0.0657
  795MOL0     C 7239   3.684   6.073   0.449 -0.2896  0.0203 -0.0472
  795MOL0     N 7240   3.095   5.712   0.301  0.0976  0.9609 -0.3996
  795MOL0     N 7241   3.023   5.603   0.317  0.1987  0.0469  0.1564
  795MOL0     C 7242   1.697   5.409   0.226 -0.0322  0.8883  0.0040
  795MOL0     C 7243   1.574   5.466   0.179 -0.5859  0.5866  0.5719
  795MOL0     C 7244   1.239   5.720   0.104 -0.2243 -0.6302  0.0033
  795MOL0     C 7245   1.157   5.607   0.110 -0.2488 -0.4852 -0.2722
  795MOL0     C 7246   1.022   5.623   0.071 -0.9530  0.6185  0.7855
  795MOL0     C 7247   0.973   5.741   0.018 -0.4340  0.1621 -0.1510
  795MOL0     O 7248   0.842   5.769  -0.023  0.3915  0.2565  0.0989
  795MOL0     C 7249   0.760   5.652  -0.020 -0.2616  0.7208  1.1369
  795MOL0     C 7250   0.639   5.664  -0.129  0.2854 -0.4725 -0.7514
  795MOL0     C 7251   0.523   5.749  -0.065 -0.5850  0.0153  0.0128
  795MOL0     C 7252   0.396   5.749  -0.141  0.0659 -0.0195 -0.4140
  795MOL0     C 7253   0.397   5.814  -0.274  0.2535 -0.0163 -0.0391
  795MOL0     C 7254   0.381   5.866  -0.384 -0.1322  0.1741  0.1495
  795MOL0     C 7255   1.058   5.856   0.017  1.0533 -0.1739  0.5841
  795MOL0     C 7256   1.189   5.850   0.063  0.4551  0.2695 -0.8663
  795MOL0     C 7257   1.275   5.973   0.062 -0.0567 -0.3640 -0.8346
  795MOL0     H 7258   1.467   5.588   0.468  1.8305  3.3215 -0.1526
  795MOL0     H 7259   1.683   5.502   0.545  1.1659 -0.9157  0.3658
  795MOL0     H 7260   1.909   5.198   0.334  0.3743 -0.8552 -3.6736
  795MOL0     H 7261   1.953   5.314   0.218 -0.5649 -3.6305 -0.4517
  795MOL0     H 7262   2.136   5.191   0.378  2.2190  0.2030  2.5347
  795MOL0     H 7263   2.103   5.304   0.493 -0.9135  2.8489  0.0609
  795MOL0     H 7264   2.155   5.495   0.314 -2.4224 -0.3422 -0.0842
  795MOL0     H 7265   2.217   5.350   0.229 -2.6385 -0.3303  0.0470
  795MOL0     H 7266   2.290   5.460   0.509 -2.5775  0.8220 -1.2592
  795MOL0     H 7267   2.356   5.306   0.442 -0.7185  0.3774  0.2846
  795MOL0     H 7268   2.437   5.440   0.257 -0.7299 -1.8885  1.0736
  795MOL0     H 7269   2.378   5.592   0.339  0.7314 -0.1498 -0.3734
  795MOL0     H 7270   2.539   5.548   0.523  3.8953  0.7620  0.1311
  795MOL0     H 7271   2.575   5.391   0.451  1.8192  1.2883  0.5527
  795MOL0     H 7272   2.630   5.650   0.309 -0.6515 -0.2144 -1.0772
  795MOL0     H 7273   2.693   5.493   0.264  1.4171 -1.0535  2.2594
  795MOL0     H 7274   2.770   5.609   0.523  1.4937  2.6760 -0.1479
  795MOL0     H 7275   2.820   5.459   0.449 -0.6447  0.5325 -0.0388
  795MOL0     H 7276   2.803   5.849   0.393 -3.2468 -1.5450 -0.4223
  795MOL0     H 7277   3.063   5.979   0.188  0.6544  3.0093  1.1120
  795MOL0     H 7278   2.963   6.025   0.321 -0.5436 -1.4539 -0.6963
  795MOL0     H 7279   3.205   6.114   0.336 -1.3612  0.7849 -1.7281
  795MOL0     H 7280   3.152   6.037   0.477  0.8472 -3.7720  1.2042
  795MOL0     H 7281   3.289   5.879   0.266 -0.9711 -2.6990  1.5943
  795MOL0     H 7282   3.276   5.840   0.430 -2.0099  0.3556  0.8478
  795MOL0     H 7283   3.401   6.012   0.515 -2.0887 -1.2756  0.6475
  795MOL0     H 7284   3.441   6.080   0.350 -2.0625 -0.5154 -0.7188
  795MOL0     H 7285   3.696   5.740   0.449 -1.1489 -0.7413  1.3744
  795MOL0     H 7286   3.924   5.783   0.552  2.4423  2.1859  3.0042
  795MOL0     H 7287   4.289   6.139   0.714  0.1047 -0.6172  2.0302
  795MOL0     H 7288   4.528   6.118   0.750  2.5694 -2.2800  0.9902
  795MOL0     H 7289   4.790   5.909   0.643 -0.3706  0.6773  0.4175
  795MOL0     H 7290   4.729   6.061   0.700 -1.3778 -0.8727  0.5920
  795MOL0     H 7291   4.827   6.012   0.922 -0.5513  0.2409  0.2151
  795MOL0     H 7292   4.887   5.859   0.848 -1.6178 -0.6373 -2.9018
  795MOL0     H 7293   5.049   5.951   0.720 -1.3107 -1.5182 -0.0111
  795MOL0     H 7294   4.977   6.116   0.723 -0.9711  0.8025  1.4936
  795MOL0     H 7295   5.079   5.976   0.972  0.2220  0.2071  0.6341
  795MOL0     H 7296   5.018   6.141   0.947 -0.1611  1.0927 -1.7717
  795MOL0     H 7297   5.236   6.197   0.955  0.3391  1.1381 -0.4213
  795MOL0     H 7298   5.235   6.146   0.778 -1.5617  1.4787  0.2808
  795MOL0     H 7299   5.296   6.005   1.029 -0.9711  0.7350  0.2304
  795MOL0     H 7300   5.301   5.924   0.857  0.4156 -0.3091  1.6187
  795MOL0     H 7301   5.468   6.154   0.945 -1.7267 -0.3687  0.2209
  795MOL0     H 7302   5.487   6.064   0.797  2.0828  2.4205  1.0323
  795MOL0     H 7303   5.546   5.952   1.076 -0.2739  1.2419 -0.0056
  795MOL0     H 7304   5.548   5.860   0.920  2.0770 -0.3981 -0.4433
  795MOL0     H 7305   4.508   5.695   0.721 -0.1065 -0.0036 -1.0750
  795MOL0     H 7306   4.247   5.723   0.665 -1.5319  2.0558 -0.3807
  795MOL0     H 7307   3.851   6.195   0.496  1.1638 -0.6899 -2.7804
  795MOL0     H 7308   3.620   6.157   0.421 -0.7849  0.2266  1.5540
  795MOL0     H 7309   1.751   5.360   0.145 -0.2820 -0.6036  0.6940
  795MOL0     H 7310   1.545   5.452   0.076  0.7135  1.2576  0.0992
  795MOL0     H 7311   1.177   5.511   0.156  1.4243  1.1474  2.6696
  795MOL0     H 7312   0.959   5.535   0.084 -0.2983  0.0019 -0.1320
  795MOL0     H 7313   0.721   5.627   0.079  0.0959  0.0569  1.1185
  795MOL0     H 7314   0.826   5.576  -0.065  2.6162  3.6032  0.1232
  795MOL0     H 7315   0.619   5.560  -0.157  0.7637 -0.9349  0.5580
  795MOL0     H 7316   0.675   5.719  -0.217  2.9883  1.0685  1.1465
  795MOL0     H 7317   0.547   5.854  -0.046 -2.5181  0.2484  1.4135
  795MOL0     H 7318   0.503   5.703   0.032 -2.5058  1.2299  0.2399
  795MOL0     H 7319   0.368   5.644  -0.153 -0.8820  0.1794 -0.0651
  795MOL0     H 7320   0.327   5.791  -0.067 -1.8710 -1.5110 -1.2602
  795MOL0     H 7321   0.375   5.901  -0.485  1.3453 -1.2094 -0.4665
  795MOL0     H 7322   1.009   5.942  -0.028  0.0932 -1.7184 -1.4424
  795MOL0     H 7323   1.332   5.991  -0.029  1.3958 -0.8267 -0.0378
  795MOL0     H 7324   1.213   6.062   0.079 -1.0725 -0.3639 -3.9277
  795MOL0     H 7325   1.347   5.971   0.144 -2.7644 -1.7934  1.7193
  796MOL0     O 7326   4.932  10.020   0.683  0.1111  0.4668  0.0005
  796MOL0     C 7327   4.977   9.963   0.584  0.3351 -0.1184 -0.4173
  796MOL0     O 7328   4.898   9.904   0.484 -0.1194  0.1646 -0.4407
  796MOL0     C 7329   4.767   9.941   0.486 -0.4545  0.0035  1.2518
  796MOL0     C 7330   4.712  10.023   0.389  0.0540 -0.2042  0.5890
  796MOL0     C 7331   4.578  10.066   0.394  0.6836 -0.8394  0.4261
  796MOL0     C 7332   4.495  10.017   0.495 -0.2523  0.0515 -0.2668
  796MOL0     O 7333   4.370  10.060   0.518  0.3562  0.6086 -0.6412
  796MOL0     C 7334   4.291  10.083   0.391 -0.7198 -0.8909  0.0043
  796MOL0     C 7335   4.141  10.089   0.417 -0.3960 -0.7969  0.0128
  796MOL0     C 7336   4.060  10.095   0.284 -0.2635  0.0742  0.3778
  796MOL0     C 7337   3.907  10.078   0.302  0.4181  0.3321 -0.0479
  796MOL0     C 7338   3.814  10.189   0.242  0.9408  0.3325  0.1470
  796MOL0     C 7339   3.811  10.308   0.338  0.3409  0.0547 -0.5242
  796MOL0     C 7340   3.724  10.415   0.278  0.7003 -0.6321 -0.9010
  796MOL0     C 7341   3.708  10.531   0.379 -0.5580  0.2957 -0.5532
  796MOL0     N 7342   3.841  10.585   0.421  0.6607 -0.0628 -0.2281
  796MOL0     C 7343   3.932  10.647   0.338 -1.0847 -0.1181 -0.0652
  796MOL0     C 7344   4.036  10.681   0.417  0.3724  0.5877 -0.2657
  796MOL0     C 7345   4.162  10.751   0.363  0.8417  0.4715 -0.0960
  796MOL0     C 7346   4.265  10.665   0.286  0.6180  0.4001 -0.2412
  796MOL0     C 7347   4.321  10.540   0.359  0.4942 -0.4603  1.0208
  796MOL0     C 7348   4.371  10.560   0.497  0.3606 -0.5659 -0.4530
  796MOL0     O 7349   4.446  10.684   0.507  0.0220  0.4852  0.1355
  796MOL0     C 7350   4.579  10.667   0.514 -0.7477 -1.0394  0.1484
  796MOL0     C 7351   4.655  10.786   0.476  0.3088  0.1884  0.4319
  796MOL0     C 7352   4.790  10.791   0.473  0.5022 -1.3399 -0.7945
  796MOL0     C 7353   4.868  10.677   0.490 -0.5791 -0.0876 -0.4196
  796MOL0     C 7354   5.019  10.671   0.484 -0.1408  0.7691  0.1408
  796MOL0     O 7355   5.082  10.593   0.577  0.1114  0.7134 -0.1932
  796MOL0     C 7356   5.212  10.594   0.615 -0.0455  0.0271  0.1399
  796MOL0     C 7357   5.319  10.639   0.543 -0.9588  0.1564  0.2781
  796MOL0     C 7358   5.445  10.664   0.589 -0.7350 -0.4845  0.4759
  796MOL0     C 7359   5.474  10.645   0.717  0.5169  0.4457 -1.1346
  796MOL0     O 7360   5.593  10.700   0.766 -0.2943  0.2198  0.1561
  796MOL0     C 7361   5.583  10.750   0.900  0.2362  0.6752  0.6330
  796MOL0     C 7362   5.700  10.844   0.936  0.4497  0.0172  0.1720
  796MOL0     C 7363   5.827  10.759   0.931  0.6238 -0.0700  0.5855
  796MOL0     C 7364   5.951  10.836   0.964 -1.3187  0.0960  0.7058
  796MOL0     C 7365   6.079  10.747   0.971 -0.6376 -0.8815 -0.1295
  796MOL0     C 7366   6.070  10.653   1.083  0.6099 -0.5844 -0.1801
  796MOL0     C 7367   6.199  10.573   1.119  0.0567  0.4384  0.0577
  796MOL0     C 7368   6.160  10.490   1.243 -0.2678  0.0088 -0.1509
  796MOL0    Cl 7369   6.297  10.444   1.328  0.0850  0.2130 -0.1922
  796MOL0     C 7370   5.373  10.585   0.801 -0.1693 -0.4830 -0.2643
  796MOL0     C 7371   5.241  10.566   0.753  1.1985 -0.5853  0.3530
  796MOL0     O 7372   5.079  10.736   0.397  0.1674  0.1333 -0.3199
  796MOL0     C 7373   4.800  10.565   0.529 -0.6122 -0.0616 -0.2436
  796MOL0     C 7374   4.662  10.551   0.537 -0.1508 -0.7034  0.4133
  796MOL0     N 7375   4.005  10.642   0.549 -0.1346  0.0576 -0.4410
  796MOL0     N 7376   3.896  10.578   0.550 -0.1172 -0.1149  0.5805
  796MOL0     C 7377   4.552   9.933   0.590 -0.9567 -0.4496  0.5881
  796MOL0     C 7378   4.684   9.900   0.590  0.5292 -0.0046  0.3318
  796MOL0     C 7379   5.121   9.962   0.557  0.5352  0.7867  0.8747
  796MOL0     C 7380   5.165   9.925   0.422 -1.4227 -0.4878  0.4599
  796MOL0     C 7381   5.301   9.943   0.382  0.0489 -0.2908  0.3850
  796MOL0     C 7382   5.396   9.981   0.477  0.1679 -0.7788  0.0883
  796MOL0     O 7383   5.531   9.983   0.446  0.8794  0.0150 -0.0821
  796MOL0     C 7384   5.550  10.109   0.377 -0.3164  1.3234  0.0518
  796MOL0     C 7385   5.608  10.207   0.480 -0.2706  0.0465 -0.1278
  796MOL0     C 7386   5.746  10.162   0.528  0.7577 -0.3449 -0.0084
  796MOL0     C 7387   5.745  10.072   0.653 -0.2375 -1.2416  0.1949
  796MOL0     C 7388   5.888  10.039   0.671 -0.4874 -0.4756 -0.9349
  796MOL0     C 7389   6.004  10.008   0.710 -0.1480 -0.4679  0.4370
  796MOL0     C 7390   5.355  10.014   0.609  0.2368  0.0925 -0.8144
  796MOL0     C 7391   5.219  10.017   0.651 -0.0117  0.4482  0.5348
  796MOL0     C 7392   5.187  10.066   0.787  0.1035 -0.4073 -0.0168
  796MOL0     H 7393   4.780  10.052   0.308 -0.5408  0.8552  0.4553
  796MOL0     H 7394   4.551  10.151   0.333  2.6091 -0.0513  0.6080
  796MOL0     H 7395   4.323  10.174   0.339  0.6433 -0.7571  1.0306
  796MOL0     H 7396   4.306   9.998   0.325 -2.2419 -0.4994 -0.8880
  796MOL0     H 7397   4.113  10.180   0.470 -0.8885  0.3866 -2.1593
  796MOL0     H 7398   4.128   9.995   0.471  1.8988 -1.1023  0.1469
  796MOL0     H 7399   4.094  10.023   0.209 -0.4232 -0.1787  0.5478
  796MOL0     H 7400   4.081  10.191   0.235  0.0836  0.6197  1.5640
  796MOL0     H 7401   3.885   9.979   0.260  1.8016  0.9433 -2.3966
  796MOL0     H 7402   3.887  10.071   0.410 -0.2600  0.9808 -0.1287
  796MOL0     H 7403   3.852  10.218   0.144 -2.0970  0.0616 -1.2214
  796MOL0     H 7404   3.713  10.149   0.228  0.3957  2.5275 -3.1893
  796MOL0     H 7405   3.767  10.282   0.435 -1.3302  2.5735 -0.5056
  796MOL0     H 7406   3.913  10.340   0.361  0.1841  1.2159 -1.3700
  796MOL0     H 7407   3.625  10.371   0.263  0.4762 -0.0492 -1.1413
  796MOL0     H 7408   3.762  10.438   0.179 -0.8773  1.1017 -1.1598
  796MOL0     H 7409   3.653  10.612   0.331 -1.1910 -0.3454 -0.9246
  796MOL0     H 7410   3.657  10.498   0.470  1.1625 -1.0926 -0.0247
  796MOL0     H 7411   3.929  10.671   0.232  2.1091  1.3056  0.0523
  796MOL0     H 7412   4.130  10.818   0.283  1.2351  1.0009  0.1933
  796MOL0     H 7413   4.211  10.815   0.437  2.4282 -0.0338 -0.6727
  796MOL0     H 7414   4.222  10.630   0.191 -0.5573  0.3722  0.2863
  796MOL0     H 7415   4.346  10.733   0.257 -0.7510  2.5389  0.7626
  796MOL0     H 7416   4.404  10.509   0.295 -1.6783 -0.6198 -1.9095
  796MOL0     H 7417   4.244  10.462   0.364 -1.9996  1.6699 -1.1624
  796MOL0     H 7418   4.426  10.473   0.533  0.5933  0.1708  1.0367
  796MOL0     H 7419   4.289  10.578   0.567  1.7498  0.1930  1.0395
  796MOL0     H 7420   4.603  10.877   0.449  0.4493  0.5775  1.4248
  796MOL0     H 7421   4.835  10.888   0.453 -2.5530  1.4125  3.6933
  796MOL0     H 7422   5.294  10.665   0.440  0.6635  3.9636  0.6948
  796MOL0     H 7423   5.521  10.725   0.541 -0.2221  0.6197  2.5696
  796MOL0     H 7424   5.495  10.815   0.907 -0.4038 -0.2233  1.1103
  796MOL0     H 7425   5.578  10.666   0.970  1.9122  2.7351  3.4265
  796MOL0     H 7426   5.696  10.912   0.850 -1.9443  0.0842  0.2699
  796MOL0     H 7427   5.691  10.880   1.039  2.4337 -3.5129  1.7377
  796MOL0     H 7428   5.809  10.675   0.998 -0.4795  0.8246  1.4425
  796MOL0     H 7429   5.850  10.719   0.832  0.0959  3.0656 -0.9108
  796MOL0     H 7430   5.946  10.881   1.064  0.0317  1.9273 -0.0093
  796MOL0     H 7431   5.975  10.920   0.898  2.2608 -0.2681  1.3696
  796MOL0     H 7432   6.156  10.823   0.986 -1.4874  0.0225 -0.2557
  796MOL0     H 7433   6.092  10.687   0.880 -0.7429 -0.0827 -0.6822
  796MOL0     H 7434   6.036  10.704   1.173 -0.0637 -0.9121 -0.2429
  796MOL0     H 7435   5.992  10.580   1.057  0.8538 -1.1721  0.6927
  796MOL0     H 7436   6.282  10.643   1.135  0.4708 -0.2709  1.1235
  796MOL0     H 7437   6.232  10.506   1.040  2.5749  0.1545  1.2556
  796MOL0     H 7438   6.097  10.548   1.311 -0.0301 -0.4281  0.4422
  796MOL0     H 7439   6.102  10.402   1.214  0.8164 -0.3360 -1.3776
  796MOL0     H 7440   5.404  10.551   0.899 -0.4429 -1.1504 -0.4061
  796MOL0     H 7441   5.157  10.525   0.808  0.1205  2.5476  1.3013
  796MOL0     H 7442   4.860  10.479   0.556 -0.4032 -0.2102 -1.1607
  796MOL0     H 7443   4.628  10.456   0.576 -0.6885 -1.6123 -2.0917
  796MOL0     H 7444   4.499   9.908   0.681 -1.1512 -1.2293  0.2626
  796MOL0     H 7445   4.726   9.842   0.672  1.1444 -1.3544 -0.8960
  796MOL0     H 7446   5.109   9.894   0.334  0.7695 -3.3937 -0.0791
  796MOL0     H 7447   5.323   9.920   0.278 -1.7137 -0.5805  0.0404
  796MOL0     H 7448   5.460  10.158   0.339 -1.5397 -2.0414 -1.7960
  796MOL0     H 7449   5.618  10.096   0.292 -1.5812  1.7894 -1.0623
  796MOL0     H 7450   5.532  10.219   0.558  0.4638 -0.7743  0.7393
  796MOL0     H 7451   5.614  10.300   0.423 -0.0419  1.4778  2.1117
  796MOL0     H 7452   5.794  10.254   0.565  0.5054  0.3350 -1.3206
  796MOL0     H 7453   5.795  10.116   0.442 -1.2994  0.8447 -1.9189
  796MOL0     H 7454   5.693  10.133   0.728 -1.0302 -0.4995 -0.9248
  796MOL0     H 7455   5.691   9.983   0.621  2.6566 -3.4707  1.1031
  796MOL0     H 7456   6.103   9.975   0.732  0.6512  2.0629  1.0130
  796MOL0     H 7457   5.444  10.041   0.664 -0.3586  2.2216 -0.7976
  796MOL0     H 7458   5.154  10.170   0.790  1.8241  0.1965 -0.6863
  796MOL0     H 7459   5.112  10.003   0.834  0.5054 -1.1154 -0.3023
  796MOL0     H 7460   5.275  10.065   0.852  0.2765 -2.4857 -0.2164
  797MOL0     O 7461   8.658   2.098   3.146 -0.9443  0.2083 -0.0839
  797MOL0     C 7462   8.626   2.009   3.214 -0.6518 -0.1954  0.1056
  797MOL0     O 7463   8.705   1.923   3.283 -0.3545 -0.3309  0.5738
  797MOL0     C 7464   8.831   1.904   3.232  0.1388  0.1937  0.2101
  797MOL0     C 7465   8.864   1.864   3.103 -0.0758 -0.7358  0.7590
  797MOL0     C 7466   8.997   1.847   3.060  0.7686  2.1318 -0.5717
  797MOL0     C 7467   9.097   1.857   3.159 -0.7052  0.0186 -0.0140
  797MOL0     O 7468   9.232   1.841   3.129  0.2897  0.0160  0.0736
  797MOL0     C 7469   9.270   1.738   3.044 -0.6614  0.0117 -0.0990
  797MOL0     C 7470   9.424   1.709   3.070  0.4573  0.5999 -0.3616
  797MOL0     C 7471   9.506   1.824   3.019 -0.4536 -0.0707  0.2294
  797MOL0     C 7472   9.657   1.800   3.040 -0.9049  0.4402 -0.0779
  797MOL0     C 7473   9.740   1.922   3.002  0.4575  0.0155 -0.0643
  797MOL0     C 7474   9.891   1.891   3.010  0.1239 -0.6451 -0.5501
  797MOL0     C 7475   9.971   2.018   2.990  0.1433  0.6976  0.0564
  797MOL0     C 7476  10.107   1.979   2.937 -0.1062 -0.2007 -0.4305
  797MOL0     N 7477  10.202   2.079   2.978  0.1723 -0.7387 -0.2881
  797MOL0     C 7478  10.203   2.216   2.951 -0.0533  1.0181 -0.0842
  797MOL0     C 7479  10.325   2.261   2.994 -0.7282  0.9459  0.7315
  797MOL0     C 7480  10.373   2.401   2.982 -0.2977  0.1623 -0.0097
  797MOL0     C 7481  10.487   2.402   2.882  0.1419  0.0388 -0.4230
  797MOL0     C 7482  10.535   2.547   2.857 -0.2824  1.0543 -0.0427
  797MOL0     C 7483  10.657   2.550   2.765  0.6645  0.2307 -0.4003
  797MOL0     O 7484  10.782   2.525   2.826  1.0880  0.1667 -0.2168
  797MOL0     C 7485  10.896   2.519   2.750 -0.0807 -0.4901 -0.3381
  797MOL0     C 7486  11.017   2.478   2.804  0.0330 -0.2368 -0.4251
  797MOL0     C 7487  11.133   2.451   2.732 -0.0206 -0.7322 -0.0716
  797MOL0     C 7488  11.135   2.483   2.594 -0.3847  0.4348 -0.1977
  797MOL0     C 7489  11.259   2.465   2.516  0.9349 -0.2042  0.5549
  797MOL0     O 7490  11.375   2.450   2.575 -0.0452 -0.3788 -0.1424
  797MOL0     C 7491  11.489   2.407   2.510 -0.0646  0.3822 -0.1010
  797MOL0     C 7492  11.481   2.318   2.397  0.5734 -0.2531 -0.6962
  797MOL0     C 7493  11.605   2.284   2.335 -0.2409 -0.7395  0.1720
  797MOL0     C 7494  11.724   2.343   2.373  0.1531 -0.1102 -0.5246
  797MOL0     O 7495  11.838   2.317   2.300  0.0412  0.2297  1.3684
  797MOL0     C 7496  11.941   2.251   2.363  0.1267 -0.0839  0.6322
  797MOL0     C 7497  12.054   2.212   2.266  0.7589 -0.0593  1.1557
  797MOL0     C 7498  12.170   2.153   2.338 -0.1455  0.4622 -0.1419
  797MOL0     C 7499  12.310   2.149   2.272  0.3537 -0.9677  0.8256
  797MOL0     C 7500  12.323   2.044   2.164  0.9183 -0.0468  0.4048
  797MOL0     C 7501  12.445   2.082   2.073  0.0935 -0.3729  0.4335
  797MOL0     C 7502  12.580   2.103   2.150 -0.3753 -0.9832  0.3303
  797MOL0     C 7503  12.635   1.969   2.191 -0.4394  0.0511  0.2217
  797MOL0    Cl 7504  12.798   1.986   2.288 -0.1515  0.2422 -0.4007
  797MOL0     C 7505  11.718   2.430   2.484 -0.4957  0.1253  0.0239
  797MOL0     C 7506  11.604   2.462   2.547 -1.0736  0.7546  0.6508
  797MOL0     O 7507  11.246   2.491   2.398  0.0308 -0.1619 -0.2017
  797MOL0     C 7508  11.025   2.530   2.531  0.7612  0.4901 -0.3725
  797MOL0     C 7509  10.910   2.546   2.610  0.8566  0.2235 -0.7551
  797MOL0     N 7510  10.404   2.159   3.039  0.1467 -0.3951  0.3584
  797MOL0     N 7511  10.326   2.050   3.031  0.2980  0.4649 -0.4850
  797MOL0     C 7512   9.064   1.904   3.289 -0.4414 -0.4416 -0.7733
  797MOL0     C 7513   8.932   1.914   3.329 -0.2680  0.6849 -0.0669
  797MOL0     C 7514   8.478   1.983   3.240 -0.2573 -0.1952 -0.2645
  797MOL0     C 7515   8.442   1.963   3.376 -0.4128 -0.6407 -0.1440
  797MOL0     C 7516   8.308   1.934   3.415 -0.2515  0.5823  0.2177
  797MOL0     C 7517   8.215   1.917   3.312  0.4628  0.1913  0.4194
  797MOL0     O 7518   8.091   1.873   3.352 -0.3875  0.2734  0.7016
  797MOL0     C 7519   7.986   1.850   3.253  0.2243  0.1372  0.3816
  797MOL0     C 7520   7.865   1.808   3.333  0.2138  0.2620  0.7528
  797MOL0     C 7521   7.734   1.821   3.248  0.5333  0.2175 -0.3023
  797MOL0     C 7522   7.614   1.733   3.297 -0.1660  0.4759  0.4769
  797MOL0     C 7523   7.626   1.587   3.265  0.2051  0.2245 -0.4632
  797MOL0     C 7524   7.645   1.462   3.281 -0.7240  0.1131 -0.4303
  797MOL0     C 7525   8.252   1.937   3.170  0.5366 -0.0283 -0.1634
  797MOL0     C 7526   8.385   1.962   3.136 -0.2282 -0.5323 -0.2078
  797MOL0     C 7527   8.418   1.957   2.989 -0.3046  0.3563 -0.6388
  797MOL0     H 7528   8.789   1.849   3.027  2.0821 -1.6201 -1.3269
  797MOL0     H 7529   9.016   1.815   2.958  0.5295 -0.2185  0.0645
  797MOL0     H 7530   9.206   1.650   3.059 -1.3501  0.3332 -1.0046
  797MOL0     H 7531   9.253   1.775   2.942  0.8360  1.4770  0.1535
  797MOL0     H 7532   9.457   1.617   3.021  2.2331 -1.0709  3.5810
  797MOL0     H 7533   9.438   1.685   3.175 -0.5872 -0.4519 -0.4456
  797MOL0     H 7534   9.499   1.913   3.081  1.5923  0.7761 -0.6451
  797MOL0     H 7535   9.484   1.847   2.914  1.5005  0.1611 -0.1691
  797MOL0     H 7536   9.670   1.787   3.148 -2.6592  0.0782  0.1233
  797MOL0     H 7537   9.688   1.705   2.996  0.4834  0.2397  1.2282
  797MOL0     H 7538   9.703   1.946   2.902  1.4571  1.4089 -0.1373
  797MOL0     H 7539   9.721   2.010   3.064  0.7681 -0.4984  0.7893
  797MOL0     H 7540   9.906   1.845   3.109  0.1626 -0.7565 -0.6068
  797MOL0     H 7541   9.908   1.805   2.945 -1.1660 -1.9347  0.7220
  797MOL0     H 7542   9.978   2.065   3.088 -1.2982  0.3982  0.3222
  797MOL0     H 7543   9.943   2.084   2.907  1.3475  1.1401 -0.0209
  797MOL0     H 7544  10.144   1.882   2.975 -0.5020 -1.4259 -2.9968
  797MOL0     H 7545  10.095   1.970   2.829  0.8928 -0.9033 -0.5029
  797MOL0     H 7546  10.131   2.291   2.918 -0.1436  1.0221  0.1224
  797MOL0     H 7547  10.289   2.465   2.954 -2.6406 -2.5741  0.3394
  797MOL0     H 7548  10.410   2.437   3.079 -4.0121 -0.3838  1.7930
  797MOL0     H 7549  10.572   2.346   2.922 -0.7573  0.2812  1.9712
  797MOL0     H 7550  10.452   2.351   2.792  1.3441 -2.8586  0.6114
  797MOL0     H 7551  10.570   2.592   2.951 -0.3840  0.4234  0.3081
  797MOL0     H 7552  10.451   2.604   2.819 -2.0103  1.0572  3.3619
  797MOL0     H 7553  10.659   2.652   2.728  0.4223 -0.7899 -3.5362
  797MOL0     H 7554  10.640   2.482   2.681  1.0152 -0.6536  0.2281
  797MOL0     H 7555  11.020   2.444   2.907 -3.5688 -0.0983 -0.1529
  797MOL0     H 7556  11.221   2.423   2.789 -0.6996  1.0183  1.9900
  797MOL0     H 7557  11.383   2.289   2.359  0.0713 -0.3272  0.5952
  797MOL0     H 7558  11.622   2.215   2.253  1.4517  0.4511 -0.5369
  797MOL0     H 7559  11.979   2.312   2.446 -3.4186  0.6467  1.8666
  797MOL0     H 7560  11.904   2.167   2.423 -0.2188  0.0616  0.6238
  797MOL0     H 7561  12.028   2.127   2.203  0.0381 -1.7216  3.5280
  797MOL0     H 7562  12.075   2.302   2.209 -3.5241  0.9482  0.8561
  797MOL0     H 7563  12.184   2.205   2.433  1.9498  1.2723 -0.8472
  797MOL0     H 7564  12.137   2.052   2.363 -0.2142  0.5397  0.0872
  797MOL0     H 7565  12.381   2.130   2.353  1.1207 -0.0461  0.3827
  797MOL0     H 7566  12.326   2.251   2.236 -2.4062 -0.2763  1.3233
  797MOL0     H 7567  12.237   2.031   2.098  2.2470  0.4729 -1.5243
  797MOL0     H 7568  12.345   1.949   2.213 -0.7051  0.2073  1.7045
  797MOL0     H 7569  12.454   2.003   1.999  2.6741 -0.6278  0.9363
  797MOL0     H 7570  12.428   2.174   2.017 -0.8375 -0.2091  0.9466
  797MOL0     H 7571  12.572   2.175   2.232 -1.1396 -1.2473  0.4973
  797MOL0     H 7572  12.652   2.145   2.079 -0.9396 -0.4980  0.0396
  797MOL0     H 7573  12.566   1.911   2.251  1.2210 -0.0170  2.1866
  797MOL0     H 7574  12.654   1.911   2.100 -4.3659  0.2881 -0.9208
  797MOL0     H 7575  11.814   2.479   2.499  0.1428 -1.0195 -0.2183
  797MOL0     H 7576  11.604   2.533   2.629 -1.2724  2.2377 -0.5938
  797MOL0     H 7577  11.025   2.553   2.425 -0.0277  2.5883  0.0271
  797MOL0     H 7578  10.820   2.585   2.563 -0.5968 -1.2264  0.6979
  797MOL0     H 7579   9.140   1.920   3.364 -1.0433  0.1971 -0.2895
  797MOL0     H 7580   8.913   1.937   3.433  2.5565  1.9499  0.2559
  797MOL0     H 7581   8.514   1.958   3.457 -0.6563  0.0719  0.1261
  797MOL0     H 7582   8.282   1.924   3.520 -3.1360  0.0831 -0.4524
  797MOL0     H 7583   8.016   1.763   3.193 -0.1179 -0.0495  0.4777
  797MOL0     H 7584   7.975   1.943   3.196  0.0285 -0.3312 -0.3647
  797MOL0     H 7585   7.848   1.877   3.415 -2.6369  1.0597 -0.3893
  797MOL0     H 7586   7.876   1.707   3.374 -0.4193  0.4965  1.5093
  797MOL0     H 7587   7.762   1.787   3.147 -2.1545  1.3982 -1.5521
  797MOL0     H 7588   7.690   1.920   3.235  0.4124  0.2951  0.6751
  797MOL0     H 7589   7.601   1.744   3.405 -3.4246  2.2229  0.0193
  797MOL0     H 7590   7.529   1.782   3.249 -1.7045 -3.3915 -1.1296
  797MOL0     H 7591   7.665   1.357   3.286 -0.8027  0.1576  1.4569
  797MOL0     H 7592   8.178   1.916   3.093  0.6966  0.7389 -0.5383
  797MOL0     H 7593   8.432   2.060   2.953 -0.3045  0.8022  0.5793
  797MOL0     H 7594   8.511   1.901   2.977  0.3987  1.5106 -0.7451
  797MOL0     H 7595   8.344   1.904   2.929  0.2967 -1.8117  0.4279
  798MOL0     O 7596   1.617   2.566   4.846 -0.7611  1.0438  0.5186
  798MOL0     C 7597   1.565   2.545   4.735 -0.4023 -0.4599  0.0963
  798MOL0     O 7598   1.624   2.576   4.613 -0.9170 -0.1827  0.1891
  798MOL0     C 7599   1.756   2.618   4.619 -0.0235 -0.3951 -0.1949
  798MOL0     C 7600   1.856   2.535   4.561  0.4092 -0.3537 -0.2365
  798MOL0     C 7601   1.987   2.586   4.556 -0.9926 -0.2372 -0.0572
  798MOL0     C 7602   2.023   2.707   4.612 -0.6292 -0.1558 -0.1864
  798MOL0     O 7603   2.150   2.748   4.599  0.2882 -0.4451  0.1712
  798MOL0     C 7604   2.191   2.878   4.615 -0.8831 -0.8482 -0.9133
  798MOL0     C 7605   2.345   2.891   4.606 -1.0189 -0.3389 -0.8364
  798MOL0     C 7606   2.406   2.819   4.485 -0.1602 -0.6615  0.3237
  798MOL0     C 7607   2.551   2.827   4.489 -0.6077  0.0062 -0.0956
  798MOL0     C 7608   2.618   2.751   4.372  0.4880  0.9128 -0.5657
  798MOL0     C 7609   2.773   2.729   4.390 -0.0130  0.0148  0.7249
  798MOL0     C 7610   2.822   2.644   4.267 -0.3902  0.2150  0.0508
  798MOL0     C 7611   2.967   2.587   4.290 -0.1185 -0.5644  0.7579
  798MOL0     N 7612   3.067   2.692   4.299  0.8161 -0.4197 -1.2419
  798MOL0     C 7613   3.124   2.738   4.422  0.4264  0.0118 -0.1459
  798MOL0     C 7614   3.208   2.838   4.385  0.2004  0.1175 -0.2087
  798MOL0     C 7615   3.275   2.925   4.489  0.2915  0.0246  0.1505
  798MOL0     C 7616   3.428   2.891   4.497 -0.2498 -0.3717 -0.1037
  798MOL0     C 7617   3.502   2.977   4.600  0.2243  0.6061  0.4151
  798MOL0     C 7618   3.652   2.962   4.607  0.3691 -0.0677 -0.9020
  798MOL0     O 7619   3.709   3.036   4.507  0.0502  0.4152  0.0260
  798MOL0     C 7620   3.845   3.050   4.504  0.1164 -0.7084  1.2371
  798MOL0     C 7621   3.937   2.978   4.576 -0.6482  0.2672  0.3595
  798MOL0     C 7622   4.072   2.992   4.557 -0.3605  0.1439 -0.5536
  798MOL0     C 7623   4.123   3.099   4.480  0.2175 -0.2463  0.4133
  798MOL0     C 7624   4.265   3.115   4.464 -0.4816 -0.1646 -0.0618
  798MOL0     O 7625   4.345   3.038   4.534  0.4887  0.0297  0.0722
  798MOL0     C 7626   4.479   3.042   4.519  0.0560 -0.2092 -0.0178
  798MOL0     C 7627   4.555   3.153   4.486 -1.0092 -0.7904 -0.2400
  798MOL0     C 7628   4.695   3.144   4.459 -0.4346 -0.0889 -0.0490
  798MOL0     C 7629   4.754   3.017   4.471 -0.8330 -0.9347  1.3837
  798MOL0     O 7630   4.880   2.992   4.429 -0.4101  0.0723  0.1866
  798MOL0     C 7631   4.935   3.063   4.317  0.3213 -0.3391 -0.7175
  798MOL0     C 7632   5.080   3.035   4.301 -0.3176  0.2300  0.3045
  798MOL0     C 7633   5.141   3.093   4.172  0.2710 -0.2703 -0.1325
  798MOL0     C 7634   5.098   3.013   4.046 -0.3483  0.2148 -0.1730
  798MOL0     C 7635   5.169   3.071   3.926  0.0559 -0.6742 -0.7157
  798MOL0     C 7636   5.322   3.046   3.938  0.7389 -0.8981 -0.0851
  798MOL0     C 7637   5.388   3.052   3.792  0.9017 -0.0849 -0.2197
  798MOL0     C 7638   5.383   3.191   3.733  0.0201  0.1654  0.0233
  798MOL0    Cl 7639   5.524   3.286   3.793 -0.3475  0.1029  0.7259
  798MOL0     C 7640   4.684   2.909   4.527  0.6018  0.2076 -0.2751
  798MOL0     C 7641   4.549   2.928   4.552 -0.0433 -0.4301  0.8142
  798MOL0     O 7642   4.300   3.204   4.380 -0.0428 -0.3157  0.2960
  798MOL0     C 7643   4.022   3.177   4.403  0.2837 -0.5928  0.6244
  798MOL0     C 7644   3.886   3.162   4.422  0.8457  0.4244 -0.3386
  798MOL0     N 7645   3.195   2.854   4.246  0.0549 -0.2266 -0.0828
  798MOL0     N 7646   3.116   2.769   4.197  0.7146 -0.1355  0.0598
  798MOL0     C 7647   1.924   2.795   4.654 -0.4756 -0.6548  0.1787
  798MOL0     C 7648   1.790   2.751   4.659 -0.4640  0.6738 -0.3974
  798MOL0     C 7649   1.423   2.505   4.717 -0.0699  0.3282 -0.5129
  798MOL0     C 7650   1.352   2.550   4.603 -0.5164  0.3052 -0.9596
  798MOL0     C 7651   1.218   2.521   4.586  0.2325  0.6154 -1.0081
  798MOL0     C 7652   1.152   2.442   4.677  0.0360 -0.4913 -1.0294
  798MOL0     O 7653   1.024   2.438   4.644  0.3823  0.0863 -0.1813
  798MOL0     C 7654   0.942   2.355   4.724  0.2163  0.5652  0.2021
  798MOL0     C 7655   0.933   2.219   4.663 -0.4216 -0.2788  0.0011
  798MOL0     C 7656   0.889   2.208   4.521 -0.1074  0.7156  0.2033
  798MOL0     C 7657   0.865   2.069   4.475 -0.3280 -0.5000  0.1571
  798MOL0     C 7658   0.733   2.010   4.494 -0.1065 -0.7662 -0.1540
  798MOL0     C 7659   0.632   1.948   4.499 -0.6903 -0.4790 -0.6603
  798MOL0     C 7660   1.224   2.402   4.791  0.6121 -0.4462  0.3091
  798MOL0     C 7661   1.353   2.426   4.810  0.0502  0.5377  0.6295
  798MOL0     C 7662   1.408   2.385   4.944 -0.5515  0.9150  0.1162
  798MOL0     H 7663   1.828   2.440   4.516 -1.7103  0.3082 -0.4220
  798MOL0     H 7664   2.059   2.519   4.511 -1.8366 -1.5762  0.5212
  798MOL0     H 7665   2.147   2.946   4.542  4.2709  0.2098 -3.4797
  798MOL0     H 7666   2.159   2.909   4.715 -0.3810  0.9916 -1.2878
  798MOL0     H 7667   2.381   2.862   4.705  0.9430  0.8183 -1.1544
  798MOL0     H 7668   2.378   2.995   4.613 -0.4740 -0.6192  1.6482
  798MOL0     H 7669   2.362   2.868   4.398  0.1016  0.7312  0.9443
  798MOL0     H 7670   2.373   2.715   4.491  1.3390 -1.1547  0.5004
  798MOL0     H 7671   2.578   2.933   4.483 -0.2609 -0.0752 -0.0218
  798MOL0     H 7672   2.579   2.790   4.588 -0.4385 -0.3834 -0.2870
  798MOL0     H 7673   2.583   2.648   4.371  0.7371  0.7943 -2.9418
  798MOL0     H 7674   2.595   2.801   4.278 -0.4526 -0.8030 -1.2730
  798MOL0     H 7675   2.823   2.826   4.391 -2.6923  1.5300 -0.2637
  798MOL0     H 7676   2.796   2.678   4.484 -3.0896 -1.3798  0.8683
  798MOL0     H 7677   2.815   2.703   4.175 -0.6699 -1.0304 -0.7569
  798MOL0     H 7678   2.765   2.552   4.253 -0.8198  0.0169  2.7519
  798MOL0     H 7679   2.961   2.536   4.386 -0.9394  2.1737  2.2638
  798MOL0     H 7680   2.982   2.526   4.200  2.1965  1.9971 -0.7466
  798MOL0     H 7681   3.105   2.691   4.517 -1.1266  0.4383 -0.2221
  798MOL0     H 7682   3.262   3.030   4.465 -1.3421 -0.3688 -0.8732
  798MOL0     H 7683   3.234   2.898   4.587 -0.2367 -0.1688 -0.1223
  798MOL0     H 7684   3.455   2.787   4.519 -1.7437 -0.4595  1.5305
  798MOL0     H 7685   3.467   2.908   4.396 -3.0665 -1.3781 -1.4438
  798MOL0     H 7686   3.457   2.947   4.695 -1.7747  0.6117 -0.4577
  798MOL0     H 7687   3.470   3.081   4.587 -0.8574  0.3702  1.0374
  798MOL0     H 7688   3.676   2.855   4.604  0.5970 -0.0101 -2.7695
  798MOL0     H 7689   3.687   3.009   4.699 -1.2260 -2.2630  0.9541
  798MOL0     H 7690   3.899   2.913   4.654 -1.2608 -0.3784 -0.4676
  798MOL0     H 7691   4.141   2.929   4.613 -2.1123 -0.5013  0.9766
  798MOL0     H 7692   4.509   3.251   4.491  0.5399 -0.0931  1.5345
  798MOL0     H 7693   4.739   3.240   4.433 -1.1486  0.8611  2.0592
  798MOL0     H 7694   4.884   3.021   4.230  0.3083  1.5900 -1.6884
  798MOL0     H 7695   4.916   3.170   4.311  1.6647 -0.0400 -0.1667
  798MOL0     H 7696   5.133   3.086   4.382 -0.4747 -0.1912  0.6771
  798MOL0     H 7697   5.105   2.929   4.307 -0.7386  0.1355  0.4284
  798MOL0     H 7698   5.119   3.200   4.165 -0.4715 -0.3156  1.1345
  798MOL0     H 7699   5.249   3.082   4.186  0.1340 -3.0930 -0.6778
  798MOL0     H 7700   4.989   3.017   4.038 -0.3403 -1.5393 -1.8871
  798MOL0     H 7701   5.126   2.907   4.044  2.4491  0.8815 -2.2706
  798MOL0     H 7702   5.150   3.178   3.914 -0.4124 -0.7207 -0.4270
  798MOL0     H 7703   5.127   3.032   3.832 -1.0089 -0.0233 -0.5308
  798MOL0     H 7704   5.377   3.112   4.004  1.8037 -0.9391 -0.9089
  798MOL0     H 7705   5.340   2.950   3.988  1.1017 -0.2435  1.0751
  798MOL0     H 7706   5.328   2.981   3.734  1.5842 -0.0390 -0.9918
  798MOL0     H 7707   5.488   3.010   3.780  0.6141 -0.5541 -1.0458
  798MOL0     H 7708   5.386   3.185   3.624  1.0671 -2.4687  0.0995
  798MOL0     H 7709   5.287   3.240   3.748 -0.5880 -0.5461 -1.3148
  798MOL0     H 7710   4.737   2.816   4.545 -0.9165 -0.5288  0.5699
  798MOL0     H 7711   4.505   2.850   4.613  1.3760  0.7621  3.5259
  798MOL0     H 7712   4.044   3.265   4.342 -0.2116  0.4831  1.9381
  798MOL0     H 7713   3.821   3.233   4.372  1.8015  0.8055 -1.0584
  798MOL0     H 7714   1.937   2.895   4.694 -2.0748  0.0366 -0.9252
  798MOL0     H 7715   1.714   2.818   4.697 -1.0658  0.3194 -0.9468
  798MOL0     H 7716   1.402   2.604   4.523 -1.1447 -2.1155 -3.1208
  798MOL0     H 7717   1.156   2.552   4.503 -2.8429  0.3470  1.0528
  798MOL0     H 7718   0.838   2.389   4.733  0.2630  0.5813  0.7057
  798MOL0     H 7719   0.969   2.349   4.830 -0.0003  0.7272  0.2677
  798MOL0     H 7720   0.863   2.155   4.718 -0.2072 -1.3579 -0.9430
  798MOL0     H 7721   1.032   2.173   4.670  0.4330  1.5840  1.2301
  798MOL0     H 7722   0.977   2.240   4.465 -0.0618 -1.0721 -0.8340
  798MOL0     H 7723   0.798   2.264   4.497  0.1816  0.4625 -1.6980
  798MOL0     H 7724   0.880   2.075   4.367  1.0311 -1.0191  0.2868
  798MOL0     H 7725   0.936   2.000   4.523 -0.0784 -1.1021 -1.0395
  798MOL0     H 7726   0.548   1.882   4.493 -1.2422 -0.2019  2.5753
  798MOL0     H 7727   1.169   2.362   4.876 -0.1710 -0.2645 -0.0985
  798MOL0     H 7728   1.352   2.303   4.989  1.8995 -1.2551 -0.5596
  798MOL0     H 7729   1.509   2.347   4.929  0.0754  2.4923  0.1093
  798MOL0     H 7730   1.424   2.466   5.016  1.8079  0.9969 -0.4173
  799MOL0     O 7731   5.676   3.611   8.621  0.5033 -0.6012 -0.5944
  799MOL0     C 7732   5.695   3.517   8.695  0.7990 -0.1023 -0.5250
  799MOL0     O 7733   5.807   3.433   8.700 -0.3152  0.6911 -0.4453
  799MOL0     C 7734   5.919   3.485   8.640 -0.7361  0.1152 -0.7094
  799MOL0     C 7735   5.939   3.449   8.501  0.6007 -0.1545 -0.1861
  799MOL0     C 7736   6.042   3.506   8.433  0.2478  0.8198  0.9932
  799MOL0     C 7737   6.120   3.603   8.488  0.4906 -0.6059  0.0343
  799MOL0     O 7738   6.216   3.680   8.419  0.2355 -0.8489 -0.9764
  799MOL0     C 7739   6.251   3.646   8.290 -0.0975  0.7347  0.3285
  799MOL0     C 7740   6.380   3.716   8.232 -0.4625 -0.3859  0.6135
  799MOL0     C 7741   6.511   3.650   8.284  1.1082 -0.5521  0.5981
  799MOL0     C 7742   6.642   3.691   8.218 -0.1625 -0.5434 -0.5499
  799MOL0     C 7743   6.757   3.597   8.270 -0.4840  0.3476  0.3155
  799MOL0     C 7744   6.898   3.660   8.250  0.0923 -0.0215 -0.4472
  799MOL0     C 7745   7.001   3.554   8.296 -0.4124 -0.2857  0.8948
  799MOL0     C 7746   7.148   3.596   8.258 -0.1417 -0.1781 -0.4504
  799MOL0     N 7747   7.196   3.704   8.355  0.3748  0.2454 -0.0819
  799MOL0     C 7748   7.223   3.682   8.494 -0.6037  0.5430  0.1249
  799MOL0     C 7749   7.250   3.800   8.540  0.4121  0.0269 -0.7093
  799MOL0     C 7750   7.257   3.844   8.682 -0.0711  0.2725  0.3261
  799MOL0     C 7751   7.393   3.803   8.738  0.4983 -0.7898  0.0035
  799MOL0     C 7752   7.502   3.902   8.694 -0.0351 -0.6225 -0.0959
  799MOL0     C 7753   7.630   3.880   8.771 -0.4083  0.5245 -0.2715
  799MOL0     O 7754   7.623   3.940   8.901  0.1781  0.1520  0.0193
  799MOL0     C 7755   7.735   3.950   8.976  0.0814 -0.2335  0.6345
  799MOL0     C 7756   7.844   3.866   8.954 -0.3727 -0.4816 -0.4146
  799MOL0     C 7757   7.950   3.877   9.045 -0.5389 -0.4201 -0.1383
  799MOL0     C 7758   7.966   3.987   9.134 -0.5012 -0.1594 -0.6193
  799MOL0     C 7759   8.090   4.001   9.223  0.2311 -0.4031  0.8171
  799MOL0     O 7760   8.201   3.923   9.202 -0.2485  0.5077  0.5140
  799MOL0     C 7761   8.321   3.962   9.262  0.7596  0.0155  0.2548
  799MOL0     C 7762   8.389   4.080   9.230  0.0810  0.3631 -0.3763
  799MOL0     C 7763   8.513   4.109   9.289  0.2274  0.3823 -0.2483
  799MOL0     C 7764   8.582   4.016   9.370 -0.0273  0.4163 -0.6790
  799MOL0     O 7765   8.704   4.046   9.429  0.2502 -0.2888 -0.2063
  799MOL0     C 7766   8.807   3.991   9.346  0.5289  0.6281 -0.3346
  799MOL0     C 7767   8.933   3.994   9.441  0.2700  0.5172  0.3558
  799MOL0     C 7768   9.029   3.887   9.402  0.3716  0.8461 -0.1124
  799MOL0     C 7769   9.145   3.893   9.497 -0.2908  0.2285 -0.2076
  799MOL0     C 7770   9.258   3.795   9.456  0.4049  1.0357 -0.2176
  799MOL0     C 7771   9.371   3.787   9.557  0.0613 -0.0206 -0.3662
  799MOL0     C 7772   9.454   3.659   9.530 -0.4086 -0.6202 -0.1069
  799MOL0     C 7773   9.573   3.650   9.616 -0.3890 -0.0695 -0.3834
  799MOL0    Cl 7774   9.689   3.513   9.570  0.3504  0.0058  0.3672
  799MOL0     C 7775   8.520   3.897   9.390  0.0969  0.6152  0.5269
  799MOL0     C 7776   8.393   3.865   9.339 -0.0467  0.5953  0.6735
  799MOL0     O 7777   8.083   4.096   9.303 -0.0615 -0.1443  0.3196
  799MOL0     C 7778   7.859   4.073   9.147 -0.1654  0.1045 -0.1871
  799MOL0     C 7779   7.739   4.056   9.072 -0.2368  0.4018  0.4472
  799MOL0     N 7780   7.252   3.884   8.433 -0.5198  0.7480  0.3953
  799MOL0     N 7781   7.222   3.827   8.322  0.0067 -0.3960  0.4759
  799MOL0     C 7782   6.108   3.628   8.622 -0.4043 -0.8522 -0.2262
  799MOL0     C 7783   6.014   3.569   8.705 -0.2997  0.2604 -0.4840
  799MOL0     C 7784   5.582   3.465   8.784  0.8871 -0.5455  0.6942
  799MOL0     C 7785   5.616   3.406   8.907 -0.3842 -0.6239 -0.3898
  799MOL0     C 7786   5.519   3.342   8.989 -0.1062 -0.1344 -0.6310
  799MOL0     C 7787   5.385   3.342   8.952  1.0365 -0.1438  0.2498
  799MOL0     O 7788   5.300   3.273   9.034  0.5025 -0.2460 -0.0004
  799MOL0     C 7789   5.182   3.210   8.980 -0.0204 -0.3045  0.8513
  799MOL0     C 7790   5.149   3.086   9.074 -0.2743 -0.8149  0.9388
  799MOL0     C 7791   5.036   3.008   9.001 -0.5712 -1.1152  0.2109
  799MOL0     C 7792   4.985   2.886   9.073 -0.0306 -0.5004  0.0671
  799MOL0     C 7793   4.928   2.919   9.208 -0.5491 -0.1676  0.2235
  799MOL0     C 7794   4.877   2.949   9.309 -0.6701 -0.2710 -0.8718
  799MOL0     C 7795   5.345   3.413   8.836 -1.2335  0.4007  0.1845
  799MOL0     C 7796   5.439   3.481   8.759 -0.1619 -0.1223  0.2857
  799MOL0     C 7797   5.393   3.544   8.632  0.5568 -1.1572  0.4392
  799MOL0     H 7798   5.869   3.382   8.451 -1.0485 -0.1878  2.0024
  799MOL0     H 7799   6.066   3.487   8.329  0.5887  2.5886  0.7203
  799MOL0     H 7800   6.279   3.541   8.282 -0.8008  0.5541  0.1842
  799MOL0     H 7801   6.160   3.655   8.230 -1.0634 -0.2892  1.6036
  799MOL0     H 7802   6.382   3.823   8.256 -0.4694 -0.7637  2.4401
  799MOL0     H 7803   6.381   3.707   8.123 -2.4535  0.4211  0.4783
  799MOL0     H 7804   6.494   3.546   8.254  0.8338 -0.1294 -0.8015
  799MOL0     H 7805   6.522   3.670   8.390  0.2935  2.8640  0.1728
  799MOL0     H 7806   6.635   3.665   8.111 -2.1485 -2.1605 -0.0974
  799MOL0     H 7807   6.665   3.797   8.231  2.1842 -1.1640  0.7986
  799MOL0     H 7808   6.736   3.576   8.375 -1.1461  2.3662  0.6334
  799MOL0     H 7809   6.760   3.502   8.217  1.0082  0.7907 -0.4404
  799MOL0     H 7810   6.907   3.684   8.143  0.5177  1.3564 -0.1186
  799MOL0     H 7811   6.911   3.750   8.311  1.1700  0.0528 -0.7616
  799MOL0     H 7812   6.980   3.461   8.243 -0.4688 -0.8399  1.8819
  799MOL0     H 7813   6.997   3.537   8.403 -0.4305  1.0345  1.1298
  799MOL0     H 7814   7.223   3.516   8.258 -0.5297 -0.7158  2.8270
  799MOL0     H 7815   7.142   3.646   8.162 -0.7782  0.6494  0.0107
  799MOL0     H 7816   7.198   3.592   8.550  2.3302 -0.7455 -0.4451
  799MOL0     H 7817   7.245   3.953   8.680  0.2430  0.3081  0.3024
  799MOL0     H 7818   7.172   3.809   8.741 -0.6273 -0.2969 -0.7802
  799MOL0     H 7819   7.390   3.811   8.847 -0.6587  1.1925 -0.1146
  799MOL0     H 7820   7.419   3.701   8.710 -0.4988 -1.0509 -0.0096
  799MOL0     H 7821   7.470   4.005   8.710  0.7819 -0.6764  2.2414
  799MOL0     H 7822   7.523   3.887   8.587 -1.0444  1.2341 -0.5944
  799MOL0     H 7823   7.714   3.921   8.714 -1.0117 -0.2469 -1.7857
  799MOL0     H 7824   7.654   3.773   8.774  2.0150  0.8846 -2.5482
  799MOL0     H 7825   7.846   3.777   8.892 -1.7309 -1.7968  1.3097
  799MOL0     H 7826   8.036   3.811   9.048  1.3527  1.8176 -1.5693
  799MOL0     H 7827   8.346   4.147   9.156 -0.3370  0.8217  0.2729
  799MOL0     H 7828   8.560   4.203   9.264 -0.6273  0.9047  0.0594
  799MOL0     H 7829   8.798   3.885   9.320 -0.7435  1.2319 -2.6906
  799MOL0     H 7830   8.835   4.061   9.266  1.5691  3.4050  2.2961
  799MOL0     H 7831   8.992   4.084   9.423  2.0679 -0.2020  2.1340
  799MOL0     H 7832   8.911   3.990   9.548  1.1420  2.3935  0.6398
  799MOL0     H 7833   8.988   3.786   9.406  2.8375 -0.2783 -1.3279
  799MOL0     H 7834   9.061   3.901   9.299  1.6601  0.5948  0.2372
  799MOL0     H 7835   9.115   3.876   9.601  1.1546  3.0029  0.7802
  799MOL0     H 7836   9.185   3.995   9.494 -0.6441  0.5351  2.5425
  799MOL0     H 7837   9.296   3.830   9.359 -2.0450  1.1203 -1.2303
  799MOL0     H 7838   9.209   3.697   9.450 -0.6320  1.5429 -0.2843
  799MOL0     H 7839   9.431   3.878   9.559 -1.7536  1.2341  0.6606
  799MOL0     H 7840   9.327   3.792   9.658  2.3315  2.3948  0.6175
  799MOL0     H 7841   9.492   3.661   9.427 -0.9835 -3.7808 -0.5013
  799MOL0     H 7842   9.397   3.566   9.545 -0.6491 -0.3466  0.7370
  799MOL0     H 7843   9.632   3.742   9.612 -1.8007  0.8784  0.1021
  799MOL0     H 7844   9.552   3.645   9.723  1.2149 -2.2919 -0.0951
  799MOL0     H 7845   8.577   3.819   9.440  0.6172 -0.2091 -1.2685
  799MOL0     H 7846   8.345   3.773   9.372  2.7301 -0.1483  3.0451
  799MOL0     H 7847   7.857   4.151   9.223 -2.8787 -0.8755  0.8605
  799MOL0     H 7848   7.659   4.128   9.078 -0.5240  0.0320  1.1093
  799MOL0     H 7849   6.180   3.693   8.671  0.3529 -2.9913  1.6985
  799MOL0     H 7850   5.992   3.588   8.809 -0.9111 -2.2912 -0.0757
  799MOL0     H 7851   5.720   3.412   8.937 -0.5928  0.6828  0.1495
  799MOL0     H 7852   5.536   3.291   9.084 -2.1594  1.7101  0.8275
  799MOL0     H 7853   5.211   3.176   8.880  0.5763  2.5328 -0.0381
  799MOL0     H 7854   5.104   3.287   8.979  1.4815  1.3260 -0.7371
  799MOL0     H 7855   5.124   3.119   9.175  0.1633  0.0358  0.7844
  799MOL0     H 7856   5.235   3.021   9.093  1.5044  1.0994 -0.0332
  799MOL0     H 7857   5.077   2.981   8.903  0.2490 -0.0585  0.2372
  799MOL0     H 7858   4.949   3.072   8.987 -1.4225 -0.8062  5.1596
  799MOL0     H 7859   4.908   2.828   9.020 -0.7288  1.9889 -1.8234
  799MOL0     H 7860   5.067   2.814   9.076 -0.6565 -1.2326 -0.2022
  799MOL0     H 7861   4.829   2.989   9.395 -0.1169  0.2968 -0.8169
  799MOL0     H 7862   5.239   3.420   8.816 -0.5852  4.3238 -3.1369
  799MOL0     H 7863   5.289   3.528   8.603  0.4949  1.5851 -1.2824
  799MOL0     H 7864   5.405   3.652   8.643 -1.3000 -0.9015  0.3400
  799MOL0     H 7865   5.458   3.509   8.551 -0.5541 -2.7411  0.1901
  800MOL0     O 7866  10.724   4.203   8.809 -0.2154 -0.5740  0.3736
  800MOL0     C 7867  10.638   4.118   8.837  0.1997 -0.7968 -0.6413
  800MOL0     O 7868  10.640   4.032   8.951 -0.4553 -0.0665  0.2072
  800MOL0     C 7869  10.741   4.042   9.038 -0.1930 -0.4178 -0.4146
  800MOL0     C 7870  10.874   4.040   8.989  0.2226 -0.2199  0.3063
  800MOL0     C 7871  10.980   4.045   9.072 -0.0395  0.0481  0.0589
  800MOL0     C 7872  10.956   4.050   9.217 -0.3412 -0.7341 -0.8529
  800MOL0     O 7873  11.061   4.064   9.308  0.5251 -0.5061  0.2326
  800MOL0     C 7874  11.199   4.065   9.261  1.1471  0.2534 -0.1591
  800MOL0     C 7875  11.303   4.077   9.367  0.5423  0.0511 -0.6833
  800MOL0     C 7876  11.440   4.089   9.297 -0.4545  0.4200 -0.8488
  800MOL0     C 7877  11.545   4.058   9.399 -0.6819  0.2206  0.0272
  800MOL0     C 7878  11.688   4.059   9.335  0.3166 -0.2297 -0.2943
  800MOL0     C 7879  11.790   4.035   9.442  0.5722 -0.1372  0.1035
  800MOL0     C 7880  11.927   4.016   9.393 -0.1620  0.0915  0.1928
  800MOL0     C 7881  11.944   3.874   9.335 -0.3671  0.5593 -0.2604
  800MOL0     N 7882  12.085   3.854   9.298  0.3374  0.8632  0.4792
  800MOL0     C 7883  12.121   3.736   9.230  0.1530  0.9490  0.3251
  800MOL0     C 7884  12.251   3.761   9.196 -0.1507 -0.6327  0.0208
  800MOL0     C 7885  12.330   3.659   9.127 -0.4718  0.0954  0.0041
  800MOL0     C 7886  12.486   3.672   9.138 -0.4781  0.8901 -0.0601
  800MOL0     C 7887  12.523   3.655   9.288 -0.4309  0.7066  0.5364
  800MOL0     C 7888  12.670   3.656   9.318  0.3233  0.3692 -0.1737
  800MOL0     O 7889  12.713   3.790   9.275 -0.4608 -0.3808 -0.1762
  800MOL0     C 7890  12.846   3.825   9.263 -0.9593  0.5232  0.1082
  800MOL0     C 7891  12.954   3.731   9.262 -0.3144  0.3809 -0.1346
  800MOL0     C 7892  13.091   3.787   9.260 -0.1002  0.9380  0.9136
  800MOL0     C 7893  13.115   3.926   9.256 -0.0427  0.2054  0.1847
  800MOL0     C 7894  13.244   3.984   9.228 -0.1341  0.1024  0.4270
  800MOL0     O 7895  13.350   3.886   9.227  0.5650 -0.0223  0.4570
  800MOL0     C 7896  13.476   3.927   9.198 -0.2310  0.1209 -1.3067
  800MOL0     C 7897  13.509   3.983   9.069 -0.2772  0.4438 -0.3681
  800MOL0     C 7898  13.641   4.026   9.036 -0.2927  0.0120  0.5504
  800MOL0     C 7899  13.752   3.994   9.114 -0.1100  0.2741  0.8090
  800MOL0     O 7900  13.880   4.031   9.079  0.7846  0.5426 -0.2261
  800MOL0     C 7901  13.990   3.944   9.118 -0.5563 -0.3425 -0.3532
  800MOL0     C 7902  14.103   3.969   9.018 -0.3986 -0.2767  0.1418
  800MOL0     C 7903  14.147   4.108   9.036  0.0119  0.2336  0.5618
  800MOL0     C 7904  14.277   4.144   8.963 -0.8616  0.2165  0.3094
  800MOL0     C 7905  14.254   4.169   8.817 -0.6864  0.0456  0.4078
  800MOL0     C 7906  14.380   4.217   8.740  1.2158 -0.7896 -1.0168
  800MOL0     C 7907  14.354   4.238   8.590 -1.1371  0.2338 -0.5547
  800MOL0     C 7908  14.486   4.240   8.512  0.0725 -0.5648  0.1434
  800MOL0    Cl 7909  14.587   4.094   8.517  0.6496 -0.1293  0.0350
  800MOL0     C 7910  13.723   3.921   9.227  0.1702 -0.5611  0.6109
  800MOL0     C 7911  13.590   3.892   9.268 -0.1021 -0.7463  0.2079
  800MOL0     O 7912  13.262   4.108   9.208  0.6992  0.3379  0.3711
  800MOL0     C 7913  13.003   4.011   9.266 -0.0210  0.5027 -0.5308
  800MOL0     C 7914  12.874   3.961   9.267  0.1613 -0.9454 -0.3153
  800MOL0     N 7915  12.291   3.883   9.239  0.6987 -0.0308  0.2233
  800MOL0     N 7916  12.193   3.942   9.300 -0.3529  0.2948 -0.0290
  800MOL0     C 7917  10.830   4.054   9.268  0.4335 -0.1213  0.3031
  800MOL0     C 7918  10.719   4.048   9.181 -0.9672  0.4891  0.9228
  800MOL0     C 7919  10.514   4.094   8.761  0.0266  0.1544  0.4354
  800MOL0     C 7920  10.392   4.065   8.830  0.1006 -0.5934  0.4105
  800MOL0     C 7921  10.265   4.061   8.755 -0.0414 -0.3805 -0.1549
  800MOL0     C 7922  10.269   4.085   8.621 -0.1306  0.7238 -0.4387
  800MOL0     O 7923  10.136   4.081   8.572 -0.0970 -0.2662 -0.2072
  800MOL0     C 7924  10.105   4.082   8.435  0.2056  0.1698 -0.1309
  800MOL0     C 7925  10.086   4.227   8.391 -0.2585 -0.2805 -0.1582
  800MOL0     C 7926  10.013   4.318   8.495 -0.1226  0.2051 -0.7930
  800MOL0     C 7927   9.954   4.437   8.431  0.1588 -0.2992  0.4483
  800MOL0     C 7928   9.873   4.503   8.528 -0.4713  0.0814 -0.9549
  800MOL0     C 7929   9.790   4.549   8.605  0.2435 -0.2399 -0.0994
  800MOL0     C 7930  10.391   4.119   8.554  0.1473  0.1723 -0.4034
  800MOL0     C 7931  10.513   4.122   8.620  0.2235  0.7594 -0.7312
  800MOL0     C 7932  10.631   4.166   8.539 -0.7424 -0.6417  0.2186
  800MOL0     H 7933  10.897   4.050   8.883  2.6341  0.7268  0.8398
  800MOL0     H 7934  11.079   4.030   9.030 -0.0101 -0.3721  0.2682
  800MOL0     H 7935  11.221   3.981   9.195 -0.0116  0.3232 -0.6618
  800MOL0     H 7936  11.204   4.152   9.194  2.2437 -1.7779 -2.8768
  800MOL0     H 7937  11.299   3.987   9.429  0.2365 -0.6052 -1.6275
  800MOL0     H 7938  11.296   4.172   9.419  4.3761  0.9088 -1.4291
  800MOL0     H 7939  11.444   4.190   9.255 -1.0675  0.9494  0.3097
  800MOL0     H 7940  11.455   4.009   9.223 -1.3622  0.0262 -0.6219
  800MOL0     H 7941  11.545   4.144   9.467  1.4415  0.3191 -0.0104
  800MOL0     H 7942  11.518   3.962   9.443  1.3144 -0.2335  0.3917
  800MOL0     H 7943  11.695   3.981   9.258 -0.9730 -1.1283  0.4613
  800MOL0     H 7944  11.711   4.155   9.289  0.0244 -0.4085 -0.8355
  800MOL0     H 7945  11.790   4.113   9.519  1.7897  1.7091 -1.6595
  800MOL0     H 7946  11.759   3.947   9.498  1.1490 -0.6517 -0.3784
  800MOL0     H 7947  11.993   4.021   9.481  0.1387  0.4728 -0.0519
  800MOL0     H 7948  11.945   4.096   9.321  0.3900  0.3098  0.5627
  800MOL0     H 7949  11.917   3.807   9.417 -0.8427  2.1532  0.9529
  800MOL0     H 7950  11.870   3.865   9.255 -2.5665 -1.9874  1.8397
  800MOL0     H 7951  12.070   3.641   9.219  1.4485  0.3651 -1.0820
  800MOL0     H 7952  12.310   3.558   9.164  0.4351  0.4932  1.6633
  800MOL0     H 7953  12.305   3.658   9.020  1.5971  1.4521 -0.5438
  800MOL0     H 7954  12.545   3.604   9.075  0.5509  3.0132 -1.5112
  800MOL0     H 7955  12.529   3.766   9.102  5.7196 -0.7324  1.8309
  800MOL0     H 7956  12.486   3.564   9.336  1.7308  0.4583  1.8565
  800MOL0     H 7957  12.478   3.729   9.355  0.5538  0.2875  1.6783
  800MOL0     H 7958  12.719   3.573   9.267 -1.1808 -2.3299  2.4480
  800MOL0     H 7959  12.687   3.648   9.425 -2.2558 -3.2798  0.1499
  800MOL0     H 7960  12.936   3.624   9.273 -3.3298  0.5747 -2.0659
  800MOL0     H 7961  13.179   3.723   9.255  2.9844  4.8701 -0.9661
  800MOL0     H 7962  13.429   3.990   8.996 -1.0112 -1.8929  0.1122
  800MOL0     H 7963  13.662   4.083   8.946  5.7019 -2.2992  0.0033
  800MOL0     H 7964  14.015   3.962   9.223 -0.4237 -3.9226  0.3572
  800MOL0     H 7965  13.947   3.845   9.100 -1.4217  0.0171 -0.3502
  800MOL0     H 7966  14.190   3.909   9.047 -0.2424 -0.2839 -0.3349
  800MOL0     H 7967  14.060   3.955   8.919 -2.9730 -1.3818  1.3012
  800MOL0     H 7968  14.067   4.177   9.010  0.3667  0.7459  0.8064
  800MOL0     H 7969  14.169   4.133   9.140  0.5770  2.0686  0.0455
  800MOL0     H 7970  14.355   4.067   8.969 -0.7165  0.2075 -1.2156
  800MOL0     H 7971  14.321   4.230   9.013  0.6378 -0.7485  0.7397
  800MOL0     H 7972  14.172   4.242   8.808 -0.3527  0.4470  0.5650
  800MOL0     H 7973  14.204   4.080   8.778  2.0453 -0.7872 -1.4903
  800MOL0     H 7974  14.399   4.318   8.779 -3.0156 -0.6693  1.3895
  800MOL0     H 7975  14.462   4.148   8.763  1.5300  0.0946  0.7426
  800MOL0     H 7976  14.294   4.328   8.579 -0.8882  0.9649  2.8502
  800MOL0     H 7977  14.288   4.164   8.544 -2.5721  1.8563 -1.2243
  800MOL0     H 7978  14.464   4.251   8.406  2.2745 -1.0963 -0.4218
  800MOL0     H 7979  14.544   4.321   8.557  1.0377 -1.6581  0.9264
  800MOL0     H 7980  13.798   3.868   9.285  1.1889 -0.0668 -0.2173
  800MOL0     H 7981  13.582   3.830   9.358  1.1132 -1.8913 -0.4349
  800MOL0     H 7982  13.006   4.119   9.254  0.7580  0.7779  1.6392
  800MOL0     H 7983  12.789   4.026   9.284 -0.1294 -1.6314  0.9783
  800MOL0     H 7984  10.813   4.072   9.374 -0.3890  0.4799  0.0717
  800MOL0     H 7985  10.618   4.053   9.221 -1.4876 -1.1573 -0.0755
  800MOL0     H 7986  10.386   4.034   8.933 -0.4214 -0.4139  0.4418
  800MOL0     H 7987  10.173   4.038   8.808  0.4775 -0.2768  0.8005
  800MOL0     H 7988  10.019   4.018   8.415  0.0659 -0.7765  2.9898
  800MOL0     H 7989  10.185   4.039   8.374  0.5615  0.4540  0.1298
  800MOL0     H 7990  10.011   4.218   8.312  0.1091 -1.0177 -0.4266
  800MOL0     H 7991  10.180   4.270   8.356 -0.1483  0.2662  0.7818
  800MOL0     H 7992  10.097   4.344   8.561 -1.1611 -0.3204  0.7962
  800MOL0     H 7993   9.942   4.267   8.561 -0.4747  2.0891  0.3627
  800MOL0     H 7994  10.028   4.508   8.394 -0.6465  0.8614  0.9602
  800MOL0     H 7995   9.886   4.413   8.349 -0.9435  1.3429  0.8169
  800MOL0     H 7996   9.712   4.581   8.671 -0.9597 -0.9018 -1.1465
  800MOL0     H 7997  10.397   4.144   8.448 -0.4901 -1.7105 -0.9351
  800MOL0     H 7998  10.711   4.091   8.534  0.9027  1.1529 -1.4983
  800MOL0     H 7999  10.611   4.180   8.433  1.1466 -2.7958 -0.4966
  800MOL0     H 8000  10.667   4.260   8.581 -2.1601 -0.0205  0.1040
  801MOL0     O 8001   3.031   8.111   3.894  0.0096  0.7331 -0.2921
  801MOL0     C 8002   3.006   8.147   4.007 -0.0362 -0.0236 -0.2103
  801MOL0     O 8003   3.079   8.119   4.115 -0.4639  0.6761 -0.1968
  801MOL0     C 8004   3.208   8.075   4.083 -0.2112 -0.1416 -0.3103
  801MOL0     C 8005   3.313   8.154   4.044  0.3762  0.4135  0.8716
  801MOL0     C 8006   3.431   8.095   4.015  0.3818  0.1033 -0.3300
  801MOL0     C 8007   3.467   7.959   4.041  0.1295 -1.2346  0.7497
  801MOL0     O 8008   3.589   7.932   4.003 -0.5493  0.2074 -0.0552
  801MOL0     C 8009   3.602   7.817   3.911 -0.2221  0.0684 -1.2007
  801MOL0     C 8010   3.741   7.837   3.833  0.0505 -0.3424  0.1647
  801MOL0     C 8011   3.738   7.933   3.714  0.7726  0.3044  0.6018
  801MOL0     C 8012   3.838   7.909   3.600  1.2453  0.5400 -0.2672
  801MOL0     C 8013   3.836   8.028   3.500 -0.6279 -0.4483  0.2968
  801MOL0     C 8014   3.937   8.006   3.392  1.1534  0.2583  0.3221
  801MOL0     C 8015   3.923   8.114   3.281  0.7948 -0.3798 -0.5632
  801MOL0     C 8016   4.015   8.101   3.168 -0.2123  0.7455  0.0554
  801MOL0     N 8017   4.151   8.159   3.199 -0.6707 -0.5503 -0.0879
  801MOL0     C 8018   4.211   8.264   3.125  0.0474  0.4944 -0.1263
  801MOL0     C 8019   4.323   8.292   3.196 -0.0515 -0.7148  0.0808
  801MOL0     C 8020   4.426   8.394   3.165  0.0886 -0.7186 -0.2967
  801MOL0     C 8021   4.506   8.344   3.040  0.4945  0.9698 -0.9778
  801MOL0     C 8022   4.615   8.246   3.067 -0.1121 -0.2236 -0.3046
  801MOL0     C 8023   4.579   8.100   3.118  0.7823 -0.9146  0.9067
  801MOL0     O 8024   4.640   7.993   3.035  0.0157  0.2388  0.2113
  801MOL0     C 8025   4.775   7.965   3.057 -0.2287 -0.4698  0.8832
  801MOL0     C 8026   4.867   8.051   3.119 -0.6504  0.3241 -0.1670
  801MOL0     C 8027   5.002   8.022   3.115 -0.2016 -0.2356  0.4090
  801MOL0     C 8028   5.055   7.913   3.048 -0.6943 -0.5256 -0.0338
  801MOL0     C 8029   5.202   7.907   3.013 -0.3020  0.9002  0.1126
  801MOL0     O 8030   5.275   8.002   3.070 -0.4272 -0.0196 -0.4156
  801MOL0     C 8031   5.414   8.003   3.042  0.0072 -0.2986 -0.1606
  801MOL0     C 8032   5.452   8.022   2.915  0.8133 -0.3096 -0.1282
  801MOL0     C 8033   5.584   8.064   2.893 -0.2511 -0.7714  0.1364
  801MOL0     C 8034   5.677   8.080   2.995 -0.1771  0.0567  0.4669
  801MOL0     O 8035   5.807   8.128   2.977  0.0642  0.6667  0.6210
  801MOL0     C 8036   5.892   8.091   2.872 -0.1305  0.2051 -0.1441
  801MOL0     C 8037   6.028   8.094   2.939 -0.1668  0.0785 -0.4093
  801MOL0     C 8038   6.145   8.049   2.850  0.5376  0.2075 -0.1120
  801MOL0     C 8039   6.289   8.070   2.923 -0.0813 -0.1048  0.5630
  801MOL0     C 8040   6.418   8.069   2.832  0.4132 -0.1989  0.3140
  801MOL0     C 8041   6.537   8.108   2.908  0.3586 -0.2187  0.3649
  801MOL0     C 8042   6.674   8.073   2.838  0.0198  0.7139  0.1226
  801MOL0     C 8043   6.809   8.078   2.918  0.1097  0.4376  0.2233
  801MOL0    Cl 8044   6.788   8.179   3.056  0.6413 -0.5915  0.1575
  801MOL0     C 8045   5.635   8.055   3.120 -0.3845  0.0449 -0.1282
  801MOL0     C 8046   5.500   8.013   3.147  0.5387 -0.0372  0.4965
  801MOL0     O 8047   5.243   7.814   2.938  0.5914 -0.5171  0.0493
  801MOL0     C 8048   4.962   7.828   2.991  0.1037  0.0200  0.0697
  801MOL0     C 8049   4.820   7.842   3.007 -0.1044 -0.4733  0.1416
  801MOL0     N 8050   4.329   8.206   3.304  0.0970 -0.7218 -1.3574
  801MOL0     N 8051   4.225   8.131   3.308  0.2740  0.7764  0.4834
  801MOL0     C 8052   3.366   7.880   4.086  0.3327  0.5020 -0.2198
  801MOL0     C 8053   3.240   7.937   4.101  0.3268  0.5522 -0.5785
  801MOL0     C 8054   2.869   8.208   4.026  0.2315  0.6190  0.3911
  801MOL0     C 8055   2.755   8.138   3.989 -0.2487  0.5450 -0.1904
  801MOL0     C 8056   2.629   8.190   4.017  0.7485 -0.1534  0.2039
  801MOL0     C 8057   2.622   8.309   4.090 -0.5050 -0.2486 -0.5909
  801MOL0     O 8058   2.493   8.355   4.104 -0.6987 -0.6210 -0.0636
  801MOL0     C 8059   2.461   8.478   4.172 -0.1514 -0.1282 -0.0917
  801MOL0     C 8060   2.448   8.586   4.060 -0.3259  0.4357  0.4166
  801MOL0     C 8061   2.434   8.738   4.104 -0.3674  0.1684 -0.3428
  801MOL0     C 8062   2.560   8.821   4.043 -0.1478  0.4983  0.0012
  801MOL0     C 8063   2.688   8.785   4.108 -0.7729 -0.1109  0.2164
  801MOL0     C 8064   2.794   8.748   4.158  0.2795  0.0445 -0.1156
  801MOL0     C 8065   2.737   8.378   4.135 -0.2537 -0.1140 -0.6346
  801MOL0     C 8066   2.858   8.326   4.102 -0.5730 -0.1720 -0.8554
  801MOL0     C 8067   2.980   8.404   4.147  0.5884 -0.0076 -0.2373
  801MOL0     H 8068   3.308   8.258   4.013  0.9942  0.1995  0.0406
  801MOL0     H 8069   3.509   8.155   3.969  0.0077  0.0642 -1.0447
  801MOL0     H 8070   3.620   7.730   3.976  1.7055  1.3154  0.0631
  801MOL0     H 8071   3.518   7.798   3.844  0.5937  2.0890 -2.8822
  801MOL0     H 8072   3.779   7.742   3.796 -1.2407 -1.1814  0.9184
  801MOL0     H 8073   3.818   7.880   3.897  1.0646 -0.4266 -0.9598
  801MOL0     H 8074   3.745   8.033   3.758 -0.8566  0.6414  0.1689
  801MOL0     H 8075   3.647   7.932   3.654  0.9808  2.7065  0.1280
  801MOL0     H 8076   3.935   7.898   3.649  0.8288  0.3216  0.5275
  801MOL0     H 8077   3.834   7.811   3.552  1.1586 -0.4034  1.5955
  801MOL0     H 8078   3.735   8.033   3.460 -1.3399 -3.1768  1.5259
  801MOL0     H 8079   3.865   8.118   3.555  0.0629 -0.2648 -0.3453
  801MOL0     H 8080   4.036   8.013   3.438  1.2427 -1.4418  0.4621
  801MOL0     H 8081   3.922   7.906   3.349  2.8550 -0.1114  0.5169
  801MOL0     H 8082   3.926   8.215   3.324  0.9019 -1.3060  1.7449
  801MOL0     H 8083   3.829   8.112   3.224  1.2120  1.6839 -1.4356
  801MOL0     H 8084   4.020   7.998   3.133  0.5204  1.7144 -2.9120
  801MOL0     H 8085   3.976   8.155   3.081 -0.5460 -1.1856 -1.0384
  801MOL0     H 8086   4.161   8.304   3.037 -0.4863 -2.6223 -1.3534
  801MOL0     H 8087   4.379   8.491   3.145  2.3693 -0.0040 -2.9426
  801MOL0     H 8088   4.494   8.410   3.250 -1.9283 -1.7691  1.6048
  801MOL0     H 8089   4.432   8.303   2.971  1.4768 -0.1398 -1.3947
  801MOL0     H 8090   4.557   8.427   2.990  0.7556  0.2814 -1.8656
  801MOL0     H 8091   4.681   8.292   3.142 -1.2205  2.2072 -0.7325
  801MOL0     H 8092   4.680   8.254   2.980  2.4554  0.3270  1.5457
  801MOL0     H 8093   4.472   8.079   3.122  0.3527  1.2396  2.1449
  801MOL0     H 8094   4.622   8.097   3.219 -0.5770  1.2203  1.6161
  801MOL0     H 8095   4.834   8.147   3.158  1.9813  0.6821  1.4268
  801MOL0     H 8096   5.067   8.091   3.168  0.5000 -1.0166  0.5818
  801MOL0     H 8097   5.385   8.009   2.831  0.5834  1.8446 -0.3334
  801MOL0     H 8098   5.602   8.089   2.789  0.3338  0.1323  0.4472
  801MOL0     H 8099   5.885   7.989   2.834 -0.1109  0.2806 -0.3573
  801MOL0     H 8100   5.895   8.151   2.780  2.5237 -1.1416 -1.0419
  801MOL0     H 8101   6.041   8.195   2.979  0.4482 -0.4804  0.8664
  801MOL0     H 8102   6.031   8.020   3.020  2.7414 -2.4525 -2.5903
  801MOL0     H 8103   6.130   7.944   2.823  1.0291  0.5592 -1.9394
  801MOL0     H 8104   6.139   8.106   2.757  1.4432 -0.2588 -0.4651
  801MOL0     H 8105   6.294   7.981   2.986  1.7803  0.0175  0.6333
  801MOL0     H 8106   6.290   8.159   2.987  3.1272 -0.7451  1.5614
  801MOL0     H 8107   6.408   8.131   2.743 -1.2141 -1.9964 -0.8588
  801MOL0     H 8108   6.425   7.964   2.802 -0.2452  0.2125 -1.3622
  801MOL0     H 8109   6.534   8.215   2.929  2.1225  0.2260 -1.3293
  801MOL0     H 8110   6.543   8.064   3.008  0.8943 -1.6469 -0.2678
  801MOL0     H 8111   6.684   8.138   2.750 -0.2171 -0.8592 -1.1125
  801MOL0     H 8112   6.662   7.969   2.806  1.8635  0.6326 -0.3949
  801MOL0     H 8113   6.844   7.980   2.951 -1.0653 -0.1883 -0.3053
  801MOL0     H 8114   6.877   8.123   2.846 -0.6435  2.1982  0.5607
  801MOL0     H 8115   5.709   8.061   3.199  1.7320 -3.0255 -1.6838
  801MOL0     H 8116   5.453   7.991   3.242 -3.7661  0.0755 -1.3990
  801MOL0     H 8117   5.006   7.748   2.932  0.4988  1.2767 -1.4150
  801MOL0     H 8118   4.752   7.767   2.968  0.3839 -0.2905 -1.1079
  801MOL0     H 8119   3.385   7.775   4.105  0.7045  0.3488 -1.3535
  801MOL0     H 8120   3.158   7.870   4.126  3.8174 -3.1402  2.5674
  801MOL0     H 8121   2.760   8.044   3.935 -1.4209  0.8126 -0.8167
  801MOL0     H 8122   2.538   8.144   3.981  0.3062  1.0221 -0.2354
  801MOL0     H 8123   2.529   8.503   4.254  0.1361 -1.6494  0.1553
  801MOL0     H 8124   2.365   8.468   4.223  0.9161 -0.8771  1.8612
  801MOL0     H 8125   2.375   8.550   3.987  0.1654  2.3855 -1.1135
  801MOL0     H 8126   2.540   8.576   4.002 -1.6406 -1.3849 -1.5271
  801MOL0     H 8127   2.427   8.745   4.213 -2.3825  0.8635 -0.4695
  801MOL0     H 8128   2.338   8.775   4.068  0.1050  0.3978 -1.4010
  801MOL0     H 8129   2.561   8.805   3.935 -0.8909 -0.5111  0.1234
  801MOL0     H 8130   2.546   8.929   4.054 -0.4042  0.4574  0.0836
  801MOL0     H 8131   2.886   8.709   4.197 -0.4393 -0.8705  0.7382
  801MOL0     H 8132   2.723   8.472   4.188  0.7481 -0.8420  0.9921
  801MOL0     H 8133   2.944   8.496   4.192 -0.7853 -0.3938 -0.5046
  801MOL0     H 8134   3.027   8.341   4.224 -1.0374 -0.3884  0.4864
  801MOL0     H 8135   3.050   8.426   4.066 -1.4613  0.7886 -1.8761
  802MOL0     O 8136   7.480   8.864  10.495  1.2705  0.0209 -0.3387
  802MOL0     C 8137   7.409   8.949  10.550  0.2517 -0.0246  0.3586
  802MOL0     O 8138   7.427   8.998  10.678 -0.1750 -0.7644 -0.4278
  802MOL0     C 8139   7.518   8.953  10.764  0.3732 -0.0849 -0.9242
  802MOL0     C 8140   7.561   8.815  10.769 -0.0630  0.0249  0.5983
  802MOL0     C 8141   7.660   8.775  10.868  0.5652  0.3244 -0.2578
  802MOL0     C 8142   7.719   8.879  10.943 -0.8662  0.0992 -0.0977
  802MOL0     O 8143   7.828   8.850  11.024  0.1957  0.3553 -0.4510
  802MOL0     C 8144   7.942   8.843  10.943  0.2704 -0.1038  0.0985
  802MOL0     C 8145   8.063   8.878  11.030 -0.1987  0.4681 -0.0575
  802MOL0     C 8146   8.188   8.881  10.944 -0.1410 -0.5104 -0.0038
  802MOL0     C 8147   8.316   8.823  11.007  0.6390  0.0497  0.0026
  802MOL0     C 8148   8.443   8.854  10.930  0.6306 -0.4259  1.0952
  802MOL0     C 8149   8.555   8.785  11.003  0.0950  0.4951 -0.6055
  802MOL0     C 8150   8.703   8.816  10.945  0.5385 -0.4117  1.1051
  802MOL0     C 8151   8.808   8.746  11.031 -1.2049  0.0066  0.3571
  802MOL0     N 8152   8.935   8.792  10.988  0.3825 -0.6794 -0.3003
  802MOL0     C 8153   8.997   8.760  10.867  0.3336  0.0311  0.2587
  802MOL0     C 8154   9.093   8.845  10.846 -0.2777 -0.0321  0.2933
  802MOL0     C 8155   9.187   8.846  10.735  0.7067 -0.1663  0.0956
  802MOL0     C 8156   9.264   8.719  10.737 -0.6147  1.0526  0.1805
  802MOL0     C 8157   9.369   8.713  10.624 -0.4059 -0.1844 -0.0748
  802MOL0     C 8158   9.446   8.588  10.622  0.6430 -0.1759 -0.6065
  802MOL0     O 8159   9.581   8.617  10.588  0.4858 -0.0801  0.0011
  802MOL0     C 8160   9.663   8.519  10.551  0.3200 -0.3483 -0.8734
  802MOL0     C 8161   9.765   8.540  10.463 -0.7048 -0.4818  0.5745
  802MOL0     C 8162   9.868   8.450  10.429 -0.3145  0.2182 -0.3287
  802MOL0     C 8163   9.856   8.315  10.474 -0.2635  1.0817  0.3567
  802MOL0     C 8164   9.942   8.210  10.406 -0.5897  0.2455  0.2005
  802MOL0     O 8165  10.025   8.257  10.302  0.3046  0.7421  0.5660
  802MOL0     C 8166  10.072   8.156  10.217  0.4563 -0.6582  0.2816
  802MOL0     C 8167  10.207   8.127  10.221  0.0581  0.0075 -0.0731
  802MOL0     C 8168  10.267   8.035  10.136  0.0037 -0.1094 -0.5397
  802MOL0     C 8169  10.180   7.955  10.056  0.3617 -0.4260 -0.5431
  802MOL0     O 8170  10.211   7.854   9.975  0.1065 -0.1439  0.3321
  802MOL0     C 8171  10.331   7.777   9.987 -0.0367 -0.6393 -1.1553
  802MOL0     C 8172  10.458   7.845   9.915  0.3036  0.5744 -0.2600
  802MOL0     C 8173  10.580   7.754   9.949 -0.9589 -0.3836  1.0859
  802MOL0     C 8174  10.710   7.809   9.877  0.1579 -0.3959 -0.0415
  802MOL0     C 8175  10.837   7.729   9.914 -0.0105 -0.5183 -0.1492
  802MOL0     C 8176  10.963   7.766   9.833  0.2248 -0.4537  0.4657
  802MOL0     C 8177  11.006   7.912   9.852  0.4728  0.0215 -0.1841
  802MOL0     C 8178  11.150   7.944   9.813  0.9808  0.0851  0.4213
  802MOL0    Cl 8179  11.255   7.869   9.941  0.5352 -0.1333 -0.1384
  802MOL0     C 8180  10.040   7.977  10.059  0.0219  0.0638  0.2314
  802MOL0     C 8181   9.985   8.083  10.130 -0.4597  0.8889 -0.4922
  802MOL0     O 8182   9.932   8.093  10.445 -0.4456 -0.2122 -0.0231
  802MOL0     C 8183   9.750   8.284  10.558  1.2263  0.0840  0.0509
  802MOL0     C 8184   9.654   8.386  10.603 -0.5925  0.0291  0.3353
  802MOL0     N 8185   9.095   8.927  10.953 -0.4197  0.2360  0.0193
  802MOL0     N 8186   8.998   8.911  11.030  0.6646 -0.1775 -0.5741
  802MOL0     C 8187   7.678   9.012  10.939 -0.7195 -0.2340  0.5297
  802MOL0     C 8188   7.578   9.050  10.847 -0.8278  0.1749 -0.0262
  802MOL0     C 8189   7.319   9.017  10.456  0.3730 -0.0937 -0.4493
  802MOL0     C 8190   7.266   9.139  10.497 -0.4370  0.8475 -0.0717
  802MOL0     C 8191   7.182   9.211  10.414 -0.2204  0.3987  0.3610
  802MOL0     C 8192   7.152   9.174  10.277  0.5518 -1.0425 -0.1258
  802MOL0     O 8193   7.059   9.249  10.201 -0.5549  0.1718  0.3473
  802MOL0     C 8194   7.088   9.388  10.184 -0.3051 -0.4646 -0.8450
  802MOL0     C 8195   6.976   9.480  10.238 -0.3470 -0.4421 -0.0175
  802MOL0     C 8196   6.837   9.446  10.186  0.2355 -0.3759  0.3735
  802MOL0     C 8197   6.803   9.445  10.035 -0.7478 -0.0407 -0.4013
  802MOL0     C 8198   6.667   9.409   9.998  0.0810 -0.3229  0.5649
  802MOL0     C 8199   6.554   9.387   9.953 -0.6662 -0.0591  0.2813
  802MOL0     C 8200   7.184   9.043  10.245 -0.4197  0.0855 -0.7043
  802MOL0     C 8201   7.270   8.969  10.330  0.9225 -0.0420  0.7643
  802MOL0     C 8202   7.308   8.836  10.268  0.3290  0.1716  0.4778
  802MOL0     H 8203   7.505   8.749  10.704 -1.4710  0.4966  1.2903
  802MOL0     H 8204   7.707   8.678  10.878 -1.0663 -0.2815  2.5799
  802MOL0     H 8205   7.949   8.742  10.901 -1.1177 -0.4274  0.6104
  802MOL0     H 8206   7.935   8.923  10.869 -0.1612 -0.4042 -0.1935
  802MOL0     H 8207   8.073   8.811  11.116 -0.0536  1.4380  0.6967
  802MOL0     H 8208   8.044   8.977  11.071  1.4292  1.2242 -1.0004
  802MOL0     H 8209   8.198   8.988  10.921  1.0718 -1.0800 -2.3850
  802MOL0     H 8210   8.159   8.835  10.849 -3.2874  3.9161 -1.5424
  802MOL0     H 8211   8.327   8.874  11.104 -3.1936  1.7296 -0.2624
  802MOL0     H 8212   8.312   8.714  11.013 -1.7548  0.1201  1.4624
  802MOL0     H 8213   8.444   8.820  10.826  1.2087 -0.0382  0.9675
  802MOL0     H 8214   8.461   8.962  10.924  0.2307 -0.3967  0.2988
  802MOL0     H 8215   8.541   8.817  11.106 -4.2047  0.7764 -1.1144
  802MOL0     H 8216   8.541   8.677  10.990  3.4353 -0.2909  1.1298
  802MOL0     H 8217   8.717   8.924  10.941  1.3183 -0.5286  0.3174
  802MOL0     H 8218   8.710   8.783  10.841 -1.0395  2.4673 -0.0155
  802MOL0     H 8219   8.794   8.771  11.137  1.9418  1.4952  0.5514
  802MOL0     H 8220   8.805   8.637  11.022 -1.0457  0.1315 -1.6847
  802MOL0     H 8221   8.952   8.688  10.801 -0.4869  0.5010  0.2934
  802MOL0     H 8222   9.139   8.859  10.638  0.2543 -2.9670 -0.1260
  802MOL0     H 8223   9.257   8.930  10.734 -0.9185  1.2972 -2.8961
  802MOL0     H 8224   9.301   8.702  10.839  0.2434 -0.1721 -0.3202
  802MOL0     H 8225   9.189   8.642  10.717  0.0283  0.6467 -0.7118
  802MOL0     H 8226   9.445   8.790  10.642  1.6568 -2.1608  0.0665
  802MOL0     H 8227   9.337   8.739  10.522 -0.3269 -1.5286 -0.4684
  802MOL0     H 8228   9.405   8.521  10.545  0.8847  0.0100 -0.8960
  802MOL0     H 8229   9.445   8.538  10.720  0.0295  0.2272 -0.3980
  802MOL0     H 8230   9.763   8.639  10.420 -3.2772  0.1036  1.8464
  802MOL0     H 8231   9.957   8.478  10.373  0.4390  0.3672  0.8981
  802MOL0     H 8232  10.263   8.188  10.291 -1.7653  1.3289  0.3162
  802MOL0     H 8233  10.373   8.014  10.137 -0.1592 -1.4307 -3.1909
  802MOL0     H 8234  10.351   7.781  10.095 -4.6730  2.2749 -0.1309
  802MOL0     H 8235  10.325   7.672   9.957 -1.1313 -1.4621  1.6345
  802MOL0     H 8236  10.437   7.839   9.808 -0.9052  2.6050 -0.1773
  802MOL0     H 8237  10.478   7.947   9.951  1.3721  0.1480  0.4085
  802MOL0     H 8238  10.615   7.751  10.052  2.0064  0.4198  0.2035
  802MOL0     H 8239  10.552   7.658   9.904 -3.8631 -1.3010  4.4004
  802MOL0     H 8240  10.727   7.912   9.911 -1.3892 -0.1828  0.1791
  802MOL0     H 8241  10.693   7.821   9.770 -0.7364  0.9894  0.2242
  802MOL0     H 8242  10.811   7.623   9.905 -1.3975 -0.1143 -1.1881
  802MOL0     H 8243  10.864   7.742  10.019 -0.5623 -0.8214  0.0367
  802MOL0     H 8244  11.049   7.704   9.857  1.1428  0.5362 -0.1267
  802MOL0     H 8245  10.946   7.742   9.727  2.7204  2.0106 -0.6417
  802MOL0     H 8246  11.001   7.940   9.958 -1.6377 -0.0907 -0.2121
  802MOL0     H 8247  10.933   7.971   9.796 -0.3637 -1.5053 -0.7357
  802MOL0     H 8248  11.164   7.905   9.712 -0.6896  2.1911 -0.7031
  802MOL0     H 8249  11.165   8.052   9.823  1.9622 -0.1755  2.1599
  802MOL0     H 8250   9.978   7.910  10.002 -2.2849  2.2407 -0.0031
  802MOL0     H 8251   9.878   8.103  10.123 -0.7250 -0.3767 -0.2107
  802MOL0     H 8252   9.732   8.179  10.576 -0.0311  0.0558 -1.2065
  802MOL0     H 8253   9.567   8.345  10.653 -0.6519 -3.2320 -2.0607
  802MOL0     H 8254   7.727   9.078  11.010 -3.7733 -0.5993  3.2117
  802MOL0     H 8255   7.548   9.154  10.839  1.4122  0.9938  1.3850
  802MOL0     H 8256   7.302   9.184  10.589  5.6929  0.8615 -2.0317
  802MOL0     H 8257   7.156   9.310  10.450  0.6110  0.7058  0.1456
  802MOL0     H 8258   7.113   9.394  10.078  4.1846 -3.0389 -0.2103
  802MOL0     H 8259   7.177   9.421  10.238 -0.3336 -0.1584 -0.9875
  802MOL0     H 8260   7.003   9.582  10.208  1.1013 -0.3383  1.4457
  802MOL0     H 8261   6.982   9.477  10.347 -0.0456 -2.5060 -0.0513
  802MOL0     H 8262   6.778   9.530  10.224 -0.6157 -2.1562  3.2834
  802MOL0     H 8263   6.802   9.351  10.228  1.4059 -1.0684 -0.1561
  802MOL0     H 8264   6.831   9.542   9.993 -1.2281 -0.1272 -0.9354
  802MOL0     H 8265   6.869   9.368   9.995  1.6498 -0.0312  3.0728
  802MOL0     H 8266   6.460   9.360   9.908  0.0822 -0.6507 -0.9837
  802MOL0     H 8267   7.153   9.008  10.147  1.7805 -2.4379 -0.6040
  802MOL0     H 8268   7.415   8.830  10.248  1.0350 -0.6967  3.8406
  802MOL0     H 8269   7.287   8.748  10.331  0.9201 -2.0612 -2.2190
  802MOL0     H 8270   7.253   8.816  10.176 -0.9213  4.0649  0.2280
  803MOL0     O 8271  10.322   5.728   1.303  0.0925 -0.0027 -0.6155
  803MOL0     C 8272  10.203   5.743   1.287  0.4738  0.4652 -0.5777
  803MOL0     O 8273  10.106   5.663   1.341  0.6211 -0.5578  0.4322
  803MOL0     C 8274  10.127   5.533   1.375  0.9686  0.9006  0.5001
  803MOL0     C 8275  10.113   5.421   1.291 -0.8514 -0.2762 -1.1349
  803MOL0     C 8276  10.139   5.293   1.331  0.5378  0.3246 -0.0448
  803MOL0     C 8277  10.173   5.271   1.467 -0.3254  0.4295 -0.7845
  803MOL0     O 8278  10.208   5.150   1.512 -0.6139  0.1649  0.1847
  803MOL0     C 8279  10.344   5.110   1.468  0.2874  0.7905 -0.1632
  803MOL0     C 8280  10.453   5.181   1.559  0.6739  1.0674  0.5450
  803MOL0     C 8281  10.593   5.138   1.524 -0.1519  0.1218 -0.0087
  803MOL0     C 8282  10.700   5.189   1.622 -0.6666  0.0923  0.3214
  803MOL0     C 8283  10.835   5.179   1.556  0.0232  0.0872  0.6727
  803MOL0     C 8284  10.947   5.221   1.656  0.1753 -0.0684  0.6534
  803MOL0     C 8285  10.966   5.369   1.652  0.2440 -0.5697  0.3520
  803MOL0     C 8286  11.019   5.429   1.780 -0.0165 -0.7271 -0.0598
  803MOL0     N 8287  11.147   5.377   1.831 -0.6352  0.0579 -0.2007
  803MOL0     C 8288  11.158   5.285   1.931  0.4990  0.1677  0.7666
  803MOL0     C 8289  11.293   5.264   1.946  0.9510 -0.5381 -0.4931
  803MOL0     C 8290  11.355   5.145   2.016 -0.2738 -0.2548  0.2375
  803MOL0     C 8291  11.491   5.100   1.949 -0.3636  0.4741 -0.4513
  803MOL0     C 8292  11.612   5.194   1.970  0.5445 -0.5121  1.1567
  803MOL0     C 8293  11.749   5.132   2.007 -0.5522  0.1712  1.1719
  803MOL0     O 8294  11.746   5.023   2.103 -0.5303  0.1619  0.0433
  803MOL0     C 8295  11.866   4.977   2.131  0.2258  0.8069  0.7626
  803MOL0     C 8296  11.963   5.052   2.201 -0.6210 -1.1644  0.3863
  803MOL0     C 8297  12.093   5.001   2.221  0.2661 -0.1230  0.3756
  803MOL0     C 8298  12.127   4.880   2.176 -1.2558  0.6470 -0.2415
  803MOL0     C 8299  12.271   4.830   2.198 -1.0398  0.5552  0.9579
  803MOL0     O 8300  12.300   4.705   2.154  0.3859 -0.0500  0.6568
  803MOL0     C 8301  12.437   4.664   2.134  1.4181 -0.3192  0.0138
  803MOL0     C 8302  12.549   4.738   2.151 -0.1961  0.8503  0.9797
  803MOL0     C 8303  12.679   4.688   2.121 -0.6401  1.1009 -0.0423
  803MOL0     C 8304  12.690   4.556   2.069  0.2322 -0.3553  0.7959
  803MOL0     O 8305  12.807   4.492   2.042  0.4533 -0.1039 -0.0658
  803MOL0     C 8306  12.927   4.563   2.034 -0.7568 -1.0820  0.4559
  803MOL0     C 8307  13.020   4.479   1.957  0.7448  0.5380  0.5501
  803MOL0     C 8308  13.167   4.489   2.013 -0.4652  0.7121  0.9463
  803MOL0     C 8309  13.258   4.429   1.903 -0.3647  0.4781 -0.6380
  803MOL0     C 8310  13.384   4.359   1.961  0.6377  0.6230 -0.0852
  803MOL0     C 8311  13.463   4.300   1.839  0.8020 -0.2054  0.9668
  803MOL0     C 8312  13.579   4.220   1.879  0.7530  0.5121 -0.4358
  803MOL0     C 8313  13.688   4.211   1.773 -0.3252 -0.2396 -0.0134
  803MOL0    Cl 8314  13.835   4.132   1.824 -0.2108  0.8603 -0.1689
  803MOL0     C 8315  12.569   4.486   2.040 -0.2145 -0.1065 -0.2086
  803MOL0     C 8316  12.450   4.535   2.086 -0.2280  0.2848 -0.8246
  803MOL0     O 8317  12.351   4.908   2.248  0.7339  0.2555 -0.4646
  803MOL0     C 8318  12.033   4.798   2.115  0.2193 -0.2370  0.0682
  803MOL0     C 8319  11.904   4.848   2.102  0.5657 -0.1816  0.0498
  803MOL0     N 8320  11.360   5.362   1.868 -0.2073  0.2853  0.3568
  803MOL0     N 8321  11.269   5.423   1.802 -0.0633  0.1389  0.6749
  803MOL0     C 8322  10.190   5.379   1.553  0.5296  0.1791  0.2915
  803MOL0     C 8323  10.165   5.511   1.509 -0.0053 -1.4102 -0.9551
  803MOL0     C 8324  10.158   5.856   1.197  0.3185  0.4495  0.0546
  803MOL0     C 8325  10.021   5.872   1.184 -0.7287 -0.0151 -0.7634
  803MOL0     C 8326   9.974   5.983   1.113  0.0546 -0.0954 -0.6604
  803MOL0     C 8327  10.055   6.073   1.056  0.2149 -0.0093 -0.9242
  803MOL0     O 8328   9.989   6.173   0.987 -0.0046 -0.0880  0.0735
  803MOL0     C 8329  10.053   6.257   0.896  0.0987 -0.0061 -0.2168
  803MOL0     C 8330  10.013   6.408   0.912 -0.6936  0.4989 -0.1740
  803MOL0     C 8331   9.863   6.423   0.875  1.5205  0.3362  0.6835
  803MOL0     C 8332   9.809   6.553   0.914  0.4941 -0.6649 -0.3375
  803MOL0     C 8333   9.661   6.573   0.893 -0.2535 -0.2716  0.0033
  803MOL0     C 8334   9.538   6.580   0.882  0.1233 -0.9147 -0.1981
  803MOL0     C 8335  10.196   6.060   1.064  0.0864 -0.5617 -0.6449
  803MOL0     C 8336  10.246   5.953   1.136 -0.2139  0.0503  0.6502
  803MOL0     C 8337  10.397   5.951   1.144 -0.0676  0.1614 -0.3450
  803MOL0     H 8338  10.089   5.444   1.187 -0.3086 -0.9741 -1.4270
  803MOL0     H 8339  10.132   5.210   1.260 -0.5074 -1.5037  2.0543
  803MOL0     H 8340  10.342   5.001   1.475 -1.3038  0.8211  0.1103
  803MOL0     H 8341  10.362   5.143   1.365  0.1659  0.2883 -0.3487
  803MOL0     H 8342  10.437   5.170   1.667  2.4715  0.1307  0.7488
  803MOL0     H 8343  10.458   5.290   1.545 -0.4396  1.2257  1.2238
  803MOL0     H 8344  10.613   5.184   1.427 -1.2299  0.0458 -0.2774
  803MOL0     H 8345  10.608   5.031   1.508  3.8967 -0.3051  4.3666
  803MOL0     H 8346  10.682   5.296   1.631 -1.6866 -0.1932  2.0763
  803MOL0     H 8347  10.694   5.135   1.717  0.9294 -0.5524  0.0777
  803MOL0     H 8348  10.846   5.076   1.521  1.1187  0.4161 -0.0055
  803MOL0     H 8349  10.835   5.226   1.457  2.3460  1.2753  1.1713
  803MOL0     H 8350  10.924   5.188   1.758  0.6720 -0.6807  0.5693
  803MOL0     H 8351  11.046   5.176   1.640  1.2227  2.2963 -0.0688
  803MOL0     H 8352  10.874   5.421   1.624  1.9623  0.8379 -3.3344
  803MOL0     H 8353  11.037   5.388   1.571  0.0931 -0.8270  0.1535
  803MOL0     H 8354  11.021   5.538   1.769  1.0467 -0.7926 -0.6292
  803MOL0     H 8355  10.945   5.420   1.860  0.2952  1.0345  0.4823
  803MOL0     H 8356  11.083   5.223   1.979 -0.9911  1.2420 -0.0755
  803MOL0     H 8357  11.362   5.171   2.122 -0.8837  3.3296 -0.4643
  803MOL0     H 8358  11.306   5.047   2.006 -0.1746 -0.1634 -1.4892
  803MOL0     H 8359  11.526   5.009   1.999  3.0540 -0.1752 -3.5889
  803MOL0     H 8360  11.480   5.075   1.843 -3.5128  1.6722 -0.5152
  803MOL0     H 8361  11.596   5.264   2.052 -0.2003  1.0775 -0.2843
  803MOL0     H 8362  11.609   5.258   1.881 -3.4577 -2.8176 -0.6198
  803MOL0     H 8363  11.810   5.215   2.043 -1.9543  2.2768 -1.0466
  803MOL0     H 8364  11.787   5.088   1.914 -0.4812  0.6704  0.9617
  803MOL0     H 8365  11.936   5.156   2.217 -2.2667 -1.6269  0.8089
  803MOL0     H 8366  12.160   5.054   2.288  0.3526 -0.9407  0.9435
  803MOL0     H 8367  12.544   4.843   2.179 -2.1409  0.6042  1.6332
  803MOL0     H 8368  12.772   4.740   2.138 -0.8165  1.5142 -0.3275
  803MOL0     H 8369  12.921   4.654   1.972  3.0600 -1.7110 -1.1418
  803MOL0     H 8370  12.970   4.595   2.129  0.6304  1.5141 -0.9155
  803MOL0     H 8371  12.987   4.375   1.958 -0.4565  0.8662  3.0131
  803MOL0     H 8372  13.010   4.507   1.852 -2.7801  1.8947  1.1021
  803MOL0     H 8373  13.190   4.595   2.019 -1.6123  1.0756 -0.4629
  803MOL0     H 8374  13.184   4.439   2.109  0.5058  0.2449  0.5506
  803MOL0     H 8375  13.284   4.511   1.835 -0.2467  2.1010  1.2896
  803MOL0     H 8376  13.204   4.357   1.840 -1.7268  1.7289 -0.9879
  803MOL0     H 8377  13.351   4.280   2.029 -0.9194 -0.9300 -2.4710
  803MOL0     H 8378  13.446   4.430   2.015 -0.2769 -0.3181  2.3084
  803MOL0     H 8379  13.395   4.227   1.793  0.1629  1.7774 -1.4307
  803MOL0     H 8380  13.494   4.373   1.764  0.1325 -2.9653 -2.2167
  803MOL0     H 8381  13.553   4.115   1.894  0.9748  0.2241 -1.8526
  803MOL0     H 8382  13.627   4.259   1.969 -0.2989  1.1932 -0.1488
  803MOL0     H 8383  13.647   4.166   1.683 -2.8239 -1.9469  1.8234
  803MOL0     H 8384  13.724   4.310   1.747  1.3005 -0.4878  1.1536
  803MOL0     H 8385  12.571   4.387   1.996 -0.0220 -0.1180 -0.1736
  803MOL0     H 8386  12.357   4.482   2.068  1.6603 -3.4096 -0.7466
  803MOL0     H 8387  12.048   4.695   2.085  1.6454 -0.0383  0.0452
  803MOL0     H 8388  11.827   4.784   2.059 -0.2399  0.4353  0.5444
  803MOL0     H 8389  10.220   5.345   1.652 -0.0576 -2.0304 -0.2259
  803MOL0     H 8390  10.190   5.600   1.566  1.7916 -1.9927 -0.7937
  803MOL0     H 8391   9.944   5.804   1.218  0.8147 -0.5149  2.0120
  803MOL0     H 8392   9.868   5.999   1.096 -0.1478  1.1593  1.4844
  803MOL0     H 8393  10.028   6.223   0.795 -1.0854  0.9031 -0.2570
  803MOL0     H 8394  10.159   6.251   0.918 -0.2676 -2.2281  1.2693
  803MOL0     H 8395  10.065   6.455   0.828 -1.3201 -1.7139 -1.8933
  803MOL0     H 8396  10.031   6.456   1.008 -2.0299  1.5142 -0.3896
  803MOL0     H 8397   9.812   6.333   0.912  3.5843 -0.9092  0.7281
  803MOL0     H 8398   9.848   6.425   0.767 -0.3437  1.1543  0.9238
  803MOL0     H 8399   9.831   6.559   1.021  0.1102 -0.5909 -0.2620
  803MOL0     H 8400   9.860   6.634   0.862  2.9052 -1.2964  0.8868
  803MOL0     H 8401   9.433   6.595   0.869  0.5583  1.2017 -1.8183
  803MOL0     H 8402  10.269   6.121   1.013  2.1284 -1.4178  1.1055
  803MOL0     H 8403  10.440   6.018   1.069 -1.7184 -0.1959 -1.6622
  803MOL0     H 8404  10.439   5.981   1.241  0.3104  1.8511 -1.0029
  803MOL0     H 8405  10.441   5.856   1.110 -0.5199  0.6058 -2.2579
  804MOL0     O 8406   3.455   6.066   5.970  0.7265 -0.6878 -0.0707
  804MOL0     C 8407   3.414   5.973   6.043 -0.1402 -0.3795  0.0074
  804MOL0     O 8408   3.492   5.910   6.125  0.1086 -0.3295 -0.5147
  804MOL0     C 8409   3.628   5.913   6.096  0.4248  0.0405  0.9397
  804MOL0     C 8410   3.700   5.794   6.067  0.6849  0.1831  0.6439
  804MOL0     C 8411   3.839   5.808   6.051 -0.7353 -0.3046  1.3556
  804MOL0     C 8412   3.903   5.932   6.057  0.2782 -0.0620  0.1346
  804MOL0     O 8413   4.041   5.948   6.063  0.6034  0.6955 -0.1855
  804MOL0     C 8414   4.122   5.839   6.116  0.2798 -0.5373  0.2825
  804MOL0     C 8415   4.274   5.868   6.117 -0.4311  0.2844  0.0835
  804MOL0     C 8416   4.325   5.923   5.983 -0.3289 -0.1503  1.1274
  804MOL0     C 8417   4.472   5.969   5.993 -0.1664  0.1654  0.0249
  804MOL0     C 8418   4.519   6.049   5.871  0.5056  0.1782 -0.4299
  804MOL0     C 8419   4.638   6.141   5.906  0.2701 -0.3908  0.0271
  804MOL0     C 8420   4.685   6.208   5.774 -0.3015  0.1905  0.7791
  804MOL0     C 8421   4.798   6.314   5.794 -0.2306  0.1228 -0.2600
  804MOL0     N 8422   4.853   6.377   5.674  0.3320  0.2617 -0.8300
  804MOL0     C 8423   4.872   6.308   5.555  0.4951 -0.9777  0.8108
  804MOL0     C 8424   4.959   6.388   5.489  1.1515 -0.5081  0.9227
  804MOL0     C 8425   5.029   6.356   5.357 -0.3250 -0.3977 -0.2985
  804MOL0     C 8426   5.179   6.338   5.378  0.4252  1.2769  0.4024
  804MOL0     C 8427   5.268   6.447   5.318 -0.5654 -0.9802  0.1137
  804MOL0     C 8428   5.235   6.587   5.366  0.5884 -0.2845  0.3945
  804MOL0     O 8429   5.336   6.678   5.322  0.5597  0.3171  0.0707
  804MOL0     C 8430   5.460   6.659   5.365  0.8267  0.1625  0.3825
  804MOL0     C 8431   5.559   6.702   5.280  0.3762 -0.3238 -0.1286
  804MOL0     C 8432   5.690   6.708   5.320 -0.1134 -0.6415  0.0056
  804MOL0     C 8433   5.728   6.681   5.452  0.0178  0.5600  0.2782
  804MOL0     C 8434   5.864   6.692   5.501 -0.1518  0.8992 -0.3237
  804MOL0     O 8435   5.954   6.751   5.413 -0.3941  0.2352  0.3380
  804MOL0     C 8436   6.088   6.750   5.457  1.0854  0.3685  0.4880
  804MOL0     C 8437   6.186   6.688   5.376  0.8060 -0.7106  0.2020
  804MOL0     C 8438   6.321   6.691   5.414  0.5194  0.2210  0.9839
  804MOL0     C 8439   6.369   6.736   5.531  0.2040 -0.3654 -0.5387
  804MOL0     O 8440   6.504   6.734   5.561 -0.5182 -0.1609 -0.1215
  804MOL0     C 8441   6.582   6.854   5.508 -0.0191 -0.1783 -1.2021
  804MOL0     C 8442   6.728   6.841   5.535  0.5874 -0.5288 -0.8838
  804MOL0     C 8443   6.787   6.730   5.447  0.7806  1.1481  0.3691
  804MOL0     C 8444   6.895   6.779   5.350 -0.7956  0.1320 -0.0306
  804MOL0     C 8445   6.967   6.663   5.268 -0.3193  0.4450  0.4931
  804MOL0     C 8446   7.074   6.719   5.173  0.2820  0.6961 -0.4181
  804MOL0     C 8447   7.185   6.801   5.236 -0.3961 -0.2923 -0.7950
  804MOL0     C 8448   7.230   6.925   5.165  0.0652  0.7797  0.0113
  804MOL0    Cl 8449   7.360   6.981   5.284 -0.4069  0.1791 -0.0745
  804MOL0     C 8450   6.273   6.793   5.619 -0.6404 -0.7825 -0.5611
  804MOL0     C 8451   6.137   6.808   5.581 -0.1832  0.1700  0.3172
  804MOL0     O 8452   5.889   6.656   5.615  0.0895 -0.0156  0.0046
  804MOL0     C 8453   5.626   6.620   5.534  0.3591  0.1498  0.4126
  804MOL0     C 8454   5.494   6.611   5.494 -1.1699 -0.0413 -0.2496
  804MOL0     N 8455   4.980   6.497   5.564  0.3838 -0.0715  0.5101
  804MOL0     N 8456   4.918   6.497   5.672  0.0542  0.7938  0.1272
  804MOL0     C 8457   3.835   6.050   6.082  0.8394  0.6714 -0.0900
  804MOL0     C 8458   3.693   6.038   6.110  0.4652 -0.4138  0.4076
  804MOL0     C 8459   3.269   5.952   6.061 -0.2354  0.1641  0.3322
  804MOL0     C 8460   3.190   6.046   5.995  0.3713 -0.0219 -0.5294
  804MOL0     C 8461   3.048   6.020   5.994  0.5406 -0.0836  0.2868
  804MOL0     C 8462   2.986   5.910   6.059  0.6296  0.0335  0.3791
  804MOL0     O 8463   2.852   5.887   6.069  0.5489  0.5545  0.9918
  804MOL0     C 8464   2.770   6.000   6.062 -0.1697 -1.3456  0.6910
  804MOL0     C 8465   2.637   5.961   6.137 -0.6595 -0.1240  0.6534
  804MOL0     C 8466   2.540   6.074   6.129  0.5506 -0.1845 -0.1133
  804MOL0     C 8467   2.415   6.069   6.212  0.2678  0.5246 -0.2716
  804MOL0     C 8468   2.328   6.178   6.186 -0.3885  0.3616  0.9830
  804MOL0     C 8469   2.261   6.267   6.147 -0.0548  0.8394 -0.3108
  804MOL0     C 8470   3.075   5.822   6.118  0.5180 -0.1328 -0.2640
  804MOL0     C 8471   3.213   5.846   6.134  0.2822 -0.3005  0.3823
  804MOL0     C 8472   3.281   5.734   6.212  0.2781 -0.1821 -0.0460
  804MOL0     H 8473   3.642   5.704   6.052  0.7968  0.2982 -0.6465
  804MOL0     H 8474   3.906   5.724   6.039  2.2425  2.1427 -0.7434
  804MOL0     H 8475   4.089   5.801   6.213 -1.8210 -1.2175 -0.6345
  804MOL0     H 8476   4.115   5.754   6.047  3.2985  0.0194 -0.8463
  804MOL0     H 8477   4.324   5.775   6.144 -2.8657 -1.0443  0.3895
  804MOL0     H 8478   4.292   5.935   6.202  0.3635  1.1015 -0.7087
  804MOL0     H 8479   4.250   6.000   5.962 -1.5996 -1.7110 -0.3865
  804MOL0     H 8480   4.321   5.843   5.909  5.6563 -2.0107  2.3153
  804MOL0     H 8481   4.460   6.026   6.086 -3.0578  1.0212 -0.7791
  804MOL0     H 8482   4.533   5.879   6.008 -0.6821 -0.1544  0.2383
  804MOL0     H 8483   4.558   5.981   5.795  0.6893 -2.7072  2.0729
  804MOL0     H 8484   4.433   6.102   5.829 -1.5874 -2.7106 -0.0423
  804MOL0     H 8485   4.609   6.217   5.978  1.8361  1.7608 -1.4711
  804MOL0     H 8486   4.712   6.070   5.947 -1.5561 -0.7074  3.0374
  804MOL0     H 8487   4.600   6.246   5.717  0.1408 -3.4003 -2.7766
  804MOL0     H 8488   4.733   6.130   5.714  1.2826 -0.3758  2.6513
  804MOL0     H 8489   4.749   6.388   5.858 -0.9471 -0.6738  0.1388
  804MOL0     H 8490   4.880   6.270   5.851 -1.1783 -0.7929  0.4398
  804MOL0     H 8491   4.839   6.207   5.530 -1.3622 -0.8202  2.4412
  804MOL0     H 8492   4.990   6.262   5.319 -0.9291 -0.5655  0.6847
  804MOL0     H 8493   5.005   6.430   5.280  1.7939  0.1888 -0.4591
  804MOL0     H 8494   5.204   6.325   5.484 -0.2034 -0.3290  0.3785
  804MOL0     H 8495   5.212   6.246   5.331 -3.8531  0.1520 -0.8499
  804MOL0     H 8496   5.257   6.443   5.209  1.0200  0.8443 -0.1751
  804MOL0     H 8497   5.373   6.425   5.338  0.6082  1.8914 -2.1801
  804MOL0     H 8498   5.215   6.586   5.474  0.2157 -0.0921  0.3258
  804MOL0     H 8499   5.142   6.612   5.315  0.8423  0.1007  0.1193
  804MOL0     H 8500   5.537   6.741   5.181 -1.3383  0.0984  0.3978
  804MOL0     H 8501   5.759   6.751   5.248 -0.1417  0.3805  0.5776
  804MOL0     H 8502   6.165   6.652   5.276  2.4047 -0.4343 -0.2583
  804MOL0     H 8503   6.398   6.649   5.350 -0.9938 -1.2340  0.0312
  804MOL0     H 8504   6.556   6.868   5.403  0.4620 -1.1029 -1.4562
  804MOL0     H 8505   6.560   6.943   5.567  0.7589 -0.8347  0.1489
  804MOL0     H 8506   6.785   6.928   5.502  2.9471 -1.3566  0.7146
  804MOL0     H 8507   6.739   6.836   5.644  1.6611  1.3323 -0.8613
  804MOL0     H 8508   6.845   6.663   5.510  0.8107  1.0269  0.2123
  804MOL0     H 8509   6.709   6.681   5.389  0.2356  1.2252  1.0189
  804MOL0     H 8510   6.973   6.827   5.410  0.2554  0.3413 -1.5076
  804MOL0     H 8511   6.853   6.856   5.285  2.1737  0.8652 -1.2659
  804MOL0     H 8512   6.884   6.618   5.212  0.8743 -0.1120 -0.8714
  804MOL0     H 8513   7.013   6.582   5.325  0.8831  2.1414  2.0664
  804MOL0     H 8514   7.123   6.650   5.105  2.2346  2.2668 -0.7051
  804MOL0     H 8515   7.015   6.780   5.104 -0.3108 -1.4523 -1.9136
  804MOL0     H 8516   7.271   6.735   5.241  0.8076  1.0804 -2.2592
  804MOL0     H 8517   7.158   6.828   5.338  2.3742  1.0738 -0.3325
  804MOL0     H 8518   7.270   6.918   5.063  3.7108 -1.2539  1.4106
  804MOL0     H 8519   7.152   7.001   5.177 -1.2314 -0.0496 -2.3752
  804MOL0     H 8520   6.317   6.839   5.707  1.1334  1.5615 -2.5656
  804MOL0     H 8521   6.057   6.848   5.642  0.1449  0.4939  0.5415
  804MOL0     H 8522   5.641   6.581   5.634 -3.8447 -0.4083  1.0189
  804MOL0     H 8523   5.416   6.572   5.558 -1.2469  0.9545  0.2912
  804MOL0     H 8524   3.895   6.141   6.084  3.1796 -0.7141 -2.0625
  804MOL0     H 8525   3.628   6.123   6.129  0.0272 -0.5517 -0.4109
  804MOL0     H 8526   3.223   6.140   5.953  1.0912 -0.3731 -0.7693
  804MOL0     H 8527   2.995   6.085   5.924  2.3159  2.3547  1.0559
  804MOL0     H 8528   2.748   6.025   5.958  1.2075 -0.7879  0.5175
  804MOL0     H 8529   2.821   6.082   6.114 -0.2724 -1.1305  0.4533
  804MOL0     H 8530   2.658   5.939   6.242 -1.7901 -2.5888  0.4335
  804MOL0     H 8531   2.590   5.871   6.096  0.1000 -0.4008  0.3612
  804MOL0     H 8532   2.512   6.086   6.024 -2.7879  0.1000  0.6855
  804MOL0     H 8533   2.600   6.161   6.157  1.3569 -0.7066 -0.1727
  804MOL0     H 8534   2.369   5.970   6.202  1.7125 -0.2024  0.0208
  804MOL0     H 8535   2.439   6.079   6.319 -0.5626  0.0922 -0.0300
  804MOL0     H 8536   2.190   6.340   6.113 -2.5069 -1.6352 -0.9067
  804MOL0     H 8537   3.033   5.735   6.165  1.1670  0.5774  1.7421
  804MOL0     H 8538   3.368   5.684   6.168 -0.7173 -3.0299  0.9908
  804MOL0     H 8539   3.315   5.767   6.311  1.5096  0.0030 -0.5066
  804MOL0     H 8540   3.201   5.661   6.228 -0.9921  0.6753 -2.1553
  805MOL0     O 8541   8.657   1.408   3.963  0.1388  0.2683 -0.6680
  805MOL0     C 8542   8.632   1.333   4.060  0.4421  0.1337  0.0600
  805MOL0     O 8543   8.728   1.276   4.137 -0.4038  0.1631  0.6603
  805MOL0     C 8544   8.864   1.306   4.107 -0.2091  0.2603  0.7787
  805MOL0     C 8545   8.928   1.427   4.152  0.0060 -0.1536  0.6167
  805MOL0     C 8546   9.060   1.462   4.113  0.2546  1.2891  0.1169
  805MOL0     C 8547   9.138   1.365   4.035  0.2191 -0.6677 -1.0537
  805MOL0     O 8548   9.258   1.414   3.991 -0.5179 -0.4221 -0.3049
  805MOL0     C 8549   9.333   1.330   3.899  0.0471  0.0089  0.1226
  805MOL0     C 8550   9.491   1.360   3.902  0.4320  0.2367  0.2209
  805MOL0     C 8551   9.569   1.343   4.034 -0.3095  0.1110  0.0118
  805MOL0     C 8552   9.713   1.370   4.008 -0.0080 -0.6729 -0.3809
  805MOL0     C 8553   9.794   1.415   4.128 -0.0759 -0.3559  0.2660
  805MOL0     C 8554   9.752   1.561   4.165 -0.3009 -0.2729 -0.9272
  805MOL0     C 8555   9.747   1.565   4.324 -0.4601 -0.0476  0.6935
  805MOL0     C 8556   9.882   1.546   4.390 -0.4278  1.5366 -0.0599
  805MOL0     N 8557   9.966   1.667   4.410  0.7810 -0.5045 -0.4797
  805MOL0     C 8558  10.090   1.655   4.462  0.2164 -1.1856 -0.9580
  805MOL0     C 8559  10.128   1.788   4.474  0.4387 -0.3104 -1.2646
  805MOL0     C 8560  10.253   1.837   4.536  0.2720  0.6301 -0.4515
  805MOL0     C 8561  10.244   1.972   4.611  0.0014  0.4854 -0.0437
  805MOL0     C 8562  10.356   2.017   4.708 -0.0623  1.0943  0.0608
  805MOL0     C 8563  10.337   2.150   4.772 -0.4855  0.3905 -0.8190
  805MOL0     O 8564  10.454   2.207   4.827  0.0442 -0.2014  0.4227
  805MOL0     C 8565  10.520   2.136   4.923  0.0558  0.1179  0.2645
  805MOL0     C 8566  10.473   2.052   5.023 -0.0958  0.9382 -0.7239
  805MOL0     C 8567  10.556   1.991   5.114 -0.2364 -0.4036 -0.7076
  805MOL0     C 8568  10.689   2.021   5.116 -0.2350  0.0292 -0.0859
  805MOL0     C 8569  10.778   1.955   5.220 -0.5112 -0.5713  0.4207
  805MOL0     O 8570  10.719   1.840   5.280  0.0129 -0.0101  0.6628
  805MOL0     C 8571  10.806   1.766   5.361 -0.4438 -0.1529  0.2519
  805MOL0     C 8572  10.793   1.764   5.498  0.3159 -0.8582 -0.1506
  805MOL0     C 8573  10.883   1.703   5.595  0.3164  0.4094  1.1835
  805MOL0     C 8574  10.999   1.645   5.538  0.3753 -0.1438 -0.1796
  805MOL0     O 8575  11.087   1.588   5.628 -0.2668 -0.0585  0.0186
  805MOL0     C 8576  11.224   1.598   5.603 -1.0891 -0.1785  0.0625
  805MOL0     C 8577  11.318   1.554   5.714 -0.5169  0.4291 -0.2651
  805MOL0     C 8578  11.446   1.497   5.655 -0.8466 -0.2887  0.0533
  805MOL0     C 8579  11.547   1.608   5.613 -0.0327 -0.3846 -0.2008
  805MOL0     C 8580  11.689   1.545   5.623 -0.5143  0.2406 -0.4763
  805MOL0     C 8581  11.794   1.647   5.579  0.9306 -0.5048  0.0920
  805MOL0     C 8582  11.936   1.600   5.596 -0.3184 -0.1997  0.1710
  805MOL0     C 8583  11.975   1.476   5.505 -0.2804 -0.0474 -0.2664
  805MOL0    Cl 8584  12.152   1.454   5.526  0.0308  0.3393 -0.4252
  805MOL0     C 8585  11.011   1.647   5.395  0.0080  0.5194  0.2355
  805MOL0     C 8586  10.926   1.706   5.313 -0.0275 -0.6343 -0.4979
  805MOL0     O 8587  10.881   2.011   5.255 -0.1847 -0.1201 -0.0173
  805MOL0     C 8588  10.752   2.099   5.022  0.0191 -0.7011  0.0332
  805MOL0     C 8589  10.662   2.157   4.927 -0.8854  0.1912  0.3632
  805MOL0     N 8590  10.029   1.867   4.419 -0.4467  0.4830  0.2744
  805MOL0     N 8591   9.930   1.793   4.381  0.0531 -0.3032 -0.0822
  805MOL0     C 8592   9.079   1.243   4.001 -0.0832 -0.9594  0.4208
  805MOL0     C 8593   8.942   1.222   4.026 -0.7508  0.7153  0.4969
  805MOL0     C 8594   8.486   1.292   4.086 -0.4378 -0.1330 -0.8101
  805MOL0     C 8595   8.452   1.249   4.213 -0.3833  0.0626 -0.0434
  805MOL0     C 8596   8.325   1.201   4.245 -0.0373 -1.2616  0.3076
  805MOL0     C 8597   8.218   1.204   4.146 -0.7965  0.3281  0.0989
  805MOL0     O 8598   8.089   1.159   4.163 -0.5603  0.2691 -0.0897
  805MOL0     C 8599   8.070   1.045   4.254  0.5669 -0.3434  0.1503
  805MOL0     C 8600   7.922   0.999   4.254 -0.3795 -1.2762  0.0692
  805MOL0     C 8601   7.823   1.112   4.262  0.2586 -1.1588  0.3638
  805MOL0     C 8602   7.676   1.069   4.286 -0.5107 -0.0702 -0.1310
  805MOL0     C 8603   7.588   1.178   4.324  0.2507  0.2037  0.3856
  805MOL0     C 8604   7.496   1.248   4.348 -0.0428 -0.7832 -0.3229
  805MOL0     C 8605   8.255   1.252   4.023  0.2628  0.0041  0.2054
  805MOL0     C 8606   8.387   1.293   3.992  0.6008  0.4307 -0.0150
  805MOL0     C 8607   8.398   1.330   3.847  0.3157  0.1831  0.3413
  805MOL0     H 8608   8.867   1.498   4.208  1.0817  0.6045  0.8488
  805MOL0     H 8609   9.116   1.551   4.141 -0.6456  1.6734  0.7374
  805MOL0     H 8610   9.335   1.227   3.936 -0.8708 -1.4034 -3.3402
  805MOL0     H 8611   9.286   1.320   3.800  1.8428 -2.6728 -0.5788
  805MOL0     H 8612   9.510   1.457   3.855  2.5894 -0.8773 -1.4078
  805MOL0     H 8613   9.536   1.286   3.835 -1.5564 -0.0414 -0.8810
  805MOL0     H 8614   9.554   1.242   4.072  0.3946 -0.5739 -1.4369
  805MOL0     H 8615   9.531   1.416   4.105  0.1852  2.3002 -1.8635
  805MOL0     H 8616   9.761   1.278   3.972  1.9039 -1.6602  4.0225
  805MOL0     H 8617   9.730   1.456   3.943 -0.8862  0.5982  1.0171
  805MOL0     H 8618   9.784   1.346   4.213 -0.2924  0.7091  1.1306
  805MOL0     H 8619   9.901   1.421   4.107 -0.1065  0.1421  0.2390
  805MOL0     H 8620   9.821   1.636   4.127 -1.6759  1.2703 -0.5057
  805MOL0     H 8621   9.655   1.594   4.126 -0.4998 -0.2784 -0.4457
  805MOL0     H 8622   9.688   1.478   4.355  0.3224 -0.8037  0.1283
  805MOL0     H 8623   9.695   1.659   4.344  1.4520  1.3113 -0.3527
  805MOL0     H 8624   9.878   1.494   4.486 -0.8079  0.9895 -0.3622
  805MOL0     H 8625   9.938   1.472   4.333 -3.1862 -1.6059  0.9168
  805MOL0     H 8626  10.137   1.565   4.500  0.2631 -0.1369  1.6941
  805MOL0     H 8627  10.301   1.762   4.599 -0.3996  0.7531  0.2290
  805MOL0     H 8628  10.336   1.846   4.466  0.8513  0.6048  0.2264
  805MOL0     H 8629  10.243   2.048   4.532  3.2457  0.4846 -0.1932
  805MOL0     H 8630  10.148   1.980   4.663 -0.4258  0.1414 -0.7709
  805MOL0     H 8631  10.445   2.027   4.645  0.3560  0.8002  0.5964
  805MOL0     H 8632  10.372   1.946   4.789  0.5774 -1.4028 -2.1207
  805MOL0     H 8633  10.265   2.135   4.854  0.0574 -1.0369 -0.5725
  805MOL0     H 8634  10.299   2.212   4.690 -1.8351 -2.2743 -2.3333
  805MOL0     H 8635  10.368   2.028   5.040  0.6351 -0.6250  2.1552
  805MOL0     H 8636  10.508   1.933   5.192  0.6902  0.5756  0.6347
  805MOL0     H 8637  10.706   1.816   5.536  0.8818  1.3460 -1.6623
  805MOL0     H 8638  10.868   1.686   5.701 -3.0006 -1.6599  0.5277
  805MOL0     H 8639  11.246   1.540   5.513  2.5540  1.1963 -0.0880
  805MOL0     H 8640  11.260   1.698   5.580 -2.3699 -0.0899 -1.7266
  805MOL0     H 8641  11.333   1.638   5.783  2.1264 -0.1037 -0.0971
  805MOL0     H 8642  11.271   1.475   5.773  0.5942 -0.2461 -0.2601
  805MOL0     H 8643  11.489   1.435   5.734 -0.5817 -0.3692 -0.1526
  805MOL0     H 8644  11.418   1.430   5.574 -0.1570  0.7668 -1.0995
  805MOL0     H 8645  11.552   1.697   5.677  2.6467  0.0185 -0.8539
  805MOL0     H 8646  11.528   1.649   5.513 -0.4681 -0.5079 -0.1734
  805MOL0     H 8647  11.695   1.457   5.558 -0.1748 -1.6102  1.9058
  805MOL0     H 8648  11.719   1.504   5.720 -1.4476 -1.6512 -0.9239
  805MOL0     H 8649  11.765   1.660   5.475 -2.4851 -0.6886  0.9179
  805MOL0     H 8650  11.789   1.741   5.635 -1.6696 -1.3900  1.5411
  805MOL0     H 8651  11.965   1.587   5.700 -2.4594 -0.3126  0.8002
  805MOL0     H 8652  11.993   1.686   5.558 -4.2639  1.3560 -3.0188
  805MOL0     H 8653  11.913   1.388   5.525  1.4610 -0.6606  3.0628
  805MOL0     H 8654  11.958   1.493   5.398  2.1626  0.4003 -0.6319
  805MOL0     H 8655  11.102   1.599   5.361 -0.9060 -0.0564 -1.4675
  805MOL0     H 8656  10.949   1.703   5.207 -0.5588  0.6494 -0.6650
  805MOL0     H 8657  10.859   2.120   5.021  0.0554 -0.7766  1.2610
  805MOL0     H 8658  10.702   2.223   4.850  1.3892 -0.3185  1.0307
  805MOL0     H 8659   9.129   1.164   3.945 -3.2463 -2.1283 -0.9710
  805MOL0     H 8660   8.902   1.128   3.990  0.7902  0.4798 -0.6908
  805MOL0     H 8661   8.535   1.243   4.283  3.1726 -0.6775 -3.9524
  805MOL0     H 8662   8.300   1.167   4.345 -0.2104 -1.0684  0.3322
  805MOL0     H 8663   8.100   1.067   4.356 -1.5925  4.1887  0.0343
  805MOL0     H 8664   8.133   0.965   4.214 -0.1628 -0.0926 -1.6145
  805MOL0     H 8665   7.907   0.943   4.347 -0.8957 -1.2996 -0.0248
  805MOL0     H 8666   7.901   0.941   4.164  3.3521 -0.9350 -1.2035
  805MOL0     H 8667   7.838   1.174   4.173  2.4451  0.7428  1.9356
  805MOL0     H 8668   7.849   1.186   4.338 -1.4913 -1.7846  1.6433
  805MOL0     H 8669   7.640   1.027   4.192 -0.7110  0.0119 -0.0942
  805MOL0     H 8670   7.671   0.996   4.368 -0.8159  1.8501  1.6557
  805MOL0     H 8671   7.410   1.302   4.382  0.3388  1.6749 -2.9133
  805MOL0     H 8672   8.179   1.238   3.947 -0.3116  0.8310  0.6177
  805MOL0     H 8673   8.473   1.273   3.791 -0.9435  1.1479 -2.5769
  805MOL0     H 8674   8.308   1.306   3.788 -0.5672 -0.9390  2.0741
  805MOL0     H 8675   8.427   1.435   3.840  1.0010 -0.0208  0.0852
  806MOL0     O 8676   2.754   9.914   9.231 -0.5579  0.1013 -0.1832
  806MOL0     C 8677   2.805  10.022   9.257  0.1957  0.2640  0.0357
  806MOL0     O 8678   2.751  10.141   9.219 -0.2090  0.8267  0.0017
  806MOL0     C 8679   2.632  10.146   9.150  1.0838 -0.3724  0.8192
  806MOL0     C 8680   2.512  10.208   9.197 -0.8815 -0.2524 -0.2214
  806MOL0     C 8681   2.400  10.231   9.117 -0.1459 -0.1512  0.7191
  806MOL0     C 8682   2.397  10.171   8.987  0.6349 -1.3281  0.1600
  806MOL0     O 8683   2.284  10.200   8.912 -0.2365  0.6239  0.3900
  806MOL0     C 8684   2.266  10.138   8.789  0.2118 -0.4268  0.6286
  806MOL0     C 8685   2.118  10.154   8.735 -0.4662 -0.0457  0.3035
  806MOL0     C 8686   2.039  10.105   8.853  0.5171  0.1526 -0.2747
  806MOL0     C 8687   1.897  10.110   8.821  0.3825 -0.1484 -0.5827
  806MOL0     C 8688   1.797  10.126   8.936 -0.5978  0.6487 -0.4468
  806MOL0     C 8689   1.660  10.065   8.906 -0.3958  0.0502 -0.3167
  806MOL0     C 8690   1.563  10.081   9.022 -0.0761  1.1761  0.1291
  806MOL0     C 8691   1.576   9.977   9.134 -0.6385  0.8001 -0.0276
  806MOL0     N 8692   1.507  10.033   9.247 -0.2907 -0.0767 -0.8988
  806MOL0     C 8693   1.371  10.031   9.269 -0.0428  0.4495 -0.5136
  806MOL0     C 8694   1.351  10.096   9.381 -0.3382  0.1553  0.2313
  806MOL0     C 8695   1.205  10.103   9.446 -0.0513  0.2918 -0.4528
  806MOL0     C 8696   1.177   9.986   9.534 -0.4253  0.7098  0.0577
  806MOL0     C 8697   1.085   9.886   9.467 -0.7999  0.4316  0.7157
  806MOL0     C 8698   0.943   9.929   9.450  0.0275  0.5130 -0.1582
  806MOL0     O 8699   0.878   9.811   9.400 -0.3309  0.0601 -0.0514
  806MOL0     C 8700   0.743   9.800   9.412 -0.3662  0.5785  0.4792
  806MOL0     C 8701   0.667   9.909   9.456  1.6431  0.0866  0.2852
  806MOL0     C 8702   0.527   9.894   9.453  0.6930  0.6168  0.2238
  806MOL0     C 8703   0.461   9.774   9.420 -0.0874 -0.3208  0.1426
  806MOL0     C 8704   0.315   9.764   9.423  0.5670  0.3536  0.2453
  806MOL0     O 8705   0.248   9.878   9.455  0.3510 -0.0606  0.7969
  806MOL0     C 8706   0.111   9.891   9.458  0.0160 -0.5014 -0.2833
  806MOL0     C 8707   0.060  10.009   9.502 -0.3980 -0.4529 -0.3425
  806MOL0     C 8708  -0.072  10.044   9.499 -0.2011 -0.3042  0.5891
  806MOL0     C 8709  -0.165   9.946   9.442  0.1924 -0.1648  0.1255
  806MOL0     O 8710  -0.298   9.966   9.419 -0.6137  0.0276  0.4449
  806MOL0     C 8711  -0.350  10.089   9.457 -0.0802 -0.6972  0.7738
  806MOL0     C 8712  -0.499  10.097   9.423 -0.0889 -0.5670  0.6107
  806MOL0     C 8713  -0.528  10.124   9.280  0.3529  0.0943 -0.1972
  806MOL0     C 8714  -0.685  10.116   9.270  0.2667 -0.3447  0.2865
  806MOL0     C 8715  -0.750  10.149   9.137 -0.0650 -0.0603  0.1719
  806MOL0     C 8716  -0.903  10.118   9.135 -0.7457  0.1311 -0.2660
  806MOL0     C 8717  -0.947  10.109   8.988 -0.7736  0.1290  0.6190
  806MOL0     C 8718  -1.089  10.058   8.979  0.5252 -0.1035 -0.6906
  806MOL0    Cl 8719  -1.212  10.179   9.036 -0.0606 -0.7424  0.4041
  806MOL0     C 8720  -0.112   9.822   9.414 -0.1255 -0.5268  0.0174
  806MOL0     C 8721   0.022   9.795   9.416  0.0052  0.3942 -0.2002
  806MOL0     O 8722   0.266   9.648   9.407  0.0579 -0.2987 -0.4713
  806MOL0     C 8723   0.541   9.661   9.383 -0.4334 -1.3717 -0.1476
  806MOL0     C 8724   0.681   9.680   9.380  0.3173  0.2247  0.1749
  806MOL0     N 8725   1.474  10.145   9.432 -0.0437  0.1895 -0.0113
  806MOL0     N 8726   1.567  10.115   9.349 -0.2653  0.2989  1.2621
  806MOL0     C 8727   2.515  10.117   8.935  0.3815 -0.1528 -0.1072
  806MOL0     C 8728   2.627  10.102   9.018  0.1883 -0.1405  0.5752
  806MOL0     C 8729   2.943  10.026   9.327 -1.0621  0.0009  1.0623
  806MOL0     C 8730   2.994  10.156   9.358 -0.4041  1.1897  0.1045
  806MOL0     C 8731   3.119  10.170   9.417 -0.3795 -0.6274 -0.0382
  806MOL0     C 8732   3.204  10.060   9.444  0.4479 -0.3675 -0.3538
  806MOL0     O 8733   3.324  10.091   9.500 -0.2606  0.1733 -0.0399
  806MOL0     C 8734   3.388   9.978   9.558 -0.8931  0.3438  0.1344
  806MOL0     C 8735   3.513  10.014   9.633  0.1255 -0.2835 -0.4127
  806MOL0     C 8736   3.631  10.040   9.557 -0.7079  0.8643  0.5529
  806MOL0     C 8737   3.761  10.040   9.641  0.2117 -0.2765 -0.3371
  806MOL0     C 8738   3.869  10.087   9.547  0.6708  0.0807  0.2979
  806MOL0     C 8739   3.956  10.135   9.477  0.4780 -0.3133  0.9517
  806MOL0     C 8740   3.148   9.937   9.419 -0.2785 -0.5818 -0.9513
  806MOL0     C 8741   3.021   9.914   9.363  0.4310 -0.4425 -0.9793
  806MOL0     C 8742   2.967   9.776   9.363  0.2851  0.8126 -0.4034
  806MOL0     H 8743   2.514  10.237   9.302  0.9580 -1.2735  0.0834
  806MOL0     H 8744   2.313  10.285   9.153  0.5544  1.1465  0.5046
  806MOL0     H 8745   2.328  10.189   8.715  0.9074 -1.5185  0.4346
  806MOL0     H 8746   2.285  10.032   8.804 -1.0955 -0.8518 -0.5256
  806MOL0     H 8747   2.100  10.085   8.652 -1.5265 -1.0522  1.3385
  806MOL0     H 8748   2.101  10.259   8.711  1.7173  0.4421  0.6425
  806MOL0     H 8749   2.048  10.161   8.946 -0.0455 -2.0519  1.1915
  806MOL0     H 8750   2.061  10.001   8.877 -0.2008 -0.2431 -1.2507
  806MOL0     H 8751   1.880  10.195   8.754 -0.2894  0.7567  0.6917
  806MOL0     H 8752   1.868  10.019   8.768 -1.6729  0.3874 -0.4495
  806MOL0     H 8753   1.834  10.069   9.021 -1.5285 -1.1404 -1.1954
  806MOL0     H 8754   1.789  10.233   8.958 -0.6008  0.5610 -0.0263
  806MOL0     H 8755   1.617  10.127   8.827  0.8111  3.2536  1.3665
  806MOL0     H 8756   1.663   9.963   8.866 -1.2405 -0.6169  1.2282
  806MOL0     H 8757   1.459  10.065   8.991 -0.4658 -0.4130  2.0186
  806MOL0     H 8758   1.568  10.183   9.062  2.5414  0.7048  1.1904
  806MOL0     H 8759   1.536   9.878   9.111  0.3052  1.1295 -3.6511
  806MOL0     H 8760   1.681   9.960   9.159 -0.2825  1.3477 -1.0642
  806MOL0     H 8761   1.300   9.980   9.205  0.1190 -0.1739 -0.2068
  806MOL0     H 8762   1.205  10.193   9.509  1.7136  0.2087 -0.2610
  806MOL0     H 8763   1.138  10.120   9.362 -1.9671  0.2517  1.0032
  806MOL0     H 8764   1.269   9.938   9.568  0.6043  1.8124 -1.1008
  806MOL0     H 8765   1.136  10.018   9.630  1.7008  1.4942  0.7461
  806MOL0     H 8766   1.087   9.795   9.527  1.8456 -0.6063 -0.7598
  806MOL0     H 8767   1.124   9.868   9.366 -3.2753 -0.2346 -0.1888
  806MOL0     H 8768   0.926  10.015   9.383 -0.6270  1.1090  0.7502
  806MOL0     H 8769   0.907   9.955   9.550 -0.8873  1.4995 -0.7243
  806MOL0     H 8770   0.712  10.005   9.480  2.9872 -0.5356  0.3477
  806MOL0     H 8771   0.468   9.979   9.486 -0.2009 -0.5168  1.6539
  806MOL0     H 8772   0.133  10.078   9.544 -1.5823  1.5005 -1.3430
  806MOL0     H 8773  -0.111  10.140   9.531  0.8537 -0.1069  1.3157
  806MOL0     H 8774  -0.338  10.105   9.565 -0.3322  1.3333  0.5490
  806MOL0     H 8775  -0.299  10.169   9.402 -0.8043 -0.3720  0.5746
  806MOL0     H 8776  -0.549  10.007   9.460 -3.7452  1.4093  0.9215
  806MOL0     H 8777  -0.543  10.171   9.490 -0.1121  0.6894 -0.7577
  806MOL0     H 8778  -0.487  10.224   9.266  0.8818  0.1133  1.3655
  806MOL0     H 8779  -0.478  10.057   9.209  1.6742  1.7926 -0.9372
  806MOL0     H 8780  -0.733  10.165   9.356  1.5404  1.9839 -0.2453
  806MOL0     H 8781  -0.700  10.010   9.291  0.3828  0.0759  2.9270
  806MOL0     H 8782  -0.702  10.086   9.062  1.1688 -0.7465  1.4734
  806MOL0     H 8783  -0.732  10.255   9.116  0.6034  0.6877  3.7118
  806MOL0     H 8784  -0.925  10.024   9.185  0.1482  0.1787  0.2460
  806MOL0     H 8785  -0.947  10.203   9.188  1.3658  0.3826  1.1865
  806MOL0     H 8786  -0.882  10.040   8.933 -0.9862 -1.3843  2.1920
  806MOL0     H 8787  -0.946  10.206   8.936 -0.4212 -0.5906 -0.7782
  806MOL0     H 8788  -1.127  10.018   8.884 -1.3514 -1.1731  0.4513
  806MOL0     H 8789  -1.102   9.967   9.038  0.5207 -1.7771 -3.1169
  806MOL0     H 8790  -0.179   9.741   9.387 -1.7158  1.0661 -1.0553
  806MOL0     H 8791   0.046   9.701   9.370 -3.3197  0.3196 -2.1196
  806MOL0     H 8792   0.495   9.572   9.342 -0.4162 -1.3882 -0.1322
  806MOL0     H 8793   0.738   9.592   9.354 -0.3777 -0.5328  1.1054
  806MOL0     H 8794   2.526  10.075   8.836  0.3021 -2.8232  0.9443
  806MOL0     H 8795   2.715  10.053   8.978 -0.3221 -0.8904  0.3512
  806MOL0     H 8796   2.937  10.241   9.322 -0.7182  0.4023 -1.3138
  806MOL0     H 8797   3.152  10.272   9.431 -1.6532  0.1576 -2.2630
  806MOL0     H 8798   3.425   9.907   9.483  0.4593  1.7566 -0.6206
  806MOL0     H 8799   3.324   9.918   9.623 -2.3491  1.9908  0.3107
  806MOL0     H 8800   3.538   9.925   9.690 -1.2680 -0.0297  0.6725
  806MOL0     H 8801   3.496  10.101   9.698  0.6884 -0.9591  0.6704
  806MOL0     H 8802   3.621  10.137   9.507 -1.9779  1.1498  1.3088
  806MOL0     H 8803   3.652   9.962   9.483  1.7761  1.5318  0.4553
  806MOL0     H 8804   3.739  10.107   9.724 -0.9425 -0.8924 -0.1208
  806MOL0     H 8805   3.791   9.945   9.686 -0.4709 -1.0978 -1.5289
  806MOL0     H 8806   4.035  10.189   9.429 -0.0803 -1.2099 -1.0572
  806MOL0     H 8807   3.210   9.854   9.452  0.2056  0.2609  0.3281
  806MOL0     H 8808   2.865   9.761   9.400  0.4815 -0.0685 -0.1936
  806MOL0     H 8809   2.978   9.739   9.260  2.6196 -1.6754  0.6319
  806MOL0     H 8810   3.033   9.720   9.429  1.2971  1.0531 -1.1689
  807MOL0     O 8811   3.798   0.502   5.542  0.9712  0.2248  0.7169
  807MOL0     C 8812   3.682   0.500   5.592 -0.4354 -0.0218  0.4867
  807MOL0     O 8813   3.632   0.399   5.661 -0.5048 -0.0646  0.1574
  807MOL0     C 8814   3.720   0.287   5.686  0.2259  0.5818 -0.5980
  807MOL0     C 8815   3.715   0.238   5.813 -0.0844  0.5343  0.2441
  807MOL0     C 8816   3.784   0.123   5.852 -0.9044 -0.0670 -0.4813
  807MOL0     C 8817   3.862   0.063   5.763 -0.5827  0.4620  0.1952
  807MOL0     O 8818   3.938  -0.043   5.806  0.2644 -0.0978 -0.3036
  807MOL0     C 8819   4.074  -0.006   5.802 -0.8208  0.8283 -0.0519
  807MOL0     C 8820   4.156  -0.112   5.878 -0.4545  0.2140 -0.2186
  807MOL0     C 8821   4.298  -0.080   5.874  0.3837  0.0639 -0.0213
  807MOL0     C 8822   4.387  -0.187   5.942  0.2394 -0.0262 -0.1926
  807MOL0     C 8823   4.539  -0.149   5.933 -0.8938  0.0760  0.1898
  807MOL0     C 8824   4.634  -0.234   6.021 -0.1218  0.1466 -0.0119
  807MOL0     C 8825   4.634  -0.384   5.967 -1.2037  0.5695  0.0711
  807MOL0     C 8826   4.745  -0.469   6.030 -0.2952  0.4886 -0.9003
  807MOL0     N 8827   4.888  -0.439   6.012 -0.7777 -0.6050  0.1484
  807MOL0     C 8828   4.966  -0.479   5.905  0.5022 -0.4476 -0.4071
  807MOL0     C 8829   5.091  -0.461   5.943 -0.4371  0.1428  0.1145
  807MOL0     C 8830   5.209  -0.469   5.851  0.5949 -0.0501  0.2613
  807MOL0     C 8831   5.334  -0.414   5.918 -0.4879  0.0736  0.2878
  807MOL0     C 8832   5.436  -0.371   5.811  0.5969 -0.1600 -0.1813
  807MOL0     C 8833   5.547  -0.284   5.883  0.3726 -0.4758  0.7266
  807MOL0     O 8834   5.613  -0.357   5.986  0.3310 -0.4634  0.3046
  807MOL0     C 8835   5.747  -0.331   6.022  0.5699 -1.3485  1.1462
  807MOL0     C 8836   5.841  -0.429   6.042 -0.7024 -0.7420 -0.5533
  807MOL0     C 8837   5.975  -0.391   6.073 -0.3982  0.0237  0.6894
  807MOL0     C 8838   6.009  -0.263   6.088 -0.3867 -0.4331 -0.2068
  807MOL0     C 8839   6.145  -0.219   6.140  0.6609 -0.0373  0.4357
  807MOL0     O 8840   6.147  -0.091   6.175  0.4713  0.4245 -0.1878
  807MOL0     C 8841   6.272  -0.042   6.195 -0.1558 -0.4437  0.5397
  807MOL0     C 8842   6.342   0.025   6.099 -0.6069 -1.2170  0.6408
  807MOL0     C 8843   6.476   0.066   6.109  0.6277 -0.4730 -0.8645
  807MOL0     C 8844   6.540   0.050   6.233 -0.4637 -0.3783  0.8131
  807MOL0     O 8845   6.671   0.086   6.244 -0.3476 -0.0179 -0.2962
  807MOL0     C 8846   6.750   0.040   6.356 -0.7585 -0.6843  0.1400
  807MOL0     C 8847   6.906   0.062   6.336  0.5103 -0.0219  0.2515
  807MOL0     C 8848   6.948   0.204   6.334 -0.1935  0.1461 -0.0029
  807MOL0     C 8849   7.105   0.218   6.300 -0.0860 -1.1866 -0.1585
  807MOL0     C 8850   7.154   0.373   6.319  0.1056 -0.5070 -0.4594
  807MOL0     C 8851   7.305   0.390   6.308 -0.1825  0.4695 -0.0063
  807MOL0     C 8852   7.329   0.536   6.287  0.0090  0.0923  0.0840
  807MOL0     C 8853   7.476   0.578   6.263 -0.0648  0.0045 -0.3938
  807MOL0    Cl 8854   7.578   0.563   6.409  0.4422 -0.4346 -0.2491
  807MOL0     C 8855   6.464  -0.008   6.332 -0.2832 -0.9868 -0.6850
  807MOL0     C 8856   6.341  -0.059   6.319 -0.7813 -0.4266 -0.0938
  807MOL0     O 8857   6.240  -0.300   6.126  0.1912  0.4632 -0.8973
  807MOL0     C 8858   5.913  -0.162   6.066  0.1458  0.2632 -0.6329
  807MOL0     C 8859   5.786  -0.194   6.037 -0.0967  0.5055  0.2748
  807MOL0     N 8860   5.095  -0.406   6.062  0.2017 -1.0766  0.1891
  807MOL0     N 8861   4.973  -0.407   6.114 -0.4332  0.0839 -0.2784
  807MOL0     C 8862   3.868   0.104   5.630 -0.6224  0.5499 -0.0934
  807MOL0     C 8863   3.792   0.211   5.593 -0.0084 -0.3051 -0.7349
  807MOL0     C 8864   3.586   0.606   5.555  0.4721  0.1543  0.4763
  807MOL0     C 8865   3.486   0.635   5.652  0.6029 -0.3348 -0.5915
  807MOL0     C 8866   3.389   0.731   5.625  0.2465 -0.9909  0.0117
  807MOL0     C 8867   3.404   0.818   5.519 -0.2715  0.0622  0.1719
  807MOL0     O 8868   3.320   0.922   5.500  0.2510 -0.4499  0.3970
  807MOL0     C 8869   3.177   0.917   5.519  0.3268 -0.1299  0.4916
  807MOL0     C 8870   3.110   0.970   5.391  0.6921 -0.3412  0.0033
  807MOL0     C 8871   2.964   1.021   5.398  0.2889 -0.1567 -0.4609
  807MOL0     C 8872   2.889   1.031   5.262 -0.1225 -0.2897 -0.8656
  807MOL0     C 8873   2.744   1.010   5.276  0.1715 -0.5218 -0.0023
  807MOL0     C 8874   2.624   1.006   5.295 -0.2250 -0.7732 -0.6267
  807MOL0     C 8875   3.507   0.797   5.435 -0.0134  0.4002  0.0906
  807MOL0     C 8876   3.592   0.691   5.442  0.0788  0.2911 -0.4185
  807MOL0     C 8877   3.694   0.674   5.333  0.0696  0.0836  0.2066
  807MOL0     H 8878   3.660   0.285   5.894  2.4728  2.8340  0.7978
  807MOL0     H 8879   3.785   0.085   5.953 -0.3674  0.6711 -0.2046
  807MOL0     H 8880   4.110  -0.000   5.699 -1.9470  2.7428 -0.3770
  807MOL0     H 8881   4.081   0.093   5.847  1.1129 -0.5068  2.9103
  807MOL0     H 8882   4.153  -0.209   5.827  1.5829 -1.0437  1.9045
  807MOL0     H 8883   4.130  -0.130   5.982 -0.5494  3.0723  0.3340
  807MOL0     H 8884   4.312   0.011   5.934  2.0357  0.2852 -0.6794
  807MOL0     H 8885   4.327  -0.058   5.771 -2.2608 -2.1227 -1.3466
  807MOL0     H 8886   4.360  -0.211   6.046 -0.1707 -0.4933 -0.3999
  807MOL0     H 8887   4.375  -0.287   5.899 -0.6251 -0.3532  0.7587
  807MOL0     H 8888   4.585  -0.178   5.838  0.7896  0.7687  0.7602
  807MOL0     H 8889   4.564  -0.043   5.940 -1.5102  0.3481 -1.3727
  807MOL0     H 8890   4.735  -0.193   6.012 -0.3452  0.2916 -3.7639
  807MOL0     H 8891   4.618  -0.221   6.128  0.2396 -1.1620  0.2169
  807MOL0     H 8892   4.648  -0.386   5.858 -1.1181 -1.0369  0.0910
  807MOL0     H 8893   4.538  -0.436   5.979 -0.6414 -0.4508  0.2501
  807MOL0     H 8894   4.725  -0.471   6.137  0.0715 -0.8068 -0.8394
  807MOL0     H 8895   4.738  -0.572   5.995  2.2381 -0.9105  2.1924
  807MOL0     H 8896   4.922  -0.531   5.820 -1.7725 -4.4043  2.8145
  807MOL0     H 8897   5.215  -0.574   5.821  0.8242 -0.2342  0.9406
  807MOL0     H 8898   5.193  -0.416   5.757  3.2669 -0.6992 -0.6180
  807MOL0     H 8899   5.310  -0.326   5.978  1.2773  3.5326 -3.6701
  807MOL0     H 8900   5.389  -0.481   5.986  0.4938 -0.4970 -1.0305
  807MOL0     H 8901   5.394  -0.322   5.723  0.6770  1.8195  0.8074
  807MOL0     H 8902   5.488  -0.459   5.773 -1.1982 -1.1888 -0.3298
  807MOL0     H 8903   5.506  -0.186   5.910 -0.7127 -0.0736 -1.9787
  807MOL0     H 8904   5.612  -0.259   5.799 -1.0581  1.9579  0.2172
  807MOL0     H 8905   5.826  -0.534   6.021  2.2223 -0.9950 -1.9433
  807MOL0     H 8906   6.048  -0.470   6.088 -1.1022 -0.8700 -0.3923
  807MOL0     H 8907   6.290   0.035   6.004  0.7811 -0.6495 -0.0854
  807MOL0     H 8908   6.527   0.115   6.027 -0.0716  3.2961  0.7429
  807MOL0     H 8909   6.724   0.089   6.450  1.6328  4.3494 -1.4339
  807MOL0     H 8910   6.739  -0.069   6.354 -1.4475 -0.6271 -1.9676
  807MOL0     H 8911   6.948  -0.000   6.416 -1.5834 -2.9098 -0.7141
  807MOL0     H 8912   6.940   0.029   6.238 -0.1192  2.7533 -0.9921
  807MOL0     H 8913   6.895   0.248   6.250 -0.4781 -0.5718 -0.2075
  807MOL0     H 8914   6.917   0.247   6.430 -3.3147 -2.2025  0.1889
  807MOL0     H 8915   7.118   0.193   6.194  1.3444  0.4346 -0.4124
  807MOL0     H 8916   7.175   0.170   6.368 -0.3635 -0.9451  0.3012
  807MOL0     H 8917   7.120   0.410   6.416 -0.2869 -1.6704 -0.1319
  807MOL0     H 8918   7.102   0.433   6.244  1.8034  0.9916 -0.5054
  807MOL0     H 8919   7.344   0.368   6.408  2.1976  0.2285 -0.9240
  807MOL0     H 8920   7.352   0.333   6.228  1.6564  2.1538 -0.1910
  807MOL0     H 8921   7.292   0.595   6.371 -0.4651 -0.5061  0.3021
  807MOL0     H 8922   7.283   0.571   6.195  1.5209  2.3735  0.1116
  807MOL0     H 8923   7.525   0.515   6.189 -1.0150  0.8151 -1.7489
  807MOL0     H 8924   7.489   0.682   6.234 -1.8782  0.4343  0.1778
  807MOL0     H 8925   6.510   0.009   6.429 -0.3641  0.0553 -0.8126
  807MOL0     H 8926   6.284  -0.098   6.402  1.1954 -0.0770  1.5358
  807MOL0     H 8927   5.940  -0.056   6.067 -1.4195  0.7449 -2.5205
  807MOL0     H 8928   5.700  -0.130   6.021 -1.5122 -1.5261 -0.6144
  807MOL0     H 8929   3.916   0.038   5.559  1.3201  2.7200 -0.9590
  807MOL0     H 8930   3.780   0.242   5.490 -5.6056 -1.3837 -0.7688
  807MOL0     H 8931   3.474   0.584   5.747  0.2359  1.8372  0.6132
  807MOL0     H 8932   3.316   0.732   5.705  0.7014 -3.8769  0.5958
  807MOL0     H 8933   3.156   0.993   5.594 -0.1588  1.7857 -1.4690
  807MOL0     H 8934   3.131   0.825   5.558 -0.9730  0.2427 -0.0986
  807MOL0     H 8935   3.109   0.896   5.311 -1.6620 -0.7496  0.3390
  807MOL0     H 8936   3.171   1.054   5.356 -0.7866  0.8929  0.2898
  807MOL0     H 8937   2.960   1.112   5.457  1.0270 -0.0271 -0.5961
  807MOL0     H 8938   2.916   0.944   5.458 -0.7895  2.1605  1.8316
  807MOL0     H 8939   2.898   1.130   5.217 -1.6376 -0.1276 -0.8520
  807MOL0     H 8940   2.926   0.957   5.191  0.9105  0.5536 -1.2301
  807MOL0     H 8941   2.525   1.018   5.333  0.6499  2.6510  0.9658
  807MOL0     H 8942   3.522   0.856   5.346  1.2902  3.3877  2.1277
  807MOL0     H 8943   3.704   0.571   5.295  2.2553  0.6078 -0.8064
  807MOL0     H 8944   3.667   0.738   5.249 -1.4251 -1.6242 -0.7047
  807MOL0     H 8945   3.794   0.700   5.368  0.1246  0.9985 -0.5971
  808MOL0     O 8946   4.127  11.189   6.504  0.1255  0.0604  0.2108
  808MOL0     C 8947   4.094  11.125   6.407 -0.0283 -0.0388  0.4524
  808MOL0     O 8948   4.167  11.025   6.356 -0.1867  0.3309 -0.1551
  808MOL0     C 8949   4.288  10.979   6.409 -0.1283  0.1200  0.8641
  808MOL0     C 8950   4.336  10.861   6.359  0.3545  0.2965  0.7299
  808MOL0     C 8951   4.466  10.824   6.379  0.4964  0.6104 -0.1900
  808MOL0     C 8952   4.553  10.898   6.451  0.3222 -0.2900  0.2116
  808MOL0     O 8953   4.678  10.847   6.454 -0.9507 -0.4785 -0.8307
  808MOL0     C 8954   4.754  10.891   6.571  0.1275 -0.9402 -0.8767
  808MOL0     C 8955   4.892  10.831   6.543  0.1909 -0.7098 -0.4457
  808MOL0     C 8956   4.987  10.901   6.632 -0.8267 -0.3270 -0.1241
  808MOL0     C 8957   5.130  10.840   6.617  0.4307  0.7847 -0.5116
  808MOL0     C 8958   5.220  10.901   6.721  0.3885 -0.1464  0.8275
  808MOL0     C 8959   5.355  10.846   6.717 -0.9992  0.2658 -0.0389
  808MOL0     C 8960   5.459  10.902   6.824  0.0378  0.6751 -0.4868
  808MOL0     C 8961   5.561  10.996   6.772  0.1851 -0.4784  0.6386
  808MOL0     N 8962   5.661  11.024   6.881 -0.7495  0.3970 -0.2268
  808MOL0     C 8963   5.784  10.958   6.910  0.4264  0.0097  0.1173
  808MOL0     C 8964   5.836  11.029   7.008  0.0519  0.1325 -0.3143
  808MOL0     C 8965   5.959  11.006   7.094  0.7376  0.1691  0.4503
  808MOL0     C 8966   6.052  11.130   7.089 -0.4555  0.2024  0.1270
  808MOL0     C 8967   6.089  11.178   7.231 -0.5387  0.3734  0.2236
  808MOL0     C 8968   6.215  11.267   7.233  0.4035  0.1979  0.6009
  808MOL0     O 8969   6.331  11.184   7.196  0.0427  0.4412  0.1504
  808MOL0     C 8970   6.464  11.217   7.197  0.5412 -1.1597 -0.2983
  808MOL0     C 8971   6.546  11.139   7.113  0.2648  0.1406 -0.2954
  808MOL0     C 8972   6.684  11.152   7.117 -0.6433  0.4459 -0.3269
  808MOL0     C 8973   6.743  11.242   7.203  0.1387 -0.3463  0.7162
  808MOL0     C 8974   6.892  11.254   7.215 -0.0945 -0.1007  0.4081
  808MOL0     O 8975   6.976  11.243   7.106 -0.1823  0.4530 -0.2135
  808MOL0     C 8976   7.104  11.278   7.132  1.0708 -0.1700  0.8857
  808MOL0     C 8977   7.192  11.180   7.178  0.0064  0.2661 -0.5180
  808MOL0     C 8978   7.319  11.220   7.210  0.1490 -0.3320 -0.8540
  808MOL0     C 8979   7.364  11.351   7.192  0.5040 -0.7644 -0.2085
  808MOL0     O 8980   7.495  11.372   7.221  0.0739 -0.2256 -0.3096
  808MOL0     C 8981   7.538  11.500   7.264  0.6993  0.0852  0.1867
  808MOL0     C 8982   7.687  11.498   7.283 -0.3385 -0.5746 -0.0199
  808MOL0     C 8983   7.742  11.635   7.315  0.3775  0.5395 -0.3487
  808MOL0     C 8984   7.898  11.649   7.311  1.1371 -0.8432  0.2354
  808MOL0     C 8985   7.941  11.792   7.323  0.2686  0.0776 -0.5751
  808MOL0     C 8986   8.094  11.810   7.326 -0.2263  0.3225  0.1433
  808MOL0     C 8987   8.138  11.952   7.358 -0.4087  0.9946 -0.8278
  808MOL0     C 8988   8.285  11.970   7.325 -0.4860  0.4182  0.6213
  808MOL0    Cl 8989   8.316  11.978   7.144 -0.2519 -0.4259 -0.0572
  808MOL0     C 8990   7.271  11.441   7.143  0.1651  0.0961 -0.5748
  808MOL0     C 8991   7.141  11.406   7.117 -0.6146 -0.3266  0.3191
  808MOL0     O 8992   6.924  11.281   7.327 -0.2168  0.2285  0.5583
  808MOL0     C 8993   6.661  11.325   7.285 -0.0941  0.9889 -0.4082
  808MOL0     C 8994   6.524  11.313   7.285 -0.5111  0.5657  0.2008
  808MOL0     N 8995   5.760  11.138   7.026  0.6502 -0.5210 -0.0956
  808MOL0     N 8996   5.651  11.130   6.959 -0.1942 -0.3712 -0.3481
  808MOL0     C 8997   4.507  11.021   6.499  0.2438  0.3745  0.3331
  808MOL0     C 8998   4.379  11.065   6.477  1.1949 -0.0243  0.1128
  808MOL0     C 8999   3.960  11.146   6.357 -0.2790 -0.1473 -0.9726
  808MOL0     C 9000   3.935  11.123   6.227 -0.4318  0.3538 -0.3080
  808MOL0     C 9001   3.811  11.158   6.168  0.2072  0.1375  0.4453
  808MOL0     C 9002   3.715  11.220   6.241  0.8436 -0.2446 -0.4652
  808MOL0     O 9003   3.613  11.273   6.168  0.6633  0.3710  0.1623
  808MOL0     C 9004   3.519  11.364   6.231 -0.1029  0.8853 -0.2251
  808MOL0     C 9005   3.427  11.422   6.128 -0.8299  0.5239 -0.3200
  808MOL0     C 9006   3.356  11.544   6.173 -0.1807  0.6887  0.3246
  808MOL0     C 9007   3.261  11.593   6.067  0.4907  0.6607  0.4256
  808MOL0     C 9008   3.310  11.622   5.932 -0.4915 -0.8345  0.5313
  808MOL0     C 9009   3.346  11.623   5.821 -0.1897 -0.3992 -0.3597
  808MOL0     C 9010   3.734  11.244   6.375  0.0342  0.2324  0.8637
  808MOL0     C 9011   3.859  11.210   6.435 -0.8154 -0.3621 -0.6052
  808MOL0     C 9012   3.873  11.235   6.584 -0.3600  0.2706  0.3949
  808MOL0     H 9013   4.284  10.801   6.285 -0.0619  2.2391 -0.6389
  808MOL0     H 9014   4.497  10.730   6.334 -1.2294 -0.2350  0.2981
  808MOL0     H 9015   4.763  11.000   6.568  2.8560 -1.0287  0.7646
  808MOL0     H 9016   4.720  10.852   6.668 -0.7505  0.6356 -0.5208
  808MOL0     H 9017   4.912  10.852   6.437 -0.6335 -0.3487 -0.5384
  808MOL0     H 9018   4.894  10.724   6.569  2.2121 -1.3680 -2.8719
  808MOL0     H 9019   4.956  10.890   6.736  1.7266 -4.2835  0.4326
  808MOL0     H 9020   4.993  11.006   6.602  1.9807 -0.0062  1.2168
  808MOL0     H 9021   5.123  10.731   6.627  0.2163  0.8254 -0.1872
  808MOL0     H 9022   5.164  10.866   6.516 -1.2878  0.3472 -1.2397
  808MOL0     H 9023   5.219  11.009   6.704 -0.8951 -0.6067 -2.7050
  808MOL0     H 9024   5.178  10.885   6.821 -1.3990 -1.0265 -0.0328
  808MOL0     H 9025   5.354  10.737   6.722  2.6555  0.1801  2.4710
  808MOL0     H 9026   5.403  10.870   6.621  3.2034 -2.0966  1.2295
  808MOL0     H 9027   5.512  10.825   6.880  0.0716 -0.0492 -1.4846
  808MOL0     H 9028   5.394  10.947   6.900 -0.3607 -1.4188  0.4808
  808MOL0     H 9029   5.619  10.952   6.690  1.3480 -1.5147  1.9787
  808MOL0     H 9030   5.502  11.084   6.743  2.5813  1.5837  1.6252
  808MOL0     H 9031   5.825  10.867   6.868  1.1344  0.4754 -0.2311
  808MOL0     H 9032   5.918  10.981   7.193 -0.2461  0.6761  0.1805
  808MOL0     H 9033   6.009  10.918   7.054  0.8331 -0.5886  2.1322
  808MOL0     H 9034   6.141  11.107   7.029 -0.2735 -1.3802  0.9530
  808MOL0     H 9035   6.010  11.211   7.029 -0.4430 -0.4878 -0.8543
  808MOL0     H 9036   6.106  11.095   7.299  0.4794 -0.4059 -0.9433
  808MOL0     H 9037   5.999  11.225   7.272 -1.2562 -0.7521 -0.0060
  808MOL0     H 9038   6.251  11.303   7.330  3.8045  0.0746 -0.4585
  808MOL0     H 9039   6.199  11.352   7.165 -3.4215 -0.6066  0.2944
  808MOL0     H 9040   6.499  11.061   7.055  2.2472 -0.8266 -0.7164
  808MOL0     H 9041   6.737  11.083   7.052 -2.6989  1.6302 -3.5278
  808MOL0     H 9042   7.164  11.076   7.187  0.0696  0.1725 -1.4045
  808MOL0     H 9043   7.387  11.151   7.261 -0.2677  0.6915  1.1601
  808MOL0     H 9044   7.503  11.576   7.193  1.8476 -0.4724 -1.0151
  808MOL0     H 9045   7.490  11.516   7.361  0.1148 -0.7899  0.0503
  808MOL0     H 9046   7.714  11.425   7.360 -0.5463 -0.8100 -0.1680
  808MOL0     H 9047   7.727  11.457   7.190 -0.1940 -1.0320  0.2472
  808MOL0     H 9048   7.711  11.699   7.232  0.8863  1.6159  0.2803
  808MOL0     H 9049   7.698  11.688   7.399 -3.9608  0.4072 -2.2872
  808MOL0     H 9050   7.930  11.602   7.217  0.9024  0.2503 -0.4178
  808MOL0     H 9051   7.937  11.589   7.393  0.9286 -3.2236 -1.3150
  808MOL0     H 9052   7.909  11.833   7.420  0.2019 -0.0811 -0.5301
  808MOL0     H 9053   7.904  11.859   7.245 -0.9221 -0.2172 -0.2783
  808MOL0     H 9054   8.148  11.756   7.405 -3.4110  1.0993  3.1186
  808MOL0     H 9055   8.128  11.784   7.225 -0.0381  0.9013  0.0541
  808MOL0     H 9056   8.130  11.975   7.465 -1.3305  0.0219 -0.6691
  808MOL0     H 9057   8.088  12.031   7.300 -2.4114  2.4445  2.5540
  808MOL0     H 9058   8.327  12.057   7.375 -2.2182  0.9339  1.2420
  808MOL0     H 9059   8.348  11.890   7.366  0.2724  0.7979  0.2120
  808MOL0     H 9060   7.305  11.543   7.126  0.0266  0.2057 -0.2095
  808MOL0     H 9061   7.068  11.479   7.086  0.2889 -0.3243 -2.0203
  808MOL0     H 9062   6.713  11.392   7.353  1.6378  1.3291 -1.9527
  808MOL0     H 9063   6.450  11.366   7.345 -0.7999  0.0395  0.3172
  808MOL0     H 9064   4.578  11.092   6.541  0.2854  0.3705  0.2686
  808MOL0     H 9065   4.360  11.163   6.518  0.3729  0.0007 -0.2950
  808MOL0     H 9066   4.007  11.072   6.164 -1.0729  1.7771 -2.2793
  808MOL0     H 9067   3.803  11.122   6.066  4.0521  0.9760 -0.3197
  808MOL0     H 9068   3.575  11.438   6.289  0.6884  1.5457 -1.7680
  808MOL0     H 9069   3.467  11.310   6.311  2.1556 -1.7938 -0.4170
  808MOL0     H 9070   3.358  11.344   6.093  0.8784  0.1394 -3.0737
  808MOL0     H 9071   3.499  11.440   6.048  1.8140 -0.3217  1.7172
  808MOL0     H 9072   3.424  11.622   6.208 -0.4727  0.1241  2.2497
  808MOL0     H 9073   3.293  11.519   6.259  0.4013  0.9777  0.8448
  808MOL0     H 9074   3.177  11.525   6.054  2.0402 -1.4006  0.7542
  808MOL0     H 9075   3.218  11.681   6.117 -1.5308  0.5377 -0.9931
  808MOL0     H 9076   3.380  11.622   5.719  2.4684 -2.4444  0.4310
  808MOL0     H 9077   3.650  11.265   6.440 -1.8521 -2.8399 -0.3924
  808MOL0     H 9078   3.954  11.305   6.607 -0.1695 -0.5453  2.4255
  808MOL0     H 9079   3.776  11.277   6.612 -0.9875  0.1150 -1.4266
  808MOL0     H 9080   3.883  11.138   6.633  3.1498  0.5380  0.4289
  809MOL0     O 9081   3.503  11.248   6.813  0.1843 -0.2253  0.0012
  809MOL0     C 9082   3.387  11.282   6.819  0.4930  0.6202 -0.5348
  809MOL0     O 9083   3.348  11.387   6.891  0.2141  0.7238  0.2507
  809MOL0     C 9084   3.439  11.453   6.971  0.1998 -0.3310  0.2364
  809MOL0     C 9085   3.505  11.391   7.074 -0.2546 -0.0011 -0.0125
  809MOL0     C 9086   3.610  11.459   7.146  0.8644  0.5953 -0.0762
  809MOL0     C 9087   3.618  11.595   7.134 -0.0734  0.5096  0.3367
  809MOL0     O 9088   3.709  11.671   7.203  0.6996  0.0647  0.0862
  809MOL0     C 9089   3.812  11.600   7.278  0.3173 -0.0610 -0.1005
  809MOL0     C 9090   3.923  11.695   7.313 -0.0324  0.2544 -0.5571
  809MOL0     C 9091   3.872  11.820   7.377 -0.4169  0.5276 -0.0628
  809MOL0     C 9092   3.983  11.918   7.435  0.1728 -0.1533 -0.2313
  809MOL0     C 9093   4.061  11.986   7.325 -0.9918  0.0186 -0.6822
  809MOL0     C 9094   4.140  12.098   7.401 -0.2456  0.3466  0.5844
  809MOL0     C 9095   4.265  12.139   7.322  0.1424 -1.0952  0.3153
  809MOL0     C 9096   4.333  12.260   7.379 -0.7701  0.2332 -0.3250
  809MOL0     N 9097   4.469  12.285   7.320  1.0600 -0.3209  0.6045
  809MOL0     C 9098   4.501  12.267   7.187  0.6338 -0.6306  0.2667
  809MOL0     C 9099   4.632  12.302   7.177  0.1983  0.5635  0.3457
  809MOL0     C 9100   4.719  12.290   7.049  0.4902  0.5712  0.0509
  809MOL0     C 9101   4.838  12.386   7.055  0.1141 -0.0701 -0.4461
  809MOL0     C 9102   4.808  12.526   7.004  0.4693  0.1807 -0.0217
  809MOL0     C 9103   4.936  12.600   6.977 -0.2504 -0.0713  0.2470
  809MOL0     O 9104   4.989  12.588   6.840  0.7811  0.3637 -0.8591
  809MOL0     C 9105   5.113  12.641   6.819 -0.0943 -0.5737 -0.2254
  809MOL0     C 9106   5.178  12.717   6.917 -0.3125 -0.6075  0.2190
  809MOL0     C 9107   5.298  12.777   6.884 -0.8057  0.3097 -0.1266
  809MOL0     C 9108   5.365  12.747   6.762 -0.0389 -0.1961 -0.5109
  809MOL0     C 9109   5.488  12.819   6.723 -0.4658 -0.2483  0.4881
  809MOL0     O 9110   5.561  12.797   6.605  0.1380 -0.7064 -0.0261
  809MOL0     C 9111   5.687  12.849   6.580 -0.3239  0.9509  0.2471
  809MOL0     C 9112   5.748  12.954   6.649  0.6658 -0.0604 -0.1158
  809MOL0     C 9113   5.860  13.023   6.603 -1.0192  0.6845  0.5613
  809MOL0     C 9114   5.929  12.985   6.484  0.4834  0.2734  0.0751
  809MOL0     O 9115   6.040  13.056   6.454 -0.4562  0.6864  0.5826
  809MOL0     C 9116   6.086  13.044   6.315 -0.4260  0.4892 -0.1239
  809MOL0     C 9117   6.179  13.166   6.302  0.2806  0.3973  0.0353
  809MOL0     C 9118   6.262  13.138   6.174  0.1876 -0.0132 -0.2187
  809MOL0     C 9119   6.335  13.272   6.146  0.2696  0.9692  0.3905
  809MOL0     C 9120   6.413  13.268   6.012  0.2000  0.3029  0.1129
  809MOL0     C 9121   6.469  13.403   6.000 -0.2309 -0.0255  0.3607
  809MOL0     C 9122   6.511  13.431   5.850  0.1787 -0.2174  0.2043
  809MOL0     C 9123   6.605  13.323   5.794 -0.2046  0.3608 -0.0896
  809MOL0    Cl 9124   6.723  13.266   5.917 -0.1391  0.3705  0.6108
  809MOL0     C 9125   5.870  12.875   6.415  0.1335  0.9277  0.2092
  809MOL0     C 9126   5.755  12.803   6.467 -0.0862 -0.0791  1.1703
  809MOL0     O 9127   5.524  12.892   6.821 -0.6167  0.9391  0.2940
  809MOL0     C 9128   5.303  12.656   6.675 -0.0700  0.3511 -0.2260
  809MOL0     C 9129   5.181  12.604   6.703 -0.4702 -0.3870  0.0081
  809MOL0     N 9130   4.680  12.343   7.303 -0.2049 -0.8843 -0.4134
  809MOL0     N 9131   4.579  12.338   7.377 -0.0658  0.0543 -0.2208
  809MOL0     C 9132   3.530  11.661   7.052 -0.5764  0.0114  0.8289
  809MOL0     C 9133   3.451  11.590   6.956  0.3970  0.7908 -0.2992
  809MOL0     C 9134   3.292  11.183   6.762 -0.6478 -0.0415 -0.5702
  809MOL0     C 9135   3.158  11.202   6.794 -0.1180  0.5834  0.5401
  809MOL0     C 9136   3.053  11.139   6.721  0.4173 -0.5613  0.1934
  809MOL0     C 9137   3.080  11.041   6.617  0.2254 -0.4312 -0.3087
  809MOL0     O 9138   2.998  10.961   6.548  0.8629  0.0007  0.1751
  809MOL0     C 9139   2.861  10.942   6.605  0.2353 -0.5240  0.1260
  809MOL0     C 9140   2.762  10.887   6.504 -0.4440 -0.1081  0.2082
  809MOL0     C 9141   2.611  10.914   6.534  0.6003  0.0965 -0.7908
  809MOL0     C 9142   2.522  10.876   6.421  0.5579  0.4767 -0.0356
  809MOL0     C 9143   2.537  10.982   6.316  0.5658  0.6002 -0.0329
  809MOL0     C 9144   2.524  11.074   6.236  0.5137  0.4624  0.6292
  809MOL0     C 9145   3.212  11.015   6.594  0.5866  0.9344  0.0235
  809MOL0     C 9146   3.321  11.083   6.661  0.5884  0.0576  0.8500
  809MOL0     C 9147   3.461  11.033   6.624  0.5275  0.2236  0.2053
  809MOL0     H 9148   3.498  11.283   7.068 -1.9241  0.1378 -1.5526
  809MOL0     H 9149   3.668  11.388   7.206 -1.0535 -1.5897 -0.6639
  809MOL0     H 9150   3.769  11.552   7.366 -3.6809  2.3341 -0.4706
  809MOL0     H 9151   3.854  11.510   7.231  2.9637 -0.7277  3.1899
  809MOL0     H 9152   3.991  11.707   7.229  2.2511  0.3903  1.2097
  809MOL0     H 9153   3.979  11.642   7.391  1.4836  0.1207 -1.7030
  809MOL0     H 9154   3.821  11.777   7.463  1.9080  1.1719  1.7508
  809MOL0     H 9155   3.800  11.880   7.321  1.4009  2.8896 -0.0442
  809MOL0     H 9156   3.927  11.989   7.496  0.8522  1.5626 -1.5479
  809MOL0     H 9157   4.047  11.875   7.513 -0.6068  0.5224  0.8181
  809MOL0     H 9158   4.136  11.923   7.277 -0.9305  0.5162 -1.2508
  809MOL0     H 9159   3.995  12.026   7.247 -0.0420 -0.5240 -1.7966
  809MOL0     H 9160   4.076  12.187   7.407 -2.4819 -1.2714  3.7750
  809MOL0     H 9161   4.175  12.064   7.499 -2.4420  1.1652  1.7223
  809MOL0     H 9162   4.238  12.158   7.218  1.0690  0.8965  0.3836
  809MOL0     H 9163   4.343  12.062   7.324 -1.4828 -2.8120 -0.3455
  809MOL0     H 9164   4.267  12.346   7.361 -1.1579 -0.3946 -2.1943
  809MOL0     H 9165   4.355  12.248   7.485 -0.2093 -1.6219 -0.6089
  809MOL0     H 9166   4.441  12.236   7.101  1.1047  0.2748 -0.4046
  809MOL0     H 9167   4.759  12.190   7.032 -0.2966  0.3853 -0.7454
  809MOL0     H 9168   4.645  12.314   6.972 -1.2388  0.6022  1.6399
  809MOL0     H 9169   4.875  12.394   7.158 -2.6281  1.0825  0.5402
  809MOL0     H 9170   4.912  12.340   6.989 -2.7666 -3.7214 -1.4488
  809MOL0     H 9171   4.741  12.584   7.068  1.6240  1.3226  0.1875
  809MOL0     H 9172   4.762  12.514   6.905  2.2904  1.3885 -1.0861
  809MOL0     H 9173   5.012  12.577   7.052 -1.6295 -2.1233  1.1070
  809MOL0     H 9174   4.911  12.706   6.985 -1.2868 -0.2668 -0.3287
  809MOL0     H 9175   5.146  12.756   7.012  3.2004  2.9973  0.2072
  809MOL0     H 9176   5.332  12.847   6.960 -1.9153 -1.3082  1.9612
  809MOL0     H 9177   5.713  12.978   6.749 -0.9623 -0.2877 -0.6072
  809MOL0     H 9178   5.895  13.104   6.666 -0.7203 -1.0356  2.7213
  809MOL0     H 9179   6.138  12.950   6.296 -1.2738  0.2994 -1.6732
  809MOL0     H 9180   5.993  13.043   6.256 -0.1467 -0.0158 -0.5578
  809MOL0     H 9181   6.110  13.250   6.297 -1.3865 -0.9875 -1.5859
  809MOL0     H 9182   6.242  13.172   6.391 -2.7007 -1.0861  2.4006
  809MOL0     H 9183   6.332  13.059   6.203  0.1017  0.0735  0.2348
  809MOL0     H 9184   6.197  13.106   6.092 -0.4581  2.3544 -0.6998
  809MOL0     H 9185   6.404  13.295   6.227  3.5691 -0.0976 -1.9074
  809MOL0     H 9186   6.259  13.350   6.145 -0.6925  0.0692 -1.2940
  809MOL0     H 9187   6.346  13.240   5.931 -3.1956  2.7184  1.8546
  809MOL0     H 9188   6.497  13.198   6.012  0.2493  0.3548  0.7500
  809MOL0     H 9189   6.390  13.475   6.023 -2.4476 -2.0370 -0.5529
  809MOL0     H 9190   6.555  13.411   6.067 -0.8450 -0.7434  1.2685
  809MOL0     H 9191   6.568  13.524   5.858 -1.7802  0.8590  4.4750
  809MOL0     H 9192   6.434  13.456   5.776 -0.9093  2.7025  2.1539
  809MOL0     H 9193   6.550  13.237   5.756 -0.4595 -0.5715  2.2286
  809MOL0     H 9194   6.648  13.358   5.700  1.5021 -0.1607  0.4541
  809MOL0     H 9195   5.929  12.835   6.333 -0.1548  0.0911  0.4011
  809MOL0     H 9196   5.718  12.720   6.409 -1.3454  1.7558 -0.8267
  809MOL0     H 9197   5.362  12.653   6.583 -0.4499 -0.0219 -0.4582
  809MOL0     H 9198   5.131  12.546   6.627 -1.6381 -2.3424  2.1295
  809MOL0     H 9199   3.522  11.768   7.037 -0.0452  0.1397  1.4320
  809MOL0     H 9200   3.393  11.629   6.873  1.2280 -1.6975 -2.1282
  809MOL0     H 9201   3.125  11.265   6.875 -2.2364  0.7094 -0.3475
  809MOL0     H 9202   2.957  11.163   6.766  1.1696  0.8049  1.1466
  809MOL0     H 9203   2.817  11.037   6.638  0.2242  0.2227 -1.8585
  809MOL0     H 9204   2.872  10.870   6.686  1.8269  0.0298  0.4374
  809MOL0     H 9205   2.774  10.782   6.476 -0.9795  0.5408 -2.7547
  809MOL0     H 9206   2.789  10.937   6.411  0.3968 -1.0247 -0.0545
  809MOL0     H 9207   2.589  11.016   6.568 -2.2115 -0.3143 -1.1434
  809MOL0     H 9208   2.594  10.849   6.620  0.7207  0.4827 -0.4701
  809MOL0     H 9209   2.560  10.790   6.365  0.4765 -0.6016  1.5104
  809MOL0     H 9210   2.426  10.855   6.469  0.8452  0.5653  0.5851
  809MOL0     H 9211   2.507  11.156   6.169  0.2434 -0.6284 -0.6837
  809MOL0     H 9212   3.233  10.939   6.520  0.9658  2.6126 -1.6800
  809MOL0     H 9213   3.516  11.119   6.585  0.9929 -0.5141 -0.8190
  809MOL0     H 9214   3.516  11.009   6.716  1.9386  0.5663 -0.5195
  809MOL0     H 9215   3.471  10.952   6.551  1.4599 -0.3403  0.9235
  810MOL0     O 9216   5.649   9.620   6.794  0.0470  0.1652 -0.1104
  810MOL0     C 9217   5.611   9.685   6.705 -0.4620 -1.0726 -0.0688
  810MOL0     O 9218   5.689   9.760   6.619 -0.5234  0.5373  0.5219
  810MOL0     C 9219   5.820   9.780   6.641 -0.0642  0.5516 -0.4744
  810MOL0     C 9220   5.887   9.797   6.769  0.1180 -1.1922 -0.0176
  810MOL0     C 9221   6.026   9.828   6.781  0.2555 -0.3730  0.2893
  810MOL0     C 9222   6.101   9.851   6.662  0.2806 -0.1248 -0.1194
  810MOL0     O 9223   6.238   9.885   6.682 -0.7512  0.5784 -0.1254
  810MOL0     C 9224   6.334   9.808   6.608 -0.2377  0.2967  0.2808
  810MOL0     C 9225   6.448   9.776   6.699 -0.3189 -0.1804  0.2748
  810MOL0     C 9226   6.567   9.707   6.627 -0.2025  0.6703  0.4262
  810MOL0     C 9227   6.643   9.809   6.535  0.6161 -1.0144  0.7113
  810MOL0     C 9228   6.777   9.749   6.495  0.3452 -0.1561  0.1684
  810MOL0     C 9229   6.854   9.858   6.413  0.1827  0.6529  0.0263
  810MOL0     C 9230   6.968   9.804   6.344 -0.1833  0.2332 -0.2697
  810MOL0     C 9231   7.090   9.807   6.429 -0.0824  0.0200  0.5859
  810MOL0     N 9232   7.210   9.775   6.359 -0.5277  0.3826 -0.1377
  810MOL0     C 9233   7.298   9.674   6.390 -1.2239  0.6643 -0.1502
  810MOL0     C 9234   7.404   9.704   6.311 -1.0428  0.9824 -0.7084
  810MOL0     C 9235   7.526   9.625   6.302  0.3975  0.0677  0.5356
  810MOL0     C 9236   7.660   9.709   6.335  0.2803 -0.2975 -0.1321
  810MOL0     C 9237   7.770   9.611   6.373  0.0487  0.4966 -0.7589
  810MOL0     C 9238   7.904   9.661   6.423 -0.5978 -0.2544 -0.8190
  810MOL0     O 9239   7.950   9.751   6.324 -0.2026 -0.1466 -0.3870
  810MOL0     C 9240   8.075   9.807   6.333  0.6675 -1.0655  0.7223
  810MOL0     C 9241   8.113   9.896   6.225 -0.7337  0.5993 -0.1315
  810MOL0     C 9242   8.243   9.959   6.233 -0.0122  0.0637 -0.4273
  810MOL0     C 9243   8.324   9.935   6.343  0.6193  0.2771 -0.0333
  810MOL0     C 9244   8.454  10.001   6.353 -0.4483 -1.1209  0.4506
  810MOL0     O 9245   8.493  10.086   6.256 -0.4219  0.1889  0.0707
  810MOL0     C 9246   8.627  10.106   6.251 -0.3524 -0.0868 -0.9134
  810MOL0     C 9247   8.712  10.020   6.183 -0.1364  0.1178  0.4920
  810MOL0     C 9248   8.855  10.046   6.167  0.4523 -0.0067 -0.8372
  810MOL0     C 9249   8.910  10.155   6.237  0.7738 -0.1031 -0.2314
  810MOL0     O 9250   9.046  10.176   6.226  0.6360 -0.3062  0.4743
  810MOL0     C 9251   9.117  10.223   6.337  0.2396 -0.1177  0.1107
  810MOL0     C 9252   9.265  10.239   6.308 -0.7961  0.2417 -0.0198
  810MOL0     C 9253   9.320  10.117   6.237 -1.1742 -0.2288  0.5835
  810MOL0     C 9254   9.303   9.994   6.321  0.4124 -0.4641 -0.3990
  810MOL0     C 9255   9.376   9.878   6.266 -0.1842  0.0483 -0.6951
  810MOL0     C 9256   9.349   9.747   6.342  0.6418 -0.6082  0.1629
  810MOL0     C 9257   9.375   9.755   6.490  0.2715 -0.0777 -0.3043
  810MOL0     C 9258   9.336   9.623   6.547  0.0837  0.4628  0.1033
  810MOL0    Cl 9259   9.355   9.596   6.728 -0.0616  0.2723  0.0846
  810MOL0     C 9260   8.826  10.247   6.312  0.6801  0.1556  0.1518
  810MOL0     C 9261   8.684  10.229   6.313 -0.2230  0.7843  0.6151
  810MOL0     O 9262   8.519   9.986   6.457 -0.5318 -0.1207 -0.5946
  810MOL0     C 9263   8.284   9.846   6.445 -0.0297  0.7830  0.5338
  810MOL0     C 9264   8.163   9.788   6.439  0.5943  0.3224  0.4500
  810MOL0     N 9265   7.380   9.819   6.237  0.1737  0.9400  0.1901
  810MOL0     N 9266   7.263   9.853   6.258 -0.3000  0.0278  0.3909
  810MOL0     C 9267   6.036   9.824   6.537 -0.4032  0.1658  0.0125
  810MOL0     C 9268   5.903   9.787   6.524 -0.4686  0.5416  0.1589
  810MOL0     C 9269   5.463   9.696   6.693 -1.4106 -0.3957  0.0060
  810MOL0     C 9270   5.391   9.775   6.778 -0.0559  0.6547  0.0128
  810MOL0     C 9271   5.252   9.797   6.771  0.7283 -0.0275  0.5546
  810MOL0     C 9272   5.180   9.742   6.667  0.8166 -0.4647 -0.0697
  810MOL0     O 9273   5.045   9.734   6.673  0.5364 -0.4292 -0.3455
  810MOL0     C 9274   4.968   9.847   6.723  0.4039  0.0079 -0.1935
  810MOL0     C 9275   4.960   9.959   6.619 -0.5560  0.0280 -1.1729
  810MOL0     C 9276   4.863   9.930   6.501 -0.4149  0.1105 -0.3405
  810MOL0     C 9277   4.850  10.059   6.416 -0.2378  0.3289  0.4925
  810MOL0     C 9278   4.940  10.057   6.303  0.2731 -0.3875  1.2283
  810MOL0     C 9279   5.026  10.073   6.224  0.3798 -0.7476  0.2056
  810MOL0     C 9280   5.246   9.680   6.566 -0.7858  0.0353 -0.7807
  810MOL0     C 9281   5.386   9.656   6.578 -0.1340 -0.1507 -0.2708
  810MOL0     C 9282   5.460   9.605   6.460  0.1643  0.4455  0.7877
  810MOL0     H 9283   5.826   9.796   6.858  0.0101  1.1116 -0.0040
  810MOL0     H 9284   6.073   9.834   6.879  1.2654 -2.8734  0.0474
  810MOL0     H 9285   6.293   9.716   6.565  2.0971 -1.5345  1.6818
  810MOL0     H 9286   6.360   9.878   6.527  0.1298 -2.0418 -1.7654
  810MOL0     H 9287   6.416   9.715   6.784  1.0933 -1.2749  0.0647
  810MOL0     H 9288   6.486   9.869   6.743  0.6181 -1.9652  3.5541
  810MOL0     H 9289   6.525   9.628   6.564  1.7931  0.1563 -0.3248
  810MOL0     H 9290   6.629   9.672   6.710 -0.6790  2.1845  1.4675
  810MOL0     H 9291   6.589   9.834   6.444  0.3099 -3.4453  0.1374
  810MOL0     H 9292   6.674   9.897   6.591 -1.3374 -0.7158  1.3985
  810MOL0     H 9293   6.837   9.720   6.582 -0.3716 -0.1213  0.6819
  810MOL0     H 9294   6.769   9.657   6.435 -0.4267  0.5695 -0.8730
  810MOL0     H 9295   6.783   9.892   6.337 -1.3957  0.3074  1.2771
  810MOL0     H 9296   6.894   9.936   6.478  4.8085 -0.9447 -0.5593
  810MOL0     H 9297   6.999   9.861   6.256  0.7546 -1.1005 -0.8458
  810MOL0     H 9298   6.940   9.708   6.299 -1.4648 -1.0546  2.9371
  810MOL0     H 9299   7.102   9.904   6.478 -0.1291 -0.7351  2.1591
  810MOL0     H 9300   7.079   9.736   6.511  0.0060 -1.4795 -0.6561
  810MOL0     H 9301   7.286   9.588   6.455 -2.6149  1.1816  0.3025
  810MOL0     H 9302   7.520   9.526   6.350  1.1332  0.9412  2.5423
  810MOL0     H 9303   7.534   9.597   6.196 -0.4575 -1.7898  0.9118
  810MOL0     H 9304   7.700   9.766   6.251  1.3691 -1.2964 -0.3141
  810MOL0     H 9305   7.657   9.769   6.426 -0.3176  0.9790 -0.9626
  810MOL0     H 9306   7.801   9.554   6.285  0.9609  1.2566 -0.9449
  810MOL0     H 9307   7.737   9.529   6.438 -0.3963  1.4228  0.2192
  810MOL0     H 9308   7.986   9.590   6.431  0.4173  1.0664  1.7563
  810MOL0     H 9309   7.889   9.702   6.523  2.4456 -1.2228  0.1276
  810MOL0     H 9310   8.049   9.906   6.138 -1.4081  2.4461  0.5239
  810MOL0     H 9311   8.292   9.994   6.142  2.6681 -1.0563  0.4837
  810MOL0     H 9312   8.674   9.937   6.125  0.3710  0.9130 -1.0305
  810MOL0     H 9313   8.920   9.983   6.107  1.1175 -1.8070  1.6042
  810MOL0     H 9314   9.087  10.322   6.373  1.5717 -0.4160  2.2203
  810MOL0     H 9315   9.104  10.151   6.419  0.5762 -1.7845 -1.2527
  810MOL0     H 9316   9.290  10.331   6.256  0.8568  0.7245  1.5216
  810MOL0     H 9317   9.321  10.258   6.400  0.3238  1.2921 -0.9024
  810MOL0     H 9318   9.277  10.091   6.139  0.3523 -0.8597  0.0563
  810MOL0     H 9319   9.424  10.141   6.216 -0.9329 -0.8052  1.0947
  810MOL0     H 9320   9.198   9.967   6.327  0.1369  0.1173 -2.0514
  810MOL0     H 9321   9.350  10.015   6.417  0.1872 -0.9852 -0.1744
  810MOL0     H 9322   9.480   9.910   6.260 -0.5171  1.4133  0.3465
  810MOL0     H 9323   9.341   9.859   6.164 -3.0689 -0.8033  0.3462
  810MOL0     H 9324   9.244   9.725   6.325  0.9842 -2.0077 -0.3223
  810MOL0     H 9325   9.395   9.658   6.297  1.8063  0.6984 -1.3332
  810MOL0     H 9326   9.313   9.838   6.526 -0.3084  0.1246 -1.6883
  810MOL0     H 9327   9.479   9.778   6.514 -0.4223  3.8340 -0.3304
  810MOL0     H 9328   9.229   9.608   6.532  0.0099 -1.3831  1.9606
  810MOL0     H 9329   9.387   9.539   6.498 -0.1798  1.1282 -1.3640
  810MOL0     H 9330   8.862  10.337   6.361 -0.7894 -0.1600  1.9283
  810MOL0     H 9331   8.623  10.305   6.361 -0.4339 -0.5662  2.6145
  810MOL0     H 9332   8.348   9.815   6.527 -1.3195  2.5553  2.3302
  810MOL0     H 9333   8.127   9.738   6.529 -0.8626 -0.5373 -0.5651
  810MOL0     H 9334   6.096   9.824   6.447  0.6136 -1.0048  0.6550
  810MOL0     H 9335   5.857   9.768   6.427  4.1702 -2.7853 -1.7788
  810MOL0     H 9336   5.448   9.811   6.864  1.3318 -4.0169  1.3326
  810MOL0     H 9337   5.209   9.850   6.855 -2.7972 -3.2043  1.0539
  810MOL0     H 9338   5.011   9.885   6.817  1.0885  2.6547 -1.4728
  810MOL0     H 9339   4.867   9.809   6.740  1.0480 -1.3615  0.7873
  810MOL0     H 9340   5.061   9.974   6.580 -0.7508 -1.1055 -2.1728
  810MOL0     H 9341   4.919  10.047   6.671  0.0405  0.3746 -1.2806
  810MOL0     H 9342   4.765   9.909   6.543  0.4542 -0.8371  1.3245
  810MOL0     H 9343   4.910   9.849   6.444  1.1447  1.0474 -0.4595
  810MOL0     H 9344   4.747  10.065   6.380 -0.2714  0.2918  0.5832
  810MOL0     H 9345   4.878  10.146   6.476 -0.1511  0.9855 -0.4708
  810MOL0     H 9346   5.110  10.088   6.159  2.4547  3.3352  3.3077
  810MOL0     H 9347   5.192   9.629   6.487 -1.4296  1.1851 -1.0929
  810MOL0     H 9348   5.399   9.562   6.380  3.4369 -1.3397 -0.9551
  810MOL0     H 9349   5.518   9.691   6.423 -0.0323 -0.2640 -1.3132
  810MOL0     H 9350   5.532   9.526   6.486 -0.6572 -0.1679  1.2242
  811MOL0     O 9351   2.660   8.961  10.674 -0.3506  0.7651 -0.3592
  811MOL0     C 9352   2.598   8.952  10.568 -0.2118 -0.0300 -1.2668
  811MOL0     O 9353   2.654   8.934  10.442 -0.8969  0.6873 -0.3347
  811MOL0     C 9354   2.784   8.912  10.421 -0.0611  0.1420 -0.5104
  811MOL0     C 9355   2.831   8.937  10.294  0.3467 -0.6107  0.3052
  811MOL0     C 9356   2.958   8.905  10.249 -0.1787  0.5550 -0.5533
  811MOL0     C 9357   3.046   8.850  10.345  0.7878 -0.2513  0.0524
  811MOL0     O 9358   3.167   8.787  10.313 -0.1948 -0.1778 -0.4710
  811MOL0     C 9359   3.243   8.844  10.202  0.1805 -0.0821 -0.1670
  811MOL0     C 9360   3.295   8.982  10.246  0.0643 -0.9608  0.5144
  811MOL0     C 9361   3.403   8.964  10.362  0.3951  0.1804 -0.1921
  811MOL0     C 9362   3.469   9.089  10.382  0.6480  0.2596 -0.0629
  811MOL0     C 9363   3.546   9.086  10.513  0.8695  0.6330  0.3430
  811MOL0     C 9364   3.667   8.995  10.501 -0.4733  0.0839 -0.2564
  811MOL0     C 9365   3.730   8.955  10.638  0.0843 -0.1372 -0.6484
  811MOL0     C 9366   3.832   9.066  10.688 -0.5436  0.0855  0.2286
  811MOL0     N 9367   3.946   9.068  10.597  0.3599 -0.3172 -0.6253
  811MOL0     C 9368   4.011   8.962  10.538 -0.4483  0.1983 -0.8270
  811MOL0     C 9369   4.079   9.021  10.434 -0.2884 -0.0851  0.7242
  811MOL0     C 9370   4.149   8.936  10.325  0.2632 -0.0659 -0.4515
  811MOL0     C 9371   4.272   8.868  10.372 -0.3694  0.6626 -0.4458
  811MOL0     C 9372   4.375   8.855  10.259 -0.0265 -0.2671 -0.9239
  811MOL0     C 9373   4.499   8.793  10.306 -0.1161  0.4940 -0.2521
  811MOL0     O 9374   4.536   8.848  10.429 -0.4085  0.5313  0.3324
  811MOL0     C 9375   4.633   8.788  10.510  0.0425  0.0752  0.2430
  811MOL0     C 9376   4.744   8.717  10.464  0.1208 -0.3389 -0.0744
  811MOL0     C 9377   4.827   8.662  10.564  0.3305  0.0969  0.1415
  811MOL0     C 9378   4.802   8.672  10.704 -0.2792  0.0662  0.0489
  811MOL0     C 9379   4.888   8.596  10.799 -0.1703 -0.2615  0.0837
  811MOL0     O 9380   4.827   8.553  10.913  0.4777 -0.0562  0.5851
  811MOL0     C 9381   4.895   8.499  11.010  0.8947  0.3926 -0.2827
  811MOL0     C 9382   4.810   8.420  11.097  0.4671 -0.1874 -0.2733
  811MOL0     C 9383   4.860   8.358  11.209  0.5679 -0.2529 -0.6332
  811MOL0     C 9384   4.993   8.370  11.233 -0.4491  0.2033 -0.3972
  811MOL0     O 9385   5.056   8.293  11.332  0.1949  0.0161  0.0338
  811MOL0     C 9386   5.201   8.294  11.347 -0.9466 -0.0825  0.8314
  811MOL0     C 9387   5.240   8.187  11.446 -0.2835  0.4213  0.1307
  811MOL0     C 9388   5.185   8.051  11.424  0.5533 -0.5606  0.6678
  811MOL0     C 9389   5.273   7.968  11.522  0.6426  0.1669  0.0043
  811MOL0     C 9390   5.266   7.822  11.477  1.3609 -0.4117 -0.9849
  811MOL0     C 9391   5.134   7.754  11.526  0.2359 -0.5062  0.3066
  811MOL0     C 9392   5.123   7.752  11.682 -0.1519 -0.0534  0.4114
  811MOL0     C 9393   4.986   7.715  11.725 -0.0840  0.4783 -0.0877
  811MOL0    Cl 9394   4.950   7.541  11.685  0.0273  0.1792  0.1209
  811MOL0     C 9395   5.068   8.465  11.166  0.3710 -0.3824 -0.1660
  811MOL0     C 9396   5.019   8.532  11.060 -0.2172  0.0703 -0.3488
  811MOL0     O 9397   5.008   8.587  10.776  0.0861 -0.2828 -0.2029
  811MOL0     C 9398   4.691   8.741  10.742  0.0700  0.0192 -0.5685
  811MOL0     C 9399   4.620   8.812  10.646 -0.8111  0.9283 -0.5826
  811MOL0     N 9400   4.068   9.159  10.440  0.2302  0.5372  0.9197
  811MOL0     N 9401   3.974   9.182  10.526 -0.1849  1.2309 -0.5195
  811MOL0     C 9402   3.005   8.840  10.480  0.2356  1.1893  0.6227
  811MOL0     C 9403   2.873   8.860  10.513 -0.4569 -0.4284 -0.1218
  811MOL0     C 9404   2.455   8.967  10.581  0.5752 -0.1653 -0.0499
  811MOL0     C 9405   2.400   9.042  10.682 -0.2575  0.0190 -0.0610
  811MOL0     C 9406   2.265   9.059  10.693 -0.8664 -0.4607  0.2729
  811MOL0     C 9407   2.168   9.009  10.601 -0.6631 -0.6388  0.1238
  811MOL0     O 9408   2.035   9.035  10.598 -0.0762  0.6945  0.5097
  811MOL0     C 9409   1.966   9.093  10.707 -0.2827 -0.1173  0.3525
  811MOL0     C 9410   1.815   9.108  10.680  0.4377  0.6164  0.5071
  811MOL0     C 9411   1.756   9.204  10.780  0.3781 -0.8118 -0.0741
  811MOL0     C 9412   1.605   9.196  10.788  0.8253 -0.4992  0.2312
  811MOL0     C 9413   1.532   9.226  10.663 -0.1914  0.6066  0.6576
  811MOL0     C 9414   1.466   9.228  10.564 -0.3994 -0.9267  0.2941
  811MOL0     C 9415   2.222   8.943  10.493 -0.0618 -1.4452 -0.7272
  811MOL0     C 9416   2.360   8.914  10.490 -0.2563 -0.1600 -0.1382
  811MOL0     C 9417   2.393   8.822  10.381  0.2165  0.6602 -0.8682
  811MOL0     H 9418   2.755   8.975  10.227  1.0222  4.1648  1.8307
  811MOL0     H 9419   2.987   8.923  10.146  1.9539 -1.3481 -0.3707
  811MOL0     H 9420   3.334   8.789  10.173  0.7034 -0.1584  1.5102
  811MOL0     H 9421   3.174   8.850  10.118 -2.0840 -0.4837  1.5642
  811MOL0     H 9422   3.215   9.051  10.274  3.3015  1.1484  6.4582
  811MOL0     H 9423   3.351   9.016  10.159  2.0573 -3.3089  0.7355
  811MOL0     H 9424   3.475   8.886  10.337 -0.2080 -0.2206 -0.7190
  811MOL0     H 9425   3.337   8.940  10.446  0.3744  4.7961  1.3879
  811MOL0     H 9426   3.542   9.114  10.305 -0.6891  0.8776 -1.1670
  811MOL0     H 9427   3.395   9.170  10.383  0.3048  0.2083 -4.4907
  811MOL0     H 9428   3.569   9.184  10.556 -0.7093  1.3064 -0.2809
  811MOL0     H 9429   3.485   9.029  10.583 -0.7267  1.0374 -0.6779
  811MOL0     H 9430   3.654   8.897  10.454  1.2658 -1.2779  1.9314
  811MOL0     H 9431   3.744   9.045  10.441  0.4160 -1.7935 -0.7531
  811MOL0     H 9432   3.791   8.865  10.637  2.2436  1.2040  0.6794
  811MOL0     H 9433   3.651   8.948  10.713 -0.8850  1.5400 -1.4539
  811MOL0     H 9434   3.782   9.162  10.680  0.2050  0.3429 -3.0962
  811MOL0     H 9435   3.866   9.056  10.791  0.8779 -1.2985 -0.3249
  811MOL0     H 9436   3.985   8.857  10.552 -0.2936  0.1847 -0.6422
  811MOL0     H 9437   4.078   8.859  10.294  0.2791  0.6015 -2.2734
  811MOL0     H 9438   4.176   8.997  10.238  1.2011  0.2979  0.0830
  811MOL0     H 9439   4.319   8.928  10.451  0.6340  3.4882 -2.9741
  811MOL0     H 9440   4.247   8.767  10.407  0.4380  0.8514  0.7712
  811MOL0     H 9441   4.396   8.955  10.221 -1.4612 -1.0722 -4.1307
  811MOL0     H 9442   4.343   8.799  10.171  1.4030 -0.3904 -1.3900
  811MOL0     H 9443   4.570   8.804  10.224  2.1166 -3.5060  0.9010
  811MOL0     H 9444   4.490   8.684  10.316  0.6380  0.5415  1.1557
  811MOL0     H 9445   4.769   8.708  10.359  2.0041 -0.4985  0.3580
  811MOL0     H 9446   4.916   8.607  10.533  0.9988  0.6944  0.9357
  811MOL0     H 9447   4.705   8.401  11.079 -0.1731  1.6883  1.1690
  811MOL0     H 9448   4.799   8.290  11.268 -0.0387 -0.4615 -1.4800
  811MOL0     H 9449   5.251   8.277  11.251  1.3910 -1.4133  2.1800
  811MOL0     H 9450   5.241   8.388  11.387  0.4651 -1.1582  2.0983
  811MOL0     H 9451   5.348   8.203  11.443 -0.4526  1.6284 -1.2298
  811MOL0     H 9452   5.211   8.223  11.545  1.5030 -1.5178  1.4453
  811MOL0     H 9453   5.080   8.058  11.452  0.6291 -0.2747  0.8843
  811MOL0     H 9454   5.202   8.014  11.322  0.6141  2.4344 -0.5285
  811MOL0     H 9455   5.228   7.980  11.621 -1.2321 -2.2257 -0.4531
  811MOL0     H 9456   5.374   8.009  11.526  1.9332 -2.5474 -1.8621
  811MOL0     H 9457   5.351   7.770  11.524  0.1659 -1.4363  0.1391
  811MOL0     H 9458   5.275   7.807  11.369  0.4438  1.9066 -1.4280
  811MOL0     H 9459   5.052   7.820  11.495  0.4708 -0.1224  0.4929
  811MOL0     H 9460   5.120   7.663  11.468  0.6984 -0.9963  0.9493
  811MOL0     H 9461   5.148   7.846  11.732  0.1370 -0.1759  0.5010
  811MOL0     H 9462   5.190   7.671  11.711  0.5438  0.9096  1.5854
  811MOL0     H 9463   4.983   7.727  11.834  1.2302  0.9508 -0.0909
  811MOL0     H 9464   4.910   7.774  11.672  0.2287  0.4458 -0.5741
  811MOL0     H 9465   5.172   8.480  11.192 -0.6510  3.7388  2.4133
  811MOL0     H 9466   5.082   8.608  11.016 -0.4964  1.6422  1.8214
  811MOL0     H 9467   4.666   8.764  10.845 -4.0122 -1.5406 -1.0351
  811MOL0     H 9468   4.536   8.871  10.682  0.1437  2.2338 -0.4416
  811MOL0     H 9469   3.079   8.815  10.555 -0.6607  0.4384  1.2761
  811MOL0     H 9470   2.839   8.845  10.615 -1.6399  3.4677  0.2394
  811MOL0     H 9471   2.471   9.084  10.753  0.5343 -3.0737  1.1486
  811MOL0     H 9472   2.220   9.114  10.776 -1.4399 -3.7580  2.3613
  811MOL0     H 9473   2.004   9.194  10.727 -0.8812  0.6402 -2.0546
  811MOL0     H 9474   1.986   9.031  10.795 -3.1926 -0.2561  1.0232
  811MOL0     H 9475   1.782   9.004  10.687  1.8220  0.1260  0.1474
  811MOL0     H 9476   1.805   9.146  10.578 -0.8536  0.8935  0.7238
  811MOL0     H 9477   1.781   9.309  10.761  2.5924 -0.8595  2.2016
  811MOL0     H 9478   1.799   9.183  10.878 -1.8341  0.5045  1.2550
  811MOL0     H 9479   1.573   9.094  10.812 -0.4386  0.1149  1.3064
  811MOL0     H 9480   1.555   9.239  10.875 -0.4708  2.1856 -1.6736
  811MOL0     H 9481   1.412   9.234  10.471 -0.3401  1.2898  0.3429
  811MOL0     H 9482   2.152   8.910  10.416 -0.5014  1.7607 -1.8672
  811MOL0     H 9483   2.430   8.881  10.297 -0.5333  0.9053 -1.0338
  811MOL0     H 9484   2.454   8.741  10.420 -0.2207  1.4714  1.7353
  811MOL0     H 9485   2.301   8.770  10.353  1.1098 -1.4316 -0.0620
  812MOL0     O 9486   0.145   5.944   5.838 -0.2666  0.2941  0.3911
  812MOL0     C 9487   0.189   6.057   5.852  0.4814 -0.7334 -0.2652
  812MOL0     O 9488   0.290   6.114   5.781  0.4192 -0.2650  1.3353
  812MOL0     C 9489   0.357   6.032   5.693  0.2373 -0.5433  0.6261
  812MOL0     C 9490   0.295   5.962   5.591  0.1751 -0.3567  0.4169
  812MOL0     C 9491   0.367   5.881   5.505  0.4368  0.0424 -0.2608
  812MOL0     C 9492   0.504   5.862   5.525 -0.4733  0.6635 -0.1094
  812MOL0     O 9493   0.571   5.791   5.430 -0.5201  0.6232  0.8836
  812MOL0     C 9494   0.688   5.721   5.466  0.6531 -0.0365 -0.1818
  812MOL0     C 9495   0.713   5.605   5.362  0.2517  0.0563 -0.7169
  812MOL0     C 9496   0.858   5.553   5.382 -0.4408 -0.5494  0.6186
  812MOL0     C 9497   0.861   5.408   5.319 -0.5271  0.1460  0.4064
  812MOL0     C 9498   0.991   5.338   5.367  0.3690  0.8994 -0.5992
  812MOL0     C 9499   0.984   5.193   5.316  0.7165  0.1156  0.4097
  812MOL0     C 9500   1.128   5.124   5.322 -0.3004 -0.2803 -0.0857
  812MOL0     C 9501   1.150   4.970   5.330 -0.2864  0.0613 -0.7351
  812MOL0     N 9502   1.111   4.901   5.211 -0.0045 -0.1106  0.2061
  812MOL0     C 9503   1.191   4.885   5.098  0.2966 -0.5943  0.1882
  812MOL0     C 9504   1.130   4.786   5.020 -0.1079  0.5868 -0.8276
  812MOL0     C 9505   1.164   4.729   4.893  0.1705 -0.5012  0.0640
  812MOL0     C 9506   1.234   4.832   4.794 -0.1033 -0.4771 -0.0083
  812MOL0     C 9507   1.248   4.769   4.655  0.3363  0.2490  0.9502
  812MOL0     C 9508   1.164   4.851   4.554  0.3363 -0.5477  0.1967
  812MOL0     O 9509   1.227   4.980   4.535  0.3454  0.2031  0.4654
  812MOL0     C 9510   1.343   4.986   4.465  0.4539 -0.1245  0.1505
  812MOL0     C 9511   1.403   4.884   4.385  1.2134  0.5971  0.2634
  812MOL0     C 9512   1.522   4.901   4.329  0.2593  0.4550 -0.1334
  812MOL0     C 9513   1.607   5.007   4.351 -0.3833  0.0392 -0.2291
  812MOL0     C 9514   1.744   5.029   4.297 -1.1606  0.5900  0.1156
  812MOL0     O 9515   1.783   4.952   4.196  0.2033  0.2298  0.6759
  812MOL0     C 9516   1.922   4.929   4.179  0.3255 -0.2729 -0.6539
  812MOL0     C 9517   1.961   4.797   4.188 -0.8953  0.4335  0.3283
  812MOL0     C 9518   2.092   4.759   4.169  0.2225  0.1280 -0.2119
  812MOL0     C 9519   2.190   4.865   4.156 -0.4465 -0.3007 -0.0711
  812MOL0     O 9520   2.329   4.834   4.155 -0.1290 -0.3457 -0.1139
  812MOL0     C 9521   2.415   4.940   4.116  0.6405 -0.7564  0.9044
  812MOL0     C 9522   2.552   4.875   4.094 -0.1791 -0.4043  0.6021
  812MOL0     C 9523   2.663   4.976   4.051 -0.5789 -0.0455  0.5858
  812MOL0     C 9524   2.765   4.900   3.961  0.1224  0.6280  0.2539
  812MOL0     C 9525   2.888   4.994   3.940  0.1142  0.1318  0.2144
  812MOL0     C 9526   2.997   4.933   3.861 -0.1233  0.3246  0.5513
  812MOL0     C 9527   3.094   5.031   3.800  0.6254 -0.5034 -0.2152
  812MOL0     C 9528   3.200   4.966   3.711  0.6058  0.7196  0.3144
  812MOL0    Cl 9529   3.324   5.080   3.670  1.1077 -0.4972  0.2260
  812MOL0     C 9530   2.150   5.004   4.159 -0.1892 -0.6175  0.0299
  812MOL0     C 9531   2.014   5.030   4.162 -0.4673 -0.3660 -0.5887
  812MOL0     O 9532   1.807   5.118   4.350  0.3133  0.1597 -0.5185
  812MOL0     C 9533   1.540   5.116   4.423  0.4546 -0.2212 -0.1589
  812MOL0     C 9534   1.410   5.107   4.474 -0.3463  0.3807  0.1375
  812MOL0     N 9535   1.019   4.735   5.089 -0.7198  0.5282 -0.8013
  812MOL0     N 9536   1.010   4.811   5.193  0.8067 -0.7736 -0.3391
  812MOL0     C 9537   0.571   5.938   5.623 -0.3202  0.0265 -0.3125
  812MOL0     C 9538   0.498   6.022   5.702 -0.5108 -0.3361 -0.4306
  812MOL0     C 9539   0.115   6.152   5.950 -0.7092 -1.0376  0.0572
  812MOL0     C 9540   0.168   6.284   5.972  1.1094 -0.0009 -0.8965
  812MOL0     C 9541   0.107   6.375   6.057 -0.0492 -0.7277  1.6933
  812MOL0     C 9542  -0.005   6.334   6.126 -0.3725 -0.3304 -0.8104
  812MOL0     O 9543  -0.065   6.432   6.194 -0.1156  0.2709  0.2811
  812MOL0     C 9544  -0.196   6.418   6.240  0.5784  0.1863  0.2605
  812MOL0     C 9545  -0.261   6.558   6.241  0.1466 -0.2729  0.2412
  812MOL0     C 9546  -0.408   6.537   6.285 -0.2719 -0.2828 -0.4228
  812MOL0     C 9547  -0.481   6.673   6.309 -0.0869  0.0696 -0.1030
  812MOL0     C 9548  -0.482   6.712   6.446 -0.6657  0.3611  0.0830
  812MOL0     C 9549  -0.451   6.761   6.553  0.4312  0.3126  1.0318
  812MOL0     C 9550  -0.054   6.208   6.108 -0.1891 -0.2575 -0.2776
  812MOL0     C 9551  -0.005   6.115   6.016 -0.9028 -0.3211 -1.3268
  812MOL0     C 9552  -0.090   5.994   5.992 -0.4562 -0.0769  0.2236
  812MOL0     H 9553   0.186   5.968   5.590  0.0986 -1.1404 -1.7866
  812MOL0     H 9554   0.335   5.818   5.422  4.2502 -1.1601 -1.0123
  812MOL0     H 9555   0.776   5.784   5.451  1.6230 -0.2573  3.5425
  812MOL0     H 9556   0.682   5.691   5.571  0.4205  0.5346 -0.0314
  812MOL0     H 9557   0.709   5.635   5.257  2.8306 -0.2792 -0.9962
  812MOL0     H 9558   0.647   5.525   5.396  3.1148 -2.1363  0.0715
  812MOL0     H 9559   0.890   5.551   5.487  3.0234  1.8078 -0.2232
  812MOL0     H 9560   0.926   5.624   5.334  0.4181  0.2993  2.9193
  812MOL0     H 9561   0.782   5.347   5.364  1.5462 -2.9336  0.2444
  812MOL0     H 9562   0.859   5.409   5.210 -1.5709  3.0102  0.3952
  812MOL0     H 9563   1.075   5.398   5.329  1.7255 -0.3192  0.3538
  812MOL0     H 9564   1.009   5.334   5.475 -1.5457 -0.0046 -0.2832
  812MOL0     H 9565   0.913   5.132   5.373  3.6137 -0.0609  4.1760
  812MOL0     H 9566   0.946   5.192   5.213 -0.5562 -3.2476  0.7986
  812MOL0     H 9567   1.189   5.167   5.402  0.4456 -0.0789 -0.7484
  812MOL0     H 9568   1.185   5.168   5.240 -0.3974 -1.0456 -0.5641
  812MOL0     H 9569   1.256   4.951   5.346 -0.3575  1.0696  1.1963
  812MOL0     H 9570   1.090   4.933   5.413  1.5690  0.2978  0.7807
  812MOL0     H 9571   1.283   4.942   5.098 -0.1415  0.1509  1.6002
  812MOL0     H 9572   1.228   4.641   4.901  0.9964  0.1382  0.8117
  812MOL0     H 9573   1.070   4.700   4.846  0.1462 -0.1412 -0.1168
  812MOL0     H 9574   1.177   4.925   4.799 -2.6245 -1.9398  4.7607
  812MOL0     H 9575   1.335   4.854   4.831  0.6359  2.2734 -3.2199
  812MOL0     H 9576   1.217   4.664   4.653  0.7462  0.1334 -0.5916
  812MOL0     H 9577   1.353   4.765   4.623  0.1303  3.6264 -0.5560
  812MOL0     H 9578   1.059   4.877   4.572  0.0625 -0.1183 -1.8035
  812MOL0     H 9579   1.147   4.797   4.461 -0.8226  0.7351 -0.3775
  812MOL0     H 9580   1.355   4.788   4.372 -2.3879  2.2823  0.0447
  812MOL0     H 9581   1.564   4.826   4.263 -0.8740  0.7199 -1.1807
  812MOL0     H 9582   1.885   4.722   4.204 -3.2072  2.5102 -0.3022
  812MOL0     H 9583   2.134   4.659   4.174 -1.5431 -0.5741  1.5380
  812MOL0     H 9584   2.376   4.993   4.028  1.0112  0.3975  1.4150
  812MOL0     H 9585   2.428   5.008   4.201  3.6534 -2.7814  2.2412
  812MOL0     H 9586   2.593   4.822   4.180  5.3991  3.4313  0.8260
  812MOL0     H 9587   2.535   4.809   4.009 -1.5698  2.8164 -1.8612
  812MOL0     H 9588   2.630   5.060   3.989 -1.2421  0.4726  1.6236
  812MOL0     H 9589   2.712   5.014   4.141  0.3459 -0.8241  0.4353
  812MOL0     H 9590   2.719   4.862   3.869  0.8676  0.4903 -0.0706
  812MOL0     H 9591   2.791   4.811   4.019 -2.2053  1.1114  2.1952
  812MOL0     H 9592   2.934   5.015   4.037 -1.4521  0.0332  1.0097
  812MOL0     H 9593   2.854   5.087   3.892 -1.3174 -0.5462 -0.1569
  812MOL0     H 9594   3.042   4.862   3.932  1.0182  1.1236  0.6418
  812MOL0     H 9595   2.964   4.877   3.773  1.8478  0.8289 -0.5602
  812MOL0     H 9596   3.154   5.087   3.873 -1.0315  1.5281 -0.3268
  812MOL0     H 9597   3.045   5.108   3.740  0.7975  1.1535  1.6582
  812MOL0     H 9598   3.248   4.880   3.761  0.8165  0.3239 -0.5414
  812MOL0     H 9599   3.155   4.918   3.624  0.2709  3.4142 -1.0767
  812MOL0     H 9600   2.219   5.088   4.147 -0.5112 -0.2832  0.4732
  812MOL0     H 9601   1.971   5.129   4.161  0.0250 -0.0299  2.2773
  812MOL0     H 9602   1.587   5.214   4.418 -0.2233  0.3187  2.4903
  812MOL0     H 9603   1.358   5.192   4.516 -2.2698 -1.2782  1.3640
  812MOL0     H 9604   0.673   5.912   5.649 -1.0273 -2.4012  0.2895
  812MOL0     H 9605   0.545   6.083   5.778 -1.2141 -0.7128  0.3256
  812MOL0     H 9606   0.263   6.317   5.931  1.6964  0.0798  0.4977
  812MOL0     H 9607   0.127   6.480   6.078 -3.0309 -0.0759  1.7581
  812MOL0     H 9608  -0.199   6.383   6.344 -0.5271  0.2891  0.2829
  812MOL0     H 9609  -0.253   6.351   6.174  2.0918 -0.1668 -0.7162
  812MOL0     H 9610  -0.238   6.607   6.146 -0.4873 -0.0325  0.2095
  812MOL0     H 9611  -0.209   6.621   6.313  2.1193 -1.3023 -0.2208
  812MOL0     H 9612  -0.411   6.484   6.382 -1.4802 -0.2016 -0.4070
  812MOL0     H 9613  -0.462   6.462   6.227  0.5248 -0.1550 -1.3594
  812MOL0     H 9614  -0.430   6.748   6.248 -0.6916  0.9959  0.5052
  812MOL0     H 9615  -0.577   6.659   6.260  0.7494  0.1331 -1.8507
  812MOL0     H 9616  -0.430   6.808   6.647  1.1334 -3.8085  3.1328
  812MOL0     H 9617  -0.139   6.171   6.163  0.4222 -2.2487 -0.5997
  812MOL0     H 9618  -0.147   6.012   5.901 -3.5822  2.4083  2.4290
  812MOL0     H 9619  -0.027   5.905   5.983  1.1213  0.9002  1.0432
  812MOL0     H 9620  -0.164   5.976   6.071  0.3899  3.0022  1.8995
  813MOL0     O 9621   5.501   7.584  10.188  0.3244 -1.0254 -0.5370
  813MOL0     C 9622   5.489   7.583  10.066  0.3802  0.2924 -0.3644
  813MOL0     O 9623   5.576   7.632   9.976 -0.3758  0.1593  0.0869
  813MOL0     C 9624   5.692   7.677  10.033  0.2126 -0.0410 -0.1092
  813MOL0     C 9625   5.679   7.806  10.082 -0.0925  0.8378  0.2608
  813MOL0     C 9626   5.783   7.870  10.146 -0.2441  0.0268  0.1440
  813MOL0     C 9627   5.909   7.799  10.157 -0.1867 -0.4948 -0.2843
  813MOL0     O 9628   6.014   7.866  10.220  0.0543  0.5095 -0.4949
  813MOL0     C 9629   6.039   8.003  10.175  0.2929  1.1212 -0.9147
  813MOL0     C 9630   6.166   8.049  10.231 -0.8298  0.5244 -0.0480
  813MOL0     C 9631   6.289   7.984  10.162 -0.0858  1.1976  0.1192
  813MOL0     C 9632   6.419   8.045  10.210  0.4328  0.4199  0.1267
  813MOL0     C 9633   6.452   8.182  10.138  0.1586  0.1887 -0.5584
  813MOL0     C 9634   6.566   8.252  10.210  0.4028  0.1034  0.4711
  813MOL0     C 9635   6.592   8.394  10.152 -0.8339  0.6202  0.0621
  813MOL0     C 9636   6.723   8.445  10.223 -0.1427  0.1224 -0.1998
  813MOL0     N 9637   6.844   8.406  10.152 -0.0434  0.1466  0.5524
  813MOL0     C 9638   6.919   8.495  10.077  0.2253 -0.6467 -0.3018
  813MOL0     C 9639   7.013   8.422  10.020 -0.4678 -0.3776  0.0178
  813MOL0     C 9640   7.131   8.471   9.951  0.1481 -0.3819  0.1760
  813MOL0     C 9641   7.243   8.478  10.058 -0.2941 -0.1957 -0.4731
  813MOL0     C 9642   7.360   8.546   9.987  0.2117 -0.7382 -0.2388
  813MOL0     C 9643   7.489   8.522  10.061 -0.8369 -0.1840 -0.4528
  813MOL0     O 9644   7.585   8.621  10.012  0.7209 -0.4271 -0.1534
  813MOL0     C 9645   7.712   8.571   9.991  1.0000  0.2166  0.8169
  813MOL0     C 9646   7.793   8.487  10.078  0.9804  0.2747 -0.0527
  813MOL0     C 9647   7.922   8.451  10.039  0.8262 -0.2666  0.5150
  813MOL0     C 9648   7.973   8.489   9.916 -0.0911 -0.8333 -0.6588
  813MOL0     C 9649   8.111   8.447   9.875  0.8695  0.5804 -0.2497
  813MOL0     O 9650   8.162   8.498   9.768 -0.0229 -0.6597  0.2151
  813MOL0     C 9651   8.287   8.458   9.734  0.1853  0.7626 -0.4493
  813MOL0     C 9652   8.311   8.325   9.692 -0.7937  0.2682 -0.4966
  813MOL0     C 9653   8.442   8.297   9.648  0.4470  1.0041 -0.4932
  813MOL0     C 9654   8.548   8.389   9.658 -0.8985  0.2472 -0.0874
  813MOL0     O 9655   8.675   8.360   9.623  0.2186  0.0823 -0.1641
  813MOL0     C 9656   8.755   8.341   9.737 -1.1633  0.3176 -0.0015
  813MOL0     C 9657   8.898   8.362   9.704 -0.0292  0.8871 -0.3113
  813MOL0     C 9658   8.983   8.329   9.826  0.0375 -0.2441  1.2558
  813MOL0     C 9659   9.133   8.331   9.804  0.1552  0.5508 -0.0065
  813MOL0     C 9660   9.205   8.264   9.918  0.4535  0.4845 -0.5663
  813MOL0     C 9661   9.349   8.297   9.913 -0.5763  0.5182 -0.6490
  813MOL0     C 9662   9.432   8.241  10.024 -0.0303  0.7503  0.0369
  813MOL0     C 9663   9.572   8.305  10.026  0.1276 -0.8398  0.5504
  813MOL0    Cl 9664   9.664   8.247   9.880 -0.1421  0.2024 -0.2234
  813MOL0     C 9665   8.519   8.517   9.714  0.5366 -0.6008  0.2075
  813MOL0     C 9666   8.390   8.554   9.752 -0.9377  0.7586  0.7262
  813MOL0     O 9667   8.165   8.362   9.949  0.3148  0.5239  0.0802
  813MOL0     C 9668   7.897   8.571   9.838 -0.8904  0.1336 -0.0060
  813MOL0     C 9669   7.765   8.617   9.870 -0.0466  0.5183  0.3575
  813MOL0     N 9670   7.004   8.295  10.062 -0.0564 -0.3162  0.2074
  813MOL0     N 9671   6.908   8.284  10.153 -0.4867  0.2500  0.0503
  813MOL0     C 9672   5.927   7.667  10.105  0.1946  0.1566 -0.0338
  813MOL0     C 9673   5.813   7.606  10.039 -0.7576  0.4609 -0.7531
  813MOL0     C 9674   5.369   7.525  10.019 -0.6397  0.3943  0.4721
  813MOL0     C 9675   5.383   7.406   9.952 -0.3284  0.6123  0.2150
  813MOL0     C 9676   5.270   7.342   9.908  0.4199  0.6560  0.0680
  813MOL0     C 9677   5.134   7.398   9.931 -0.6967  0.3611  0.4255
  813MOL0     O 9678   5.017   7.333   9.895  0.2700  0.0721 -0.0830
  813MOL0     C 9679   5.020   7.197   9.842  0.4651  0.2901  0.4257
  813MOL0     C 9680   4.996   7.191   9.681  0.4831  0.3980  0.0084
  813MOL0     C 9681   4.889   7.292   9.627  0.3300  0.6930 -0.0409
  813MOL0     C 9682   4.840   7.238   9.494  0.5588 -0.0818  0.1510
  813MOL0     C 9683   4.766   7.112   9.502 -0.2557 -0.5199 -0.1650
  813MOL0     C 9684   4.711   7.004   9.521 -0.1857 -0.6626 -0.1390
  813MOL0     C 9685   5.122   7.511  10.000 -0.0641  0.4904 -0.1355
  813MOL0     C 9686   5.235   7.576  10.042 -0.8509 -0.2555 -0.3671
  813MOL0     C 9687   5.219   7.700  10.132  0.5039  0.5744  0.5674
  813MOL0     H 9688   5.582   7.855  10.086  0.3099  1.7923  5.3367
  813MOL0     H 9689   5.756   7.968  10.184  1.1254  0.3564  0.2995
  813MOL0     H 9690   6.044   8.012  10.067 -1.7088  0.7548 -1.0795
  813MOL0     H 9691   5.968   8.073  10.220  0.1019 -0.1354  0.8799
  813MOL0     H 9692   6.165   8.026  10.338  0.0728 -1.8465 -0.4766
  813MOL0     H 9693   6.172   8.158  10.226  0.0396  0.4489 -1.2578
  813MOL0     H 9694   6.280   7.991  10.053  0.2725 -0.2100 -0.0251
  813MOL0     H 9695   6.286   7.877  10.187  1.9131  0.8581 -0.8669
  813MOL0     H 9696   6.409   8.067  10.317  0.2829  2.0011 -0.1824
  813MOL0     H 9697   6.499   7.973  10.197 -1.0097 -1.4115  0.9154
  813MOL0     H 9698   6.491   8.153  10.040 -0.8710  0.2969 -1.0183
  813MOL0     H 9699   6.365   8.248  10.124  1.6918  1.8468 -2.9084
  813MOL0     H 9700   6.540   8.254  10.317  0.0437 -1.6869  0.4522
  813MOL0     H 9701   6.659   8.193  10.213 -1.2607 -2.6521  2.0229
  813MOL0     H 9702   6.513   8.464  10.180  1.2345  3.0684  0.1497
  813MOL0     H 9703   6.599   8.400  10.043 -1.2495 -0.7190 -0.0666
  813MOL0     H 9704   6.720   8.554  10.218 -0.8177  0.0708 -1.4012
  813MOL0     H 9705   6.729   8.412  10.327 -2.0395 -2.0620 -0.6931
  813MOL0     H 9706   6.908   8.602  10.065 -0.7870 -0.9732 -2.7159
  813MOL0     H 9707   7.166   8.410   9.867 -0.0042 -1.1012  0.6262
  813MOL0     H 9708   7.102   8.572   9.922 -1.2457 -0.8845 -0.2635
  813MOL0     H 9709   7.220   8.546  10.140  1.8917  0.9171 -0.7087
  813MOL0     H 9710   7.272   8.383  10.104  1.2852  1.0388  1.2241
  813MOL0     H 9711   7.342   8.654   9.988  3.3772 -0.1175  0.9327
  813MOL0     H 9712   7.370   8.508   9.885 -1.7303  1.9885 -1.5622
  813MOL0     H 9713   7.515   8.416  10.052 -0.1852  0.0515 -1.4879
  813MOL0     H 9714   7.473   8.535  10.169 -1.1945 -2.6453 -0.1298
  813MOL0     H 9715   7.754   8.465  10.177  0.6177 -2.1247 -0.6799
  813MOL0     H 9716   7.987   8.397  10.108  1.5232  2.7234  2.4084
  813MOL0     H 9717   8.235   8.248   9.699 -1.8267  1.3066  0.1737
  813MOL0     H 9718   8.454   8.195   9.611 -3.6849 -0.0026  0.4040
  813MOL0     H 9719   8.727   8.410   9.817 -0.1868  1.6960 -0.8208
  813MOL0     H 9720   8.746   8.241   9.781 -0.8931  0.7049  0.9708
  813MOL0     H 9721   8.929   8.303   9.617 -2.2499 -0.0965 -0.4962
  813MOL0     H 9722   8.909   8.469   9.683  2.0205  0.8015  0.1617
  813MOL0     H 9723   8.978   8.403   9.906  0.0341  0.1195  0.9200
  813MOL0     H 9724   8.958   8.229   9.864  1.1680 -1.9126 -2.0429
  813MOL0     H 9725   9.167   8.435   9.809 -0.0064  0.6323 -0.4909
  813MOL0     H 9726   9.168   8.301   9.705  2.4436  2.9305 -0.0214
  813MOL0     H 9727   9.186   8.156   9.909 -3.1003  0.8443  0.7959
  813MOL0     H 9728   9.149   8.301  10.004 -3.8428  2.0426 -3.6792
  813MOL0     H 9729   9.391   8.259   9.820  0.4218 -1.6782  0.5966
  813MOL0     H 9730   9.361   8.405   9.913  0.3582  0.4323  0.4544
  813MOL0     H 9731   9.440   8.133  10.014 -0.9702  0.6911 -0.1918
  813MOL0     H 9732   9.373   8.253  10.116 -0.1604  0.8713 -0.0613
  813MOL0     H 9733   9.564   8.414  10.021 -0.6932 -0.8854  0.6811
  813MOL0     H 9734   9.623   8.288  10.121  0.6872 -2.3190  0.0140
  813MOL0     H 9735   8.597   8.591   9.731 -0.7523  0.6321  1.0192
  813MOL0     H 9736   8.360   8.655   9.779 -1.3258  2.3673 -4.6694
  813MOL0     H 9737   7.936   8.610   9.745  0.6776  1.2142  1.0384
  813MOL0     H 9738   7.727   8.679   9.789 -2.4485 -3.0271 -1.4854
  813MOL0     H 9739   6.018   7.609  10.120  0.2018  0.1702 -0.0254
  813MOL0     H 9740   5.829   7.506   9.998  0.8361  0.6888 -0.7414
  813MOL0     H 9741   5.477   7.353   9.938 -1.5415 -1.2251 -1.5394
  813MOL0     H 9742   5.281   7.243   9.864  0.0551 -0.0621  1.5397
  813MOL0     H 9743   4.929   7.149   9.879 -0.5824 -0.0251 -2.3070
  813MOL0     H 9744   5.107   7.139   9.873  0.4876  1.4497  2.7251
  813MOL0     H 9745   4.958   7.088   9.678 -2.1280  1.2821 -2.8983
  813MOL0     H 9746   5.088   7.202   9.622  0.2536 -0.3812 -0.5062
  813MOL0     H 9747   4.933   7.392   9.629  0.3694  0.6740  0.8276
  813MOL0     H 9748   4.802   7.291   9.694  0.3768 -0.3678  0.0213
  813MOL0     H 9749   4.763   7.308   9.460 -0.8458 -2.4298 -1.8903
  813MOL0     H 9750   4.928   7.223   9.432 -0.1712  2.0682 -1.5023
  813MOL0     H 9751   4.656   6.914   9.539  0.4625 -1.7036 -2.8523
  813MOL0     H 9752   5.024   7.548  10.029  1.0675  2.4084  1.4449
  813MOL0     H 9753   5.114   7.730  10.137 -0.0161 -1.3695  3.3511
  813MOL0     H 9754   5.246   7.675  10.235 -1.8649  0.7306  1.2827
  813MOL0     H 9755   5.274   7.779  10.080  2.3496 -1.9494 -1.5840
  814MOL0     O 9756   6.659   5.551   2.299  0.0393  0.0474 -0.0859
  814MOL0     C 9757   6.565   5.477   2.334  1.1070  0.1540  0.6532
  814MOL0     O 9758   6.580   5.353   2.390 -0.5674 -0.3291 -0.5683
  814MOL0     C 9759   6.706   5.330   2.440  1.1237 -0.5945 -0.1309
  814MOL0     C 9760   6.706   5.313   2.573 -0.7445  0.3100 -0.1603
  814MOL0     C 9761   6.821   5.276   2.644  0.0257  0.1921 -0.5158
  814MOL0     C 9762   6.946   5.270   2.578 -0.1946 -0.2039 -0.3035
  814MOL0     O 9763   7.072   5.242   2.637 -0.2726  0.6140  0.8468
  814MOL0     C 9764   7.069   5.270   2.775  0.1688 -0.3917 -0.3808
  814MOL0     C 9765   7.209   5.261   2.820 -0.5308  0.1080 -0.0728
  814MOL0     C 9766   7.306   5.369   2.763  0.4023  0.0400 -0.7210
  814MOL0     C 9767   7.446   5.342   2.814  0.2773 -0.6406  0.7415
  814MOL0     C 9768   7.552   5.443   2.754 -0.0158  0.6182 -0.2761
  814MOL0     C 9769   7.684   5.419   2.831  0.2184 -0.0603 -0.3967
  814MOL0     C 9770   7.787   5.531   2.794 -0.5241 -0.7296  0.5874
  814MOL0     C 9771   7.768   5.654   2.878 -0.1171 -0.0417 -0.6057
  814MOL0     N 9772   7.839   5.770   2.827  1.1248 -0.3997 -0.0706
  814MOL0     C 9773   7.794   5.891   2.848  0.2222 -0.4834 -1.0216
  814MOL0     C 9774   7.873   5.979   2.780 -0.3739  0.4047  0.2881
  814MOL0     C 9775   7.860   6.124   2.783 -1.3414  0.8331  0.4549
  814MOL0     C 9776   7.991   6.190   2.760 -0.1536  0.4081 -0.1220
  814MOL0     C 9777   7.961   6.339   2.766  0.1880  0.4276  0.1926
  814MOL0     C 9778   8.075   6.434   2.731 -0.1089  0.6733  0.6528
  814MOL0     O 9779   8.170   6.413   2.832  0.3361  0.5904 -0.4894
  814MOL0     C 9780   8.265   6.510   2.834 -0.2356 -0.4669 -0.6743
  814MOL0     C 9781   8.227   6.644   2.863  0.3321 -0.4588  0.5930
  814MOL0     C 9782   8.328   6.743   2.873 -0.6679 -0.7804  0.3822
  814MOL0     C 9783   8.461   6.704   2.855 -0.6239 -0.0124  0.0391
  814MOL0     C 9784   8.566   6.803   2.881  0.8563  0.1082  0.4506
  814MOL0     O 9785   8.687   6.752   2.926 -0.8730  0.2694  0.3037
  814MOL0     C 9786   8.798   6.838   2.945  0.3372 -0.2087  0.7887
  814MOL0     C 9787   8.925   6.798   2.916  0.8773  0.4533 -0.0263
  814MOL0     C 9788   9.038   6.877   2.947  0.3521  0.6240 -0.2038
  814MOL0     C 9789   9.020   6.997   3.023 -0.7138 -0.8413 -0.6461
  814MOL0     O 9790   9.120   7.083   3.068  0.0035 -0.8027 -0.0189
  814MOL0     C 9791   9.258   7.046   3.058 -0.1852 -0.2876 -0.4943
  814MOL0     C 9792   9.350   7.163   3.113  0.2715  0.4786 -0.3886
  814MOL0     C 9793   9.503   7.123   3.117 -0.2885 -0.0907 -0.4585
  814MOL0     C 9794   9.591   7.232   3.185 -0.0539  0.5653 -0.9036
  814MOL0     C 9795   9.738   7.213   3.206  0.3298 -0.6254  0.5742
  814MOL0     C 9796   9.826   7.224   3.083 -0.4950 -0.2279 -0.2362
  814MOL0     C 9797   9.970   7.205   3.114 -0.0785  0.4347 -0.0424
  814MOL0     C 9798  10.063   7.254   3.000 -0.3454  0.4406 -0.5639
  814MOL0    Cl 9799  10.023   7.158   2.855  0.0591  0.1663  0.3717
  814MOL0     C 9800   8.888   7.038   3.051 -0.9937  0.1691  0.0531
  814MOL0     C 9801   8.776   6.961   3.011 -0.2653  0.6027  0.3926
  814MOL0     O 9802   8.531   6.918   2.870 -0.5289 -1.1059 -0.3059
  814MOL0     C 9803   8.490   6.579   2.801 -0.2470  0.9588 -0.1032
  814MOL0     C 9804   8.398   6.478   2.788 -0.4387 -0.2373  0.1395
  814MOL0     N 9805   7.968   5.899   2.718 -0.1616 -0.0465 -0.2314
  814MOL0     N 9806   7.954   5.778   2.756  0.1828  1.2109 -0.0821
  814MOL0     C 9807   6.948   5.288   2.438  0.2891 -0.0686  0.3691
  814MOL0     C 9808   6.823   5.303   2.371 -0.1207 -0.2198 -0.5714
  814MOL0     C 9809   6.429   5.525   2.294 -0.0562 -0.1098 -1.0495
  814MOL0     C 9810   6.348   5.457   2.202  0.4848  0.6285  0.2217
  814MOL0     C 9811   6.219   5.504   2.169 -0.0271 -0.5664 -0.2719
  814MOL0     C 9812   6.177   5.631   2.203  0.2151 -0.1305 -0.0326
  814MOL0     O 9813   6.054   5.690   2.171 -0.0121  0.3823 -0.2578
  814MOL0     C 9814   5.959   5.620   2.096 -0.0193  0.0366 -0.2824
  814MOL0     C 9815   5.831   5.709   2.086  0.0967  0.2661  0.9559
  814MOL0     C 9816   5.732   5.660   1.971  0.1724  0.3581  0.7713
  814MOL0     C 9817   5.586   5.699   1.998  0.0791  0.0194 -0.3678
  814MOL0     C 9818   5.575   5.839   2.051 -0.6945  0.4293 -0.8187
  814MOL0     C 9819   5.563   5.947   2.095  0.3759 -0.7254 -0.1764
  814MOL0     C 9820   6.261   5.696   2.281 -0.3299  0.2024  0.0105
  814MOL0     C 9821   6.379   5.652   2.340  0.3441  0.1969  0.6893
  814MOL0     C 9822   6.453   5.732   2.443 -0.4308  0.2436  0.3156
  814MOL0     H 9823   6.610   5.311   2.624  0.2789  0.8233  1.8857
  814MOL0     H 9824   6.808   5.266   2.751  0.0492  2.1048 -0.2898
  814MOL0     H 9825   7.038   5.375   2.788  1.7438  0.4094 -2.4619
  814MOL0     H 9826   7.004   5.202   2.830  1.1918 -1.9079 -0.9833
  814MOL0     H 9827   7.243   5.160   2.795 -1.7080 -0.4939  0.6524
  814MOL0     H 9828   7.205   5.267   2.929  0.6038 -0.9198  0.0406
  814MOL0     H 9829   7.269   5.467   2.794 -2.5914 -0.7795 -1.3793
  814MOL0     H 9830   7.308   5.359   2.654 -1.6142 -0.1717 -0.7877
  814MOL0     H 9831   7.450   5.336   2.923 -0.5928 -0.3309  0.8016
  814MOL0     H 9832   7.478   5.243   2.780  1.9625 -1.1282  3.4227
  814MOL0     H 9833   7.563   5.429   2.646  1.4839  1.2890 -0.2478
  814MOL0     H 9834   7.528   5.549   2.770  1.7757  0.8313  1.4134
  814MOL0     H 9835   7.661   5.421   2.938 -1.2380  0.7241 -0.6935
  814MOL0     H 9836   7.730   5.325   2.798 -0.2021 -0.6003  0.5252
  814MOL0     H 9837   7.788   5.549   2.686 -0.4981  0.0836  0.7156
  814MOL0     H 9838   7.883   5.477   2.801 -1.1273 -1.9611 -0.2648
  814MOL0     H 9839   7.661   5.676   2.883 -0.0039  0.4643 -0.3529
  814MOL0     H 9840   7.805   5.634   2.979 -0.4662  0.2488 -0.4153
  814MOL0     H 9841   7.719   5.931   2.916  3.0344  0.1815  1.9652
  814MOL0     H 9842   7.784   6.149   2.708  1.0198  1.3863 -1.8981
  814MOL0     H 9843   7.824   6.146   2.884 -0.0655  0.1567  1.0756
  814MOL0     H 9844   8.071   6.192   2.834 -0.2373 -0.5151  0.0078
  814MOL0     H 9845   8.028   6.156   2.663  0.9209  1.0938  0.0366
  814MOL0     H 9846   7.917   6.365   2.863  0.7523  3.3253 -0.2273
  814MOL0     H 9847   7.888   6.364   2.689 -0.9215 -1.9697  0.3776
  814MOL0     H 9848   8.038   6.536   2.722  1.5640  1.2643  0.1116
  814MOL0     H 9849   8.107   6.396   2.634 -5.5089  1.1985 -1.6968
  814MOL0     H 9850   8.132   6.682   2.899 -1.4588 -3.0491 -1.0705
  814MOL0     H 9851   8.302   6.846   2.893  0.6473 -0.1488 -0.9741
  814MOL0     H 9852   8.943   6.703   2.866 -1.7476 -1.0722  1.7311
  814MOL0     H 9853   9.137   6.840   2.924  0.4358  0.6779  0.0615
  814MOL0     H 9854   9.272   6.952   3.113  2.2367 -0.1245 -0.7159
  814MOL0     H 9855   9.296   7.039   2.955  0.4749 -2.6366 -0.1479
  814MOL0     H 9856   9.339   7.252   3.049  1.6741  1.8997  1.2257
  814MOL0     H 9857   9.317   7.194   3.213 -2.2851 -1.4536 -0.5228
  814MOL0     H 9858   9.513   7.020   3.154 -1.0521  0.3240  0.9763
  814MOL0     H 9859   9.548   7.102   3.020  3.5973 -2.5610  1.5933
  814MOL0     H 9860   9.556   7.248   3.288  0.1923 -2.0404 -0.3586
  814MOL0     H 9861   9.570   7.317   3.120 -0.4442  0.2518 -1.1909
  814MOL0     H 9862   9.755   7.117   3.255  0.2733 -0.2644  1.3037
  814MOL0     H 9863   9.762   7.293   3.276 -2.6954 -1.2449  2.4635
  814MOL0     H 9864   9.802   7.159   2.998  2.4050  0.7556 -1.9610
  814MOL0     H 9865   9.817   7.329   3.051  3.0049  0.5733  0.9976
  814MOL0     H 9866   9.986   7.101   3.141 -0.5593  0.8948  2.2077
  814MOL0     H 9867   9.998   7.259   3.205 -3.2953 -2.2421  2.8470
  814MOL0     H 9868  10.055   7.361   2.979  1.4007  0.3669 -1.8828
  814MOL0     H 9869  10.166   7.233   3.032 -1.7780 -5.7181  1.1235
  814MOL0     H 9870   8.870   7.126   3.112  3.0876 -0.2721  2.2511
  814MOL0     H 9871   8.680   6.993   3.050 -0.9470 -0.6908 -0.1469
  814MOL0     H 9872   8.593   6.568   2.768  0.0804  0.8936  0.9010
  814MOL0     H 9873   8.429   6.387   2.739  1.3327  1.2636 -1.7150
  814MOL0     H 9874   7.044   5.284   2.388  1.6138  2.7021  2.4161
  814MOL0     H 9875   6.818   5.297   2.263 -2.1875 -0.3040 -0.5232
  814MOL0     H 9876   6.401   5.367   2.174  0.0502  0.9867 -1.9069
  814MOL0     H 9877   6.159   5.440   2.105  1.3048 -1.3713 -0.7609
  814MOL0     H 9878   5.924   5.529   2.145 -2.4351  0.9824 -0.1286
  814MOL0     H 9879   5.989   5.594   1.994 -1.0408 -1.7398 -0.1842
  814MOL0     H 9880   5.866   5.811   2.067  2.5927 -0.3481  1.7589
  814MOL0     H 9881   5.771   5.706   2.177 -0.6797  0.7585  0.4692
  814MOL0     H 9882   5.731   5.551   1.976 -2.7399  0.2471 -0.1993
  814MOL0     H 9883   5.767   5.689   1.871  1.1459 -2.3730  0.2169
  814MOL0     H 9884   5.520   5.694   1.911 -0.3091 -1.9165 -0.0127
  814MOL0     H 9885   5.545   5.633   2.075  2.2388 -0.5825  0.3476
  814MOL0     H 9886   5.535   6.044   2.130  0.8660 -1.2619  1.8420
  814MOL0     H 9887   6.254   5.803   2.297 -1.6037  0.3514 -1.3155
  814MOL0     H 9888   6.560   5.745   2.425 -0.3603  1.3466  1.3855
  814MOL0     H 9889   6.411   5.832   2.455 -0.6168  0.2025  0.0255
  814MOL0     H 9890   6.455   5.676   2.536  0.6055  1.6052  1.1494
  815MOL0     O 9891   7.389   9.876   7.693 -0.5015  0.3656 -0.6991
  815MOL0     C 9892   7.360   9.932   7.590 -0.5733 -0.1304 -0.4481
  815MOL0     O 9893   7.448   9.958   7.493 -0.0572  0.1324  0.2775
  815MOL0     C 9894   7.584   9.929   7.519  0.5843  0.4656 -1.0218
  815MOL0     C 9895   7.630   9.803   7.481  0.3002  0.6616 -0.1726
  815MOL0     C 9896   7.767   9.777   7.494  0.6683  0.2641  0.2535
  815MOL0     C 9897   7.856   9.862   7.555  0.3642 -0.3763  0.0990
  815MOL0     O 9898   7.986   9.831   7.562  0.3450  0.2073  0.1171
  815MOL0     C 9899   8.073   9.926   7.625  0.9916 -0.4016  0.6280
  815MOL0     C 9900   8.206   9.880   7.595 -0.2783 -0.7641  0.8578
  815MOL0     C 9901   8.306   9.969   7.670  0.0414 -0.6528 -0.7044
  815MOL0     C 9902   8.448   9.966   7.610 -0.5297 -0.2223 -0.3981
  815MOL0     C 9903   8.462  10.007   7.458  0.0141 -0.0816  0.1228
  815MOL0     C 9904   8.611  10.015   7.423 -0.2558 -0.4008  0.4144
  815MOL0     C 9905   8.628  10.026   7.269  0.1475 -0.5397 -0.6406
  815MOL0     C 9906   8.703  10.155   7.226 -0.6259  0.5358  0.0315
  815MOL0     N 9907   8.845  10.154   7.254 -0.2318  0.1751 -0.2256
  815MOL0     C 9908   8.933  10.059   7.198 -0.6839 -0.3108  0.0919
  815MOL0     C 9909   9.053  10.080   7.264 -0.0884 -0.3368 -0.8244
  815MOL0     C 9910   9.188  10.020   7.232  0.6378 -0.5195 -0.5220
  815MOL0     C 9911   9.309  10.105   7.264  0.9950  0.2100 -0.1041
  815MOL0     C 9912   9.420  10.043   7.179 -0.2590 -0.3904 -0.3368
  815MOL0     C 9913   9.550  10.099   7.236  0.7256  1.4770  0.3438
  815MOL0     O 9914   9.659  10.025   7.179 -0.6375  0.1750  0.4540
  815MOL0     C 9915   9.785  10.061   7.211  0.3385  0.1692  0.2997
  815MOL0     C 9916   9.825  10.188   7.267  0.8857 -0.4200  0.1100
  815MOL0     C 9917   9.958  10.206   7.309 -0.0619  0.6355  0.0860
  815MOL0     C 9918  10.063  10.110   7.295  0.4229  0.3445  0.1577
  815MOL0     C 9919  10.199  10.135   7.339 -0.0604  0.5593  0.4581
  815MOL0     O 9920  10.299  10.061   7.299  0.7762 -0.3959  0.1871
  815MOL0     C 9921  10.418  10.088   7.352  0.5231  0.1118  0.5777
  815MOL0     C 9922  10.525  10.123   7.268  0.1886  0.4503  0.3293
  815MOL0     C 9923  10.655  10.140   7.306 -0.5986 -0.0401 -0.0233
  815MOL0     C 9924  10.685  10.130   7.441  0.8024 -0.5543  1.0408
  815MOL0     O 9925  10.809  10.170   7.473  0.2898 -0.6546 -0.4718
  815MOL0     C 9926  10.858  10.168   7.608  0.3913  0.4325  1.0297
  815MOL0     C 9927  10.953  10.284   7.618  0.5087  0.1101 -0.0114
  815MOL0     C 9928  11.079  10.273   7.536  0.2394 -0.1571 -0.0156
  815MOL0     C 9929  11.167  10.402   7.550  0.5797 -0.0761 -0.0185
  815MOL0     C 9930  11.295  10.390   7.467  0.3309  0.8815 -0.0274
  815MOL0     C 9931  11.390  10.283   7.523 -0.2430  0.3790  0.3687
  815MOL0     C 9932  11.505  10.274   7.419 -0.7822 -0.4915 -0.6071
  815MOL0     C 9933  11.627  10.209   7.476 -0.3099 -0.3653  0.0811
  815MOL0    Cl 9934  11.690  10.316   7.616  0.1089 -0.1675 -0.3025
  815MOL0     C 9935  10.584  10.082   7.530  0.4742 -0.7653  0.3433
  815MOL0     C 9936  10.448  10.054   7.490  0.4306  0.6788  1.2059
  815MOL0     O 9937  10.210  10.215   7.430 -0.7431  0.8756 -0.6382
  815MOL0     C 9938  10.013   9.989   7.233  0.5792 -0.4858 -0.3245
  815MOL0     C 9939   9.879   9.962   7.195  0.1986 -1.0901 -0.3958
  815MOL0     N 9940   9.026  10.179   7.362  0.6604  0.2263  0.4485
  815MOL0     N 9941   8.905  10.229   7.348  0.5323 -0.0617 -0.4945
  815MOL0     C 9942   7.805   9.986   7.604  0.7917 -0.3612  0.0779
  815MOL0     C 9943   7.669  10.023   7.578  1.2010  0.1020 -0.3160
  815MOL0     C 9944   7.222   9.972   7.566 -0.0694  0.4300 -0.3477
  815MOL0     C 9945   7.171  10.077   7.644 -1.1103  0.2137 -0.7406
  815MOL0     C 9946   7.044  10.128   7.617 -0.2798 -0.4120  1.9918
  815MOL0     C 9947   6.972  10.093   7.500  0.4298  0.0212  0.6691
  815MOL0     O 9948   6.852  10.140   7.452 -0.2156  0.4754  0.2047
  815MOL0     C 9949   6.779  10.218   7.541  0.1090  0.6850 -0.2916
  815MOL0     C 9950   6.639  10.249   7.490 -0.3143 -0.3902  0.2927
  815MOL0     C 9951   6.556  10.123   7.446  0.7993  0.2944  0.0722
  815MOL0     C 9952   6.411  10.170   7.395  0.3371 -0.3369 -0.2080
  815MOL0     C 9953   6.428  10.261   7.281  0.8694 -0.8150  0.2272
  815MOL0     C 9954   6.450  10.327   7.184  0.0347 -0.5563  0.5924
  815MOL0     C 9955   7.022   9.987   7.420  1.1303 -0.1202 -0.1742
  815MOL0     C 9956   7.143   9.925   7.458 -0.1303  0.0673 -0.0939
  815MOL0     C 9957   7.198   9.816   7.370  0.1383 -0.0453 -0.4834
  815MOL0     H 9958   7.558   9.732   7.442  0.3796  0.5581 -0.1329
  815MOL0     H 9959   7.813   9.684   7.460  4.3026  1.0186  2.5912
  815MOL0     H 9960   8.064  10.029   7.589 -0.9216  0.1563  2.4351
  815MOL0     H 9961   8.055   9.924   7.733  0.3775 -0.0830  0.5401
  815MOL0     H 9962   8.215   9.887   7.487 -0.5189  2.0483  0.9326
  815MOL0     H 9963   8.217   9.777   7.628 -0.4960 -1.3232 -0.7512
  815MOL0     H 9964   8.313   9.932   7.773  1.3184 -2.9228 -1.5270
  815MOL0     H 9965   8.278  10.075   7.665 -1.3856 -0.9630  0.1860
  815MOL0     H 9966   8.505  10.039   7.667  0.2654  0.3192 -1.8378
  815MOL0     H 9967   8.497   9.869   7.625  0.7549  0.5856  0.8656
  815MOL0     H 9968   8.407   9.936   7.395  0.7949 -1.9186  1.4101
  815MOL0     H 9969   8.419  10.107   7.456  0.3339  0.1110  1.6937
  815MOL0     H 9970   8.669  10.094   7.471 -0.5067 -0.2723  0.5090
  815MOL0     H 9971   8.658   9.923   7.459  0.8469  0.3431  0.9478
  815MOL0     H 9972   8.530  10.033   7.222 -0.0276 -0.6100 -0.2941
  815MOL0     H 9973   8.670   9.931   7.235 -0.6791 -1.0697 -0.1949
  815MOL0     H 9974   8.683  10.167   7.119  0.9479 -0.9584 -0.4719
  815MOL0     H 9975   8.659  10.239   7.280 -1.1855  0.1303  0.2165
  815MOL0     H 9976   8.911   9.988   7.119 -2.4364  0.3714 -0.0854
  815MOL0     H 9977   9.208   9.926   7.285  2.2956 -1.2022 -2.2329
  815MOL0     H 9978   9.176   9.991   7.127 -0.0784 -0.8872 -0.3496
  815MOL0     H 9979   9.291  10.209   7.238 -1.3521 -0.3090 -0.8983
  815MOL0     H 9980   9.336  10.098   7.370 -0.0480  0.2240  0.1824
  815MOL0     H 9981   9.404  10.053   7.071  0.5178 -0.3859 -0.4553
  815MOL0     H 9982   9.426   9.935   7.193 -0.2877 -0.6518 -2.0985
  815MOL0     H 9983   9.561  10.092   7.345 -1.4528  0.9438  0.5744
  815MOL0     H 9984   9.548  10.204   7.207 -1.8492  1.0558 -1.3086
  815MOL0     H 9985   9.755  10.268   7.289  0.9320 -1.0247  2.7871
  815MOL0     H 9986   9.981  10.298   7.362 -1.7572  1.3716 -0.3939
  815MOL0     H 9987  10.492  10.142   7.166 -0.8176 -2.0060  0.1445
  815MOL0     H 9988  10.737  10.153   7.235 -0.7734 -3.4795 -1.0415
  815MOL0     H 9989  10.782  10.186   7.685  0.0963  0.6130  0.6984
  815MOL0     H 9990  10.906  10.073   7.631  1.4115 -0.1156 -2.7100
  815MOL0     H 9991  10.905  10.375   7.581 -1.2797 -0.6311  0.3750
  815MOL0     H 9992  10.976  10.288   7.725  1.0650 -0.8484 -0.0763
  815MOL0     H 9993  11.135  10.195   7.588  1.4541 -0.3162 -1.4792
  815MOL0     H 9994  11.059  10.256   7.429 -0.7178 -1.1311  0.3047
  815MOL0     H 9995  11.205  10.414   7.651 -1.6517  1.1868  0.7478
  815MOL0     H 9996  11.103  10.484   7.517  0.8837 -0.2550 -1.0876
  815MOL0     H 9997  11.346  10.487   7.470  1.4593  0.2695  1.6167
  815MOL0     H 9998  11.268  10.373   7.362 -0.0755 -1.0988  0.3711
  815MOL0     H 9999  11.439  10.318   7.614  0.8086  0.4096 -0.1919
  815MOL0     H10000  11.339  10.187   7.538  1.8829 -0.7698  0.7286
  815MOL0     H10001  11.541  10.373   7.389  1.3773 -1.6323 -2.0378
  815MOL0     H10002  11.470  10.219   7.331 -1.0628 -0.2338 -0.6584
  815MOL0     H10003  11.606  10.103   7.492 -1.4049  0.1994  3.0404
  815MOL0     H10004  11.709  10.210   7.404  0.9746  4.9156  1.1736
  815MOL0     H10005  10.604  10.077   7.637 -0.7632 -1.1983  0.5619
  815MOL0     H10006  10.374  10.008   7.555  1.3876 -1.6853  0.7289
  815MOL0     H10007  10.084   9.913   7.201  1.5313  0.2316  0.0501
  815MOL0     H10008   9.833   9.875   7.148 -0.6222 -1.0053  0.2235
  815MOL0     H10009   7.865  10.054   7.663  0.8147  0.8406 -1.2816
  815MOL0     H10010   7.628  10.117   7.615  0.8735  0.6251 -1.9517
  815MOL0     H10011   7.232  10.108   7.728 -1.5936  0.5385 -0.4983
  815MOL0     H10012   7.006  10.206   7.684 -0.7550 -0.2454  1.5344
  815MOL0     H10013   6.835  10.311   7.555  3.1706 -0.6966 -2.1850
  815MOL0     H10014   6.761  10.164   7.634 -2.1738 -1.6132 -1.9302
  815MOL0     H10015   6.655  10.304   7.397 -1.2152 -1.2263 -0.3751
  815MOL0     H10016   6.588  10.312   7.564 -0.6231  0.2099 -0.4112
  815MOL0     H10017   6.553  10.059   7.534 -0.8074  1.3293  0.8229
  815MOL0     H10018   6.610  10.070   7.367 -0.1813  0.1579 -0.5390
  815MOL0     H10019   6.355  10.083   7.359  0.3488 -1.0060  1.3004
  815MOL0     H10020   6.355  10.214   7.478 -2.5482 -4.7500  0.5203
  815MOL0     H10021   6.473  10.394   7.103 -2.6004 -0.1372  0.0971
  815MOL0     H10022   6.975   9.963   7.325 -0.0061  2.7087 -0.4273
  815MOL0     H10023   7.120   9.749   7.333  1.1452 -1.7011  0.2777
  815MOL0     H10024   7.249   9.859   7.283 -2.3058 -0.3578 -2.1848
  815MOL0     H10025   7.263   9.750   7.428 -2.8132 -4.8620 -2.0560
  816MOL0     O10026   4.739   1.849  11.028  0.8337 -0.5277  0.2618
  816MOL0     C10027   4.679   1.907  10.933  0.6925 -0.7899  0.0594
  816MOL0     O10028   4.728   2.010  10.860 -0.0262 -0.7132 -0.4382
  816MOL0     C10029   4.864   2.029  10.856  0.0093 -0.2038 -0.0920
  816MOL0     C10030   4.944   1.954  10.777  0.9521  0.4511  0.0264
  816MOL0     C10031   5.089   1.960  10.772  0.5445 -0.1810 -0.2332
  816MOL0     C10032   5.153   2.051  10.860 -0.3599  0.6099  0.1746
  816MOL0     O10033   5.288   2.055  10.886  0.5356  0.6066 -0.2104
  816MOL0     C10034   5.367   1.939  10.883 -0.1536  0.5098 -1.1150
  816MOL0     C10035   5.304   1.833  10.979 -0.6986  0.6328 -0.1632
  816MOL0     C10036   5.360   1.696  10.938 -0.4729 -0.5605 -0.1420
  816MOL0     C10037   5.331   1.594  11.051  0.1565 -0.1426 -0.2378
  816MOL0     C10038   5.322   1.442  11.013 -0.8874 -0.3017 -0.2062
  816MOL0     C10039   5.466   1.396  10.980 -0.2170  0.3567  0.1698
  816MOL0     C10040   5.479   1.245  10.969 -0.0660 -0.4233  0.3773
  816MOL0     C10041   5.626   1.194  10.942  0.5795  0.5271 -0.3380
  816MOL0     N10042   5.725   1.234  11.055  0.2367  1.2332  0.3628
  816MOL0     C10043   5.702   1.209  11.190  0.9357  0.0212  0.1581
  816MOL0     C10044   5.789   1.286  11.257  0.2454 -0.0933 -0.7065
  816MOL0     C10045   5.802   1.279  11.398  1.2270 -0.1471  0.1382
  816MOL0     C10046   5.931   1.197  11.436 -0.2789 -0.2600  0.0240
  816MOL0     C10047   5.980   1.219  11.579  0.8885 -0.5814  0.1959
  816MOL0     C10048   6.088   1.117  11.613  0.4754  0.5238 -0.2487
  816MOL0     O10049   6.194   1.131  11.522 -0.2229  0.3897 -0.2799
  816MOL0     C10050   6.315   1.062  11.546  0.2960  0.1440 -0.8347
  816MOL0     C10051   6.346   0.996  11.664  0.4785  0.7389  0.3208
  816MOL0     C10052   6.465   0.921  11.684 -0.1495 -0.2855 -0.1763
  816MOL0     C10053   6.560   0.926  11.583  0.7621 -0.6141  0.3402
  816MOL0     C10054   6.690   0.863  11.597 -1.0536  0.0344  0.4739
  816MOL0     O10055   6.712   0.789  11.706  0.5572 -0.3249 -0.6946
  816MOL0     C10056   6.833   0.759  11.763  0.1318 -0.4049  0.5394
  816MOL0     C10057   6.933   0.679  11.703 -0.0426 -0.0871 -0.3147
  816MOL0     C10058   7.063   0.663  11.764 -0.7965  1.2087 -0.1879
  816MOL0     C10059   7.097   0.726  11.886 -0.3422 -0.6119  0.4913
  816MOL0     O10060   7.220   0.710  11.935 -0.2647 -0.0193  0.0983
  816MOL0     C10061   7.324   0.635  11.866 -0.1164 -1.1429  0.0549
  816MOL0     C10062   7.419   0.567  11.962  0.1286  0.6884 -0.6013
  816MOL0     C10063   7.348   0.466  12.057  1.3856  0.8944  0.2703
  816MOL0     C10064   7.441   0.352  12.089  0.2185 -0.5352 -0.3020
  816MOL0     C10065   7.562   0.383  12.172 -0.5980 -1.0324 -0.2599
  816MOL0     C10066   7.534   0.413  12.319  1.3241 -0.2987  0.5866
  816MOL0     C10067   7.658   0.426  12.409 -0.2752  0.2846  0.0923
  816MOL0     C10068   7.620   0.462  12.551 -0.1556 -1.0175 -0.0282
  816MOL0    Cl10069   7.776   0.479  12.636  0.3234 -0.0443  0.4617
  816MOL0     C10070   6.987   0.790  11.950  0.3657  0.3242  0.1004
  816MOL0     C10071   6.855   0.799  11.894 -0.6101 -0.9778 -0.7881
  816MOL0     O10072   6.774   0.882  11.510 -0.7943 -0.2835  0.0150
  816MOL0     C10073   6.531   0.999  11.463  0.3570  0.3644  0.1925
  816MOL0     C10074   6.409   1.064  11.448  0.6663 -0.6095  0.9053
  816MOL0     N10075   5.859   1.360  11.168  0.4399  0.5255  0.0456
  816MOL0     N10076   5.816   1.330  11.043 -0.4024  0.0188 -0.6179
  816MOL0     C10077   5.070   2.138  10.930  0.2168  0.6233 -1.0290
  816MOL0     C10078   4.932   2.127  10.926  0.2674  0.3468  0.2604
  816MOL0     C10079   4.530   1.880  10.904 -0.0825  0.0123 -0.5841
  816MOL0     C10080   4.483   1.948  10.792  0.8273 -0.8170 -0.7117
  816MOL0     C10081   4.351   1.937  10.737 -0.1896 -0.1465  0.0178
  816MOL0     C10082   4.260   1.853  10.802 -0.7575 -0.4965 -1.5178
  816MOL0     O10083   4.143   1.818  10.738  0.0668 -0.4409  0.3235
  816MOL0     C10084   4.079   1.924  10.666 -0.1726  0.9722  0.5873
  816MOL0     C10085   3.934   1.887  10.624 -0.0385 -0.2020 -0.0248
  816MOL0     C10086   3.841   1.869  10.740 -0.0564  0.0646  0.7339
  816MOL0     C10087   3.690   1.882  10.693 -0.7965  0.3535 -0.8153
  816MOL0     C10088   3.643   1.756  10.632 -0.0443 -0.6856 -0.4260
  816MOL0     C10089   3.614   1.664  10.561 -0.3685  0.0467  0.0429
  816MOL0     C10090   4.305   1.780  10.922 -0.0576  0.1312  0.3585
  816MOL0     C10091   4.440   1.784  10.969 -0.2403  0.4959 -0.3331
  816MOL0     C10092   4.483   1.700  11.091 -0.2293 -0.2012 -0.1123
  816MOL0     H10093   4.886   1.896  10.706 -0.5567  2.0392 -0.1105
  816MOL0     H10094   5.140   1.894  10.704  1.7001  2.0722 -1.6903
  816MOL0     H10095   5.378   1.901  10.782 -0.9770  0.5356 -1.2221
  816MOL0     H10096   5.464   1.969  10.926  0.1062  1.1201 -2.0971
  816MOL0     H10097   5.195   1.826  10.985 -0.7598  2.4676  2.7936
  816MOL0     H10098   5.327   1.861  11.082 -1.7593 -0.3495  0.3719
  816MOL0     H10099   5.468   1.691  10.918 -0.3007 -3.2744  1.0552
  816MOL0     H10100   5.312   1.660  10.847  1.5413 -1.1456 -1.0402
  816MOL0     H10101   5.404   1.595  11.132 -0.5032 -0.2860  0.3725
  816MOL0     H10102   5.233   1.613  11.097 -0.8371 -2.0444 -1.4291
  816MOL0     H10103   5.283   1.392  11.102 -1.7753  0.4300 -0.1618
  816MOL0     H10104   5.250   1.421  10.933  0.2308  0.3289 -1.4219
  816MOL0     H10105   5.508   1.440  10.890  0.5162 -2.4919 -0.9950
  816MOL0     H10106   5.529   1.426  11.064  0.1870 -0.4160  0.1535
  816MOL0     H10107   5.420   1.217  10.881 -3.1722  2.8745  1.1731
  816MOL0     H10108   5.442   1.195  11.059  1.0250 -0.6917  0.7005
  816MOL0     H10109   5.632   1.084  10.944  1.4044  0.5652  1.4964
  816MOL0     H10110   5.667   1.238  10.851  2.4934  1.2728  0.8089
  816MOL0     H10111   5.630   1.137  11.228  1.2522 -0.4428 -0.1086
  816MOL0     H10112   5.817   1.381  11.433 -0.5499  0.3886 -0.5347
  816MOL0     H10113   5.712   1.241  11.448  3.1427 -1.3241  2.9187
  816MOL0     H10114   5.923   1.091  11.409  1.6833  0.0982 -2.2940
  816MOL0     H10115   6.016   1.232  11.377 -0.8048 -0.1590 -0.6917
  816MOL0     H10116   5.898   1.213  11.651  1.0881  0.7727  0.5614
  816MOL0     H10117   6.026   1.316  11.596  0.0607  0.5461 -3.2172
  816MOL0     H10118   6.044   1.017  11.617 -2.3955  1.2928 -4.6391
  816MOL0     H10119   6.115   1.139  11.716  3.4212 -0.2004 -0.7828
  816MOL0     H10120   6.269   0.997  11.740 -0.4969 -0.4222 -0.6126
  816MOL0     H10121   6.464   0.871  11.780  0.0608 -1.5991 -0.8318
  816MOL0     H10122   6.917   0.649  11.600 -1.5013 -3.6748  0.7832
  816MOL0     H10123   7.134   0.615  11.698  0.6849 -0.4582  2.4092
  816MOL0     H10124   7.287   0.549  11.808  0.1488 -2.8669  2.2783
  816MOL0     H10125   7.378   0.709  11.806  2.4229  0.1841  3.6326
  816MOL0     H10126   7.494   0.530  11.891 -1.4757  1.4720 -2.8334
  816MOL0     H10127   7.465   0.644  12.025 -1.3471 -2.9359  5.7365
  816MOL0     H10128   7.318   0.504  12.155  1.1035  3.9159 -0.8863
  816MOL0     H10129   7.258   0.431  12.006  0.7900 -0.4136  2.1234
  816MOL0     H10130   7.482   0.303  12.001  2.4156  0.7243 -0.0661
  816MOL0     H10131   7.387   0.273  12.143  2.5876 -2.4942 -0.6256
  816MOL0     H10132   7.619   0.460  12.118 -3.1132  0.4891 -0.9005
  816MOL0     H10133   7.626   0.294  12.176  0.1119 -0.4959  2.6312
  816MOL0     H10134   7.480   0.507  12.337  1.6845  0.3348 -1.3558
  816MOL0     H10135   7.476   0.325  12.348  0.4258 -0.4263 -1.4143
  816MOL0     H10136   7.719   0.504  12.363  0.5486  0.3471  1.2574
  816MOL0     H10137   7.714   0.332  12.407  2.0704  1.6094 -0.3367
  816MOL0     H10138   7.557   0.551  12.558 -0.4385 -1.3030  1.1226
  816MOL0     H10139   7.571   0.382  12.606 -0.5837 -0.6882  0.0731
  816MOL0     H10140   6.999   0.833  12.050  2.3428 -1.5370  0.7293
  816MOL0     H10141   6.784   0.856  11.953 -0.7098 -1.4873 -0.4055
  816MOL0     H10142   6.593   1.007  11.375 -0.7155 -0.7354 -0.7033
  816MOL0     H10143   6.406   1.127  11.359  2.0304 -1.8458 -0.0721
  816MOL0     H10144   5.121   2.207  10.997  2.0490 -1.8611  0.2946
  816MOL0     H10145   4.865   2.204  10.963 -1.6327 -0.9777 -0.2573
  816MOL0     H10146   4.553   2.007  10.733 -0.3023 -0.1610 -1.4360
  816MOL0     H10147   4.333   1.994  10.646 -1.0327  0.2695  0.4343
  816MOL0     H10148   4.123   1.944  10.568  1.1066  1.1059  1.1748
  816MOL0     H10149   4.082   2.012  10.730 -0.7615  0.1736  1.7557
  816MOL0     H10150   3.923   1.795  10.565 -2.7963 -0.6677  1.0545
  816MOL0     H10151   3.892   1.971  10.569 -0.7432  2.1311  3.7084
  816MOL0     H10152   3.848   1.941  10.822 -0.5155  0.4550  0.4347
  816MOL0     H10153   3.853   1.766  10.775 -0.5126 -1.6932 -3.6834
  816MOL0     H10154   3.626   1.907  10.778  0.4049 -1.2725  0.6304
  816MOL0     H10155   3.682   1.963  10.620  0.4484  0.6267 -0.6599
  816MOL0     H10156   3.602   1.576  10.500 -3.0213 -0.2816  0.8868
  816MOL0     H10157   4.235   1.726  10.984 -0.6402  1.2488  0.7088
  816MOL0     H10158   4.400   1.674  11.157  0.0837  1.0348  0.8035
  816MOL0     H10159   4.545   1.614  11.061 -1.9016 -1.3220 -0.5032
  816MOL0     H10160   4.557   1.755  11.150  0.6720  0.1291 -1.5094
  817MOL0     O10161   6.576   1.023   3.497 -0.8067  0.3004 -0.0509
  817MOL0     C10162   6.536   1.040   3.383 -0.1898 -0.4187 -0.3852
  817MOL0     O10163   6.612   1.031   3.264  0.4002  0.2913 -0.8586
  817MOL0     C10164   6.743   1.020   3.274  0.2312 -0.2338 -0.2935
  817MOL0     C10165   6.810   0.915   3.334  0.3725 -0.0912 -0.1931
  817MOL0     C10166   6.955   0.912   3.335  0.9188 -1.2976 -0.4242
  817MOL0     C10167   7.029   1.012   3.284 -0.0431 -0.8670 -0.3416
  817MOL0     O10168   7.165   1.006   3.272  0.3827 -0.4790  0.3255
  817MOL0     C10169   7.233   1.003   3.400  0.7307  0.3007  0.2493
  817MOL0     C10170   7.378   0.997   3.363  0.0695  1.1956 -0.1317
  817MOL0     C10171   7.471   0.995   3.483  0.0944  0.0264 -0.1464
  817MOL0     C10172   7.609   0.968   3.437 -0.2144 -0.4365  0.4034
  817MOL0     C10173   7.702   0.920   3.547  0.6067  0.5428 -0.4889
  817MOL0     C10174   7.845   0.900   3.488 -0.1381  0.6558  0.1568
  817MOL0     C10175   7.922   1.025   3.436 -0.6618  1.3429  0.4289
  817MOL0     C10176   7.963   1.118   3.541  0.3548 -0.3403  0.3965
  817MOL0     N10177   7.997   1.252   3.475  0.4895  0.5147 -0.7589
  817MOL0     C10178   8.115   1.290   3.411  0.8389 -0.8914 -0.2169
  817MOL0     C10179   8.094   1.419   3.370 -0.1363 -0.1862  0.0543
  817MOL0     C10180   8.188   1.524   3.317  0.3653 -0.0694 -0.2232
  817MOL0     C10181   8.191   1.511   3.158 -0.4769 -0.3780  0.3779
  817MOL0     C10182   8.319   1.577   3.108 -0.2437 -0.3437 -0.5542
  817MOL0     C10183   8.455   1.521   3.141 -0.2975 -0.1483 -0.9321
  817MOL0     O10184   8.500   1.421   3.052  0.2641 -0.5434 -0.0701
  817MOL0     C10185   8.629   1.386   3.067 -0.2215  0.8339  0.4775
  817MOL0     C10186   8.723   1.453   3.134  0.1864  0.1722  0.5496
  817MOL0     C10187   8.855   1.415   3.124 -0.7093 -0.0690 -0.5865
  817MOL0     C10188   8.905   1.312   3.038 -0.2993  0.3087 -0.6479
  817MOL0     C10189   9.048   1.258   3.030 -0.2427  0.2448 -0.5470
  817MOL0     O10190   9.140   1.343   3.080  0.0881  0.2893  0.1250
  817MOL0     C10191   9.267   1.291   3.075 -0.7094 -0.1050  0.5743
  817MOL0     C10192   9.358   1.345   2.983  0.1066  0.7455  0.3829
  817MOL0     C10193   9.489   1.294   2.975  0.2337 -1.1973  0.4643
  817MOL0     C10194   9.540   1.210   3.073  0.6683 -0.3041 -0.0695
  817MOL0     O10195   9.671   1.177   3.064  1.0670  0.3046  0.5229
  817MOL0     C10196   9.715   1.056   3.130 -0.7341  0.5430  0.1252
  817MOL0     C10197   9.865   1.020   3.110 -0.1252  0.2792 -0.1475
  817MOL0     C10198   9.963   1.130   3.161  0.5063  0.3469  0.4797
  817MOL0     C10199  10.106   1.092   3.149  0.0694  0.6942  0.9938
  817MOL0     C10200  10.204   1.179   3.233  0.0640  0.1501  0.0813
  817MOL0     C10201  10.194   1.333   3.213 -0.1261  0.6047 -0.1482
  817MOL0     C10202  10.279   1.386   3.094 -0.6752  0.5660 -0.0705
  817MOL0     C10203  10.217   1.504   3.033 -0.1712  1.3182 -0.0839
  817MOL0    Cl10204  10.256   1.644   3.133 -0.1457  0.1308 -0.0533
  817MOL0     C10205   9.451   1.164   3.171  0.2176  0.3014  0.1033
  817MOL0     C10206   9.320   1.211   3.183  0.0741  0.1376 -0.9670
  817MOL0     O10207   9.065   1.143   3.000  0.7113 -0.1142  0.6740
  817MOL0     C10208   8.808   1.241   2.969 -0.1796 -0.1125 -0.6131
  817MOL0     C10209   8.676   1.271   2.988  0.1004 -0.7387 -0.3275
  817MOL0     N10210   7.971   1.456   3.416  0.3327 -0.2004  0.2408
  817MOL0     N10211   7.917   1.363   3.485  0.1266  0.6633 -0.1543
  817MOL0     C10212   6.964   1.119   3.222  0.2630  0.1010  0.3465
  817MOL0     C10213   6.821   1.125   3.226 -0.1385 -0.1462  1.0125
  817MOL0     C10214   6.397   1.078   3.362 -0.2159  0.6622 -0.5795
  817MOL0     C10215   6.349   1.085   3.228 -0.0229 -0.4511  0.2315
  817MOL0     C10216   6.215   1.113   3.203 -0.1865 -0.5165 -0.6407
  817MOL0     C10217   6.134   1.137   3.309  0.2893 -0.2788 -0.0076
  817MOL0     O10218   6.004   1.177   3.287  0.0529 -0.2497  0.1777
  817MOL0     C10219   5.909   1.073   3.284 -1.1116  0.1111  0.1505
  817MOL0     C10220   5.770   1.110   3.267  0.6785 -0.1429  0.3843
  817MOL0     C10221   5.738   1.169   3.133 -0.6745 -0.0233 -0.0285
  817MOL0     C10222   5.590   1.200   3.109 -0.0229 -0.1799  0.5606
  817MOL0     C10223   5.519   1.074   3.110 -0.0690  0.3239  0.3353
  817MOL0     C10224   5.456   0.968   3.112 -0.9560 -0.2538 -0.1908
  817MOL0     C10225   6.176   1.135   3.441 -0.2983  0.5463 -0.2304
  817MOL0     C10226   6.306   1.098   3.470 -0.4248  0.2985  0.3978
  817MOL0     C10227   6.332   1.107   3.623 -0.1260 -0.1040  1.0111
  817MOL0     H10228   6.746   0.831   3.361 -0.7484  0.4396 -1.0922
  817MOL0     H10229   7.006   0.821   3.364  1.9274 -0.5840  0.0899
  817MOL0     H10230   7.208   1.097   3.450  0.6126 -0.2643  1.2853
  817MOL0     H10231   7.201   0.920   3.464  1.4364  0.5508  0.9380
  817MOL0     H10232   7.399   1.089   3.308 -0.0238  2.4998  1.8846
  817MOL0     H10233   7.385   0.909   3.298  0.3840  1.4231 -0.4109
  817MOL0     H10234   7.442   0.916   3.553  1.9194 -2.0251 -1.5719
  817MOL0     H10235   7.471   1.092   3.534 -0.2153  1.4287 -2.6690
  817MOL0     H10236   7.614   0.888   3.363  0.1315 -0.7164  0.7248
  817MOL0     H10237   7.641   1.062   3.392  2.5821 -0.2861  2.4539
  817MOL0     H10238   7.704   0.998   3.623 -3.5731 -1.6876  2.2606
  817MOL0     H10239   7.655   0.839   3.603 -2.5648  3.7201  1.8714
  817MOL0     H10240   7.911   0.859   3.565  0.0546  0.9927  0.1759
  817MOL0     H10241   7.850   0.823   3.410  2.0278 -0.7704  1.5995
  817MOL0     H10242   7.851   1.072   3.367 -0.2324  1.2251 -0.0958
  817MOL0     H10243   8.001   0.987   3.371 -3.0051 -1.7275 -0.8733
  817MOL0     H10244   7.875   1.136   3.603  0.8841  2.5866  0.4267
  817MOL0     H10245   8.045   1.069   3.595  0.7584  1.2112  1.2446
  817MOL0     H10246   8.207   1.233   3.411  1.7113  0.4476 -1.1690
  817MOL0     H10247   8.153   1.623   3.347  2.4010  0.3679  0.8319
  817MOL0     H10248   8.288   1.514   3.360  0.6431 -0.2891 -0.9048
  817MOL0     H10249   8.197   1.407   3.125  0.7420 -0.5138  0.9410
  817MOL0     H10250   8.100   1.547   3.110 -1.3769 -1.4240  1.2256
  817MOL0     H10251   8.323   1.677   3.153 -0.2981 -2.0747  3.7464
  817MOL0     H10252   8.309   1.588   3.000  0.9119 -0.4528 -0.6826
  817MOL0     H10253   8.474   1.499   3.246 -1.2507  1.0714 -0.4719
  817MOL0     H10254   8.519   1.609   3.130 -1.7820  0.7939 -2.6931
  817MOL0     H10255   8.695   1.528   3.206  4.0193  2.5564 -0.1451
  817MOL0     H10256   8.922   1.482   3.177  0.4833 -2.7676  1.5770
  817MOL0     H10257   9.321   1.422   2.916  0.5293 -0.0990 -0.8464
  817MOL0     H10258   9.560   1.349   2.914 -0.2768  0.1799  1.0747
  817MOL0     H10259   9.714   1.066   3.239  0.9424  0.7609  0.1518
  817MOL0     H10260   9.656   0.969   3.100  0.0321 -0.1939  0.7156
  817MOL0     H10261   9.879   0.927   3.166 -1.5869 -0.1516 -0.4405
  817MOL0     H10262   9.890   0.990   3.008  1.3947 -2.1009  0.8556
  817MOL0     H10263   9.927   1.214   3.100 -0.9290 -0.7266 -0.2085
  817MOL0     H10264   9.932   1.153   3.263 -2.2509 -1.9337  0.2807
  817MOL0     H10265  10.139   1.093   3.045  0.4632 -1.1782  1.0735
  817MOL0     H10266  10.112   0.988   3.182  3.4196  0.7694  0.9911
  817MOL0     H10267  10.307   1.146   3.218 -0.2615 -0.6540 -0.4437
  817MOL0     H10268  10.170   1.158   3.335 -0.5057  0.8564  0.0399
  817MOL0     H10269  10.090   1.367   3.213 -0.3402  0.2444  3.1908
  817MOL0     H10270  10.235   1.380   3.303  0.4536 -0.3835  0.1277
  817MOL0     H10271  10.285   1.306   3.020  4.1365 -0.5638  1.2189
  817MOL0     H10272  10.383   1.403   3.124  0.5315 -2.7021 -1.8013
  817MOL0     H10273  10.257   1.523   2.933  0.3184  1.6744  0.1778
  817MOL0     H10274  10.109   1.489   3.027  0.0240 -1.7408  1.7937
  817MOL0     H10275   9.492   1.109   3.255  1.0101  1.9885  0.8511
  817MOL0     H10276   9.253   1.189   3.265  1.2024 -0.2701 -0.1399
  817MOL0     H10277   8.829   1.156   2.905  1.3093  0.9064 -1.5504
  817MOL0     H10278   8.608   1.224   2.918  0.1313  2.9301 -3.1552
  817MOL0     H10279   7.016   1.199   3.170  0.5731 -0.9964 -1.1211
  817MOL0     H10280   6.771   1.213   3.188 -1.0096 -0.1933  1.9995
  817MOL0     H10281   6.412   1.056   3.145  0.4256  0.8130  0.1073
  817MOL0     H10282   6.175   1.109   3.102 -1.5069  1.0409 -0.2221
  817MOL0     H10283   5.928   1.002   3.365  4.5162  1.2976  0.2514
  817MOL0     H10284   5.938   1.016   3.196 -0.6098 -1.3293  1.2045
  817MOL0     H10285   5.726   1.169   3.347 -2.3473  0.6210 -1.6542
  817MOL0     H10286   5.721   1.012   3.270  1.1909 -0.3821  1.6092
  817MOL0     H10287   5.783   1.111   3.051  1.0099  0.9262  0.1864
  817MOL0     H10288   5.795   1.262   3.120 -1.6665  0.2309 -3.4906
  817MOL0     H10289   5.548   1.267   3.184  1.1162  1.8543 -0.5344
  817MOL0     H10290   5.573   1.245   3.011  0.4371 -3.2449 -1.0622
  817MOL0     H10291   5.408   0.872   3.119 -2.2670  0.4532  0.9778
  817MOL0     H10292   6.112   1.162   3.525 -0.2444  0.3232 -0.1148
  817MOL0     H10293   6.368   1.009   3.657 -1.4026 -0.3403  1.7645
  817MOL0     H10294   6.415   1.172   3.652 -0.3567  1.5934 -1.8299
  817MOL0     H10295   6.250   1.135   3.690  1.3166  1.9969  1.9823
  818MOL0     O10296   9.737   3.799   8.824 -0.2769  0.5634 -0.8724
  818MOL0     C10297   9.674   3.825   8.727  0.7230  0.6685 -0.5651
  818MOL0     O10298   9.657   3.950   8.684  0.5184 -0.4782  0.7711
  818MOL0     C10299   9.713   4.054   8.765  0.9796 -0.1320 -0.5441
  818MOL0     C10300   9.848   4.092   8.767 -0.1948  0.3730  0.1744
  818MOL0     C10301   9.894   4.205   8.844  0.4590  0.9123 -0.2163
  818MOL0     C10302   9.798   4.279   8.916  0.0165 -0.2115 -1.3439
  818MOL0     O10303   9.854   4.393   8.981  0.0649  0.4093  0.4046
  818MOL0     C10304   9.769   4.481   9.051 -0.7168  0.5925 -0.5969
  818MOL0     C10305   9.738   4.426   9.189 -0.5886 -0.3858  0.3011
  818MOL0     C10306   9.859   4.438   9.287 -0.5338  0.1036 -1.1298
  818MOL0     C10307   9.819   4.396   9.434 -1.0776  0.3638  0.7565
  818MOL0     C10308   9.921   4.432   9.536 -0.4931  1.1038  0.4313
  818MOL0     C10309  10.058   4.377   9.486 -0.0722  0.0571 -0.1073
  818MOL0     C10310  10.149   4.392   9.607 -0.4615 -0.1256  0.2413
  818MOL0     C10311  10.289   4.378   9.546 -0.0431 -0.1403 -0.4572
  818MOL0     N10312  10.393   4.349   9.645  0.5119 -0.4300 -0.0758
  818MOL0     C10313  10.510   4.277   9.622 -0.0803 -0.1216 -0.2978
  818MOL0     C10314  10.567   4.288   9.742 -0.0671  0.2668 -0.0477
  818MOL0     C10315  10.690   4.218   9.776 -0.1533 -0.5097  0.1474
  818MOL0     C10316  10.811   4.251   9.682 -0.8034 -0.2022  0.3371
  818MOL0     C10317  10.945   4.200   9.746  1.3828 -0.2942 -0.5577
  818MOL0     C10318  11.078   4.221   9.668 -0.4533  0.4974 -0.2197
  818MOL0     O10319  11.182   4.149   9.747  0.6387  0.1153  0.0684
  818MOL0     C10320  11.317   4.174   9.760 -0.2583 -1.5643  0.1255
  818MOL0     C10321  11.395   4.081   9.832 -0.4926 -0.2449 -1.3308
  818MOL0     C10322  11.537   4.084   9.829 -0.3354 -0.4373 -0.0223
  818MOL0     C10323  11.603   4.203   9.780  0.5046 -0.3375  0.3948
  818MOL0     C10324  11.747   4.214   9.799 -0.4966  0.1149  1.2010
  818MOL0     O10325  11.798   4.117   9.884  0.4878 -0.9337  0.4214
  818MOL0     C10326  11.920   4.143   9.936 -0.1013 -0.1117 -0.4200
  818MOL0     C10327  12.047   4.080   9.906 -1.0841  0.5024 -0.0774
  818MOL0     C10328  12.167   4.121   9.965 -0.3155  0.4310 -0.3565
  818MOL0     C10329  12.174   4.228  10.051 -0.4632 -0.6738 -0.4503
  818MOL0     O10330  12.290   4.277  10.114 -0.4388 -0.2773  0.2411
  818MOL0     C10331  12.398   4.281  10.015  0.9012  1.1170 -0.4644
  818MOL0     C10332  12.530   4.324  10.081  1.1808  0.2455  0.8169
  818MOL0     C10333  12.645   4.325   9.986 -0.6714  0.5989 -0.3723
  818MOL0     C10334  12.744   4.426  10.042 -0.0627 -0.1075  0.0273
  818MOL0     C10335  12.870   4.424   9.951 -0.2730 -0.0525 -0.7318
  818MOL0     C10336  12.983   4.515  10.005 -0.1299 -0.5333 -0.2607
  818MOL0     C10337  13.093   4.518   9.901 -0.1891 -0.2635  0.0046
  818MOL0     C10338  13.215   4.592   9.950  0.3173 -0.5688  0.7612
  818MOL0    Cl10339  13.174   4.765   9.988 -0.3075 -0.2046  0.2704
  818MOL0     C10340  12.054   4.286  10.083  0.9142  0.0038 -0.0983
  818MOL0     C10341  11.929   4.241  10.033 -0.2448 -1.4627 -0.0845
  818MOL0     O10342  11.816   4.307   9.752 -0.3492 -0.4274  0.3290
  818MOL0     C10343  11.522   4.297   9.704 -0.4379  0.3426 -0.7553
  818MOL0     C10344  11.384   4.284   9.699 -0.1723 -0.4393  0.7361
  818MOL0     N10345  10.497   4.366   9.835  0.8790  0.0136  0.6847
  818MOL0     N10346  10.390   4.395   9.774  0.4044  0.5830  0.3689
  818MOL0     C10347   9.663   4.239   8.910  0.2613 -0.0078  0.4074
  818MOL0     C10348   9.623   4.130   8.840  0.2844  0.4479  0.6539
  818MOL0     C10349   9.621   3.715   8.652 -0.2217 -0.8572  0.3641
  818MOL0     C10350   9.568   3.741   8.524 -0.8085 -0.3556  0.1540
  818MOL0     C10351   9.506   3.643   8.448 -0.0807  0.2910  0.1108
  818MOL0     C10352   9.484   3.515   8.493 -0.8787  0.2246 -0.0822
  818MOL0     O10353   9.428   3.424   8.400 -0.0083 -0.1071  0.5041
  818MOL0     C10354   9.328   3.338   8.453 -0.2093  0.7420 -0.1483
  818MOL0     C10355   9.205   3.328   8.364  0.4367 -0.2621 -0.1632
  818MOL0     C10356   9.142   3.470   8.338 -0.6719  0.0166 -0.2132
  818MOL0     C10357   9.010   3.450   8.267 -0.1969 -0.2957  0.1824
  818MOL0     C10358   8.944   3.571   8.232  0.8563 -0.0274 -0.6502
  818MOL0     C10359   8.899   3.682   8.223  0.3646  1.0997 -0.6291
  818MOL0     C10360   9.541   3.488   8.618  0.5944  0.0292 -0.0028
  818MOL0     C10361   9.608   3.581   8.701 -0.2036  0.2141  0.5645
  818MOL0     C10362   9.658   3.532   8.835  0.1844 -0.3909 -1.2971
  818MOL0     H10363   9.915   4.026   8.712  1.2510 -0.0427  2.2830
  818MOL0     H10364   9.997   4.239   8.846  0.5231  0.6764  0.7122
  818MOL0     H10365   9.823   4.576   9.056 -0.6645  0.5231  0.3623
  818MOL0     H10366   9.677   4.498   8.995 -2.1899 -0.2321  1.4511
  818MOL0     H10367   9.707   4.322   9.172 -0.2807 -0.4261 -0.0299
  818MOL0     H10368   9.650   4.465   9.241  0.2817 -0.3777  1.8298
  818MOL0     H10369   9.897   4.539   9.299  0.0783 -0.4480  2.7810
  818MOL0     H10370   9.937   4.378   9.240 -0.2114 -0.1494 -0.2963
  818MOL0     H10371   9.720   4.438   9.453 -2.1033 -0.2676 -2.6021
  818MOL0     H10372   9.809   4.287   9.432 -4.1256  0.4333  3.6895
  818MOL0     H10373   9.944   4.538   9.552  2.1622  0.5289  1.0841
  818MOL0     H10374   9.893   4.385   9.631 -0.9881 -0.1394 -0.3251
  818MOL0     H10375  10.051   4.271   9.460  2.4192 -0.4508  1.0722
  818MOL0     H10376  10.093   4.431   9.397 -0.2445 -0.7511 -0.6869
  818MOL0     H10377  10.129   4.305   9.670  0.2302 -0.1208  0.4765
  818MOL0     H10378  10.142   4.485   9.664  0.0542 -2.3351  4.2468
  818MOL0     H10379  10.282   4.301   9.469 -1.3382  0.6361 -1.1528
  818MOL0     H10380  10.329   4.466   9.495  1.2348 -1.0462 -1.0430
  818MOL0     H10381  10.553   4.232   9.533 -0.0299 -0.9347  0.1338
  818MOL0     H10382  10.721   4.244   9.878 -2.2878 -0.1433  0.7550
  818MOL0     H10383  10.675   4.111   9.789  1.4847 -0.7354  0.3668
  818MOL0     H10384  10.802   4.199   9.586  0.9148 -0.3042  0.2054
  818MOL0     H10385  10.825   4.359   9.675 -2.0990 -0.1572 -3.3883
  818MOL0     H10386  10.925   4.094   9.760 -0.4232 -0.2642 -2.4614
  818MOL0     H10387  10.956   4.251   9.842  1.0897 -1.9297  0.3850
  818MOL0     H10388  11.094   4.329   9.659 -1.2435  0.7380  0.9958
  818MOL0     H10389  11.063   4.185   9.566  0.4889 -0.2176 -0.1147
  818MOL0     H10390  11.353   3.991   9.877  2.8675 -1.7147 -0.7811
  818MOL0     H10391  11.597   4.005   9.870 -0.3730 -0.6152 -0.3044
  818MOL0     H10392  12.061   4.001   9.833  2.0377  0.7712  0.1189
  818MOL0     H10393  12.254   4.061   9.939  0.0700  0.3900  0.9243
  818MOL0     H10394  12.414   4.178   9.982  3.3817  1.7869 -1.5954
  818MOL0     H10395  12.372   4.350   9.933  1.6743  2.8747  0.7093
  818MOL0     H10396  12.511   4.419  10.133 -1.2394  0.5662 -0.5132
  818MOL0     H10397  12.550   4.264  10.171  6.5303  0.9797  0.4580
  818MOL0     H10398  12.671   4.222   9.961  0.1837 -0.0177  2.6424
  818MOL0     H10399  12.600   4.373   9.898 -1.1360  1.9831  0.5746
  818MOL0     H10400  12.779   4.402  10.143 -0.3577  0.8755  0.3736
  818MOL0     H10401  12.699   4.526  10.039 -1.4570 -0.5436  2.7499
  818MOL0     H10402  12.829   4.449   9.853  2.8513 -0.7508 -2.3338
  818MOL0     H10403  12.913   4.324   9.953  2.3565  0.9473 -2.6472
  818MOL0     H10404  12.938   4.613  10.022  0.8862 -0.4563  2.4664
  818MOL0     H10405  13.028   4.466  10.092 -0.5988 -1.3601 -0.4674
  818MOL0     H10406  13.051   4.558   9.809  0.0305 -4.7548 -2.3624
  818MOL0     H10407  13.125   4.416   9.874 -0.5867 -0.1856 -0.7826
  818MOL0     H10408  13.265   4.554  10.039  0.3709  1.4418  1.6403
  818MOL0     H10409  13.295   4.596   9.876  1.4267 -1.4031  1.8874
  818MOL0     H10410  12.062   4.376  10.143 -1.2263  0.1039  0.1055
  818MOL0     H10411  11.835   4.296  10.045  0.4678  0.0899 -1.2331
  818MOL0     H10412  11.578   4.377   9.654  1.5304 -0.4668  0.0387
  818MOL0     H10413  11.322   4.351   9.641 -1.8743 -1.2337  1.5723
  818MOL0     H10414   9.591   4.287   8.976 -0.7957  1.0938 -1.4391
  818MOL0     H10415   9.520   4.102   8.863  0.5091  0.2913  1.5064
  818MOL0     H10416   9.571   3.839   8.478  1.3701  0.8225  2.5577
  818MOL0     H10417   9.464   3.664   8.350 -0.7948  0.3597  0.4246
  818MOL0     H10418   9.291   3.369   8.551 -1.6652 -1.2629  0.0127
  818MOL0     H10419   9.364   3.235   8.464 -2.6634 -0.2741 -0.9252
  818MOL0     H10420   9.129   3.265   8.411 -0.0189  1.3175  1.3455
  818MOL0     H10421   9.228   3.287   8.266  1.1899 -2.5531  0.9101
  818MOL0     H10422   9.207   3.524   8.269 -0.1774 -2.8040 -2.1196
  818MOL0     H10423   9.118   3.529   8.427 -0.4932  0.4746 -0.4585
  818MOL0     H10424   9.028   3.405   8.169  3.1224 -1.1118  1.0463
  818MOL0     H10425   8.938   3.387   8.320  1.2425  0.5362  3.3412
  818MOL0     H10426   8.867   3.782   8.199  0.0466  0.6626 -2.1787
  818MOL0     H10427   9.546   3.385   8.650 -0.0565  1.2154  4.5387
  818MOL0     H10428   9.591   3.460   8.883  1.2004  1.4333  3.3648
  818MOL0     H10429   9.751   3.474   8.827  0.5210  0.2453 -2.2376
  818MOL0     H10430   9.666   3.607   8.914 -3.2175 -0.2344 -0.9799
  819MOL0     O10431   9.586   3.560   6.721  0.0731 -0.4155 -0.2520
  819MOL0     C10432   9.593   3.474   6.629 -0.3347  0.0143 -1.1869
  819MOL0     O10433   9.703   3.446   6.562  0.1509 -0.4333 -0.2855
  819MOL0     C10434   9.820   3.518   6.592 -0.6988 -0.2958  0.2158
  819MOL0     C10435   9.926   3.437   6.637 -0.6611 -0.0990 -0.2882
  819MOL0     C10436  10.059   3.488   6.659  1.1633  0.6067  0.5046
  819MOL0     C10437  10.085   3.622   6.615  0.3667  0.6472  0.2488
  819MOL0     O10438  10.208   3.677   6.612 -0.3105 -0.6097 -0.3947
  819MOL0     C10439  10.326   3.597   6.652  0.4537 -0.5177 -0.6010
  819MOL0     C10440  10.375   3.646   6.789  0.1052 -0.2181 -0.1853
  819MOL0     C10441  10.507   3.571   6.830  0.1941 -0.4374 -0.6274
  819MOL0     C10442  10.560   3.615   6.967  0.1006 -0.2057 -0.1887
  819MOL0     C10443  10.666   3.516   7.021  0.7682 -0.4238  0.0484
  819MOL0     C10444  10.725   3.540   7.158 -0.9735 -0.1299 -0.4565
  819MOL0     C10445  10.837   3.655   7.175  0.0341  0.8174  0.2073
  819MOL0     C10446  10.974   3.605   7.118 -0.1091 -0.1930  0.4942
  819MOL0     N10447  11.080   3.705   7.121 -0.4639 -0.8703 -0.3192
  819MOL0     C10448  11.145   3.760   7.229 -0.1832  0.0809 -0.0743
  819MOL0     C10449  11.238   3.844   7.179 -0.0299 -0.1644  0.2471
  819MOL0     C10450  11.333   3.923   7.252 -0.2455 -0.1011  0.1398
  819MOL0     C10451  11.272   4.024   7.341 -0.3739 -0.7006 -0.7257
  819MOL0     C10452  11.369   4.125   7.403  0.2747  0.3844  0.8306
  819MOL0     C10453  11.296   4.246   7.481  0.0878  0.7980  1.0462
  819MOL0     O10454  11.379   4.306   7.574  0.4379 -0.5095  0.4074
  819MOL0     C10455  11.500   4.349   7.529  0.3032 -0.5843 -0.8207
  819MOL0     C10456  11.609   4.327   7.616 -0.1110  0.1619 -0.4255
  819MOL0     C10457  11.744   4.349   7.587 -0.5791  1.2696 -0.0836
  819MOL0     C10458  11.778   4.410   7.472  0.1519  0.7287  0.2437
  819MOL0     C10459  11.923   4.428   7.438  0.7599 -0.5399 -0.1237
  819MOL0     O10460  12.006   4.435   7.548 -0.8620  0.0583 -0.3110
  819MOL0     C10461  12.136   4.456   7.553 -0.4714 -1.0554  0.2478
  819MOL0     C10462  12.220   4.507   7.453 -0.0892 -0.4882  0.0926
  819MOL0     C10463  12.357   4.522   7.471  0.6595 -0.3951  0.2982
  819MOL0     C10464  12.421   4.487   7.589 -0.2847  0.1109 -0.4686
  819MOL0     O10465  12.560   4.492   7.598  0.4334  0.2347  0.5065
  819MOL0     C10466  12.611   4.421   7.715  0.0999  0.0521 -0.8661
  819MOL0     C10467  12.757   4.404   7.730  0.0119  0.2137 -0.1614
  819MOL0     C10468  12.830   4.537   7.748  0.0246 -0.2478  0.6252
  819MOL0     C10469  12.987   4.518   7.724  0.4960  0.2875  0.1999
  819MOL0     C10470  13.056   4.653   7.735 -0.4637 -0.4452 -1.0202
  819MOL0     C10471  13.199   4.637   7.712 -0.7013 -0.7925  0.2713
  819MOL0     C10472  13.236   4.630   7.559 -0.1403 -0.5351 -0.3287
  819MOL0     C10473  13.374   4.677   7.526 -0.3063  0.2175 -0.2721
  819MOL0    Cl10474  13.490   4.560   7.608 -0.1968  0.2394 -0.1436
  819MOL0     C10475  12.336   4.446   7.693  0.0358  0.7226  0.0289
  819MOL0     C10476  12.195   4.433   7.681 -0.1886  0.4348 -0.1301
  819MOL0     O10477  11.953   4.459   7.321 -0.1306  0.8504  0.5401
  819MOL0     C10478  11.675   4.443   7.380  0.8957  0.0955  0.4494
  819MOL0     C10479  11.537   4.401   7.403 -0.8939 -0.6802 -0.0688
  819MOL0     N10480  11.228   3.853   7.042 -0.5806 -0.0386  0.2611
  819MOL0     N10481  11.144   3.755   7.008 -0.1067  0.8263 -0.7151
  819MOL0     C10482   9.976   3.697   6.564 -0.8248  0.4564  0.6815
  819MOL0     C10483   9.847   3.647   6.553  0.7028  0.4246 -1.0657
  819MOL0     C10484   9.464   3.403   6.589  0.5792  0.1484  0.4302
  819MOL0     C10485   9.482   3.280   6.529  0.4590  0.7743  0.1093
  819MOL0     C10486   9.374   3.200   6.487  0.1703 -0.4486  0.7701
  819MOL0     C10487   9.248   3.253   6.482  0.2844  0.0476  0.0199
  819MOL0     O10488   9.150   3.165   6.454 -0.8359  0.1139  0.2318
  819MOL0     C10489   9.016   3.206   6.418 -0.2710 -0.4030 -0.3764
  819MOL0     C10490   8.930   3.083   6.387 -0.0306 -0.6650  0.8231
  819MOL0     C10491   8.785   3.115   6.331 -0.4572 -0.0392  0.7981
  819MOL0     C10492   8.703   2.995   6.346  0.4478  0.4417  0.3917
  819MOL0     C10493   8.575   3.016   6.289  0.3526  0.1623  0.3062
  819MOL0     C10494   8.461   3.021   6.242 -0.1508  0.2215 -0.5910
  819MOL0     C10495   9.221   3.376   6.528  0.5618 -0.2007 -0.6215
  819MOL0     C10496   9.333   3.452   6.584  0.7984 -0.2506 -0.4727
  819MOL0     C10497   9.313   3.592   6.630 -0.7633  0.1875 -0.0481
  819MOL0     H10498   9.904   3.334   6.664 -0.7859 -0.1699 -0.6431
  819MOL0     H10499  10.140   3.435   6.707  0.3304 -0.2177  1.0171
  819MOL0     H10500  10.315   3.490   6.632 -1.8168 -0.2256 -1.1393
  819MOL0     H10501  10.408   3.624   6.584 -0.6753 -0.9658 -2.2128
  819MOL0     H10502  10.297   3.627   6.864  0.6405 -0.4567  0.3163
  819MOL0     H10503  10.396   3.753   6.785 -1.6336  0.1325 -0.7858
  819MOL0     H10504  10.580   3.593   6.752  0.8154 -0.3046 -0.0181
  819MOL0     H10505  10.494   3.463   6.826 -0.9504 -0.4687  1.9429
  819MOL0     H10506  10.595   3.719   6.973  1.2925 -0.6706  1.5818
  819MOL0     H10507  10.476   3.597   7.035 -2.6487  1.9486 -2.7006
  819MOL0     H10508  10.624   3.414   7.023  0.7668 -0.4719 -1.4174
  819MOL0     H10509  10.737   3.501   6.939 -0.9852  1.0819 -1.8491
  819MOL0     H10510  10.639   3.560   7.222 -0.5464  1.0785 -0.2239
  819MOL0     H10511  10.775   3.453   7.201 -0.6068  1.5091  2.6985
  819MOL0     H10512  10.855   3.676   7.281  1.6221  1.9672 -0.2522
  819MOL0     H10513  10.811   3.745   7.119 -0.9298  0.4906  0.1128
  819MOL0     H10514  11.006   3.515   7.171  1.9802  0.0781 -0.1875
  819MOL0     H10515  10.957   3.572   7.015  0.3877  0.9805  0.0189
  819MOL0     H10516  11.144   3.719   7.330  1.2687 -1.6066 -0.6916
  819MOL0     H10517  11.394   3.860   7.317  1.0514 -0.1985 -1.1033
  819MOL0     H10518  11.396   3.976   7.180 -1.0563  1.6952  0.7202
  819MOL0     H10519  11.194   4.072   7.281 -0.4316 -0.2623 -0.3028
  819MOL0     H10520  11.229   3.974   7.428  0.8211 -0.0186  0.2878
  819MOL0     H10521  11.432   4.169   7.325  0.8815  0.7457  1.5098
  819MOL0     H10522  11.446   4.082   7.469  0.5624 -1.2247 -0.4664
  819MOL0     H10523  11.214   4.204   7.541  0.3784  1.0334  1.6160
  819MOL0     H10524  11.247   4.307   7.405  1.5130 -0.4264 -0.9431
  819MOL0     H10525  11.585   4.273   7.707  2.3287  1.0356  0.8140
  819MOL0     H10526  11.825   4.314   7.651 -0.3658  1.4227 -0.2668
  819MOL0     H10527  12.177   4.534   7.357  0.0127 -0.8423 -0.0567
  819MOL0     H10528  12.419   4.567   7.395  1.3966  1.2885  1.8488
  819MOL0     H10529  12.576   4.472   7.805  1.9815  1.7722 -1.0481
  819MOL0     H10530  12.570   4.320   7.719 -0.3344  0.2446 -0.3259
  819MOL0     H10531  12.777   4.329   7.806 -0.6161 -1.3503 -1.4777
  819MOL0     H10532  12.793   4.364   7.635 -0.1459  1.0425 -0.5763
  819MOL0     H10533  12.792   4.614   7.680  2.7743  1.6957  1.1240
  819MOL0     H10534  12.806   4.574   7.847 -2.3535 -1.3712  0.5499
  819MOL0     H10535  12.999   4.472   7.626  0.3672 -2.2843  1.2868
  819MOL0     H10536  13.025   4.443   7.795  0.6044  3.5341  3.9234
  819MOL0     H10537  13.041   4.709   7.828  4.2587  0.3026 -0.4485
  819MOL0     H10538  13.006   4.718   7.662 -0.6374 -0.5363 -0.9833
  819MOL0     H10539  13.253   4.718   7.760  0.6100 -1.3415 -0.2326
  819MOL0     H10540  13.240   4.542   7.747  2.5341  0.5785  0.5103
  819MOL0     H10541  13.168   4.688   7.496  2.8214  2.2920 -1.1600
  819MOL0     H10542  13.221   4.527   7.525  0.4923  0.2031 -3.0769
  819MOL0     H10543  13.372   4.656   7.418 -0.6135  1.4690 -0.5307
  819MOL0     H10544  13.395   4.784   7.537  0.0870 -0.0363  1.9335
  819MOL0     H10545  12.366   4.423   7.795 -3.4252  1.9623  1.4756
  819MOL0     H10546  12.143   4.411   7.773 -0.9126 -2.4440 -1.1186
  819MOL0     H10547  11.706   4.492   7.289  0.0768  0.0048  0.1111
  819MOL0     H10548  11.464   4.432   7.329  0.0065  0.3013 -0.5728
  819MOL0     H10549  10.003   3.795   6.526 -2.6568  0.6679 -0.1989
  819MOL0     H10550   9.767   3.715   6.527  0.0236  0.0281 -0.0841
  819MOL0     H10551   9.574   3.226   6.550 -0.0545  0.0924  0.7095
  819MOL0     H10552   9.381   3.103   6.438  2.5655 -0.5384  1.1432
  819MOL0     H10553   9.032   3.257   6.323 -0.2089 -2.7468 -1.7047
  819MOL0     H10554   8.967   3.276   6.487  0.0883  2.2661 -2.6661
  819MOL0     H10555   8.926   3.035   6.485  0.9460 -0.4012  1.0025
  819MOL0     H10556   8.975   3.010   6.320  1.0163 -0.0494  0.8321
  819MOL0     H10557   8.794   3.143   6.226 -0.1064 -0.5995  0.6729
  819MOL0     H10558   8.747   3.205   6.380 -2.2394  0.6097 -1.6070
  819MOL0     H10559   8.750   2.906   6.302  0.0833 -0.1134  1.1173
  819MOL0     H10560   8.692   2.977   6.453 -0.2964  1.9911  0.6093
  819MOL0     H10561   8.364   3.025   6.196 -0.2464 -0.9522 -0.5119
  819MOL0     H10562   9.120   3.415   6.521 -0.7169 -3.4679 -2.6161
  819MOL0     H10563   9.360   3.659   6.557  2.9226 -0.8756  1.1716
  819MOL0     H10564   9.207   3.620   6.636 -0.7802  0.6486 -1.8412
  819MOL0     H10565   9.364   3.602   6.726  1.4272 -2.3222 -0.8647
  820MOL0     O10566   3.398   1.754   9.320 -0.4855  0.4925  0.1582
  820MOL0     C10567   3.336   1.654   9.346  0.6388  0.5200 -0.6868
  820MOL0     O10568   3.356   1.580   9.457 -0.1350  0.6938 -0.8667
  820MOL0     C10569   3.479   1.559   9.513  0.6957 -0.0460  1.0815
  820MOL0     C10570   3.478   1.536   9.644 -0.5655 -0.6794 -0.2624
  820MOL0     C10571   3.588   1.497   9.718 -0.4881  0.8932 -0.1090
  820MOL0     C10572   3.715   1.482   9.653 -0.5327  0.0421 -0.1145
  820MOL0     O10573   3.824   1.436   9.726 -0.1505  0.6730 -1.0973
  820MOL0     C10574   3.933   1.365   9.655  1.2638 -0.1814 -0.2367
  820MOL0     C10575   4.007   1.287   9.761  0.4979  0.1108  0.0542
  820MOL0     C10576   4.127   1.211   9.702 -0.5654 -0.1525 -0.1814
  820MOL0     C10577   4.183   1.108   9.801 -0.6788 -0.4579  0.0122
  820MOL0     C10578   4.284   1.010   9.747 -0.1088 -0.8495  0.5822
  820MOL0     C10579   4.425   1.065   9.755 -0.5685 -0.6279 -0.4451
  820MOL0     C10580   4.476   1.093   9.901 -0.5554 -0.2663 -0.5468
  820MOL0     C10581   4.613   1.169   9.898  0.0319  0.0359 -0.2723
  820MOL0     N10582   4.720   1.087   9.839 -0.7211  0.4354 -0.5574
  820MOL0     C10583   4.797   1.107   9.726 -0.5295  0.5386 -0.5091
  820MOL0     C10584   4.879   1.000   9.730 -0.5315  0.2862 -0.3779
  820MOL0     C10585   4.993   0.989   9.634  0.7502  0.1894  0.4777
  820MOL0     C10586   5.117   1.059   9.684  0.5082  0.3637  0.4010
  820MOL0     C10587   5.222   1.063   9.577  0.0971 -0.8724 -0.6389
  820MOL0     C10588   5.301   0.927   9.551  0.3598 -0.3287 -0.2823
  820MOL0     O10589   5.407   0.897   9.635 -0.2108  0.9650  0.3529
  820MOL0     C10590   5.530   0.950   9.621 -0.0764 -0.5738  0.7799
  820MOL0     C10591   5.560   1.052   9.524  0.1591 -0.6380 -0.9409
  820MOL0     C10592   5.693   1.098   9.510 -0.1210 -0.1749  0.3668
  820MOL0     C10593   5.800   1.041   9.585 -0.7549 -0.5696 -0.2652
  820MOL0     C10594   5.938   1.092   9.562  0.2888  0.5474 -0.6442
  820MOL0     O10595   6.031   1.032   9.638  0.1681 -0.3901  0.0980
  820MOL0     C10596   6.164   1.065   9.614 -0.5655  0.3863  0.0562
  820MOL0     C10597   6.227   1.064   9.487  1.0970 -0.0641 -0.0943
  820MOL0     C10598   6.353   1.123   9.467 -0.4554  0.8561  0.4109
  820MOL0     C10599   6.430   1.162   9.584 -0.3290 -0.1693  1.1229
  820MOL0     O10600   6.562   1.197   9.580  0.4905 -0.0614  0.8079
  820MOL0     C10601   6.629   1.156   9.459 -0.8289  0.2427  0.3865
  820MOL0     C10602   6.777   1.162   9.491  0.5793  0.2160 -1.0725
  820MOL0     C10603   6.822   1.033   9.570 -0.0123 -0.1443 -0.5010
  820MOL0     C10604   6.976   1.014   9.548  1.1604  0.6968 -0.6982
  820MOL0     C10605   7.027   0.898   9.629 -0.4111  0.2242 -0.5667
  820MOL0     C10606   6.951   0.767   9.627  0.6873 -0.6884  0.0974
  820MOL0     C10607   7.010   0.654   9.700 -1.1865  0.6492 -0.5734
  820MOL0     C10608   6.920   0.531   9.691  0.8909  0.8732 -0.2785
  820MOL0    Cl10609   6.972   0.398   9.803 -0.3955 -0.2106 -0.2197
  820MOL0     C10610   6.365   1.156   9.709  0.2843 -0.4687 -0.1629
  820MOL0     C10611   6.235   1.102   9.727  0.0736  0.4159  0.6335
  820MOL0     O10612   5.966   1.180   9.479  0.2077 -0.2749  0.2149
  820MOL0     C10613   5.762   0.932   9.670 -0.3964 -0.2917 -0.7764
  820MOL0     C10614   5.631   0.898   9.696  0.2206  0.7677  0.3288
  820MOL0     N10615   4.849   0.919   9.845  0.3332  0.6029 -0.2999
  820MOL0     N10616   4.751   0.969   9.902 -0.4470  0.2934 -0.3361
  820MOL0     C10617   3.722   1.522   9.519  0.2411 -0.3756  0.5761
  820MOL0     C10618   3.606   1.553   9.449 -0.4630  1.2249  0.3387
  820MOL0     C10619   3.233   1.601   9.255  0.0910 -0.2064  0.2773
  820MOL0     C10620   3.236   1.463   9.238 -0.9781 -0.7529 -0.2534
  820MOL0     C10621   3.148   1.400   9.147 -0.1277 -0.1112  0.2154
  820MOL0     C10622   3.050   1.470   9.075 -0.1091  0.5711 -0.2085
  820MOL0     O10623   2.968   1.389   8.999  0.2998  0.4772  0.2878
  820MOL0     C10624   2.823   1.423   9.003  0.1224  0.1176 -0.0797
  820MOL0     C10625   2.739   1.299   9.023  0.5644  0.0581  0.7206
  820MOL0     C10626   2.740   1.220   8.889  0.4125 -0.2102 -0.1024
  820MOL0     C10627   2.647   1.095   8.905 -0.3584 -0.8357  0.5498
  820MOL0     C10628   2.506   1.131   8.903 -0.7123 -0.3044  0.0313
  820MOL0     C10629   2.391   1.149   8.923 -0.2480  0.4734  0.8123
  820MOL0     C10630   3.047   1.604   9.085  0.3442 -0.8304 -0.1801
  820MOL0     C10631   3.140   1.677   9.171 -0.0160 -0.2526  0.0182
  820MOL0     C10632   3.143   1.828   9.157  0.0973 -0.8734 -0.5954
  820MOL0     H10633   3.383   1.545   9.697 -1.3512  0.0227 -1.7355
  820MOL0     H10634   3.570   1.466   9.820 -0.3913 -0.7903 -0.5694
  820MOL0     H10635   3.884   1.306   9.577  1.8651  0.1815 -0.8911
  820MOL0     H10636   4.001   1.435   9.606  2.9295 -0.3315  1.6988
  820MOL0     H10637   3.942   1.209   9.799 -0.8071  0.9479 -0.4067
  820MOL0     H10638   4.035   1.354   9.843 -1.3732 -0.3784  1.1295
  820MOL0     H10639   4.207   1.286   9.696  1.1758 -1.9113 -0.1225
  820MOL0     H10640   4.105   1.159   9.608 -0.2020 -1.0261  0.2064
  820MOL0     H10641   4.210   1.162   9.892 -2.4130 -1.6446  1.2979
  820MOL0     H10642   4.105   1.040   9.836  0.3673 -1.0205  1.3020
  820MOL0     H10643   4.282   0.929   9.820  0.7821 -1.8232 -0.4431
  820MOL0     H10644   4.262   0.972   9.647 -1.1097  0.1474  0.4023
  820MOL0     H10645   4.493   0.986   9.720 -2.5956 -2.3702 -0.6700
  820MOL0     H10646   4.435   1.152   9.690  0.0460 -1.0760 -0.9696
  820MOL0     H10647   4.491   1.001   9.958  0.7874 -0.4627 -1.1767
  820MOL0     H10648   4.416   1.167   9.955  1.1078  1.6458 -1.2072
  820MOL0     H10649   4.605   1.261   9.839  0.1892  1.2739  1.5419
  820MOL0     H10650   4.641   1.192  10.001 -1.7867  0.9672  0.0648
  820MOL0     H10651   4.790   1.195   9.662 -0.7377  2.3664  1.8798
  820MOL0     H10652   5.007   0.889   9.594  1.0108  1.9776 -4.6165
  820MOL0     H10653   4.958   1.049   9.549  1.6723  0.4091  0.2470
  820MOL0     H10654   5.095   1.162   9.713 -1.7017  0.7639 -2.2610
  820MOL0     H10655   5.150   0.992   9.764 -0.2112  2.5396  2.6586
  820MOL0     H10656   5.302   1.135   9.597  0.0273 -1.3503  1.6458
  820MOL0     H10657   5.164   1.096   9.490 -0.7108  2.7310  1.0695
  820MOL0     H10658   5.327   0.920   9.445 -0.4461  0.3065 -0.5292
  820MOL0     H10659   5.228   0.846   9.560  0.6069 -0.3730  1.9454
  820MOL0     H10660   5.480   1.088   9.460 -0.9594  3.8294  2.5021
  820MOL0     H10661   5.713   1.182   9.444  2.1354  0.7424  2.0890
  820MOL0     H10662   6.158   1.043   9.405  0.0565 -0.1168  0.7681
  820MOL0     H10663   6.401   1.142   9.372 -1.8494  2.6443  0.0215
  820MOL0     H10664   6.607   1.056   9.421  2.5317  0.0757 -1.4994
  820MOL0     H10665   6.602   1.229   9.382  0.6867  2.3104  1.7367
  820MOL0     H10666   6.838   1.167   9.400  1.1997 -0.8506 -0.7260
  820MOL0     H10667   6.799   1.251   9.550  0.8553  0.6520 -1.8183
  820MOL0     H10668   6.804   1.032   9.678 -4.2335 -0.8112 -1.0129
  820MOL0     H10669   6.762   0.949   9.532  2.9076 -2.2155 -0.8260
  820MOL0     H10670   7.041   1.100   9.569  1.1305  0.7510 -0.8269
  820MOL0     H10671   6.994   0.992   9.442  3.2444 -0.4565 -0.1635
  820MOL0     H10672   7.047   0.935   9.730  3.0321  0.6176 -1.2830
  820MOL0     H10673   7.122   0.857   9.595  0.8460  1.2708  1.5038
  820MOL0     H10674   6.848   0.782   9.663  0.9602 -1.2329  1.1479
  820MOL0     H10675   6.940   0.745   9.521 -2.1609 -0.0897  0.1740
  820MOL0     H10676   7.029   0.674   9.805 -0.3623  0.8893 -0.7539
  820MOL0     H10677   7.113   0.645   9.663  0.2312  4.3459  1.9485
  820MOL0     H10678   6.816   0.554   9.715  0.5722 -1.2193  0.5273
  820MOL0     H10679   6.914   0.489   9.590 -3.2733  2.1853 -0.7625
  820MOL0     H10680   6.437   1.184   9.785  1.2596 -1.5885 -0.6401
  820MOL0     H10681   6.201   1.091   9.829  2.3367  2.6929  1.7530
  820MOL0     H10682   5.838   0.880   9.726 -1.7600 -0.5243  0.9476
  820MOL0     H10683   5.612   0.826   9.775  0.3680  1.5855  1.1290
  820MOL0     H10684   3.809   1.493   9.461 -0.4545 -2.7984  0.6052
  820MOL0     H10685   3.603   1.557   9.340  0.7542 -0.6326  0.1936
  820MOL0     H10686   3.295   1.391   9.294 -0.0693  1.6120  1.9987
  820MOL0     H10687   3.159   1.295   9.126 -4.1688 -0.2398 -2.2300
  820MOL0     H10688   2.800   1.472   8.907  0.8495  0.2326 -0.2015
  820MOL0     H10689   2.795   1.498   9.078 -0.8525  2.2386 -2.4033
  820MOL0     H10690   2.632   1.320   9.037  0.0732 -0.8395 -1.2337
  820MOL0     H10691   2.773   1.245   9.111  1.0252 -1.2115 -0.2081
  820MOL0     H10692   2.843   1.184   8.878  0.7560  0.7317 -0.1184
  820MOL0     H10693   2.707   1.277   8.802 -1.3838 -0.4270  0.4128
  820MOL0     H10694   2.666   1.011   8.837 -1.0078 -1.5824  1.2713
  820MOL0     H10695   2.668   1.059   9.006  2.3596  1.5352  0.9515
  820MOL0     H10696   2.288   1.178   8.930 -0.5805 -0.0506 -1.1964
  820MOL0     H10697   2.986   1.656   9.012  2.2234  0.0455 -1.1899
  820MOL0     H10698   3.229   1.855   9.095  2.2789 -0.8703  2.2335
  820MOL0     H10699   3.049   1.869   9.117  0.7199  1.4505  0.1654
  820MOL0     H10700   3.150   1.882   9.252  1.6326 -0.9653 -0.6371
  821MOL0     O10701   2.125   9.282   9.102  0.7669 -1.1044 -0.3129
  821MOL0     C10702   2.014   9.316   9.064  0.5453  0.1362  0.4195
  821MOL0     O10703   1.981   9.349   8.936 -0.2741  0.4161  0.2060
  821MOL0     C10704   2.081   9.337   8.849  0.5674 -0.9422 -0.2417
  821MOL0     C10705   2.087   9.226   8.767 -0.6211  0.1689 -0.2865
  821MOL0     C10706   2.204   9.192   8.701  0.0858 -0.0558  0.1209
  821MOL0     C10707   2.313   9.282   8.699  0.1322 -0.4087 -0.5438
  821MOL0     O10708   2.419   9.248   8.630  0.4856 -0.0852  0.4990
  821MOL0     C10709   2.531   9.345   8.629  0.8728  0.2968 -0.1236
  821MOL0     C10710   2.641   9.290   8.554  0.1336  0.0785  0.5721
  821MOL0     C10711   2.612   9.294   8.399 -0.6111  0.1244  0.4153
  821MOL0     C10712   2.706   9.201   8.325 -0.0822 -0.0283 -0.0967
  821MOL0     C10713   2.840   9.274   8.316 -0.0982 -0.3517 -0.4223
  821MOL0     C10714   2.943   9.206   8.229 -0.0533  0.9543  0.2180
  821MOL0     C10715   2.992   9.074   8.290 -1.0195  0.4240 -0.2692
  821MOL0     C10716   3.060   9.081   8.433  0.4846  0.1121  0.6563
  821MOL0     N10717   3.183   9.169   8.439  0.0003  0.3357  0.5045
  821MOL0     C10718   3.179   9.292   8.507 -0.2016  0.0223  1.0398
  821MOL0     C10719   3.293   9.351   8.451 -0.7271 -0.4777 -0.6335
  821MOL0     C10720   3.353   9.487   8.482 -0.3132  0.7299 -0.4319
  821MOL0     C10721   3.504   9.472   8.505 -0.0075  0.1816  0.4216
  821MOL0     C10722   3.533   9.372   8.617  0.3199 -0.6881 -0.1340
  821MOL0     C10723   3.683   9.374   8.633  0.4735  0.7123 -0.5202
  821MOL0     O10724   3.725   9.274   8.734  0.6964  0.1989  0.4200
  821MOL0     C10725   3.862   9.255   8.730 -0.1680 -0.4892  0.3750
  821MOL0     C10726   3.939   9.338   8.807 -0.7258  0.5728 -0.4967
  821MOL0     C10727   4.076   9.335   8.815  0.4921 -0.3398 -0.0507
  821MOL0     C10728   4.145   9.244   8.736 -0.1422 -0.7611  0.0429
  821MOL0     C10729   4.287   9.232   8.756  0.3386 -0.3535 -0.2908
  821MOL0     O10730   4.352   9.326   8.829  0.3612  0.2069  0.2746
  821MOL0     C10731   4.486   9.337   8.826  0.5498 -0.5064 -0.5723
  821MOL0     C10732   4.543   9.397   8.940 -0.4123  0.4864  0.5478
  821MOL0     C10733   4.679   9.406   8.958 -0.1580 -0.3390  0.9182
  821MOL0     C10734   4.767   9.364   8.858 -0.7310  0.4296 -0.7799
  821MOL0     O10735   4.904   9.380   8.877  0.6575 -0.2283  0.0978
  821MOL0     C10736   4.988   9.357   8.774 -0.2503  0.1124 -0.2921
  821MOL0     C10737   5.133   9.391   8.806 -0.3893  0.1728 -0.4425
  821MOL0     C10738   5.227   9.349   8.694 -0.2187  0.3465 -0.2549
  821MOL0     C10739   5.367   9.384   8.734 -1.1444  0.3523 -0.7869
  821MOL0     C10740   5.449   9.446   8.613 -0.7353 -0.9766  0.0420
  821MOL0     C10741   5.590   9.495   8.652  0.1085 -0.3917  0.7928
  821MOL0     C10742   5.627   9.596   8.537  0.0214 -0.0744 -0.6331
  821MOL0     C10743   5.763   9.663   8.558 -1.3837 -0.1288  0.4047
  821MOL0    Cl10744   5.894   9.544   8.542 -0.1486 -0.2249  0.6775
  821MOL0     C10745   4.712   9.306   8.742  0.2742  0.0663  0.4251
  821MOL0     C10746   4.578   9.292   8.729 -0.5129 -0.6551  0.3785
  821MOL0     O10747   4.340   9.139   8.705  0.4995 -0.2699  0.6248
  821MOL0     C10748   4.071   9.151   8.660  0.2820  0.6280 -0.1995
  821MOL0     C10749   3.930   9.150   8.663  0.4070  1.1835 -0.0380
  821MOL0     N10750   3.355   9.265   8.363 -0.4863 -0.2290  0.1118
  821MOL0     N10751   3.288   9.161   8.353 -0.1403 -0.8721  0.3558
  821MOL0     C10752   2.297   9.402   8.770  0.7381  0.7043  0.0133
  821MOL0     C10753   2.193   9.427   8.849  0.6071 -0.0671 -0.5708
  821MOL0     C10754   1.912   9.351   9.165  1.5425  0.4177  0.5746
  821MOL0     C10755   1.778   9.349   9.111 -0.2782 -0.1351 -1.3607
  821MOL0     C10756   1.671   9.390   9.187  0.3089  0.2148  1.0193
  821MOL0     C10757   1.683   9.421   9.322  0.4110 -0.1622  0.2780
  821MOL0     O10758   1.573   9.450   9.398 -0.3080  0.1819  0.4205
  821MOL0     C10759   1.567   9.598   9.420 -0.3891  0.0822 -0.1912
  821MOL0     C10760   1.427   9.653   9.408  0.5426  1.0648 -0.0372
  821MOL0     C10761   1.367   9.636   9.271  0.2420  0.1954  1.1398
  821MOL0     C10762   1.260   9.522   9.272  0.2341 -0.2235  0.6527
  821MOL0     C10763   1.139   9.544   9.346  0.5980  0.6877 -0.4732
  821MOL0     C10764   1.042   9.560   9.427  0.2823  0.0445  0.4800
  821MOL0     C10765   1.810   9.415   9.377  0.5655 -0.6402 -1.0191
  821MOL0     C10766   1.928   9.389   9.299  0.1076  0.0815  0.3578
  821MOL0     C10767   2.060   9.396   9.370  0.8116 -0.6245  0.5698
  821MOL0     H10768   2.002   9.158   8.764 -0.0911 -0.4650 -1.9037
  821MOL0     H10769   2.199   9.089   8.669 -3.3358  0.4690 -1.5281
  821MOL0     H10770   2.487   9.435   8.584 -1.4069 -1.1573 -0.9453
  821MOL0     H10771   2.563   9.371   8.730 -0.9498  0.1872  0.5326
  821MOL0     H10772   2.659   9.186   8.584  1.2300 -0.6039 -2.1641
  821MOL0     H10773   2.729   9.344   8.591 -0.2103 -0.8667  2.9896
  821MOL0     H10774   2.620   9.399   8.370  2.2832 -0.2251 -0.3680
  821MOL0     H10775   2.511   9.254   8.384 -0.8863  0.5475  1.0892
  821MOL0     H10776   2.717   9.109   8.382  2.7344 -1.3848 -2.5710
  821MOL0     H10777   2.663   9.176   8.227  3.1002 -1.3474 -1.2589
  821MOL0     H10778   2.818   9.369   8.267 -3.4286 -0.3106  0.8897
  821MOL0     H10779   2.883   9.294   8.415  1.7602 -1.8592 -0.8746
  821MOL0     H10780   2.912   9.180   8.127  0.1526 -1.5519  0.7232
  821MOL0     H10781   3.026   9.277   8.220  1.2750 -0.4922  0.6461
  821MOL0     H10782   3.074   9.027   8.235 -0.3451  0.0494  1.0086
  821MOL0     H10783   2.904   9.009   8.294 -0.6725 -0.0179  0.4406
  821MOL0     H10784   2.984   9.100   8.509 -0.6110 -0.9743 -0.1338
  821MOL0     H10785   3.099   8.984   8.464 -1.4698 -0.7058  0.6910
  821MOL0     H10786   3.108   9.329   8.580  0.6503 -1.3621  2.6404
  821MOL0     H10787   3.333   9.556   8.400  1.2981  0.9060 -0.7006
  821MOL0     H10788   3.317   9.539   8.572 -0.2403  0.9992 -0.5569
  821MOL0     H10789   3.551   9.434   8.414 -0.0220 -0.7493  0.7925
  821MOL0     H10790   3.553   9.565   8.534  1.4566 -0.5282  0.3444
  821MOL0     H10791   3.499   9.271   8.591 -0.2327  0.0642 -2.6549
  821MOL0     H10792   3.474   9.396   8.706  0.3740  0.1104 -0.3066
  821MOL0     H10793   3.718   9.471   8.669 -2.2369  0.9609  1.7500
  821MOL0     H10794   3.717   9.353   8.532 -1.8437  0.1512 -1.2470
  821MOL0     H10795   3.874   9.398   8.869 -1.6210 -1.1069  0.2579
  821MOL0     H10796   4.116   9.393   8.897  0.1240 -0.4144  0.1861
  821MOL0     H10797   4.469   9.411   9.019 -1.8337 -1.8753 -0.2564
  821MOL0     H10798   4.710   9.445   9.054 -0.7648  2.4818  0.0830
  821MOL0     H10799   4.972   9.251   8.752 -1.7516 -0.0355  1.3363
  821MOL0     H10800   4.965   9.422   8.689 -0.3358  1.2089  0.5538
  821MOL0     H10801   5.145   9.498   8.829  1.9841 -0.2373  0.5060
  821MOL0     H10802   5.161   9.339   8.898  0.0272  0.0627 -0.6285
  821MOL0     H10803   5.215   9.243   8.671 -0.5750  0.4510 -0.5440
  821MOL0     H10804   5.206   9.401   8.600  2.3121  1.2419 -0.4030
  821MOL0     H10805   5.419   9.291   8.758  1.1214  1.3003 -1.7195
  821MOL0     H10806   5.382   9.445   8.824  2.5682 -0.9683 -0.3021
  821MOL0     H10807   5.388   9.525   8.567  1.2715  0.3308 -0.5074
  821MOL0     H10808   5.466   9.376   8.531 -2.2903  1.5717 -2.6904
  821MOL0     H10809   5.580   9.546   8.748  0.1638 -1.3180  1.3059
  821MOL0     H10810   5.649   9.405   8.673 -1.2596 -1.4181  0.3919
  821MOL0     H10811   5.551   9.675   8.531 -2.4985 -2.2989 -0.1154
  821MOL0     H10812   5.626   9.540   8.443  2.0883  1.3760 -1.5672
  821MOL0     H10813   5.780   9.740   8.483  1.5902  1.2489  2.3177
  821MOL0     H10814   5.769   9.711   8.656 -0.4458  1.1300 -0.2507
  821MOL0     H10815   4.780   9.276   8.663 -0.8418  0.6137 -0.7715
  821MOL0     H10816   4.547   9.241   8.639 -2.8009 -0.8139  1.1993
  821MOL0     H10817   4.118   9.070   8.605 -1.6022 -1.2624  0.7854
  821MOL0     H10818   3.869   9.069   8.624 -0.2937  0.8827  1.5846
  821MOL0     H10819   2.380   9.471   8.782  0.5353  0.6801  1.8090
  821MOL0     H10820   2.188   9.520   8.904  1.2927 -1.4072  1.9097
  821MOL0     H10821   1.767   9.316   9.008  0.3219 -1.8921 -0.9044
  821MOL0     H10822   1.575   9.386   9.137  0.3476 -0.4455  0.9830
  821MOL0     H10823   1.630   9.651   9.348  1.2583 -1.7011 -0.1483
  821MOL0     H10824   1.596   9.635   9.518 -2.7913  1.4913  0.0619
  821MOL0     H10825   1.436   9.757   9.441  2.7234  1.6758 -2.2227
  821MOL0     H10826   1.357   9.611   9.481  4.5413 -2.0121  2.4495
  821MOL0     H10827   1.433   9.630   9.184 -3.2796 -0.6264 -1.7074
  821MOL0     H10828   1.313   9.730   9.261  2.0386  1.1880  0.3813
  821MOL0     H10829   1.228   9.511   9.168  1.0916  1.6296  0.1448
  821MOL0     H10830   1.310   9.428   9.293  3.2764  0.5793 -2.1978
  821MOL0     H10831   0.963   9.575   9.498 -2.2435 -3.1129 -1.3791
  821MOL0     H10832   1.819   9.438   9.483 -0.3689  0.7114 -1.2035
  821MOL0     H10833   2.122   9.479   9.335  0.9473 -1.6746 -1.8934
  821MOL0     H10834   2.038   9.418   9.475 -0.8071 -1.3861  0.4207
  821MOL0     H10835   2.116   9.304   9.352  0.1739 -0.9634  0.2681
  822MOL0     O10836   1.904   3.179  10.616  0.3186 -0.3743 -0.3730
  822MOL0     C10837   1.871   3.071  10.570  0.3717 -1.0191 -0.5572
  822MOL0     O10838   1.957   2.978  10.517  0.2711 -0.5719 -0.4030
  822MOL0     C10839   2.089   2.999  10.476  0.5617  0.5079  0.8803
  822MOL0     C10840   2.153   3.118  10.473 -0.1732 -0.6361 -0.3789
  822MOL0     C10841   2.290   3.124  10.427 -0.3410  0.6957 -0.0730
  822MOL0     C10842   2.354   3.016  10.377  0.8509  0.1919 -0.2010
  822MOL0     O10843   2.484   3.044  10.342 -0.2049 -0.2171  1.3864
  822MOL0     C10844   2.561   2.934  10.300  0.7229 -0.3841 -0.2246
  822MOL0     C10845   2.702   2.952  10.333  0.6729 -0.2889  0.1589
  822MOL0     C10846   2.742   2.953  10.490  0.5132 -0.3306 -0.2847
  822MOL0     C10847   2.889   2.925  10.503 -0.3995  0.6156 -0.0440
  822MOL0     C10848   2.957   3.028  10.589 -0.3960  0.2565 -0.0973
  822MOL0     C10849   3.098   2.984  10.639  0.8665 -0.1630  0.0984
  822MOL0     C10850   3.213   3.052  10.562  1.1241  0.1293  0.1607
  822MOL0     C10851   3.223   3.203  10.590  0.0133  0.0077 -1.1214
  822MOL0     N10852   3.358   3.253  10.572 -0.3981 -0.3726  0.8901
  822MOL0     C10853   3.415   3.300  10.455 -0.0072 -0.6476  0.6685
  822MOL0     C10854   3.532   3.348  10.498 -0.6222 -0.6777 -0.8185
  822MOL0     C10855   3.624   3.413  10.405  0.5069 -0.3783 -0.0743
  822MOL0     C10856   3.761   3.333  10.398 -0.1157  0.3790 -0.2223
  822MOL0     C10857   3.856   3.399  10.289  0.1463 -0.2864  0.0194
  822MOL0     C10858   3.921   3.531  10.331 -0.2203 -0.0350 -0.3009
  822MOL0     O10859   3.969   3.510  10.470  0.5676  1.3162  0.0551
  822MOL0     C10860   4.089   3.436  10.492  0.1686  0.0749  0.3029
  822MOL0     C10861   4.184   3.422  10.390  0.1320  0.5560  0.5829
  822MOL0     C10862   4.299   3.360  10.429  0.0572 -0.9667 -0.2463
  822MOL0     C10863   4.335   3.335  10.563  1.3396  0.6716 -0.1024
  822MOL0     C10864   4.463   3.289  10.603  0.2255 -0.0009  0.3472
  822MOL0     O10865   4.557   3.292  10.500 -0.0170  0.0537 -0.3241
  822MOL0     C10866   4.685   3.259  10.540  0.1034 -0.8486 -0.5167
  822MOL0     C10867   4.787   3.349  10.508 -0.7538 -0.2684 -0.0074
  822MOL0     C10868   4.921   3.312  10.499 -0.1584 -0.9017  0.5822
  822MOL0     C10869   4.961   3.188  10.550  0.5419 -0.8241  0.3966
  822MOL0     O10870   5.098   3.173  10.552  0.9492 -0.2580 -0.3101
  822MOL0     C10871   5.146   3.081  10.448 -0.3193  0.3959 -0.0715
  822MOL0     C10872   5.231   3.164  10.351 -0.3136 -0.8514 -0.5738
  822MOL0     C10873   5.332   3.090  10.271 -0.6201 -0.4551  0.8026
  822MOL0     C10874   5.448   3.189  10.220  0.6890  0.0677  0.3780
  822MOL0     C10875   5.521   3.147  10.083 -0.1284 -0.2312 -0.5566
  822MOL0     C10876   5.601   3.254  10.021  0.3536  0.3290 -0.3108
  822MOL0     C10877   5.591   3.228   9.869  0.2250  0.5072  0.3477
  822MOL0     C10878   5.648   3.339   9.783 -0.0790 -0.5459  0.3992
  822MOL0    Cl10879   5.827   3.348   9.792  0.3550  0.3623 -0.3693
  822MOL0     C10880   4.859   3.094  10.589 -0.4217 -0.3653  0.1043
  822MOL0     C10881   4.723   3.129  10.579 -0.7859 -0.2210 -0.0186
  822MOL0     O10882   4.477   3.255  10.715  0.4840  0.0337 -0.2122
  822MOL0     C10883   4.235   3.356  10.666 -0.1233 -1.4221 -0.2449
  822MOL0     C10884   4.109   3.394  10.622  0.6131 -0.1336 -0.0511
  822MOL0     N10885   3.537   3.352  10.639 -0.4987  0.3469 -0.5526
  822MOL0     N10886   3.433   3.284  10.683  0.1707  0.6093 -0.2260
  822MOL0     C10887   2.284   2.888  10.371 -0.0482 -0.3782  0.6610
  822MOL0     C10888   2.150   2.887  10.418 -0.3342 -0.3775  0.5278
  822MOL0     C10889   1.730   3.028  10.578  0.2169  0.4859  0.5588
  822MOL0     C10890   1.635   3.137  10.573 -0.7652  0.5937 -0.3164
  822MOL0     C10891   1.497   3.111  10.566 -0.4077  0.0991 -0.1077
  822MOL0     C10892   1.450   2.979  10.551  0.9871  0.8003  0.4477
  822MOL0     O10893   1.319   2.933  10.541 -0.7631 -0.1113 -0.0694
  822MOL0     C10894   1.216   3.035  10.554 -0.2673  0.3018 -0.3594
  822MOL0     C10895   1.071   2.985  10.562  0.4081  0.9026  0.3952
  822MOL0     C10896   1.029   2.921  10.420  0.4771 -0.3269  0.6348
  822MOL0     C10897   0.899   2.841  10.428  0.1916  0.3287 -0.1210
  822MOL0     C10898   0.785   2.924  10.442 -0.0967 -0.2461 -0.0969
  822MOL0     C10899   0.678   2.976  10.431  0.2526  0.0046  0.5100
  822MOL0     C10900   1.545   2.872  10.562 -0.2333 -0.6732  0.6181
  822MOL0     C10901   1.683   2.898  10.572 -0.2799  1.1131  0.6104
  822MOL0     C10902   1.772   2.782  10.580 -0.9939 -0.4494 -0.1611
  822MOL0     H10903   2.113   3.200  10.532  1.4810 -0.0550  0.0124
  822MOL0     H10904   2.319   3.228  10.414 -4.1381  1.6362 -2.5358
  822MOL0     H10905   2.519   2.848  10.352  1.0486 -0.6916 -0.4734
  822MOL0     H10906   2.533   2.927  10.195 -2.0699 -0.9679  0.4668
  822MOL0     H10907   2.730   3.037  10.270 -4.4487  1.2857 -0.4651
  822MOL0     H10908   2.745   2.858  10.297  2.1932  0.2795  0.3878
  822MOL0     H10909   2.689   2.877  10.548  2.1557 -2.1702 -1.0954
  822MOL0     H10910   2.711   3.042  10.547  0.3760  0.4146 -1.4769
  822MOL0     H10911   2.882   2.829  10.555 -0.9631  0.6636 -0.0292
  822MOL0     H10912   2.938   2.909  10.407 -0.6279 -1.9420  0.1943
  822MOL0     H10913   2.966   3.120  10.531 -0.7062 -0.4010 -1.2089
  822MOL0     H10914   2.901   3.040  10.682  0.8579 -0.5176  0.8009
  822MOL0     H10915   3.100   3.011  10.745 -0.7047 -2.0283  0.6703
  822MOL0     H10916   3.104   2.875  10.635  0.0226 -0.3654  2.5526
  822MOL0     H10917   3.205   3.033  10.455  1.2622  0.1199  0.1514
  822MOL0     H10918   3.303   2.997  10.591  0.8754 -0.7833 -0.7400
  822MOL0     H10919   3.147   3.258  10.534 -0.7375  1.0043  0.7905
  822MOL0     H10920   3.210   3.218  10.698 -0.5128 -0.4162 -1.1264
  822MOL0     H10921   3.385   3.294  10.351  4.7711  0.3232 -1.0284
  822MOL0     H10922   3.580   3.414  10.305 -0.6976 -0.7772  0.4242
  822MOL0     H10923   3.635   3.516  10.439 -1.0798  0.1974 -1.1930
  822MOL0     H10924   3.798   3.323  10.500  2.7828  0.1656 -1.2124
  822MOL0     H10925   3.741   3.235  10.354 -0.8796 -0.1729  1.3100
  822MOL0     H10926   3.808   3.409  10.191  0.8573 -2.4099 -0.5842
  822MOL0     H10927   3.940   3.331  10.274  1.2398  0.3468  2.7570
  822MOL0     H10928   3.848   3.612  10.323 -1.2700 -0.9917 -0.6536
  822MOL0     H10929   3.998   3.558  10.258 -2.1074 -1.9130 -3.2134
  822MOL0     H10930   4.173   3.451  10.286 -1.5401  2.2001  1.1831
  822MOL0     H10931   4.379   3.355  10.355 -0.3622 -0.0361 -0.7770
  822MOL0     H10932   4.758   3.447  10.470  2.1245  0.1645 -1.3869
  822MOL0     H10933   4.986   3.385  10.453 -1.5629 -1.4295 -2.4852
  822MOL0     H10934   5.205   3.004  10.500 -0.7236 -1.2977 -1.9972
  822MOL0     H10935   5.068   3.024  10.397 -2.1678  2.5916  0.1406
  822MOL0     H10936   5.164   3.233  10.298 -0.0416 -0.4530 -0.4131
  822MOL0     H10937   5.273   3.244  10.413 -2.9048 -0.2794  0.5980
  822MOL0     H10938   5.384   3.007  10.321  2.2320  0.2788 -0.7357
  822MOL0     H10939   5.281   3.041  10.187  2.0123  0.1384 -1.2590
  822MOL0     H10940   5.526   3.204  10.295  0.6249 -1.0489  0.7028
  822MOL0     H10941   5.390   3.279  10.199  0.1333 -0.4446 -0.3838
  822MOL0     H10942   5.440   3.122  10.014 -2.0268  0.4774  1.2755
  822MOL0     H10943   5.587   3.061  10.085 -2.0596 -1.7912  1.1919
  822MOL0     H10944   5.557   3.352  10.038  0.3621 -0.0920  2.5110
  822MOL0     H10945   5.705   3.250  10.053  0.9761 -0.4743 -2.2482
  822MOL0     H10946   5.485   3.225   9.844  0.5998 -2.8741 -1.3561
  822MOL0     H10947   5.646   3.137   9.841 -0.3008 -0.3004  1.8328
  822MOL0     H10948   5.616   3.303   9.685 -1.6141 -1.8330  1.3330
  822MOL0     H10949   5.592   3.432   9.794 -1.6293 -1.5216  0.9538
  822MOL0     H10950   4.883   2.995  10.624  0.4511 -0.6883 -1.3188
  822MOL0     H10951   4.648   3.054  10.603  0.9631 -2.0136  0.1235
  822MOL0     H10952   4.265   3.349  10.770 -1.5705  0.0471  0.3102
  822MOL0     H10953   4.032   3.411  10.697  2.9308  0.8290  2.3021
  822MOL0     H10954   2.326   2.807  10.311  0.0733  1.5536 -2.0335
  822MOL0     H10955   2.087   2.799  10.414 -2.4285  1.0801 -1.2118
  822MOL0     H10956   1.673   3.237  10.589 -1.2916  0.6915  0.3595
  822MOL0     H10957   1.429   3.195  10.569  0.2747  0.6787  2.6267
  822MOL0     H10958   1.227   3.105  10.470 -1.8538  1.0754  0.0310
  822MOL0     H10959   1.235   3.100  10.640  4.2142 -2.7808  1.3877
  822MOL0     H10960   1.009   3.069  10.594  1.0768  1.4008  0.4116
  822MOL0     H10961   1.064   2.907  10.639  1.0050 -0.4793 -0.8961
  822MOL0     H10962   1.113   2.863  10.380  1.5885  2.4352 -1.3356
  822MOL0     H10963   1.006   2.997  10.345 -2.3586 -2.0492 -0.4199
  822MOL0     H10964   0.885   2.786  10.335  1.9766 -0.2422 -0.0913
  822MOL0     H10965   0.906   2.764  10.505 -3.2860  1.2833  1.3275
  822MOL0     H10966   0.581   3.021  10.430 -0.3910 -1.3113 -1.6732
  822MOL0     H10967   1.512   2.769  10.553 -3.0874  0.2600 -1.1101
  822MOL0     H10968   1.723   2.686  10.598  0.1077 -0.4946  3.4417
  822MOL0     H10969   1.840   2.785  10.494 -0.7617  3.8802 -0.0124
  822MOL0     H10970   1.830   2.800  10.671  0.3490  2.3696 -1.4379
  823MOL0     O10971   2.570  11.005   9.058  0.4471  0.3725 -0.5100
  823MOL0     C10972   2.500  11.109   9.044 -0.6985  0.6614  1.3837
  823MOL0     O10973   2.555  11.235   9.028 -0.6064  0.4442 -0.1247
  823MOL0     C10974   2.685  11.267   9.048 -0.6634  0.3597  0.6734
  823MOL0     C10975   2.748  11.343   8.949 -0.4329 -0.4832 -0.1811
  823MOL0     C10976   2.882  11.379   8.967 -0.2154  0.0395 -0.4814
  823MOL0     C10977   2.941  11.373   9.091  0.0076  0.3061 -0.5403
  823MOL0     O10978   3.062  11.446   9.103 -0.1232  0.1780  0.5838
  823MOL0     C10979   3.142  11.445   9.215 -0.0392  0.4606  0.6150
  823MOL0     C10980   3.288  11.442   9.170 -0.2152 -0.0119  0.7043
  823MOL0     C10981   3.371  11.457   9.303  0.3408  0.2422  0.3041
  823MOL0     C10982   3.523  11.479   9.284  0.2752  0.3870  0.3121
  823MOL0     C10983   3.603  11.343   9.260  1.1171 -0.2041  0.2290
  823MOL0     C10984   3.750  11.359   9.237  0.6781 -0.2518 -0.7081
  823MOL0     C10985   3.838  11.242   9.207 -0.6985  0.0283  0.2567
  823MOL0     C10986   3.880  11.215   9.056 -0.6677  0.3190 -0.5730
  823MOL0     N10987   3.965  11.099   9.055 -0.5170  0.2287 -0.8813
  823MOL0     C10988   3.929  10.965   9.054 -0.5384 -0.4878 -0.4121
  823MOL0     C10989   4.042  10.890   9.069 -0.3504  0.4308 -0.7501
  823MOL0     C10990   4.035  10.736   9.071  0.5350  0.6069 -0.7287
  823MOL0     C10991   4.057  10.679   8.931 -0.6466 -0.0000 -0.1658
  823MOL0     C10992   4.206  10.698   8.888 -0.8078  0.0944 -0.0602
  823MOL0     C10993   4.226  10.642   8.747 -0.2785 -0.1581 -0.0652
  823MOL0     O10994   4.223  10.499   8.758  0.6988  0.1654 -0.0098
  823MOL0     C10995   4.337  10.430   8.802 -0.0452 -0.5297  0.1431
  823MOL0     C10996   4.453  10.483   8.857  0.5646 -0.9881 -0.5541
  823MOL0     C10997   4.555  10.394   8.884 -0.2487  0.2600  0.1190
  823MOL0     C10998   4.541  10.250   8.868  0.4736  0.2471  0.3308
  823MOL0     C10999   4.653  10.166   8.901 -0.4149  0.3882 -0.3878
  823MOL0     O11000   4.745  10.209   8.991 -0.0739  0.7863 -0.1129
  823MOL0     C11001   4.873  10.166   9.006 -0.0506  0.4005  0.6642
  823MOL0     C11002   4.949  10.105   8.899 -0.0455  0.1767 -0.3825
  823MOL0     C11003   5.082  10.063   8.927  0.1778  0.1666 -0.0914
  823MOL0     C11004   5.138  10.076   9.055 -1.5281 -0.4231  0.0961
  823MOL0     O11005   5.271  10.029   9.084 -0.2540  0.3570  0.6531
  823MOL0     C11006   5.342  10.048   9.207  0.5209  0.0682  1.0616
  823MOL0     C11007   5.495  10.033   9.166  0.6211 -0.1916  0.1100
  823MOL0     C11008   5.576  10.085   9.285 -0.3647  0.2083  0.1447
  823MOL0     C11009   5.715  10.028   9.275  0.3939  0.3827  0.3606
  823MOL0     C11010   5.809  10.105   9.366 -0.2565 -0.4109 -0.4195
  823MOL0     C11011   5.950  10.042   9.382  0.0789 -0.4909 -0.5527
  823MOL0     C11012   5.998  10.050   9.525  0.6885  0.7322  0.3557
  823MOL0     C11013   6.139   9.997   9.537  0.5717 -0.2354  0.5580
  823MOL0    Cl11014   6.125   9.821   9.509  0.0225  0.0476  0.4511
  823MOL0     C11015   5.056  10.140   9.152 -0.3601  0.4295 -0.1634
  823MOL0     C11016   4.930  10.187   9.129  0.0439  0.0409  0.3249
  823MOL0     O11017   4.673  10.069   8.829  0.8455 -0.1217 -0.4519
  823MOL0     C11018   4.423  10.204   8.826 -0.4706 -0.5585  0.1715
  823MOL0     C11019   4.324  10.289   8.784 -0.1992  0.2009  0.0480
  823MOL0     N11020   4.147  10.978   9.052 -0.0034 -0.0337 -0.3002
  823MOL0     N11021   4.100  11.099   9.056 -0.9888  0.8173 -0.1435
  823MOL0     C11022   2.885  11.284   9.182 -0.4703 -0.5743  0.1111
  823MOL0     C11023   2.758  11.227   9.158  0.9050 -0.0072 -0.2314
  823MOL0     C11024   2.350  11.108   9.031  0.3537  0.1605  0.3618
  823MOL0     C11025   2.281  11.218   8.983 -0.0635 -0.4285 -0.0906
  823MOL0     C11026   2.143  11.212   8.955 -0.0420 -0.9531  0.1611
  823MOL0     C11027   2.063  11.105   9.002  0.4670 -0.6220 -0.3087
  823MOL0     O11028   1.931  11.094   8.997 -0.6888  0.0620 -0.8010
  823MOL0     C11029   1.855  11.206   8.961 -0.0939  0.6725  0.1903
  823MOL0     C11030   1.699  11.189   8.970 -0.3194 -0.1789  0.4565
  823MOL0     C11031   1.643  11.087   8.875 -0.8039  0.3070 -0.5793
  823MOL0     C11032   1.637  11.142   8.737  0.2702 -0.3147  0.0176
  823MOL0     C11033   1.531  11.244   8.727 -0.6478 -0.2187 -0.1164
  823MOL0     C11034   1.430  11.312   8.699 -0.3077 -1.0197  0.2333
  823MOL0     C11035   2.130  11.005   9.067  0.3602 -0.5112  0.0321
  823MOL0     C11036   2.269  11.002   9.081 -0.3882 -0.1457  1.1182
  823MOL0     C11037   2.330  10.884   9.152  0.6897 -0.1396  0.6314
  823MOL0     H11038   2.690  11.376   8.864  0.9809  1.2303 -0.5523
  823MOL0     H11039   2.934  11.442   8.895  0.3627 -0.9638 -0.9784
  823MOL0     H11040   3.125  11.529   9.283 -5.0748  0.0043  0.3037
  823MOL0     H11041   3.125  11.352   9.270  0.8278  1.1764  2.1657
  823MOL0     H11042   3.323  11.517   9.098 -1.6935  0.8526  0.8367
  823MOL0     H11043   3.317  11.347   9.126  0.0685 -0.3151  1.5344
  823MOL0     H11044   3.360  11.375   9.375 -0.7087  0.8344  0.8389
  823MOL0     H11045   3.327  11.538   9.362 -2.5305 -0.0710 -1.2300
  823MOL0     H11046   3.543  11.544   9.199 -1.5578 -0.7006 -1.0258
  823MOL0     H11047   3.562  11.528   9.374  0.0565 -1.1278  1.2842
  823MOL0     H11048   3.597  11.278   9.348  1.5604 -0.6587 -0.0767
  823MOL0     H11049   3.559  11.300   9.170 -1.3992 -0.8737  1.6654
  823MOL0     H11050   3.780  11.438   9.168  1.7889 -1.7668 -2.0170
  823MOL0     H11051   3.780  11.392   9.337 -0.0556  0.4456 -0.7054
  823MOL0     H11052   3.781  11.155   9.240 -2.2385 -0.7454 -3.7983
  823MOL0     H11053   3.927  11.255   9.269 -0.4456  2.5774 -0.5118
  823MOL0     H11054   3.795  11.200   8.989 -2.3872 -1.9323  1.8976
  823MOL0     H11055   3.938  11.299   9.016  0.0503  0.3988  0.5774
  823MOL0     H11056   3.829  10.923   9.055 -0.3474 -0.9531 -0.6302
  823MOL0     H11057   4.117  10.702   9.135 -0.3872  0.3896  0.3741
  823MOL0     H11058   3.936  10.701   9.101  0.3771 -0.2966 -2.2200
  823MOL0     H11059   4.028  10.574   8.941 -1.9376  0.3799  0.2727
  823MOL0     H11060   3.995  10.725   8.853 -0.5339  1.5804  0.6401
  823MOL0     H11061   4.262  10.642   8.964  0.6078  0.5568 -0.7173
  823MOL0     H11062   4.237  10.803   8.886  1.7985 -0.5270  1.8006
  823MOL0     H11063   4.321  10.673   8.703  0.8779 -1.3741  1.4340
  823MOL0     H11064   4.148  10.676   8.679  0.3041 -2.4105 -2.0206
  823MOL0     H11065   4.461  10.591   8.864 -0.1764 -0.9136 -0.7667
  823MOL0     H11066   4.651  10.430   8.920 -1.4603  1.8164  2.0226
  823MOL0     H11067   4.905  10.088   8.801  1.7663  1.7832 -1.5594
  823MOL0     H11068   5.140  10.029   8.842 -1.4340 -0.6680 -0.8950
  823MOL0     H11069   5.335  10.153   9.236  0.3628  0.3564  0.0387
  823MOL0     H11070   5.313   9.983   9.290 -0.8657  0.3007  0.7931
  823MOL0     H11071   5.516   9.930   9.137 -0.6805 -0.4065 -0.1214
  823MOL0     H11072   5.513  10.092   9.076 -1.8708 -0.0408 -0.3727
  823MOL0     H11073   5.587  10.193   9.268  2.0986  0.0246  0.1089
  823MOL0     H11074   5.538  10.051   9.381 -0.8734  0.0249 -0.1219
  823MOL0     H11075   5.750  10.040   9.172 -0.6937 -1.4655 -0.2581
  823MOL0     H11076   5.704   9.922   9.300  1.3284  0.1766 -0.0899
  823MOL0     H11077   5.765  10.101   9.467  1.2368 -2.6899  0.2192
  823MOL0     H11078   5.805  10.211   9.337 -2.7125 -0.3537 -0.0605
  823MOL0     H11079   5.950   9.939   9.347  0.3257  0.4730 -3.7256
  823MOL0     H11080   6.026  10.095   9.323  0.4395 -1.7614 -1.2561
  823MOL0     H11081   5.942   9.996   9.602 -1.3454  1.2686 -0.6767
  823MOL0     H11082   5.994  10.156   9.552 -0.0958  0.9181 -0.4736
  823MOL0     H11083   6.204  10.039   9.460  1.9597 -2.0891  0.6258
  823MOL0     H11084   6.183  10.012   9.636 -0.5643  3.1205  0.6745
  823MOL0     H11085   5.106  10.136   9.249  1.0231  0.5787 -0.8464
  823MOL0     H11086   4.869  10.218   9.213  1.6114 -2.8592  2.7043
  823MOL0     H11087   4.391  10.100   8.820  0.1738 -0.7090 -0.7478
  823MOL0     H11088   4.236  10.241   8.744  0.6077 -0.3044 -1.1644
  823MOL0     H11089   2.933  11.277   9.279  1.4659  0.0875 -0.7495
  823MOL0     H11090   2.712  11.173   9.239  0.9347  0.1945 -0.0800
  823MOL0     H11091   2.319  11.315   8.952 -1.0687  0.8952  2.5354
  823MOL0     H11092   2.105  11.300   8.906 -3.2960 -2.3189 -0.0489
  823MOL0     H11093   1.882  11.228   8.857  3.4140 -1.3314  0.5375
  823MOL0     H11094   1.880  11.293   9.021  0.1645  3.2146 -3.2852
  823MOL0     H11095   1.659  11.289   8.948  0.6928  0.8522  2.9121
  823MOL0     H11096   1.663  11.156   9.068  1.8415 -0.1384  1.3181
  823MOL0     H11097   1.544  11.052   8.907  0.4628 -1.8654  1.3084
  823MOL0     H11098   1.705  10.997   8.880 -2.2349 -0.6592  2.4316
  823MOL0     H11099   1.732  11.188   8.707 -0.1596  0.2866 -0.4333
  823MOL0     H11100   1.605  11.054   8.680 -2.1093  0.0143  0.7328
  823MOL0     H11101   1.344  11.369   8.671  2.4403  2.4451 -1.9605
  823MOL0     H11102   2.085  10.917   9.110 -0.0610  0.1885  1.0688
  823MOL0     H11103   2.373  10.830   9.067 -1.2240  1.0535 -1.2040
  823MOL0     H11104   2.412  10.902   9.223  1.6641 -0.9517 -0.2590
  823MOL0     H11105   2.253  10.824   9.200  1.2690  0.4770  2.4317
  824MOL0     O11106   3.743   6.644   1.870 -0.4437  0.5972  0.1873
  824MOL0     C11107   3.711   6.646   1.753 -0.8098  0.2294 -0.5400
  824MOL0     O11108   3.791   6.601   1.646 -0.3196  0.3925  0.0631
  824MOL0     C11109   3.927   6.578   1.654 -0.1364 -1.0254  0.3807
  824MOL0     C11110   3.986   6.559   1.521 -1.1734 -0.2069 -0.4760
  824MOL0     C11111   4.118   6.509   1.510 -0.0390 -0.0778  0.6756
  824MOL0     C11112   4.192   6.486   1.626 -0.0996 -0.4929 -1.2568
  824MOL0     O11113   4.324   6.455   1.625  0.4466  0.0374  0.2089
  824MOL0     C11114   4.398   6.497   1.514 -0.1165  0.0983  0.6568
  824MOL0     C11115   4.539   6.485   1.574 -0.0177  0.2599  0.3242
  824MOL0     C11116   4.640   6.558   1.500 -0.8604 -0.3949 -0.8982
  824MOL0     C11117   4.665   6.517   1.354 -0.4740  0.1801 -0.0650
  824MOL0     C11118   4.815   6.561   1.317  0.3379 -0.1392  0.3392
  824MOL0     C11119   4.853   6.500   1.177  0.2594 -1.3011 -0.3068
  824MOL0     C11120   4.989   6.549   1.122 -0.4091  0.5063  0.1439
  824MOL0     C11121   5.044   6.448   1.017 -0.2191 -0.1472  0.0001
  824MOL0     N11122   4.964   6.419   0.895 -0.5490 -0.0064 -0.1341
  824MOL0     C11123   4.992   6.463   0.768  0.4825  0.1499  0.0238
  824MOL0     C11124   4.904   6.393   0.688 -0.3162 -0.2801  0.7589
  824MOL0     C11125   4.896   6.378   0.540  0.2576 -0.5999  0.5401
  824MOL0     C11126   5.035   6.327   0.481 -0.9312  0.6357 -1.2006
  824MOL0     C11127   5.018   6.309   0.333  0.1869 -0.3364 -0.0305
  824MOL0     C11128   5.034   6.441   0.266 -0.0823  0.0358 -0.7113
  824MOL0     O11129   5.093   6.434   0.132  0.5102 -0.1682  0.4173
  824MOL0     C11130   5.230   6.433   0.119 -0.2252  0.9276 -0.3703
  824MOL0     C11131   5.282   6.393  -0.001 -0.1341  0.6121  0.3788
  824MOL0     C11132   5.419   6.390  -0.031  0.7031 -0.2134  0.4195
  824MOL0     C11133   5.513   6.433   0.065 -0.5352 -0.6246  0.1192
  824MOL0     C11134   5.656   6.423   0.028  0.1029 -0.8181  0.0839
  824MOL0     O11135   5.745   6.472   0.119 -0.1274  0.3113 -0.1028
  824MOL0     C11136   5.881   6.476   0.097 -0.3007 -0.3222 -0.1877
  824MOL0     C11137   5.962   6.548   0.183 -0.5546 -0.2396  0.5999
  824MOL0     C11138   6.099   6.541   0.204 -0.2096 -0.5429 -0.4260
  824MOL0     C11139   6.166   6.456   0.120 -0.4809  0.8065 -0.3738
  824MOL0     O11140   6.302   6.439   0.141 -0.0208  0.9323 -0.2811
  824MOL0     C11141   6.376   6.343   0.060  0.0364 -0.8835 -0.2318
  824MOL0     C11142   6.522   6.321   0.110 -0.5367  0.2187 -0.0342
  824MOL0     C11143   6.613   6.434   0.129 -1.0203  0.5677 -0.8203
  824MOL0     C11144   6.756   6.386   0.173 -0.5652  0.4704  0.2209
  824MOL0     C11145   6.839   6.501   0.223 -0.3687 -0.1972 -0.2961
  824MOL0     C11146   6.969   6.450   0.292  0.6270  1.0552 -1.2474
  824MOL0     C11147   7.060   6.552   0.333 -0.0799  0.7259  0.4795
  824MOL0     C11148   7.175   6.506   0.425  0.1070  0.5043  0.0575
  824MOL0    Cl11149   7.240   6.355   0.370  0.1071  0.2665  0.2350
  824MOL0     C11150   6.094   6.381   0.026 -0.0076  0.5016  0.3430
  824MOL0     C11151   5.958   6.388   0.019 -1.0638  0.1689 -0.7676
  824MOL0     O11152   5.683   6.375  -0.081 -0.0345  0.1117 -0.2783
  824MOL0     C11153   5.467   6.460   0.185  0.1581  0.4792  0.4687
  824MOL0     C11154   5.330   6.459   0.213 -0.1155  0.4702 -0.1766
  824MOL0     N11155   4.808   6.328   0.759  0.3102 -0.1614  0.0006
  824MOL0     N11156   4.850   6.343   0.887 -0.5761  0.1649 -0.4880
  824MOL0     C11157   4.139   6.505   1.755 -0.5657  0.7666 -0.1400
  824MOL0     C11158   4.003   6.544   1.768 -0.4611 -0.2668 -0.3127
  824MOL0     C11159   3.574   6.662   1.727 -0.4162  0.2629  0.3073
  824MOL0     C11160   3.516   6.592   1.613 -0.4041  0.2550 -0.5946
  824MOL0     C11161   3.381   6.594   1.590 -0.2544 -0.4201 -0.7379
  824MOL0     C11162   3.287   6.654   1.681 -0.4975  0.4803  0.4769
  824MOL0     O11163   3.150   6.642   1.643 -0.2017  0.4560 -0.1489
  824MOL0     C11164   3.059   6.743   1.674  0.3812 -0.4806 -0.1353
  824MOL0     C11165   2.971   6.698   1.795 -0.5293  0.6007 -0.5125
  824MOL0     C11166   2.870   6.800   1.807 -0.3514 -0.3475  0.0669
  824MOL0     C11167   2.766   6.767   1.908 -0.1968 -0.1389 -0.0880
  824MOL0     C11168   2.641   6.846   1.906 -0.6933 -0.1449  0.6651
  824MOL0     C11169   2.539   6.909   1.886 -0.2369 -0.5271 -0.1498
  824MOL0     C11170   3.337   6.720   1.788  0.0822  0.3792 -0.1936
  824MOL0     C11171   3.474   6.726   1.814 -0.2870  0.5081  0.8704
  824MOL0     C11172   3.490   6.796   1.948 -0.5526  0.8851 -0.2258
  824MOL0     H11173   3.936   6.575   1.426 -0.3065  1.3392 -0.7027
  824MOL0     H11174   4.157   6.482   1.412 -0.8520  3.0398 -0.6209
  824MOL0     H11175   4.387   6.437   1.423 -1.1666  0.8618  0.2543
  824MOL0     H11176   4.380   6.604   1.498 -0.9637 -0.3768 -2.2085
  824MOL0     H11177   4.579   6.383   1.567  1.7862  0.9282  0.4575
  824MOL0     H11178   4.545   6.517   1.678 -2.3749  1.7555  0.0669
  824MOL0     H11179   4.738   6.561   1.548 -0.5595 -0.4932 -1.4955
  824MOL0     H11180   4.613   6.664   1.490 -1.9416 -0.4626  0.8482
  824MOL0     H11181   4.661   6.408   1.346 -3.3052  0.1573  0.6927
  824MOL0     H11182   4.586   6.557   1.290  0.3117 -1.6206 -2.2986
  824MOL0     H11183   4.825   6.669   1.310 -1.2329 -0.0214 -0.6864
  824MOL0     H11184   4.882   6.526   1.396  1.3598  3.3196  1.1605
  824MOL0     H11185   4.855   6.391   1.180 -0.2332 -1.2946  1.5842
  824MOL0     H11186   4.778   6.548   1.113  2.4664  2.7709 -0.1722
  824MOL0     H11187   5.052   6.558   1.211  0.3149  1.0048 -0.4038
  824MOL0     H11188   4.988   6.643   1.067 -0.7994 -0.6245 -1.9057
  824MOL0     H11189   5.143   6.488   0.990  0.3278 -1.0422  0.6157
  824MOL0     H11190   5.058   6.355   1.072  1.1000  0.3084  0.4901
  824MOL0     H11191   5.070   6.531   0.736  1.3414 -0.6555  0.3671
  824MOL0     H11192   4.814   6.311   0.511 -3.2618  3.4749  0.0007
  824MOL0     H11193   4.868   6.474   0.497 -1.6089 -1.0790  0.5789
  824MOL0     H11194   5.121   6.393   0.496 -1.0690  0.5244  0.1985
  824MOL0     H11195   5.051   6.233   0.534 -0.4782  1.5798  0.4162
  824MOL0     H11196   4.920   6.265   0.311  0.9866 -1.8693 -0.6773
  824MOL0     H11197   5.091   6.233   0.303 -0.8683 -2.6148  2.6584
  824MOL0     H11198   5.082   6.517   0.329 -0.5062 -0.6139  0.4332
  824MOL0     H11199   4.937   6.487   0.247  0.0997  1.3914  1.3083
  824MOL0     H11200   5.213   6.351  -0.074 -0.4455  1.8439 -0.0779
  824MOL0     H11201   5.447   6.381  -0.136  0.5204  2.5597  0.0356
  824MOL0     H11202   5.917   6.614   0.257 -1.3672 -1.0310  0.8375
  824MOL0     H11203   6.152   6.600   0.278  1.0808 -1.5936 -0.4822
  824MOL0     H11204   6.321   6.248   0.059 -0.3072 -0.6823 -0.9073
  824MOL0     H11205   6.369   6.376  -0.043 -0.7498 -3.3220 -1.0391
  824MOL0     H11206   6.531   6.270   0.207  1.2488  2.3132  0.9830
  824MOL0     H11207   6.582   6.258   0.045  1.4956 -1.5112  3.2276
  824MOL0     H11208   6.630   6.496   0.040  3.1272 -1.1217 -1.4393
  824MOL0     H11209   6.570   6.494   0.210 -2.1233 -1.3581  0.0950
  824MOL0     H11210   6.812   6.331   0.097  0.9528  1.1685  0.7783
  824MOL0     H11211   6.743   6.328   0.265 -1.2636 -1.3521 -0.9667
  824MOL0     H11212   6.783   6.561   0.296  0.1924  1.3634 -1.1020
  824MOL0     H11213   6.871   6.565   0.141 -0.3110 -1.3177 -1.1776
  824MOL0     H11214   6.948   6.390   0.381  4.3150  0.7742 -0.4003
  824MOL0     H11215   7.019   6.385   0.221 -0.2956 -1.0175 -0.0813
  824MOL0     H11216   7.006   6.627   0.391  0.1035  1.2377 -0.0086
  824MOL0     H11217   7.099   6.601   0.244 -0.3571 -0.1294 -0.1269
  824MOL0     H11218   7.259   6.576   0.424  0.7916 -0.2948 -0.0033
  824MOL0     H11219   7.138   6.503   0.528  1.0303 -2.3952  0.4031
  824MOL0     H11220   6.136   6.298  -0.030 -0.0224  0.8447 -0.1776
  824MOL0     H11221   5.907   6.328  -0.054 -0.5274 -2.7500  1.0968
  824MOL0     H11222   5.541   6.478   0.261  1.3352  0.9413 -0.7500
  824MOL0     H11223   5.294   6.482   0.313 -0.4334  0.7330 -0.3477
  824MOL0     H11224   4.192   6.486   1.848  1.8350  2.3595 -1.0937
  824MOL0     H11225   3.977   6.564   1.872  1.1927  0.2436  0.0380
  824MOL0     H11226   3.580   6.539   1.544  0.9846 -1.7230  2.0418
  824MOL0     H11227   3.346   6.528   1.511 -1.8606 -0.4862 -0.0183
  824MOL0     H11228   3.004   6.769   1.582 -0.2519 -1.6130 -0.0890
  824MOL0     H11229   3.109   6.833   1.712  1.9204 -2.3011  2.4570
  824MOL0     H11230   3.028   6.697   1.889 -1.2192  0.0466 -0.0843
  824MOL0     H11231   2.937   6.593   1.798  0.3223  0.3372  1.7485
  824MOL0     H11232   2.817   6.815   1.712  0.8199  2.1783 -0.2737
  824MOL0     H11233   2.922   6.894   1.830 -1.1751  0.2079 -0.2694
  824MOL0     H11234   2.730   6.664   1.897  2.9164 -1.1798 -1.7762
  824MOL0     H11235   2.819   6.775   2.004  0.4268 -1.5011 -0.2924
  824MOL0     H11236   2.459   6.980   1.877  0.8728  0.6927 -0.7721
  824MOL0     H11237   3.263   6.755   1.860 -0.1014  0.2863 -0.3357
  824MOL0     H11238   3.595   6.789   1.978 -0.7371  1.7890  0.6980
  824MOL0     H11239   3.468   6.901   1.925 -1.7910  0.7792  0.4142
  824MOL0     H11240   3.431   6.752   2.028  2.0777  0.2351  1.4750
  825MOL0     O11241   1.699   4.886   0.359  0.3590  0.1737 -0.3140
  825MOL0     C11242   1.636   4.954   0.445  0.2858  0.0822  0.7256
  825MOL0     O11243   1.694   5.036   0.528  0.4942 -0.1701 -0.8232
  825MOL0     C11244   1.824   5.030   0.573  0.3632  0.0761  0.3313
  825MOL0     C11245   1.877   5.148   0.640  0.4200  0.5356 -0.8877
  825MOL0     C11246   2.000   5.147   0.696  0.1478 -0.1757  0.5833
  825MOL0     C11247   2.080   5.037   0.692 -0.8840  0.1447 -0.0789
  825MOL0     O11248   2.203   5.042   0.765 -0.1522  0.1961  0.2710
  825MOL0     C11249   2.320   5.081   0.690  0.0928 -0.1490  0.3205
  825MOL0     C11250   2.398   5.180   0.785  0.1979  0.0978 -0.1868
  825MOL0     C11251   2.528   5.216   0.709 -0.0898 -1.0853 -1.2810
  825MOL0     C11252   2.599   5.338   0.790  0.1770 -0.1454  0.4023
  825MOL0     C11253   2.744   5.344   0.752  0.0419 -0.7847  0.5817
  825MOL0     C11254   2.812   5.451   0.839  0.0148 -0.2750 -0.1804
  825MOL0     C11255   2.962   5.437   0.837 -0.8334  0.5748  0.1096
  825MOL0     C11256   3.024   5.502   0.966  0.0549  0.2579 -0.0480
  825MOL0     N11257   3.163   5.465   0.987 -0.5111 -0.2957 -0.2869
  825MOL0     C11258   3.214   5.349   1.034  0.0189 -0.0108  0.1624
  825MOL0     C11259   3.345   5.368   1.051 -0.4614 -0.2686  1.0354
  825MOL0     C11260   3.454   5.273   1.110 -0.8385  0.0466  0.3571
  825MOL0     C11261   3.576   5.355   1.178  0.4258 -0.0132  0.2514
  825MOL0     C11262   3.681   5.264   1.243  0.3823 -0.1221 -0.0941
  825MOL0     C11263   3.796   5.329   1.323  0.5571  0.5708  0.3537
  825MOL0     O11264   3.866   5.220   1.383 -0.1994  0.1062 -0.3159
  825MOL0     C11265   3.978   5.160   1.328  0.1533 -0.6746  0.0284
  825MOL0     C11266   4.032   5.210   1.211 -0.0636  0.2046  0.2707
  825MOL0     C11267   4.159   5.177   1.168 -0.3997 -0.7856 -0.1505
  825MOL0     C11268   4.241   5.096   1.254  0.3905 -0.9571  0.3065
  825MOL0     C11269   4.385   5.066   1.224  0.2559 -0.4175 -0.1978
  825MOL0     O11270   4.460   5.157   1.141  0.4070 -0.1416  0.0244
  825MOL0     C11271   4.575   5.111   1.075  0.2699 -0.9355 -0.0016
  825MOL0     C11272   4.587   4.974   1.016  0.0427 -0.7526 -0.4107
  825MOL0     C11273   4.705   4.941   0.954 -0.4430  0.4996  0.5462
  825MOL0     C11274   4.817   5.023   0.946 -0.3047  0.1603  0.7963
  825MOL0     O11275   4.946   4.993   0.896 -0.2634  0.3778  0.0196
  825MOL0     C11276   4.966   4.860   0.847 -0.2526  0.1566  0.2510
  825MOL0     C11277   5.112   4.820   0.847  0.6226 -0.5880 -0.1534
  825MOL0     C11278   5.188   4.889   0.733 -0.8057 -0.1283 -0.0921
  825MOL0     C11279   5.329   4.835   0.740  0.5035 -1.2685  0.2296
  825MOL0     C11280   5.422   4.904   0.630 -0.2943  0.0356 -0.2466
  825MOL0     C11281   5.403   5.047   0.599  0.1390 -0.1972 -0.1559
  825MOL0     C11282   5.302   5.080   0.482 -0.8558 -0.1778  0.4435
  825MOL0     C11283   5.290   5.228   0.484  0.0964  0.0800 -0.3062
  825MOL0    Cl11284   5.440   5.290   0.415 -0.3015  0.2557 -0.2492
  825MOL0     C11285   4.803   5.152   0.999  0.0452  0.4834  0.3426
  825MOL0     C11286   4.691   5.195   1.072 -0.4114  0.8655  0.0880
  825MOL0     O11287   4.426   4.962   1.268 -0.7381 -0.3797  0.0920
  825MOL0     C11288   4.191   5.059   1.378 -0.0070  0.4203  0.1939
  825MOL0     C11289   4.058   5.088   1.409 -0.1537  0.0986  0.7688
  825MOL0     N11290   3.373   5.499   1.003  0.3025 -0.8789  0.1296
  825MOL0     N11291   3.270   5.554   0.968  0.2072  0.8153 -0.2529
  825MOL0     C11292   2.037   4.927   0.625  0.2821  0.5425  0.2485
  825MOL0     C11293   1.902   4.909   0.579 -0.1516 -0.1117 -0.3385
  825MOL0     C11294   1.493   4.934   0.450  1.0898 -0.4394  0.0923
  825MOL0     C11295   1.436   4.821   0.395  0.3270 -0.0384 -0.2219
  825MOL0     C11296   1.301   4.808   0.394 -0.1110  0.5653 -0.9817
  825MOL0     C11297   1.222   4.907   0.445  0.5265 -0.2600  0.4788
  825MOL0     O11298   1.084   4.876   0.427 -0.2980 -0.1460  0.1149
  825MOL0     C11299   0.990   4.979   0.456 -1.0928 -0.0357 -1.0697
  825MOL0     C11300   0.858   4.944   0.392 -0.8696 -0.1256  0.3816
  825MOL0     C11301   0.874   4.936   0.241  0.2117 -0.2226 -1.0102
  825MOL0     C11302   0.739   4.912   0.175  0.2937  1.2726 -0.6062
  825MOL0     C11303   0.674   4.791   0.225 -0.5166  0.6089  1.3123
  825MOL0     C11304   0.641   4.675   0.256  0.7219  0.0534 -0.2062
  825MOL0     C11305   1.273   5.025   0.501  0.0705 -0.4280  0.9178
  825MOL0     C11306   1.411   5.041   0.506  0.3659  0.9571  0.0386
  825MOL0     C11307   1.462   5.178   0.540 -0.2525  0.9964 -0.2293
  825MOL0     H11308   1.815   5.237   0.644  1.6259  1.4830 -2.1562
  825MOL0     H11309   2.032   5.243   0.735  0.9511  0.8265 -2.2734
  825MOL0     H11310   2.380   4.998   0.654  0.9326  0.8042 -0.5571
  825MOL0     H11311   2.289   5.135   0.600 -1.3325  0.4722  1.1381
  825MOL0     H11312   2.433   5.120   0.869  1.1293 -1.1147 -1.3984
  825MOL0     H11313   2.348   5.273   0.813  1.8096  0.8887  0.2063
  825MOL0     H11314   2.512   5.261   0.610  0.9879 -1.6600 -1.7261
  825MOL0     H11315   2.599   5.134   0.701  2.0399  0.6452 -0.9822
  825MOL0     H11316   2.560   5.435   0.757  0.8331 -0.7288 -2.3981
  825MOL0     H11317   2.584   5.321   0.897 -0.6342  0.1759  0.3467
  825MOL0     H11318   2.783   5.243   0.770 -0.7539 -1.3319 -0.6123
  825MOL0     H11319   2.759   5.370   0.647  0.6749 -1.9059  0.3802
  825MOL0     H11320   2.791   5.553   0.804  0.4475 -0.4495 -0.9841
  825MOL0     H11321   2.770   5.440   0.939  1.3265  0.7722  0.5265
  825MOL0     H11322   2.998   5.483   0.744 -1.0846  1.1306  0.2811
  825MOL0     H11323   2.983   5.330   0.834  0.6937  0.8388 -3.6887
  825MOL0     H11324   3.016   5.611   0.975  2.0131  0.2851  2.1704
  825MOL0     H11325   2.961   5.456   1.043 -0.1752 -2.0260 -1.5097
  825MOL0     H11326   3.164   5.260   1.072  0.4475 -0.8087 -1.1087
  825MOL0     H11327   3.417   5.207   1.189 -0.6741  1.2582  1.4779
  825MOL0     H11328   3.500   5.211   1.032  1.5987  1.7627  0.3417
  825MOL0     H11329   3.624   5.413   1.098 -0.6665 -2.0537 -2.0135
  825MOL0     H11330   3.534   5.419   1.256 -1.3284 -1.0500  0.1942
  825MOL0     H11331   3.722   5.208   1.159  0.7951 -1.0151  0.6925
  825MOL0     H11332   3.628   5.190   1.302  0.8542 -1.0980 -0.8659
  825MOL0     H11333   3.764   5.392   1.407  1.5907 -0.0294  1.2394
  825MOL0     H11334   3.855   5.394   1.259  1.1228  0.3259  0.6118
  825MOL0     H11335   3.963   5.265   1.147 -0.3387 -0.1958  0.2173
  825MOL0     H11336   4.176   5.219   1.069 -2.0144  2.4473  0.7829
  825MOL0     H11337   4.511   4.898   1.009  0.7191 -1.8428  2.6871
  825MOL0     H11338   4.706   4.843   0.907  0.8502  0.9889 -0.4989
  825MOL0     H11339   4.918   4.787   0.914 -1.4508  1.5859  1.0059
  825MOL0     H11340   4.931   4.859   0.743  1.4670 -0.5041 -0.3647
  825MOL0     H11341   5.158   4.840   0.944  1.8126 -1.5281 -0.4990
  825MOL0     H11342   5.114   4.711   0.832  0.0087 -0.3090 -2.8165
  825MOL0     H11343   5.146   4.864   0.635  0.3990  1.7505 -1.1558
  825MOL0     H11344   5.185   4.998   0.747 -0.0027  0.0680 -1.2823
  825MOL0     H11345   5.341   4.727   0.730  2.7353 -1.0114 -0.2986
  825MOL0     H11346   5.373   4.855   0.839  0.1658  1.4230 -0.0850
  825MOL0     H11347   5.421   4.851   0.535 -0.3277  0.0767 -0.2693
  825MOL0     H11348   5.522   4.897   0.674 -0.4861  2.5359  0.7574
  825MOL0     H11349   5.381   5.105   0.689 -1.2556  1.2230 -1.3444
  825MOL0     H11350   5.497   5.093   0.567 -0.7313  0.9109 -1.2159
  825MOL0     H11351   5.200   5.046   0.503 -0.5782 -2.8174 -1.9347
  825MOL0     H11352   5.331   5.037   0.386  1.1330  1.4356  0.2675
  825MOL0     H11353   5.211   5.256   0.414  0.8908  1.2351 -0.7712
  825MOL0     H11354   5.282   5.274   0.583 -1.9738  1.5805 -1.1077
  825MOL0     H11355   4.882   5.225   0.986  1.7021 -1.3804 -0.5187
  825MOL0     H11356   4.682   5.290   1.125 -3.4883 -0.4047  2.1188
  825MOL0     H11357   4.247   4.990   1.441 -0.2926 -0.8484 -0.8855
  825MOL0     H11358   4.010   5.064   1.504 -0.0356 -0.4475  0.6977
  825MOL0     H11359   2.084   4.829   0.620 -3.6928 -1.5604  0.0899
  825MOL0     H11360   1.866   4.812   0.545  0.8655 -1.2270  1.6103
  825MOL0     H11361   1.489   4.738   0.350  0.9440  0.7338 -0.9546
  825MOL0     H11362   1.257   4.727   0.337  1.3262  1.0159 -2.8279
  825MOL0     H11363   1.015   5.077   0.413 -1.1245  0.3112 -0.3051
  825MOL0     H11364   0.978   4.991   0.564  0.9292 -2.2761 -0.5189
  825MOL0     H11365   0.788   5.021   0.427  1.5771  1.6022  1.7822
  825MOL0     H11366   0.836   4.844   0.430 -0.6082 -1.9096 -3.6736
  825MOL0     H11367   0.940   4.852   0.218 -0.7576 -0.4188 -3.3687
  825MOL0     H11368   0.915   5.031   0.205  0.4787 -0.5170 -1.4860
  825MOL0     H11369   0.666   4.992   0.189 -4.1068 -2.6743  1.9528
  825MOL0     H11370   0.764   4.897   0.070  0.5580 -2.8237 -0.0956
  825MOL0     H11371   0.618   4.571   0.273 -0.7469  0.5879  1.3301
  825MOL0     H11372   1.203   5.105   0.523  0.5638  0.4889 -0.6768
  825MOL0     H11373   1.493   5.184   0.645  1.7995  0.9157 -0.7779
  825MOL0     H11374   1.544   5.210   0.476 -1.5010  0.2984 -2.2523
  825MOL0     H11375   1.389   5.259   0.535  0.9720  2.3710  2.1851
  826MOL0     O11376   3.210   7.764   0.961 -0.8057 -0.4585 -0.1869
  826MOL0     C11377   3.187   7.804   0.848 -0.9931  0.7070 -0.3125
  826MOL0     O11378   3.261   7.776   0.738  0.2005  0.3949 -0.3351
  826MOL0     C11379   3.389   7.721   0.748 -0.0621 -0.2495 -0.6894
  826MOL0     C11380   3.451   7.661   0.640  0.9403 -0.5801 -1.0107
  826MOL0     C11381   3.585   7.614   0.640 -0.1261  0.2504 -0.0759
  826MOL0     C11382   3.652   7.601   0.760 -0.7687 -0.4937 -0.2772
  826MOL0     O11383   3.765   7.520   0.775  0.1932 -0.1350 -0.3185
  826MOL0     C11384   3.885   7.566   0.713  0.3314 -0.0331 -0.6148
  826MOL0     C11385   3.919   7.721   0.731  0.0142  0.6318 -0.3974
  826MOL0     C11386   4.064   7.751   0.674  0.4450  0.5809  0.1991
  826MOL0     C11387   4.089   7.904   0.672  0.1538  0.6120  0.0192
  826MOL0     C11388   4.244   7.938   0.662  0.7102 -1.0338 -0.2203
  826MOL0     C11389   4.302   7.916   0.524 -0.1839 -0.8771 -0.3626
  826MOL0     C11390   4.447   7.968   0.528  0.0159 -0.5398 -0.2878
  826MOL0     C11391   4.522   7.956   0.394  0.0357 -0.7554 -0.1863
  826MOL0     N11392   4.651   8.026   0.415  0.2079  0.0049 -0.1656
  826MOL0     C11393   4.684   8.136   0.338  0.1196 -1.0483 -0.4821
  826MOL0     C11394   4.814   8.172   0.375  0.3678 -0.0734 -0.0174
  826MOL0     C11395   4.905   8.294   0.324 -0.1337 -0.8597  0.5194
  826MOL0     C11396   4.852   8.431   0.383 -0.2024 -0.3228 -0.5207
  826MOL0     C11397   4.920   8.556   0.316 -0.3073  0.1698  0.1294
  826MOL0     C11398   5.070   8.575   0.327 -0.3226  0.3084 -0.4461
  826MOL0     O11399   5.100   8.607   0.461 -0.9532  0.0036  0.0210
  826MOL0     C11400   5.231   8.624   0.507  0.1926 -0.3830  0.4011
  826MOL0     C11401   5.256   8.627   0.646 -0.5534  0.0841  0.5257
  826MOL0     C11402   5.386   8.643   0.686 -0.4086  1.0702 -0.8439
  826MOL0     C11403   5.493   8.662   0.601  0.4558 -0.2855 -1.1573
  826MOL0     C11404   5.634   8.652   0.645  0.3716  0.0818  0.0455
  826MOL0     O11405   5.655   8.673   0.776 -0.4277  0.3003 -0.4308
  826MOL0     C11406   5.780   8.687   0.827  0.5326 -0.0952 -0.7074
  826MOL0     C11407   5.824   8.583   0.913 -0.1688  0.7696 -0.1881
  826MOL0     C11408   5.954   8.593   0.956  0.0068 -0.3883  0.0390
  826MOL0     C11409   6.043   8.707   0.926  1.2539  0.6586 -0.0543
  826MOL0     O11410   6.167   8.697   0.969  0.0864  0.3854 -0.6276
  826MOL0     C11411   6.245   8.809   0.990 -0.1256 -0.3533  0.1597
  826MOL0     C11412   6.197   8.907   1.103  0.0097  0.3091 -0.0560
  826MOL0     C11413   6.315   8.968   1.163  0.4177 -1.8469  0.1403
  826MOL0     C11414   6.285   9.059   1.282 -0.1014  0.7588 -0.5446
  826MOL0     C11415   6.414   9.091   1.360 -0.2358  0.0696 -0.1830
  826MOL0     C11416   6.387   9.191   1.466 -0.3619 -0.4810 -0.0139
  826MOL0     C11417   6.512   9.243   1.540 -0.0567 -0.1860  0.0305
  826MOL0     C11418   6.568   9.138   1.639  0.5998 -0.8066 -0.2517
  826MOL0    Cl11419   6.710   9.218   1.720 -0.2891  0.2683 -0.0127
  826MOL0     C11420   5.993   8.813   0.846  0.8979 -0.1502 -0.8737
  826MOL0     C11421   5.862   8.799   0.802 -0.6815 -0.0515 -0.1021
  826MOL0     O11422   5.717   8.612   0.562  0.3503  0.0152 -0.2870
  826MOL0     C11423   5.471   8.665   0.460  0.1165 -0.1504 -0.7058
  826MOL0     C11424   5.339   8.645   0.416  1.0037 -0.1620 -0.0109
  826MOL0     N11425   4.853   8.084   0.479  0.2820 -0.1697  0.1696
  826MOL0     N11426   4.762   7.997   0.491  0.1562 -1.0167  0.4481
  826MOL0     C11427   3.598   7.659   0.880  0.0842 -0.1721  0.2860
  826MOL0     C11428   3.467   7.724   0.867  0.1716  0.3720 -0.7999
  826MOL0     C11429   3.060   7.865   0.814  0.2020 -0.1584 -0.1840
  826MOL0     C11430   3.007   7.864   0.685 -0.3008 -1.0309 -0.7245
  826MOL0     C11431   2.874   7.887   0.663  0.4084  0.8170  1.2739
  826MOL0     C11432   2.798   7.950   0.759  0.7501 -0.7295 -0.7167
  826MOL0     O11433   2.671   8.001   0.747 -0.0421  0.6613  0.0836
  826MOL0     C11434   2.578   7.912   0.679 -0.5115 -0.6231  0.3228
  826MOL0     C11435   2.468   8.004   0.626 -0.4641 -0.6366  0.6113
  826MOL0     C11436   2.521   8.117   0.534 -0.0946 -1.1732 -0.4646
  826MOL0     C11437   2.584   8.060   0.409 -0.4973 -0.0006  0.3804
  826MOL0     C11438   2.469   8.008   0.339  0.5633  0.1656  0.3867
  826MOL0     C11439   2.371   7.977   0.282 -0.7637 -0.2550  0.5213
  826MOL0     C11440   2.857   7.973   0.887 -0.3601  0.3776 -0.4359
  826MOL0     C11441   2.984   7.929   0.916  0.2245  0.4607 -0.2785
  826MOL0     C11442   3.032   7.958   1.058 -0.3801 -0.6618 -0.2508
  826MOL0     H11443   3.393   7.657   0.548  1.1424 -1.4777 -1.1017
  826MOL0     H11444   3.621   7.564   0.551  3.0531  0.2419  1.0874
  826MOL0     H11445   3.971   7.505   0.744  0.3841  0.8036  0.9557
  826MOL0     H11446   3.869   7.549   0.606  1.3659  0.1966 -0.8192
  826MOL0     H11447   3.915   7.745   0.838  0.3722 -0.3278 -0.1615
  826MOL0     H11448   3.845   7.776   0.670 -0.4495  0.3982 -0.0525
  826MOL0     H11449   4.068   7.713   0.572  0.1800  2.0084 -0.3593
  826MOL0     H11450   4.144   7.695   0.723  1.8645 -1.3393 -3.8783
  826MOL0     H11451   4.045   7.963   0.591 -0.7784 -0.8011 -0.5231
  826MOL0     H11452   4.053   7.946   0.767  1.2929  0.2553  0.6323
  826MOL0     H11453   4.258   8.041   0.696  1.3763 -1.8755  2.2661
  826MOL0     H11454   4.296   7.883   0.741  0.8445  0.0292  0.4494
  826MOL0     H11455   4.290   7.810   0.499 -1.2253 -0.9811  0.5414
  826MOL0     H11456   4.245   7.967   0.446  0.6107  1.4808  0.5362
  826MOL0     H11457   4.502   7.913   0.606 -0.5968  0.3508  0.7940
  826MOL0     H11458   4.442   8.069   0.571 -1.1744 -0.4343 -0.6465
  826MOL0     H11459   4.550   7.852   0.375 -0.9841 -1.0018 -0.4212
  826MOL0     H11460   4.461   7.994   0.312 -1.6227 -1.9218  0.4285
  826MOL0     H11461   4.631   8.187   0.259  0.6202  0.5752  0.1871
  826MOL0     H11462   5.010   8.278   0.350 -0.6818 -3.5330  1.4287
  826MOL0     H11463   4.901   8.283   0.215  1.8171 -1.2764  0.4424
  826MOL0     H11464   4.747   8.447   0.355 -0.1920  0.2792 -0.2420
  826MOL0     H11465   4.852   8.444   0.492  0.9896  0.4204 -0.5848
  826MOL0     H11466   4.870   8.650   0.341  2.9099  1.7595  1.1742
  826MOL0     H11467   4.905   8.552   0.208  3.0668  4.3159 -0.7724
  826MOL0     H11468   5.085   8.656   0.256  0.2183 -1.6477 -2.7021
  826MOL0     H11469   5.118   8.486   0.285 -1.1976  0.0919 -1.0052
  826MOL0     H11470   5.183   8.625   0.726 -0.1110 -0.0071  0.9345
  826MOL0     H11471   5.418   8.637   0.790  0.4028 -2.1254 -1.1721
  826MOL0     H11472   5.756   8.501   0.932 -4.9900  3.8523 -2.1118
  826MOL0     H11473   5.995   8.508   1.010  0.5379  0.1360  0.4743
  826MOL0     H11474   6.353   8.789   0.995  0.3305  0.9188 -2.7687
  826MOL0     H11475   6.234   8.878   0.906 -0.4613  1.0117  1.2942
  826MOL0     H11476   6.124   8.983   1.074  1.0031  1.7339  1.0845
  826MOL0     H11477   6.140   8.859   1.182 -3.5576 -0.0680 -2.6325
  826MOL0     H11478   6.385   8.889   1.191  3.6163  1.0660  1.0600
  826MOL0     H11479   6.366   9.032   1.091 -1.7647  0.0227  0.1285
  826MOL0     H11480   6.221   9.011   1.356  0.8368  2.2987  1.3777
  826MOL0     H11481   6.236   9.153   1.256 -1.2503  0.5017  0.6066
  826MOL0     H11482   6.482   9.138   1.289 -1.8048 -0.4170 -2.0906
  826MOL0     H11483   6.459   8.999   1.399  1.1400  0.8700  0.1684
  826MOL0     H11484   6.334   9.278   1.425 -1.0184  0.4525  2.6276
  826MOL0     H11485   6.321   9.138   1.535 -1.3687  1.5903  0.7050
  826MOL0     H11486   6.489   9.336   1.593  1.0475 -0.6256  1.3525
  826MOL0     H11487   6.592   9.262   1.468 -0.2162  2.7176  0.4912
  826MOL0     H11488   6.488   9.123   1.712 -2.5784  0.5905 -3.1378
  826MOL0     H11489   6.592   9.045   1.588  1.0125 -0.5970 -0.4412
  826MOL0     H11490   6.051   8.897   0.811  0.7687  1.3331  2.1504
  826MOL0     H11491   5.823   8.884   0.747  1.7200  0.5964 -0.9015
  826MOL0     H11492   5.549   8.682   0.387 -0.3883  0.3580 -1.1293
  826MOL0     H11493   5.326   8.633   0.309  0.3873  0.8121 -0.0595
  826MOL0     H11494   3.663   7.656   0.967  1.9557  0.6952 -1.0155
  826MOL0     H11495   3.442   7.786   0.952  1.9378  0.7512 -0.5050
  826MOL0     H11496   3.070   7.840   0.600  0.6071 -1.6371  0.1041
  826MOL0     H11497   2.831   7.860   0.567  0.9783 -0.3337  1.3247
  826MOL0     H11498   2.528   7.849   0.753 -1.0014 -1.5681 -0.7678
  826MOL0     H11499   2.618   7.856   0.594  1.9686 -1.7660  2.1328
  826MOL0     H11500   2.418   8.061   0.706 -0.5658  0.1585  0.0001
  826MOL0     H11501   2.384   7.948   0.583  0.4053 -0.7915 -0.9474
  826MOL0     H11502   2.592   8.177   0.592 -2.9606  2.1510 -0.0774
  826MOL0     H11503   2.439   8.187   0.516  1.0475  0.0731 -1.0177
  826MOL0     H11504   2.626   8.135   0.341  1.4942 -1.5519 -0.1854
  826MOL0     H11505   2.649   7.973   0.417 -0.7078 -0.3464 -1.2269
  826MOL0     H11506   2.285   7.960   0.220  1.4632 -0.6245 -2.7527
  826MOL0     H11507   2.802   8.031   0.960  3.1538  2.5111  0.7526
  826MOL0     H11508   2.971   8.043   1.089  0.5911  0.4056 -1.1678
  826MOL0     H11509   3.015   7.866   1.114  0.7493 -2.6944 -2.9954
  826MOL0     H11510   3.133   7.996   1.069 -1.9495  3.5439  1.4977
  827MOL0     O11511   9.748   7.913   9.657  0.5022 -0.6510  0.1491
  827MOL0     C11512   9.661   7.825   9.655  0.1771  1.0748  0.1900
  827MOL0     O11513   9.691   7.684   9.660  0.6259 -0.0203 -0.2793
  827MOL0     C11514   9.824   7.653   9.646  0.9647 -0.1951  0.1625
  827MOL0     C11515   9.924   7.700   9.730  0.5897 -0.5185 -0.2544
  827MOL0     C11516  10.056   7.693   9.693 -0.4943  0.3035 -0.6309
  827MOL0     C11517  10.090   7.650   9.564  0.0209  0.1467 -0.2516
  827MOL0     O11518  10.224   7.652   9.523 -0.1434 -0.4725  0.7351
  827MOL0     C11519  10.272   7.627   9.386  0.8895 -1.0045 -0.0067
  827MOL0     C11520  10.292   7.753   9.315  1.0562 -0.5948  0.3273
  827MOL0     C11521  10.315   7.755   9.172 -0.2171  0.3116  0.5021
  827MOL0     C11522  10.429   7.660   9.123  0.7952 -0.0970 -0.6454
  827MOL0     C11523  10.490   7.710   8.993 -0.0114 -0.0700 -0.1592
  827MOL0     C11524  10.626   7.631   8.978 -0.2709  0.6005  0.0737
  827MOL0     C11525  10.693   7.648   8.847  0.3578  0.6886 -0.9186
  827MOL0     C11526  10.743   7.794   8.843  0.4502  0.3304 -0.1922
  827MOL0     N11527  10.854   7.818   8.743  0.1325 -0.0640 -0.2440
  827MOL0     C11528  10.980   7.761   8.756  0.7403 -0.4263  0.9413
  827MOL0     C11529  11.051   7.811   8.646  0.4712 -0.3796 -0.0574
  827MOL0     C11530  11.201   7.795   8.618  0.0501  0.1110  0.4985
  827MOL0     C11531  11.297   7.766   8.738 -0.0846  0.3894 -0.4080
  827MOL0     C11532  11.440   7.754   8.685 -0.3056 -0.2721  0.7159
  827MOL0     C11533  11.510   7.633   8.739 -0.4090 -0.6141  0.1529
  827MOL0     O11534  11.621   7.594   8.656  0.6552 -0.4750  0.1564
  827MOL0     C11535  11.727   7.670   8.683 -0.2669 -0.0484  0.1008
  827MOL0     C11536  11.823   7.616   8.768 -0.5137 -0.7538  0.3641
  827MOL0     C11537  11.952   7.684   8.784  0.6843  0.1859 -0.7291
  827MOL0     C11538  11.969   7.812   8.725 -1.7297  0.0302  0.1840
  827MOL0     C11539  12.098   7.891   8.738 -0.0956 -0.0491 -0.2131
  827MOL0     O11540  12.196   7.830   8.813  0.4424 -0.4344 -0.2289
  827MOL0     C11541  12.304   7.892   8.856  0.2338 -0.3230 -0.0570
  827MOL0     C11542  12.422   7.911   8.777  1.2317 -0.0002 -0.7155
  827MOL0     C11543  12.533   7.970   8.825 -0.9682  0.2872  0.2954
  827MOL0     C11544  12.544   8.008   8.964 -0.1401 -0.4995  0.4335
  827MOL0     O11545  12.660   8.062   9.015  0.1982 -0.1630  0.3569
  827MOL0     C11546  12.772   7.982   8.986 -0.1994 -0.2981  0.0951
  827MOL0     C11547  12.892   8.028   9.077 -0.3451  0.1412 -0.7225
  827MOL0     C11548  12.970   8.154   9.029 -0.1551 -0.0665 -0.0707
  827MOL0     C11549  13.055   8.218   9.145 -0.6207 -0.1817 -0.1122
  827MOL0     C11550  13.156   8.327   9.112  0.2097 -0.1574 -0.4827
  827MOL0     C11551  13.104   8.460   9.064 -0.0420 -0.4543  0.2584
  827MOL0     C11552  13.009   8.533   9.163 -0.0935  0.4323  0.0542
  827MOL0     C11553  13.078   8.576   9.288 -0.0657  0.2747  0.0514
  827MOL0    Cl11554  12.945   8.621   9.409 -0.6877 -0.5669 -0.0908
  827MOL0     C11555  12.425   8.009   9.043 -0.0926  0.2274  0.0911
  827MOL0     C11556  12.313   7.943   8.989 -0.0417 -0.2761  0.2617
  827MOL0     O11557  12.113   8.006   8.689  0.2937  0.1223  0.0374
  827MOL0     C11558  11.874   7.860   8.638 -0.6460  0.1318 -0.2519
  827MOL0     C11559  11.751   7.789   8.611 -0.4919  0.1934 -0.0126
  827MOL0     N11560  10.962   7.893   8.570  0.4292 -0.2987 -0.1402
  827MOL0     N11561  10.848   7.883   8.624 -0.7623  0.1012 -0.4036
  827MOL0     C11562   9.998   7.607   9.472  0.5174 -1.1523 -0.5788
  827MOL0     C11563   9.864   7.604   9.519  0.6320 -0.2590 -0.4727
  827MOL0     C11564   9.521   7.866   9.649 -0.2608 -0.0844  0.1878
  827MOL0     C11565   9.419   7.782   9.692  0.2136  0.3503  0.1758
  827MOL0     C11566   9.285   7.817   9.689  0.6063  0.2101 -0.5247
  827MOL0     C11567   9.249   7.939   9.627  0.1132  0.4916 -0.0296
  827MOL0     O11568   9.120   7.969   9.607  0.3034  0.2149  0.1294
  827MOL0     C11569   9.019   7.894   9.675 -0.0985 -0.3550 -0.1961
  827MOL0     C11570   8.896   7.963   9.670 -0.0758 -0.0509 -0.5326
  827MOL0     C11571   8.770   7.870   9.652  0.2629  0.5787  0.7431
  827MOL0     C11572   8.629   7.946   9.627 -0.1635  0.2671 -0.2333
  827MOL0     C11573   8.524   7.850   9.614 -1.1466 -0.1491 -0.2212
  827MOL0     C11574   8.453   7.758   9.592  0.0619  0.1342 -0.2176
  827MOL0     C11575   9.344   8.024   9.583 -0.2775  0.3458  0.7506
  827MOL0     C11576   9.478   7.994   9.598 -0.2437 -0.5646  0.4630
  827MOL0     C11577   9.569   8.104   9.542 -0.5937  0.4697 -0.4275
  827MOL0     H11578   9.901   7.768   9.812  0.7617  2.7612 -2.7361
  827MOL0     H11579  10.125   7.739   9.763  0.3857 -0.6353 -0.8488
  827MOL0     H11580  10.371   7.580   9.392  0.6260 -1.6040 -0.2870
  827MOL0     H11581  10.209   7.562   9.325  1.5313 -2.6159  0.9607
  827MOL0     H11582  10.376   7.806   9.363 -1.8509  1.6250  3.4497
  827MOL0     H11583  10.204   7.817   9.323 -0.3590 -2.3768 -0.2857
  827MOL0     H11584  10.322   7.857   9.134 -1.0319 -0.1436 -1.0047
  827MOL0     H11585  10.226   7.713   9.123  1.0676  0.0854 -1.7547
  827MOL0     H11586  10.505   7.641   9.200  0.4216 -0.3547 -0.3331
  827MOL0     H11587  10.382   7.564   9.098 -1.0702  0.9094 -1.1961
  827MOL0     H11588  10.423   7.697   8.908  1.7333  0.5735 -1.7080
  827MOL0     H11589  10.507   7.818   9.003  0.6699 -0.1928  0.0458
  827MOL0     H11590  10.702   7.651   9.054  0.2501  1.2996 -0.5989
  827MOL0     H11591  10.611   7.523   8.975  0.0107  0.5617 -2.7150
  827MOL0     H11592  10.614   7.631   8.773  0.9764  0.1687 -1.4716
  827MOL0     H11593  10.774   7.576   8.841  0.5496  0.6910  1.0762
  827MOL0     H11594  10.652   7.852   8.828 -0.7786 -1.3791  0.3159
  827MOL0     H11595  10.771   7.847   8.935  2.3093 -1.2006  0.1813
  827MOL0     H11596  11.022   7.706   8.840  1.6684  0.5456  1.1477
  827MOL0     H11597  11.218   7.717   8.543 -0.5694 -0.4884  0.9671
  827MOL0     H11598  11.232   7.887   8.568 -2.8619  0.1292 -1.5886
  827MOL0     H11599  11.284   7.836   8.821  0.3732  0.7869 -0.6642
  827MOL0     H11600  11.264   7.679   8.795 -1.4375  2.0716  1.5118
  827MOL0     H11601  11.495   7.845   8.713 -1.6454 -0.1650  3.3025
  827MOL0     H11602  11.439   7.739   8.577 -2.1538 -1.9395  0.9049
  827MOL0     H11603  11.429   7.560   8.749 -2.6154  1.1175 -3.2031
  827MOL0     H11604  11.547   7.646   8.841  2.0027 -2.0386 -0.4512
  827MOL0     H11605  11.799   7.529   8.828 -1.6487 -0.8551 -0.2031
  827MOL0     H11606  12.025   7.638   8.849  0.5240 -3.9463 -3.1319
  827MOL0     H11607  12.410   7.885   8.673  0.6844  1.0565 -0.9342
  827MOL0     H11608  12.610   7.996   8.754  0.0121 -1.3923  0.6993
  827MOL0     H11609  12.741   7.884   9.024  0.7474 -1.5646 -2.1565
  827MOL0     H11610  12.796   7.976   8.879 -0.7260  0.2320 -0.0573
  827MOL0     H11611  12.849   8.061   9.172  0.0472 -0.8207 -0.2018
  827MOL0     H11612  12.955   7.942   9.102  0.4879  1.7347  3.5681
  827MOL0     H11613  13.040   8.124   8.951 -2.8237 -2.3795 -1.8122
  827MOL0     H11614  12.890   8.216   8.985 -1.0892 -2.3239 -1.7503
  827MOL0     H11615  13.111   8.134   9.187  2.2478  0.2978 -2.6347
  827MOL0     H11616  12.984   8.259   9.217 -0.6969 -0.9447  0.2611
  827MOL0     H11617  13.232   8.296   9.040  2.4235  3.8261 -0.1205
  827MOL0     H11618  13.217   8.352   9.199  0.4329 -0.1770 -0.6309
  827MOL0     H11619  13.192   8.521   9.043  0.0645  0.1351  2.2330
  827MOL0     H11620  13.061   8.450   8.964  0.5259 -3.5184  0.2248
  827MOL0     H11621  12.930   8.466   9.197 -0.6984 -0.0872 -2.2490
  827MOL0     H11622  12.962   8.615   9.108  2.0280  0.5620 -1.7104
  827MOL0     H11623  13.150   8.499   9.319  1.6862 -0.3047 -4.5957
  827MOL0     H11624  13.126   8.674   9.277  2.3344 -0.5248  2.2944
  827MOL0     H11625  12.422   8.047   9.145  1.1234  0.0524  0.2112
  827MOL0     H11626  12.227   7.960   9.053  0.0545  1.9285 -0.1266
  827MOL0     H11627  11.900   7.955   8.594  1.1165  0.5213  1.4949
  827MOL0     H11628  11.681   7.823   8.535 -0.6194  0.6095  0.2884
  827MOL0     H11629  10.016   7.596   9.366 -3.0128 -2.2536 -1.1782
  827MOL0     H11630   9.800   7.571   9.438  1.5504  1.1482 -1.8333
  827MOL0     H11631   9.450   7.683   9.726 -0.7192 -0.2935 -0.7664
  827MOL0     H11632   9.217   7.755   9.747  2.1505 -0.6257  0.4739
  827MOL0     H11633   9.043   7.879   9.780  0.6222  1.2527 -0.0966
  827MOL0     H11634   9.005   7.798   9.624  0.5496  1.0154 -3.2315
  827MOL0     H11635   8.897   8.044   9.596  0.2011  1.1299  0.7144
  827MOL0     H11636   8.883   8.009   9.768  0.3225  1.8524 -1.3328
  827MOL0     H11637   8.756   7.804   9.738 -1.0342  0.2985  0.3324
  827MOL0     H11638   8.800   7.813   9.563 -0.9625 -1.2556  1.4645
  827MOL0     H11639   8.603   8.014   9.709 -2.5310 -0.9718  0.1383
  827MOL0     H11640   8.640   8.005   9.535 -2.2496 -1.0764 -1.4301
  827MOL0     H11641   8.397   7.670   9.569 -0.5817  0.7480 -1.0408
  827MOL0     H11642   9.312   8.120   9.542 -1.3179 -0.2664  0.0943
  827MOL0     H11643   9.636   8.147   9.618  0.4565 -1.2923 -0.3027
  827MOL0     H11644   9.639   8.072   9.465  0.4333  0.5089  0.4628
  827MOL0     H11645   9.507   8.180   9.493 -1.1313 -1.5244 -3.0358
  828MOL0     O11646  10.566   8.709  10.729  0.1350 -0.8632 -0.5182
  828MOL0     C11647  10.541   8.830  10.750  0.6016  0.2472 -0.0977
  828MOL0     O11648  10.619   8.942  10.712 -0.5024 -0.2494  0.2352
  828MOL0     C11649  10.746   8.928  10.666 -0.2264  0.3436 -0.0376
  828MOL0     C11650  10.840   8.831  10.707 -0.3214 -0.3867 -0.7100
  828MOL0     C11651  10.970   8.819  10.655  0.1162  0.1599 -0.2332
  828MOL0     C11652  11.004   8.902  10.548 -0.1010  0.0087 -0.4087
  828MOL0     O11653  11.126   8.900  10.480  0.3367 -0.4481 -0.5774
  828MOL0     C11654  11.217   8.791  10.504 -0.5350 -0.6655 -0.2681
  828MOL0     C11655  11.339   8.796  10.411 -0.0099  0.1760 -0.5596
  828MOL0     C11656  11.434   8.916  10.455  0.0426  0.1701  0.2879
  828MOL0     C11657  11.552   8.921  10.360  0.0602  0.1168 -0.2922
  828MOL0     C11658  11.680   8.958  10.440  0.1893 -0.2398 -0.0861
  828MOL0     C11659  11.651   9.108  10.488  0.6613 -0.0949 -0.2181
  828MOL0     C11660  11.782   9.180  10.508  0.6122 -0.0570 -0.4441
  828MOL0     C11661  11.851   9.136  10.639  0.7813  0.1655  0.3219
  828MOL0     N11662  11.989   9.174  10.620 -0.1733 -0.9463 -0.3007
  828MOL0     C11663  12.035   9.309  10.633  0.3563 -0.0832  0.3120
  828MOL0     C11664  12.169   9.286  10.618 -1.0781 -0.1971  0.4372
  828MOL0     C11665  12.271   9.393  10.605  0.2632  0.2991  0.2042
  828MOL0     C11666  12.390   9.375  10.692  0.4421  0.6306  0.3894
  828MOL0     C11667  12.482   9.496  10.676  0.1148  0.7691  0.5252
  828MOL0     C11668  12.602   9.494  10.778 -0.2950  0.0978  0.9094
  828MOL0     O11669  12.666   9.618  10.751 -0.7917  0.2881  0.8961
  828MOL0     C11670  12.778   9.613  10.678  0.3812 -0.1548  0.2935
  828MOL0     C11671  12.899   9.578  10.741  0.1626 -1.3475  0.5477
  828MOL0     C11672  13.023   9.607  10.678  0.3049  0.2244 -0.0505
  828MOL0     C11673  13.021   9.642  10.539  0.5053  0.1409  0.2674
  828MOL0     C11674  13.147   9.673  10.465 -0.6785 -0.8132 -0.2171
  828MOL0     O11675  13.134   9.710  10.336  0.5338  0.0478  0.3790
  828MOL0     C11676  13.246   9.742  10.253 -0.0213  0.5117 -0.7988
  828MOL0     C11677  13.359   9.666  10.244  0.7814  0.2988 -0.2355
  828MOL0     C11678  13.463   9.704  10.160  0.2778 -0.2967  0.1297
  828MOL0     C11679  13.455   9.825  10.087 -0.2287 -0.2402 -0.3969
  828MOL0     O11680  13.561   9.857  10.011  0.7518  0.8450  0.5124
  828MOL0     C11681  13.575   9.999   9.974 -0.4257 -0.1348 -0.0061
  828MOL0     C11682  13.715  10.015   9.909  0.1241 -0.5987  0.3278
  828MOL0     C11683  13.714   9.993   9.754  0.4426  0.1678 -0.2936
  828MOL0     C11684  13.594  10.054   9.676 -0.0677 -0.1745 -0.5588
  828MOL0     C11685  13.625  10.059   9.524  0.2640  0.2253 -0.4967
  828MOL0     C11686  13.506  10.115   9.443  0.3255  0.2065 -0.5239
  828MOL0     C11687  13.495  10.274   9.462 -0.4989 -0.0425  0.4597
  828MOL0     C11688  13.400  10.350   9.360  0.0508 -0.2649 -0.2699
  828MOL0    Cl11689  13.385  10.513   9.428  0.1204 -0.1161 -0.1788
  828MOL0     C11690  13.335   9.898  10.093  0.9085  0.2461  0.5150
  828MOL0     C11691  13.231   9.858  10.174  0.2772 -0.0295 -1.0292
  828MOL0     O11692  13.257   9.667  10.530 -0.4814  0.7996  0.5784
  828MOL0     C11693  12.898   9.652  10.471  0.2379  0.7464  0.9713
  828MOL0     C11694  12.780   9.640  10.543  0.3026 -0.6640 -0.7433
  828MOL0     N11695  12.200   9.154  10.595 -0.2231 -0.3902  0.2449
  828MOL0     N11696  12.091   9.090  10.593 -0.4369 -0.2013  0.4988
  828MOL0     C11697  10.928   9.012  10.517  1.2098 -0.4885 -0.0688
  828MOL0     C11698  10.800   9.021  10.577  0.1922  0.2443 -0.8078
  828MOL0     C11699  10.407   8.867  10.812 -0.8601  0.1772 -0.1244
  828MOL0     C11700  10.365   8.776  10.905 -0.3175 -0.5451  0.6123
  828MOL0     C11701  10.243   8.790  10.971 -0.6808  0.4695  0.0474
  828MOL0     C11702  10.155   8.905  10.947  0.3591  0.0626 -0.6727
  828MOL0     O11703  10.038   8.909  11.018 -0.6429  0.1464 -0.8569
  828MOL0     C11704  10.005   9.037  11.074  0.0189 -0.2421 -0.5032
  828MOL0     C11705  10.013   9.021  11.222 -0.4901  0.3331 -0.3405
  828MOL0     C11706   9.900   8.945  11.288  0.6022 -0.1267 -0.0529
  828MOL0     C11707   9.907   8.789  11.276  0.4854 -0.0120  0.7475
  828MOL0     C11708  10.031   8.724  11.303  0.3045  0.3636  0.1749
  828MOL0     C11709  10.135   8.659  11.301 -0.0693  0.6901 -0.2903
  828MOL0     C11710  10.208   8.999  10.852  0.3840  0.4177  0.2435
  828MOL0     C11711  10.328   8.981  10.778  0.0824  0.7707  0.1407
  828MOL0     C11712  10.368   9.086  10.680 -0.0137  0.6194  0.1017
  828MOL0     H11713  10.805   8.756  10.777 -1.8335 -0.5861 -1.6360
  828MOL0     H11714  11.035   8.738  10.688 -1.0157 -0.1732  1.3099
  828MOL0     H11715  11.250   8.804  10.607  0.3304  2.3822 -0.8368
  828MOL0     H11716  11.165   8.695  10.496  0.5848 -1.4338  1.2971
  828MOL0     H11717  11.310   8.804  10.306 -0.6050 -0.7244 -0.4723
  828MOL0     H11718  11.392   8.701  10.412 -0.5470 -0.1418 -1.1491
  828MOL0     H11719  11.478   8.892  10.552  3.8613  1.5919 -0.9117
  828MOL0     H11720  11.390   9.016  10.465 -0.6209 -0.1471  0.6525
  828MOL0     H11721  11.560   8.818  10.323  0.0895 -1.4152  3.5570
  828MOL0     H11722  11.526   8.981  10.273 -0.1193 -0.6445 -0.7799
  828MOL0     H11723  11.706   8.896  10.525  0.9998 -0.4033 -0.4462
  828MOL0     H11724  11.767   8.951  10.374  1.4091  1.3827  1.2538
  828MOL0     H11725  11.589   9.159  10.414 -0.6117 -2.0436 -0.5951
  828MOL0     H11726  11.602   9.110  10.585  2.2962 -0.0218  0.6341
  828MOL0     H11727  11.758   9.286  10.517 -2.0068 -0.7201  1.8210
  828MOL0     H11728  11.848   9.174  10.421  1.6862 -0.0972  0.3676
  828MOL0     H11729  11.803   9.178  10.728 -0.0401 -0.2225  0.0681
  828MOL0     H11730  11.851   9.027  10.636  1.2354  0.1675  0.0772
  828MOL0     H11731  11.973   9.398  10.638 -0.1065 -0.3532 -0.4874
  828MOL0     H11732  12.326   9.384  10.511 -0.6550 -1.3841 -0.2281
  828MOL0     H11733  12.221   9.490  10.611 -4.9287 -1.6340 -3.9655
  828MOL0     H11734  12.357   9.365  10.796  1.2942 -0.4949  0.5663
  828MOL0     H11735  12.423   9.276  10.657  2.7411  1.2256  0.7204
  828MOL0     H11736  12.414   9.581  10.685 -1.1599 -0.0824 -0.5976
  828MOL0     H11737  12.521   9.506  10.574 -5.2050 -1.6552 -2.1767
  828MOL0     H11738  12.673   9.411  10.770 -1.0631 -0.3819 -3.1159
  828MOL0     H11739  12.556   9.486  10.876 -2.7714  2.7619  0.1247
  828MOL0     H11740  12.878   9.550  10.844 -3.2280  1.2011  0.7252
  828MOL0     H11741  13.108   9.597  10.744  1.7955  1.9467 -1.5976
  828MOL0     H11742  13.358   9.571  10.296  0.2554  1.6911  2.5027
  828MOL0     H11743  13.546   9.637  10.140 -0.7183 -1.8718  1.0225
  828MOL0     H11744  13.503  10.040   9.902  0.4664  1.7079  0.0858
  828MOL0     H11745  13.562  10.062  10.062 -1.3731  0.2909 -0.4321
  828MOL0     H11746  13.752  10.114   9.936 -3.5198  0.3232  2.6511
  828MOL0     H11747  13.783   9.942   9.952 -1.2475 -2.6426 -0.7736
  828MOL0     H11748  13.805  10.035   9.712 -0.5421 -0.3357 -3.1579
  828MOL0     H11749  13.709   9.887   9.727  1.2118 -0.1590  0.7819
  828MOL0     H11750  13.585  10.155   9.719  0.2046 -0.2409 -0.3461
  828MOL0     H11751  13.499  10.002   9.693  0.1032 -0.1250  0.6600
  828MOL0     H11752  13.663   9.964   9.485  1.8445  0.2699  0.8698
  828MOL0     H11753  13.710  10.127   9.526  1.6523 -1.3239  3.8113
  828MOL0     H11754  13.493  10.094   9.336 -2.0443  1.7511 -0.6191
  828MOL0     H11755  13.415  10.069   9.484  1.9901 -1.8462  1.0838
  828MOL0     H11756  13.598  10.307   9.448 -0.0533 -0.3367  2.7415
  828MOL0     H11757  13.458  10.289   9.564  1.3002 -1.7098  1.4092
  828MOL0     H11758  13.430  10.359   9.255 -0.6726  1.4091 -0.3615
  828MOL0     H11759  13.300  10.308   9.374 -0.6523  1.3079 -0.4163
  828MOL0     H11760  13.321   9.994  10.043 -2.0818  1.2459  2.9438
  828MOL0     H11761  13.142   9.919  10.176  1.6310  2.1453  2.5191
  828MOL0     H11762  12.892   9.684  10.368  0.0582 -2.7800 -0.2352
  828MOL0     H11763  12.681   9.658  10.501 -0.7398 -1.4750  1.2054
  828MOL0     H11764  10.945   9.083  10.437 -2.5560 -1.8309 -2.3250
  828MOL0     H11765  10.734   9.104  10.553  0.5064  0.1283 -2.1260
  828MOL0     H11766  10.424   8.689  10.931  3.2229  1.3489 -0.4495
  828MOL0     H11767  10.217   8.721  11.050 -2.9224  2.9412  1.6249
  828MOL0     H11768   9.903   9.061  11.044 -0.1730  1.5358  1.3865
  828MOL0     H11769  10.068   9.120  11.041 -1.9136  0.3216 -3.0922
  828MOL0     H11770  10.014   9.124  11.260 -0.3632  0.6902 -1.2906
  828MOL0     H11771  10.111   8.976  11.241  0.0261  1.8703  0.8877
  828MOL0     H11772   9.802   8.977  11.253 -0.5409 -2.6772  0.5950
  828MOL0     H11773   9.909   8.966  11.395 -2.7430 -2.2019  0.7669
  828MOL0     H11774   9.847   8.749  11.359 -0.0501 -0.1897  0.2779
  828MOL0     H11775   9.863   8.762  11.180  1.9245  0.6431 -0.1129
  828MOL0     H11776  10.214   8.589  11.282 -3.1394 -2.8026 -1.5412
  828MOL0     H11777  10.156   9.089  10.818  2.7511  2.5357  1.8869
  828MOL0     H11778  10.429   9.049  10.597 -1.4938 -0.6522 -0.4596
  828MOL0     H11779  10.285   9.143  10.636  0.9904 -0.4222 -3.3996
  828MOL0     H11780  10.418   9.162  10.741 -1.2804  1.0740  0.6212
  829MOL0     O11781   7.699   6.337   0.186  1.0166  0.8179 -1.0926
  829MOL0     C11782   7.784   6.266   0.249  0.1001 -0.0648  0.7322
  829MOL0     O11783   7.811   6.275   0.382 -0.2734  0.4695  0.1684
  829MOL0     C11784   7.756   6.379   0.453  0.2557  0.5141  0.0453
  829MOL0     C11785   7.791   6.510   0.426  0.1566  0.0969  0.0385
  829MOL0     C11786   7.758   6.615   0.517  0.1205 -0.4754  0.2771
  829MOL0     C11787   7.676   6.591   0.635  0.1046  0.6451  0.6437
  829MOL0     O11788   7.651   6.696   0.717 -0.5764 -0.4491  0.2933
  829MOL0     C11789   7.548   6.682   0.822 -0.2482 -0.6173  0.7376
  829MOL0     C11790   7.554   6.807   0.907  0.0684  0.1803 -0.5574
  829MOL0     C11791   7.418   6.818   0.990 -0.2487 -0.6685  0.5049
  829MOL0     C11792   7.435   6.912   1.106  0.1511  0.2994  0.2391
  829MOL0     C11793   7.434   7.056   1.054  0.0846 -0.6816  0.1588
  829MOL0     C11794   7.368   7.147   1.160 -0.5539  0.8927  0.6658
  829MOL0     C11795   7.360   7.289   1.107 -0.4326  0.4464 -0.4582
  829MOL0     C11796   7.322   7.388   1.210 -0.5488  0.3681  1.0557
  829MOL0     N11797   7.340   7.526   1.151 -1.1252  0.4964  0.6173
  829MOL0     C11798   7.454   7.589   1.100 -0.2320 -0.6965  0.1471
  829MOL0     C11799   7.420   7.703   1.051 -0.4966  0.8054  0.9530
  829MOL0     C11800   7.511   7.804   0.980 -0.1624 -0.7781  0.5777
  829MOL0     C11801   7.573   7.906   1.075  0.0764  0.2170  1.1371
  829MOL0     C11802   7.674   7.995   1.004 -0.2495  0.1318 -0.1506
  829MOL0     C11803   7.804   7.924   0.978 -0.1752  0.2854 -0.3188
  829MOL0     O11804   7.884   8.000   0.884 -0.4009  0.4509  0.2017
  829MOL0     C11805   8.017   7.955   0.866 -0.1447  1.2977  0.0713
  829MOL0     C11806   8.062   7.828   0.907 -0.3260 -0.4046 -0.1109
  829MOL0     C11807   8.200   7.800   0.926  0.0216  0.6663  0.0297
  829MOL0     C11808   8.296   7.894   0.879 -0.1973  0.1037  0.9426
  829MOL0     C11809   8.435   7.866   0.879  0.5743 -0.8051  0.0947
  829MOL0     O11810   8.521   7.961   0.914 -0.1052 -0.2608 -0.1759
  829MOL0     C11811   8.650   7.938   0.879  0.1146 -0.5788  0.7805
  829MOL0     C11812   8.731   7.863   0.957 -0.0467  0.0216 -0.4932
  829MOL0     C11813   8.860   7.825   0.917  0.9654  0.1944  0.1388
  829MOL0     C11814   8.914   7.881   0.799 -0.0748  0.4334  0.1564
  829MOL0     O11815   9.035   7.845   0.757 -0.5784 -0.7593 -0.1447
  829MOL0     C11816   9.121   7.927   0.681  0.2445 -0.0020 -0.3577
  829MOL0     C11817   9.254   7.874   0.703  0.2606 -0.0598 -0.1645
  829MOL0     C11818   9.352   7.967   0.635 -0.0578  0.2956 -0.4476
  829MOL0     C11819   9.495   7.935   0.670  0.3896 -0.1680 -0.2375
  829MOL0     C11820   9.539   8.019   0.790  0.2354  0.6861  0.3315
  829MOL0     C11821   9.691   7.987   0.819 -0.3878  0.8893 -0.2531
  829MOL0     C11822   9.735   8.060   0.947  0.2779  0.0888 -0.7301
  829MOL0     C11823   9.826   7.975   1.028  0.3739  0.1743 -0.0180
  829MOL0    Cl11824   9.973   7.929   0.928  0.1250 -0.4633  0.1137
  829MOL0     C11825   8.833   7.968   0.720  0.3773  0.1608 -1.0869
  829MOL0     C11826   8.706   7.990   0.759  0.4288 -0.9989  0.9352
  829MOL0     O11827   8.463   7.746   0.847 -0.4417  0.0303 -0.7738
  829MOL0     C11828   8.250   8.018   0.819  0.6634 -0.8012  0.0765
  829MOL0     C11829   8.109   8.046   0.824  0.2108  0.7314  0.0802
  829MOL0     N11830   7.279   7.710   1.056 -0.7013 -0.3828 -0.7600
  829MOL0     N11831   7.238   7.603   1.108  0.9942  0.0385 -0.1584
  829MOL0     C11832   7.638   6.457   0.652 -0.1982  0.4119  0.2609
  829MOL0     C11833   7.675   6.356   0.562 -0.5024 -0.2474 -0.1536
  829MOL0     C11834   7.860   6.164   0.172 -0.3015  0.2662 -0.3098
  829MOL0     C11835   7.939   6.076   0.252 -0.3019 -0.0051 -0.7175
  829MOL0     C11836   8.025   5.984   0.194  1.5165  0.0599 -0.0189
  829MOL0     C11837   8.043   5.976   0.057  0.2975 -0.9609  0.0387
  829MOL0     O11838   8.136   5.886   0.015  0.1064 -0.4650  0.6287
  829MOL0     C11839   8.174   5.874  -0.128 -0.0723  0.2100 -0.4446
  829MOL0     C11840   8.266   5.749  -0.134 -0.8527  0.3436  0.0258
  829MOL0     C11841   8.410   5.787  -0.179  0.0898 -0.2905  0.4092
  829MOL0     C11842   8.480   5.646  -0.207 -0.3356 -0.2860 -0.4256
  829MOL0     C11843   8.618   5.655  -0.253 -0.1883 -0.9800 -0.2980
  829MOL0     C11844   8.728   5.638  -0.296  0.1094 -0.0480  0.4991
  829MOL0     C11845   7.965   6.064  -0.025  0.1471 -0.0193  0.5878
  829MOL0     C11846   7.872   6.162   0.030 -0.4058  0.2248 -0.0748
  829MOL0     C11847   7.778   6.228  -0.064  0.8026 -0.4317  0.9162
  829MOL0     H11848   7.867   6.522   0.350 -0.9360 -0.9542 -1.2470
  829MOL0     H11849   7.796   6.716   0.499 -0.7684 -0.3809 -1.2670
  829MOL0     H11850   7.454   6.666   0.769  1.0155 -0.3393 -1.7627
  829MOL0     H11851   7.560   6.597   0.889 -0.8766  1.1550  3.2303
  829MOL0     H11852   7.553   6.892   0.837 -0.1989 -2.0554 -3.4487
  829MOL0     H11853   7.645   6.813   0.967  0.2154  0.8373 -0.8369
  829MOL0     H11854   7.400   6.723   1.040  2.4891 -1.3829  0.3147
  829MOL0     H11855   7.340   6.851   0.921  1.5712  3.6929  0.2191
  829MOL0     H11856   7.353   6.905   1.178  1.3335  1.5328  1.7549
  829MOL0     H11857   7.528   6.893   1.159  0.0548 -0.3611  0.1785
  829MOL0     H11858   7.533   7.091   1.023 -0.3085  0.1903 -0.1442
  829MOL0     H11859   7.377   7.056   0.961 -1.0773 -0.1726  0.8517
  829MOL0     H11860   7.265   7.111   1.166 -0.7525  1.0139 -1.3356
  829MOL0     H11861   7.419   7.134   1.256  0.1615 -1.7556  0.0154
  829MOL0     H11862   7.285   7.290   1.028  1.7021 -0.7645 -2.6268
  829MOL0     H11863   7.457   7.316   1.063  0.0727  1.7227  1.3229
  829MOL0     H11864   7.216   7.373   1.234 -0.5330 -2.7215 -0.2537
  829MOL0     H11865   7.394   7.369   1.290  1.9540 -1.0494 -1.3547
  829MOL0     H11866   7.552   7.544   1.116  0.6420  1.0391 -0.0680
  829MOL0     H11867   7.584   7.749   0.919  0.1180  0.2147 -0.0089
  829MOL0     H11868   7.456   7.857   0.901 -0.2683 -0.2266  1.0160
  829MOL0     H11869   7.492   7.966   1.117  0.7709  1.8638  0.2564
  829MOL0     H11870   7.624   7.851   1.154 -0.5899 -1.4678  0.4483
  829MOL0     H11871   7.691   8.073   1.079 -0.1785  0.3000 -0.3421
  829MOL0     H11872   7.635   8.045   0.914 -2.2178 -0.9070  0.0749
  829MOL0     H11873   7.798   7.820   0.944 -0.2782 -0.9417  3.0660
  829MOL0     H11874   7.848   7.918   1.078 -1.0311  0.0850  0.0553
  829MOL0     H11875   8.000   7.740   0.923  0.9024 -0.8220  3.0958
  829MOL0     H11876   8.229   7.710   0.980 -2.3965 -0.7663 -0.9222
  829MOL0     H11877   8.687   7.818   1.046  0.1039 -0.4415 -0.6521
  829MOL0     H11878   8.910   7.747   0.973  1.0247 -0.1347 -0.3697
  829MOL0     H11879   9.091   7.934   0.576 -0.2615  2.7246 -0.0974
  829MOL0     H11880   9.124   8.034   0.703  2.3445 -0.6051  2.9839
  829MOL0     H11881   9.258   7.869   0.812 -0.6430 -0.2364 -0.1335
  829MOL0     H11882   9.257   7.769   0.671  1.6435 -0.1068  0.0468
  829MOL0     H11883   9.349   7.937   0.530 -0.3980  0.7994 -0.5868
  829MOL0     H11884   9.326   8.073   0.644  0.8302  0.4200  1.0941
  829MOL0     H11885   9.557   7.967   0.585  1.0609  2.6513  1.1695
  829MOL0     H11886   9.497   7.826   0.676 -3.5765 -0.5315 -2.2742
  829MOL0     H11887   9.483   7.994   0.880 -1.7956 -0.4514 -1.1709
  829MOL0     H11888   9.539   8.124   0.761  0.2463  0.3250 -1.0816
  829MOL0     H11889   9.698   7.879   0.829 -3.2001  0.6865  0.5703
  829MOL0     H11890   9.747   8.008   0.727 -0.2567  3.9898  0.4090
  829MOL0     H11891   9.650   8.081   1.014 -0.9704  0.3491 -2.3442
  829MOL0     H11892   9.781   8.153   0.914  0.2423  0.7403  0.9250
  829MOL0     H11893   9.854   8.021   1.123 -3.1002 -0.2280  1.3616
  829MOL0     H11894   9.770   7.884   1.050  0.2687 -0.5144 -2.6797
  829MOL0     H11895   8.870   8.016   0.631  0.4098 -0.5167 -1.4474
  829MOL0     H11896   8.645   8.057   0.698 -2.2647 -1.7808  2.5839
  829MOL0     H11897   8.317   8.093   0.778 -0.0678  0.7878  1.6649
  829MOL0     H11898   8.068   8.140   0.789 -0.5044  0.0194 -1.0254
  829MOL0     H11899   7.570   6.430   0.733 -1.6116  0.7646 -0.7601
  829MOL0     H11900   7.629   6.261   0.588 -1.2533 -0.1668 -1.1477
  829MOL0     H11901   7.932   6.091   0.359  0.5538  1.3004 -0.8175
  829MOL0     H11902   8.083   5.923   0.263  1.1233  0.9963  1.1801
  829MOL0     H11903   8.235   5.962  -0.151 -0.2753  0.1695 -1.1506
  829MOL0     H11904   8.090   5.868  -0.198 -1.2832  1.4249  0.8564
  829MOL0     H11905   8.225   5.679  -0.208 -2.3807 -1.4672  2.4600
  829MOL0     H11906   8.277   5.690  -0.043  1.1146 -0.1854 -0.5000
  829MOL0     H11907   8.458   5.844  -0.099 -0.1153 -0.9529  1.0122
  829MOL0     H11908   8.416   5.843  -0.273 -0.7444  0.3383  0.7143
  829MOL0     H11909   8.489   5.586  -0.116  2.6741  0.5877 -0.0534
  829MOL0     H11910   8.431   5.579  -0.278  1.7470 -3.2521  0.7526
  829MOL0     H11911   8.824   5.619  -0.339  0.8037 -0.4119  2.1256
  829MOL0     H11912   7.983   6.067  -0.132 -1.4646 -0.9048  0.2560
  829MOL0     H11913   7.776   6.175  -0.159  0.5660  1.3148 -0.0942
  829MOL0     H11914   7.674   6.221  -0.031 -0.1278 -1.3188 -1.9663
  829MOL0     H11915   7.804   6.334  -0.074 -2.0524  0.1945 -1.0192
  830MOL0     O11916   0.609   6.425   7.985  0.2558 -0.8152  0.0129
  830MOL0     C11917   0.621   6.487   8.090 -0.1102  0.1681  0.6355
  830MOL0     O11918   0.748   6.527   8.137  0.0266 -0.7118 -0.0213
  830MOL0     C11919   0.869   6.492   8.077  0.5531  0.7697  0.6107
  830MOL0     C11920   0.908   6.361   8.037 -0.0294  0.9721 -0.3865
  830MOL0     C11921   1.036   6.328   7.997  0.7054 -0.5893  0.6047
  830MOL0     C11922   1.134   6.423   7.994 -0.2306 -0.5360  0.0863
  830MOL0     O11923   1.264   6.402   7.967 -0.4361  0.1652  0.0562
  830MOL0     C11924   1.314   6.281   7.905 -0.4299  0.4404 -0.6684
  830MOL0     C11925   1.304   6.282   7.753  0.4046 -0.3931 -0.0716
  830MOL0     C11926   1.446   6.305   7.699 -0.2166 -0.1773  0.6153
  830MOL0     C11927   1.464   6.268   7.550 -0.0177 -0.9496  0.4278
  830MOL0     C11928   1.598   6.310   7.484  0.3854 -0.0432  0.3354
  830MOL0     C11929   1.620   6.462   7.483 -0.4106 -0.3416  0.0944
  830MOL0     C11930   1.762   6.516   7.462  0.3646 -0.9899  0.2033
  830MOL0     C11931   1.759   6.666   7.439 -0.3367  1.0366 -0.4383
  830MOL0     N11932   1.890   6.718   7.385 -0.5929  0.0177 -0.5217
  830MOL0     C11933   1.923   6.751   7.256  0.3227  0.3877 -0.3099
  830MOL0     C11934   2.050   6.810   7.273  0.6870  0.2766 -0.4341
  830MOL0     C11935   2.130   6.865   7.158  0.1600 -0.0403  0.0069
  830MOL0     C11936   2.266   6.918   7.211 -0.3316 -0.2533 -0.4188
  830MOL0     C11937   2.358   6.990   7.113  0.3880 -0.2508 -0.0548
  830MOL0     C11938   2.475   7.056   7.178 -0.3154 -0.5019 -0.2641
  830MOL0     O11939   2.591   6.985   7.137 -0.0926  0.3605 -0.2816
  830MOL0     C11940   2.709   7.050   7.155 -0.8342 -0.2800 -0.5104
  830MOL0     C11941   2.730   7.153   7.237  0.0294 -0.1980 -0.7399
  830MOL0     C11942   2.860   7.211   7.244  0.0806  0.1466  0.2373
  830MOL0     C11943   2.963   7.161   7.158 -0.4436 -0.3029  0.1857
  830MOL0     C11944   3.100   7.225   7.163 -0.7729  0.2326 -1.0407
  830MOL0     O11945   3.205   7.153   7.119 -0.1991 -0.1942  0.8596
  830MOL0     C11946   3.325   7.220   7.092 -0.2527 -0.3766 -0.3937
  830MOL0     C11947   3.395   7.280   7.192  0.3204 -0.0946 -0.4959
  830MOL0     C11948   3.519   7.346   7.159  0.3533  0.7896  0.0684
  830MOL0     C11949   3.560   7.342   7.029 -0.0402 -0.1209  0.4603
  830MOL0     O11950   3.655   7.427   6.988 -0.1417 -0.0458  0.2913
  830MOL0     C11951   3.788   7.371   6.967  0.0148  0.2232  0.4883
  830MOL0     C11952   3.892   7.468   7.029 -0.4440 -0.2421 -1.0729
  830MOL0     C11953   4.029   7.398   7.023 -0.7057  0.0892  0.2426
  830MOL0     C11954   4.088   7.381   6.891  1.0372  0.1204 -0.1416
  830MOL0     C11955   4.243   7.379   6.881  0.1115  0.2005  0.1770
  830MOL0     C11956   4.297   7.354   6.736  0.4038  0.0697  0.7969
  830MOL0     C11957   4.433   7.420   6.719  0.0774  0.4794 -0.6862
  830MOL0     C11958   4.456   7.442   6.569  0.0363 -0.0830  0.2870
  830MOL0    Cl11959   4.461   7.276   6.494 -0.4323  0.4125 -0.6402
  830MOL0     C11960   3.500   7.271   6.930  0.0626 -0.1371 -0.8612
  830MOL0     C11961   3.388   7.208   6.965 -0.2161  0.0169  0.6509
  830MOL0     O11962   3.113   7.337   7.212  0.0613  0.3877 -0.0394
  830MOL0     C11963   2.943   7.049   7.081  0.1482 -0.0379  0.1477
  830MOL0     C11964   2.816   6.996   7.079 -0.0619  0.2946  0.2711
  830MOL0     N11965   2.084   6.810   7.401  0.2028  0.1548  0.6115
  830MOL0     N11966   1.985   6.754   7.474  0.8815 -0.8065  0.1924
  830MOL0     C11967   1.099   6.550   8.043  0.0168  0.1440  0.3875
  830MOL0     C11968   0.972   6.579   8.085  0.7149 -0.5696 -0.2105
  830MOL0     C11969   0.498   6.502   8.168  0.2070  0.4614  0.2170
  830MOL0     C11970   0.514   6.530   8.299  0.6369 -0.6231 -0.8167
  830MOL0     C11971   0.412   6.563   8.386  0.2568 -0.3784 -0.5283
  830MOL0     C11972   0.279   6.562   8.333  0.5979 -0.7157 -1.3652
  830MOL0     O11973   0.180   6.596   8.427  0.3960  0.2555  0.1255
  830MOL0     C11974   0.046   6.601   8.383  0.0520 -0.3015 -0.8093
  830MOL0     C11975  -0.043   6.620   8.506 -0.3222 -0.3833  0.3615
  830MOL0     C11976  -0.190   6.629   8.477 -0.0407  0.1114  0.4278
  830MOL0     C11977  -0.281   6.616   8.599 -0.1966 -0.1419 -1.5343
  830MOL0     C11978  -0.412   6.548   8.577  0.2579  0.1906  0.1002
  830MOL0     C11979  -0.524   6.498   8.562  0.7063 -0.5209  1.5993
  830MOL0     C11980   0.255   6.531   8.202 -1.2399 -0.1364 -0.4377
  830MOL0     C11981   0.368   6.498   8.125  0.8549 -0.4154 -0.7951
  830MOL0     C11982   0.327   6.459   7.990  0.1493  0.6301 -0.2866
  830MOL0     H11983   0.828   6.288   8.033  0.4613  0.3976  0.0547
  830MOL0     H11984   1.062   6.225   7.972 -2.6023 -1.2756 -0.5777
  830MOL0     H11985   1.417   6.268   7.938 -1.8447 -1.1712  3.8515
  830MOL0     H11986   1.268   6.190   7.947  2.0020 -0.7171 -0.3650
  830MOL0     H11987   1.243   6.364   7.713 -0.4587  0.4897  2.8030
  830MOL0     H11988   1.270   6.184   7.719  0.9632 -0.7299  0.3369
  830MOL0     H11989   1.529   6.258   7.753 -0.7788  0.6835  2.2954
  830MOL0     H11990   1.456   6.413   7.709 -1.1639 -0.2742  3.6775
  830MOL0     H11991   1.454   6.160   7.543 -0.1373 -0.8259 -2.2825
  830MOL0     H11992   1.379   6.316   7.500  0.4547 -0.7871 -0.2233
  830MOL0     H11993   1.690   6.271   7.529  0.9925  0.9454 -0.0059
  830MOL0     H11994   1.612   6.271   7.383  1.9231  0.6715  0.2352
  830MOL0     H11995   1.562   6.511   7.404  2.6231  0.7011 -1.6311
  830MOL0     H11996   1.599   6.504   7.582  1.6630 -0.4202  0.6064
  830MOL0     H11997   1.815   6.467   7.379 -1.4499  0.2442 -1.7999
  830MOL0     H11998   1.819   6.505   7.555 -3.1799  0.9851  2.8598
  830MOL0     H11999   1.685   6.671   7.359  1.1654 -0.1860 -1.9881
  830MOL0     H12000   1.723   6.722   7.526 -0.2945  0.3442  0.0274
  830MOL0     H12001   1.875   6.736   7.160  3.0969 -2.4931 -1.4371
  830MOL0     H12002   2.154   6.789   7.083 -1.3347 -2.0638  1.4857
  830MOL0     H12003   2.069   6.942   7.110  0.4303 -1.0664 -2.1234
  830MOL0     H12004   2.237   6.995   7.284  0.3322 -0.0047 -0.4111
  830MOL0     H12005   2.332   6.840   7.250  0.8368 -1.6723 -4.7065
  830MOL0     H12006   2.294   7.059   7.058 -0.7608 -0.0037  1.5371
  830MOL0     H12007   2.393   6.922   7.034  0.7376 -1.9105  1.4723
  830MOL0     H12008   2.468   7.072   7.286  2.1723  0.1050 -0.1392
  830MOL0     H12009   2.479   7.159   7.141 -1.6008  0.6533  2.5599
  830MOL0     H12010   2.663   7.187   7.314  1.6580 -1.2023  1.2317
  830MOL0     H12011   2.888   7.291   7.311 -1.2153 -0.5225  1.6295
  830MOL0     H12012   3.346   7.292   7.287 -0.7725  2.2605 -1.2784
  830MOL0     H12013   3.567   7.423   7.219  0.5720  1.6463 -1.1575
  830MOL0     H12014   3.790   7.272   7.014  1.3870  0.1348  0.2916
  830MOL0     H12015   3.809   7.356   6.860  2.1235 -0.4685  0.9524
  830MOL0     H12016   3.893   7.568   6.985  1.2821  0.2081 -0.1020
  830MOL0     H12017   3.863   7.488   7.132 -1.1580 -4.5815 -0.2272
  830MOL0     H12018   4.104   7.442   7.089 -0.2081  1.8568 -1.4146
  830MOL0     H12019   4.006   7.297   7.061  1.9584 -0.7276 -0.1007
  830MOL0     H12020   4.057   7.459   6.822 -2.2697 -1.5594 -0.7704
  830MOL0     H12021   4.051   7.288   6.846 -0.7585  0.5177  0.4352
  830MOL0     H12022   4.293   7.310   6.951 -1.0203 -0.9438 -0.1161
  830MOL0     H12023   4.273   7.481   6.906  0.0668  0.9125 -2.4362
  830MOL0     H12024   4.306   7.246   6.725 -0.8501 -0.1833  1.9119
  830MOL0     H12025   4.225   7.400   6.667 -0.5758 -2.1848  0.2407
  830MOL0     H12026   4.495   7.352   6.777 -1.8720 -1.1907 -0.4262
  830MOL0     H12027   4.433   7.516   6.771  3.1739  0.7007 -0.9570
  830MOL0     H12028   4.369   7.499   6.534 -0.9201 -1.6512 -0.0093
  830MOL0     H12029   4.542   7.505   6.545 -0.8932  1.0327 -0.2458
  830MOL0     H12030   3.545   7.255   6.833 -2.8570 -0.9065 -2.1908
  830MOL0     H12031   3.339   7.148   6.889  0.1955 -1.0018  1.1769
  830MOL0     H12032   3.020   6.998   7.024 -0.7483 -0.5348 -0.6496
  830MOL0     H12033   2.793   6.906   7.023  1.3470 -1.7874  2.8041
  830MOL0     H12034   1.180   6.621   8.052  0.5773 -0.3463 -0.6019
  830MOL0     H12035   0.949   6.679   8.121 -0.9971  0.1038 -2.9139
  830MOL0     H12036   0.611   6.538   8.346  1.2084 -0.9265 -1.9158
  830MOL0     H12037   0.423   6.592   8.490  0.3338  0.7778 -0.8407
  830MOL0     H12038   0.022   6.507   8.332  0.0069 -0.6419 -0.1691
  830MOL0     H12039   0.039   6.680   8.307  1.2449 -1.3641 -2.0692
  830MOL0     H12040  -0.008   6.713   8.551  0.5200 -1.4724  2.0861
  830MOL0     H12041  -0.014   6.538   8.574  1.8411  0.5116  0.5990
  830MOL0     H12042  -0.217   6.552   8.404  1.1175  0.2387 -0.1641
  830MOL0     H12043  -0.206   6.727   8.431  1.5838  2.6711  4.7327
  830MOL0     H12044  -0.221   6.559   8.672 -1.0123  1.0680  0.1495
  830MOL0     H12045  -0.293   6.715   8.644  3.5320  0.5230 -1.7042
  830MOL0     H12046  -0.628   6.476   8.554  0.4645  1.1598 -1.0556
  830MOL0     H12047   0.152   6.525   8.168 -1.5231  0.6450  0.2535
  830MOL0     H12048   0.363   6.520   7.906 -0.4557  0.9785 -0.3007
  830MOL0     H12049   0.344   6.352   7.975  1.0146  0.8888 -1.2506
  830MOL0     H12050   0.222   6.476   7.961  0.3990 -0.8179 -2.3075
  831MOL0     O12051   4.054   8.944   8.056 -0.2160  0.5704 -0.2269
  831MOL0     C12052   3.975   9.015   8.114 -0.5037 -0.0843 -0.4218
  831MOL0     O12053   4.018   9.113   8.201  0.1157  0.0326 -0.7555
  831MOL0     C12054   4.151   9.149   8.227 -0.8611 -0.6591  0.2119
  831MOL0     C12055   4.263   9.134   8.138  0.7194 -0.8206 -0.6427
  831MOL0     C12056   4.393   9.166   8.178 -0.2108  0.2612 -0.5128
  831MOL0     C12057   4.422   9.222   8.305  0.2522 -0.3466 -0.2365
  831MOL0     O12058   4.539   9.258   8.363 -0.5172  0.2789  0.1576
  831MOL0     C12059   4.658   9.223   8.287 -1.2336  0.5901  0.6272
  831MOL0     C12060   4.790   9.249   8.369  0.2133 -0.1460 -0.0703
  831MOL0     C12061   4.904   9.220   8.274 -0.4786  0.1656 -0.2830
  831MOL0     C12062   5.045   9.216   8.345 -0.2886  0.3889  0.4595
  831MOL0     C12063   5.068   9.083   8.413  0.1575  0.0339  0.5329
  831MOL0     C12064   5.172   9.010   8.331  0.3253  0.1295  0.1003
  831MOL0     C12065   5.219   8.884   8.408 -0.5285 -0.6404 -0.1088
  831MOL0     C12066   5.325   8.798   8.339 -0.1187  0.4051  0.5858
  831MOL0     N12067   5.255   8.718   8.234  0.0637  0.1597  0.0890
  831MOL0     C12068   5.173   8.606   8.244 -0.3601 -0.8130 -0.0071
  831MOL0     C12069   5.106   8.593   8.133  0.2159 -0.8171  0.0715
  831MOL0     C12070   5.005   8.479   8.117  0.2840 -0.0045 -0.2014
  831MOL0     C12071   5.042   8.366   8.014 -0.7738  0.5922  0.9831
  831MOL0     C12072   5.034   8.417   7.873  0.1698 -0.1173 -1.1852
  831MOL0     C12073   5.063   8.295   7.775 -0.3090 -0.9043  0.8683
  831MOL0     O12074   4.984   8.320   7.662  0.6174  0.2289 -0.4991
  831MOL0     C12075   4.841   8.322   7.655 -0.1270 -0.9925  0.3226
  831MOL0     C12076   4.782   8.367   7.529 -0.3480 -0.3683 -0.6053
  831MOL0     C12077   4.652   8.340   7.504 -0.0083 -0.3742  0.0201
  831MOL0     C12078   4.567   8.271   7.594 -0.4828  0.3614 -0.6870
  831MOL0     C12079   4.426   8.239   7.562  0.2736 -0.7033 -0.5600
  831MOL0     O12080   4.386   8.116   7.604  0.3452  0.1152 -0.9041
  831MOL0     C12081   4.258   8.071   7.573  0.0774 -0.5670  0.0930
  831MOL0     C12082   4.214   8.026   7.447  0.1966  0.0245 -0.1496
  831MOL0     C12083   4.082   7.962   7.432 -0.1616  0.2036 -0.1682
  831MOL0     C12084   4.003   7.949   7.552 -0.1550  0.8583 -0.3151
  831MOL0     O12085   3.880   7.891   7.563 -0.4904  0.1668 -0.2812
  831MOL0     C12086   3.780   7.910   7.458 -0.1439 -0.0859  0.7766
  831MOL0     C12087   3.764   7.782   7.378  0.4249  0.3376 -0.0263
  831MOL0     C12088   3.699   7.675   7.470  1.0186 -0.7882  0.4965
  831MOL0     C12089   3.552   7.685   7.446  0.9798  0.3233  0.2014
  831MOL0     C12090   3.468   7.605   7.545  0.1967 -0.0459 -0.2466
  831MOL0     C12091   3.330   7.577   7.480  0.0103  0.1236 -0.5824
  831MOL0     C12092   3.236   7.691   7.460 -0.2076 -0.0873 -0.4201
  831MOL0     C12093   3.099   7.648   7.428  0.8125  0.0434  0.3300
  831MOL0    Cl12094   3.008   7.786   7.394  0.0857 -0.0937  0.1247
  831MOL0     C12095   4.052   7.996   7.676  0.7011 -0.1374 -0.8568
  831MOL0     C12096   4.172   8.062   7.685  0.9549  0.4686 -0.5238
  831MOL0     O12097   4.356   8.315   7.496 -0.4766  0.2301  0.0050
  831MOL0     C12098   4.624   8.238   7.721 -0.2571  0.3674  0.2166
  831MOL0     C12099   4.760   8.264   7.749  0.0427  0.4502  0.2788
  831MOL0     N12100   5.152   8.691   8.044  0.0460 -0.3759 -0.0974
  831MOL0     N12101   5.247   8.760   8.108  0.0478  0.6758  0.4352
  831MOL0     C12102   4.306   9.240   8.388 -0.0479  0.4399 -0.1548
  831MOL0     C12103   4.176   9.210   8.349 -0.4840  0.5663  0.0570
  831MOL0     C12104   3.834   9.009   8.075  1.0217  0.1609 -0.1685
  831MOL0     C12105   3.790   8.945   7.960  0.6813 -0.0334  0.6762
  831MOL0     C12106   3.657   8.941   7.914 -0.0247 -0.1830  0.0072
  831MOL0     C12107   3.558   8.994   7.990  0.1062  0.0041 -0.0282
  831MOL0     O12108   3.431   8.977   7.940  0.5457  0.1064  0.0112
  831MOL0     C12109   3.319   9.059   7.990 -0.0950  0.7079  0.0782
  831MOL0     C12110   3.198   9.020   7.905 -0.6933  0.1518 -0.4366
  831MOL0     C12111   3.156   8.873   7.948 -0.2760  0.4636  0.6068
  831MOL0     C12112   3.021   8.835   7.884  0.0332  0.8778 -0.1410
  831MOL0     C12113   2.915   8.901   7.961 -0.2314  0.7563  0.7629
  831MOL0     C12114   2.824   8.949   8.011 -0.3701 -0.0961  0.0874
  831MOL0     C12115   3.594   9.054   8.114 -0.2620  0.4370  1.3265
  831MOL0     C12116   3.731   9.072   8.147  1.0805  1.2426  0.1336
  831MOL0     C12117   3.754   9.148   8.273  0.2831 -0.2283  1.0336
  831MOL0     H12118   4.237   9.095   8.040 -0.8584  2.6486 -1.7775
  831MOL0     H12119   4.469   9.138   8.107  1.1034 -1.4553  1.4487
  831MOL0     H12120   4.666   9.120   8.252 -0.1018  1.6948 -2.7966
  831MOL0     H12121   4.660   9.291   8.201  3.6077 -0.6913 -0.5715
  831MOL0     H12122   4.792   9.182   8.455 -2.0929  0.9740  0.9315
  831MOL0     H12123   4.813   9.345   8.417  0.7007 -1.0338  1.5543
  831MOL0     H12124   4.907   9.285   8.186  2.9549 -1.0486 -1.2464
  831MOL0     H12125   4.902   9.124   8.220  0.9789  0.7601 -1.4673
  831MOL0     H12126   5.129   9.240   8.279 -1.5290 -1.0705 -1.8072
  831MOL0     H12127   5.045   9.285   8.429  2.9827  0.5002  0.4828
  831MOL0     H12128   5.108   9.102   8.513  0.9821  1.5631 -0.0538
  831MOL0     H12129   4.971   9.034   8.431 -0.5414  0.5957 -1.4273
  831MOL0     H12130   5.124   8.967   8.243 -0.0487 -1.4329  1.0263
  831MOL0     H12131   5.261   9.068   8.306  0.7820 -1.7215 -3.0257
  831MOL0     H12132   5.130   8.822   8.421 -1.0251 -0.4156 -2.1485
  831MOL0     H12133   5.255   8.916   8.506  0.0119  0.0095 -0.5072
  831MOL0     H12134   5.406   8.866   8.313  0.5508 -0.1047  1.3188
  831MOL0     H12135   5.370   8.726   8.408  0.2734  0.0180 -0.0610
  831MOL0     H12136   5.159   8.544   8.332  0.0376 -0.5223  0.2629
  831MOL0     H12137   5.003   8.419   8.208  0.5149 -0.0889 -0.2522
  831MOL0     H12138   4.910   8.525   8.087  1.0762  1.5059 -0.4991
  831MOL0     H12139   5.143   8.333   8.039 -0.6321  1.0873  1.0709
  831MOL0     H12140   4.973   8.281   8.021  1.1618 -1.0531  0.7132
  831MOL0     H12141   5.114   8.490   7.857 -1.7987  2.8128  1.1860
  831MOL0     H12142   4.933   8.456   7.858 -0.5276 -1.2259  0.3679
  831MOL0     H12143   5.035   8.195   7.810  1.4483 -1.8789 -0.3923
  831MOL0     H12144   5.169   8.286   7.753 -0.7044 -3.8185 -0.2601
  831MOL0     H12145   4.851   8.406   7.455 -0.7269  1.5967  0.0285
  831MOL0     H12146   4.604   8.375   7.413 -2.0183 -0.8746  0.8367
  831MOL0     H12147   4.287   8.034   7.368  0.9156  2.4816  0.6903
  831MOL0     H12148   4.035   7.924   7.342 -1.9497 -0.5494  1.0187
  831MOL0     H12149   3.687   7.948   7.501 -1.3537  2.3368 -3.4022
  831MOL0     H12150   3.808   7.990   7.389  2.0591 -0.4778  1.1647
  831MOL0     H12151   3.701   7.808   7.292 -1.4820  0.7150  1.3975
  831MOL0     H12152   3.864   7.753   7.347  0.4090  2.3635 -2.2442
  831MOL0     H12153   3.735   7.577   7.437 -0.1640 -1.3883  0.9393
  831MOL0     H12154   3.728   7.687   7.575 -0.7203 -1.6648  1.1061
  831MOL0     H12155   3.539   7.651   7.343 -0.9792  0.7601  0.2613
  831MOL0     H12156   3.519   7.790   7.451  1.4111  0.6547 -2.5047
  831MOL0     H12157   3.458   7.653   7.642  0.5674 -0.9053  0.2267
  831MOL0     H12158   3.520   7.512   7.568 -2.3486 -1.9665 -1.6571
  831MOL0     H12159   3.349   7.528   7.384  1.3216 -2.5012  0.8945
  831MOL0     H12160   3.281   7.505   7.545 -0.5067  1.0944  0.1366
  831MOL0     H12161   3.274   7.754   7.380  0.5102 -3.1715 -2.6904
  831MOL0     H12162   3.236   7.748   7.553 -1.0785  0.0955 -0.5175
  831MOL0     H12163   3.101   7.581   7.342  0.3065  0.1352  0.2461
  831MOL0     H12164   3.055   7.587   7.507 -1.4705  0.2289 -0.7198
  831MOL0     H12165   3.999   7.985   7.770 -2.4982  0.0314 -2.4943
  831MOL0     H12166   4.203   8.083   7.787 -0.5842 -0.5241  0.1924
  831MOL0     H12167   4.564   8.194   7.800  1.5848 -2.2854  0.2751
  831MOL0     H12168   4.796   8.235   7.847 -0.2840 -0.0923  0.2409
  831MOL0     H12169   4.323   9.293   8.481  1.6289 -0.0552 -0.1611
  831MOL0     H12170   4.094   9.221   8.420  0.3086  0.1214  1.0782
  831MOL0     H12171   3.868   8.893   7.905  0.9369  0.1705  0.8426
  831MOL0     H12172   3.633   8.880   7.827  0.1903 -1.5616  0.8809
  831MOL0     H12173   3.341   9.164   7.971  1.1648  0.1924 -1.4988
  831MOL0     H12174   3.293   9.039   8.095 -1.5391 -0.7858 -0.5064
  831MOL0     H12175   3.220   9.024   7.798 -0.4667 -1.4305 -0.4611
  831MOL0     H12176   3.107   9.080   7.918 -2.2870 -2.2685  0.1053
  831MOL0     H12177   3.151   8.861   8.057  0.8803  1.4122  0.7815
  831MOL0     H12178   3.229   8.796   7.921 -0.1425  0.2029  1.6623
  831MOL0     H12179   3.004   8.855   7.778 -2.1827 -1.1348 -0.2644
  831MOL0     H12180   3.013   8.727   7.902 -2.9460  1.1242  0.5023
  831MOL0     H12181   2.740   8.989   8.063 -0.4984 -2.3588  1.7902
  831MOL0     H12182   3.516   9.091   8.180 -0.5004 -1.3816  2.1040
  831MOL0     H12183   3.781   9.074   8.349 -0.5224  0.9486  2.5182
  831MOL0     H12184   3.835   9.221   8.258  2.5567 -2.8215 -0.2962
  831MOL0     H12185   3.660   9.190   8.308 -0.7938 -0.9589 -0.8229
  832MOL0     O12186   9.088   6.057   3.208  0.0972 -0.1848  0.2269
  832MOL0     C12187   9.105   6.036   3.087  0.1710  0.5125 -0.5950
  832MOL0     O12188   9.227   6.025   3.025 -0.8585 -0.3248 -0.2610
  832MOL0     C12189   9.333   6.011   3.112  0.2603  0.4110 -0.8635
  832MOL0     C12190   9.429   5.907   3.085 -1.0281 -0.5180 -0.3758
  832MOL0     C12191   9.548   5.897   3.165 -0.5328  0.4230  0.3097
  832MOL0     C12192   9.580   5.995   3.258 -0.5443 -0.1105 -0.3297
  832MOL0     O12193   9.700   5.992   3.328  0.2564 -0.2157 -0.9112
  832MOL0     C12194   9.782   5.878   3.318 -0.9568  1.1336 -0.4923
  832MOL0     C12195   9.909   5.904   3.389 -0.1765  0.1046 -0.6058
  832MOL0     C12196  10.004   5.791   3.360 -1.0630  0.7011 -0.1008
  832MOL0     C12197  10.139   5.802   3.434  0.0976 -0.3222  0.9251
  832MOL0     C12198  10.244   5.703   3.380 -0.3712 -0.9062  0.0651
  832MOL0     C12199  10.385   5.744   3.410 -0.2186 -0.0764 -0.0124
  832MOL0     C12200  10.482   5.627   3.411 -0.1333  0.0051  0.3751
  832MOL0     C12201  10.626   5.674   3.421  0.0177 -0.0005  0.3348
  832MOL0     N12202  10.726   5.585   3.351  0.4137 -0.0609  0.0136
  832MOL0     C12203  10.844   5.624   3.305  0.3728 -0.0785 -1.1960
  832MOL0     C12204  10.877   5.528   3.208  0.7535 -0.0820 -0.4208
  832MOL0     C12205  10.999   5.531   3.122  0.6081  0.1314 -0.1176
  832MOL0     C12206  11.124   5.495   3.199  0.5402 -0.5521  0.0887
  832MOL0     C12207  11.241   5.513   3.099 -0.6950  0.7961 -0.1392
  832MOL0     C12208  11.360   5.426   3.151  0.6212  0.0877 -0.6126
  832MOL0     O12209  11.462   5.425   3.057 -0.1501 -0.4735 -0.0422
  832MOL0     C12210  11.571   5.342   3.071  0.5370  0.0118  0.2751
  832MOL0     C12211  11.604   5.273   3.182  1.3670  0.1886 -0.2427
  832MOL0     C12212  11.719   5.197   3.188  0.3026  0.8341 -0.0329
  832MOL0     C12213  11.807   5.184   3.081 -0.2744  0.0331 -0.1601
  832MOL0     C12214  11.929   5.105   3.086  0.0618 -0.1563 -0.4437
  832MOL0     O12215  12.010   5.127   2.989 -0.0830  0.6705  0.9862
  832MOL0     C12216  12.135   5.075   2.973 -0.6416 -0.5237 -0.1959
  832MOL0     C12217  12.241   5.147   3.022 -0.1742  0.0424  0.3609
  832MOL0     C12218  12.377   5.095   3.018  0.0397  0.1202  0.5074
  832MOL0     C12219  12.407   4.968   2.957  0.0554  0.9386  0.5360
  832MOL0     O12220  12.537   4.924   2.937 -0.8577  0.3662  0.5399
  832MOL0     C12221  12.567   4.820   2.841 -0.4444 -0.6389 -0.1821
  832MOL0     C12222  12.709   4.843   2.786 -0.0251  0.0807 -0.3327
  832MOL0     C12223  12.753   4.730   2.703  0.0970 -0.6956  1.1751
  832MOL0     C12224  12.895   4.749   2.654  0.1931  0.3729  0.5405
  832MOL0     C12225  12.940   4.653   2.538 -0.2711 -0.2128 -0.1849
  832MOL0     C12226  13.080   4.685   2.495 -0.4408  0.0574  0.7263
  832MOL0     C12227  13.116   4.649   2.348  0.9266 -0.9065 -0.6586
  832MOL0     C12228  13.266   4.670   2.325 -0.0726  1.0153  0.1505
  832MOL0    Cl12229  13.369   4.567   2.425 -0.1378  0.0369 -0.0866
  832MOL0     C12230  12.299   4.897   2.902  0.6690 -0.2949  0.2480
  832MOL0     C12231  12.163   4.953   2.914 -0.7401  0.3764 -0.7945
  832MOL0     O12232  11.951   5.042   3.190 -0.0512 -0.4875 -0.5705
  832MOL0     C12233  11.769   5.254   2.959  0.3434 -0.5012 -0.4831
  832MOL0     C12234  11.653   5.337   2.961  0.1293 -0.2746 -0.5680
  832MOL0     N12235  10.785   5.429   3.214 -0.6798  0.0629  0.0064
  832MOL0     N12236  10.706   5.460   3.306  0.2218 -0.0130  0.8557
  832MOL0     C12237   9.491   6.098   3.277 -0.1695 -1.0733 -0.4109
  832MOL0     C12238   9.366   6.103   3.214 -0.3764 -0.1345  0.3495
  832MOL0     C12239   8.983   6.026   3.009 -0.1580  0.4677  0.1519
  832MOL0     C12240   8.864   6.030   3.079 -0.6770  0.2618 -1.1030
  832MOL0     C12241   8.740   6.010   3.009  0.5492 -0.3084 -0.4100
  832MOL0     C12242   8.730   5.984   2.873 -1.0067 -0.1814  0.1855
  832MOL0     O12243   8.613   5.961   2.813  0.4778  0.2175 -0.1664
  832MOL0     C12244   8.500   5.889   2.876 -0.3023  0.1895 -0.5641
  832MOL0     C12245   8.392   5.865   2.764 -0.1787  0.2814  0.1412
  832MOL0     C12246   8.374   5.712   2.747  0.3477  0.0710  0.6918
  832MOL0     C12247   8.278   5.670   2.637  0.5943 -0.3903  0.3735
  832MOL0     C12248   8.329   5.717   2.506  0.2736 -0.0157 -0.2628
  832MOL0     C12249   8.360   5.755   2.395 -0.0203  0.6986  0.3599
  832MOL0     C12250   8.845   5.967   2.806 -0.2811  0.2311 -0.5966
  832MOL0     C12251   8.972   5.983   2.869  0.3586 -1.5148 -0.0487
  832MOL0     C12252   9.091   5.965   2.782 -0.4657 -0.1590 -0.0718
  832MOL0     H12253   9.400   5.830   3.015  0.6967 -1.0226 -0.5796
  832MOL0     H12254   9.614   5.812   3.150 -1.7461 -0.3845 -0.7101
  832MOL0     H12255   9.733   5.783   3.340  1.1534  0.1445  0.1879
  832MOL0     H12256   9.811   5.866   3.213  0.3902  1.2282 -0.1487
  832MOL0     H12257   9.897   5.913   3.498 -1.5151 -2.2166 -0.4919
  832MOL0     H12258   9.953   5.995   3.348  1.3500 -0.1525  0.3696
  832MOL0     H12259  10.031   5.797   3.254 -1.6968  2.4004 -0.2035
  832MOL0     H12260   9.951   5.699   3.385 -0.1386  0.2389  0.2037
  832MOL0     H12261  10.169   5.907   3.428  0.3938 -0.4443 -0.0230
  832MOL0     H12262  10.128   5.789   3.542  0.9101  4.2629  1.7797
  832MOL0     H12263  10.216   5.605   3.420 -0.4009 -0.6447  0.6986
  832MOL0     H12264  10.236   5.699   3.271 -2.7325 -0.9276  0.1778
  832MOL0     H12265  10.414   5.814   3.330  0.3155 -0.5067 -0.2003
  832MOL0     H12266  10.395   5.790   3.508 -2.2521 -0.3112  0.3439
  832MOL0     H12267  10.470   5.569   3.319 -3.1097  0.0988  0.5932
  832MOL0     H12268  10.458   5.549   3.484  0.7163 -1.9849 -1.3454
  832MOL0     H12269  10.635   5.775   3.379  1.2336  0.1880  0.9821
  832MOL0     H12270  10.655   5.678   3.526  3.3813  0.1905 -0.4655
  832MOL0     H12271  10.898   5.715   3.325 -2.7613  1.3838  1.6069
  832MOL0     H12272  10.989   5.470   3.031 -0.8343  0.8533 -0.4778
  832MOL0     H12273  11.006   5.638   3.101  1.0217  0.2235  0.4883
  832MOL0     H12274  11.141   5.570   3.277  0.4452  0.3670 -0.7477
  832MOL0     H12275  11.109   5.392   3.232 -2.7058  0.3053  1.6451
  832MOL0     H12276  11.269   5.619   3.105  0.8739  0.3439  1.2450
  832MOL0     H12277  11.223   5.495   2.992  1.3607  0.4583 -0.4588
  832MOL0     H12278  11.327   5.324   3.172  3.2024 -0.7696 -0.3564
  832MOL0     H12279  11.388   5.456   3.253  0.3675  1.2408 -0.8675
  832MOL0     H12280  11.543   5.282   3.271  1.1268 -0.1629 -0.3708
  832MOL0     H12281  11.756   5.173   3.287 -1.4332  1.7484  0.8781
  832MOL0     H12282  12.223   5.240   3.075  0.4436  1.2179 -1.4138
  832MOL0     H12283  12.458   5.157   3.055  0.6379  0.5257 -1.3689
  832MOL0     H12284  12.563   4.724   2.894 -1.7435 -0.9755 -0.8717
  832MOL0     H12285  12.497   4.820   2.758  1.5053  3.9670 -2.1787
  832MOL0     H12286  12.714   4.924   2.713 -0.2943 -1.8984 -2.6599
  832MOL0     H12287  12.778   4.859   2.870  0.1120 -3.7116  0.4245
  832MOL0     H12288  12.762   4.635   2.757  0.1257 -1.7139 -0.5341
  832MOL0     H12289  12.680   4.710   2.624  2.4322 -4.4574 -0.3190
  832MOL0     H12290  12.965   4.743   2.737  2.1454 -0.9879 -1.1084
  832MOL0     H12291  12.896   4.844   2.601  0.0282  1.4217  2.3476
  832MOL0     H12292  12.867   4.667   2.458 -0.7347  0.3805  0.3270
  832MOL0     H12293  12.944   4.554   2.585  1.1680  0.5036  1.3029
  832MOL0     H12294  13.103   4.792   2.505 -1.7553  0.6725 -1.7574
  832MOL0     H12295  13.157   4.637   2.556 -0.7704  1.9054  2.6993
  832MOL0     H12296  13.059   4.712   2.279  1.3397 -0.6735 -0.7940
  832MOL0     H12297  13.087   4.544   2.340 -1.8812 -0.4127  1.2356
  832MOL0     H12298  13.280   4.675   2.217 -2.5664 -1.1282 -0.3761
  832MOL0     H12299  13.295   4.769   2.363 -0.6328  1.7366 -1.2328
  832MOL0     H12300  12.303   4.798   2.856 -1.3269 -1.5087  2.4253
  832MOL0     H12301  12.090   4.889   2.865  0.0820 -3.8826  2.8582
  832MOL0     H12302  11.828   5.247   2.868  3.5552 -0.2317  1.4374
  832MOL0     H12303  11.619   5.411   2.890 -0.9863  1.3123  1.5134
  832MOL0     H12304   9.509   6.179   3.346 -1.7145  0.6205 -1.9039
  832MOL0     H12305   9.295   6.182   3.240 -1.6323 -0.9522 -0.4715
  832MOL0     H12306   8.867   6.047   3.186  0.6454 -0.5902 -0.9856
  832MOL0     H12307   8.653   6.023   3.073 -1.1231 -1.4166 -2.3514
  832MOL0     H12308   8.451   5.943   2.958 -0.1456 -2.3392  1.3492
  832MOL0     H12309   8.535   5.793   2.916 -1.8758 -0.2349 -0.1165
  832MOL0     H12310   8.423   5.905   2.667  0.1145 -1.4170 -0.5036
  832MOL0     H12311   8.296   5.911   2.785 -0.9350 -0.8003 -0.8400
  832MOL0     H12312   8.333   5.675   2.842 -0.8358 -0.6141 -0.0630
  832MOL0     H12313   8.472   5.664   2.748  0.2761 -0.4108 -3.1709
  832MOL0     H12314   8.278   5.561   2.636  1.6821 -0.4077  1.2965
  832MOL0     H12315   8.177   5.710   2.651  1.3048  1.4267  0.6368
  832MOL0     H12316   8.374   5.796   2.297  0.4715  1.4689  0.7425
  832MOL0     H12317   8.847   5.947   2.700 -0.0204  0.5601 -0.6525
  832MOL0     H12318   9.075   5.976   2.675  3.5232  0.1537 -0.7891
  832MOL0     H12319   9.164   6.042   2.808  0.4481 -1.2237  0.5898
  832MOL0     H12320   9.130   5.863   2.793 -0.3676 -0.3371 -1.7718
  833MOL0     O12321   4.999   0.180   9.560 -0.2751 -0.3223  0.4567
  833MOL0     C12322   4.976   0.300   9.573  0.2716 -0.7126  0.1146
  833MOL0     O12323   5.070   0.400   9.588 -0.6911 -0.7293  0.9753
  833MOL0     C12324   5.202   0.375   9.633 -0.4276 -0.0993 -0.8117
  833MOL0     C12325   5.281   0.489   9.657 -0.1044 -0.1417 -0.9051
  833MOL0     C12326   5.419   0.475   9.698  0.2310 -1.1409  0.5993
  833MOL0     C12327   5.479   0.351   9.718 -0.0987 -0.9807  0.0831
  833MOL0     O12328   5.618   0.355   9.750 -0.0971  0.6404  0.9916
  833MOL0     C12329   5.684   0.225   9.740 -0.1496 -0.7957 -0.3279
  833MOL0     C12330   5.835   0.254   9.772  0.8628 -0.0077 -0.2510
  833MOL0     C12331   5.855   0.263   9.921 -0.0585 -0.2742  0.1909
  833MOL0     C12332   5.988   0.333   9.958  0.3712 -0.1122  0.3936
  833MOL0     C12333   6.000   0.384  10.105  0.1276 -0.7719  0.7588
  833MOL0     C12334   5.972   0.269  10.208 -0.5208 -0.8209 -0.5746
  833MOL0     C12335   5.991   0.318  10.356 -0.3348 -0.2112 -0.2491
  833MOL0     C12336   5.979   0.196  10.452 -0.2816  0.1191  0.2684
  833MOL0     N12337   6.116   0.161  10.505  0.9691  0.0956  0.7285
  833MOL0     C12338   6.207   0.251  10.553 -0.0796 -0.2936 -0.2358
  833MOL0     C12339   6.314   0.178  10.593  0.6480 -0.1685  0.2649
  833MOL0     C12340   6.436   0.224  10.666  0.2402  0.2638  0.3638
  833MOL0     C12341   6.476   0.369  10.642  0.5033 -0.1331  1.0201
  833MOL0     C12342   6.600   0.407  10.723  0.7516 -1.3571  0.2722
  833MOL0     C12343   6.728   0.378  10.645  1.1470 -0.8014  0.8749
  833MOL0     O12344   6.836   0.359  10.735  0.0099  0.2156  1.0317
  833MOL0     C12345   6.945   0.437  10.709  0.1178  0.4039 -0.6527
  833MOL0     C12346   6.941   0.577  10.717  0.2855 -0.8045  0.9528
  833MOL0     C12347   7.059   0.650  10.688  0.0808  0.6460 -0.8423
  833MOL0     C12348   7.179   0.590  10.656 -0.0402  0.1213  0.3538
  833MOL0     C12349   7.300   0.663  10.621 -0.3763 -0.4547  0.0236
  833MOL0     O12350   7.287   0.792  10.601  0.2014 -0.8968  0.0829
  833MOL0     C12351   7.401   0.866  10.603  0.3768  0.1743  0.1781
  833MOL0     C12352   7.419   0.973  10.513 -0.0738 -0.2558 -0.7490
  833MOL0     C12353   7.535   1.056  10.523  0.2912 -0.3099 -0.1530
  833MOL0     C12354   7.633   1.023  10.613 -0.4207 -0.1606  1.6415
  833MOL0     O12355   7.749   1.083  10.595  0.1141  0.0320  0.0006
  833MOL0     C12356   7.869   1.025  10.652  0.6050 -0.0571  1.1583
  833MOL0     C12357   7.987   1.114  10.614 -0.3871 -0.4532 -0.2244
  833MOL0     C12358   8.087   1.100  10.728 -0.5481 -0.1074 -0.0612
  833MOL0     C12359   8.223   1.159  10.700  0.1422  0.4292  0.0294
  833MOL0     C12360   8.290   1.221  10.834  0.2384  0.1815  0.9492
  833MOL0     C12361   8.433   1.263  10.816  1.0821  0.3557  0.4626
  833MOL0     C12362   8.452   1.369  10.704  0.3481  0.5403 -0.2570
  833MOL0     C12363   8.600   1.399  10.669 -0.3444 -0.5740 -0.1553
  833MOL0    Cl12364   8.703   1.419  10.819 -0.0513  0.0236 -0.4141
  833MOL0     C12365   7.606   0.937  10.716  0.2799  0.2121 -0.1896
  833MOL0     C12366   7.490   0.868  10.718  0.3118  0.0102  0.1120
  833MOL0     O12367   7.403   0.597  10.600 -0.1053 -0.1297  0.2105
  833MOL0     C12368   7.175   0.448  10.644 -0.2765  0.2286  0.0063
  833MOL0     C12369   7.060   0.377  10.666  0.4839 -0.8401  0.2423
  833MOL0     N12370   6.294   0.048  10.548  0.7015  0.6581  0.3312
  833MOL0     N12371   6.179   0.042  10.498  0.7637 -0.1021 -0.8100
  833MOL0     C12372   5.395   0.240   9.696 -0.1283  0.4770 -0.6590
  833MOL0     C12373   5.263   0.252   9.658 -0.0284  0.1708  0.0598
  833MOL0     C12374   4.838   0.342   9.600 -0.0549 -1.0909 -0.1527
  833MOL0     C12375   4.820   0.456   9.687  0.6281  0.6723 -0.0336
  833MOL0     C12376   4.693   0.509   9.714 -0.0168 -0.3639 -0.1496
  833MOL0     C12377   4.581   0.449   9.662  0.1826  0.5455  0.6891
  833MOL0     O12378   4.449   0.487   9.676 -0.3641 -0.1749 -0.2178
  833MOL0     C12379   4.411   0.596   9.757  0.0374 -0.2735  0.3206
  833MOL0     C12380   4.427   0.582   9.907  0.4912 -1.0260  0.5158
  833MOL0     C12381   4.311   0.498   9.959 -0.9782  0.0294  0.6354
  833MOL0     C12382   4.187   0.580   9.954  0.4382 -0.5242 -0.0295
  833MOL0     C12383   4.180   0.704  10.039 -0.1760 -0.3667  0.0923
  833MOL0     C12384   4.191   0.803  10.103 -0.3788 -0.3202  0.7316
  833MOL0     C12385   4.599   0.336   9.580 -0.1796 -0.3431 -0.5018
  833MOL0     C12386   4.726   0.278   9.541 -0.1284 -0.9373 -0.9762
  833MOL0     C12387   4.733   0.158   9.459  0.0273 -0.1378 -0.1961
  833MOL0     H12388   5.235   0.582   9.628 -3.2044 -1.5457 -0.9017
  833MOL0     H12389   5.470   0.567   9.726 -1.7817  0.5129 -0.9029
  833MOL0     H12390   5.645   0.159   9.819  0.9805 -2.8089 -1.3710
  833MOL0     H12391   5.676   0.177   9.642 -1.3969 -1.9290  0.3036
  833MOL0     H12392   5.873   0.341   9.718  0.0213  2.3081  2.5763
  833MOL0     H12393   5.895   0.169   9.740 -0.4800 -0.4800 -1.6263
  833MOL0     H12394   5.851   0.160   9.958  1.3273  0.4861  2.6561
  833MOL0     H12395   5.778   0.320   9.975 -2.1221 -3.3668  0.8065
  833MOL0     H12396   6.073   0.266   9.939  1.5704  1.1669  1.0386
  833MOL0     H12397   6.007   0.421   9.896  0.2168 -0.5828 -0.3305
  833MOL0     H12398   6.103   0.418  10.120 -0.1548 -0.3867  1.8534
  833MOL0     H12399   5.932   0.469  10.116  2.1433  0.9156  0.6891
  833MOL0     H12400   5.875   0.220  10.192 -1.1267  0.2080 -0.1415
  833MOL0     H12401   6.044   0.188  10.192 -0.3642 -0.6870 -0.5469
  833MOL0     H12402   5.907   0.387  10.368 -0.0559  0.0668  0.1270
  833MOL0     H12403   6.084   0.373  10.367 -0.8146  0.9486 -1.7356
  833MOL0     H12404   5.910   0.224  10.532  0.5396 -0.4561  1.2054
  833MOL0     H12405   5.939   0.107  10.401  3.3855 -0.4488 -2.0454
  833MOL0     H12406   6.198   0.359  10.558  0.1665 -0.2756 -0.1804
  833MOL0     H12407   6.414   0.218  10.773  0.9828  0.5731  0.5400
  833MOL0     H12408   6.521   0.158  10.645 -1.9606 -2.4471 -0.8294
  833MOL0     H12409   6.494   0.380  10.535 -0.6789 -0.4066  0.7735
  833MOL0     H12410   6.389   0.429  10.671 -1.1042 -0.8720 -1.8973
  833MOL0     H12411   6.600   0.348  10.815 -4.9470 -0.2488  1.3461
  833MOL0     H12412   6.599   0.514  10.746 -1.8852 -1.8241  2.8490
  833MOL0     H12413   6.752   0.449  10.565  0.0885  0.1805  1.4005
  833MOL0     H12414   6.710   0.285  10.590 -0.6628  0.1061 -0.1651
  833MOL0     H12415   6.848   0.629  10.735  0.8111 -0.0516  1.5944
  833MOL0     H12416   7.060   0.759  10.695 -1.6601  0.7339 -1.5293
  833MOL0     H12417   7.337   1.004  10.450 -0.6027  3.1853  1.3706
  833MOL0     H12418   7.542   1.148  10.465 -0.3559 -1.2791 -1.8660
  833MOL0     H12419   7.846   1.024  10.759  0.7788 -1.0655  1.1967
  833MOL0     H12420   7.897   0.926  10.613 -0.2537 -0.3314  1.2372
  833MOL0     H12421   8.034   1.086  10.520 -0.7802 -0.8347 -0.3121
  833MOL0     H12422   7.965   1.220  10.603 -1.1586 -0.4708  0.9646
  833MOL0     H12423   8.054   1.142  10.824  4.1496  2.1423  0.8618
  833MOL0     H12424   8.102   0.992  10.735 -3.0886 -0.6399 -1.6223
  833MOL0     H12425   8.226   1.244  10.631  2.6172  1.6546  1.4766
  833MOL0     H12426   8.291   1.084  10.659 -0.0464 -0.1501  0.7564
  833MOL0     H12427   8.277   1.158  10.923 -0.7642 -2.0261 -0.6753
  833MOL0     H12428   8.231   1.311  10.856  0.7184  0.3630  1.5037
  833MOL0     H12429   8.466   1.302  10.913  0.5295 -2.4101  1.8767
  833MOL0     H12430   8.493   1.175  10.791 -3.3378 -2.6669 -0.7468
  833MOL0     H12431   8.402   1.460  10.738  0.9002 -0.2614  3.1414
  833MOL0     H12432   8.409   1.341  10.608  2.8940 -0.3655 -1.2103
  833MOL0     H12433   8.627   1.305  10.619 -1.4878 -1.5700  1.0175
  833MOL0     H12434   8.605   1.494  10.615 -2.2763 -0.0049  0.5660
  833MOL0     H12435   7.677   0.927  10.798 -1.1686  2.4547  1.4369
  833MOL0     H12436   7.474   0.809  10.808 -1.5210  1.1173  0.5533
  833MOL0     H12437   7.259   0.386  10.614 -1.8631 -2.8810  1.4929
  833MOL0     H12438   7.066   0.269  10.668  4.9037 -0.7693  2.2405
  833MOL0     H12439   5.445   0.144   9.704  1.6211  1.4391  0.7724
  833MOL0     H12440   5.206   0.162   9.638 -2.4130  1.9504 -1.6191
  833MOL0     H12441   4.903   0.495   9.745  0.5596  1.5920 -0.5235
  833MOL0     H12442   4.683   0.601   9.770  0.5004  2.0272 -3.6825
  833MOL0     H12443   4.312   0.633   9.729  0.7670  1.2427 -0.3629
  833MOL0     H12444   4.474   0.680   9.726  0.9049 -0.7252  0.8128
  833MOL0     H12445   4.438   0.677   9.961  1.6892 -1.4959  1.1537
  833MOL0     H12446   4.508   0.514   9.937  1.5085  0.2297  0.7148
  833MOL0     H12447   4.329   0.474  10.064 -1.6754 -2.5473  0.2346
  833MOL0     H12448   4.289   0.409   9.900 -2.1788 -0.3818  1.6635
  833MOL0     H12449   4.151   0.608   9.855  1.7976  0.7891 -0.1822
  833MOL0     H12450   4.116   0.511  10.001  1.0387  0.0364  1.7687
  833MOL0     H12451   4.192   0.889  10.167 -1.7142 -0.1369  0.5369
  833MOL0     H12452   4.510   0.293   9.535 -0.3218 -1.8844  1.1405
  833MOL0     H12453   4.715   0.068   9.518 -2.6336  0.7677  0.5485
  833MOL0     H12454   4.645   0.161   9.393 -1.7042  0.9422  2.0346
  833MOL0     H12455   4.829   0.150   9.407  1.6599  2.0345  2.2342
  834MOL0     O12456   4.960   1.401  10.670  0.2209  0.5669 -0.1371
  834MOL0     C12457   4.980   1.488  10.752 -0.2947  0.6693  0.2445
  834MOL0     O12458   5.054   1.598  10.732 -0.1466 -0.1156  0.1205
  834MOL0     C12459   5.109   1.609  10.606 -0.3965  0.1277 -0.5405
  834MOL0     C12460   5.046   1.689  10.510 -0.5851 -0.1991 -0.1579
  834MOL0     C12461   5.110   1.703  10.390  0.0132  0.7721  0.3042
  834MOL0     C12462   5.235   1.639  10.356 -0.5110 -0.4217 -0.2158
  834MOL0     O12463   5.289   1.653  10.237 -0.0049  0.3052  0.4128
  834MOL0     C12464   5.330   1.781  10.193 -0.1849  0.2745 -0.0517
  834MOL0     C12465   5.457   1.781  10.095  0.4352  0.6285 -0.5748
  834MOL0     C12466   5.598   1.775  10.171 -0.0741  0.7118  0.2864
  834MOL0     C12467   5.719   1.730  10.079 -0.2772 -0.4965  0.2110
  834MOL0     C12468   5.846   1.728  10.164  0.5938  0.2090  0.9826
  834MOL0     C12469   5.972   1.693  10.074  0.7520  0.3599 -0.1300
  834MOL0     C12470   6.105   1.661  10.152  0.3347  0.4177  0.3398
  834MOL0     C12471   6.221   1.653  10.055  0.1082 -0.3564  0.4076
  834MOL0     N12472   6.351   1.648  10.118 -0.3730 -0.9603 -1.6286
  834MOL0     C12473   6.423   1.747  10.176 -1.0008  0.1476  0.4399
  834MOL0     C12474   6.542   1.685  10.203 -0.3087 -0.0551 -0.4924
  834MOL0     C12475   6.655   1.766  10.262  0.1549 -0.7203 -0.4869
  834MOL0     C12476   6.783   1.681  10.292 -0.0813 -0.5014  0.0270
  834MOL0     C12477   6.850   1.646  10.164  0.0187  0.4252 -0.7980
  834MOL0     C12478   6.986   1.597  10.207 -0.7206  0.0628  0.4842
  834MOL0     O12479   7.075   1.702  10.248 -0.0098  0.0434  0.9310
  834MOL0     C12480   7.207   1.654  10.281 -0.0612 -0.0106  0.1669
  834MOL0     C12481   7.252   1.525  10.295 -0.3730  0.7293 -0.1778
  834MOL0     C12482   7.385   1.498  10.318 -0.3520 -0.1093  0.2627
  834MOL0     C12483   7.476   1.596  10.355  0.2436 -0.2081  0.3455
  834MOL0     C12484   7.616   1.569  10.391 -0.6365  0.6139  0.1733
  834MOL0     O12485   7.699   1.681  10.393 -0.2140 -0.8460  0.9193
  834MOL0     C12486   7.829   1.662  10.439  0.1765  0.1070  0.8787
  834MOL0     C12487   7.932   1.731  10.371 -0.7719 -0.1549 -0.1097
  834MOL0     C12488   8.070   1.714  10.405  0.0293  0.6356  0.1493
  834MOL0     C12489   8.110   1.632  10.514  0.0990 -0.8233 -0.1794
  834MOL0     O12490   8.246   1.600  10.545 -0.5689  0.7398  0.3993
  834MOL0     C12491   8.351   1.665  10.473  0.5144 -0.2072 -0.7544
  834MOL0     C12492   8.413   1.770  10.565  0.7945 -0.0678 -0.2780
  834MOL0     C12493   8.536   1.843  10.500  0.0143 -0.1092 -0.0201
  834MOL0     C12494   8.610   1.926  10.606 -0.3841  0.0165  0.1046
  834MOL0     C12495   8.662   1.855  10.720  0.4300  0.6031  0.9586
  834MOL0     C12496   8.745   1.946  10.820  0.0669 -0.6148  0.3678
  834MOL0     C12497   8.825   1.854  10.908  0.1395 -0.2885 -0.5954
  834MOL0     C12498   8.966   1.913  10.916 -0.1754 -0.0361 -0.6257
  834MOL0    Cl12499   9.059   1.890  10.777  0.0167  0.1797 -0.7839
  834MOL0     C12500   8.008   1.572  10.596 -0.3521 -0.2687  0.6198
  834MOL0     C12501   7.876   1.576  10.542  0.3874  0.2907 -0.1423
  834MOL0     O12502   7.646   1.449  10.418  0.2025 -0.0142 -0.0289
  834MOL0     C12503   7.436   1.722  10.336  0.6257 -0.1690  0.7397
  834MOL0     C12504   7.304   1.753  10.301  0.3408  0.6253 -0.0313
  834MOL0     N12505   6.530   1.546  10.171  0.1980 -0.5603  0.1195
  834MOL0     N12506   6.413   1.524  10.127 -0.3761 -0.0161 -0.9860
  834MOL0     C12507   5.283   1.559  10.451  0.1954  0.0463 -0.7320
  834MOL0     C12508   5.228   1.546  10.573 -0.6327  0.2907  0.1365
  834MOL0     C12509   4.940   1.467  10.895 -0.1394 -0.0904  0.5262
  834MOL0     C12510   4.948   1.579  10.979  0.3425 -0.9180  0.1198
  834MOL0     C12511   4.904   1.578  11.109 -0.7065 -0.1683  0.2956
  834MOL0     C12512   4.853   1.463  11.167 -0.1233  0.2392  0.7941
  834MOL0     O12513   4.803   1.454  11.300  0.1271  0.7122  0.1796
  834MOL0     C12514   4.742   1.574  11.349  0.9822  0.0319 -0.3586
  834MOL0     C12515   4.615   1.510  11.420 -0.8485  0.2667 -0.0737
  834MOL0     C12516   4.551   1.600  11.531  0.1704 -0.2099  0.2871
  834MOL0     C12517   4.437   1.526  11.607  0.6936  0.0581  0.6652
  834MOL0     C12518   4.473   1.399  11.672 -0.5181  0.0658 -0.2302
  834MOL0     C12519   4.501   1.295  11.739  0.2622 -0.3553 -0.7009
  834MOL0     C12520   4.861   1.348  11.091 -0.9887  0.2357  0.4568
  834MOL0     C12521   4.902   1.350  10.957  0.2190  0.4696  0.1595
  834MOL0     C12522   4.865   1.228  10.871  0.4718  0.3343 -0.9575
  834MOL0     H12523   4.945   1.721  10.534 -0.6548 -0.8230  0.4033
  834MOL0     H12524   5.055   1.761  10.317 -1.1134 -1.6719 -0.8876
  834MOL0     H12525   5.244   1.826  10.143 -1.8709 -0.7506  1.7848
  834MOL0     H12526   5.354   1.839  10.283 -0.3261 -3.4046  2.5968
  834MOL0     H12527   5.452   1.874  10.037  1.4503  0.3699 -1.0864
  834MOL0     H12528   5.441   1.695  10.030  0.6817 -0.6695  0.9977
  834MOL0     H12529   5.584   1.709  10.258  1.2324  0.0833  0.0490
  834MOL0     H12530   5.615   1.874  10.215 -1.9244  1.3169 -0.3069
  834MOL0     H12531   5.704   1.630  10.037  1.2951 -0.8087  0.3138
  834MOL0     H12532   5.729   1.806  10.000 -0.2635 -0.0006  0.6872
  834MOL0     H12533   5.858   1.826  10.210  0.2626  0.2475  0.9904
  834MOL0     H12534   5.838   1.651  10.241 -2.2749 -0.0084  0.5816
  834MOL0     H12535   5.953   1.615  10.000 -1.2738  0.6643 -0.0045
  834MOL0     H12536   5.983   1.778  10.006 -1.6887  2.0157  1.3366
  834MOL0     H12537   6.084   1.567  10.205 -1.1392 -0.1115 -1.1052
  834MOL0     H12538   6.127   1.744  10.219  1.2123  0.8762 -0.4941
  834MOL0     H12539   6.207   1.580   9.975 -0.0746  2.3265 -2.1813
  834MOL0     H12540   6.217   1.741   9.990 -0.5152 -0.7313 -0.0637
  834MOL0     H12541   6.406   1.853  10.197  0.7863  0.9158 -1.6216
  834MOL0     H12542   6.677   1.848  10.193 -2.1307  0.1219 -0.2982
  834MOL0     H12543   6.620   1.805  10.358  1.0424  0.1808 -0.5156
  834MOL0     H12544   6.859   1.731  10.353  1.2069 -0.0415 -1.8750
  834MOL0     H12545   6.755   1.590  10.346 -0.3274 -1.0115 -0.9280
  834MOL0     H12546   6.859   1.736  10.103 -1.9270  0.2003 -1.4827
  834MOL0     H12547   6.803   1.561  10.114 -1.4691  0.0996  1.0415
  834MOL0     H12548   7.036   1.552  10.121  0.7546  0.7903  0.9281
  834MOL0     H12549   6.991   1.520  10.285  1.6325  0.7230  1.0695
  834MOL0     H12550   7.190   1.437  10.293 -0.5617  0.8338  0.7009
  834MOL0     H12551   7.423   1.396  10.323  0.5399  0.1216 -1.3165
  834MOL0     H12552   7.913   1.795  10.286  1.5096  1.1547  0.2895
  834MOL0     H12553   8.146   1.771  10.352 -1.3277  0.4735 -2.1235
  834MOL0     H12554   8.429   1.589  10.462 -1.7976 -2.7596 -0.6465
  834MOL0     H12555   8.327   1.706  10.375  0.1896 -0.1799 -0.6645
  834MOL0     H12556   8.343   1.851  10.586  2.9990  1.9117 -0.1283
  834MOL0     H12557   8.436   1.727  10.663 -0.1745  2.7302  1.2906
  834MOL0     H12558   8.612   1.772  10.467 -1.3026 -1.1131 -1.0049
  834MOL0     H12559   8.495   1.898  10.415  0.8470 -1.6996 -1.5138
  834MOL0     H12560   8.537   1.999  10.642 -2.1059 -0.3341 -2.4015
  834MOL0     H12561   8.700   1.975  10.569 -0.5183 -0.0685 -0.3350
  834MOL0     H12562   8.723   1.772  10.683  0.8668  0.7602  1.3149
  834MOL0     H12563   8.580   1.807  10.774  0.1132 -1.8839 -1.5165
  834MOL0     H12564   8.812   2.009  10.761 -0.8529 -1.5488 -1.7750
  834MOL0     H12565   8.680   2.016  10.874  2.2334  0.5061  1.6496
  834MOL0     H12566   8.811   1.750  10.878 -0.2963 -0.7628  1.1340
  834MOL0     H12567   8.774   1.855  11.004 -0.9735  1.0460 -1.1671
  834MOL0     H12568   8.970   2.017  10.949 -1.8114 -0.6271  1.7330
  834MOL0     H12569   9.012   1.852  10.995 -1.7609  2.0644  2.1040
  834MOL0     H12570   8.040   1.505  10.676 -1.0160 -3.1422 -1.3834
  834MOL0     H12571   7.801   1.521  10.597 -1.3517 -0.0350 -2.6988
  834MOL0     H12572   7.492   1.806  10.374 -0.6641 -0.0117  2.3976
  834MOL0     H12573   7.282   1.859  10.297 -1.8322  0.2009 -0.2246
  834MOL0     H12574   5.373   1.503  10.426  1.1766  1.3933 -0.3737
  834MOL0     H12575   5.283   1.483  10.642  2.7303  2.4187 -0.3877
  834MOL0     H12576   4.984   1.672  10.935  0.0942 -1.6885 -1.8255
  834MOL0     H12577   4.910   1.671  11.166  1.1612 -0.6533  0.9382
  834MOL0     H12578   4.705   1.640  11.270 -0.1722 -0.7034 -0.4611
  834MOL0     H12579   4.811   1.636  11.407  2.3184 -0.2945 -1.5299
  834MOL0     H12580   4.653   1.422  11.474  0.4248  1.8226  1.6772
  834MOL0     H12581   4.544   1.475  11.345  0.8411  1.1948 -2.2100
  834MOL0     H12582   4.536   1.699  11.487  4.1472  1.0065  1.2755
  834MOL0     H12583   4.627   1.621  11.606 -1.3136  0.9372  1.5139
  834MOL0     H12584   4.388   1.590  11.681 -1.4082 -1.7758  0.9830
  834MOL0     H12585   4.358   1.509  11.533 -0.0271 -1.2622  1.6730
  834MOL0     H12586   4.518   1.203  11.790 -1.9886 -1.3178 -1.5203
  834MOL0     H12587   4.817   1.258  11.134 -0.0986 -0.0700  0.7583
  834MOL0     H12588   4.836   1.146  10.938  0.6053 -0.2061 -1.5474
  834MOL0     H12589   4.780   1.242  10.803 -1.2295 -0.8341  0.7915
  834MOL0     H12590   4.955   1.201  10.815  1.2524  1.2519 -0.1685
  835MOL0     O12591   8.910  10.192   9.919 -0.1004  0.2013  0.0737
  835MOL0     C12592   8.907  10.197   9.796  0.2584  0.5621  0.3218
  835MOL0     O12593   8.828  10.280   9.727  0.1750  0.2813 -0.3794
  835MOL0     C12594   8.790  10.397   9.791 -0.0653  0.5097  0.5404
  835MOL0     C12595   8.849  10.464   9.903 -0.8252  0.0831  0.2652
  835MOL0     C12596   8.784  10.583   9.953  0.3616 -0.4086  0.5338
  835MOL0     C12597   8.684  10.648   9.879 -1.0015  0.7483  0.9016
  835MOL0     O12598   8.630  10.763   9.921 -0.0706 -0.5636 -0.4762
  835MOL0     C12599   8.670  10.871   9.825  0.1465  0.1924  0.2486
  835MOL0     C12600   8.567  10.988   9.824  0.4483 -0.4992 -0.0675
  835MOL0     C12601   8.424  10.959   9.776 -0.4113 -0.0387 -0.4718
  835MOL0     C12602   8.410  10.933   9.627  0.3350 -0.4737  0.7790
  835MOL0     C12603   8.267  10.873   9.596  0.2216  0.4897  0.8247
  835MOL0     C12604   8.149  10.963   9.654 -0.3379  0.7464 -0.5127
  835MOL0     C12605   8.006  10.932   9.590 -0.3442 -0.3706  1.1691
  835MOL0     C12606   7.888  10.969   9.668  0.1136 -0.0916 -0.2752
  835MOL0     N12607   7.874  11.108   9.715  0.6067 -0.5505  0.2719
  835MOL0     C12608   7.895  11.143   9.846 -0.5500  0.1063  0.4165
  835MOL0     C12609   7.846  11.265   9.852 -0.3751  0.3693 -0.3454
  835MOL0     C12610   7.841  11.334   9.985 -0.4936 -0.2378 -0.5681
  835MOL0     C12611   7.972  11.419  10.015 -0.3249 -0.6798  0.3173
  835MOL0     C12612   7.985  11.435  10.165 -0.4620 -0.1580  0.0312
  835MOL0     C12613   8.107  11.510  10.214 -0.3576 -0.4748  0.0457
  835MOL0     O12614   8.102  11.534  10.351  0.3826 -0.1105 -0.5867
  835MOL0     C12615   8.218  11.585  10.399  0.6496 -0.3847 -0.9094
  835MOL0     C12616   8.235  11.720  10.385 -1.4050  0.1411 -0.1625
  835MOL0     C12617   8.358  11.777  10.434  0.7767 -0.6650  0.3968
  835MOL0     C12618   8.459  11.699  10.481  0.1127 -0.9711 -0.4263
  835MOL0     C12619   8.590  11.763  10.517 -0.2906  0.0053 -0.1924
  835MOL0     O12620   8.684  11.678  10.572 -0.0877 -0.2851 -0.0232
  835MOL0     C12621   8.797  11.739  10.624  0.1275 -0.3166  0.7541
  835MOL0     C12622   8.895  11.775  10.539 -0.3402 -1.0988  0.2141
  835MOL0     C12623   9.011  11.826  10.589 -0.4235 -0.3468 -0.6119
  835MOL0     C12624   9.030  11.838  10.732 -0.1984  0.0428 -0.2310
  835MOL0     O12625   9.155  11.870  10.788 -0.0986 -0.2767 -0.5504
  835MOL0     C12626   9.271  11.872  10.701 -0.0720 -0.2905 -0.1989
  835MOL0     C12627   9.393  11.931  10.775 -0.2610  0.2294  0.2701
  835MOL0     C12628   9.466  11.824  10.866 -0.3501  0.5440 -0.3914
  835MOL0     C12629   9.581  11.882  10.950  0.6253  0.1680 -1.0375
  835MOL0     C12630   9.715  11.904  10.869  1.1522 -0.9205 -0.3326
  835MOL0     C12631   9.827  11.947  10.967  0.5071  0.4921 -0.4010
  835MOL0     C12632   9.809  12.078  11.041  0.2718  0.4372 -0.2364
  835MOL0     C12633   9.910  12.109  11.159  0.2012 -0.3188  0.7772
  835MOL0    Cl12634   9.875  12.048  11.325 -0.1211  0.5595  0.1957
  835MOL0     C12635   8.919  11.815  10.813 -0.3323  0.2214 -0.0358
  835MOL0     C12636   8.801  11.763  10.760 -0.5864  0.0129  0.2261
  835MOL0     O12637   8.600  11.884  10.496  0.4240 -0.8400  0.0309
  835MOL0     C12638   8.432  11.561  10.500  0.2869 -1.1212 -0.4955
  835MOL0     C12639   8.310  11.506  10.468  0.4700 -1.2443 -0.1456
  835MOL0     N12640   7.795  11.302   9.728  0.2748 -1.5579 -0.3885
  835MOL0     N12641   7.815  11.208   9.648 -0.3201  0.9456  0.4910
  835MOL0     C12642   8.631  10.579   9.763  0.3425  0.3699 -0.5749
  835MOL0     C12643   8.680  10.453   9.729  0.1525  0.7926  0.5091
  835MOL0     C12644   8.995  10.090   9.731 -0.4399 -0.9563  0.5946
  835MOL0     C12645   9.114  10.073   9.799 -0.6856  0.0628  0.6066
  835MOL0     C12646   9.206   9.980   9.749 -0.1946 -0.6001 -0.7060
  835MOL0     C12647   9.183   9.908   9.630 -0.4843 -0.3337  0.0057
  835MOL0     O12648   9.276   9.822   9.572  0.0193 -0.4818 -1.0051
  835MOL0     C12649   9.391   9.783   9.644  0.2031 -0.7159 -0.5587
  835MOL0     C12650   9.416   9.639   9.617 -0.0095 -0.3274  0.0803
  835MOL0     C12651   9.539   9.580   9.690 -1.2726  0.0718  0.6831
  835MOL0     C12652   9.671   9.637   9.645 -0.2651 -0.5804 -0.1999
  835MOL0     C12653   9.778   9.543   9.688 -0.5007  0.1686  0.1661
  835MOL0     C12654   9.861   9.470   9.726  0.2968 -0.2233 -0.6076
  835MOL0     C12655   9.060   9.931   9.568 -0.3155 -0.1832 -0.6556
  835MOL0     C12656   8.962  10.015   9.619 -0.3782 -1.0057  0.3227
  835MOL0     C12657   8.830  10.026   9.550 -0.1899  0.1077  0.0332
  835MOL0     H12658   8.939  10.436   9.956 -0.5762  1.1750  0.4528
  835MOL0     H12659   8.830  10.637  10.035 -1.0905  1.4196  0.2094
  835MOL0     H12660   8.764  10.915   9.859  0.1008  2.2834 -2.0373
  835MOL0     H12661   8.677  10.837   9.721  0.1887 -1.6752  0.8273
  835MOL0     H12662   8.606  11.062   9.753  0.8059 -0.6520 -0.0328
  835MOL0     H12663   8.575  11.035   9.922 -0.3782 -0.0766 -0.1864
  835MOL0     H12664   8.369  11.052   9.795 -1.9619 -1.1404  0.7466
  835MOL0     H12665   8.380  10.874   9.830  0.0667 -0.7991 -1.2681
  835MOL0     H12666   8.436  11.017   9.562 -0.8009 -0.9140 -0.2747
  835MOL0     H12667   8.476  10.854   9.590 -1.8242 -2.5505  1.1132
  835MOL0     H12668   8.264  10.885   9.487  0.3828  1.1497  0.8908
  835MOL0     H12669   8.251  10.768   9.624  2.2355 -0.1362 -0.1752
  835MOL0     H12670   8.135  10.958   9.763  0.3939 -0.6491 -0.4605
  835MOL0     H12671   8.179  11.066   9.633 -3.0618  1.5210 -1.0168
  835MOL0     H12672   8.006  10.827   9.561  1.2514  0.0423 -0.5161
  835MOL0     H12673   8.001  10.980   9.492 -3.2564 -2.6922  0.0588
  835MOL0     H12674   7.800  10.942   9.610 -0.2106  0.4942 -0.0715
  835MOL0     H12675   7.877  10.917   9.763 -0.9137  2.4747  1.1146
  835MOL0     H12676   7.940  11.082   9.924 -1.3355 -0.2873  0.5653
  835MOL0     H12677   7.753  11.399   9.997 -0.1146  0.5540 -1.8578
  835MOL0     H12678   7.825  11.259  10.063 -2.4044  2.1050  1.4644
  835MOL0     H12679   8.064  11.372   9.979  1.2545  0.6499  2.3870
  835MOL0     H12680   7.961  11.513   9.962  0.5302 -1.5688 -1.5116
  835MOL0     H12681   7.980  11.336  10.212  0.7190  0.8482  2.4658
  835MOL0     H12682   7.901  11.496  10.201  1.8972  1.8385  2.5330
  835MOL0     H12683   8.106  11.608  10.167  1.9919 -0.4110  0.0199
  835MOL0     H12684   8.196  11.455  10.183  0.7846  1.2967  0.0584
  835MOL0     H12685   8.161  11.785  10.338 -1.2352  1.3915  1.2014
  835MOL0     H12686   8.381  11.881  10.417  0.3150  0.0072  3.3629
  835MOL0     H12687   8.871  11.770  10.433 -3.6115  3.6365  0.4626
  835MOL0     H12688   9.090  11.840  10.516 -0.5873 -0.1100 -0.7477
  835MOL0     H12689   9.296  11.772  10.665 -0.4351 -0.6043  0.4061
  835MOL0     H12690   9.255  11.933  10.612  2.0757 -1.9177 -1.8180
  835MOL0     H12691   9.466  11.957  10.698 -0.9796 -0.7961 -0.7842
  835MOL0     H12692   9.359  12.016  10.834 -3.4779  0.2558 -1.3811
  835MOL0     H12693   9.398  11.782  10.941  0.8666 -1.9255 -0.5697
  835MOL0     H12694   9.493  11.745  10.795 -1.0962  0.8893 -1.0647
  835MOL0     H12695   9.600  11.822  11.039 -1.4470  4.3166  2.5931
  835MOL0     H12696   9.540  11.977  10.987  1.6683  1.0247 -1.9881
  835MOL0     H12697   9.702  11.984  10.796  2.2274  1.3003  1.7936
  835MOL0     H12698   9.750  11.815  10.815  3.8538 -1.3105  1.8542
  835MOL0     H12699   9.831  11.871  11.046 -4.3607 -0.1129 -0.4673
  835MOL0     H12700   9.918  11.950  10.905 -0.2630 -2.3806 -1.8383
  835MOL0     H12701   9.710  12.108  11.078  1.9043  3.1670  2.3695
  835MOL0     H12702   9.831  12.162  10.975 -0.8986  0.8210 -0.1692
  835MOL0     H12703  10.005  12.063  11.132  1.1623  2.8016 -1.8402
  835MOL0     H12704   9.925  12.217  11.156 -1.9730  0.0237 -1.5605
  835MOL0     H12705   8.932  11.817  10.920  3.1197 -0.3597 -0.3073
  835MOL0     H12706   8.712  11.742  10.818  0.7468  0.1756  2.4248
  835MOL0     H12707   8.499  11.487  10.542 -0.4408 -0.2969  2.3622
  835MOL0     H12708   8.293  11.399  10.480  2.1202 -1.5604 -0.3815
  835MOL0     H12709   8.547  10.619   9.706 -2.3212 -3.1274  0.5340
  835MOL0     H12710   8.632  10.400   9.647  0.3413 -2.5747  2.3634
  835MOL0     H12711   9.149  10.133   9.882  0.2496 -0.3743  0.5408
  835MOL0     H12712   9.301   9.981   9.802 -0.9820  3.7821  1.0171
  835MOL0     H12713   9.399   9.799   9.752 -0.2964  0.3978 -0.6722
  835MOL0     H12714   9.477   9.833   9.600  0.7192 -1.5374 -0.5117
  835MOL0     H12715   9.413   9.608   9.513  0.9306  1.2077 -0.4349
  835MOL0     H12716   9.327   9.597   9.666 -0.0109  0.7870  1.1184
  835MOL0     H12717   9.537   9.474   9.662 -0.1141 -0.4887  2.5748
  835MOL0     H12718   9.542   9.588   9.799  1.3829  1.2281  0.6043
  835MOL0     H12719   9.675   9.648   9.537  1.5771  0.8812 -0.0433
  835MOL0     H12720   9.687   9.735   9.692  5.4023 -2.1803  2.1133
  835MOL0     H12721   9.940   9.398   9.731 -0.2910 -0.8810 -0.6924
  835MOL0     H12722   9.041   9.874   9.478 -4.1811 -0.4659  0.1738
  835MOL0     H12723   8.838  10.104   9.473  0.0045 -1.2642 -1.4044
  835MOL0     H12724   8.803   9.935   9.496 -2.3037 -1.0832  2.8316
  835MOL0     H12725   8.753  10.065   9.618  2.7011  1.9696  2.4825
  836MOL0     O12726  10.704   8.101   1.395 -0.6447  0.5579  0.1947
  836MOL0     C12727  10.775   8.093   1.494 -0.5034  0.2318 -0.3603
  836MOL0     O12728  10.912   8.124   1.499  0.2494  1.1131  0.7328
  836MOL0     C12729  10.987   8.151   1.383 -0.6942  0.5219 -0.1340
  836MOL0     C12730  11.099   8.236   1.405  0.2723  0.6227 -0.8520
  836MOL0     C12731  11.198   8.251   1.312  0.3020 -0.7698  0.5538
  836MOL0     C12732  11.187   8.184   1.190 -0.4466  0.0150 -0.1846
  836MOL0     O12733  11.296   8.193   1.100  0.2597  0.2060 -0.0056
  836MOL0     C12734  11.300   8.092   1.002  0.3999 -0.0638  0.1356
  836MOL0     C12735  11.435   8.105   0.922  0.2622  0.0850  0.0902
  836MOL0     C12736  11.441   7.981   0.825  0.1209 -0.0244  0.3456
  836MOL0     C12737  11.573   7.966   0.735 -0.2205  0.3008  0.5379
  836MOL0     C12738  11.695   7.973   0.826  0.2052  0.2775  0.2867
  836MOL0     C12739  11.825   7.930   0.758  0.1947  0.0535 -0.3155
  836MOL0     C12740  11.870   8.018   0.631 -0.3062 -0.3776 -0.3790
  836MOL0     C12741  11.861   8.172   0.638  0.0948  0.8385 -0.0990
  836MOL0     N12742  11.956   8.231   0.541 -0.5007 -0.3658 -0.6181
  836MOL0     C12743  12.088   8.274   0.570  0.2230 -0.2188 -0.9235
  836MOL0     C12744  12.131   8.313   0.453 -0.0598  1.2520 -1.2126
  836MOL0     C12745  12.270   8.362   0.431  0.1063 -0.4089  0.6257
  836MOL0     C12746  12.361   8.254   0.374  0.4780  0.1977 -0.0762
  836MOL0     C12747  12.428   8.147   0.462  0.1686  0.1961  0.6164
  836MOL0     C12748  12.531   8.072   0.388  0.0243 -0.0535 -0.4916
  836MOL0     O12749  12.641   8.163   0.372 -0.0641 -0.3187  0.2448
  836MOL0     C12750  12.763   8.118   0.323  0.3167  0.7986  0.6740
  836MOL0     C12751  12.849   8.218   0.291  0.1584 -0.5696 -0.3198
  836MOL0     C12752  12.974   8.200   0.239  0.4262  0.4605 -0.3430
  836MOL0     C12753  13.025   8.069   0.226  0.1970  0.3289 -0.4167
  836MOL0     C12754  13.163   8.040   0.178  0.2936 -0.2174 -0.6929
  836MOL0     O12755  13.191   7.909   0.154  0.1312  0.5241  0.3826
  836MOL0     C12756  13.295   7.875   0.081 -0.3500 -0.2044 -0.4340
  836MOL0     C12757  13.379   7.778   0.138 -0.2545 -0.1855 -0.0739
  836MOL0     C12758  13.496   7.729   0.066  0.2975 -0.8284  0.7624
  836MOL0     C12759  13.531   7.797  -0.052  0.0780 -0.1628 -0.3763
  836MOL0     O12760  13.643   7.751  -0.112  0.0365  0.1582  0.2183
  836MOL0     C12761  13.685   7.822  -0.235  0.5126  0.1906  0.4444
  836MOL0     C12762  13.823   7.786  -0.275  0.2301 -0.1827 -1.0534
  836MOL0     C12763  13.909   7.784  -0.150 -0.1193  0.1340  0.2185
  836MOL0     C12764  14.055   7.782  -0.186 -0.7400 -0.2138  1.1624
  836MOL0     C12765  14.143   7.731  -0.066 -0.9240  0.8828 -0.9503
  836MOL0     C12766  14.295   7.722  -0.103 -0.3593 -0.2202  0.2306
  836MOL0     C12767  14.366   7.855  -0.084 -0.6174 -0.1998 -0.5990
  836MOL0     C12768  14.517   7.847  -0.123  0.4182 -0.0372  1.0559
  836MOL0    Cl12769  14.605   7.716  -0.030  0.2048  0.1328 -0.5871
  836MOL0     C12770  13.441   7.894  -0.112 -0.1853  0.2425 -0.1043
  836MOL0     C12771  13.321   7.923  -0.047  0.5110 -0.4091 -0.2166
  836MOL0     O12772  13.235   8.135   0.164 -0.4587 -0.7803  0.3833
  836MOL0     C12773  12.941   7.963   0.275  0.3235 -0.5856  0.2950
  836MOL0     C12774  12.810   7.989   0.325 -0.6946  0.5575 -0.7148
  836MOL0     N12775  12.040   8.283   0.361  0.0451 -0.1338 -0.2487
  836MOL0     N12776  11.927   8.235   0.413 -0.1714  0.0180 -1.0962
  836MOL0     C12777  11.067   8.101   1.160 -1.2093  0.4946  0.2356
  836MOL0     C12778  10.972   8.088   1.258 -0.0725  0.1930 -0.4947
  836MOL0     C12779  10.709   8.047   1.624 -0.3247  0.8510 -0.1726
  836MOL0     C12780  10.798   7.998   1.721  0.1606 -0.1581 -0.0798
  836MOL0     C12781  10.756   7.958   1.849  0.3749  1.3969  0.0672
  836MOL0     C12782  10.622   7.936   1.879  0.3390 -0.6023  0.6941
  836MOL0     O12783  10.579   7.866   1.994 -1.1226 -0.1764  0.5425
  836MOL0     C12784  10.629   7.923   2.111  0.2648 -0.0879  0.1132
  836MOL0     C12785  10.569   7.844   2.234 -0.2510  0.3751  0.3381
  836MOL0     C12786  10.413   7.872   2.235 -0.4646  0.1768  0.5338
  836MOL0     C12787  10.366   7.774   2.342 -0.0062 -0.4338  0.1028
  836MOL0     C12788  10.358   7.642   2.292  0.6032 -1.1698 -0.3232
  836MOL0     C12789  10.343   7.526   2.270  0.0266 -0.3317  0.6430
  836MOL0     C12790  10.532   7.965   1.776 -0.1839 -1.6267  0.5264
  836MOL0     C12791  10.571   8.028   1.652  0.7814  0.7380 -0.4269
  836MOL0     C12792  10.462   8.050   1.551 -0.1607 -0.7835 -0.5516
  836MOL0     H12793  11.101   8.280   1.504 -1.1792 -0.1752 -0.4526
  836MOL0     H12794  11.291   8.304   1.328 -1.0516  2.8313 -2.1309
  836MOL0     H12795  11.297   7.996   1.054 -2.3534  0.1117  0.4507
  836MOL0     H12796  11.223   8.093   0.925 -1.1047 -0.5691  1.5833
  836MOL0     H12797  11.514   8.099   0.996 -1.0902 -0.0272  1.5792
  836MOL0     H12798  11.439   8.197   0.863 -3.0399  1.2707  1.4473
  836MOL0     H12799  11.356   7.986   0.756  0.6245 -0.2079 -0.2956
  836MOL0     H12800  11.421   7.889   0.880 -1.5188 -0.3573 -0.7293
  836MOL0     H12801  11.570   7.864   0.694 -3.4189  0.8802 -0.9620
  836MOL0     H12802  11.579   8.029   0.646 -1.4424 -0.4039 -0.0739
  836MOL0     H12803  11.700   8.071   0.874 -4.4364  0.6849  0.4125
  836MOL0     H12804  11.671   7.907   0.910 -1.9689  0.8255  0.1676
  836MOL0     H12805  11.912   7.930   0.824  2.1525  2.1214 -2.6683
  836MOL0     H12806  11.817   7.824   0.730 -0.4289  0.1237 -0.4179
  836MOL0     H12807  11.819   7.981   0.542  1.1648 -0.5294 -1.1902
  836MOL0     H12808  11.977   7.996   0.624  0.4545  2.6531  0.2167
  836MOL0     H12809  11.760   8.212   0.628 -0.3942 -0.5454 -0.9486
  836MOL0     H12810  11.890   8.193   0.741 -0.3920 -3.5898  1.1290
  836MOL0     H12811  12.142   8.278   0.664  1.3437  0.2630 -1.5634
  836MOL0     H12812  12.263   8.437   0.352  3.1197 -2.3054 -1.6569
  836MOL0     H12813  12.314   8.399   0.524  1.6644  1.9567 -0.9596
  836MOL0     H12814  12.301   8.192   0.306 -0.9467 -1.0401  2.2035
  836MOL0     H12815  12.445   8.304   0.324  1.0612  0.0648  0.7431
  836MOL0     H12816  12.354   8.076   0.501 -1.4309  1.1931 -0.5125
  836MOL0     H12817  12.473   8.184   0.555 -1.2118  0.1593  1.3263
  836MOL0     H12818  12.495   8.031   0.293  1.8907 -2.9795 -0.0941
  836MOL0     H12819  12.563   7.982   0.441  2.5981  0.5190 -0.9336
  836MOL0     H12820  12.820   8.322   0.304 -0.1604 -0.4769 -1.6176
  836MOL0     H12821  13.027   8.291   0.216 -0.3511  1.1147  0.3415
  836MOL0     H12822  13.362   7.728   0.233  1.7447 -3.1694 -1.1635
  836MOL0     H12823  13.565   7.651   0.096  0.1295  0.1846  4.3046
  836MOL0     H12824  13.612   7.807  -0.316 -1.0384 -2.3289  2.1723
  836MOL0     H12825  13.692   7.931  -0.226  3.2308 -0.0154  1.8393
  836MOL0     H12826  13.822   7.692  -0.331 -4.0545 -0.2540 -1.1249
  836MOL0     H12827  13.870   7.851  -0.350 -0.2244 -1.4138 -2.4517
  836MOL0     H12828  13.901   7.880  -0.098  2.8603  1.7301 -2.0223
  836MOL0     H12829  13.877   7.702  -0.084 -1.2061  0.1504 -0.2602
  836MOL0     H12830  14.091   7.881  -0.214  2.4952 -1.2127  1.2926
  836MOL0     H12831  14.078   7.725  -0.276 -0.1486  2.8108 -0.7383
  836MOL0     H12832  14.104   7.635  -0.030 -0.6776  1.8281  2.1287
  836MOL0     H12833  14.130   7.797   0.020  0.9431 -0.0628  0.1183
  836MOL0     H12834  14.345   7.642  -0.049 -1.0782  0.6173  2.2238
  836MOL0     H12835  14.299   7.696  -0.209 -0.1986 -0.5787  0.3213
  836MOL0     H12836  14.364   7.885   0.021  1.6351  0.0294 -0.5545
  836MOL0     H12837  14.317   7.934  -0.141  2.1814  1.0700 -1.4293
  836MOL0     H12838  14.537   7.849  -0.230 -1.3308 -0.2220  0.6983
  836MOL0     H12839  14.559   7.941  -0.085 -1.9242  0.1600  3.4680
  836MOL0     H12840  13.459   7.949  -0.204 -1.4641  0.4029 -0.2780
  836MOL0     H12841  13.251   7.993  -0.091  0.0477  0.1022  1.2663
  836MOL0     H12842  12.973   7.860   0.279  2.4208  0.0350  1.2022
  836MOL0     H12843  12.760   7.908   0.377 -1.2328  1.1124 -0.3483
  836MOL0     H12844  11.068   8.041   1.070  1.7144 -3.2856  2.4554
  836MOL0     H12845  10.883   8.027   1.242 -1.6520  2.5811 -1.5461
  836MOL0     H12846  10.905   8.008   1.707 -0.1892  2.0431 -1.6613
  836MOL0     H12847  10.827   7.931   1.926 -0.7513 -1.0621  0.3318
  836MOL0     H12848  10.593   8.025   2.126 -1.3243 -0.9002  2.5328
  836MOL0     H12849  10.739   7.931   2.110  0.1412  2.2278 -1.1194
  836MOL0     H12850  10.614   7.884   2.326  2.4410 -0.3627 -0.5555
  836MOL0     H12851  10.603   7.742   2.211  0.3215  0.7130 -0.3752
  836MOL0     H12852  10.355   7.851   2.145 -1.2778  0.2004  1.0453
  836MOL0     H12853  10.391   7.975   2.267 -2.3081 -1.1453  3.9971
  836MOL0     H12854  10.431   7.786   2.429 -0.4734  0.6512  0.3192
  836MOL0     H12855  10.265   7.804   2.371 -0.9842 -2.4223 -1.0054
  836MOL0     H12856  10.316   7.424   2.251  1.8370 -0.7477  0.1703
  836MOL0     H12857  10.425   7.949   1.775 -0.4905  0.0980 -0.9269
  836MOL0     H12858  10.361   8.054   1.593 -0.4481  2.3956 -1.3413
  836MOL0     H12859  10.477   8.147   1.503  0.3874 -0.4016  0.3620
  836MOL0     H12860  10.464   7.975   1.472 -4.3719 -0.6230 -1.0560
  837MOL0     O12861   7.854   5.679   0.429 -0.4094  0.5882 -0.6847
  837MOL0     C12862   7.751   5.613   0.421 -0.0956  0.6061 -0.7552
  837MOL0     O12863   7.742   5.476   0.431 -0.1251 -0.5017 -0.2376
  837MOL0     C12864   7.842   5.407   0.493  0.1670 -0.3041  0.2868
  837MOL0     C12865   7.858   5.269   0.467 -0.0483  0.1584 -0.4500
  837MOL0     C12866   7.952   5.193   0.544  0.3848  0.2005  0.5678
  837MOL0     C12867   8.014   5.253   0.650  0.3898  1.0602  0.0238
  837MOL0     O12868   8.098   5.196   0.742 -0.0238 -0.2340 -0.0947
  837MOL0     C12869   8.142   5.065   0.714  0.2471 -0.0264  0.3888
  837MOL0     C12870   8.267   5.037   0.802  0.0012  0.1519  0.2146
  837MOL0     C12871   8.283   5.120   0.926 -0.4752  0.2485  0.5251
  837MOL0     C12872   8.416   5.090   0.994  0.7150  0.4279  0.3253
  837MOL0     C12873   8.445   5.199   1.106 -0.7886 -0.3472  0.4609
  837MOL0     C12874   8.569   5.168   1.191 -0.0497  0.4266  0.0945
  837MOL0     C12875   8.705   5.190   1.110  0.3336 -0.4500  0.0592
  837MOL0     C12876   8.831   5.152   1.200  0.3458 -0.5277 -0.6096
  837MOL0     N12877   8.954   5.124   1.135 -0.4527 -1.4784  0.2904
  837MOL0     C12878   9.073   5.123   1.204 -0.1502 -0.1812  0.5668
  837MOL0     C12879   9.159   5.072   1.117 -1.1496 -0.5081  0.1501
  837MOL0     C12880   9.305   5.037   1.146  0.3878  0.0340 -0.7367
  837MOL0     C12881   9.403   5.151   1.132 -0.6426 -0.2148  0.5743
  837MOL0     C12882   9.430   5.200   0.985  0.1794  0.8942 -0.5195
  837MOL0     C12883   9.523   5.317   0.989 -0.4177  0.6822  0.4597
  837MOL0     O12884   9.483   5.433   1.068  0.0160  0.8767  0.0594
  837MOL0     C12885   9.418   5.533   0.999  0.8267 -0.4834  0.7418
  837MOL0     C12886   9.353   5.520   0.873  0.1081  0.1102 -0.8006
  837MOL0     C12887   9.285   5.637   0.825 -0.1659 -0.4282  1.0337
  837MOL0     C12888   9.287   5.759   0.896  0.4196 -0.1251  0.2163
  837MOL0     C12889   9.225   5.889   0.842  0.1081  0.1064 -0.1738
  837MOL0     O12890   9.137   5.877   0.746  1.0857  0.2523  1.0425
  837MOL0     C12891   9.077   5.997   0.704 -0.4039  0.5887  0.4835
  837MOL0     C12892   9.146   6.087   0.625 -0.0514 -0.4794 -0.0663
  837MOL0     C12893   9.073   6.191   0.563 -0.5882 -0.1650  0.1709
  837MOL0     C12894   8.934   6.193   0.571 -0.7599 -0.0933 -0.6059
  837MOL0     O12895   8.855   6.290   0.513 -0.0584 -0.3450  0.4881
  837MOL0     C12896   8.886   6.429   0.546 -0.3136 -0.3024 -0.7848
  837MOL0     C12897   8.843   6.509   0.417  0.3608 -0.7771  0.7548
  837MOL0     C12898   8.948   6.500   0.310 -0.8093 -0.1269 -0.6156
  837MOL0     C12899   8.901   6.432   0.182 -0.1057 -0.1170 -0.3244
  837MOL0     C12900   9.007   6.438   0.067  0.5916 -0.0944 -0.2704
  837MOL0     C12901   9.140   6.384   0.105  0.0968  0.6039 -1.1551
  837MOL0     C12902   9.246   6.394  -0.003 -0.2572 -0.0386 -0.2677
  837MOL0     C12903   9.358   6.303   0.030  0.1410  0.0228  0.9973
  837MOL0    Cl12904   9.484   6.322  -0.102 -0.2257 -0.1641 -0.1463
  837MOL0     C12905   8.868   6.089   0.645 -0.0768  0.1720  0.2804
  837MOL0     C12906   8.943   6.001   0.720  1.1954 -0.6612 -0.0224
  837MOL0     O12907   9.273   5.995   0.888  0.2377 -0.5960 -0.2505
  837MOL0     C12908   9.358   5.764   1.020 -0.1896  0.2856 -0.4989
  837MOL0     C12909   9.412   5.651   1.067 -0.2501 -0.0748 -0.2712
  837MOL0     N12910   9.100   5.038   0.995  0.1208 -1.0384  0.9238
  837MOL0     N12911   8.973   5.068   1.011  0.1765 -0.5593  0.0495
  837MOL0     C12912   7.990   5.385   0.682 -1.6011  0.1867  0.4126
  837MOL0     C12913   7.906   5.461   0.602 -0.5312  0.2338 -0.7535
  837MOL0     C12914   7.615   5.676   0.401 -0.0304 -0.0818  0.6219
  837MOL0     C12915   7.507   5.596   0.350 -0.8852 -0.3478 -0.0355
  837MOL0     C12916   7.379   5.650   0.337  0.0179  0.1220  0.4430
  837MOL0     C12917   7.342   5.780   0.373  0.0993 -0.5871 -1.9404
  837MOL0     O12918   7.217   5.832   0.371 -0.6103  0.0660  0.0372
  837MOL0     C12919   7.111   5.754   0.326  0.0004 -0.7574  0.5824
  837MOL0     C12920   6.985   5.831   0.357  0.1712 -0.7990  0.0439
  837MOL0     C12921   6.966   5.950   0.261 -0.2635  0.0159  0.4603
  837MOL0     C12922   6.836   6.038   0.284  1.0073  0.6005 -0.0064
  837MOL0     C12923   6.721   5.974   0.216 -0.0528  0.0673  0.8429
  837MOL0     C12924   6.622   5.946   0.157 -0.1286 -0.0117  0.6021
  837MOL0     C12925   7.452   5.868   0.411 -0.9306  0.8816 -0.2793
  837MOL0     C12926   7.587   5.812   0.426  0.5851  0.7841 -0.0141
  837MOL0     C12927   7.680   5.906   0.490 -0.1510  0.1069  1.3517
  837MOL0     H12928   7.804   5.226   0.383  0.0793  0.5866 -0.7501
  837MOL0     H12929   7.973   5.093   0.509 -3.3774 -0.3899 -0.5191
  837MOL0     H12930   8.060   4.998   0.742  0.5591  0.6202  3.1208
  837MOL0     H12931   8.167   5.049   0.609 -0.1517 -0.9359  0.4161
  837MOL0     H12932   8.356   5.049   0.739 -0.0043  2.2041  0.5367
  837MOL0     H12933   8.254   4.930   0.822  3.9332 -1.3202 -3.5209
  837MOL0     H12934   8.205   5.090   0.997 -0.2948 -0.1397  0.5643
  837MOL0     H12935   8.276   5.224   0.893  0.4900  0.3629  0.6696
  837MOL0     H12936   8.428   4.991   1.040  1.5813 -0.0284 -0.8442
  837MOL0     H12937   8.492   5.105   0.917 -1.4914 -1.8094 -2.5016
  837MOL0     H12938   8.456   5.300   1.065  4.6536 -1.0135 -0.4538
  837MOL0     H12939   8.364   5.210   1.178 -1.2253 -0.0955 -0.0620
  837MOL0     H12940   8.566   5.230   1.280  2.0933  0.5250  0.1455
  837MOL0     H12941   8.558   5.064   1.224 -3.5712 -0.6843 -3.6942
  837MOL0     H12942   8.704   5.290   1.066 -0.8914 -0.4059  0.1418
  837MOL0     H12943   8.713   5.127   1.021  0.8460  0.1655 -0.3383
  837MOL0     H12944   8.847   5.241   1.261  2.7614 -1.4945  0.2890
  837MOL0     H12945   8.815   5.066   1.267  2.0474  0.8106  1.6767
  837MOL0     H12946   9.079   5.155   1.308 -0.0274  0.5342  0.3463
  837MOL0     H12947   9.306   4.987   1.243  0.0022  0.5287 -0.4756
  837MOL0     H12948   9.339   4.961   1.074 -1.0160  1.1942 -2.7173
  837MOL0     H12949   9.372   5.233   1.198  2.3097  1.4831  0.0388
  837MOL0     H12950   9.499   5.125   1.177 -0.6456  0.0622  0.7417
  837MOL0     H12951   9.339   5.235   0.936 -1.0202 -0.6356  0.5096
  837MOL0     H12952   9.467   5.117   0.924 -1.6737 -0.6191  0.3244
  837MOL0     H12953   9.546   5.342   0.885  2.7067 -0.0574  0.8902
  837MOL0     H12954   9.622   5.288   1.025  0.3834  1.6912 -0.8316
  837MOL0     H12955   9.350   5.423   0.825  0.0943 -1.5556  2.2535
  837MOL0     H12956   9.216   5.638   0.740  1.9978  0.3396 -0.8151
  837MOL0     H12957   9.251   6.066   0.611 -0.0502 -1.1470  0.8689
  837MOL0     H12958   9.128   6.263   0.503  0.9082  0.3752  2.0980
  837MOL0     H12959   8.827   6.454   0.634 -0.0059 -0.4510 -0.5347
  837MOL0     H12960   8.992   6.443   0.568  0.2957 -2.3561 -2.1274
  837MOL0     H12961   8.750   6.465   0.380  0.3723  0.2070 -0.4916
  837MOL0     H12962   8.827   6.614   0.443  1.0588 -0.3619 -0.3904
  837MOL0     H12963   8.973   6.601   0.276  1.4714 -1.2412 -2.5122
  837MOL0     H12964   9.041   6.461   0.352 -0.4482  2.2105  0.9503
  837MOL0     H12965   8.805   6.474   0.150 -0.6325 -0.1897  1.0972
  837MOL0     H12966   8.894   6.325   0.206 -2.2692  0.6365  3.0140
  837MOL0     H12967   9.031   6.542   0.044  1.1674  0.4307  2.3264
  837MOL0     H12968   8.970   6.389  -0.023 -0.5859  0.4969 -0.1234
  837MOL0     H12969   9.176   6.430   0.197 -0.2473 -2.0534  0.4320
  837MOL0     H12970   9.126   6.276   0.122 -1.3533  0.8340 -0.7719
  837MOL0     H12971   9.287   6.494   0.010 -0.8019 -0.0057  1.4261
  837MOL0     H12972   9.210   6.381  -0.106 -0.8390 -1.6623  0.1117
  837MOL0     H12973   9.398   6.329   0.128 -1.3764  0.6210  1.4873
  837MOL0     H12974   9.317   6.202   0.043 -0.2527  0.0004 -0.2148
  837MOL0     H12975   8.759   6.091   0.650 -0.1707  3.1110 -1.0220
  837MOL0     H12976   8.887   5.931   0.781 -1.4914  0.6832 -0.7941
  837MOL0     H12977   9.370   5.853   1.082  1.1330 -1.3347  1.7498
  837MOL0     H12978   9.447   5.648   1.170 -1.8499 -0.7447  0.2904
  837MOL0     H12979   8.033   5.435   0.769 -2.5429 -0.4083  1.2519
  837MOL0     H12980   7.871   5.546   0.659 -4.8812 -0.4474 -2.0958
  837MOL0     H12981   7.510   5.490   0.327 -2.1994 -0.3256 -0.3857
  837MOL0     H12982   7.297   5.582   0.314  0.3829 -0.3884  0.6507
  837MOL0     H12983   7.098   5.658   0.376 -0.6395 -0.6451  0.6504
  837MOL0     H12984   7.109   5.749   0.217  0.5706 -2.5364  0.6294
  837MOL0     H12985   6.986   5.862   0.462 -0.6763  0.0154 -0.1688
  837MOL0     H12986   6.904   5.766   0.323 -0.5869  0.1512 -0.0220
  837MOL0     H12987   6.972   5.910   0.159 -1.4267  0.8829  0.0307
  837MOL0     H12988   7.053   6.016   0.273  1.3197 -1.2615 -2.8590
  837MOL0     H12989   6.807   6.048   0.389 -1.6441 -0.5221 -0.5669
  837MOL0     H12990   6.856   6.140   0.249  1.1117  0.2011 -1.1336
  837MOL0     H12991   6.526   5.926   0.114  0.6156 -1.4429 -0.5002
  837MOL0     H12992   7.420   5.968   0.440 -1.8051  0.1239  1.5618
  837MOL0     H12993   7.625   5.980   0.549  1.2211  0.8541  1.7269
  837MOL0     H12994   7.749   5.855   0.558  0.0696 -0.4202  0.7466
  837MOL0     H12995   7.734   5.952   0.407 -2.4442  0.0479 -0.2800
  838MOL0     O12996  10.497   9.104   3.179  0.6711 -0.9961 -0.1862
  838MOL0     C12997  10.454   9.207   3.224 -0.3303 -1.0345  0.2386
  838MOL0     O12998  10.526   9.324   3.218 -0.1211  0.4727  0.2447
  838MOL0     C12999  10.643   9.332   3.138 -0.6051  0.1557  0.4910
  838MOL0     C13000  10.637   9.381   3.007 -0.2322 -0.3103  0.6155
  838MOL0     C13001  10.756   9.406   2.942 -0.4271 -0.3358 -0.6172
  838MOL0     C13002  10.876   9.378   3.000 -0.1407  0.0728  0.2588
  838MOL0     O13003  10.988   9.394   2.922  0.3680 -0.2822  0.0272
  838MOL0     C13004  11.116   9.369   2.977 -0.4247  0.3473  0.2321
  838MOL0     C13005  11.223   9.369   2.865 -0.0854 -0.7671  0.9038
  838MOL0     C13006  11.263   9.511   2.814  0.0871 -0.3297  0.0438
  838MOL0     C13007  11.368   9.496   2.709 -0.6088 -0.4567  0.0086
  838MOL0     C13008  11.509   9.500   2.766 -0.1761 -0.2033 -0.3583
  838MOL0     C13009  11.603   9.472   2.652 -0.1970  0.4923  0.6659
  838MOL0     C13010  11.750   9.482   2.677  0.0290  0.1213 -0.2073
  838MOL0     C13011  11.833   9.419   2.567 -0.2371  0.0724 -0.6597
  838MOL0     N13012  11.975   9.447   2.592  0.2154  0.4380  0.7014
  838MOL0     C13013  12.061   9.519   2.513 -0.2479  0.5375  0.2414
  838MOL0     C13014  12.178   9.507   2.572  0.2498  1.4720 -0.5590
  838MOL0     C13015  12.302   9.579   2.522 -0.4841  0.8931  0.0959
  838MOL0     C13016  12.303   9.720   2.556 -0.3467 -0.8584  0.2707
  838MOL0     C13017  12.300   9.733   2.709  0.5241 -0.8476 -0.9835
  838MOL0     C13018  12.314   9.875   2.772 -0.5430 -0.0824  0.4428
  838MOL0     O13019  12.410   9.963   2.701 -0.4741  0.3630  0.2920
  838MOL0     C13020  12.547   9.936   2.710  0.2377  0.1334  1.6025
  838MOL0     C13021  12.615   9.836   2.773 -0.0969  0.1264 -0.0009
  838MOL0     C13022  12.754   9.820   2.785  0.0862 -0.5504  0.0707
  838MOL0     C13023  12.833   9.914   2.725 -0.2240  0.8110  0.0954
  838MOL0     C13024  12.982   9.905   2.743 -0.4278  0.0494 -0.3474
  838MOL0     O13025  13.061   9.966   2.651  0.2608 -0.1925  0.3663
  838MOL0     C13026  13.195   9.957   2.665  0.4141  0.2667 -0.6885
  838MOL0     C13027  13.281   9.880   2.591 -0.4596  0.1652  0.0129
  838MOL0     C13028  13.422   9.874   2.614 -0.2003 -0.1543 -0.8932
  838MOL0     C13029  13.480   9.964   2.706  0.5818  0.3708 -0.4483
  838MOL0     O13030  13.617   9.959   2.722 -0.1710 -0.1509 -0.5931
  838MOL0     C13031  13.683  10.071   2.789 -0.3848 -0.2770 -0.2320
  838MOL0     C13032  13.827  10.059   2.764 -1.4796  0.2616  0.3179
  838MOL0     C13033  13.885  10.196   2.803  0.6325 -0.1762 -0.4502
  838MOL0     C13034  14.037  10.195   2.838 -0.5221  0.0124  0.5967
  838MOL0     C13035  14.080  10.328   2.908 -0.2611  0.9469 -1.1560
  838MOL0     C13036  14.234  10.313   2.903  0.7244 -0.1476 -0.2320
  838MOL0     C13037  14.293  10.427   2.985 -0.5570 -0.3187  0.1598
  838MOL0     C13038  14.437  10.390   3.021 -0.2857 -0.6243  0.6557
  838MOL0    Cl13039  14.547  10.402   2.869  0.1340  0.2332 -0.1568
  838MOL0     C13040  13.394  10.050   2.780 -0.2547 -0.5978 -0.3365
  838MOL0     C13041  13.259  10.042   2.764  1.4083  0.2469  0.4597
  838MOL0     O13042  13.025   9.846   2.841 -0.2150  0.2994  0.3782
  838MOL0     C13043  12.775  10.012   2.642  1.1206  0.1222  0.0858
  838MOL0     C13044  12.627  10.021   2.628 -0.4480 -0.8445 -0.7945
  838MOL0     N13045  12.165   9.428   2.687  0.3848 -0.2025  0.9429
  838MOL0     N13046  12.039   9.398   2.702 -0.4114 -0.4098  0.0423
  838MOL0     C13047  10.883   9.338   3.131 -1.0584 -0.1856  0.0783
  838MOL0     C13048  10.770   9.304   3.202  0.3251 -0.4136  0.2224
  838MOL0     C13049  10.316   9.199   3.289 -0.8459 -0.0085  0.6491
  838MOL0     C13050  10.252   9.320   3.314 -0.2421  0.3691  0.5910
  838MOL0     C13051  10.119   9.324   3.362 -0.2546 -0.4835 -0.8793
  838MOL0     C13052  10.055   9.201   3.399 -0.8181 -0.7899 -0.0504
  838MOL0     O13053   9.925   9.193   3.437  0.1409 -0.0493 -0.7993
  838MOL0     C13054   9.880   9.287   3.530 -0.4220  0.0995  0.1310
  838MOL0     C13055   9.785   9.389   3.463 -0.4032  0.1962  0.6098
  838MOL0     C13056   9.665   9.321   3.408  0.0534  1.0539  0.3054
  838MOL0     C13057   9.584   9.417   3.319 -0.7664  0.0468 -0.2572
  838MOL0     C13058   9.447   9.379   3.318 -0.0792 -0.1519  0.4370
  838MOL0     C13059   9.330   9.344   3.308  0.5713  0.3946 -0.2697
  838MOL0     C13060  10.118   9.080   3.375  0.9323  0.5020 -0.2329
  838MOL0     C13061  10.248   9.075   3.317  0.4404  0.1900  0.1645
  838MOL0     C13062  10.302   8.942   3.283 -0.3771 -0.0731 -0.5505
  838MOL0     H13063  10.545   9.411   2.958  0.3464  2.3402  1.0364
  838MOL0     H13064  10.756   9.437   2.838 -2.6719  0.1876 -0.5252
  838MOL0     H13065  11.138   9.439   3.059  0.3048  0.7385 -0.2803
  838MOL0     H13066  11.114   9.267   3.016 -1.5467  0.1348 -0.3458
  838MOL0     H13067  11.179   9.315   2.781 -0.6458  1.2860 -0.2192
  838MOL0     H13068  11.306   9.314   2.910 -0.4676 -2.7622 -0.6834
  838MOL0     H13069  11.292   9.579   2.895 -0.5745 -0.8371  0.7164
  838MOL0     H13070  11.174   9.558   2.772 -0.7467 -1.9109 -0.0235
  838MOL0     H13071  11.354   9.398   2.664 -0.1716  0.1149 -1.4286
  838MOL0     H13072  11.353   9.565   2.626 -1.1023 -2.0306 -1.2516
  838MOL0     H13073  11.529   9.605   2.788  0.5872  0.2218 -2.7280
  838MOL0     H13074  11.524   9.423   2.842  1.1276 -3.4084 -3.5566
  838MOL0     H13075  11.587   9.368   2.624  0.2669  0.6404 -0.2067
  838MOL0     H13076  11.576   9.533   2.565  2.3110  1.6342  0.5802
  838MOL0     H13077  11.772   9.425   2.767 -1.2182 -0.8958 -0.5102
  838MOL0     H13078  11.786   9.585   2.683  1.5495 -0.4599  1.2051
  838MOL0     H13079  11.810   9.312   2.567  1.6358 -0.3650  0.2587
  838MOL0     H13080  11.815   9.453   2.465  1.4445 -2.8769 -2.0647
  838MOL0     H13081  12.037   9.589   2.434 -0.7237  0.6839  0.5184
  838MOL0     H13082  12.383   9.519   2.564  0.8199  2.8858  0.5827
  838MOL0     H13083  12.294   9.565   2.413 -1.7872 -3.5334  0.5846
  838MOL0     H13084  12.386   9.769   2.506 -1.1238 -0.0573 -0.2716
  838MOL0     H13085  12.213   9.762   2.509  0.9542 -0.7863 -2.2885
  838MOL0     H13086  12.377   9.668   2.751  1.2223  1.7774  2.2083
  838MOL0     H13087  12.206   9.698   2.751 -0.0915  2.3277  0.5956
  838MOL0     H13088  12.336   9.850   2.876 -2.5376 -0.4764  0.8098
  838MOL0     H13089  12.210   9.909   2.764 -0.6840 -0.7861 -1.0443
  838MOL0     H13090  12.559   9.762   2.829  0.1729 -0.9688 -1.1294
  838MOL0     H13091  12.806   9.750   2.850  2.1061  0.8606  0.0736
  838MOL0     H13092  13.239   9.818   2.513 -1.0767  4.0402 -3.0587
  838MOL0     H13093  13.478   9.803   2.554 -0.4245 -1.3243  0.2143
  838MOL0     H13094  13.647  10.160   2.736 -1.1594  1.4265  2.8811
  838MOL0     H13095  13.662  10.067   2.896 -0.4079  0.4453 -0.2016
  838MOL0     H13096  13.875   9.982   2.826 -3.0090 -1.0562 -0.0818
  838MOL0     H13097  13.856  10.041   2.660  1.6910  0.4461  1.0586
  838MOL0     H13098  13.858  10.262   2.720 -1.2660 -0.9105 -0.4609
  838MOL0     H13099  13.845  10.240   2.896  0.3828  0.8817 -1.0432
  838MOL0     H13100  14.086  10.182   2.741 -1.1151 -2.8725  0.5817
  838MOL0     H13101  14.065  10.106   2.896  0.9246 -1.3926 -2.0700
  838MOL0     H13102  14.049  10.321   3.013  2.1831  1.0365 -0.3645
  838MOL0     H13103  14.053  10.419   2.854  0.2328  1.1286 -1.1015
  838MOL0     H13104  14.260  10.219   2.952 -1.1136  0.0678  1.2768
  838MOL0     H13105  14.261  10.306   2.797 -1.2771  0.9108 -0.8655
  838MOL0     H13106  14.238  10.442   3.079  1.1111  0.6372  1.0466
  838MOL0     H13107  14.288  10.517   2.923 -2.0051  0.1736  0.9470
  838MOL0     H13108  14.483  10.462   3.090 -0.6609  1.3710 -1.0942
  838MOL0     H13109  14.443  10.289   3.064 -2.4249 -0.7707  0.7141
  838MOL0     H13110  13.434  10.116   2.856 -0.4321  2.1850 -2.4908
  838MOL0     H13111  13.188  10.096   2.826 -0.9524  0.3129 -2.1139
  838MOL0     H13112  12.830  10.088   2.588  1.2790 -0.4780 -0.6110
  838MOL0     H13113  12.590  10.100   2.564  2.2448  0.3444 -0.9920
  838MOL0     H13114  10.981   9.330   3.177  0.6448  0.7743 -3.1219
  838MOL0     H13115  10.764   9.281   3.307 -1.3933  3.4793  1.1627
  838MOL0     H13116  10.305   9.409   3.281  2.2421 -0.8091  1.1832
  838MOL0     H13117  10.085   9.426   3.371 -0.5858 -0.2314 -3.7816
  838MOL0     H13118   9.969   9.330   3.578  1.0860 -1.9569 -0.6840
  838MOL0     H13119   9.835   9.238   3.617  2.6125 -1.5673  0.9359
  838MOL0     H13120   9.834   9.444   3.383 -1.4769 -0.5219 -0.5815
  838MOL0     H13121   9.748   9.467   3.530 -0.5916  0.6521 -0.0178
  838MOL0     H13122   9.599   9.289   3.489 -1.0054  0.3006 -0.8114
  838MOL0     H13123   9.692   9.235   3.346 -3.0438  0.3039 -0.1707
  838MOL0     H13124   9.594   9.517   3.364 -0.0495  0.3930 -1.1502
  838MOL0     H13125   9.615   9.408   3.215 -0.2207 -0.7249 -0.0357
  838MOL0     H13126   9.228   9.311   3.304 -0.1155  2.4921 -1.0664
  838MOL0     H13127  10.057   9.001   3.416  2.3171  0.3699  1.7484
  838MOL0     H13128  10.404   8.927   3.319  1.1350 -2.2975 -4.9371
  838MOL0     H13129  10.232   8.861   3.308 -0.3865  0.4714  1.2960
  838MOL0     H13130  10.311   8.933   3.174 -1.5935 -0.0410 -0.6752
  839MOL0     O13131   0.785   8.235   5.446 -0.6144  0.0408 -0.0785
  839MOL0     C13132   0.793   8.129   5.505  0.1180  0.4016 -0.2535
  839MOL0     O13133   0.888   8.036   5.484 -0.3361  0.5850 -0.6097
  839MOL0     C13134   1.018   8.068   5.451  0.4821 -0.2840  0.7879
  839MOL0     C13135   1.093   7.965   5.402 -1.0638 -0.1059 -0.5095
  839MOL0     C13136   1.230   7.984   5.369  0.2288 -0.4593  0.9378
  839MOL0     C13137   1.293   8.108   5.380  0.9297 -0.4179  0.0961
  839MOL0     O13138   1.421   8.141   5.349  0.1115 -0.8458  0.5724
  839MOL0     C13139   1.512   8.034   5.344 -0.8508  0.0150 -0.2486
  839MOL0     C13140   1.652   8.097   5.337  0.2928  0.6746  0.5577
  839MOL0     C13141   1.764   8.012   5.399 -0.1096 -0.4876 -1.2407
  839MOL0     C13142   1.770   7.873   5.331  0.7919 -0.2707  0.2569
  839MOL0     C13143   1.875   7.778   5.380 -0.5197  0.1708  0.0209
  839MOL0     C13144   1.870   7.653   5.299 -0.2926 -0.4974  0.7019
  839MOL0     C13145   1.994   7.564   5.316 -0.7428 -1.0899 -0.3909
  839MOL0     C13146   2.133   7.617   5.264  0.2164 -0.1174  0.5267
  839MOL0     N13147   2.142   7.592   5.117 -0.2966  0.0407 -0.5570
  839MOL0     C13148   2.181   7.472   5.057 -0.3259 -0.4777 -0.1662
  839MOL0     C13149   2.169   7.495   4.924  0.1970 -0.2804 -0.2384
  839MOL0     C13150   2.188   7.405   4.816  0.9906 -0.5395 -0.3480
  839MOL0     C13151   2.329   7.364   4.790 -0.9573  0.3455 -0.2519
  839MOL0     C13152   2.416   7.453   4.695  0.1330 -1.1101  0.5951
  839MOL0     C13153   2.544   7.373   4.676  0.2607  0.1626 -0.1186
  839MOL0     O13154   2.646   7.447   4.605 -0.6251  0.4903  0.3452
  839MOL0     C13155   2.768   7.395   4.601 -1.2039 -0.5052  0.0363
  839MOL0     C13156   2.861   7.465   4.521  0.2981 -0.4750  0.1856
  839MOL0     C13157   2.997   7.422   4.504  0.0092  0.0355 -0.0818
  839MOL0     C13158   3.026   7.293   4.551  0.0883  0.5983 -1.2576
  839MOL0     C13159   3.159   7.225   4.539 -0.1023 -0.9915 -0.1898
  839MOL0     O13160   3.244   7.285   4.453  0.5019  0.2977  0.1455
  839MOL0     C13161   3.367   7.229   4.438  0.6034  1.2570 -1.0134
  839MOL0     C13162   3.489   7.271   4.492  1.1505  0.2360 -0.5615
  839MOL0     C13163   3.613   7.216   4.459  0.1743 -0.1837 -0.2697
  839MOL0     C13164   3.617   7.122   4.360  1.0080  0.9639  0.1310
  839MOL0     O13165   3.739   7.057   4.343  0.7846 -0.0576  0.4208
  839MOL0     C13166   3.867   7.127   4.352 -0.3563  0.0083  0.4561
  839MOL0     C13167   3.979   7.040   4.361 -0.6677 -0.8130  0.6948
  839MOL0     C13168   4.017   6.982   4.224 -0.6642 -0.2227 -0.5852
  839MOL0     C13169   4.063   7.085   4.121  0.0909 -0.5357 -0.3063
  839MOL0     C13170   4.163   7.012   4.029  0.4630 -0.1708 -0.1278
  839MOL0     C13171   4.212   7.108   3.925 -0.3394 -0.1018  0.3874
  839MOL0     C13172   4.313   7.040   3.828 -0.1544 -0.3137 -0.0529
  839MOL0     C13173   4.415   7.139   3.792  0.5307  0.6185 -0.7616
  839MOL0    Cl13174   4.367   7.267   3.688 -0.0601 -0.2474 -0.3116
  839MOL0     C13175   3.504   7.072   4.304  0.7022  0.2933 -0.8045
  839MOL0     C13176   3.377   7.124   4.338 -0.6003  0.0541 -1.5654
  839MOL0     O13177   3.186   7.125   4.602 -0.3240  0.2647 -0.1782
  839MOL0     C13178   2.931   7.226   4.637  0.6407  0.1602  0.6560
  839MOL0     C13179   2.798   7.271   4.654  0.3248  0.0483  0.0943
  839MOL0     N13180   2.141   7.638   4.910  0.6055  0.0947  0.0942
  839MOL0     N13181   2.116   7.694   5.032 -0.6627 -0.2299  0.3732
  839MOL0     C13182   1.205   8.213   5.421  0.1722  0.3328 -0.0851
  839MOL0     C13183   1.071   8.195   5.460  0.1053 -0.1876 -0.3494
  839MOL0     C13184   0.683   8.077   5.582  0.9559 -0.6909 -0.0477
  839MOL0     C13185   0.554   8.141   5.575  0.9710  0.2723 -0.7089
  839MOL0     C13186   0.433   8.087   5.636  0.4216 -0.5758  0.4272
  839MOL0     C13187   0.450   7.974   5.725  1.3311 -0.2649  0.1941
  839MOL0     O13188   0.336   7.930   5.784 -0.0058 -0.1146 -0.3292
  839MOL0     C13189   0.323   7.788   5.792  0.8599 -1.6561  0.6873
  839MOL0     C13190   0.176   7.741   5.801  0.0038  0.9792  0.3838
  839MOL0     C13191   0.096   7.784   5.672  0.7709  0.1800 -0.9320
  839MOL0     C13192  -0.050   7.715   5.659 -0.9485 -0.0725 -0.3282
  839MOL0     C13193  -0.150   7.809   5.597 -0.0582  0.0735  0.9883
  839MOL0     C13194  -0.234   7.879   5.554 -0.3758  1.0092 -0.0293
  839MOL0     C13195   0.574   7.913   5.742 -1.0165 -0.9367 -0.8727
  839MOL0     C13196   0.694   7.973   5.680 -0.4373  0.4975 -0.1185
  839MOL0     C13197   0.826   7.922   5.723  0.9266  0.8677  0.5728
  839MOL0     H13198   1.048   7.867   5.408  2.9493 -2.1285 -0.0461
  839MOL0     H13199   1.301   7.904   5.350  0.0385 -0.5981  0.8008
  839MOL0     H13200   1.516   7.973   5.434  2.1582 -0.3139 -0.4974
  839MOL0     H13201   1.499   7.978   5.251  0.4396  1.8055 -1.5953
  839MOL0     H13202   1.656   8.189   5.396  0.9355 -0.9197  3.2112
  839MOL0     H13203   1.686   8.118   5.235 -0.9543 -0.6237 -0.1539
  839MOL0     H13204   1.755   7.994   5.506  1.3660  2.5295 -0.4885
  839MOL0     H13205   1.855   8.072   5.386 -0.3679  0.3225  0.4604
  839MOL0     H13206   1.668   7.832   5.332 -0.2130  2.0469  1.6310
  839MOL0     H13207   1.785   7.883   5.223 -1.6721 -1.8304 -0.3187
  839MOL0     H13208   1.971   7.829   5.368 -0.7164  0.3173 -1.0674
  839MOL0     H13209   1.858   7.748   5.484  2.6930 -1.5934  0.1480
  839MOL0     H13210   1.773   7.606   5.313 -0.4940 -0.1705  0.4324
  839MOL0     H13211   1.877   7.679   5.193 -0.4212 -2.4075  0.1844
  839MOL0     H13212   1.973   7.474   5.258 -2.3660 -1.9844  1.4781
  839MOL0     H13213   2.001   7.530   5.420 -2.1192 -0.2008  0.0344
  839MOL0     H13214   2.149   7.721   5.294 -2.0675  0.4608 -0.0192
  839MOL0     H13215   2.207   7.555   5.313 -1.6838 -0.6488  2.9022
  839MOL0     H13216   2.202   7.381   5.111 -0.6071 -0.3962  0.0851
  839MOL0     H13217   2.129   7.315   4.832  0.1416 -0.0905 -0.8707
  839MOL0     H13218   2.147   7.460   4.731  1.8486  0.3185 -0.2249
  839MOL0     H13219   2.380   7.350   4.885 -0.9854  0.4581 -0.2204
  839MOL0     H13220   2.321   7.269   4.736  0.8372  0.4143 -0.6880
  839MOL0     H13221   2.454   7.544   4.741 -0.7273  0.5109 -1.7248
  839MOL0     H13222   2.372   7.473   4.597 -1.3377 -2.1369  1.0013
  839MOL0     H13223   2.525   7.276   4.630 -0.3911  0.7710 -1.1561
  839MOL0     H13224   2.586   7.370   4.777 -1.5904  0.1507  0.6872
  839MOL0     H13225   2.828   7.556   4.473  4.5195  0.8915 -0.5521
  839MOL0     H13226   3.059   7.480   4.437 -1.0258  3.4989  1.7293
  839MOL0     H13227   3.488   7.341   4.574 -0.0039  1.1337 -1.3079
  839MOL0     H13228   3.696   7.252   4.518 -2.7420  4.9670  1.2769
  839MOL0     H13229   3.872   7.193   4.265  0.7861  0.3319  0.7447
  839MOL0     H13230   3.884   7.200   4.432  0.8658  1.7996 -1.3358
  839MOL0     H13231   4.064   7.095   4.401 -1.7161  1.0151  0.5040
  839MOL0     H13232   3.962   6.953   4.425  1.2604 -0.6466  1.5161
  839MOL0     H13233   4.095   6.909   4.250  1.1233  2.5433  2.5713
  839MOL0     H13234   3.940   6.914   4.187 -0.5416 -0.1618 -0.9633
  839MOL0     H13235   4.112   7.176   4.157  0.5238 -0.7870 -0.2429
  839MOL0     H13236   3.980   7.129   4.066  1.3044  4.2806  1.2325
  839MOL0     H13237   4.102   6.931   3.987 -2.1117  1.0219  1.0651
  839MOL0     H13238   4.246   6.972   4.087 -0.0085 -0.4071  0.3925
  839MOL0     H13239   4.129   7.145   3.863 -0.8168 -0.1664  0.9789
  839MOL0     H13240   4.259   7.193   3.975 -0.4853  0.7918 -0.9299
  839MOL0     H13241   4.267   7.002   3.736  0.2720 -0.7584 -0.0853
  839MOL0     H13242   4.366   6.959   3.880  2.9077  0.6610 -1.4542
  839MOL0     H13243   4.456   7.174   3.887 -0.1554 -0.9911  0.1690
  839MOL0     H13244   4.501   7.084   3.754  2.2513  1.4946  1.5721
  839MOL0     H13245   3.518   7.004   4.220  0.0001  2.0173 -2.3844
  839MOL0     H13246   3.286   7.079   4.301 -0.4595  0.2442 -2.1525
  839MOL0     H13247   2.957   7.135   4.690  2.6027  0.7045  0.7057
  839MOL0     H13248   2.731   7.203   4.703  0.5230 -0.0517  0.2282
  839MOL0     H13249   1.246   8.313   5.425  4.3148 -1.1539 -0.8548
  839MOL0     H13250   1.017   8.286   5.483  2.6491  1.9870 -2.2786
  839MOL0     H13251   0.543   8.231   5.515 -2.7147  0.6333  0.2371
  839MOL0     H13252   0.345   8.146   5.613  0.1770 -1.0301  0.1997
  839MOL0     H13253   0.373   7.755   5.884  2.6486  0.4494  0.5328
  839MOL0     H13254   0.366   7.740   5.704 -2.1606 -0.0269 -1.8686
  839MOL0     H13255   0.135   7.783   5.893 -0.8204  1.0153  0.0084
  839MOL0     H13256   0.184   7.632   5.806  0.1492  1.0312  1.5688
  839MOL0     H13257   0.163   7.758   5.590 -0.6196  2.2452 -2.8499
  839MOL0     H13258   0.087   7.893   5.669 -0.5747  0.0768 -1.1944
  839MOL0     H13259  -0.051   7.630   5.590 -1.1795  2.4574 -3.7394
  839MOL0     H13260  -0.087   7.686   5.758  0.8472 -0.9621  0.1329
  839MOL0     H13261  -0.314   7.944   5.526 -1.6319  0.7000  2.5566
  839MOL0     H13262   0.583   7.825   5.805  0.2160 -0.7665 -0.7810
  839MOL0     H13263   0.815   7.848   5.803 -0.1654 -1.8096 -1.8837
  839MOL0     H13264   0.854   7.858   5.639 -1.1203  0.6343  0.0028
  839MOL0     H13265   0.896   8.001   5.751  0.2379  1.3014  1.1147
  840MOL0     O13266   0.196   3.214   3.805 -0.5675  0.3758  0.1730
  840MOL0     C13267   0.086   3.205   3.750  0.3392  0.5527  0.1935
  840MOL0     O13268   0.073   3.212   3.616 -0.0209 -0.4415  0.4265
  840MOL0     C13269   0.183   3.239   3.530  0.4265 -0.5951 -0.5739
  840MOL0     C13270   0.319   3.211   3.555 -0.0275 -0.8472 -0.1684
  840MOL0     C13271   0.423   3.255   3.463  0.3154  0.2964  0.5150
  840MOL0     C13272   0.384   3.327   3.349  0.4066 -0.3248 -0.0114
  840MOL0     O13273   0.476   3.384   3.264  0.1672  0.2900 -0.2018
  840MOL0     C13274   0.554   3.490   3.327  0.1822  0.1613 -0.1953
  840MOL0     C13275   0.681   3.443   3.402  0.1517 -0.7799 -0.4041
  840MOL0     C13276   0.792   3.550   3.411 -0.3184 -0.2104 -0.2416
  840MOL0     C13277   0.924   3.488   3.472  0.7631 -0.0977  0.5948
  840MOL0     C13278   1.056   3.539   3.414 -0.8589  0.5209  0.3545
  840MOL0     C13279   1.101   3.471   3.283  0.0009 -0.2789  0.2134
  840MOL0     C13280   1.232   3.538   3.228  0.0562 -0.1903 -0.3618
  840MOL0     C13281   1.284   3.469   3.097  0.6167 -0.2123 -0.4084
  840MOL0     N13282   1.428   3.477   3.072  0.3836 -0.2951 -0.6310
  840MOL0     C13283   1.533   3.464   3.163 -0.1029  0.4548 -0.3958
  840MOL0     C13284   1.643   3.461   3.085 -0.6285 -0.2158 -0.8166
  840MOL0     C13285   1.782   3.433   3.136  0.1276 -0.2713  0.0750
  840MOL0     C13286   1.875   3.355   3.041  0.2712 -0.3779 -0.2020
  840MOL0     C13287   2.024   3.339   3.089  1.3510 -0.7359 -0.0499
  840MOL0     C13288   2.109   3.264   2.986 -0.4075  0.3711 -0.1872
  840MOL0     O13289   2.236   3.226   3.054  0.1329 -0.0347 -0.6871
  840MOL0     C13290   2.327   3.162   2.979 -0.3019 -0.3637 -0.2322
  840MOL0     C13291   2.318   3.136   2.846  0.8602  0.1249 -0.3059
  840MOL0     C13292   2.427   3.073   2.785  0.4811 -0.1688  0.0749
  840MOL0     C13293   2.542   3.040   2.852  0.0041  0.5710 -0.6420
  840MOL0     C13294   2.656   2.978   2.787  0.7875  0.3346  0.2270
  840MOL0     O13295   2.778   3.018   2.827  0.0579  0.1420 -0.2369
  840MOL0     C13296   2.885   2.936   2.802  0.5934 -0.1460  0.3734
  840MOL0     C13297   2.950   2.871   2.905 -0.0729  0.7377  0.1110
  840MOL0     C13298   3.059   2.789   2.872 -0.0274  0.2523 -0.1222
  840MOL0     C13299   3.109   2.773   2.744 -0.3776  0.4795  0.3203
  840MOL0     O13300   3.221   2.689   2.720 -0.4216 -0.4874 -0.7287
  840MOL0     C13301   3.255   2.644   2.579  0.1905 -0.3179 -0.0380
  840MOL0     C13302   3.391   2.698   2.537 -0.0965 -0.1134  0.1394
  840MOL0     C13303   3.506   2.634   2.614 -0.7666  0.0537 -0.5306
  840MOL0     C13304   3.635   2.691   2.550 -0.0120  0.1668 -0.8251
  840MOL0     C13305   3.772   2.640   2.618  0.0333 -0.7062  0.2220
  840MOL0     C13306   3.783   2.486   2.648  0.5204  0.0184  0.2489
  840MOL0     C13307   3.788   2.398   2.523  0.0972 -0.2490 -0.0891
  840MOL0     C13308   3.785   2.254   2.560 -0.9043 -0.3946  0.1765
  840MOL0    Cl13309   3.715   2.179   2.410 -0.0786  0.2096  0.0562
  840MOL0     C13310   3.036   2.840   2.643 -0.1806  0.5715 -0.3031
  840MOL0     C13311   2.924   2.922   2.671  0.1726  0.0183 -0.2793
  840MOL0     O13312   2.634   2.889   2.705  0.0158 -0.4172  0.1057
  840MOL0     C13313   2.549   3.060   2.988  1.0688 -0.4534 -0.2020
  840MOL0     C13314   2.435   3.124   3.049  0.7395  0.0154 -0.3152
  840MOL0     N13315   1.610   3.473   2.954 -0.1171  0.1414 -0.1656
  840MOL0     N13316   1.481   3.486   2.945  0.2318 -0.3314 -0.9665
  840MOL0     C13317   0.250   3.345   3.315  0.2490  0.8380 -0.4550
  840MOL0     C13318   0.154   3.305   3.407 -0.4131 -0.1569  0.2834
  840MOL0     C13319  -0.036   3.165   3.829  0.3643 -0.5543  0.1953
  840MOL0     C13320  -0.153   3.123   3.768 -0.1682  0.0475 -0.9716
  840MOL0     C13321  -0.266   3.081   3.840  0.4857  0.3232 -0.8796
  840MOL0     C13322  -0.265   3.091   3.978  0.0342 -0.0471  1.0340
  840MOL0     O13323  -0.369   3.048   4.049  0.1884  0.5421  0.4075
  840MOL0     C13324  -0.389   2.903   4.076 -0.2412  0.2464 -0.2305
  840MOL0     C13325  -0.541   2.876   4.110 -0.4279 -0.1236 -0.4339
  840MOL0     C13326  -0.640   2.901   4.005  0.4893 -0.2171  0.4972
  840MOL0     C13327  -0.697   2.798   3.909  0.3590  0.6279 -0.3425
  840MOL0     C13328  -0.598   2.699   3.864  0.0812  0.4398 -0.9264
  840MOL0     C13329  -0.506   2.630   3.814  1.6168  0.1315  0.4720
  840MOL0     C13330  -0.155   3.150   4.042  0.1326  0.2319 -0.1188
  840MOL0     C13331  -0.043   3.192   3.971  0.0985 -1.1852  0.2769
  840MOL0     C13332   0.063   3.261   4.065 -0.1912  0.4551 -0.9195
  840MOL0     H13333   0.352   3.155   3.642  0.6743 -0.0904  0.0666
  840MOL0     H13334   0.530   3.247   3.482  0.2199 -2.6596  0.2460
  840MOL0     H13335   0.593   3.537   3.237  0.4224 -1.6580 -1.0795
  840MOL0     H13336   0.494   3.563   3.383  0.1415  0.3340 -0.4627
  840MOL0     H13337   0.726   3.363   3.343 -1.4390 -1.9340 -0.1294
  840MOL0     H13338   0.663   3.417   3.507  1.3683  1.1753  0.3251
  840MOL0     H13339   0.758   3.625   3.483  1.8911  0.9381 -0.3029
  840MOL0     H13340   0.801   3.598   3.313  0.3016  1.9546  0.8216
  840MOL0     H13341   0.910   3.509   3.578 -0.4251 -3.5939  1.2866
  840MOL0     H13342   0.925   3.379   3.473 -0.4413 -0.1321 -0.1427
  840MOL0     H13343   1.057   3.647   3.403 -2.9522  0.6260  0.7915
  840MOL0     H13344   1.129   3.498   3.484 -0.5602 -2.3924 -1.4482
  840MOL0     H13345   1.117   3.364   3.298 -3.2986 -1.0145 -0.6908
  840MOL0     H13346   1.019   3.481   3.211 -0.6140 -2.5351  0.5100
  840MOL0     H13347   1.309   3.532   3.306  1.2814 -0.6799 -1.5790
  840MOL0     H13348   1.219   3.646   3.213  3.9659  0.8358  2.0420
  840MOL0     H13349   1.273   3.361   3.113  1.5241 -0.4110 -1.0690
  840MOL0     H13350   1.233   3.515   3.013 -2.6502 -1.5724  0.6574
  840MOL0     H13351   1.536   3.461   3.271  1.8344 -0.4735 -0.4320
  840MOL0     H13352   1.825   3.533   3.148  1.1262 -0.7763  0.8248
  840MOL0     H13353   1.777   3.388   3.235 -1.3641  1.7797  1.0190
  840MOL0     H13354   1.831   3.256   3.025  1.8429 -1.7469  3.0597
  840MOL0     H13355   1.878   3.409   2.946  0.7628  1.8408  0.9951
  840MOL0     H13356   2.034   3.279   3.181  1.4723  0.7084  0.9057
  840MOL0     H13357   2.057   3.440   3.114 -2.0818  0.4486  0.2516
  840MOL0     H13358   2.126   3.324   2.896  1.1279 -0.7340 -0.6540
  840MOL0     H13359   2.072   3.172   2.941  1.8405  0.6891 -2.8994
  840MOL0     H13360   2.231   3.166   2.788  0.6669  3.5611  1.4674
  840MOL0     H13361   2.443   3.064   2.678  0.0274 -0.6972  0.0495
  840MOL0     H13362   2.937   2.887   3.012  3.0732  2.3844  0.3609
  840MOL0     H13363   3.107   2.739   2.955  0.0369  2.3687  1.2062
  840MOL0     H13364   3.265   2.535   2.577  0.3428 -0.3974 -4.2748
  840MOL0     H13365   3.173   2.679   2.515 -1.1489 -0.5663  1.4705
  840MOL0     H13366   3.403   2.673   2.432 -0.1019  1.4204 -0.2427
  840MOL0     H13367   3.399   2.807   2.546  0.2784 -0.0918 -0.3722
  840MOL0     H13368   3.515   2.653   2.721  2.1843  1.1363 -0.8842
  840MOL0     H13369   3.506   2.526   2.603  0.7604 -0.2194  1.5483
  840MOL0     H13370   3.633   2.800   2.544 -0.3519  0.3456  1.4537
  840MOL0     H13371   3.637   2.657   2.446 -0.1672 -0.3061 -0.6765
  840MOL0     H13372   3.784   2.695   2.712 -1.5005  1.8797 -0.9612
  840MOL0     H13373   3.858   2.674   2.560 -0.5985  2.1419  0.8002
  840MOL0     H13374   3.871   2.466   2.709 -0.3686 -0.8148  1.3113
  840MOL0     H13375   3.691   2.473   2.706 -1.8133  1.3114 -2.8758
  840MOL0     H13376   3.881   2.422   2.469 -0.0566 -0.8323 -0.6291
  840MOL0     H13377   3.709   2.419   2.450 -0.4416  0.7781  0.7701
  840MOL0     H13378   3.885   2.214   2.580 -0.1796  0.3079 -1.7788
  840MOL0     H13379   3.716   2.236   2.643 -1.0827 -0.0911  0.0947
  840MOL0     H13380   3.064   2.824   2.540  0.7624 -0.9130  0.1363
  840MOL0     H13381   2.877   2.964   2.582  0.4114 -1.7946 -1.3178
  840MOL0     H13382   2.621   3.016   3.056 -0.6214 -1.4205  1.0306
  840MOL0     H13383   2.444   3.144   3.155  2.6110 -0.9228 -0.2389
  840MOL0     H13384   0.225   3.384   3.217 -0.4455 -0.1538 -0.6859
  840MOL0     H13385   0.049   3.324   3.392 -0.7633 -2.0639  0.1451
  840MOL0     H13386  -0.144   3.121   3.660  3.4682 -0.8082 -0.7611
  840MOL0     H13387  -0.355   3.042   3.793 -1.3326 -1.5436  3.5529
  840MOL0     H13388  -0.324   2.880   4.161 -0.4780  1.5479  0.3276
  840MOL0     H13389  -0.353   2.855   3.984  0.5400  2.5781 -1.2071
  840MOL0     H13390  -0.578   2.941   4.189 -3.0679 -1.9149 -0.0610
  840MOL0     H13391  -0.552   2.772   4.144 -0.0716  0.0071  0.0879
  840MOL0     H13392  -0.592   2.981   3.947 -0.2638 -0.3045 -0.2703
  840MOL0     H13393  -0.726   2.955   4.045 -0.4763 -0.7499 -0.7895
  840MOL0     H13394  -0.769   2.732   3.958  1.1837  0.2374  0.3685
  840MOL0     H13395  -0.749   2.849   3.827 -0.7614  2.6550  1.5172
  840MOL0     H13396  -0.451   2.551   3.769 -3.5461 -2.7018 -1.7135
  840MOL0     H13397  -0.151   3.164   4.150  0.6661  0.6270 -0.1851
  840MOL0     H13398   0.145   3.190   4.082 -1.1281 -0.2186  1.0952
  840MOL0     H13399   0.101   3.348   4.011  0.5417 -0.4310 -1.8819
  840MOL0     H13400   0.017   3.291   4.160  0.0706 -0.2328 -0.5645
  841MOL0     O13401   3.764   9.727   1.453  0.1309  0.1617 -0.0602
  841MOL0     C13402   3.850   9.757   1.371  0.5118  0.3959  0.0576
  841MOL0     O13403   3.827   9.829   1.256 -0.0421  0.0265 -0.4332
  841MOL0     C13404   3.692   9.863   1.241 -0.8399 -0.2791  0.0963
  841MOL0     C13405   3.661   9.989   1.285  0.0636 -0.3964 -0.0668
  841MOL0     C13406   3.541  10.052   1.239 -0.1181  0.5828 -0.3739
  841MOL0     C13407   3.456   9.980   1.157 -0.8962 -0.4508 -0.5340
  841MOL0     O13408   3.341  10.017   1.115 -0.1628 -0.5018 -0.1814
  841MOL0     C13409   3.241  10.021   1.216  1.0116 -0.3468  0.2421
  841MOL0     C13410   3.105  10.050   1.153  0.8153  0.6480  0.0692
  841MOL0     C13411   3.090  10.169   1.067  1.1408  0.1565 -0.5267
  841MOL0     C13412   2.947  10.175   1.013 -0.6291  0.5560  0.1374
  841MOL0     C13413   2.914  10.306   0.944 -0.5611  0.5620 -0.0876
  841MOL0     C13414   3.000  10.342   0.815 -0.3723  0.2443  0.0884
  841MOL0     C13415   2.955  10.460   0.725  0.0287 -0.3734  0.0398
  841MOL0     C13416   2.824  10.435   0.653  0.0757  0.1583 -0.0934
  841MOL0     N13417   2.773  10.543   0.560  0.0603 -0.0554 -0.6802
  841MOL0     C13418   2.825  10.563   0.431  0.2540  0.0902  0.6622
  841MOL0     C13419   2.768  10.675   0.384 -0.2037 -0.2776 -0.0346
  841MOL0     C13420   2.782  10.737   0.242 -0.3893 -0.4233 -0.6316
  841MOL0     C13421   2.847  10.870   0.239 -0.1363  0.2452  0.1399
  841MOL0     C13422   2.851  10.939   0.097 -0.0213  0.2739 -0.8768
  841MOL0     C13423   2.942  11.059   0.113 -0.4893 -0.4319 -0.5875
  841MOL0     O13424   3.082  11.028   0.091  0.3107  1.0607  0.3485
  841MOL0     C13425   3.181  11.108   0.142  0.0913 -0.2466 -0.1821
  841MOL0     C13426   3.157  11.245   0.176 -0.1060 -0.2582 -0.0064
  841MOL0     C13427   3.262  11.334   0.202 -0.2025  0.0219  0.6833
  841MOL0     C13428   3.391  11.280   0.220 -0.7767  0.6191 -0.8787
  841MOL0     C13429   3.503  11.375   0.254 -0.1063 -0.0400 -0.2692
  841MOL0     O13430   3.621  11.336   0.205 -0.4150  0.2084 -0.1252
  841MOL0     C13431   3.725  11.427   0.228 -0.9383 -0.0905 -0.6348
  841MOL0     C13432   3.796  11.431   0.349  0.0477 -0.2134  0.1713
  841MOL0     C13433   3.901  11.516   0.367  1.1592 -0.0797 -0.1258
  841MOL0     C13434   3.944  11.594   0.259  0.3854  0.0753  0.5072
  841MOL0     O13435   4.053  11.674   0.252  0.0240  0.1409 -0.3137
  841MOL0     C13436   4.110  11.730   0.367  1.5040  0.0696 -0.3321
  841MOL0     C13437   4.227  11.827   0.340 -0.3043 -0.3221 -0.2039
  841MOL0     C13438   4.191  11.969   0.289 -0.0763  0.5470  0.5296
  841MOL0     C13439   4.307  12.074   0.269  0.7398  0.5553 -0.2533
  841MOL0     C13440   4.318  12.170   0.393  0.4139  0.3865  0.1793
  841MOL0     C13441   4.388  12.098   0.511  0.0481  0.5694  0.0192
  841MOL0     C13442   4.403  12.197   0.629  0.9907 -0.0996  0.1546
  841MOL0     C13443   4.465  12.127   0.754 -0.4979  0.7129 -0.5880
  841MOL0    Cl13444   4.646  12.137   0.725  0.0152  0.0176  0.3362
  841MOL0     C13445   3.894  11.573   0.133 -0.2400  0.0258  0.5693
  841MOL0     C13446   3.784  11.486   0.113 -0.2174  0.0279  0.6469
  841MOL0     O13447   3.488  11.471   0.332  0.5361 -0.3016  0.3080
  841MOL0     C13448   3.414  11.144   0.193 -0.4372  0.4387 -0.0993
  841MOL0     C13449   3.308  11.064   0.158  0.4963  0.5888 -0.0860
  841MOL0     N13450   2.676  10.713   0.483 -0.6048  0.1848  0.3999
  841MOL0     N13451   2.679  10.634   0.583  0.0683  0.2075  0.2907
  841MOL0     C13452   3.489   9.850   1.122  0.0640 -0.1835  0.3100
  841MOL0     C13453   3.604   9.793   1.164 -0.8618 -0.2365  0.0851
  841MOL0     C13454   3.984   9.715   1.404 -0.1527 -0.1896 -0.3985
  841MOL0     C13455   4.080   9.796   1.346  0.3774  0.6602  0.1940
  841MOL0     C13456   4.209   9.766   1.345 -0.2594 -0.1209  0.7383
  841MOL0     C13457   4.258   9.665   1.429 -0.8612  0.2820  0.2480
  841MOL0     O13458   4.389   9.632   1.459  0.2904 -0.5007 -0.5298
  841MOL0     C13459   4.497   9.722   1.420  0.5765 -0.2187 -0.5561
  841MOL0     C13460   4.512   9.859   1.501 -0.3929 -0.0623 -0.1109
  841MOL0     C13461   4.513   9.837   1.659 -0.0790  0.6829  0.5469
  841MOL0     C13462   4.632   9.759   1.703 -0.5219  0.2270 -0.4392
  841MOL0     C13463   4.753   9.853   1.699  0.1325  1.3820 -0.9272
  841MOL0     C13464   4.839   9.936   1.691 -0.1184  0.3304 -1.0381
  841MOL0     C13465   4.162   9.578   1.490 -0.0905 -0.7998  0.6310
  841MOL0     C13466   4.019   9.602   1.483 -0.6121 -0.1776  0.2419
  841MOL0     C13467   3.928   9.499   1.533  0.6840  0.5433 -0.5110
  841MOL0     H13468   3.720  10.040   1.361 -3.2464  2.7776  0.6640
  841MOL0     H13469   3.512  10.155   1.257 -0.5457  0.7558 -1.8783
  841MOL0     H13470   3.228   9.929   1.273 -2.1129  0.0863  0.4191
  841MOL0     H13471   3.247  10.107   1.283 -2.5411  1.5451 -1.5613
  841MOL0     H13472   3.035  10.059   1.237  0.1724  1.6448 -0.5563
  841MOL0     H13473   3.083   9.968   1.084  0.4990  2.3468 -1.9514
  841MOL0     H13474   3.169  10.176   0.992  0.2400 -0.9328 -1.5949
  841MOL0     H13475   3.114  10.255   1.131  1.4512  0.7579 -1.4448
  841MOL0     H13476   2.941  10.093   0.942 -1.5184  0.5718  0.1741
  841MOL0     H13477   2.877  10.152   1.095 -0.0974  1.2582  0.8065
  841MOL0     H13478   2.811  10.292   0.911 -0.7577  0.5761  0.5137
  841MOL0     H13479   2.917  10.396   1.006 -0.4021  0.4326  0.0933
  841MOL0     H13480   3.103  10.365   0.845  0.0142  0.2907 -1.1974
  841MOL0     H13481   3.004  10.252   0.753 -2.0174  1.0274 -1.2154
  841MOL0     H13482   3.038  10.479   0.656 -1.3965  1.3685 -1.3049
  841MOL0     H13483   2.947  10.551   0.786 -0.8847 -1.1011  1.0254
  841MOL0     H13484   2.831  10.340   0.600  0.6480  0.1116  0.0584
  841MOL0     H13485   2.752  10.413   0.732  1.3167 -1.7368  0.5809
  841MOL0     H13486   2.892  10.491   0.387  0.8028 -0.1527  1.8410
  841MOL0     H13487   2.846  10.671   0.183 -1.6528 -0.9646 -1.4532
  841MOL0     H13488   2.687  10.741   0.187 -1.5923 -0.0318  1.3734
  841MOL0     H13489   2.785  10.936   0.300 -1.4835  0.0857 -0.9885
  841MOL0     H13490   2.943  10.860   0.291 -1.8043 -3.0533  3.0434
  841MOL0     H13491   2.745  10.964   0.086 -0.7962 -2.4821 -0.4584
  841MOL0     H13492   2.881  10.875   0.014 -2.5366 -1.5235 -0.5396
  841MOL0     H13493   2.928  11.105   0.211  0.4876  0.4863 -0.8479
  841MOL0     H13494   2.920  11.128   0.030 -1.7371 -1.4436 -1.1161
  841MOL0     H13495   3.060  11.293   0.172  0.9481  2.1605  0.8625
  841MOL0     H13496   3.248  11.440   0.223 -0.6745 -0.2362  1.7207
  841MOL0     H13497   3.767  11.374   0.436  0.1446  1.3936  1.2961
  841MOL0     H13498   3.951  11.522   0.463  0.1355 -0.4938  0.4499
  841MOL0     H13499   4.038  11.783   0.431  1.0035  0.1231 -0.9291
  841MOL0     H13500   4.151  11.643   0.419  1.5241  0.7489  0.8188
  841MOL0     H13501   4.274  11.824   0.439 -1.2415 -2.1106  0.2300
  841MOL0     H13502   4.291  11.793   0.258  0.9693  2.1890 -0.3549
  841MOL0     H13503   4.148  11.962   0.189  2.1381 -0.8305 -0.4150
  841MOL0     H13504   4.117  12.007   0.359 -0.3025  0.4837  0.3242
  841MOL0     H13505   4.297  12.146   0.188 -1.5486  1.1386  0.4645
  841MOL0     H13506   4.398  12.014   0.258  1.2352  1.0684  0.8630
  841MOL0     H13507   4.218  12.202   0.423  1.5450  3.5502  0.9933
  841MOL0     H13508   4.366  12.263   0.361 -2.2392  1.4667 -0.8900
  841MOL0     H13509   4.328  12.011   0.539  0.1424  0.5748  0.2441
  841MOL0     H13510   4.486  12.066   0.473 -1.2566 -0.4279 -2.7588
  841MOL0     H13511   4.306  12.226   0.670  1.3284 -0.5038  1.2848
  841MOL0     H13512   4.452  12.289   0.595 -2.2868  1.5430 -0.4807
  841MOL0     H13513   4.449  12.166   0.854 -0.0454 -1.8340  0.5495
  841MOL0     H13514   4.443  12.020   0.763  3.0106 -0.4973 -3.5484
  841MOL0     H13515   3.940  11.621   0.047 -0.0129  0.9926  1.2251
  841MOL0     H13516   3.755  11.462   0.011  0.3618  0.2305  0.4293
  841MOL0     H13517   3.509  11.093   0.202 -0.5503  0.2356 -0.0546
  841MOL0     H13518   3.322  10.957   0.147  1.8645  0.6126  1.0546
  841MOL0     H13519   3.421   9.791   1.062 -0.5514 -0.7153  1.4941
  841MOL0     H13520   3.622   9.689   1.137 -1.7728 -0.2986 -0.3126
  841MOL0     H13521   4.044   9.881   1.288  0.4998  0.1174 -0.7023
  841MOL0     H13522   4.274   9.839   1.297 -0.8766 -0.0305  0.0130
  841MOL0     H13523   4.488   9.742   1.313 -2.9849  1.8185 -0.0488
  841MOL0     H13524   4.591   9.667   1.417  0.4606 -0.3832 -1.7315
  841MOL0     H13525   4.427   9.927   1.484 -1.1883 -0.5479  1.7004
  841MOL0     H13526   4.600   9.910   1.461 -1.8552  1.8055 -1.1511
  841MOL0     H13527   4.428   9.773   1.687  0.1192 -1.4922 -3.1210
  841MOL0     H13528   4.514   9.932   1.713  1.3322  0.0125  1.7752
  841MOL0     H13529   4.613   9.734   1.807 -0.5476 -0.5561 -0.6236
  841MOL0     H13530   4.648   9.671   1.640  0.1306  0.2956 -0.3766
  841MOL0     H13531   4.908  10.018   1.682  0.6937 -0.1384  0.5669
  841MOL0     H13532   4.193   9.500   1.558  2.0844 -0.1609  0.4470
  841MOL0     H13533   3.907   9.516   1.639  0.6568 -0.1973 -0.3937
  841MOL0     H13534   3.832   9.489   1.481  1.8860 -0.5827 -2.6433
  841MOL0     H13535   3.979   9.403   1.525  1.6902  0.9757  0.3786
  842MOL0     O13536   3.001   5.919   1.656  0.3652  0.4963  0.5731
  842MOL0     C13537   2.978   6.032   1.620  0.2284  0.3392  0.1522
  842MOL0     O13538   3.067   6.138   1.633  0.5851  0.6619 -0.2137
  842MOL0     C13539   3.185   6.147   1.699 -0.8014  0.3303  0.6186
  842MOL0     C13540   3.267   6.041   1.734  0.1208  0.4249 -0.3311
  842MOL0     C13541   3.387   6.065   1.801 -0.0251 -0.5490 -0.6705
  842MOL0     C13542   3.436   6.193   1.823  0.1709  0.3969  0.1698
  842MOL0     O13543   3.547   6.216   1.892  0.2638 -0.2450 -0.1381
  842MOL0     C13544   3.615   6.344   1.884 -0.5103 -0.7811  0.0147
  842MOL0     C13545   3.750   6.320   1.954  1.1612  0.0383  1.0310
  842MOL0     C13546   3.839   6.234   1.871 -0.0754  0.0980 -0.1773
  842MOL0     C13547   3.972   6.231   1.933 -0.0975  0.8466 -0.3729
  842MOL0     C13548   4.069   6.165   1.842  0.2263  0.0676 -0.0551
  842MOL0     C13549   4.204   6.167   1.901 -0.8717  0.2662  0.2919
  842MOL0     C13550   4.308   6.107   1.811 -0.5350 -0.9145  0.1480
  842MOL0     C13551   4.448   6.162   1.852  0.2498  0.2928  0.6770
  842MOL0     N13552   4.568   6.105   1.776  0.1532  0.3750 -0.1917
  842MOL0     C13553   4.592   6.116   1.638  0.0689 -0.3566 -0.0903
  842MOL0     C13554   4.725   6.096   1.628 -0.5910 -0.1260  1.0008
  842MOL0     C13555   4.798   6.105   1.501 -0.5245 -0.2916  0.0917
  842MOL0     C13556   4.899   6.218   1.508 -0.4426 -0.8104  0.3315
  842MOL0     C13557   4.993   6.249   1.388  0.3196 -0.3161 -0.1151
  842MOL0     C13558   5.119   6.156   1.397 -0.7932 -0.7208 -0.3783
  842MOL0     O13559   5.191   6.212   1.287 -0.1351 -0.6302 -0.3318
  842MOL0     C13560   5.321   6.172   1.277  0.2755 -0.0733 -0.4819
  842MOL0     C13561   5.376   6.046   1.317 -0.0686 -0.9020  0.1365
  842MOL0     C13562   5.512   6.033   1.336 -0.7897 -0.1326 -0.5065
  842MOL0     C13563   5.602   6.134   1.292  0.4026  0.1279 -0.1275
  842MOL0     C13564   5.749   6.121   1.301 -1.1036 -0.2705 -0.4081
  842MOL0     O13565   5.829   6.234   1.281  0.0277 -0.4213  0.1598
  842MOL0     C13566   5.958   6.210   1.301 -0.7567  0.2122  0.5377
  842MOL0     C13567   6.026   6.243   1.422  0.4491 -1.1274 -0.1735
  842MOL0     C13568   6.154   6.211   1.445 -0.3233  0.8993  0.0133
  842MOL0     C13569   6.230   6.141   1.350  0.1843  0.7288 -0.3985
  842MOL0     O13570   6.357   6.099   1.371 -0.2618  0.3225  0.4045
  842MOL0     C13571   6.389   6.066   1.512  0.1146 -0.0295  0.2523
  842MOL0     C13572   6.500   5.973   1.527 -0.1673  0.3296  0.7205
  842MOL0     C13573   6.632   6.048   1.490 -0.7407 -0.1444  0.4004
  842MOL0     C13574   6.751   5.986   1.566  0.3918  0.0961 -0.0075
  842MOL0     C13575   6.892   6.026   1.527  0.8781  0.1554 -0.3858
  842MOL0     C13576   6.895   6.173   1.513  0.1019 -0.6146  0.2625
  842MOL0     C13577   7.031   6.224   1.498 -0.5416 -0.0113 -0.2310
  842MOL0     C13578   7.026   6.377   1.479 -1.0319 -0.3048  0.4630
  842MOL0    Cl13579   7.200   6.428   1.486  0.2875  0.5495  0.4691
  842MOL0     C13580   6.164   6.102   1.234  0.4402  0.4830  0.0825
  842MOL0     C13581   6.035   6.150   1.200 -0.1626 -0.0706 -0.5817
  842MOL0     O13582   5.792   6.011   1.335 -0.6207 -0.1222  0.3135
  842MOL0     C13583   5.547   6.259   1.245 -0.7020 -0.3107  0.4238
  842MOL0     C13584   5.408   6.277   1.240  0.2534 -0.1589  0.6158
  842MOL0     N13585   4.777   6.069   1.747 -0.3044 -0.4218  0.3551
  842MOL0     N13586   4.688   6.077   1.839  0.7605  0.4390 -0.0378
  842MOL0     C13587   3.351   6.301   1.794 -0.2769  0.1959  0.1997
  842MOL0     C13588   3.232   6.275   1.726  0.6044  0.6862 -0.2075
  842MOL0     C13589   2.846   6.070   1.557 -0.2080  0.2863  0.2497
  842MOL0     C13590   2.842   6.198   1.500  0.4837 -1.6126  0.4595
  842MOL0     C13591   2.735   6.248   1.430  0.1955 -0.7780  0.0858
  842MOL0     C13592   2.616   6.168   1.422 -0.4140 -0.0979 -0.8706
  842MOL0     O13593   2.510   6.221   1.350 -0.0820 -0.1682 -0.7589
  842MOL0     C13594   2.382   6.158   1.373  0.1904  0.1300  0.9277
  842MOL0     C13595   2.281   6.225   1.272  0.3720 -0.2171  0.5417
  842MOL0     C13596   2.319   6.187   1.124 -0.0153 -0.6520  0.1901
  842MOL0     C13597   2.223   6.255   1.016 -0.3490 -0.8941 -0.2002
  842MOL0     C13598   2.087   6.198   0.988 -0.2413  0.1924 -0.4484
  842MOL0     C13599   1.975   6.172   0.955  0.4982 -0.2753  0.4569
  842MOL0     C13600   2.620   6.032   1.475 -0.6212 -0.0765  0.6750
  842MOL0     C13601   2.734   5.982   1.538  0.0823 -0.7060 -0.9463
  842MOL0     C13602   2.732   5.836   1.582  0.5368  0.3023  0.7235
  842MOL0     H13603   3.239   5.938   1.713 -0.5490  0.4573  0.3956
  842MOL0     H13604   3.443   5.980   1.839 -0.7295 -0.7353 -0.0183
  842MOL0     H13605   3.623   6.389   1.785  1.1096  0.1817  0.5391
  842MOL0     H13606   3.561   6.420   1.942 -0.8601 -1.4274  0.5488
  842MOL0     H13607   3.730   6.272   2.050 -0.1849  0.7703  1.1461
  842MOL0     H13608   3.795   6.419   1.962 -1.0482  1.4995 -2.2451
  842MOL0     H13609   3.847   6.261   1.765 -0.3499  0.0466 -0.2115
  842MOL0     H13610   3.806   6.130   1.867 -1.5044  0.5064  0.4253
  842MOL0     H13611   3.995   6.335   1.958 -1.5355  0.6062  2.3006
  842MOL0     H13612   3.980   6.176   2.027  0.2857 -0.0373 -0.9093
  842MOL0     H13613   4.031   6.064   1.824 -0.9481  0.2086  1.3819
  842MOL0     H13614   4.064   6.215   1.745 -1.1204  3.1132  1.4423
  842MOL0     H13615   4.231   6.272   1.917 -0.1402  0.3177 -1.1109
  842MOL0     H13616   4.194   6.106   1.991 -0.2495 -0.6636 -0.2621
  842MOL0     H13617   4.307   6.131   1.704  1.4872 -0.9100  0.1034
  842MOL0     H13618   4.306   5.998   1.822  1.0745 -1.0133 -0.3833
  842MOL0     H13619   4.456   6.271   1.849  0.3762  0.3029 -2.3472
  842MOL0     H13620   4.461   6.132   1.956 -0.8454 -1.6787  0.3009
  842MOL0     H13621   4.526   6.141   1.556  0.4477 -0.6627 -0.4968
  842MOL0     H13622   4.855   6.012   1.490  1.6396  0.9183  0.4880
  842MOL0     H13623   4.731   6.127   1.418 -1.2011  0.9672  0.9301
  842MOL0     H13624   4.826   6.300   1.507 -0.8430 -1.1599  0.4356
  842MOL0     H13625   4.956   6.221   1.601  1.3357 -1.2695 -0.6992
  842MOL0     H13626   5.009   6.357   1.385  0.4618 -0.3627 -1.8891
  842MOL0     H13627   4.936   6.228   1.298 -1.7198  1.0485  0.7838
  842MOL0     H13628   5.104   6.049   1.381 -3.1156 -0.4649 -0.2900
  842MOL0     H13629   5.172   6.169   1.491  0.0522 -1.3203 -0.7644
  842MOL0     H13630   5.310   5.963   1.342 -3.4907  1.7886  0.8006
  842MOL0     H13631   5.554   5.947   1.387  2.0412  0.6510 -1.3209
  842MOL0     H13632   5.977   6.286   1.509 -0.7367 -0.0575 -1.3203
  842MOL0     H13633   6.182   6.226   1.548 -0.7826  1.0945  0.1136
  842MOL0     H13634   6.423   6.158   1.561  1.4976  1.6118 -3.4429
  842MOL0     H13635   6.299   6.032   1.564 -0.9343  1.5082 -0.4862
  842MOL0     H13636   6.503   5.921   1.623 -0.3722 -4.0478 -1.3908
  842MOL0     H13637   6.478   5.902   1.446 -0.2194 -1.4398  2.2381
  842MOL0     H13638   6.650   6.022   1.386 -0.5480 -0.5504  0.5320
  842MOL0     H13639   6.634   6.156   1.508  1.3854 -0.2533  1.1422
  842MOL0     H13640   6.762   5.877   1.560  2.6058  0.0656  2.4375
  842MOL0     H13641   6.733   6.016   1.670  1.4326  0.4652  0.0805
  842MOL0     H13642   6.920   5.971   1.437 -1.3503 -2.1710  0.2261
  842MOL0     H13643   6.965   6.007   1.607  1.7417 -1.2102 -1.4667
  842MOL0     H13644   6.846   6.212   1.424  0.3836  2.7555  1.4135
  842MOL0     H13645   6.846   6.224   1.597 -0.4897  0.8198 -0.9058
  842MOL0     H13646   7.088   6.177   1.418  1.8088  1.1877  0.6709
  842MOL0     H13647   7.075   6.205   1.596 -0.7386  1.4963  0.1699
  842MOL0     H13648   6.982   6.393   1.380  3.7743  0.6434 -1.7826
  842MOL0     H13649   6.963   6.432   1.549 -0.3881  2.4007 -0.9701
  842MOL0     H13650   6.221   6.045   1.162 -0.0631 -0.6223  0.5216
  842MOL0     H13651   6.002   6.129   1.099 -1.2967  1.1283 -0.4836
  842MOL0     H13652   5.605   6.343   1.207 -0.0534 -1.7887 -2.0570
  842MOL0     H13653   5.372   6.372   1.202  2.3032 -0.1051 -1.4522
  842MOL0     H13654   3.375   6.405   1.813  0.2538  0.6044 -2.3568
  842MOL0     H13655   3.170   6.357   1.691 -0.1610 -0.3873 -1.4835
  842MOL0     H13656   2.923   6.270   1.500 -1.4438  0.6933  1.1417
  842MOL0     H13657   2.723   6.346   1.384  3.4100 -0.2615  0.0660
  842MOL0     H13658   2.353   6.180   1.476 -0.1620  3.4364  0.2363
  842MOL0     H13659   2.395   6.051   1.355  2.9589  0.8395 -2.3043
  842MOL0     H13660   2.283   6.334   1.281  1.6284  0.0718 -2.3402
  842MOL0     H13661   2.179   6.185   1.277 -0.4304  1.7087  0.5616
  842MOL0     H13662   2.307   6.080   1.104  0.9371 -0.7383  0.0148
  842MOL0     H13663   2.422   6.219   1.102 -0.5401  0.7857 -0.3168
  842MOL0     H13664   2.214   6.363   1.030  2.5729 -0.6831  0.7764
  842MOL0     H13665   2.278   6.248   0.922  0.3061  0.1216  0.0913
  842MOL0     H13666   1.873   6.149   0.931  0.7955 -1.4058  0.2416
  842MOL0     H13667   2.529   5.972   1.472 -1.2326  0.4483  4.1810
  842MOL0     H13668   2.689   5.818   1.681 -4.3545  0.8736 -1.0082
  842MOL0     H13669   2.670   5.777   1.514  1.7810 -0.6256  0.3535
  842MOL0     H13670   2.829   5.786   1.575 -0.4288 -1.4424 -0.8613
  843MOL0     O13671   2.217   3.162   4.417  0.2014  0.1735  0.6913
  843MOL0     C13672   2.187   3.282   4.417  0.1305 -0.5393 -0.0594
  843MOL0     O13673   2.277   3.381   4.396 -0.1739  0.6765  0.4471
  843MOL0     C13674   2.412   3.352   4.423  0.0083  0.4179 -0.1853
  843MOL0     C13675   2.454   3.266   4.526 -0.4043  0.0591 -0.7505
  843MOL0     C13676   2.591   3.239   4.554  0.2164  0.1447 -1.1948
  843MOL0     C13677   2.687   3.289   4.472 -0.3522 -0.6951 -0.5613
  843MOL0     O13678   2.813   3.262   4.488 -0.4200  0.2396 -0.1488
  843MOL0     C13679   2.877   3.184   4.384  0.1069  1.0463  0.9833
  843MOL0     C13680   3.034   3.175   4.392  0.5710 -0.5580 -0.4672
  843MOL0     C13681   3.097   3.320   4.401 -0.2444 -0.7087  0.3736
  843MOL0     C13682   3.237   3.308   4.446 -0.1476 -1.4528  0.0446
  843MOL0     C13683   3.320   3.444   4.435 -0.1546  0.4669 -0.7846
  843MOL0     C13684   3.465   3.418   4.476 -0.8319  0.1236 -0.5158
  843MOL0     C13685   3.550   3.540   4.455  0.7254 -0.1534 -0.2799
  843MOL0     C13686   3.703   3.513   4.439 -0.3963  1.0088 -0.9360
  843MOL0     N13687   3.785   3.628   4.441  0.3975 -0.3674  0.4056
  843MOL0     C13688   3.798   3.733   4.349 -0.0729  0.1288 -0.6624
  843MOL0     C13689   3.913   3.796   4.392 -0.4292 -1.1165 -0.0113
  843MOL0     C13690   3.960   3.913   4.318  0.2439 -0.7968 -0.3800
  843MOL0     C13691   4.106   3.944   4.347  0.5735 -1.3760  0.1970
  843MOL0     C13692   4.161   4.070   4.271  0.3395 -0.0131  0.4399
  843MOL0     C13693   4.313   4.093   4.273  0.5147 -0.0125 -0.0018
  843MOL0     O13694   4.349   4.221   4.210  0.2171  0.5783  0.1335
  843MOL0     C13695   4.473   4.273   4.232  0.1953 -1.0476 -0.0344
  843MOL0     C13696   4.505   4.394   4.179 -0.0286 -0.8293 -0.5224
  843MOL0     C13697   4.629   4.458   4.216  0.4715 -0.3156  0.4357
  843MOL0     C13698   4.722   4.389   4.294  1.0113  0.4684  0.5714
  843MOL0     C13699   4.856   4.443   4.323 -0.0022 -0.0254 -0.4931
  843MOL0     O13700   4.960   4.355   4.355 -0.4002  0.2231  0.2687
  843MOL0     C13701   5.084   4.409   4.386 -0.3480  0.5467  0.2333
  843MOL0     C13702   5.098   4.529   4.460 -0.0574 -1.4992 -0.2158
  843MOL0     C13703   5.219   4.590   4.494  0.0798  0.9353  0.4143
  843MOL0     C13704   5.336   4.523   4.449 -0.7662 -0.2796  0.7643
  843MOL0     O13705   5.469   4.563   4.477  0.0103  0.4112  0.7334
  843MOL0     C13706   5.483   4.705   4.522  0.1015  0.1487 -0.4717
  843MOL0     C13707   5.507   4.706   4.677  0.3296  0.3815  0.4826
  843MOL0     C13708   5.635   4.632   4.697  0.1580  0.3827  0.6301
  843MOL0     C13709   5.655   4.625   4.842  0.4726  0.7144 -0.4014
  843MOL0     C13710   5.792   4.556   4.885  0.3825 -0.3826  0.5287
  843MOL0     C13711   5.921   4.606   4.820  0.7698  0.7396  0.1914
  843MOL0     C13712   5.960   4.758   4.846  0.4943  0.2906 -0.3899
  843MOL0     C13713   6.111   4.784   4.838  0.2770  0.0013 -0.5769
  843MOL0    Cl13714   6.166   4.783   4.674 -0.4299 -0.2710  0.3908
  843MOL0     C13715   5.324   4.405   4.366 -0.1312  0.2281  0.4039
  843MOL0     C13716   5.202   4.352   4.333 -0.0361  1.0120  0.6006
  843MOL0     O13717   4.853   4.569   4.319 -0.3105 -0.1070  0.1303
  843MOL0     C13718   4.692   4.266   4.331  1.2220  0.6154  0.1747
  843MOL0     C13719   4.567   4.207   4.313 -0.3792 -0.1250  0.1334
  843MOL0     N13720   3.959   3.734   4.507 -0.2177  0.1421 -0.0969
  843MOL0     N13721   3.882   3.632   4.530 -0.2850  0.6199  0.2236
  843MOL0     C13722   2.648   3.369   4.360 -0.5254 -0.0020  0.3911
  843MOL0     C13723   2.511   3.398   4.338 -0.0123  0.3933  0.6224
  843MOL0     C13724   2.054   3.327   4.442  0.5863 -0.1036 -0.1800
  843MOL0     C13725   2.035   3.455   4.491  0.0788  0.5726 -0.1028
  843MOL0     C13726   1.912   3.502   4.524 -0.2736  0.3822 -0.7053
  843MOL0     C13727   1.802   3.419   4.513 -0.5531  0.0695 -0.1658
  843MOL0     O13728   1.682   3.462   4.562 -0.3778  0.5177  0.1168
  843MOL0     C13729   1.626   3.586   4.516 -0.2343 -0.3471  0.1851
  843MOL0     C13730   1.560   3.555   4.388 -0.4302 -0.6125  0.9597
  843MOL0     C13731   1.476   3.673   4.326  0.0424 -0.1632  1.2868
  843MOL0     C13732   1.404   3.637   4.202  0.7147 -0.0999  0.2508
  843MOL0     C13733   1.304   3.737   4.169 -0.1463 -0.0254 -0.4256
  843MOL0     C13734   1.221   3.828   4.150  0.1443 -0.4564  0.5438
  843MOL0     C13735   1.812   3.303   4.448 -0.0655  0.6238  0.2090
  843MOL0     C13736   1.943   3.248   4.414  0.7231  0.7448  0.6554
  843MOL0     C13737   1.940   3.120   4.334  0.1793  0.7491 -0.8011
  843MOL0     H13738   2.377   3.241   4.599 -0.2179  0.3372 -0.4550
  843MOL0     H13739   2.631   3.181   4.636  1.8264  1.4032 -1.0554
  843MOL0     H13740   2.842   3.081   4.380  2.0309  0.3877 -1.9501
  843MOL0     H13741   2.841   3.226   4.290  1.1600 -1.0118 -0.4272
  843MOL0     H13742   3.073   3.122   4.304  3.2536  1.0391 -0.3767
  843MOL0     H13743   3.058   3.119   4.482  2.5527 -0.8826 -1.1335
  843MOL0     H13744   3.033   3.373   4.473  0.9851  0.1349  0.8765
  843MOL0     H13745   3.087   3.366   4.303  2.5507 -2.5411 -0.8997
  843MOL0     H13746   3.247   3.278   4.551  1.1449  1.3039  0.7717
  843MOL0     H13747   3.277   3.238   4.372 -0.6511  0.4686 -2.1600
  843MOL0     H13748   3.320   3.469   4.329  0.2797 -0.1756 -0.9430
  843MOL0     H13749   3.275   3.530   4.486 -1.5632 -0.7500  0.0886
  843MOL0     H13750   3.472   3.379   4.578 -1.1850 -0.1399 -0.5870
  843MOL0     H13751   3.508   3.345   4.407  0.3212  1.1919 -0.9677
  843MOL0     H13752   3.528   3.609   4.537 -1.7256 -1.8877  0.6539
  843MOL0     H13753   3.525   3.596   4.364 -2.2400  1.3916  1.3147
  843MOL0     H13754   3.730   3.437   4.513 -3.4665 -1.7270 -2.3606
  843MOL0     H13755   3.720   3.450   4.352  2.0141 -1.2613  1.0307
  843MOL0     H13756   3.737   3.741   4.260 -1.7368  2.2513  0.5523
  843MOL0     H13757   3.940   3.883   4.214 -2.0673 -1.4045  0.1620
  843MOL0     H13758   3.894   3.995   4.348 -0.7757 -1.9331  0.6125
  843MOL0     H13759   4.103   3.961   4.455  0.8947  2.0314 -0.2376
  843MOL0     H13760   4.165   3.858   4.315 -0.1431 -1.8078  0.0004
  843MOL0     H13761   4.118   4.162   4.312 -0.3177  0.5706 -1.4154
  843MOL0     H13762   4.138   4.074   4.164  0.6405  0.4173  0.3831
  843MOL0     H13763   4.346   4.011   4.208 -0.8557 -1.7990  1.4505
  843MOL0     H13764   4.354   4.075   4.373 -1.8809 -0.1698  1.0020
  843MOL0     H13765   4.443   4.449   4.108 -0.8426  1.8804  2.0884
  843MOL0     H13766   4.646   4.562   4.192 -1.4358  0.4990  2.3005
  843MOL0     H13767   5.013   4.577   4.509  1.1951  1.6234 -0.9168
  843MOL0     H13768   5.222   4.678   4.558  1.5914  0.6234  0.8026
  843MOL0     H13769   5.565   4.759   4.473  0.5129  1.9443  1.9589
  843MOL0     H13770   5.395   4.768   4.503 -0.8232  0.9002  4.6718
  843MOL0     H13771   5.529   4.806   4.714  2.8034  1.2635 -2.9079
  843MOL0     H13772   5.428   4.657   4.736  0.3921 -1.2774 -0.7247
  843MOL0     H13773   5.621   4.532   4.656  0.1679  0.9230 -0.7386
  843MOL0     H13774   5.716   4.673   4.636 -0.8352  0.2637 -0.8214
  843MOL0     H13775   5.577   4.565   4.889 -1.4830  1.4062 -2.6035
  843MOL0     H13776   5.648   4.720   4.895  0.8829 -1.5303  4.1929
  843MOL0     H13777   5.784   4.448   4.871 -0.8560 -1.0502  4.8348
  843MOL0     H13778   5.803   4.558   4.994  1.1550  1.2847  0.4420
  843MOL0     H13779   5.996   4.534   4.852  0.0335 -1.4700 -2.7038
  843MOL0     H13780   5.923   4.586   4.713  1.8575  0.4098  0.2633
  843MOL0     H13781   5.937   4.777   4.952  1.6254  1.4316 -0.3320
  843MOL0     H13782   5.898   4.828   4.788  0.3732  1.1913  0.7820
  843MOL0     H13783   6.127   4.882   4.885  2.5670 -0.1046 -1.0334
  843MOL0     H13784   6.162   4.707   4.897  2.7311  0.4174 -2.0258
  843MOL0     H13785   5.412   4.357   4.325  0.3257 -0.1280  1.7577
  843MOL0     H13786   5.193   4.266   4.266  0.1088  0.4835  1.2447
  843MOL0     H13787   4.761   4.214   4.397 -1.1840 -1.5730  1.1274
  843MOL0     H13788   4.554   4.104   4.345 -2.0809 -0.6132 -1.9394
  843MOL0     H13789   2.713   3.409   4.283 -0.2456  2.5900  1.8418
  843MOL0     H13790   2.489   3.455   4.249  0.3646 -1.8048 -0.9829
  843MOL0     H13791   2.116   3.525   4.504  0.0906  1.1708 -2.7915
  843MOL0     H13792   1.906   3.599   4.571 -0.0189  1.1927 -2.2526
  843MOL0     H13793   1.703   3.662   4.503  1.3934 -2.1467 -1.4695
  843MOL0     H13794   1.557   3.620   4.593  0.7734 -1.9734  1.8872
  843MOL0     H13795   1.503   3.462   4.382  1.0548 -1.5246 -4.2378
  843MOL0     H13796   1.634   3.532   4.311  0.0914 -2.6059  2.0173
  843MOL0     H13797   1.548   3.752   4.303  0.6568 -1.3225 -1.1432
  843MOL0     H13798   1.408   3.714   4.401 -0.2168  2.5514 -0.2974
  843MOL0     H13799   1.473   3.635   4.117 -1.2968 -3.1664 -1.5346
  843MOL0     H13800   1.358   3.539   4.219  1.2817 -0.3650  0.2742
  843MOL0     H13801   1.152   3.910   4.140  1.8107  1.2566  2.1082
  843MOL0     H13802   1.722   3.254   4.412  0.5083  0.2805 -0.7927
  843MOL0     H13803   1.980   3.139   4.235 -0.1197 -0.6835 -1.2187
  843MOL0     H13804   2.010   3.046   4.374 -0.0207  0.5943 -0.7351
  843MOL0     H13805   1.839   3.078   4.339 -0.6628  2.6161 -1.3641
  844MOL0     O13806   0.590   0.762   5.250  0.2013  0.4702  0.3204
  844MOL0     C13807   0.531   0.794   5.355  0.7196 -0.4753  0.0486
  844MOL0     O13808   0.592   0.865   5.453  0.8376 -0.1901 -0.3530
  844MOL0     C13809   0.718   0.921   5.432  0.0579 -0.7857 -0.0018
  844MOL0     C13810   0.749   0.995   5.316  0.2602 -0.0848  0.3554
  844MOL0     C13811   0.868   1.069   5.310 -1.1895  0.5429 -0.3768
  844MOL0     C13812   0.973   1.048   5.407 -0.6516  0.4644  0.8034
  844MOL0     O13813   1.096   1.115   5.403  0.1945 -0.4256  0.2412
  844MOL0     C13814   1.124   1.214   5.306  0.6887 -0.7936 -1.0746
  844MOL0     C13815   1.266   1.272   5.299 -0.3356 -0.2979  0.1742
  844MOL0     C13816   1.379   1.169   5.288  0.0808 -0.0834  0.2123
  844MOL0     C13817   1.507   1.205   5.365  1.1763 -0.6755 -0.0950
  844MOL0     C13818   1.573   1.340   5.314 -0.3470 -0.0138 -0.4463
  844MOL0     C13819   1.690   1.381   5.405 -0.5791  0.5119 -0.1327
  844MOL0     C13820   1.789   1.472   5.343 -0.6384 -0.3844  0.0449
  844MOL0     C13821   1.895   1.497   5.452  0.2623  1.2332 -0.1385
  844MOL0     N13822   2.009   1.583   5.414  0.0876 -0.6666 -0.1152
  844MOL0     C13823   2.088   1.562   5.305 -0.3713 -0.2154 -0.4214
  844MOL0     C13824   2.165   1.670   5.298  0.5771  0.1759  0.9371
  844MOL0     C13825   2.254   1.696   5.174 -0.0002 -0.2437 -0.2379
  844MOL0     C13826   2.405   1.707   5.193 -0.1691 -1.0349  0.1421
  844MOL0     C13827   2.457   1.845   5.164 -0.1996 -0.4918 -0.1586
  844MOL0     C13828   2.606   1.875   5.192 -0.1294 -0.0066 -0.3194
  844MOL0     O13829   2.694   1.773   5.136  0.1964 -0.6122 -0.4641
  844MOL0     C13830   2.834   1.780   5.144  1.1428 -0.3885  0.1169
  844MOL0     C13831   2.914   1.717   5.047  0.3212 -0.5352 -0.8726
  844MOL0     C13832   3.055   1.717   5.063  0.2074  0.4668  0.3322
  844MOL0     C13833   3.121   1.792   5.159 -0.8165 -0.4524 -0.6986
  844MOL0     C13834   3.265   1.785   5.190  0.2155 -0.0516 -0.0202
  844MOL0     O13835   3.337   1.709   5.109  0.5169  0.0344 -0.2190
  844MOL0     C13836   3.465   1.674   5.141  0.4237 -0.0591 -0.3396
  844MOL0     C13837   3.547   1.658   5.030 -0.3240 -0.8364  0.2802
  844MOL0     C13838   3.678   1.619   5.052 -0.5874 -0.1658  0.1623
  844MOL0     C13839   3.724   1.578   5.176  0.5713 -0.2352 -0.4945
  844MOL0     O13840   3.852   1.529   5.191 -0.1379  0.7209 -0.9708
  844MOL0     C13841   3.923   1.513   5.318  0.0850 -0.5483  0.2873
  844MOL0     C13842   4.067   1.463   5.301 -0.6480  0.8321 -0.0999
  844MOL0     C13843   4.070   1.316   5.256 -0.3601 -0.0496  0.1839
  844MOL0     C13844   4.196   1.284   5.163 -0.1478 -0.2594 -0.4836
  844MOL0     C13845   4.319   1.291   5.258  0.4074  0.3961 -0.6512
  844MOL0     C13846   4.449   1.250   5.193 -0.3623  0.5273  1.1236
  844MOL0     C13847   4.569   1.275   5.282  0.3417  0.2108 -0.7201
  844MOL0     C13848   4.707   1.233   5.230  0.0883 -0.7171  0.7571
  844MOL0    Cl13849   4.710   1.054   5.220 -0.4406 -0.1339  0.5147
  844MOL0     C13850   3.637   1.590   5.283 -0.1474 -0.2501 -0.5020
  844MOL0     C13851   3.506   1.641   5.271 -0.4993 -1.6913 -0.2543
  844MOL0     O13852   3.308   1.847   5.280 -0.4104  0.1744 -0.0745
  844MOL0     C13853   3.039   1.864   5.250 -0.3492 -0.5982 -0.7433
  844MOL0     C13854   2.898   1.856   5.244  1.1170 -0.5129  0.2481
  844MOL0     N13855   2.152   1.751   5.410  0.8266  0.9064 -0.5460
  844MOL0     N13856   2.056   1.690   5.478  0.5865 -0.4784 -0.5738
  844MOL0     C13857   0.952   0.962   5.520  0.0912 -0.4351  0.4431
  844MOL0     C13858   0.817   0.906   5.531  0.3514  0.9998 -0.3367
  844MOL0     C13859   0.389   0.754   5.374 -0.0362  1.4364 -0.7393
  844MOL0     C13860   0.304   0.836   5.456 -0.0957 -0.5351  0.0848
  844MOL0     C13861   0.170   0.802   5.472  0.0055  0.4114  0.7886
  844MOL0     C13862   0.113   0.691   5.421  0.7966 -0.2775 -0.3914
  844MOL0     O13863  -0.016   0.654   5.457  0.3335 -0.1287 -0.4620
  844MOL0     C13864  -0.025   0.558   5.562 -0.4407  0.6076 -0.6500
  844MOL0     C13865  -0.155   0.484   5.541  0.0258 -0.0427 -0.4983
  844MOL0     C13866  -0.151   0.406   5.412 -0.4004 -0.1337  1.3355
  844MOL0     C13867  -0.261   0.297   5.397 -0.6359 -0.2458 -0.4891
  844MOL0     C13868  -0.393   0.342   5.434 -0.9394  0.5118  0.4628
  844MOL0     C13869  -0.502   0.372   5.479 -0.9517 -0.1195 -0.2463
  844MOL0     C13870   0.191   0.602   5.343 -0.6653 -0.6340  0.1262
  844MOL0     C13871   0.324   0.635   5.313 -0.4569  0.1811  0.0750
  844MOL0     C13872   0.391   0.525   5.225 -0.1412 -0.1499  0.4361
  844MOL0     H13873   0.682   1.011   5.232 -1.8877  0.7302  2.1138
  844MOL0     H13874   0.882   1.141   5.229  0.4479  0.5755 -0.0991
  844MOL0     H13875   1.109   1.166   5.209 -0.6361 -1.5998 -0.5024
  844MOL0     H13876   1.049   1.293   5.317  1.2280 -0.2973 -0.9394
  844MOL0     H13877   1.272   1.337   5.386 -1.9478  0.3916 -0.1851
  844MOL0     H13878   1.278   1.341   5.214 -1.1512  0.0156  0.2983
  844MOL0     H13879   1.423   1.161   5.189  3.7186  0.6344  1.6213
  844MOL0     H13880   1.336   1.075   5.325 -0.6465  0.2701  0.2894
  844MOL0     H13881   1.464   1.208   5.466  1.5881  1.5652  0.0596
  844MOL0     H13882   1.586   1.129   5.362  3.3144  1.2683  2.1129
  844MOL0     H13883   1.613   1.324   5.214  2.7671 -0.2080  0.7385
  844MOL0     H13884   1.507   1.427   5.311 -0.9270 -0.4653 -1.3477
  844MOL0     H13885   1.655   1.422   5.500 -0.0263 -0.7383  0.6404
  844MOL0     H13886   1.747   1.294   5.438 -0.9021  0.9535  1.6719
  844MOL0     H13887   1.730   1.561   5.319 -0.6239 -0.8680 -1.9742
  844MOL0     H13888   1.836   1.426   5.255 -1.0566 -1.5318  0.4052
  844MOL0     H13889   1.843   1.537   5.540 -0.2201  1.2299 -0.4179
  844MOL0     H13890   1.940   1.399   5.471 -2.5235 -0.1244 -0.1567
  844MOL0     H13891   2.085   1.484   5.230 -2.1725 -1.1176  0.5460
  844MOL0     H13892   2.243   1.617   5.099 -0.7712  0.2084 -0.6113
  844MOL0     H13893   2.223   1.792   5.133 -0.4099 -0.8531 -1.4261
  844MOL0     H13894   2.425   1.677   5.296 -1.6732 -1.2582  0.3867
  844MOL0     H13895   2.456   1.642   5.121 -0.2902 -1.7502  0.7052
  844MOL0     H13896   2.397   1.920   5.215  1.6290  1.2585 -0.4613
  844MOL0     H13897   2.453   1.854   5.056 -2.0231  1.9945  0.0520
  844MOL0     H13898   2.623   1.873   5.300  0.6578  0.8486 -0.4163
  844MOL0     H13899   2.626   1.976   5.156 -2.2473  0.5655 -0.0265
  844MOL0     H13900   2.864   1.653   4.975  1.8281 -1.8669 -0.7896
  844MOL0     H13901   3.112   1.660   4.991 -0.6881 -0.4562  0.3272
  844MOL0     H13902   3.505   1.685   4.934 -1.5039 -0.3953  0.9028
  844MOL0     H13903   3.741   1.624   4.964  1.3557  1.9785  1.5341
  844MOL0     H13904   3.915   1.614   5.360 -2.2983 -0.7287  0.4063
  844MOL0     H13905   3.870   1.448   5.388  0.9093 -1.4256  0.1174
  844MOL0     H13906   4.129   1.526   5.236  0.6139  0.3841  0.6207
  844MOL0     H13907   4.109   1.457   5.401 -0.8557 -3.1971 -0.0837
  844MOL0     H13908   4.070   1.249   5.343  0.6408  0.5494  0.6639
  844MOL0     H13909   3.985   1.291   5.191  1.3213  0.0700 -2.1961
  844MOL0     H13910   4.210   1.351   5.078 -0.2381  1.0904  0.5298
  844MOL0     H13911   4.173   1.186   5.121 -2.2661  0.0071 -0.0575
  844MOL0     H13912   4.303   1.225   5.344  2.8515  1.8447  1.0399
  844MOL0     H13913   4.344   1.386   5.306  1.5455 -0.0729 -0.2768
  844MOL0     H13914   4.445   1.145   5.165 -0.6100  1.3469 -2.4195
  844MOL0     H13915   4.465   1.303   5.099 -1.1022  2.0367  1.8034
  844MOL0     H13916   4.553   1.232   5.381  0.5087  2.4870  0.3596
  844MOL0     H13917   4.571   1.381   5.308 -1.1821 -0.1565  1.0980
  844MOL0     H13918   4.707   1.270   5.127  0.2735 -2.2634  0.1766
  844MOL0     H13919   4.785   1.280   5.291 -1.7739  1.7459  1.4125
  844MOL0     H13920   3.659   1.576   5.389 -2.1807  1.9608  0.3164
  844MOL0     H13921   3.436   1.658   5.352  1.6808  2.4960  1.0036
  844MOL0     H13922   3.076   1.933   5.325 -2.6822 -0.7911  0.6780
  844MOL0     H13923   2.836   1.915   5.311  2.6682 -0.0355  1.3193
  844MOL0     H13924   1.019   0.939   5.603 -0.9347  0.1413  1.4624
  844MOL0     H13925   0.790   0.857   5.624 -0.6852  1.3940 -0.4102
  844MOL0     H13926   0.348   0.910   5.521 -2.0717 -1.0500  2.1187
  844MOL0     H13927   0.114   0.850   5.552  1.2487  2.6673  0.4079
  844MOL0     H13928  -0.018   0.602   5.661  1.8766 -0.2077 -0.3723
  844MOL0     H13929   0.059   0.487   5.559  2.4232  3.4946  2.5983
  844MOL0     H13930  -0.236   0.557   5.531  1.6642  1.7966 -1.0356
  844MOL0     H13931  -0.164   0.423   5.632  0.4787  0.6768  0.0425
  844MOL0     H13932  -0.053   0.358   5.417  0.2540  1.1831  1.7541
  844MOL0     H13933  -0.151   0.472   5.324  0.5552 -2.4170 -0.4659
  844MOL0     H13934  -0.250   0.253   5.297 -0.1468 -0.6856 -0.2429
  844MOL0     H13935  -0.229   0.221   5.468  1.6352  0.6943 -0.3969
  844MOL0     H13936  -0.604   0.392   5.503 -0.6635  0.5761  0.4270
  844MOL0     H13937   0.143   0.509   5.314 -0.0637 -1.4184  1.5083
  844MOL0     H13938   0.319   0.457   5.179 -1.3417  1.6951 -0.5654
  844MOL0     H13939   0.457   0.558   5.144 -0.6675  1.8911  0.7748
  844MOL0     H13940   0.450   0.464   5.294  0.3139  0.7921  0.9063
  845MOL0     O13941   3.262   5.276   1.646 -0.1090  0.2234 -0.1879
  845MOL0     C13942   3.300   5.184   1.579 -0.0075 -0.2824 -0.7452
  845MOL0     O13943   3.422   5.121   1.593 -0.5784  1.0240 -0.6500
  845MOL0     C13944   3.511   5.194   1.674 -0.4625  0.1580 -0.6386
  845MOL0     C13945   3.576   5.304   1.620  0.5407 -0.4815  0.2783
  845MOL0     C13946   3.674   5.364   1.700 -0.7297 -0.8538  0.4004
  845MOL0     C13947   3.700   5.313   1.823 -0.5081 -0.2698 -0.1373
  845MOL0     O13948   3.795   5.378   1.893 -0.1783 -0.5832  1.0076
  845MOL0     C13949   3.876   5.310   1.994 -0.0972  0.6781 -1.3758
  845MOL0     C13950   3.940   5.184   1.942 -0.0356  0.1816  0.0865
  845MOL0     C13951   4.050   5.128   2.041  1.1029 -0.0713 -0.2129
  845MOL0     C13952   4.103   4.986   2.023 -0.3322 -0.2142 -0.1985
  845MOL0     C13953   4.150   4.952   1.882 -0.7379 -0.6642 -1.0670
  845MOL0     C13954   4.212   4.812   1.872  1.0518 -0.4705 -0.1280
  845MOL0     C13955   4.270   4.794   1.734  0.0029  0.3055  0.7205
  845MOL0     C13956   4.287   4.642   1.703 -0.3328 -0.0346  0.5128
  845MOL0     N13957   4.263   4.606   1.558 -0.6161 -0.0580  0.4509
  845MOL0     C13958   4.304   4.691   1.447 -0.6258  0.3029 -0.5793
  845MOL0     C13959   4.248   4.633   1.338 -0.1369  0.2802  0.4669
  845MOL0     C13960   4.247   4.689   1.196 -0.7649  0.3035 -0.5600
  845MOL0     C13961   4.348   4.604   1.102  0.4876  1.5596  0.2672
  845MOL0     C13962   4.493   4.607   1.162 -0.6586  0.1331  0.4256
  845MOL0     C13963   4.593   4.541   1.063 -0.0824  0.3122 -0.0561
  845MOL0     O13964   4.722   4.564   1.118  0.6410 -0.0392 -0.1883
  845MOL0     C13965   4.830   4.518   1.046  0.8613  0.8913  0.8984
  845MOL0     C13966   4.825   4.470   0.914 -0.2944  0.5484 -0.1514
  845MOL0     C13967   4.944   4.439   0.853  0.2803 -0.8769  0.7180
  845MOL0     C13968   5.069   4.447   0.922  0.3749 -1.1223  1.0694
  845MOL0     C13969   5.192   4.396   0.866 -0.5456 -0.2259 -0.2254
  845MOL0     O13970   5.302   4.412   0.940 -0.1237  0.2384 -0.7665
  845MOL0     C13971   5.430   4.379   0.893  0.1951  0.4021 -0.6657
  845MOL0     C13972   5.538   4.457   0.928 -0.2218  0.2362  0.4847
  845MOL0     C13973   5.673   4.415   0.908  0.2394 -0.3562  0.3007
  845MOL0     C13974   5.700   4.290   0.845  0.2726 -0.2256  0.0855
  845MOL0     O13975   5.828   4.250   0.831  0.0856  0.2839  0.3832
  845MOL0     C13976   5.866   4.183   0.703  0.3581 -0.3744 -0.4445
  845MOL0     C13977   5.890   4.294   0.596 -0.1593  0.8485  0.8331
  845MOL0     C13978   6.035   4.345   0.569 -0.2680 -0.1580  0.0312
  845MOL0     C13979   6.091   4.432   0.679  0.3687  0.3440 -0.4458
  845MOL0     C13980   6.228   4.488   0.647  0.2160  0.6745  0.6657
  845MOL0     C13981   6.274   4.592   0.743  0.7964 -0.4241 -0.5040
  845MOL0     C13982   6.321   4.548   0.881  0.3605 -0.0523  0.2901
  845MOL0     C13983   6.410   4.652   0.947 -0.2802 -0.2468 -0.1451
  845MOL0    Cl13984   6.311   4.783   1.026 -0.3989  0.1533  0.0140
  845MOL0     C13985   5.588   4.207   0.819 -0.2786 -0.0755 -0.6248
  845MOL0     C13986   5.459   4.253   0.844  0.7294 -0.9076  0.0169
  845MOL0     O13987   5.190   4.353   0.748 -0.0838 -0.3792 -0.1259
  845MOL0     C13988   5.071   4.487   1.049 -0.7289 -0.0297 -0.6103
  845MOL0     C13989   4.955   4.522   1.115  0.1926 -0.4463  0.6056
  845MOL0     N13990   4.166   4.532   1.385 -0.0002  0.2653  0.4341
  845MOL0     N13991   4.168   4.515   1.512 -0.4055  0.6864 -0.2989
  845MOL0     C13992   3.628   5.205   1.882 -0.5491  0.5735 -0.5712
  845MOL0     C13993   3.543   5.135   1.802 -0.1126 -1.0181  0.0309
  845MOL0     C13994   3.201   5.116   1.487 -0.4553  0.2111  0.4419
  845MOL0     C13995   3.242   4.996   1.423 -0.3934  1.3125  0.0817
  845MOL0     C13996   3.161   4.921   1.341  1.0646 -0.1578  0.6601
  845MOL0     C13997   3.034   4.968   1.306 -0.1343 -0.3675 -0.7666
  845MOL0     O13998   2.947   4.913   1.224  0.1353  0.3886 -0.1268
  845MOL0     C13999   2.998   4.821   1.128 -0.5006 -0.0519  0.1359
  845MOL0     C14000   2.903   4.817   1.011  0.1175  0.5760  0.1544
  845MOL0     C14001   2.754   4.792   1.061 -0.4764  0.4067  0.1852
  845MOL0     C14002   2.675   4.735   0.939  0.0819  0.0511 -0.2701
  845MOL0     C14003   2.545   4.801   0.911  0.5784  0.0049  0.2484
  845MOL0     C14004   2.437   4.854   0.911 -0.4799 -0.8919 -0.8403
  845MOL0     C14005   2.989   5.082   1.368  0.1400  0.7591  0.3859
  845MOL0     C14006   3.069   5.157   1.458 -0.1305 -1.3304 -0.4904
  845MOL0     C14007   2.998   5.286   1.499  0.0765  0.8443  0.3942
  845MOL0     H14008   3.540   5.345   1.526 -0.2290  1.1125  1.2205
  845MOL0     H14009   3.725   5.451   1.660 -0.8890 -0.1389  1.6887
  845MOL0     H14010   3.952   5.379   2.034 -0.5891 -1.0201  3.0343
  845MOL0     H14011   3.819   5.289   2.085  1.4443  1.6920 -0.0950
  845MOL0     H14012   3.976   5.207   1.841  0.4882  0.7283  0.3908
  845MOL0     H14013   3.863   5.110   1.919 -1.0274  1.3594 -0.5358
  845MOL0     H14014   4.015   5.138   2.144  0.1054 -4.9120  0.1703
  845MOL0     H14015   4.140   5.190   2.039  1.4487 -0.5565  0.2328
  845MOL0     H14016   4.184   4.968   2.094 -2.8246 -0.8350  2.6382
  845MOL0     H14017   4.018   4.922   2.048  0.1566 -0.0714  2.0252
  845MOL0     H14018   4.064   4.968   1.817  0.9412  1.8621 -2.8403
  845MOL0     H14019   4.222   5.030   1.855 -2.0074  1.2080  0.6230
  845MOL0     H14020   4.294   4.805   1.944  0.7637  1.1248  0.3941
  845MOL0     H14021   4.134   4.738   1.892  0.3727 -0.2061 -1.6657
  845MOL0     H14022   4.368   4.841   1.723  1.1735 -2.5527 -3.4800
  845MOL0     H14023   4.203   4.845   1.664  0.5435  3.4033  2.2709
  845MOL0     H14024   4.388   4.605   1.720 -0.6343 -2.3598 -2.0870
  845MOL0     H14025   4.222   4.582   1.767 -0.2461 -1.5175 -0.7358
  845MOL0     H14026   4.374   4.774   1.438  0.0132 -0.0670  0.6786
  845MOL0     H14027   4.144   4.681   1.158  0.1246 -1.7900 -2.8771
  845MOL0     H14028   4.277   4.794   1.198  0.0579  0.0865  2.1340
  845MOL0     H14029   4.314   4.500   1.110  0.0004  1.7055  0.1094
  845MOL0     H14030   4.344   4.638   0.998  0.2146 -0.1208 -0.3105
  845MOL0     H14031   4.510   4.568   1.263 -0.6910  0.6719  0.6439
  845MOL0     H14032   4.511   4.715   1.168 -1.9025  0.2592  5.1198
  845MOL0     H14033   4.576   4.577   0.961 -0.2427  0.5119  0.0396
  845MOL0     H14034   4.568   4.434   1.067 -0.3781  0.3985  0.5159
  845MOL0     H14035   4.729   4.456   0.865  1.1088 -2.6946 -2.2895
  845MOL0     H14036   4.922   4.400   0.754 -3.9158  1.1440  0.6493
  845MOL0     H14037   5.520   4.553   0.975 -0.8196  0.4674 -0.2037
  845MOL0     H14038   5.750   4.478   0.952 -1.2706  1.3292  0.6537
  845MOL0     H14039   5.963   4.135   0.715 -0.2506 -1.2154  1.3538
  845MOL0     H14040   5.792   4.111   0.666 -0.4401  0.4956 -0.5890
  845MOL0     H14041   5.875   4.240   0.502  3.4987  0.6531  0.2187
  845MOL0     H14042   5.826   4.383   0.602 -2.5743 -0.6449 -0.9785
  845MOL0     H14043   6.107   4.264   0.552 -1.9978 -1.8592  0.4538
  845MOL0     H14044   6.036   4.391   0.470 -0.1533  1.0198  0.5676
  845MOL0     H14045   6.093   4.374   0.772 -2.3912  1.2095  0.2390
  845MOL0     H14046   6.014   4.509   0.691 -0.6107 -0.5263 -1.0713
  845MOL0     H14047   6.226   4.544   0.554  2.3886 -1.6966 -0.9395
  845MOL0     H14048   6.302   4.412   0.622 -0.2933  0.6987 -0.9855
  845MOL0     H14049   6.362   4.631   0.692  1.6310 -3.2360 -1.3860
  845MOL0     H14050   6.199   4.671   0.754  2.5509  1.0527  2.3418
  845MOL0     H14051   6.373   4.452   0.874 -1.0261 -1.2848  4.4901
  845MOL0     H14052   6.236   4.526   0.945 -1.5542  1.9536 -1.4120
  845MOL0     H14053   6.471   4.604   1.024 -1.1958  1.3823  1.6800
  845MOL0     H14054   6.479   4.696   0.874 -0.0109  0.6188  0.6197
  845MOL0     H14055   5.604   4.114   0.766  1.8359  1.0594 -2.1111
  845MOL0     H14056   5.374   4.197   0.809  0.2038  0.2515 -0.6096
  845MOL0     H14057   5.161   4.487   1.109 -1.2075 -3.5709  0.3311
  845MOL0     H14058   4.958   4.558   1.217  2.5320  4.0294 -0.7662
  845MOL0     H14059   3.640   5.175   1.985 -1.4861  2.0183 -0.0063
  845MOL0     H14060   3.502   5.038   1.830 -1.6804 -0.3481  0.1583
  845MOL0     H14061   3.341   4.953   1.428  0.3689  2.5179 -2.8854
  845MOL0     H14062   3.200   4.837   1.285 -1.3771 -0.2884 -0.9646
  845MOL0     H14063   3.006   4.721   1.173 -2.7925 -0.1022  0.5762
  845MOL0     H14064   3.092   4.848   1.080 -1.1241 -1.3056 -1.9185
  845MOL0     H14065   2.941   4.730   0.956 -2.0761  1.1524 -2.5472
  845MOL0     H14066   2.911   4.906   0.947 -1.5917  2.3435  2.2558
  845MOL0     H14067   2.703   4.882   1.098  3.5875  3.0366  0.1270
  845MOL0     H14068   2.757   4.711   1.134  0.1856 -1.1625 -1.5136
  845MOL0     H14069   2.729   4.742   0.844  1.2828 -3.0141  0.0844
  845MOL0     H14070   2.650   4.630   0.956  1.1979 -0.5103 -1.8085
  845MOL0     H14071   2.336   4.889   0.909 -0.4485 -0.6345  0.7411
  845MOL0     H14072   2.898   5.127   1.329 -0.0073 -0.3675 -0.6153
  845MOL0     H14073   3.018   5.305   1.605  0.0915  0.1789  0.5185
  845MOL0     H14074   3.032   5.370   1.439  0.4932  0.5859  0.2649
  845MOL0     H14075   2.889   5.279   1.494  0.0128  1.8379  0.1356
  846MOL0     O14076   8.850   6.978   8.686  0.1467  0.2838  0.5729
  846MOL0     C14077   8.780   6.915   8.609 -0.3886 -1.4512 -0.3219
  846MOL0     O14078   8.787   6.777   8.601 -0.5100 -0.1038 -0.2870
  846MOL0     C14079   8.910   6.719   8.641  1.6702 -0.0178  0.2276
  846MOL0     C14080   8.897   6.616   8.740 -0.5642 -0.0975  0.2008
  846MOL0     C14081   9.002   6.537   8.781 -0.4766  0.0802 -0.0792
  846MOL0     C14082   9.128   6.578   8.732 -0.0437 -0.5781 -0.3035
  846MOL0     O14083   9.240   6.517   8.783 -0.6200  0.2183  0.0604
  846MOL0     C14084   9.233   6.374   8.773 -0.0303  0.8510 -0.4970
  846MOL0     C14085   9.376   6.335   8.734 -0.6002 -0.7768  0.3684
  846MOL0     C14086   9.473   6.323   8.858  0.4156 -0.2190  0.3397
  846MOL0     C14087   9.627   6.299   8.810 -1.1397  0.2466  0.0727
  846MOL0     C14088   9.722   6.231   8.916  0.8607 -0.7778 -0.0971
  846MOL0     C14089   9.672   6.099   8.960  1.0836 -0.0332  0.4032
  846MOL0     C14090   9.782   6.016   9.022 -0.4776  0.2461 -0.0433
  846MOL0     C14091   9.713   5.905   9.095 -0.2769 -0.1078 -0.8524
  846MOL0     N14092   9.671   5.793   9.010 -0.2243 -0.3072 -0.3939
  846MOL0     C14093   9.543   5.758   8.976  0.7692  0.0040 -0.2762
  846MOL0     C14094   9.553   5.643   8.904 -1.0447 -0.5694 -0.2188
  846MOL0     C14095   9.449   5.551   8.846 -0.3388  0.4118  0.3675
  846MOL0     C14096   9.357   5.629   8.758 -0.0325  0.4463  0.7781
  846MOL0     C14097   9.252   5.534   8.702 -0.2845 -0.9057 -0.3216
  846MOL0     C14098   9.147   5.599   8.610  1.1853  0.9076 -0.6596
  846MOL0     O14099   9.076   5.706   8.678 -0.0631 -0.2573  0.2191
  846MOL0     C14100   8.938   5.704   8.691 -0.5120 -0.3006  0.4265
  846MOL0     C14101   8.843   5.622   8.621 -0.4075  0.5084  1.1313
  846MOL0     C14102   8.707   5.642   8.634  0.3216  0.0659  0.7216
  846MOL0     C14103   8.649   5.731   8.724 -1.2361  0.4491  0.0138
  846MOL0     C14104   8.505   5.731   8.743  0.5261 -0.0691  0.3143
  846MOL0     O14105   8.433   5.623   8.692  0.4097  0.5103 -0.0685
  846MOL0     C14106   8.293   5.623   8.710  1.2966 -1.0621 -0.7567
  846MOL0     C14107   8.204   5.653   8.605 -0.4338 -0.9199 -0.0534
  846MOL0     C14108   8.063   5.659   8.616 -0.7654 -0.7332  0.6672
  846MOL0     C14109   8.006   5.643   8.741 -0.2951 -0.5673 -0.4841
  846MOL0     O14110   7.869   5.644   8.763  0.1898  0.2340  0.1295
  846MOL0     C14111   7.781   5.614   8.649  0.9830  0.0946  0.1100
  846MOL0     C14112   7.632   5.609   8.696 -0.3452  0.4453 -0.5775
  846MOL0     C14113   7.584   5.749   8.742  0.2085  0.8510 -0.6097
  846MOL0     C14114   7.435   5.777   8.755  0.2347  0.0155 -0.4145
  846MOL0     C14115   7.376   5.800   8.612 -0.3489 -0.2903 -0.7069
  846MOL0     C14116   7.223   5.822   8.615  0.2915  0.1981 -0.7178
  846MOL0     C14117   7.158   5.860   8.486  0.4839 -0.2806 -0.9438
  846MOL0     C14118   7.008   5.831   8.488 -0.6739  0.1064  0.1773
  846MOL0    Cl14119   6.935   5.837   8.321 -0.0572 -0.4236 -0.0527
  846MOL0     C14120   8.092   5.613   8.849 -0.0464  0.1826  0.0035
  846MOL0     C14121   8.233   5.605   8.832 -0.6100 -0.2052  0.2034
  846MOL0     O14122   8.457   5.838   8.780  0.0204 -0.6911  0.4667
  846MOL0     C14123   8.742   5.813   8.791  0.3580 -0.3805  0.0112
  846MOL0     C14124   8.880   5.804   8.769 -0.2535  0.3111  0.9321
  846MOL0     N14125   9.689   5.610   8.892  0.1257 -0.0877 -0.6088
  846MOL0     N14126   9.756   5.698   8.954 -0.1307  0.0029  0.2838
  846MOL0     C14127   9.142   6.670   8.630 -0.1611 -0.3792 -0.3947
  846MOL0     C14128   9.028   6.745   8.586 -0.2382  0.7507  0.8069
  846MOL0     C14129   8.661   6.978   8.551  0.3602 -0.0656  0.0469
  846MOL0     C14130   8.569   6.888   8.493  0.3793  0.2228 -0.1021
  846MOL0     C14131   8.448   6.929   8.439  0.7064 -0.8274  1.5835
  846MOL0     C14132   8.411   7.067   8.441 -0.7430 -0.2343 -0.8118
  846MOL0     O14133   8.304   7.128   8.386  0.3755 -0.4019 -0.1140
  846MOL0     C14134   8.219   7.060   8.291  0.1369 -0.9176 -0.0273
  846MOL0     C14135   8.145   7.171   8.213  0.0452 -0.3696  0.1261
  846MOL0     C14136   8.222   7.294   8.158  0.6181  0.4000 -0.4680
  846MOL0     C14137   8.138   7.360   8.046 -0.1012 -0.1243 -1.0666
  846MOL0     C14138   8.151   7.294   7.917  0.0582 -0.9572 -0.1657
  846MOL0     C14139   8.162   7.245   7.806 -0.1324 -0.2994 -0.5027
  846MOL0     C14140   8.512   7.156   8.485  0.0370  0.5690 -0.0931
  846MOL0     C14141   8.629   7.119   8.547 -0.8555  1.0564 -0.6440
  846MOL0     C14142   8.717   7.223   8.609 -0.0294  0.5114  0.3490
  846MOL0     H14143   8.800   6.592   8.784  0.5836 -1.9344  1.9327
  846MOL0     H14144   8.999   6.445   8.839  2.1514  0.1428  0.2861
  846MOL0     H14145   9.201   6.336   8.870 -1.2861  0.9458 -0.8528
  846MOL0     H14146   9.158   6.343   8.701 -0.1926 -3.0079  1.1047
  846MOL0     H14147   9.423   6.418   8.679 -1.1513 -0.5731  0.2043
  846MOL0     H14148   9.388   6.244   8.674  2.1839 -0.9391  1.0140
  846MOL0     H14149   9.436   6.241   8.920 -0.6177 -0.4876 -0.6016
  846MOL0     H14150   9.475   6.412   8.922  2.0248 -0.2481  0.3561
  846MOL0     H14151   9.629   6.229   8.726 -1.8904 -0.3210  0.5162
  846MOL0     H14152   9.682   6.388   8.777  2.8486 -2.4190 -1.1853
  846MOL0     H14153   9.816   6.208   8.866 -0.5777 -4.8199 -1.3283
  846MOL0     H14154   9.724   6.288   9.009 -1.8856  4.3132 -2.7105
  846MOL0     H14155   9.604   6.118   9.043  0.8225 -0.3155  0.2553
  846MOL0     H14156   9.610   6.043   8.890  0.3290  1.3947 -0.1291
  846MOL0     H14157   9.844   6.069   9.095 -0.8728 -0.0145  0.4880
  846MOL0     H14158   9.849   5.989   8.940  1.2001  3.1762  0.2418
  846MOL0     H14159   9.791   5.880   9.168 -0.1252  3.2665  0.3052
  846MOL0     H14160   9.630   5.930   9.162  0.3929 -0.2771  0.0665
  846MOL0     H14161   9.454   5.807   9.013  0.7044 -1.1010  1.1106
  846MOL0     H14162   9.502   5.468   8.797  1.0243  1.9111 -0.8431
  846MOL0     H14163   9.391   5.512   8.930 -1.3075  0.5851 -0.2063
  846MOL0     H14164   9.304   5.706   8.815  1.3703  0.5013  2.0459
  846MOL0     H14165   9.416   5.691   8.689  1.2061 -1.8361 -0.3107
  846MOL0     H14166   9.199   5.484   8.783 -2.2794 -2.4356 -2.4294
  846MOL0     H14167   9.298   5.449   8.650  3.3432  0.5853  0.1286
  846MOL0     H14168   9.083   5.515   8.580 -1.0112  0.6288  3.8430
  846MOL0     H14169   9.191   5.639   8.518  0.1546  2.5314 -0.4871
  846MOL0     H14170   8.876   5.541   8.556 -0.0397  1.6192 -0.1269
  846MOL0     H14171   8.641   5.586   8.569  0.1321 -0.1191  1.0688
  846MOL0     H14172   8.255   5.672   8.510 -1.5810  2.0587 -0.2084
  846MOL0     H14173   8.008   5.684   8.526  0.8737  0.6902  0.0046
  846MOL0     H14174   7.780   5.699   8.580 -0.2719 -0.6110 -0.7800
  846MOL0     H14175   7.800   5.521   8.594 -3.2360 -0.8269 -0.1624
  846MOL0     H14176   7.576   5.562   8.615  1.1118  0.7204 -1.7814
  846MOL0     H14177   7.630   5.530   8.772 -0.2584 -0.0052 -1.0415
  846MOL0     H14178   7.617   5.777   8.842 -2.6995 -0.3158  0.7932
  846MOL0     H14179   7.625   5.819   8.669 -1.8775  2.7248 -0.0940
  846MOL0     H14180   7.428   5.868   8.815  1.8808 -0.0137 -0.1096
  846MOL0     H14181   7.378   5.701   8.808  1.3264  0.6316  1.7495
  846MOL0     H14182   7.392   5.712   8.549  0.9139 -2.5935  2.5706
  846MOL0     H14183   7.425   5.888   8.568 -0.5367  1.0754  1.6465
  846MOL0     H14184   7.185   5.726   8.650 -1.0380  1.0735  0.3478
  846MOL0     H14185   7.196   5.900   8.687 -0.8315 -0.8014 -0.0203
  846MOL0     H14186   7.200   5.803   8.403  0.3604  1.6275 -2.3807
  846MOL0     H14187   7.170   5.965   8.458 -0.9148  0.1843  0.0803
  846MOL0     H14188   6.997   5.727   8.518  1.3426 -0.4870 -0.9855
  846MOL0     H14189   6.961   5.893   8.566  0.5653  0.7707  0.4199
  846MOL0     H14190   8.044   5.600   8.945 -2.6755 -0.8894 -1.3365
  846MOL0     H14191   8.299   5.589   8.917  2.7855  0.7667 -2.0526
  846MOL0     H14192   8.698   5.893   8.851 -1.6179 -1.3961  0.0115
  846MOL0     H14193   8.942   5.871   8.828 -0.9161 -1.0844  3.3464
  846MOL0     H14194   9.242   6.694   8.595 -0.3551  4.5357  1.6177
  846MOL0     H14195   9.035   6.811   8.501  0.9870 -0.5740 -0.1767
  846MOL0     H14196   8.586   6.782   8.482 -2.3847 -0.1476 -1.8816
  846MOL0     H14197   8.380   6.863   8.384 -1.5474  2.4785  0.0558
  846MOL0     H14198   8.150   6.993   8.343 -0.0344 -1.3239 -0.7719
  846MOL0     H14199   8.274   6.990   8.227  0.3871 -1.0796  0.3642
  846MOL0     H14200   8.073   7.211   8.285 -0.5215 -2.0159  0.5217
  846MOL0     H14201   8.101   7.122   8.126 -2.0166  3.0044 -0.9180
  846MOL0     H14202   8.320   7.262   8.121  0.9650 -1.2248  1.6506
  846MOL0     H14203   8.229   7.364   8.242 -0.4134 -0.8569  0.7245
  846MOL0     H14204   8.029   7.355   8.057 -0.3372  1.0041 -2.5332
  846MOL0     H14205   8.170   7.465   8.048  1.8750 -0.6883  0.9110
  846MOL0     H14206   8.182   7.207   7.708 -2.9122 -0.0175 -1.2540
  846MOL0     H14207   8.486   7.258   8.461 -1.9811 -0.3188 -2.0264
  846MOL0     H14208   8.699   7.321   8.563  2.1703  1.4284  1.3506
  846MOL0     H14209   8.699   7.224   8.717  1.0415  2.3936  0.5545
  846MOL0     H14210   8.822   7.207   8.584 -0.9144 -2.6528 -1.9309
  847MOL0     O14211   6.113   2.051   8.369 -0.4824 -0.3666  0.3300
  847MOL0     C14212   6.135   2.153   8.426  0.3126 -0.1981 -0.0185
  847MOL0     O14213   6.041   2.234   8.471 -0.0274  0.4576  0.2547
  847MOL0     C14214   5.910   2.200   8.455 -0.0030  0.1828 -0.5461
  847MOL0     C14215   5.817   2.278   8.391  1.0989 -0.4168  0.0761
  847MOL0     C14216   5.687   2.239   8.375  0.1667 -0.4881  0.9575
  847MOL0     C14217   5.639   2.133   8.450  0.4776 -0.1533  0.0075
  847MOL0     O14218   5.506   2.108   8.442  0.0557 -0.3308 -0.7376
  847MOL0     C14219   5.453   2.010   8.526  0.9429  0.4061  0.0180
  847MOL0     C14220   5.310   1.983   8.491 -0.2496 -0.1868  0.1620
  847MOL0     C14221   5.253   1.870   8.570  0.3534  0.1619 -0.4915
  847MOL0     C14222   5.101   1.879   8.584  0.2360  0.4877 -0.3713
  847MOL0     C14223   5.052   1.761   8.677  0.2675  0.1341  0.4918
  847MOL0     C14224   4.911   1.802   8.708  0.2970  0.5839  0.4371
  847MOL0     C14225   4.855   1.701   8.811 -0.1238 -0.3329 -0.0049
  847MOL0     C14226   4.710   1.713   8.842  0.4052  0.2005 -0.8454
  847MOL0     N14227   4.671   1.595   8.920  0.1203 -0.0521 -0.2814
  847MOL0     C14228   4.595   1.493   8.874 -0.1107 -0.0523 -0.2183
  847MOL0     C14229   4.547   1.424   8.982  0.4182 -0.1424  0.0969
  847MOL0     C14230   4.446   1.308   8.979  0.1276 -0.3121  0.5425
  847MOL0     C14231   4.495   1.202   9.078  0.2622  0.5724  1.3108
  847MOL0     C14232   4.422   1.072   9.052 -0.3504  0.2048 -0.9291
  847MOL0     C14233   4.300   1.040   9.146  0.0765 -0.3232  0.0984
  847MOL0     O14234   4.206   1.148   9.121 -0.5284  0.2341 -0.4243
  847MOL0     C14235   4.094   1.165   9.202 -0.2921 -0.6402  0.4369
  847MOL0     C14236   4.013   1.278   9.173 -0.1675 -0.2433 -0.3755
  847MOL0     C14237   3.886   1.298   9.222 -0.2651 -0.4610 -0.4030
  847MOL0     C14238   3.830   1.191   9.294 -0.8141 -0.1334 -0.4442
  847MOL0     C14239   3.683   1.187   9.335 -0.4965 -0.0372  0.7408
  847MOL0     O14240   3.643   1.091   9.416 -0.3425 -0.0927 -0.7599
  847MOL0     C14241   3.512   1.102   9.451 -0.3249  0.2409  0.6993
  847MOL0     C14242   3.406   1.064   9.370 -0.4001 -0.5650  0.0444
  847MOL0     C14243   3.274   1.071   9.418  0.7155 -0.0660  0.1182
  847MOL0     C14244   3.248   1.118   9.549  0.5155 -0.1939  0.1883
  847MOL0     O14245   3.120   1.126   9.588  0.2483 -0.9046 -0.5465
  847MOL0     C14246   3.041   1.182   9.494 -0.9340 -0.7041 -0.1355
  847MOL0     C14247   2.905   1.201   9.551  0.1396 -0.1193  0.2130
  847MOL0     C14248   2.796   1.247   9.443  0.2859 -0.6718 -0.6703
  847MOL0     C14249   2.652   1.250   9.493 -0.1831 -0.1922  0.3626
  847MOL0     C14250   2.553   1.293   9.374  0.9904  0.3858  0.1543
  847MOL0     C14251   2.432   1.202   9.367  0.0708  0.1465  0.4401
  847MOL0     C14252   2.362   1.164   9.508 -0.0207  0.4528  0.5296
  847MOL0     C14253   2.217   1.122   9.490 -0.6081  0.4250  0.2343
  847MOL0    Cl14254   2.203   0.979   9.381  0.0230  0.3285 -0.3883
  847MOL0     C14255   3.362   1.182   9.622  0.4894  0.3202  0.5825
  847MOL0     C14256   3.482   1.162   9.567 -0.2608  0.5028  0.0340
  847MOL0     O14257   3.612   1.273   9.285 -0.4344  0.4034  0.4765
  847MOL0     C14258   3.902   1.077   9.326 -0.6629 -0.3225 -0.2105
  847MOL0     C14259   4.035   1.071   9.279 -0.7487  0.5182 -0.0967
  847MOL0     N14260   4.597   1.495   9.095 -0.7703  0.4962  0.0929
  847MOL0     N14261   4.669   1.589   9.060  0.0911  0.4546  0.5214
  847MOL0     C14262   5.730   2.061   8.534  0.5758  0.3152  0.6591
  847MOL0     C14263   5.866   2.091   8.522 -0.1469 -0.0069 -0.0187
  847MOL0     C14264   6.277   2.186   8.458 -0.7959  0.9976  0.2036
  847MOL0     C14265   6.310   2.322   8.456  0.2796  0.5304 -0.6973
  847MOL0     C14266   6.439   2.364   8.487  0.0083 -0.3357 -0.6883
  847MOL0     C14267   6.530   2.275   8.524 -0.0952  1.0357  0.6357
  847MOL0     O14268   6.647   2.321   8.561 -0.1579 -0.7849 -0.1563
  847MOL0     C14269   6.726   2.379   8.453 -0.4279  1.4898 -0.5785
  847MOL0     C14270   6.872   2.345   8.489 -0.8505  0.6019 -0.9414
  847MOL0     C14271   6.906   2.372   8.630 -0.1104  0.1181 -0.1062
  847MOL0     C14272   7.050   2.398   8.645 -0.5898  0.1578  1.2226
  847MOL0     C14273   7.083   2.410   8.781 -0.1231 -0.2126 -0.4260
  847MOL0     C14274   7.138   2.418   8.887 -0.5508  0.2923  1.0293
  847MOL0     C14275   6.503   2.135   8.511 -0.1509  0.4868  0.6880
  847MOL0     C14276   6.377   2.093   8.490  0.1902 -0.0667  0.2777
  847MOL0     C14277   6.357   1.950   8.529 -0.5095  0.2262 -0.7631
  847MOL0     H14278   5.848   2.375   8.353  1.8948  0.8454  3.5010
  847MOL0     H14279   5.623   2.305   8.318  1.7550  0.6695  0.4519
  847MOL0     H14280   5.500   1.912   8.516  0.3079  0.2054 -1.2866
  847MOL0     H14281   5.448   2.038   8.632 -0.5962 -1.3178  0.4562
  847MOL0     H14282   5.297   1.973   8.383  2.7076 -2.2496 -0.1075
  847MOL0     H14283   5.251   2.075   8.506  0.3686  0.7854 -2.6591
  847MOL0     H14284   5.302   1.863   8.667  0.3671 -2.9715 -0.5952
  847MOL0     H14285   5.271   1.773   8.522  0.6482 -0.1840  0.3003
  847MOL0     H14286   5.082   1.973   8.638 -0.2566 -0.2956  0.8444
  847MOL0     H14287   5.040   1.888   8.494 -0.3293 -0.3317 -0.0721
  847MOL0     H14288   5.048   1.674   8.611 -1.9863  1.2434 -0.9788
  847MOL0     H14289   5.110   1.755   8.769  1.9550  0.3619 -0.5129
  847MOL0     H14290   4.911   1.891   8.772 -2.1155 -1.4903  3.6881
  847MOL0     H14291   4.841   1.793   8.624 -1.9645 -2.2082  2.4118
  847MOL0     H14292   4.923   1.708   8.896 -0.1733  1.8214 -0.1007
  847MOL0     H14293   4.873   1.603   8.764  1.9229 -0.0497  0.0984
  847MOL0     H14294   4.676   1.806   8.888  2.9279  0.8048 -0.0538
  847MOL0     H14295   4.644   1.709   8.755  0.2949 -2.8536 -0.7412
  847MOL0     H14296   4.579   1.470   8.769 -2.1944 -1.4723  0.3329
  847MOL0     H14297   4.343   1.340   8.998  0.2536 -1.3229  3.3622
  847MOL0     H14298   4.447   1.273   8.875  0.4378 -0.1440  0.4861
  847MOL0     H14299   4.604   1.195   9.070  0.2911  0.1709  2.0440
  847MOL0     H14300   4.473   1.246   9.176 -2.4270 -0.4793  1.2602
  847MOL0     H14301   4.495   0.991   9.065 -0.5184  0.0407 -1.0024
  847MOL0     H14302   4.400   1.063   8.946 -0.7069  1.0526 -0.9357
  847MOL0     H14303   4.332   1.043   9.250 -0.1143  1.2027  0.1378
  847MOL0     H14304   4.256   0.942   9.126  2.8817 -2.3854  3.0070
  847MOL0     H14305   4.061   1.351   9.109  3.1452  0.1465  2.2446
  847MOL0     H14306   3.827   1.384   9.191 -0.5965 -0.3533  0.4936
  847MOL0     H14307   3.424   1.003   9.282  0.5405 -1.8722  1.0983
  847MOL0     H14308   3.201   1.028   9.350 -0.2776  1.8725 -0.1069
  847MOL0     H14309   3.081   1.282   9.476 -1.5018 -0.7364 -1.7125
  847MOL0     H14310   3.033   1.132   9.398  0.6890  0.6042 -1.0060
  847MOL0     H14311   2.874   1.102   9.587  1.1415 -0.3477  0.4676
  847MOL0     H14312   2.911   1.269   9.636  1.0571  1.1035 -0.7933
  847MOL0     H14313   2.814   1.353   9.420  1.6960 -0.8355 -0.3978
  847MOL0     H14314   2.810   1.191   9.350  0.2611  1.4412 -2.0308
  847MOL0     H14315   2.647   1.313   9.582  0.7135  2.2811 -1.2368
  847MOL0     H14316   2.626   1.147   9.518  3.7830 -1.0713  1.4965
  847MOL0     H14317   2.602   1.295   9.276  0.4595  1.5916 -0.1199
  847MOL0     H14318   2.520   1.397   9.388 -0.9290  0.0709 -1.5353
  847MOL0     H14319   2.352   1.246   9.306  0.2634 -0.4064 -0.2221
  847MOL0     H14320   2.459   1.115   9.307 -2.1976  0.5884 -1.3960
  847MOL0     H14321   2.359   1.257   9.565 -1.0351  0.1417  0.9943
  847MOL0     H14322   2.428   1.099   9.567  0.1649 -0.1237 -0.2815
  847MOL0     H14323   2.170   1.092   9.584 -1.1114 -1.2100 -0.5036
  847MOL0     H14324   2.159   1.207   9.454  0.5667  0.6694 -1.1890
  847MOL0     H14325   3.337   1.218   9.721 -1.0499 -0.7338  0.6176
  847MOL0     H14326   3.571   1.192   9.623 -0.4268 -0.0686  0.6225
  847MOL0     H14327   3.869   0.992   9.385 -1.2868  1.1578  1.6435
  847MOL0     H14328   4.096   0.984   9.301 -1.3737  0.4015  1.2823
  847MOL0     H14329   5.687   1.990   8.604  0.4398  0.2211  0.4807
  847MOL0     H14330   5.936   2.027   8.574 -1.2147 -0.6369  0.6787
  847MOL0     H14331   6.237   2.390   8.412  1.3729  0.3811 -2.8536
  847MOL0     H14332   6.481   2.464   8.485  0.9603 -0.7329 -1.9260
  847MOL0     H14333   6.716   2.487   8.465 -0.5965  1.3589  0.5359
  847MOL0     H14334   6.694   2.348   8.353  0.5019  1.5187 -0.8955
  847MOL0     H14335   6.931   2.408   8.423 -3.0276  1.3801 -2.2376
  847MOL0     H14336   6.896   2.243   8.456 -0.1370  0.9192 -1.4337
  847MOL0     H14337   6.877   2.292   8.698 -0.8806  0.7615  0.3405
  847MOL0     H14338   6.842   2.451   8.669 -1.6608 -1.6758  1.1231
  847MOL0     H14339   7.119   2.321   8.611  1.0946  2.4543 -0.8913
  847MOL0     H14340   7.086   2.484   8.586  0.3633 -0.9136  0.1845
  847MOL0     H14341   7.202   2.419   8.973 -0.5176  1.3091  1.0126
  847MOL0     H14342   6.576   2.064   8.549 -0.7768 -0.8676 -0.5471
  847MOL0     H14343   6.258   1.934   8.571 -0.5309  1.3767 -0.3557
  847MOL0     H14344   6.358   1.893   8.435 -0.5626  2.4447 -2.1866
  847MOL0     H14345   6.437   1.914   8.594 -0.1998  1.6677 -0.3181
  848MOL0     O14346   4.491   8.999   7.319 -0.1243 -0.1651 -0.5586
  848MOL0     C14347   4.450   9.033   7.207 -0.0949 -0.4071  0.4937
  848MOL0     O14348   4.517   9.099   7.113 -0.3522 -0.0700 -0.1885
  848MOL0     C14349   4.647   9.136   7.142 -0.0566 -0.0462  0.8692
  848MOL0     C14350   4.753   9.085   7.075  0.4263  0.1144 -1.1129
  848MOL0     C14351   4.881   9.131   7.100  0.4052  1.1494 -0.2610
  848MOL0     C14352   4.909   9.222   7.191 -0.0820 -0.2382 -0.6013
  848MOL0     O14353   5.040   9.244   7.212 -0.6794 -0.1875  0.2145
  848MOL0     C14354   5.084   9.253   7.345 -0.0667 -0.4554 -0.3253
  848MOL0     C14355   5.237   9.253   7.348 -0.2873  0.1422  0.4261
  848MOL0     C14356   5.304   9.258   7.480  0.6454  0.2147 -0.1268
  848MOL0     C14357   5.455   9.237   7.483  0.7286  0.9970 -0.9654
  848MOL0     C14358   5.510   9.272   7.628  0.3114  0.6220 -0.6009
  848MOL0     C14359   5.658   9.234   7.622  0.0098 -0.1396  0.0132
  848MOL0     C14360   5.733   9.256   7.749  0.3185 -0.2005 -0.1678
  848MOL0     C14361   5.717   9.407   7.791 -0.7303 -0.2677 -0.4658
  848MOL0     N14362   5.812   9.424   7.901 -0.4050  0.9736  0.3755
  848MOL0     C14363   5.789   9.382   8.031  0.1819 -0.1943  0.4349
  848MOL0     C14364   5.916   9.373   8.078  0.6714  0.4303 -0.6441
  848MOL0     C14365   5.946   9.303   8.209  0.2649  0.0986 -0.0161
  848MOL0     C14366   6.057   9.357   8.291 -0.6799  0.1663  1.0026
  848MOL0     C14367   6.081   9.272   8.414 -0.3934  0.6302  1.0534
  848MOL0     C14368   6.214   9.304   8.478  0.6967  0.6787  1.2602
  848MOL0     O14369   6.237   9.440   8.500  0.6755 -0.0525  0.1828
  848MOL0     C14370   6.352   9.476   8.558  0.5632  0.4458 -0.1990
  848MOL0     C14371   6.405   9.605   8.525 -0.4784  0.9370  0.3289
  848MOL0     C14372   6.517   9.659   8.586 -0.4650 -0.6372  0.7909
  848MOL0     C14373   6.583   9.576   8.675 -0.0059  0.8716 -0.1932
  848MOL0     C14374   6.704   9.622   8.736  0.7775  0.2394  0.3067
  848MOL0     O14375   6.795   9.698   8.654  0.8810 -0.0003 -0.4021
  848MOL0     C14376   6.907   9.755   8.718  0.0192 -0.0175 -0.1927
  848MOL0     C14377   6.981   9.706   8.824 -0.1039  0.1781  0.3772
  848MOL0     C14378   7.098   9.754   8.872 -0.0146 -0.4345 -0.0588
  848MOL0     C14379   7.153   9.867   8.821  0.8030 -0.4428  0.5759
  848MOL0     O14380   7.270   9.910   8.875  0.1437  0.2272  0.5280
  848MOL0     C14381   7.282  10.050   8.871  0.6159 -0.5048 -0.4754
  848MOL0     C14382   7.383  10.072   8.984  0.0087 -0.4798 -0.1199
  848MOL0     C14383   7.428  10.212   9.002  0.2929  0.0499 -0.2666
  848MOL0     C14384   7.563  10.225   9.068  0.5718 -0.8456 -0.0800
  848MOL0     C14385   7.598  10.370   9.117 -0.3881  0.4021  0.5606
  848MOL0     C14386   7.741  10.364   9.166  0.1041 -0.2056  0.2234
  848MOL0     C14387   7.772  10.454   9.293 -0.3460  0.4674  0.2633
  848MOL0     C14388   7.851  10.580   9.256  0.6566  0.2253 -0.7548
  848MOL0    Cl14389   8.021  10.538   9.214 -0.1043 -0.0216  0.3680
  848MOL0     C14390   7.077   9.935   8.717 -0.0078 -0.4781 -0.0048
  848MOL0     C14391   6.958   9.877   8.662 -0.4078  1.5714 -0.6455
  848MOL0     O14392   6.716   9.575   8.853 -0.4345 -0.0919 -0.6867
  848MOL0     C14393   6.539   9.440   8.699  0.6173  0.5332  0.2350
  848MOL0     C14394   6.416   9.397   8.653  0.8508 -0.9659  0.5591
  848MOL0     N14395   6.000   9.429   7.992 -0.1974 -0.0683  1.0607
  848MOL0     N14396   5.942   9.464   7.884 -0.3580 -0.0636  0.0793
  848MOL0     C14397   4.797   9.282   7.258 -0.4529 -0.0356 -1.0423
  848MOL0     C14398   4.668   9.238   7.233  0.3172  0.8359  0.2034
  848MOL0     C14399   4.311   9.011   7.164  0.0121 -0.1817 -0.3092
  848MOL0     C14400   4.213   9.113   7.160  0.6207 -0.2984  1.2139
  848MOL0     C14401   4.072   9.081   7.152 -0.1073 -0.0821 -0.0720
  848MOL0     C14402   4.036   8.948   7.140  0.5955  0.1625 -0.0289
  848MOL0     O14403   3.907   8.908   7.109 -0.5373  0.4635  0.9808
  848MOL0     C14404   3.794   8.990   7.151  0.0622  0.2906 -0.0939
  848MOL0     C14405   3.655   8.935   7.131  0.0155  0.3083  0.9297
  848MOL0     C14406   3.634   8.905   6.978 -0.5115  0.5891  0.1614
  848MOL0     C14407   3.520   8.812   6.951 -0.0185  0.4143 -0.3550
  848MOL0     C14408   3.488   8.817   6.804  1.2734  0.0025  0.5885
  848MOL0     C14409   3.443   8.821   6.686 -0.3019  0.2336 -0.6043
  848MOL0     C14410   4.133   8.854   7.121  0.2974  0.0716 -0.1174
  848MOL0     C14411   4.273   8.880   7.134 -0.3702 -0.0607 -0.3293
  848MOL0     C14412   4.376   8.769   7.108 -0.1852  0.8993 -0.0372
  848MOL0     H14413   4.728   9.023   6.989 -0.0011 -0.3319 -0.6687
  848MOL0     H14414   4.960   9.081   7.044  0.5680  2.8248 -1.6244
  848MOL0     H14415   5.049   9.337   7.405  1.0311 -0.7032  0.7092
  848MOL0     H14416   5.035   9.162   7.382 -4.0010  0.8649 -1.7478
  848MOL0     H14417   5.267   9.351   7.311 -1.1450  0.6084  0.9287
  848MOL0     H14418   5.289   9.173   7.294  1.9064  0.3788  2.0484
  848MOL0     H14419   5.258   9.186   7.548 -2.9673  2.0680 -0.3645
  848MOL0     H14420   5.272   9.354   7.523  1.5734  0.2652  0.4650
  848MOL0     H14421   5.463   9.133   7.448 -0.8749  0.3471  0.4256
  848MOL0     H14422   5.501   9.299   7.406  2.5300 -1.9556 -2.4472
  848MOL0     H14423   5.492   9.377   7.652  0.6245  1.0517 -2.1181
  848MOL0     H14424   5.461   9.209   7.703  0.4492  0.2908 -0.7836
  848MOL0     H14425   5.663   9.128   7.595  0.9961  0.3029 -1.6690
  848MOL0     H14426   5.715   9.295   7.551  0.2057  2.9225  2.5982
  848MOL0     H14427   5.841   9.241   7.741  0.5621  1.5614 -0.6086
  848MOL0     H14428   5.695   9.184   7.822  2.1139  0.3459  1.4148
  848MOL0     H14429   5.746   9.484   7.720  0.1315  0.9975  1.1848
  848MOL0     H14430   5.616   9.430   7.826 -0.9061 -0.8011 -0.6034
  848MOL0     H14431   5.697   9.353   8.079  0.0569 -0.4355  0.0460
  848MOL0     H14432   5.852   9.306   8.265 -0.1122 -0.7032 -0.5827
  848MOL0     H14433   5.965   9.198   8.186 -0.7537 -0.3957  1.2533
  848MOL0     H14434   6.142   9.351   8.222 -0.2687 -1.3610  1.5846
  848MOL0     H14435   6.039   9.460   8.322 -2.2017  0.5786 -0.9937
  848MOL0     H14436   6.088   9.167   8.383 -0.4901  1.4645 -2.1092
  848MOL0     H14437   5.998   9.291   8.484 -0.6059  2.4420  0.3607
  848MOL0     H14438   6.287   9.271   8.404 -1.7201 -3.7704  0.5305
  848MOL0     H14439   6.227   9.250   8.573 -1.4968 -1.5586  0.3915
  848MOL0     H14440   6.347   9.662   8.452 -1.5159  1.9727  1.8810
  848MOL0     H14441   6.556   9.759   8.570  1.7652 -1.3612  1.3109
  848MOL0     H14442   6.954   9.607   8.859  0.9200 -0.0438  0.5856
  848MOL0     H14443   7.144   9.706   8.958 -0.1770  0.1474  0.3685
  848MOL0     H14444   7.330  10.075   8.775 -0.5619 -0.0937 -0.9744
  848MOL0     H14445   7.189  10.104   8.888  1.5257  1.1521 -0.5152
  848MOL0     H14446   7.339  10.038   9.078  0.6492 -0.2065  0.2852
  848MOL0     H14447   7.469  10.009   8.961 -0.0639 -0.3047 -0.9114
  848MOL0     H14448   7.436  10.272   8.911  0.6284  1.0022  0.3787
  848MOL0     H14449   7.348  10.249   9.067  0.1921  0.1645 -0.4583
  848MOL0     H14450   7.638  10.185   8.999  1.7403  0.3655  0.4293
  848MOL0     H14451   7.569  10.159   9.155 -0.0024  0.4400  0.9777
  848MOL0     H14452   7.525  10.410   9.188  1.9362  2.3842  1.9685
  848MOL0     H14453   7.608  10.441   9.035  0.2840  0.7271  0.9172
  848MOL0     H14454   7.757  10.258   9.186 -2.1313 -0.6506 -0.0954
  848MOL0     H14455   7.816  10.378   9.087  1.3108 -1.4112  1.1144
  848MOL0     H14456   7.834  10.390   9.356  0.4493  2.4013  1.4926
  848MOL0     H14457   7.682  10.475   9.350  0.1365 -2.1099  2.1543
  848MOL0     H14458   7.813  10.626   9.164 -0.8705 -1.9294 -1.2834
  848MOL0     H14459   7.854  10.648   9.341  4.1802 -1.2121  0.4543
  848MOL0     H14460   7.124  10.025   8.680  1.6502  0.1135  3.1873
  848MOL0     H14461   6.912   9.926   8.577 -2.6637  2.8908  1.2157
  848MOL0     H14462   6.585   9.368   8.765 -2.0803 -1.2169  0.3959
  848MOL0     H14463   6.382   9.304   8.697  2.7648 -1.1060  1.8660
  848MOL0     H14464   4.798   9.360   7.334 -0.7488 -2.0650  1.1707
  848MOL0     H14465   4.585   9.286   7.283 -0.8199  1.0694 -1.8251
  848MOL0     H14466   4.262   9.210   7.170 -1.2865  1.2996 -2.6356
  848MOL0     H14467   4.005   9.166   7.149 -1.8855 -1.4513 -0.6496
  848MOL0     H14468   3.797   9.083   7.093 -2.1047  0.6331  0.2340
  848MOL0     H14469   3.808   9.015   7.256 -1.9031  1.8431 -0.1237
  848MOL0     H14470   3.574   8.997   7.171 -1.6170 -1.4483  0.4985
  848MOL0     H14471   3.647   8.838   7.181  0.3910 -0.1522  0.1300
  848MOL0     H14472   3.714   8.842   6.938 -0.5434  1.2897 -1.0694
  848MOL0     H14473   3.631   8.999   6.923 -0.2821  0.2762 -0.3915
  848MOL0     H14474   3.530   8.710   6.989  0.5537  0.3875 -0.5603
  848MOL0     H14475   3.441   8.849   7.016  0.1418  0.9560 -0.4617
  848MOL0     H14476   3.412   8.841   6.586  0.8627  0.8316 -0.8634
  848MOL0     H14477   4.107   8.751   7.100 -2.1988  0.2817  1.4857
  848MOL0     H14478   4.453   8.762   7.186  0.6237 -1.0153 -0.9454
  848MOL0     H14479   4.329   8.670   7.102  2.6153 -0.4569 -1.4455
  848MOL0     H14480   4.426   8.791   7.013 -4.0896  2.6197 -1.9302
  849MOL0     O14481   0.023   1.432   8.681 -0.2001  0.4706 -0.1312
  849MOL0     C14482   0.012   1.403   8.802  0.7545 -0.8317 -0.3165
  849MOL0     O14483   0.110   1.378   8.887 -0.0502  0.1758 -0.3229
  849MOL0     C14484   0.236   1.399   8.837 -1.0670 -0.4562  0.1861
  849MOL0     C14485   0.288   1.530   8.824  0.3089  0.7361 -0.4596
  849MOL0     C14486   0.422   1.538   8.774  0.6069 -0.1797 -0.3787
  849MOL0     C14487   0.509   1.431   8.776 -0.3834 -0.3508 -0.8537
  849MOL0     O14488   0.640   1.465   8.746  0.1977  0.0370 -0.1488
  849MOL0     C14489   0.749   1.371   8.762 -0.2352 -0.3183  0.7219
  849MOL0     C14490   0.878   1.416   8.696 -0.1004  0.0273  0.4423
  849MOL0     C14491   0.971   1.297   8.672 -0.2389  1.1849 -0.2833
  849MOL0     C14492   1.120   1.327   8.702 -0.4900  0.2634  0.9686
  849MOL0     C14493   1.192   1.196   8.683  0.1351  0.6896  0.8168
  849MOL0     C14494   1.340   1.196   8.730 -0.1437 -0.0104 -0.9823
  849MOL0     C14495   1.442   1.296   8.670  0.3345 -0.0027  0.1585
  849MOL0     C14496   1.579   1.280   8.741  0.2198 -1.2658  0.0525
  849MOL0     N14497   1.693   1.350   8.677  0.5052 -0.6636  0.2962
  849MOL0     C14498   1.828   1.314   8.689 -0.0778  0.6245  0.0742
  849MOL0     C14499   1.891   1.416   8.620  0.2891  0.6842  0.0371
  849MOL0     C14500   2.038   1.431   8.593 -0.1250  0.3716  1.0761
  849MOL0     C14501   2.109   1.286   8.569 -0.1614 -0.4583 -0.4356
  849MOL0     C14502   2.268   1.294   8.548 -0.4028 -0.4378 -0.1459
  849MOL0     C14503   2.334   1.157   8.507 -1.0485 -0.6893 -0.3822
  849MOL0     O14504   2.293   1.101   8.377 -0.5915  0.6095  0.3950
  849MOL0     C14505   2.341   0.980   8.345  0.0849 -0.0418  0.8020
  849MOL0     C14506   2.396   0.887   8.435 -0.2680 -0.2393 -0.3871
  849MOL0     C14507   2.438   0.758   8.396  0.5177  0.4851 -0.7418
  849MOL0     C14508   2.398   0.702   8.270  1.0645  0.0100 -0.4884
  849MOL0     C14509   2.436   0.563   8.235 -0.0855 -0.4770  0.0878
  849MOL0     O14510   2.415   0.529   8.100 -0.1790  0.4785  0.4247
  849MOL0     C14511   2.465   0.409   8.054  0.0361 -0.1686 -0.6467
  849MOL0     C14512   2.567   0.419   7.954  0.5541 -0.2309 -0.2003
  849MOL0     C14513   2.622   0.305   7.899 -0.3880 -0.3504 -0.0364
  849MOL0     C14514   2.584   0.177   7.939 -1.2298 -0.5899 -0.6249
  849MOL0     O14515   2.627   0.075   7.863 -0.1659  0.0983  0.7164
  849MOL0     C14516   2.534  -0.031   7.825 -0.2001 -0.5403  0.6752
  849MOL0     C14517   2.605  -0.152   7.751 -0.1019 -1.2526 -0.3096
  849MOL0     C14518   2.685  -0.225   7.858  0.5596  0.4294 -0.2473
  849MOL0     C14519   2.763  -0.353   7.811 -0.7688  0.8677 -0.5723
  849MOL0     C14520   2.837  -0.424   7.931  0.6368 -0.3659  0.2914
  849MOL0     C14521   2.737  -0.486   8.026 -0.5399  0.2040 -1.1264
  849MOL0     C14522   2.816  -0.548   8.136 -0.2715  0.2904  0.3863
  849MOL0     C14523   2.712  -0.608   8.232  0.7242 -0.0648 -0.4637
  849MOL0    Cl14524   2.789  -0.654   8.375 -0.0706 -0.4824 -0.5397
  849MOL0     C14525   2.481   0.171   8.033  0.0879  0.0456  0.5001
  849MOL0     C14526   2.420   0.286   8.092  0.1612  0.7186  0.3623
  849MOL0     O14527   2.502   0.498   8.313  0.6541 -0.7119 -0.5111
  849MOL0     C14528   2.320   0.787   8.189 -1.0230 -0.1714  0.1407
  849MOL0     C14529   2.294   0.922   8.221  0.5392 -0.2583 -0.6320
  849MOL0     N14530   1.799   1.502   8.572  0.4543  0.8371  0.7910
  849MOL0     N14531   1.678   1.463   8.607 -0.5563  0.4989 -0.3488
  849MOL0     C14532   0.462   1.302   8.808 -0.7487 -0.1353 -0.5275
  849MOL0     C14533   0.328   1.292   8.836  0.2286  0.1105  0.7518
  849MOL0     C14534  -0.133   1.411   8.854  0.2640  0.8524 -0.0075
  849MOL0     C14535  -0.235   1.403   8.759  0.8601  0.2242 -0.3040
  849MOL0     C14536  -0.375   1.388   8.796  0.0470 -0.6703 -0.6738
  849MOL0     C14537  -0.410   1.377   8.931 -0.0509  0.4557  0.4683
  849MOL0     O14538  -0.536   1.355   8.983  0.7520 -0.0420 -0.1010
  849MOL0     C14539  -0.656   1.331   8.899 -0.4062 -0.5154  0.0250
  849MOL0     C14540  -0.751   1.235   8.968 -0.6423 -0.1029 -0.5807
  849MOL0     C14541  -0.799   1.279   9.108  0.1904  0.3680  0.1714
  849MOL0     C14542  -0.880   1.405   9.109 -0.0066  0.5401  0.5500
  849MOL0     C14543  -1.007   1.388   9.038 -0.5209  0.0209 -0.0940
  849MOL0     C14544  -1.111   1.391   8.978 -1.1702  1.0584  0.2813
  849MOL0     C14545  -0.309   1.394   9.025  0.4882 -0.4542 -0.1155
  849MOL0     C14546  -0.172   1.410   8.996  0.1748 -0.0813 -0.1458
  849MOL0     C14547  -0.082   1.440   9.105 -0.5981  0.0677  0.3522
  849MOL0     H14548   0.216   1.610   8.833  2.4701  2.5990  1.2691
  849MOL0     H14549   0.444   1.641   8.750 -0.8293  0.2637  0.0950
  849MOL0     H14550   0.765   1.346   8.867 -2.1231 -0.9361  0.8996
  849MOL0     H14551   0.711   1.277   8.721 -1.9926  0.2258  1.0013
  849MOL0     H14552   0.915   1.501   8.752 -2.7131  0.8383  1.0775
  849MOL0     H14553   0.855   1.452   8.595 -0.9381  0.1670  0.6724
  849MOL0     H14554   0.978   1.277   8.564  1.0985  0.9359 -0.1697
  849MOL0     H14555   0.925   1.206   8.712 -0.0170  0.6002 -1.3124
  849MOL0     H14556   1.157   1.404   8.633 -2.1934  1.0263  0.8512
  849MOL0     H14557   1.138   1.361   8.805  0.3898 -2.3145  1.7512
  849MOL0     H14558   1.146   1.108   8.729 -1.2279  0.2074 -1.3139
  849MOL0     H14559   1.182   1.174   8.576 -0.0642  0.6596  0.8409
  849MOL0     H14560   1.330   1.219   8.836 -2.1857  1.2311 -1.4025
  849MOL0     H14561   1.376   1.093   8.719  3.3750  1.0264 -0.5488
  849MOL0     H14562   1.414   1.398   8.696  1.6768 -0.2911  3.2689
  849MOL0     H14563   1.444   1.284   8.561 -2.8367 -1.4853  0.1702
  849MOL0     H14564   1.575   1.312   8.845 -0.6750  1.8927 -0.8149
  849MOL0     H14565   1.603   1.174   8.741  0.5439 -1.2443  2.8085
  849MOL0     H14566   1.876   1.242   8.755  4.2642  3.3574  0.2710
  849MOL0     H14567   2.058   1.501   8.512  0.1861 -0.1236  0.7215
  849MOL0     H14568   2.091   1.457   8.686  0.3969 -3.1245  1.9354
  849MOL0     H14569   2.084   1.218   8.651 -0.3736 -1.0236 -0.9619
  849MOL0     H14570   2.067   1.239   8.480 -1.1258  1.8016 -1.2371
  849MOL0     H14571   2.314   1.327   8.641  3.3185  2.1359 -2.6102
  849MOL0     H14572   2.304   1.377   8.487 -2.1525  1.0925  0.7927
  849MOL0     H14573   2.304   1.082   8.581  2.2113  0.3372  2.2012
  849MOL0     H14574   2.442   1.170   8.521 -1.4549  2.3371  0.9137
  849MOL0     H14575   2.421   0.923   8.535  0.3010  0.0665 -0.6345
  849MOL0     H14576   2.507   0.703   8.460 -0.2409  1.7454  1.2537
  849MOL0     H14577   2.606   0.510   7.909  2.1081 -0.4236  0.6962
  849MOL0     H14578   2.704   0.324   7.832 -0.2985  0.8738  0.3958
  849MOL0     H14579   2.475  -0.065   7.910 -0.2678  0.0635  0.8734
  849MOL0     H14580   2.456   0.011   7.759  0.3709  0.4588  0.6076
  849MOL0     H14581   2.530  -0.217   7.705 -1.0493  0.0634 -0.6922
  849MOL0     H14582   2.663  -0.102   7.672 -4.7878  0.9485 -2.8551
  849MOL0     H14583   2.753  -0.151   7.901 -1.0209 -0.0398  3.4790
  849MOL0     H14584   2.621  -0.252   7.943  2.6446 -1.3139  0.8554
  849MOL0     H14585   2.839  -0.323   7.739 -1.8000 -0.2559 -2.1841
  849MOL0     H14586   2.690  -0.424   7.772  2.7032 -2.7222 -1.1307
  849MOL0     H14587   2.901  -0.359   7.991  0.0197  0.3840  0.1500
  849MOL0     H14588   2.894  -0.504   7.883 -2.3325 -2.7776  0.4332
  849MOL0     H14589   2.682  -0.403   8.069  1.1979  1.6999 -1.6581
  849MOL0     H14590   2.675  -0.565   7.982 -0.5117 -1.1298  1.0662
  849MOL0     H14591   2.880  -0.477   8.190 -0.2055 -0.6620  1.6192
  849MOL0     H14592   2.879  -0.629   8.097 -1.5206  0.0075 -1.1158
  849MOL0     H14593   2.646  -0.522   8.250  4.2959  2.5012  1.6013
  849MOL0     H14594   2.663  -0.695   8.187  0.4834 -0.0291 -0.2701
  849MOL0     H14595   2.434   0.076   8.058  0.4052 -0.0786  0.6311
  849MOL0     H14596   2.333   0.272   8.155  0.0974 -1.8604 -0.1913
  849MOL0     H14597   2.293   0.746   8.092  1.2565  1.3011 -1.2266
  849MOL0     H14598   2.225   0.982   8.163 -0.7451  1.9052  2.7881
  849MOL0     H14599   0.527   1.215   8.810 -0.2773  0.2127 -0.4882
  849MOL0     H14600   0.302   1.196   8.879  0.0445 -0.8003 -1.2921
  849MOL0     H14601  -0.206   1.409   8.654 -0.2774 -1.5214 -0.7665
  849MOL0     H14602  -0.451   1.403   8.720  0.8534  2.0623 -1.0528
  849MOL0     H14603  -0.620   1.287   8.806  1.8548 -0.4287  0.7912
  849MOL0     H14604  -0.699   1.430   8.881 -1.2161 -1.0437 -1.0298
  849MOL0     H14605  -0.709   1.134   8.979 -1.7835 -0.3984  1.7869
  849MOL0     H14606  -0.840   1.227   8.906 -0.4571 -3.1606 -0.6124
  849MOL0     H14607  -0.706   1.283   9.165 -1.7180 -2.6260  3.9076
  849MOL0     H14608  -0.854   1.203   9.164 -0.7523  1.5907  0.9671
  849MOL0     H14609  -0.904   1.436   9.212 -0.3067 -0.2075  0.7129
  849MOL0     H14610  -0.821   1.480   9.057 -0.0067 -0.6944 -1.3075
  849MOL0     H14611  -1.196   1.394   8.912 -0.6134  2.5677 -0.4020
  849MOL0     H14612  -0.335   1.402   9.130  5.0296  1.6901  1.1255
  849MOL0     H14613   0.015   1.480   9.075 -1.0863 -1.0313 -3.2261
  849MOL0     H14614  -0.138   1.502   9.176  1.3751  1.9105  0.3884
  849MOL0     H14615  -0.068   1.342   9.151  1.3829  0.0514 -0.2054
  850MOL0     O14616   7.997   1.704   0.872 -0.4655  0.0639 -0.6830
  850MOL0     C14617   8.030   1.595   0.820  0.0621  0.7259 -0.0495
  850MOL0     O14618   7.947   1.500   0.778 -0.1837 -0.2915  0.3835
  850MOL0     C14619   7.815   1.517   0.772 -1.4528 -0.8924  0.3856
  850MOL0     C14620   7.760   1.621   0.697 -1.0358  0.1354  0.1030
  850MOL0     C14621   7.625   1.640   0.692  0.3315 -0.6959  0.0175
  850MOL0     C14622   7.534   1.559   0.771 -0.9035 -0.2722  0.1896
  850MOL0     O14623   7.400   1.595   0.764  0.1532 -0.3587  0.6117
  850MOL0     C14624   7.316   1.535   0.858  0.3547  0.4251 -0.6130
  850MOL0     C14625   7.175   1.592   0.859 -0.2039 -0.2490  0.0658
  850MOL0     C14626   7.138   1.607   0.711  0.2796  0.1817 -0.1641
  850MOL0     C14627   6.994   1.646   0.687  0.2524 -0.2730  0.4914
  850MOL0     C14628   6.954   1.607   0.538 -0.8521 -0.2954 -0.0113
  850MOL0     C14629   6.813   1.663   0.516 -0.0793  0.2703  0.2715
  850MOL0     C14630   6.754   1.613   0.380 -0.3533  0.6361 -0.1460
  850MOL0     C14631   6.786   1.705   0.270 -0.2746  0.0756 -0.0200
  850MOL0     N14632   6.927   1.694   0.217  0.0424  0.4167 -0.5811
  850MOL0     C14633   6.961   1.615   0.109  0.1905 -0.1736  0.1266
  850MOL0     C14634   7.087   1.644   0.077  0.2364 -0.4888 -1.0012
  850MOL0     C14635   7.179   1.583  -0.018  0.1321  0.4977  0.9288
  850MOL0     C14636   7.142   1.581  -0.165  0.1413  0.4501  0.1139
  850MOL0     C14637   7.155   1.719  -0.233  0.5426 -0.8170  1.0335
  850MOL0     C14638   7.297   1.772  -0.218 -0.1486  0.4099 -0.0127
  850MOL0     O14639   7.308   1.853  -0.108 -0.1280  0.2332 -1.3517
  850MOL0     C14640   7.430   1.906  -0.071  0.5553  0.2481 -0.8838
  850MOL0     C14641   7.552   1.896  -0.142  0.5841 -0.3992  0.5457
  850MOL0     C14642   7.675   1.949  -0.097  0.5713  0.3637 -0.4127
  850MOL0     C14643   7.680   2.015   0.026  0.6108 -0.3496 -0.4574
  850MOL0     C14644   7.799   2.085   0.075 -0.1659 -0.0015  0.7545
  850MOL0     O14645   7.901   2.127  -0.019  0.6462 -0.0876  0.0948
  850MOL0     C14646   8.003   2.196   0.048 -0.2030 -0.9361  0.6869
  850MOL0     C14647   8.001   2.338   0.056  0.0121 -0.2860  0.6804
  850MOL0     C14648   8.103   2.403   0.124 -0.2850  0.3487  0.5553
  850MOL0     C14649   8.219   2.338   0.173 -0.4224 -0.0727 -0.0843
  850MOL0     O14650   8.334   2.386   0.230  0.0009 -0.3818 -0.3469
  850MOL0     C14651   8.342   2.528   0.211 -0.7559  0.8129  0.1245
  850MOL0     C14652   8.480   2.577   0.250 -0.2247 -0.1216 -1.2709
  850MOL0     C14653   8.498   2.718   0.179 -0.1971  0.1918 -0.2970
  850MOL0     C14654   8.643   2.773   0.196  0.0787  0.2527 -0.8902
  850MOL0     C14655   8.700   2.869   0.094 -0.9783  0.4504  0.0491
  850MOL0     C14656   8.834   2.924   0.143  0.1228  0.0198 -0.7503
  850MOL0     C14657   8.881   3.046   0.059  0.3353  0.7004 -0.0585
  850MOL0     C14658   8.953   3.006  -0.070  0.6013  0.0324  0.4313
  850MOL0    Cl14659   9.119   2.921  -0.029  0.6766  0.0794 -0.1259
  850MOL0     C14660   8.222   2.198   0.163  0.2632  0.2694  0.4862
  850MOL0     C14661   8.113   2.126   0.107 -0.0223 -0.0550  0.4620
  850MOL0     O14662   7.804   2.099   0.196 -0.3377  0.2386 -0.3999
  850MOL0     C14663   7.559   2.031   0.105 -0.0804  0.7259  0.7560
  850MOL0     C14664   7.442   1.965   0.056  0.0512 -0.8131  0.9581
  850MOL0     N14665   7.136   1.742   0.168  0.5462 -0.0644  0.4580
  850MOL0     N14666   7.037   1.774   0.244 -0.2656 -0.1370  0.1628
  850MOL0     C14667   7.590   1.456   0.853 -0.7585 -0.1978 -0.0928
  850MOL0     C14668   7.731   1.442   0.850  0.6118 -0.0281 -0.5937
  850MOL0     C14669   8.173   1.577   0.803 -0.5748  0.3200  1.2337
  850MOL0     C14670   8.266   1.660   0.867 -0.4102  0.6699 -0.4511
  850MOL0     C14671   8.404   1.647   0.861 -0.3401  0.6125 -1.0386
  850MOL0     C14672   8.458   1.533   0.801  0.0090 -0.2098 -0.2260
  850MOL0     O14673   8.585   1.494   0.782  0.0684  0.4866  0.0618
  850MOL0     C14674   8.679   1.534   0.881  0.2358 -0.3406  0.7283
  850MOL0     C14675   8.820   1.477   0.851  0.2229  0.8548 -0.2867
  850MOL0     C14676   8.835   1.327   0.889 -0.1461  0.0799  0.2714
  850MOL0     C14677   8.989   1.307   0.865 -0.3431 -0.1371  1.0082
  850MOL0     C14678   9.019   1.170   0.851  0.3130  0.3423 -0.6339
  850MOL0     C14679   9.038   1.055   0.846  0.2148  0.1655 -0.2045
  850MOL0     C14680   8.365   1.444   0.742 -0.9063 -0.5718 -1.0824
  850MOL0     C14681   8.229   1.472   0.731 -0.0223 -0.5611 -0.1154
  850MOL0     C14682   8.149   1.396   0.634  0.0246  1.0480  0.7665
  850MOL0     H14683   7.832   1.679   0.639  3.6141 -2.4620  2.6114
  850MOL0     H14684   7.581   1.717   0.629  1.4336 -0.0899 -0.0283
  850MOL0     H14685   7.304   1.426   0.854  0.5492  0.2347  2.1542
  850MOL0     H14686   7.345   1.550   0.962 -1.9247 -1.0160  0.3325
  850MOL0     H14687   7.182   1.688   0.910  1.9912 -0.9934  1.3125
  850MOL0     H14688   7.106   1.530   0.917  1.0827 -1.5976  0.1956
  850MOL0     H14689   7.162   1.512   0.662  0.8180 -0.3475  1.0621
  850MOL0     H14690   7.202   1.684   0.668  1.8914 -0.0644  1.6223
  850MOL0     H14691   6.924   1.589   0.747 -1.5193  1.6504  0.3601
  850MOL0     H14692   6.968   1.750   0.710 -0.4090 -0.0228 -1.2362
  850MOL0     H14693   7.028   1.648   0.468  1.6221 -3.4665  0.5153
  850MOL0     H14694   6.956   1.499   0.521  2.5936 -0.4606  0.6528
  850MOL0     H14695   6.751   1.624   0.597  0.1857 -0.4343  0.1447
  850MOL0     H14696   6.811   1.771   0.528  1.4782  0.5115 -1.3263
  850MOL0     H14697   6.648   1.598   0.398 -0.3961  1.7621  0.6880
  850MOL0     H14698   6.810   1.523   0.356  1.3083  1.6518 -0.2903
  850MOL0     H14699   6.713   1.695   0.189  0.8722 -1.4455 -0.9140
  850MOL0     H14700   6.755   1.803   0.306 -0.8879  0.1302 -0.6709
  850MOL0     H14701   6.899   1.546   0.053 -3.6094  3.2063 -0.2623
  850MOL0     H14702   7.278   1.625   0.000  0.1462  0.7286  0.3335
  850MOL0     H14703   7.182   1.479   0.016 -0.5588 -0.3727 -1.4851
  850MOL0     H14704   7.219   1.521  -0.214  1.4828  2.8437 -0.8827
  850MOL0     H14705   7.046   1.531  -0.179  1.1779 -1.4452 -0.6833
  850MOL0     H14706   7.080   1.781  -0.184 -0.4617  0.1652 -1.5795
  850MOL0     H14707   7.113   1.720  -0.334 -1.3739  1.4476  1.7657
  850MOL0     H14708   7.316   1.829  -0.310 -1.2294  1.2511  0.2751
  850MOL0     H14709   7.370   1.690  -0.223  0.4184  0.7385  1.9871
  850MOL0     H14710   7.545   1.855  -0.242 -0.8713 -3.0805  1.6481
  850MOL0     H14711   7.761   1.946  -0.164  1.8709 -2.6055  1.2165
  850MOL0     H14712   7.914   2.390   0.019 -0.2913 -1.4385 -0.2753
  850MOL0     H14713   8.097   2.511   0.132  1.3066  0.5963 -1.0187
  850MOL0     H14714   8.320   2.548   0.106  0.3942 -0.6305 -0.4327
  850MOL0     H14715   8.274   2.587   0.272  1.8541  2.6610  1.4486
  850MOL0     H14716   8.489   2.582   0.359 -1.5165 -0.5197 -1.1377
  850MOL0     H14717   8.558   2.508   0.214 -0.6048 -0.9174 -0.5868
  850MOL0     H14718   8.486   2.716   0.071  0.1031  2.9268 -0.4582
  850MOL0     H14719   8.418   2.787   0.210  0.2114  0.9990 -1.0051
  850MOL0     H14720   8.707   2.684   0.189  2.0312  1.2421  2.5581
  850MOL0     H14721   8.642   2.812   0.298 -0.7172 -3.4838  0.7119
  850MOL0     H14722   8.623   2.945   0.081  0.5191  1.8932 -0.7519
  850MOL0     H14723   8.717   2.827  -0.005  2.4708  0.4319  0.5150
  850MOL0     H14724   8.823   2.977   0.239  1.1481  0.9234 -1.1240
  850MOL0     H14725   8.911   2.848   0.149  1.2827  1.2362  0.6583
  850MOL0     H14726   8.945   3.100   0.129 -1.8078  3.1437  0.1576
  850MOL0     H14727   8.799   3.111   0.028 -1.9239 -2.0124 -0.1909
  850MOL0     H14728   8.895   2.942  -0.136  1.3170  1.0708 -1.2862
  850MOL0     H14729   8.976   3.101  -0.119  0.3664 -0.2010 -0.1331
  850MOL0     H14730   8.304   2.132   0.192  1.0257  0.7579 -0.5287
  850MOL0     H14731   8.113   2.017   0.102 -1.2868 -0.0389 -0.3396
  850MOL0     H14732   7.570   2.079   0.202  1.3767  0.9696  0.5063
  850MOL0     H14733   7.359   1.981   0.124 -0.3986  1.9592 -0.1109
  850MOL0     H14734   7.536   1.389   0.919 -0.1223 -2.5800 -1.8741
  850MOL0     H14735   7.784   1.358   0.894  0.5783  0.7084  0.9037
  850MOL0     H14736   8.240   1.753   0.916  2.6483  0.6767  1.4120
  850MOL0     H14737   8.468   1.716   0.915 -0.1770 -0.6904  0.5089
  850MOL0     H14738   8.653   1.503   0.983 -2.1843  1.1862  0.6223
  850MOL0     H14739   8.678   1.643   0.882 -1.7478 -0.3256  1.8115
  850MOL0     H14740   8.894   1.536   0.906  0.1428  0.2584  0.4895
  850MOL0     H14741   8.839   1.482   0.743  2.5975  0.2535  0.0384
  850MOL0     H14742   8.776   1.265   0.821  1.8948 -0.3324 -1.2329
  850MOL0     H14743   8.821   1.318   0.997  2.8387 -0.7930  0.6813
  850MOL0     H14744   9.012   1.342   0.763 -0.6119 -0.0896  0.9629
  850MOL0     H14745   9.051   1.358   0.939 -1.7135 -1.4851  3.2123
  850MOL0     H14746   9.058   0.956   0.812 -2.7925  0.3903 -3.1732
  850MOL0     H14747   8.404   1.357   0.689 -0.2119 -0.9877  0.0657
  850MOL0     H14748   8.207   1.335   0.564 -1.5655 -0.2284  0.4725
  850MOL0     H14749   8.073   1.329   0.676 -0.3839  0.1650 -1.2246
  850MOL0     H14750   8.091   1.465   0.572 -0.1798 -0.7201 -1.1466
  851MOL0     O14751   0.946   4.372   5.931  0.1278 -0.7748  0.1044
  851MOL0     C14752   0.944   4.394   6.051 -0.0758 -0.3625  0.0224
  851MOL0     O14753   1.050   4.388   6.139 -0.5683  0.5493 -0.4992
  851MOL0     C14754   1.179   4.351   6.088  0.1611 -0.7690 -0.6525
  851MOL0     C14755   1.264   4.437   6.021  0.0033 -0.4989 -0.3048
  851MOL0     C14756   1.377   4.396   5.960 -0.3280 -0.3138  0.1834
  851MOL0     C14757   1.427   4.269   5.986 -0.0818 -0.0254 -0.7782
  851MOL0     O14758   1.541   4.215   5.932  0.5054 -0.5507 -0.1896
  851MOL0     C14759   1.607   4.274   5.818  0.0307  0.0368  0.1889
  851MOL0     C14760   1.670   4.157   5.739  0.0972 -0.1703  0.6821
  851MOL0     C14761   1.802   4.192   5.666 -0.1226 -0.3511  0.4905
  851MOL0     C14762   1.861   4.068   5.601  0.2597  0.1535  0.0102
  851MOL0     C14763   1.995   4.100   5.539  0.1705  0.7325  0.1077
  851MOL0     C14764   2.107   4.084   5.642 -0.2009  0.2625  0.3662
  851MOL0     C14765   2.247   4.113   5.578  0.1317  0.7251  0.9573
  851MOL0     C14766   2.370   4.084   5.661  0.4806 -0.0390  0.9332
  851MOL0     N14767   2.482   4.054   5.578  0.0104  0.2098  0.5896
  851MOL0     C14768   2.545   4.156   5.504 -0.1676  0.0738 -0.7850
  851MOL0     C14769   2.651   4.091   5.449 -0.6823  0.2164 -0.2785
  851MOL0     C14770   2.750   4.153   5.355  0.0482 -0.2551 -0.4891
  851MOL0     C14771   2.884   4.103   5.394 -0.2073 -0.5552 -0.9298
  851MOL0     C14772   2.931   4.190   5.515  0.2599  0.0410  0.7810
  851MOL0     C14773   3.081   4.200   5.527 -0.6233  0.5349  0.3744
  851MOL0     O14774   3.144   4.211   5.399 -0.5176 -0.5291 -0.0818
  851MOL0     C14775   3.266   4.280   5.408  0.0224  0.1121  1.0538
  851MOL0     C14776   3.288   4.394   5.330 -0.1535 -0.7496  0.6548
  851MOL0     C14777   3.419   4.443   5.321 -0.2949 -0.7734 -0.3283
  851MOL0     C14778   3.526   4.393   5.407 -0.0320 -0.4429  0.9627
  851MOL0     C14779   3.672   4.441   5.385  0.5068 -1.2688 -0.3289
  851MOL0     O14780   3.763   4.356   5.440 -0.7607  0.1864  0.5867
  851MOL0     C14781   3.894   4.398   5.439 -0.2124  0.9139 -0.1270
  851MOL0     C14782   3.967   4.437   5.324 -0.1905 -0.3820  0.1497
  851MOL0     C14783   4.102   4.475   5.335 -0.1638  0.0798  0.8830
  851MOL0     C14784   4.178   4.472   5.455  1.2758  0.0404 -0.0622
  851MOL0     O14785   4.313   4.482   5.457  0.2469 -0.1103  0.7093
  851MOL0     C14786   4.395   4.476   5.580 -0.2598 -0.3880 -0.7374
  851MOL0     C14787   4.488   4.355   5.587 -0.2792  0.2151  0.1129
  851MOL0     C14788   4.544   4.339   5.731 -0.0875 -0.5910  0.7293
  851MOL0     C14789   4.617   4.458   5.778 -0.4157 -0.7222 -0.2682
  851MOL0     C14790   4.689   4.420   5.907  0.9652  0.0245  0.1484
  851MOL0     C14791   4.725   4.557   5.978  0.2789  0.6930 -0.2698
  851MOL0     C14792   4.613   4.658   6.023  0.2815  0.7084 -0.1937
  851MOL0     C14793   4.489   4.597   6.085  0.0864 -0.4421 -0.0392
  851MOL0    Cl14794   4.396   4.727   6.164  0.0316 -0.0272  0.1355
  851MOL0     C14795   4.099   4.452   5.574  0.2863 -0.8166  1.1469
  851MOL0     C14796   3.964   4.416   5.569  0.5495 -0.1733 -0.0192
  851MOL0     O14797   3.690   4.551   5.330  0.0457 -0.0106 -0.1919
  851MOL0     C14798   3.496   4.291   5.489  0.6490  0.2553  0.5117
  851MOL0     C14799   3.369   4.232   5.488 -0.0795 -0.7192 -0.1827
  851MOL0     N14800   2.650   3.961   5.494  0.0067 -0.9549  0.4611
  851MOL0     N14801   2.550   3.936   5.560 -0.5829  0.2883  0.3399
  851MOL0     C14802   1.363   4.191   6.077 -0.5043 -0.1713  1.3983
  851MOL0     C14803   1.238   4.233   6.129  0.1258 -0.3948  0.2517
  851MOL0     C14804   0.817   4.445   6.122 -0.2139 -0.0948  0.1416
  851MOL0     C14805   0.826   4.507   6.250 -0.6184 -0.1876  0.5588
  851MOL0     C14806   0.716   4.571   6.317 -0.1266  0.7812 -0.6619
  851MOL0     C14807   0.591   4.562   6.257  0.3607  0.4956 -0.2279
  851MOL0     O14808   0.474   4.611   6.313  0.2154 -0.2201 -0.8793
  851MOL0     C14809   0.471   4.676   6.439  0.8085 -0.4111 -0.9061
  851MOL0     C14810   0.321   4.685   6.486  0.4886 -0.1823  0.6521
  851MOL0     C14811   0.293   4.723   6.636 -0.4339 -0.1795 -0.1267
  851MOL0     C14812   0.152   4.774   6.678 -0.6483 -0.0357 -0.6977
  851MOL0     C14813   0.099   4.693   6.789  0.4301 -0.7178 -0.0195
  851MOL0     C14814   0.035   4.632   6.870  1.2906  0.2933  0.0808
  851MOL0     C14815   0.576   4.495   6.137 -0.0292  0.0742  0.5687
  851MOL0     C14816   0.687   4.436   6.068 -0.8253  0.2087 -1.0483
  851MOL0     C14817   0.668   4.356   5.941  0.0280  0.3584  0.3951
  851MOL0     H14818   1.236   4.541   6.006 -2.0212 -0.2787  3.6361
  851MOL0     H14819   1.428   4.471   5.901 -1.1360 -1.4403 -2.0706
  851MOL0     H14820   1.532   4.330   5.759  0.7444  0.5180 -0.2813
  851MOL0     H14821   1.685   4.347   5.840  0.5535 -0.6126  0.4988
  851MOL0     H14822   1.594   4.139   5.663  1.7737 -2.0651 -0.6647
  851MOL0     H14823   1.689   4.077   5.811  2.0703  2.8658  3.8784
  851MOL0     H14824   1.880   4.224   5.736  1.0527 -2.5185  0.2649
  851MOL0     H14825   1.787   4.276   5.599 -0.4818 -0.8858 -0.1091
  851MOL0     H14826   1.878   3.987   5.673 -0.5176 -0.7905 -0.8247
  851MOL0     H14827   1.791   4.033   5.524  0.8907  1.3062 -1.1161
  851MOL0     H14828   2.017   4.031   5.457 -0.6412  2.3463 -1.5368
  851MOL0     H14829   1.991   4.198   5.490 -1.3824  0.8675  0.4583
  851MOL0     H14830   2.089   4.152   5.725 -1.6841  0.8526 -0.4031
  851MOL0     H14831   2.097   3.984   5.686 -0.9940 -0.2713 -0.9509
  851MOL0     H14832   2.234   4.215   5.540  1.7670 -0.1308 -2.1547
  851MOL0     H14833   2.265   4.052   5.490  1.9110  0.6467  1.3227
  851MOL0     H14834   2.400   4.174   5.715  0.8787  0.1731  0.3644
  851MOL0     H14835   2.356   4.002   5.732  1.5027 -0.8734  0.2022
  851MOL0     H14836   2.525   4.262   5.502  4.0081  1.0119 -1.3995
  851MOL0     H14837   2.735   4.133   5.249  0.3268  1.1748 -0.8209
  851MOL0     H14838   2.747   4.262   5.359  0.8657 -0.2550  0.8210
  851MOL0     H14839   2.880   3.997   5.423  2.1445 -0.3677  0.3447
  851MOL0     H14840   2.950   4.124   5.310 -2.1007  2.2371 -1.8890
  851MOL0     H14841   2.893   4.151   5.610 -2.8657  0.9748  0.0379
  851MOL0     H14842   2.900   4.294   5.501 -1.8386 -0.7225 -0.7028
  851MOL0     H14843   3.125   4.118   5.585  1.7599 -1.7688 -4.1640
  851MOL0     H14844   3.105   4.295   5.576  3.3619 -0.2883  0.3309
  851MOL0     H14845   3.218   4.437   5.259  1.0191  0.1263 -0.0004
  851MOL0     H14846   3.459   4.515   5.250  0.0039 -2.6633 -2.1977
  851MOL0     H14847   3.910   4.428   5.232 -1.0159 -1.5020  0.7492
  851MOL0     H14848   4.155   4.497   5.243 -0.7872  1.0398  0.7336
  851MOL0     H14849   4.467   4.558   5.582  2.2206 -2.4241  1.1979
  851MOL0     H14850   4.336   4.485   5.672 -0.6306  0.6245 -1.0701
  851MOL0     H14851   4.447   4.256   5.570  1.0351 -0.3216 -0.0728
  851MOL0     H14852   4.570   4.357   5.514  0.2560  0.1798  0.7017
  851MOL0     H14853   4.458   4.329   5.798  0.0662  1.2965  1.2696
  851MOL0     H14854   4.604   4.248   5.736  0.0848 -0.4177  2.8751
  851MOL0     H14855   4.542   4.537   5.783  0.9116  0.8823 -3.1756
  851MOL0     H14856   4.685   4.484   5.697 -3.0106  1.0745 -2.0475
  851MOL0     H14857   4.775   4.355   5.888  0.7859 -0.7277  1.7039
  851MOL0     H14858   4.622   4.362   5.972  3.0456 -0.8379  1.6635
  851MOL0     H14859   4.765   4.536   6.078 -0.2939  3.1270  0.5419
  851MOL0     H14860   4.806   4.595   5.914  1.3072 -2.0909 -0.7385
  851MOL0     H14861   4.570   4.720   5.943  0.0543  3.5258  1.9342
  851MOL0     H14862   4.648   4.733   6.095  0.8190 -1.2311  1.6681
  851MOL0     H14863   4.431   4.551   6.005  1.8328  1.9655 -2.8988
  851MOL0     H14864   4.528   4.533   6.165 -1.5690 -1.0413  0.3251
  851MOL0     H14865   4.137   4.439   5.675 -1.5127 -1.3927  1.7929
  851MOL0     H14866   3.907   4.400   5.660 -1.0234  1.3847 -0.6650
  851MOL0     H14867   3.572   4.246   5.552 -0.5882 -2.3740  0.2586
  851MOL0     H14868   3.350   4.141   5.545 -2.3124  0.1894  0.6155
  851MOL0     H14869   1.405   4.093   6.094  1.7841  0.5142  0.0114
  851MOL0     H14870   1.177   4.185   6.204  0.3664  2.3270  2.3391
  851MOL0     H14871   0.925   4.525   6.291  0.5352 -0.3967 -1.9221
  851MOL0     H14872   0.737   4.626   6.409  0.7640 -1.5921  0.6496
  851MOL0     H14873   0.515   4.776   6.438 -2.4707  1.2283  0.3423
  851MOL0     H14874   0.523   4.614   6.512  0.0731 -1.3281 -1.1439
  851MOL0     H14875   0.265   4.595   6.461  2.0751 -1.0280  0.0272
  851MOL0     H14876   0.279   4.768   6.428 -0.2778  2.0917  4.1041
  851MOL0     H14877   0.361   4.806   6.654 -3.6920  3.0921 -1.5561
  851MOL0     H14878   0.311   4.626   6.684  0.9517  0.5548  0.8983
  851MOL0     H14879   0.151   4.881   6.696  0.0224  0.8839 -4.9197
  851MOL0     H14880   0.079   4.749   6.600 -1.9867 -0.6938  0.7074
  851MOL0     H14881  -0.014   4.576   6.947  1.0710 -2.5111 -1.9583
  851MOL0     H14882   0.485   4.491   6.078  0.7868  2.9685 -1.0589
  851MOL0     H14883   0.700   4.409   5.851 -1.0099  2.3607  1.1504
  851MOL0     H14884   0.714   4.257   5.951  1.6865  1.1049  0.5055
  851MOL0     H14885   0.560   4.343   5.930 -0.1667  0.8590  1.6242
  852MOL0     O14886   9.943   5.483   0.550 -0.2155  0.0020  0.5512
  852MOL0     C14887   9.905   5.369   0.532  0.0157  0.0050 -0.4120
  852MOL0     O14888   9.991   5.263   0.518 -0.3831  1.0697  0.4412
  852MOL0     C14889  10.126   5.288   0.499  0.8058 -0.0953 -0.6901
  852MOL0     C14890  10.210   5.374   0.581  0.1580  0.7170  0.4454
  852MOL0     C14891  10.347   5.377   0.543 -0.3225  0.3007  0.0781
  852MOL0     C14892  10.406   5.301   0.444 -0.2767 -0.2116  0.5098
  852MOL0     O14893  10.538   5.321   0.411 -0.2566  0.3603 -0.1824
  852MOL0     C14894  10.636   5.406   0.481  0.2728  0.7307 -0.1539
  852MOL0     C14895  10.769   5.377   0.419  0.1404 -0.2711 -0.3526
  852MOL0     C14896  10.872   5.488   0.458  0.0697 -0.9809  0.1646
  852MOL0     C14897  10.999   5.462   0.382  0.1485  0.1474  0.5504
  852MOL0     C14898  11.117   5.493   0.477  0.3813 -0.4576 -0.4222
  852MOL0     C14899  11.252   5.475   0.400  0.0329  0.2190  0.6965
  852MOL0     C14900  11.388   5.504   0.475  0.2551  0.4617  0.3389
  852MOL0     C14901  11.417   5.401   0.580 -0.3528 -0.5183  0.3125
  852MOL0     N14902  11.557   5.400   0.631 -0.7424  0.0143  0.2802
  852MOL0     C14903  11.607   5.483   0.743 -1.0462  0.3008  0.1596
  852MOL0     C14904  11.745   5.459   0.751  0.9239  0.0577  1.0658
  852MOL0     C14905  11.849   5.506   0.848  0.2224 -0.3318 -0.3656
  852MOL0     C14906  11.953   5.610   0.790  0.0081 -0.1262 -0.5267
  852MOL0     C14907  12.032   5.669   0.902 -0.8489 -0.3433 -0.4820
  852MOL0     C14908  12.134   5.579   0.965 -0.2451 -0.2255 -0.2413
  852MOL0     O14909  12.209   5.667   1.056  0.6206  0.4432  0.5213
  852MOL0     C14910  12.338   5.620   1.076  0.7268  0.4113 -0.9937
  852MOL0     C14911  12.379   5.485   1.054 -1.0500  0.5432 -0.4878
  852MOL0     C14912  12.508   5.446   1.103 -0.9412 -0.8420  0.8111
  852MOL0     C14913  12.593   5.535   1.177 -0.3350  0.7725  0.3726
  852MOL0     C14914  12.718   5.497   1.247 -0.2644  0.7982 -0.2247
  852MOL0     O14915  12.815   5.596   1.293 -0.4329 -0.2942 -0.8245
  852MOL0     C14916  12.918   5.554   1.378 -0.4212 -0.7192  0.1116
  852MOL0     C14917  13.043   5.616   1.355 -0.1425 -0.2204  0.0645
  852MOL0     C14918  13.152   5.579   1.437  0.4130  0.1960 -0.0660
  852MOL0     C14919  13.145   5.469   1.527 -0.1747 -0.1751 -0.8780
  852MOL0     O14920  13.263   5.416   1.568 -0.2223 -0.1684 -0.3174
  852MOL0     C14921  13.270   5.325   1.676  0.0717 -0.3576  0.3052
  852MOL0     C14922  13.270   5.182   1.646 -0.8158  0.5483 -0.0822
  852MOL0     C14923  13.398   5.138   1.576  0.1408  0.3241  0.2782
  852MOL0     C14924  13.452   5.005   1.629 -0.1254 -0.3664 -0.6444
  852MOL0     C14925  13.549   4.950   1.525  0.5352  0.1528 -0.0171
  852MOL0     C14926  13.627   4.830   1.578  0.4454  0.5690 -0.1720
  852MOL0     C14927  13.778   4.826   1.534  0.2849 -0.0757 -0.0223
  852MOL0     C14928  13.852   4.704   1.570 -0.1122  0.7397  0.0268
  852MOL0    Cl14929  14.028   4.747   1.580  0.0651 -0.0947  0.0711
  852MOL0     C14930  13.024   5.418   1.559  0.2029 -0.1692  0.2723
  852MOL0     C14931  12.911   5.453   1.485  0.4544 -0.6315 -0.0810
  852MOL0     O14932  12.718   5.380   1.275 -0.3913 -0.0557  0.0299
  852MOL0     C14933  12.544   5.664   1.192 -0.6714 -0.2678  0.2954
  852MOL0     C14934  12.423   5.706   1.147  0.5359  0.1390  0.3432
  852MOL0     N14935  11.776   5.383   0.645 -0.3015  0.2939 -0.2042
  852MOL0     N14936  11.668   5.351   0.578 -0.5708  0.3188  0.1040
  852MOL0     C14937  10.324   5.237   0.357 -0.4517 -0.8921  0.5854
  852MOL0     C14938  10.191   5.230   0.392  0.0300 -0.2504 -0.3175
  852MOL0     C14939   9.757   5.337   0.536 -0.2116  0.8212 -0.2896
  852MOL0     C14940   9.714   5.223   0.473 -0.6534  0.3154  0.1787
  852MOL0     C14941   9.579   5.185   0.446 -1.2477 -0.7545 -0.9458
  852MOL0     C14942   9.476   5.264   0.488 -0.3942 -0.1904  0.4154
  852MOL0     O14943   9.341   5.252   0.458 -0.3923  0.7140 -0.4431
  852MOL0     C14944   9.296   5.114   0.444  0.1116  0.6046 -0.6841
  852MOL0     C14945   9.151   5.102   0.480 -0.2843 -0.2828 -0.4082
  852MOL0     C14946   9.125   5.118   0.627 -1.1511 -0.2133  0.2951
  852MOL0     C14947   8.980   5.067   0.654  0.9786 -0.6657  0.0614
  852MOL0     C14948   8.862   5.134   0.588 -0.8870  0.4658  0.1633
  852MOL0     C14949   8.764   5.179   0.529  0.0245  0.0507 -1.1622
  852MOL0     C14950   9.515   5.375   0.559  0.1751  0.2449  0.3077
  852MOL0     C14951   9.649   5.413   0.595 -0.1008 -0.3933  0.8331
  852MOL0     C14952   9.689   5.530   0.680  1.0725 -0.8951  0.3881
  852MOL0     H14953  10.171   5.445   0.652  0.1030  1.7134 -0.5540
  852MOL0     H14954  10.411   5.436   0.609 -1.4039  1.5231  0.0809
  852MOL0     H14955  10.606   5.509   0.460  5.6871  3.0135  1.3910
  852MOL0     H14956  10.634   5.395   0.590  0.5218  0.3499 -0.1860
  852MOL0     H14957  10.751   5.374   0.312  2.1766 -0.5811 -0.7286
  852MOL0     H14958  10.824   5.288   0.453  2.1794  1.0628  0.0017
  852MOL0     H14959  10.888   5.491   0.567  1.8781 -0.4828 -0.0834
  852MOL0     H14960  10.828   5.585   0.433 -1.9250 -2.7568 -4.2466
  852MOL0     H14961  11.014   5.360   0.345  2.3982  0.8403 -0.6287
  852MOL0     H14962  11.001   5.527   0.293  0.3921  0.6414  0.9121
  852MOL0     H14963  11.100   5.595   0.513 -0.9183 -1.0087  0.6233
  852MOL0     H14964  11.118   5.427   0.564  3.4584  0.6143  0.4785
  852MOL0     H14965  11.249   5.371   0.366 -2.0187 -0.7527  3.4691
  852MOL0     H14966  11.250   5.543   0.315 -0.3529  0.5744  0.9868
  852MOL0     H14967  11.384   5.607   0.512  3.2757  1.2980 -1.3121
  852MOL0     H14968  11.454   5.499   0.388 -1.0584  2.1731 -0.8368
  852MOL0     H14969  11.353   5.422   0.666  1.5452  1.7757  1.3096
  852MOL0     H14970  11.406   5.299   0.542  1.1806 -1.9266  3.2705
  852MOL0     H14971  11.546   5.548   0.805  1.0476  0.8795  1.7574
  852MOL0     H14972  11.790   5.558   0.924  0.4863  0.4084 -0.6533
  852MOL0     H14973  11.901   5.423   0.896 -0.9824  0.3164  2.2447
  852MOL0     H14974  12.003   5.556   0.709 -1.0566 -0.9370 -0.6706
  852MOL0     H14975  11.914   5.695   0.734 -1.6775 -1.3267 -1.2684
  852MOL0     H14976  11.969   5.705   0.984 -1.0822  0.2270 -0.9074
  852MOL0     H14977  12.092   5.753   0.866 -0.6255 -0.4397 -0.3414
  852MOL0     H14978  12.207   5.538   0.896  1.3145  0.9224  0.6658
  852MOL0     H14979  12.091   5.495   1.021 -0.0078 -0.5495 -0.5447
  852MOL0     H14980  12.317   5.415   0.999 -0.1473  0.1453 -1.0240
  852MOL0     H14981  12.548   5.351   1.071 -1.0548 -0.2668 -1.1529
  852MOL0     H14982  13.062   5.687   1.276  1.2151 -2.8021 -2.0824
  852MOL0     H14983  13.254   5.613   1.420  0.3229  0.1855 -0.6296
  852MOL0     H14984  13.352   5.345   1.745  0.5828 -2.7133  0.4754
  852MOL0     H14985  13.181   5.346   1.736 -1.0372  1.6718 -1.8811
  852MOL0     H14986  13.252   5.126   1.738  0.1657  0.9835  0.3974
  852MOL0     H14987  13.175   5.162   1.596  0.4090 -0.6017 -2.0851
  852MOL0     H14988  13.368   5.120   1.472  0.0324 -0.6852  0.4785
  852MOL0     H14989  13.477   5.213   1.582 -0.3545  1.0993 -1.8692
  852MOL0     H14990  13.377   4.931   1.658 -0.0098 -1.0185 -1.9510
  852MOL0     H14991  13.509   5.022   1.721  2.3767 -1.2975 -1.9309
  852MOL0     H14992  13.620   5.028   1.497 -1.5027  2.3451  0.6682
  852MOL0     H14993  13.484   4.918   1.444 -1.4965 -2.8411  2.5194
  852MOL0     H14994  13.621   4.820   1.687 -0.4442 -1.1026 -0.3320
  852MOL0     H14995  13.576   4.739   1.544 -2.9189  2.4430 -0.5814
  852MOL0     H14996  13.823   4.915   1.580 -0.6826 -0.2184  1.2412
  852MOL0     H14997  13.791   4.841   1.427  0.1885  1.4044  0.1460
  852MOL0     H14998  13.817   4.656   1.662 -1.3785 -1.1016 -1.3475
  852MOL0     H14999  13.839   4.641   1.482  0.1812  0.5969  0.0840
  852MOL0     H15000  13.014   5.324   1.613  1.8311  0.5102  1.8514
  852MOL0     H15001  12.822   5.392   1.500  0.6253 -0.8316  0.1380
  852MOL0     H15002  12.602   5.737   1.246  0.9304 -1.5434  0.3880
  852MOL0     H15003  12.388   5.804   1.177 -2.2689  0.1442 -2.3693
  852MOL0     H15004  10.354   5.188   0.266 -1.3321 -1.4266  0.5803
  852MOL0     H15005  10.134   5.163   0.328 -4.4242  1.3928  1.5515
  852MOL0     H15006   9.780   5.154   0.420 -0.3685  2.0178 -1.7795
  852MOL0     H15007   9.570   5.099   0.380  1.5736 -1.6940 -0.2309
  852MOL0     H15008   9.349   5.048   0.513 -1.5543 -0.0221  0.0589
  852MOL0     H15009   9.311   5.089   0.339 -0.6624 -1.6219 -0.3219
  852MOL0     H15010   9.129   4.997   0.459 -1.4724 -0.7346  2.5445
  852MOL0     H15011   9.085   5.165   0.420 -1.2199 -1.4321 -0.6346
  852MOL0     H15012   9.143   5.218   0.670  2.7280 -1.1377  1.2253
  852MOL0     H15013   9.197   5.059   0.684 -0.9619  2.6976  3.4413
  852MOL0     H15014   8.987   4.963   0.623  2.0776 -0.0288 -2.0457
  852MOL0     H15015   8.946   5.071   0.758 -0.2604 -2.4186 -0.2257
  852MOL0     H15016   8.665   5.203   0.497 -0.0457  0.3929 -0.6983
  852MOL0     H15017   9.434   5.445   0.578 -1.1614 -0.2654 -2.9449
  852MOL0     H15018   9.717   5.613   0.615  0.8668 -1.6209 -0.6394
  852MOL0     H15019   9.601   5.573   0.730  1.7351  1.3297 -0.2357
  852MOL0     H15020   9.757   5.506   0.763 -0.1006  2.6382  2.6075
  853MOL0     O15021   4.461   6.995   7.411  0.2649  0.5266  0.1297
  853MOL0     C15022   4.351   7.056   7.411  0.0923 -0.1034 -0.9204
  853MOL0     O15023   4.333   7.187   7.360  0.4905 -0.5846  0.0259
  853MOL0     C15024   4.441   7.267   7.357  0.2586  0.6631 -0.5307
  853MOL0     C15025   4.463   7.338   7.243 -0.0761 -0.9436 -0.1121
  853MOL0     C15026   4.576   7.424   7.221  0.2825 -0.2547  0.0137
  853MOL0     C15027   4.668   7.433   7.326  0.3732  0.6929 -0.0441
  853MOL0     O15028   4.774   7.505   7.289 -0.1660  0.1256  0.1077
  853MOL0     C15029   4.888   7.489   7.377  0.1922  0.9629  1.1661
  853MOL0     C15030   5.007   7.562   7.327  0.4192 -1.0154 -1.0050
  853MOL0     C15031   5.091   7.467   7.243  0.0240 -0.8471  0.6370
  853MOL0     C15032   5.022   7.412   7.111  0.4888  0.0580  0.3933
  853MOL0     C15033   4.994   7.522   7.003 -0.4973 -0.1330  0.2287
  853MOL0     C15034   4.938   7.463   6.868 -0.0893  0.1495 -0.6249
  853MOL0     C15035   4.913   7.566   6.755  0.1821 -0.3963  0.3913
  853MOL0     C15036   4.877   7.512   6.624 -0.1245  0.2876  0.1901
  853MOL0     N15037   4.855   7.621   6.523 -0.9257  0.4678 -0.0896
  853MOL0     C15038   4.952   7.710   6.481 -0.1040  0.1353  0.3281
  853MOL0     C15039   4.889   7.802   6.402 -0.5731 -0.8189 -0.1865
  853MOL0     C15040   4.944   7.933   6.348  0.3599  0.1280 -0.1279
  853MOL0     C15041   5.097   7.923   6.358  0.3140  0.1821  0.3786
  853MOL0     C15042   5.162   8.064   6.344 -0.1714  0.6959  0.0219
  853MOL0     C15043   5.307   8.064   6.319  0.7606 -0.1146  0.4659
  853MOL0     O15044   5.375   8.011   6.427 -0.4793  0.1288  0.0205
  853MOL0     C15045   5.402   8.093   6.539 -0.2217 -0.0377 -0.4183
  853MOL0     C15046   5.421   8.037   6.660 -0.0442 -0.1033 -0.6330
  853MOL0     C15047   5.444   8.103   6.780  0.0185 -0.2890  0.1989
  853MOL0     C15048   5.467   8.242   6.775  1.1610  0.1214 -1.6625
  853MOL0     C15049   5.512   8.324   6.889 -0.4270 -0.5712  0.4631
  853MOL0     O15050   5.537   8.258   7.010  0.1292  0.0226  0.2100
  853MOL0     C15051   5.581   8.322   7.125  0.0232  0.5455  0.0540
  853MOL0     C15052   5.613   8.232   7.228 -0.0579 -0.1299 -0.5952
  853MOL0     C15053   5.684   8.271   7.341 -0.9230  1.0219  0.0413
  853MOL0     C15054   5.716   8.411   7.365  0.6581  1.0478 -0.4260
  853MOL0     O15055   5.785   8.458   7.480  0.5531 -0.6658 -0.0105
  853MOL0     C15056   5.819   8.371   7.588  0.0324  0.7602  1.4654
  853MOL0     C15057   5.905   8.438   7.701  0.0311 -0.4013  0.5274
  853MOL0     C15058   6.045   8.483   7.660  0.4346 -0.1973  1.2259
  853MOL0     C15059   6.118   8.548   7.774  0.0630  0.2005  0.8717
  853MOL0     C15060   6.259   8.586   7.742  0.4217  0.4253 -0.1821
  853MOL0     C15061   6.327   8.655   7.847  0.7360  0.3037 -0.5100
  853MOL0     C15062   6.451   8.727   7.800 -0.4770 -0.0338  0.8203
  853MOL0     C15063   6.551   8.615   7.757 -0.5802 -1.1294  0.2549
  853MOL0    Cl15064   6.706   8.710   7.727  0.2286  0.0551 -0.1919
  853MOL0     C15065   5.680   8.502   7.263  0.4784  1.0752  0.0740
  853MOL0     C15066   5.613   8.456   7.146 -1.0525 -0.6026 -0.4885
  853MOL0     O15067   5.530   8.447   6.865 -0.6973 -0.4591  0.3725
  853MOL0     C15068   5.447   8.306   6.645  0.6153  0.1376 -0.8997
  853MOL0     C15069   5.419   8.232   6.535  0.0866  0.5627  0.0132
  853MOL0     N15070   4.755   7.772   6.410 -0.4762 -0.1283  0.5415
  853MOL0     N15071   4.740   7.662   6.480 -0.0452  0.3716  0.6005
  853MOL0     C15072   4.645   7.371   7.449  0.8094  0.0440 -0.3074
  853MOL0     C15073   4.534   7.284   7.463 -0.4167 -0.1021 -0.7749
  853MOL0     C15074   4.225   6.987   7.454  0.0581 -0.4388  0.5198
  853MOL0     C15075   4.102   7.048   7.403  0.2060 -0.7763 -0.5217
  853MOL0     C15076   3.981   6.994   7.434  0.6814  0.9678 -1.0217
  853MOL0     C15077   3.976   6.886   7.525 -0.1330 -0.1891  0.9839
  853MOL0     O15078   3.851   6.850   7.562 -0.3511  0.1412 -0.0987
  853MOL0     C15079   3.815   6.709   7.566  0.2733 -0.2525 -0.4348
  853MOL0     C15080   3.769   6.692   7.700 -0.1183 -0.0479 -0.0785
  853MOL0     C15081   3.617   6.737   7.708  0.7371  0.5477 -0.1022
  853MOL0     C15082   3.561   6.739   7.854  0.0845  0.3674 -0.2913
  853MOL0     C15083   3.425   6.779   7.834  1.3312 -0.2302 -0.0491
  853MOL0     C15084   3.304   6.812   7.828  0.3453 -0.3398 -0.0639
  853MOL0     C15085   4.091   6.825   7.567 -0.2604 -0.3700  0.7359
  853MOL0     C15086   4.218   6.870   7.538  0.0853 -0.1828  0.2676
  853MOL0     C15087   4.339   6.800   7.589  1.7402 -1.6607 -0.5658
  853MOL0     H15088   4.387   7.309   7.171 -2.3769 -0.1078  1.8281
  853MOL0     H15089   4.598   7.464   7.123  0.3102 -3.5361 -1.4558
  853MOL0     H15090   4.866   7.544   7.469 -1.0357  1.4709  0.5957
  853MOL0     H15091   4.914   7.385   7.398  0.1814  0.4209 -1.1949
  853MOL0     H15092   5.062   7.592   7.417  1.9783 -2.2455 -1.5012
  853MOL0     H15093   4.980   7.653   7.272  0.8928  1.4855  2.5825
  853MOL0     H15094   5.113   7.382   7.308  1.0720 -1.0113  0.0937
  853MOL0     H15095   5.188   7.514   7.226 -0.0163 -1.0315 -0.1438
  853MOL0     H15096   5.084   7.339   7.057 -0.6594  1.4024 -2.9781
  853MOL0     H15097   4.927   7.363   7.135  0.9396 -0.4934  1.1000
  853MOL0     H15098   4.927   7.593   7.053 -0.5604 -0.4056  0.5339
  853MOL0     H15099   5.085   7.575   6.976 -0.9949 -0.3011 -1.9697
  853MOL0     H15100   5.021   7.400   6.832  0.4958  0.0923  0.7691
  853MOL0     H15101   4.859   7.389   6.879 -0.6712  0.8160 -0.2170
  853MOL0     H15102   5.002   7.628   6.748 -0.0766  0.1442  1.5060
  853MOL0     H15103   4.830   7.629   6.789  1.1102  0.6816  0.7320
  853MOL0     H15104   4.952   7.453   6.571 -0.4020  0.4828 -0.4343
  853MOL0     H15105   4.778   7.466   6.623  0.4108 -0.9048 -0.8446
  853MOL0     H15106   5.055   7.716   6.515 -0.0941  0.2889  0.2725
  853MOL0     H15107   4.908   7.944   6.245 -3.0537  0.0730  0.9430
  853MOL0     H15108   4.890   8.016   6.396 -2.7122 -0.2301 -2.6131
  853MOL0     H15109   5.130   7.900   6.459  2.6300  2.3094  0.2033
  853MOL0     H15110   5.131   7.845   6.289 -1.7487  0.5875 -1.2176
  853MOL0     H15111   5.151   8.124   6.435  0.7311  0.6817  0.1516
  853MOL0     H15112   5.127   8.111   6.252  0.3207  1.1916  0.0835
  853MOL0     H15113   5.343   8.160   6.281 -0.0191  0.4052  0.9895
  853MOL0     H15114   5.314   8.009   6.225  2.9994  1.4874 -0.3776
  853MOL0     H15115   5.401   7.930   6.660 -1.0802  0.0593  0.6251
  853MOL0     H15116   5.449   8.045   6.872 -2.4940 -0.2747  0.4173
  853MOL0     H15117   5.588   8.126   7.228 -2.9056  0.4574 -1.4052
  853MOL0     H15118   5.726   8.196   7.407  1.3472  1.9962 -0.1916
  853MOL0     H15119   5.729   8.330   7.635  0.8436 -1.5820  1.0747
  853MOL0     H15120   5.873   8.282   7.556  0.9614  1.0797  2.1035
  853MOL0     H15121   5.844   8.521   7.738 -1.0393  0.7009 -3.2094
  853MOL0     H15122   5.924   8.364   7.779  1.7495  0.2462  0.7604
  853MOL0     H15123   6.103   8.399   7.621  0.5893  0.6392 -0.4281
  853MOL0     H15124   6.044   8.553   7.576 -2.6362  1.9435  2.8301
  853MOL0     H15125   6.120   8.476   7.857 -0.1556 -0.3050  0.4426
  853MOL0     H15126   6.069   8.639   7.811 -0.9084 -0.8922  2.4401
  853MOL0     H15127   6.256   8.651   7.654 -0.3946  1.1113  0.3389
  853MOL0     H15128   6.308   8.491   7.719  1.4505  0.3466  2.0419
  853MOL0     H15129   6.259   8.732   7.884  1.4713  1.5575 -1.6389
  853MOL0     H15130   6.340   8.578   7.923 -0.4806 -1.2943 -1.8583
  853MOL0     H15131   6.496   8.791   7.877 -0.6164  0.9622  0.0919
  853MOL0     H15132   6.428   8.788   7.713  1.8916  1.4089  1.1131
  853MOL0     H15133   6.558   8.531   7.828 -1.3219 -0.3191  1.3117
  853MOL0     H15134   6.511   8.572   7.665 -0.7996  1.4642 -0.9380
  853MOL0     H15135   5.693   8.608   7.283  1.4358  0.8825  0.5099
  853MOL0     H15136   5.589   8.534   7.075  1.7528  2.6626  1.8643
  853MOL0     H15137   5.452   8.414   6.631 -0.8172  0.3135 -0.2192
  853MOL0     H15138   5.399   8.276   6.438 -1.9151  1.9090  0.9771
  853MOL0     H15139   4.725   7.376   7.523  1.2408 -0.7935 -0.6993
  853MOL0     H15140   4.532   7.237   7.561 -0.0585 -0.7784 -1.0894
  853MOL0     H15141   4.098   7.137   7.342  1.4692 -1.2965 -1.3962
  853MOL0     H15142   3.891   7.048   7.405 -0.3227  0.4750  0.9860
  853MOL0     H15143   3.901   6.647   7.539  1.4059  1.1280 -0.1620
  853MOL0     H15144   3.729   6.704   7.499 -2.3176  2.9120  2.3005
  853MOL0     H15145   3.840   6.740   7.768  1.0327 -1.7435 -0.0117
  853MOL0     H15146   3.781   6.587   7.727  0.2852  0.6134  2.5849
  853MOL0     H15147   3.558   6.679   7.636  1.5042  0.3221 -0.5574
  853MOL0     H15148   3.611   6.837   7.665  3.0909  0.4938 -0.6788
  853MOL0     H15149   3.558   6.640   7.900  1.9529  0.7331  0.6973
  853MOL0     H15150   3.608   6.802   7.931  1.7020 -1.8260  0.6144
  853MOL0     H15151   3.200   6.830   7.844  0.4365  0.0134  0.1310
  853MOL0     H15152   4.080   6.738   7.631  0.6718 -0.8076  0.3224
  853MOL0     H15153   4.364   6.718   7.520  0.9473 -3.4409  1.1550
  853MOL0     H15154   4.424   6.865   7.611 -1.6695  2.4398  2.0440
  853MOL0     H15155   4.314   6.753   7.685  0.8830  0.1369  0.1320
  854MOL0     O15156   9.063   3.477  11.283 -0.3321  0.2611 -0.1293
  854MOL0     C15157   8.969   3.503  11.359 -0.1788  0.0811 -0.7326
  854MOL0     O15158   8.977   3.542  11.489  0.5840 -0.1875  0.0280
  854MOL0     C15159   9.103   3.553  11.552  0.2697 -0.0853  0.2507
  854MOL0     C15160   9.162   3.673  11.594  1.0462  0.1671  0.2095
  854MOL0     C15161   9.289   3.676  11.650  0.7176  0.5831 -0.5057
  854MOL0     C15162   9.365   3.560  11.675  0.8906  0.0186 -0.3947
  854MOL0     O15163   9.495   3.555  11.726  0.2718  0.1009 -0.1202
  854MOL0     C15164   9.591   3.659  11.695 -0.0678 -0.0055  0.0846
  854MOL0     C15165   9.721   3.581  11.678 -0.4965 -0.9840  0.7868
  854MOL0     C15166   9.820   3.687  11.623  0.0396  0.4901  0.7347
  854MOL0     C15167   9.906   3.742  11.735 -0.1669  0.4973  0.0308
  854MOL0     C15168   9.984   3.871  11.690 -0.3576  0.3602 -1.0830
  854MOL0     C15169  10.084   3.929  11.794 -0.4472 -0.0320  0.0643
  854MOL0     C15170  10.187   4.030  11.726 -0.0358 -0.2728 -0.1282
  854MOL0     C15171  10.304   3.957  11.652 -0.4112  0.5090  0.3254
  854MOL0     N15172  10.403   3.913  11.745  0.2901  0.0585 -0.5808
  854MOL0     C15173  10.428   3.786  11.781 -0.4551 -0.1144 -0.0278
  854MOL0     C15174  10.517   3.787  11.886  0.6313 -0.6990  1.0006
  854MOL0     C15175  10.553   3.660  11.955  0.0085  0.0435 -0.0198
  854MOL0     C15176  10.694   3.615  11.946  1.0230  0.6050  0.1340
  854MOL0     C15177  10.796   3.720  11.993  0.5609  0.3175  0.0787
  854MOL0     C15178  10.935   3.683  11.957 -0.4798 -0.3253 -0.4889
  854MOL0     O15179  10.961   3.672  11.816 -0.5494 -0.0337 -0.2568
  854MOL0     C15180  11.089   3.629  11.789  0.4703  0.1995  0.4259
  854MOL0     C15181  11.202   3.697  11.834 -0.8109  0.3141  0.2892
  854MOL0     C15182  11.336   3.650  11.807 -0.9315  0.5792  0.2848
  854MOL0     C15183  11.357   3.529  11.740 -0.0033 -0.3400  0.1632
  854MOL0     C15184  11.493   3.467  11.726  0.5878 -0.1831  0.4016
  854MOL0     O15185  11.599   3.564  11.724 -0.0862 -0.1218  0.0995
  854MOL0     C15186  11.732   3.525  11.720  0.1326 -0.7865  0.4212
  854MOL0     C15187  11.802   3.504  11.841 -0.4501  0.0687 -0.3819
  854MOL0     C15188  11.934   3.455  11.847  0.1644 -0.8924  0.9527
  854MOL0     C15189  11.999   3.439  11.722 -0.3432 -0.4041 -0.3420
  854MOL0     O15190  12.136   3.433  11.727 -0.2224 -0.1791 -0.5207
  854MOL0     C15191  12.210   3.418  11.607 -0.2791  0.5034  0.4145
  854MOL0     C15192  12.358   3.392  11.621  0.5348 -0.7094 -0.1326
  854MOL0     C15193  12.416   3.366  11.490  0.1769 -0.0175  0.0116
  854MOL0     C15194  12.566   3.356  11.486 -0.0078 -0.1865 -0.8653
  854MOL0     C15195  12.605   3.320  11.342  0.0107  0.5728 -0.0325
  854MOL0     C15196  12.756   3.311  11.329 -0.3474  0.6059  0.1168
  854MOL0     C15197  12.826   3.186  11.378  0.8085 -0.3522 -0.1098
  854MOL0     C15198  12.982   3.183  11.383  0.0683 -0.5535  0.3149
  854MOL0    Cl15199  13.044   3.319  11.481 -0.1738 -0.0481  0.2147
  854MOL0     C15200  11.930   3.450  11.597 -0.2389  0.1715 -0.2243
  854MOL0     C15201  11.796   3.494  11.600 -1.2925 -0.7168 -0.3365
  854MOL0     O15202  11.506   3.350  11.690  0.4083  0.3382  0.2893
  854MOL0     C15203  11.242   3.455  11.699 -0.2490 -0.0301  0.6445
  854MOL0     C15204  11.113   3.510  11.718 -0.3232  0.0920 -0.1272
  854MOL0     N15205  10.545   3.922  11.907  0.3186  0.6729  0.2391
  854MOL0     N15206  10.475   3.997  11.831  1.0399  0.2610 -0.3989
  854MOL0     C15207   9.304   3.444  11.632 -0.6229  0.4866 -0.6191
  854MOL0     C15208   9.176   3.435  11.580 -0.4402 -0.0349  0.0495
  854MOL0     C15209   8.826   3.498  11.319 -0.4668 -0.4992  0.3751
  854MOL0     C15210   8.726   3.531  11.414  0.5937  0.2304 -0.4040
  854MOL0     C15211   8.591   3.508  11.380  0.0638  0.1566 -0.1342
  854MOL0     C15212   8.547   3.447  11.263 -0.8345 -0.0730  0.2279
  854MOL0     O15213   8.418   3.439  11.225  0.4132 -0.1372 -0.1055
  854MOL0     C15214   8.336   3.342  11.285  0.0827  0.3889  0.0412
  854MOL0     C15215   8.239   3.292  11.171  0.4295 -0.7024 -0.1603
  854MOL0     C15216   8.162   3.167  11.192  0.2066 -0.1151 -0.1993
  854MOL0     C15217   8.093   3.113  11.067 -0.0990  0.1160 -0.7214
  854MOL0     C15218   8.197   3.061  10.974 -0.0130  0.1914  0.2906
  854MOL0     C15219   8.295   3.007  10.927  0.0452  0.0224  0.5112
  854MOL0     C15220   8.646   3.424  11.171  0.4569 -0.5350  0.8942
  854MOL0     C15221   8.780   3.446  11.193  0.3865  0.5616  1.3481
  854MOL0     C15222   8.869   3.391  11.076 -0.1920 -0.8894  0.0821
  854MOL0     H15223   9.095   3.757  11.579  1.7566  0.3474 -2.5058
  854MOL0     H15224   9.325   3.775  11.676  0.9205  0.4526 -0.2800
  854MOL0     H15225   9.559   3.711  11.605  3.1953  0.9629 -0.6449
  854MOL0     H15226   9.594   3.732  11.777 -0.0410  0.0184  0.0619
  854MOL0     H15227   9.704   3.491  11.618 -1.0525 -2.6137  3.2664
  854MOL0     H15228   9.761   3.542  11.772 -0.0171 -0.6233  0.7344
  854MOL0     H15229   9.781   3.768  11.562 -0.9488 -0.0914  0.5727
  854MOL0     H15230   9.886   3.637  11.551  0.2869  1.2691  0.4092
  854MOL0     H15231   9.840   3.769  11.818 -0.4036  2.4886 -0.7605
  854MOL0     H15232   9.983   3.667  11.757 -1.6954 -1.1898 -0.1824
  854MOL0     H15233  10.050   3.842  11.607  2.5710 -0.7943  1.4615
  854MOL0     H15234   9.909   3.947  11.670  0.6247  1.3638 -1.0317
  854MOL0     H15235  10.028   3.980  11.873  0.1485  0.2979  0.2794
  854MOL0     H15236  10.138   3.843  11.834  0.2869 -1.2091 -3.0902
  854MOL0     H15237  10.228   4.099  11.800 -1.4553  1.3445 -0.7914
  854MOL0     H15238  10.133   4.096  11.657  1.5986 -1.0623 -2.2721
  854MOL0     H15239  10.270   3.875  11.589  2.3491 -0.1856 -0.3860
  854MOL0     H15240  10.349   4.035  11.590 -2.2784  0.4564 -1.1668
  854MOL0     H15241  10.397   3.693  11.733 -0.3491 -0.0238 -0.2748
  854MOL0     H15242  10.527   3.665  12.061 -1.7240  0.0898 -0.4187
  854MOL0     H15243  10.493   3.585  11.904  0.5699  0.8732 -2.0206
  854MOL0     H15244  10.709   3.528  12.010  2.5806 -0.0490 -1.0404
  854MOL0     H15245  10.722   3.591  11.843  0.6699 -0.9957  0.3983
  854MOL0     H15246  10.778   3.716  12.101 -2.3800 -1.3769 -0.3813
  854MOL0     H15247  10.776   3.821  11.955  0.6112  1.1146  2.0268
  854MOL0     H15248  10.958   3.593  12.015  2.8899 -0.0144 -1.1769
  854MOL0     H15249  11.007   3.758  11.989  1.4961 -1.8228 -1.2212
  854MOL0     H15250  11.199   3.785  11.899 -1.8996 -0.2066  0.9709
  854MOL0     H15251  11.421   3.692  11.861  0.2716 -1.1084 -0.2335
  854MOL0     H15252  11.756   3.523  11.937 -1.2501 -0.1348 -0.7178
  854MOL0     H15253  11.985   3.443  11.942 -2.5022 -0.2095  2.5544
  854MOL0     H15254  12.173   3.330  11.555 -0.1340 -0.1908  1.4567
  854MOL0     H15255  12.196   3.505  11.542  1.4628 -1.9298 -3.5232
  854MOL0     H15256  12.410   3.487  11.641  0.6170 -0.8169  0.1735
  854MOL0     H15257  12.374   3.318  11.700 -1.0004  0.0555  0.9418
  854MOL0     H15258  12.378   3.273  11.447 -3.2336  0.7158  1.1068
  854MOL0     H15259  12.397   3.448  11.420  2.0898 -1.2101 -2.0432
  854MOL0     H15260  12.606   3.283  11.556 -0.5265  1.7472  1.5633
  854MOL0     H15261  12.610   3.448  11.525 -2.4743  0.1015  1.5910
  854MOL0     H15262  12.577   3.398  11.271  0.4342  1.0684  0.3373
  854MOL0     H15263  12.557   3.226  11.312  2.0064 -1.5161  2.7459
  854MOL0     H15264  12.796   3.321  11.227  1.3754 -0.3492  0.6633
  854MOL0     H15265  12.798   3.394  11.386  0.4697 -2.5107  4.5201
  854MOL0     H15266  12.791   3.103  11.317  1.1080  0.0943 -0.9027
  854MOL0     H15267  12.789   3.179  11.481  0.2727  3.3915  0.1013
  854MOL0     H15268  13.022   3.089  11.424 -1.1040 -0.7626  1.0048
  854MOL0     H15269  13.026   3.188  11.283 -0.0440 -1.8673  0.1861
  854MOL0     H15270  11.981   3.452  11.502  1.7682  1.4355  0.8027
  854MOL0     H15271  11.756   3.517  11.502  0.7790  0.5338 -0.9425
  854MOL0     H15272  11.261   3.360  11.651 -0.3697  0.5228 -0.5185
  854MOL0     H15273  11.032   3.453  11.674  0.2506 -0.1783 -0.8709
  854MOL0     H15274   9.351   3.353  11.668  0.4128  2.2875  3.0003
  854MOL0     H15275   9.142   3.334  11.558  0.4540  0.0735 -2.0591
  854MOL0     H15276   8.742   3.562  11.517 -1.8060 -0.6122  0.2912
  854MOL0     H15277   8.517   3.532  11.456  0.0678 -3.4221  1.1940
  854MOL0     H15278   8.282   3.391  11.367 -0.8219 -3.1779  1.7550
  854MOL0     H15279   8.386   3.258  11.334  0.7333  0.8524  0.1880
  854MOL0     H15280   8.300   3.276  11.082 -3.4594 -2.9984 -2.6985
  854MOL0     H15281   8.175   3.378  11.151  1.8662  0.3283 -0.4229
  854MOL0     H15282   8.087   3.196  11.267  0.1293  2.1579 -1.0898
  854MOL0     H15283   8.236   3.095  11.228 -0.0832 -1.3462 -1.9271
  854MOL0     H15284   8.026   3.031  11.093  0.0750  0.4663  0.9244
  854MOL0     H15285   8.032   3.191  11.020 -1.2467  0.2860  0.9780
  854MOL0     H15286   8.387   2.968  10.888  0.6738 -0.0917  2.0351
  854MOL0     H15287   8.609   3.374  11.082 -1.0179  0.7469  0.7581
  854MOL0     H15288   8.916   3.299  11.113 -0.6128 -2.0585 -2.1325
  854MOL0     H15289   8.808   3.382  10.986 -2.5261  0.8177  1.3833
  854MOL0     H15290   8.943   3.465  11.043 -0.8235 -0.2149  0.1525
  855MOL0     O15291   1.488   8.885   6.538  0.2438 -0.0528 -0.5369
  855MOL0     C15292   1.425   8.948   6.623 -0.1382  0.1236 -0.6142
  855MOL0     O15293   1.464   8.966   6.752 -0.2424 -0.2893 -0.2175
  855MOL0     C15294   1.599   8.962   6.787  0.8144  0.2729 -0.0278
  855MOL0     C15295   1.656   9.059   6.877 -0.0058  0.2012 -0.4506
  855MOL0     C15296   1.793   9.059   6.905 -0.2957  0.3649  0.0276
  855MOL0     C15297   1.879   8.964   6.850 -0.2519 -1.3002 -0.7822
  855MOL0     O15298   2.012   8.985   6.881 -0.5684 -0.1863  0.2393
  855MOL0     C15299   2.110   8.886   6.849 -0.3666  0.5434 -1.0253
  855MOL0     C15300   2.231   8.908   6.936 -0.4293  0.1628 -0.4358
  855MOL0     C15301   2.293   8.775   6.991 -0.1838 -0.4155  0.4350
  855MOL0     C15302   2.341   8.675   6.890 -0.1051 -0.7861  0.8759
  855MOL0     C15303   2.399   8.567   6.968 -0.1672  0.4970 -0.0610
  855MOL0     C15304   2.496   8.465   6.889 -0.0037  0.3189 -1.0808
  855MOL0     C15305   2.618   8.529   6.826 -0.3734 -0.2919  0.7034
  855MOL0     C15306   2.721   8.612   6.909 -0.2399 -0.1618 -0.3026
  855MOL0     N15307   2.779   8.533   7.019 -0.1248 -0.3058  0.3403
  855MOL0     C15308   2.829   8.403   7.003  0.3682 -0.3503 -0.4537
  855MOL0     C15309   2.868   8.366   7.128  0.7640  0.5937 -0.2315
  855MOL0     C15310   2.937   8.239   7.184  0.2586  0.1345  0.7216
  855MOL0     C15311   3.066   8.191   7.107  0.9957  0.5489  0.5198
  855MOL0     C15312   3.081   8.038   7.127  0.1404  0.5938 -0.3136
  855MOL0     C15313   3.218   7.978   7.081  0.4663  0.1387  0.0708
  855MOL0     O15314   3.325   8.041   7.151  1.1055 -0.4398 -0.3054
  855MOL0     C15315   3.458   8.012   7.126  0.8370  0.2268 -0.7804
  855MOL0     C15316   3.556   8.089   7.186  0.8795 -1.0652 -0.2315
  855MOL0     C15317   3.690   8.071   7.162  0.0302  0.5735 -0.4989
  855MOL0     C15318   3.741   7.971   7.076  0.1001  0.3116 -0.0740
  855MOL0     C15319   3.879   7.957   7.062 -0.2195 -0.4119  0.2676
  855MOL0     O15320   3.929   7.834   7.051 -0.3399 -0.5672 -0.3505
  855MOL0     C15321   4.062   7.819   7.048  0.2086  0.8051 -0.8861
  855MOL0     C15322   4.120   7.732   7.132 -0.4218 -0.3999 -0.5832
  855MOL0     C15323   4.260   7.708   7.128 -0.4616 -0.1862  0.5163
  855MOL0     C15324   4.337   7.769   7.033 -0.5075  1.0633  0.1440
  855MOL0     O15325   4.473   7.743   7.035 -0.2887 -1.0518  0.0263
  855MOL0     C15326   4.553   7.782   7.153  0.1466 -0.0579  0.5390
  855MOL0     C15327   4.548   7.938   7.167 -0.8182 -0.9557 -0.5443
  855MOL0     C15328   4.635   8.008   7.270  0.1482  0.0849 -0.1752
  855MOL0     C15329   4.784   7.961   7.279 -0.2901 -0.2182  0.9863
  855MOL0     C15330   4.862   8.031   7.381  0.2382 -0.3818  0.2860
  855MOL0     C15331   4.986   7.960   7.411  0.6350  0.2648  1.0488
  855MOL0     C15332   5.065   8.036   7.524  0.2644  0.4714 -0.4924
  855MOL0     C15333   5.203   7.976   7.541 -0.4508  0.1998  0.3804
  855MOL0    Cl15334   5.181   7.805   7.605  0.0954  0.2557  0.2350
  855MOL0     C15335   4.277   7.849   6.938  0.2965 -0.0003  0.8928
  855MOL0     C15336   4.139   7.865   6.944 -0.9087 -0.3835 -0.3329
  855MOL0     O15337   3.943   8.060   7.071  0.0694  0.2288  0.5205
  855MOL0     C15338   3.642   7.885   7.026 -0.3448 -0.3694 -0.2189
  855MOL0     C15339   3.505   7.902   7.050  0.4059  0.0616 -0.2319
  855MOL0     N15340   2.870   8.486   7.199 -0.2917  0.0548 -0.4285
  855MOL0     N15341   2.820   8.585   7.133 -0.4787 -0.2383 -0.7933
  855MOL0     C15342   1.830   8.866   6.769  0.1934  0.2606  0.5932
  855MOL0     C15343   1.691   8.873   6.731  0.6124  0.7471 -0.2306
  855MOL0     C15344   1.297   9.000   6.589  0.4916 -0.1592  0.8542
  855MOL0     C15345   1.271   9.017   6.447  0.2854  0.1562 -0.2223
  855MOL0     C15346   1.151   9.074   6.402 -0.7765 -0.8756 -0.0411
  855MOL0     C15347   1.050   9.106   6.492 -0.0340  0.1185 -0.8237
  855MOL0     O15348   0.929   9.164   6.451 -0.2442  0.1069 -0.3815
  855MOL0     C15349   0.876   9.111   6.331  0.0922 -0.6925 -0.0105
  855MOL0     C15350   0.726   9.124   6.324 -0.2885  0.9888 -0.4884
  855MOL0     C15351   0.693   9.274   6.301 -0.2699  0.1278  0.9403
  855MOL0     C15352   0.530   9.301   6.294 -0.2413 -0.4574  0.0988
  855MOL0     C15353   0.446   9.206   6.222 -0.7326  0.4153 -0.6339
  855MOL0     C15354   0.373   9.127   6.162 -0.8717 -0.3595  0.1928
  855MOL0     C15355   1.082   9.093   6.626  0.7847  0.3449 -0.3596
  855MOL0     C15356   1.197   9.037   6.679  0.0701  0.8112  0.2765
  855MOL0     C15357   1.201   9.006   6.828  0.2683  0.3214  0.3678
  855MOL0     H15358   1.595   9.137   6.921 -0.2241 -0.1711 -0.0997
  855MOL0     H15359   1.840   9.143   6.955 -0.0405  1.3675 -1.8114
  855MOL0     H15360   2.067   8.791   6.884 -1.1589  1.1736 -0.2343
  855MOL0     H15361   2.145   8.893   6.746  0.1766  1.9913 -0.7558
  855MOL0     H15362   2.217   8.964   7.030  2.0371  0.6783 -0.2999
  855MOL0     H15363   2.305   8.964   6.879  1.9778 -1.1436  1.2274
  855MOL0     H15364   2.219   8.737   7.062 -0.9606 -0.9737 -0.6468
  855MOL0     H15365   2.379   8.793   7.057 -0.2877 -3.3020  1.5115
  855MOL0     H15366   2.256   8.651   6.825 -1.5269  0.2409  2.2903
  855MOL0     H15367   2.422   8.720   6.831  0.9815 -0.9769  2.1675
  855MOL0     H15368   2.455   8.614   7.049 -1.1492  0.6062  0.5614
  855MOL0     H15369   2.318   8.508   7.011 -0.3469 -0.5931 -1.7789
  855MOL0     H15370   2.535   8.394   6.963 -1.6885 -0.5348 -0.9550
  855MOL0     H15371   2.429   8.407   6.825 -0.3528 -3.5645  2.3452
  855MOL0     H15372   2.582   8.599   6.751  1.5642  0.9344  0.8416
  855MOL0     H15373   2.673   8.451   6.772 -2.4898 -1.6796  0.4430
  855MOL0     H15374   2.800   8.656   6.848 -2.3544  3.4853 -0.7286
  855MOL0     H15375   2.672   8.697   6.957  1.1088 -0.0161  0.8936
  855MOL0     H15376   2.813   8.331   6.924  1.6631 -1.0662 -0.0889
  855MOL0     H15377   2.960   8.249   7.290 -1.9409 -1.5612  1.4472
  855MOL0     H15378   2.858   8.164   7.175  2.2052 -2.2132  1.9153
  855MOL0     H15379   3.050   8.201   6.999 -3.8729 -1.0660  0.8734
  855MOL0     H15380   3.149   8.255   7.139 -1.0777  3.1392  1.0560
  855MOL0     H15381   3.015   7.988   7.055  0.8936 -1.5652  0.4127
  855MOL0     H15382   3.044   8.003   7.224 -0.2244 -0.4515 -0.8208
  855MOL0     H15383   3.231   7.987   6.973  2.9109 -1.1462  0.1692
  855MOL0     H15384   3.216   7.871   7.106 -1.2147  0.6866  2.6632
  855MOL0     H15385   3.515   8.164   7.253  0.2226 -1.6636  0.0391
  855MOL0     H15386   3.762   8.133   7.215 -0.8297  0.1258  1.2924
  855MOL0     H15387   4.054   7.692   7.208 -1.2418 -1.0118 -1.5782
  855MOL0     H15388   4.310   7.657   7.210  2.3991 -1.7402 -2.0051
  855MOL0     H15389   4.518   7.733   7.244  1.6162  0.6704  1.5413
  855MOL0     H15390   4.658   7.760   7.133  0.4878  1.3895  0.5714
  855MOL0     H15391   4.579   7.984   7.073 -0.0633 -0.0054  0.1617
  855MOL0     H15392   4.444   7.970   7.182  0.2341  2.3052  0.6552
  855MOL0     H15393   4.641   8.114   7.246  0.1113  0.0527 -0.3312
  855MOL0     H15394   4.586   8.006   7.367  1.4683  2.5745  0.6239
  855MOL0     H15395   4.838   7.976   7.186 -0.0544 -0.2324  1.1209
  855MOL0     H15396   4.783   7.852   7.293 -0.4133 -0.4959 -0.8904
  855MOL0     H15397   4.790   8.037   7.463 -0.2794  0.9648 -0.2368
  855MOL0     H15398   4.879   8.134   7.349 -1.3201 -0.6172 -1.5091
  855MOL0     H15399   4.963   7.858   7.445 -0.3370 -0.8532 -2.5122
  855MOL0     H15400   5.042   7.949   7.317 -2.1641 -0.9949 -0.5989
  855MOL0     H15401   5.007   8.022   7.615 -1.5734 -0.0207 -1.6836
  855MOL0     H15402   5.074   8.138   7.483 -0.9096  1.7471  2.1920
  855MOL0     H15403   5.270   7.978   7.455 -0.5221  2.0249  0.3228
  855MOL0     H15404   5.259   8.041   7.609  2.0161 -1.0018 -0.3948
  855MOL0     H15405   4.334   7.896   6.859 -2.8309 -0.5970 -1.9256
  855MOL0     H15406   4.101   7.939   6.875  2.4929  0.0757 -1.8872
  855MOL0     H15407   3.674   7.808   6.957  0.3775 -0.1697 -0.1226
  855MOL0     H15408   3.435   7.834   7.002  0.9301  1.0892 -2.6364
  855MOL0     H15409   1.896   8.795   6.721 -1.6976 -0.9992 -0.2385
  855MOL0     H15410   1.654   8.792   6.669  0.5581  2.2909 -2.2898
  855MOL0     H15411   1.345   8.990   6.373  0.3218 -1.7156  0.4457
  855MOL0     H15412   1.138   9.067   6.294 -0.9283 -2.2110  0.0402
  855MOL0     H15413   0.901   9.005   6.334 -1.9645 -1.2211  1.2798
  855MOL0     H15414   0.918   9.160   6.243  0.7797 -2.3586 -0.6515
  855MOL0     H15415   0.685   9.086   6.418  1.1378  2.6474  0.8765
  855MOL0     H15416   0.683   9.067   6.241 -1.0928  1.0379 -0.1109
  855MOL0     H15417   0.730   9.300   6.202  0.7299  0.2379  1.3231
  855MOL0     H15418   0.747   9.329   6.378 -0.3308 -1.7098  2.3917
  855MOL0     H15419   0.504   9.306   6.400  1.3137 -4.2167  0.8342
  855MOL0     H15420   0.509   9.396   6.244 -0.2075 -0.3653  0.2584
  855MOL0     H15421   0.311   9.055   6.113  1.6855 -3.4904  1.2251
  855MOL0     H15422   1.004   9.126   6.693 -0.3483  0.2777 -1.6090
  855MOL0     H15423   1.098   9.011   6.864  0.0034 -0.9046 -0.1985
  855MOL0     H15424   1.241   8.909   6.857  1.4882  1.2374  1.9642
  855MOL0     H15425   1.273   9.069   6.881 -2.9445  1.9474  3.2282
  856MOL0     O15426   9.065   4.484   1.843 -0.5805 -0.3030 -0.2667
  856MOL0     C15427   8.984   4.539   1.922 -0.0315  0.8440 -0.5271
  856MOL0     O15428   9.007   4.563   2.062  0.6110  0.4328 -0.0107
  856MOL0     C15429   9.131   4.551   2.104  0.4956  0.5991 -1.0443
  856MOL0     C15430   9.207   4.434   2.097 -0.7925 -0.4169 -1.3877
  856MOL0     C15431   9.334   4.420   2.156 -1.1242  0.5492 -0.0051
  856MOL0     C15432   9.397   4.533   2.217  0.0571 -0.0225 -0.0229
  856MOL0     O15433   9.525   4.546   2.263  0.0115 -0.2861  0.0857
  856MOL0     C15434   9.626   4.454   2.223  0.2066  0.5347 -0.3160
  856MOL0     C15435   9.766   4.502   2.287  0.0872 -0.9333 -0.6899
  856MOL0     C15436   9.810   4.624   2.205  0.2078 -0.8260 -0.3616
  856MOL0     C15437   9.950   4.673   2.231  0.9048 -0.1189 -0.1312
  856MOL0     C15438  10.046   4.560   2.179  0.5630  0.8235  0.4191
  856MOL0     C15439  10.189   4.605   2.191  0.3918 -0.5740 -0.9736
  856MOL0     C15440  10.303   4.514   2.131  0.1434 -0.3064  0.2333
  856MOL0     C15441  10.325   4.404   2.227  0.1516  0.1955  0.1158
  856MOL0     N15442  10.411   4.299   2.167  0.0781 -0.4342  0.5282
  856MOL0     C15443  10.540   4.317   2.111 -0.0595  1.5513 -0.0929
  856MOL0     C15444  10.572   4.194   2.052 -0.3722 -1.1170  0.0323
  856MOL0     C15445  10.684   4.185   1.946  0.4137  0.3274  0.0275
  856MOL0     C15446  10.814   4.256   1.976  0.0322  0.2484  0.2018
  856MOL0     C15447  10.868   4.225   2.118  0.2740  0.1554  0.4494
  856MOL0     C15448  11.006   4.291   2.159  1.4270  0.1421  0.2588
  856MOL0     O15449  11.113   4.238   2.073  0.3277 -0.4110  0.7810
  856MOL0     C15450  11.234   4.293   2.047  0.1475 -1.0086  0.9252
  856MOL0     C15451  11.262   4.425   2.074 -0.1808  1.0816  0.3807
  856MOL0     C15452  11.387   4.483   2.047 -0.3813  0.5798 -0.1118
  856MOL0     C15453  11.480   4.414   1.967 -0.9565  0.3299  0.5834
  856MOL0     C15454  11.614   4.466   1.931  0.4140 -0.8052  0.0898
  856MOL0     O15455  11.690   4.407   1.829 -0.5564 -0.5732  0.4750
  856MOL0     C15456  11.818   4.450   1.820 -0.4763 -0.6099 -0.0411
  856MOL0     C15457  11.865   4.508   1.704  0.0627 -0.4848  0.9498
  856MOL0     C15458  12.001   4.550   1.694  1.0106 -0.6792 -1.3430
  856MOL0     C15459  12.084   4.542   1.810  0.2135 -0.0239  0.5191
  856MOL0     O15460  12.213   4.595   1.817 -0.4216 -0.1321 -0.5227
  856MOL0     C15461  12.260   4.673   1.705  0.8358  0.1468  0.4909
  856MOL0     C15462  12.410   4.707   1.725 -0.1469 -0.2581 -0.1010
  856MOL0     C15463  12.493   4.579   1.730  0.6736  0.2027 -0.3006
  856MOL0     C15464  12.639   4.617   1.760 -0.6165  0.5179  0.6833
  856MOL0     C15465  12.702   4.677   1.626  0.1521  0.3207  0.4264
  856MOL0     C15466  12.853   4.733   1.651  0.0318  0.4949  0.1960
  856MOL0     C15467  12.922   4.786   1.525 -0.4938 -0.0627  0.4320
  856MOL0     C15468  13.057   4.856   1.549 -0.5424  0.0522  0.0176
  856MOL0    Cl15469  13.181   4.725   1.589  0.2579 -0.4190  0.5601
  856MOL0     C15470  12.038   4.469   1.917 -0.4575  0.0094  0.2212
  856MOL0     C15471  11.904   4.431   1.919  0.2284  0.0888 -0.5854
  856MOL0     O15472  11.648   4.564   1.998 -0.4497  0.0658 -0.2890
  856MOL0     C15473  11.445   4.283   1.923 -0.3022  0.5028  0.4430
  856MOL0     C15474  11.321   4.226   1.966  0.9548  0.2815  0.4364
  856MOL0     N15475  10.465   4.112   2.078  1.0157 -0.3230  0.9618
  856MOL0     N15476  10.372   4.175   2.141  0.3162  0.1595 -0.1480
  856MOL0     C15477   9.319   4.652   2.225  1.2282  0.5939 -0.9859
  856MOL0     C15478   9.182   4.649   2.180 -0.1160  0.3907 -0.2490
  856MOL0     C15479   8.850   4.569   1.866 -0.2576  0.0837  1.0889
  856MOL0     C15480   8.793   4.484   1.769 -0.2031  0.0409  0.0604
  856MOL0     C15481   8.663   4.505   1.724 -0.2275 -0.1653  0.7499
  856MOL0     C15482   8.605   4.625   1.741  0.7655 -0.2072 -0.4200
  856MOL0     O15483   8.484   4.657   1.681 -0.2836  0.7907 -0.5662
  856MOL0     C15484   8.370   4.578   1.720 -0.1312  0.5152  0.7679
  856MOL0     C15485   8.254   4.660   1.673  1.4389 -0.7186  0.2101
  856MOL0     C15486   8.127   4.580   1.640  0.0103  0.6668 -0.8993
  856MOL0     C15487   8.024   4.584   1.757  0.2104 -0.6569 -0.0044
  856MOL0     C15488   8.074   4.539   1.882  0.3259  1.7183  0.7797
  856MOL0     C15489   8.115   4.521   1.996  0.1812 -0.1658  0.3106
  856MOL0     C15490   8.652   4.711   1.838 -0.8300 -0.0613 -0.0891
  856MOL0     C15491   8.782   4.687   1.892 -0.5891 -0.1530 -0.6074
  856MOL0     C15492   8.843   4.805   1.974  0.3434  0.3056  0.3300
  856MOL0     H15493   9.160   4.348   2.052  0.0595 -0.7296 -1.7086
  856MOL0     H15494   9.384   4.324   2.144 -0.9855  0.6791 -0.4992
  856MOL0     H15495   9.599   4.358   2.269  1.5370 -0.4627 -1.5189
  856MOL0     H15496   9.629   4.443   2.115 -0.8198 -3.2184 -0.1075
  856MOL0     H15497   9.846   4.428   2.284  1.3963  0.4662 -1.4675
  856MOL0     H15498   9.743   4.528   2.391 -2.0571 -1.3482 -1.0116
  856MOL0     H15499   9.735   4.702   2.214  0.3394 -0.5681 -1.3886
  856MOL0     H15500   9.807   4.601   2.098  0.7589 -0.6755 -0.4150
  856MOL0     H15501   9.973   4.764   2.176 -0.5511 -0.2420 -1.0160
  856MOL0     H15502   9.963   4.696   2.337 -0.1214  0.1620 -0.0514
  856MOL0     H15503  10.037   4.463   2.229 -3.0655 -0.2942 -2.0003
  856MOL0     H15504  10.021   4.548   2.073  3.5581 -1.7674 -0.1652
  856MOL0     H15505  10.188   4.702   2.140 -3.1883 -0.3594 -0.7478
  856MOL0     H15506  10.199   4.629   2.297  0.3802 -0.7809 -0.9253
  856MOL0     H15507  10.393   4.574   2.144  0.1818 -0.1235 -0.8138
  856MOL0     H15508  10.282   4.486   2.027 -0.3834 -2.9798  0.9917
  856MOL0     H15509  10.365   4.448   2.318  0.7568 -1.9777  0.9524
  856MOL0     H15510  10.232   4.356   2.259 -0.4299  0.5263 -1.0206
  856MOL0     H15511  10.588   4.411   2.086  0.1576  1.2205 -0.9423
  856MOL0     H15512  10.707   4.078   1.933 -1.8045 -0.3666  1.3281
  856MOL0     H15513  10.652   4.219   1.847 -2.6764 -3.2838 -0.4619
  856MOL0     H15514  10.897   4.246   1.905 -0.3959  2.1728 -0.6480
  856MOL0     H15515  10.799   4.364   1.971  1.6921  0.5673  1.3441
  856MOL0     H15516  10.883   4.117   2.115  3.5673  0.4978 -3.1224
  856MOL0     H15517  10.793   4.254   2.193  1.8260  1.6854  1.4751
  856MOL0     H15518  11.025   4.277   2.266  2.7539  1.8500  0.2921
  856MOL0     H15519  10.993   4.400   2.155 -0.2584 -0.0648 -0.7927
  856MOL0     H15520  11.201   4.493   2.133  1.9709  2.3920  1.2030
  856MOL0     H15521  11.400   4.588   2.072  3.1278  1.1639 -3.3809
  856MOL0     H15522  11.799   4.517   1.618  0.6398  1.6291  0.6674
  856MOL0     H15523  12.023   4.594   1.597 -1.3711  0.9458 -1.2524
  856MOL0     H15524  12.238   4.632   1.606  2.4149  3.4376 -1.3672
  856MOL0     H15525  12.212   4.771   1.703  2.7239  1.0892 -0.3562
  856MOL0     H15526  12.446   4.768   1.641  0.7149 -0.0310  0.4163
  856MOL0     H15527  12.426   4.762   1.818  0.4555 -0.6037  0.0062
  856MOL0     H15528  12.450   4.511   1.804  1.8906 -1.4770 -1.0603
  856MOL0     H15529  12.493   4.521   1.637 -2.4887  1.1595 -0.9960
  856MOL0     H15530  12.700   4.530   1.786  0.9485  1.5455  0.5845
  856MOL0     H15531  12.648   4.686   1.845 -0.0898  0.2155  0.8741
  856MOL0     H15532  12.650   4.756   1.572 -0.5934 -0.2365  0.3029
  856MOL0     H15533  12.710   4.599   1.549  0.2387 -0.0310  0.7844
  856MOL0     H15534  12.852   4.819   1.718 -1.6605  0.8296 -0.1918
  856MOL0     H15535  12.910   4.645   1.681  0.4287  0.8933  0.6161
  856MOL0     H15536  12.860   4.867   1.486  0.6993 -0.5874 -2.8881
  856MOL0     H15537  12.942   4.708   1.451 -0.3391  0.2702  0.1226
  856MOL0     H15538  13.100   4.906   1.462  1.1043 -1.0091  0.1847
  856MOL0     H15539  13.046   4.926   1.633  0.1052  0.8291 -0.5310
  856MOL0     H15540  12.110   4.452   1.997 -1.7770  0.3025  1.5287
  856MOL0     H15541  11.861   4.374   2.001 -0.7802  0.8926 -0.5346
  856MOL0     H15542  11.490   4.224   1.844 -2.0187 -0.1210 -0.1168
  856MOL0     H15543  11.289   4.124   1.943 -1.5305  1.1565 -0.3119
  856MOL0     H15544   9.355   4.745   2.267  1.5604 -0.1433  0.4372
  856MOL0     H15545   9.116   4.734   2.192 -2.1322 -1.2258  0.6088
  856MOL0     H15546   8.842   4.389   1.752 -2.2315 -1.0676  0.1411
  856MOL0     H15547   8.616   4.424   1.669 -0.6361  0.7838 -0.3418
  856MOL0     H15548   8.370   4.556   1.827  2.7031 -3.5412  0.1790
  856MOL0     H15549   8.369   4.479   1.673 -1.7402  0.6326  0.4911
  856MOL0     H15550   8.290   4.698   1.576 -1.5496  0.6384 -0.4949
  856MOL0     H15551   8.243   4.742   1.745 -0.4128  0.6115 -1.4509
  856MOL0     H15552   8.163   4.478   1.625  1.5065  0.7973  1.3122
  856MOL0     H15553   8.083   4.614   1.545 -0.2535  2.1134 -0.2971
  856MOL0     H15554   7.987   4.686   1.771  0.5387 -0.5444  0.0778
  856MOL0     H15555   7.938   4.522   1.731 -1.1793  0.9279  0.6731
  856MOL0     H15556   8.154   4.513   2.095  1.2695  2.7253  0.2218
  856MOL0     H15557   8.601   4.805   1.856 -0.6029  0.0788 -0.1783
  856MOL0     H15558   8.951   4.790   1.986  0.3222 -3.6800 -2.7021
  856MOL0     H15559   8.829   4.901   1.922 -1.9786  0.4519  1.1176
  856MOL0     H15560   8.794   4.804   2.072 -0.1138 -4.0832  0.2071
  857MOL0     O15561  10.505   0.069  10.328 -0.2441 -0.3281  0.4671
  857MOL0     C15562  10.472   0.106  10.439  0.3274 -0.0768 -0.1411
  857MOL0     O15563  10.540   0.191  10.524  0.3043 -0.2882 -0.6084
  857MOL0     C15564  10.635   0.269  10.463  0.4993  0.3553 -0.0437
  857MOL0     C15565  10.763   0.222  10.466 -0.9092  0.5139  0.4759
  857MOL0     C15566  10.878   0.297  10.415  0.3616 -0.7927  0.2372
  857MOL0     C15567  10.847   0.420  10.359  0.5064 -0.3594 -0.1132
  857MOL0     O15568  10.946   0.500  10.314  0.6124 -0.0490  0.8471
  857MOL0     C15569  10.931   0.638  10.262 -0.1669  0.2433  0.0881
  857MOL0     C15570  11.072   0.688  10.218 -0.0067 -0.2062 -0.7167
  857MOL0     C15571  11.127   0.622  10.090  0.4290 -0.3803  0.0333
  857MOL0     C15572  11.282   0.636  10.075 -0.3154  0.4344  0.2474
  857MOL0     C15573  11.320   0.613   9.921  0.5299  0.3424  0.0368
  857MOL0     C15574  11.297   0.727   9.827 -0.1976  0.0429  0.1350
  857MOL0     C15575  11.397   0.833   9.846 -0.4523  0.3346  0.6534
  857MOL0     C15576  11.396   0.922   9.718 -0.9786  0.1892  0.4920
  857MOL0     N15577  11.485   0.860   9.616 -0.5522  0.2653 -0.0155
  857MOL0     C15578  11.608   0.798   9.645  0.0251  0.0296 -0.0735
  857MOL0     C15579  11.652   0.745   9.533 -0.6493  0.1196 -0.4886
  857MOL0     C15580  11.789   0.692   9.488 -0.2469 -0.9546  0.1955
  857MOL0     C15581  11.902   0.735   9.580 -0.5086 -0.3608 -0.6845
  857MOL0     C15582  12.037   0.672   9.561  0.1241  1.3044  0.3462
  857MOL0     C15583  12.064   0.620   9.415 -0.2054  0.7128  0.0965
  857MOL0     O15584  12.118   0.709   9.318  0.2340  0.3804  0.5378
  857MOL0     C15585  12.259   0.701   9.312 -0.1801 -0.5174 -0.0674
  857MOL0     C15586  12.327   0.609   9.235  0.2628 -0.2812  0.2598
  857MOL0     C15587  12.466   0.607   9.246  0.4435 -0.4676 -0.3304
  857MOL0     C15588  12.540   0.680   9.344  0.5161  0.4424 -0.0781
  857MOL0     C15589  12.681   0.651   9.362  0.0025  0.4215  0.1433
  857MOL0     O15590  12.742   0.701   9.471  0.2052 -0.1952  0.3409
  857MOL0     C15591  12.871   0.681   9.492  0.1030  0.1867  0.9331
  857MOL0     C15592  12.961   0.771   9.457 -0.0392  0.8857 -0.0425
  857MOL0     C15593  13.098   0.742   9.459  0.5590  0.8397  0.7118
  857MOL0     C15594  13.138   0.618   9.510  0.0392  0.0693  0.8910
  857MOL0     O15595  13.256   0.580   9.558 -0.1096  0.1976 -0.7874
  857MOL0     C15596  13.366   0.625   9.476  0.1421  0.7516 -0.1686
  857MOL0     C15597  13.497   0.564   9.510  0.5903 -0.0024 -0.3866
  857MOL0     C15598  13.615   0.648   9.472  0.9039 -0.8051 -0.2776
  857MOL0     C15599  13.733   0.604   9.550  0.0429 -0.8296  0.4533
  857MOL0     C15600  13.874   0.665   9.508  0.3414  0.4796 -0.3044
  857MOL0     C15601  13.887   0.814   9.479  0.5984 -0.5711 -0.5537
  857MOL0     C15602  14.002   0.858   9.382  0.5705  0.5243 -0.2747
  857MOL0     C15603  14.128   0.798   9.422 -0.2781  0.1458 -0.2936
  857MOL0    Cl15604  14.253   0.897   9.346 -0.6281 -0.0634 -0.1525
  857MOL0     C15605  13.041   0.531   9.545 -0.2965 -0.4068  0.5878
  857MOL0     C15606  12.904   0.551   9.534  0.7819 -0.4979  0.6488
  857MOL0     O15607  12.741   0.576   9.280  0.4570  0.9534 -0.3278
  857MOL0     C15608  12.465   0.775   9.414 -0.0891 -0.1088 -0.7010
  857MOL0     C15609  12.329   0.771   9.409  0.3080 -0.2624  1.3418
  857MOL0     N15610  11.551   0.759   9.440 -0.4063  0.0722  0.3948
  857MOL0     N15611  11.458   0.825   9.489  1.0834  0.1176  0.2513
  857MOL0     C15612  10.716   0.472  10.354  0.7073  0.7506 -0.4116
  857MOL0     C15613  10.612   0.391  10.405  0.1726 -0.2571 -1.1623
  857MOL0     C15614  10.359   0.036  10.511  0.2348 -0.6301 -0.2461
  857MOL0     C15615  10.305   0.105  10.629 -0.2036  0.6605 -0.2988
  857MOL0     C15616  10.190   0.052  10.693  0.1134  0.2315 -0.7824
  857MOL0     C15617  10.138  -0.073  10.661 -0.7681 -0.1327  0.2190
  857MOL0     O15618  10.037  -0.123  10.736 -0.3078 -0.1303 -0.0510
  857MOL0     C15619   9.975  -0.246  10.708  0.1484  0.5225 -0.6300
  857MOL0     C15620   9.840  -0.255  10.762  0.0549 -0.0616 -0.4193
  857MOL0     C15621   9.742  -0.128  10.746  0.4200  0.1056 -0.8982
  857MOL0     C15622   9.724  -0.077  10.608  0.4532  0.2031 -0.5078
  857MOL0     C15623   9.687  -0.191  10.532  0.3213 -0.0136  1.4092
  857MOL0     C15624   9.677  -0.290  10.458  1.0259 -0.0277  0.6209
  857MOL0     C15625  10.200  -0.147  10.562  0.7067  0.0632  0.1037
  857MOL0     C15626  10.311  -0.098  10.487  0.6506  0.3691 -0.1980
  857MOL0     C15627  10.368  -0.189  10.378  0.2740  0.3260 -0.0384
  857MOL0     H15628  10.779   0.119  10.497 -0.5409 -0.0168 -1.3471
  857MOL0     H15629  10.983   0.272  10.430  0.7231  0.8215  0.5262
  857MOL0     H15630  10.861   0.644  10.178 -0.5018  0.8072  0.4002
  857MOL0     H15631  10.891   0.710  10.334  0.2713  0.2350  0.3433
  857MOL0     H15632  11.131   0.676  10.310 -1.3956  0.7935  0.3629
  857MOL0     H15633  11.074   0.797  10.212 -1.0555 -0.0765  0.7380
  857MOL0     H15634  11.064   0.670  10.015  0.5678  1.6431  1.1399
  857MOL0     H15635  11.096   0.518  10.101 -3.6753  0.8671  2.5092
  857MOL0     H15636  11.316   0.735  10.108  0.8199  0.6598 -1.4390
  857MOL0     H15637  11.336   0.575  10.148 -2.6081  2.2984  3.8086
  857MOL0     H15638  11.428   0.600   9.928  0.7915  1.5899 -1.1863
  857MOL0     H15639  11.278   0.518   9.886 -0.8683  0.2605  1.8053
  857MOL0     H15640  11.315   0.682   9.729 -0.6504  1.1223 -0.4552
  857MOL0     H15641  11.194   0.763   9.837  0.4837  2.0864  0.3914
  857MOL0     H15642  11.496   0.798   9.877 -0.5465 -0.0422  0.5355
  857MOL0     H15643  11.371   0.900   9.929 -1.2442 -0.2407  0.8874
  857MOL0     H15644  11.295   0.925   9.677 -0.7744 -1.8533 -0.3072
  857MOL0     H15645  11.429   1.025   9.732  1.4280  0.0160 -2.7535
  857MOL0     H15646  11.662   0.816   9.738  1.5435 -1.7555 -0.5470
  857MOL0     H15647  11.794   0.583   9.494  2.7043 -0.8203  1.2453
  857MOL0     H15648  11.807   0.726   9.386 -0.6857  0.0601  0.4495
  857MOL0     H15649  11.917   0.842   9.565  3.9395 -0.5324  0.9456
  857MOL0     H15650  11.875   0.716   9.684  1.2383 -3.2553 -0.6343
  857MOL0     H15651  12.039   0.583   9.626 -0.4806  1.4533  0.5805
  857MOL0     H15652  12.101   0.748   9.607 -2.2867  1.5642  3.6145
  857MOL0     H15653  11.969   0.584   9.374 -0.2900  1.2555 -0.1955
  857MOL0     H15654  12.129   0.532   9.416  0.7308  1.3490 -1.6130
  857MOL0     H15655  12.273   0.548   9.163  1.1421  1.2239 -1.7474
  857MOL0     H15656  12.507   0.537   9.174 -0.5235 -0.4509 -0.9192
  857MOL0     H15657  12.932   0.869   9.421  0.6150  1.8207  1.8681
  857MOL0     H15658  13.160   0.826   9.434  0.9489  0.1388 -0.7520
  857MOL0     H15659  13.328   0.617   9.373 -2.7577 -1.7421  0.9184
  857MOL0     H15660  13.375   0.732   9.497  0.5498  0.7388 -0.2777
  857MOL0     H15661  13.502   0.539   9.617 -1.2962 -0.5319 -0.3838
  857MOL0     H15662  13.494   0.464   9.465 -3.4759 -0.2795  0.1389
  857MOL0     H15663  13.645   0.638   9.367  1.8518  0.7384 -0.1846
  857MOL0     H15664  13.597   0.752   9.500 -1.5102 -1.2152 -0.0507
  857MOL0     H15665  13.756   0.497   9.550  2.9456 -0.2853  0.8578
  857MOL0     H15666  13.720   0.634   9.654 -4.2513 -0.5083  0.0298
  857MOL0     H15667  13.885   0.621   9.409 -3.6200 -0.2869 -0.5722
  857MOL0     H15668  13.951   0.632   9.578 -0.6763 -1.4107 -0.0270
  857MOL0     H15669  13.797   0.863   9.442  0.3643 -1.3420 -1.0203
  857MOL0     H15670  13.901   0.854   9.580 -1.9620 -1.6370  0.2847
  857MOL0     H15671  14.009   0.967   9.389 -2.3147  0.8902 -1.6929
  857MOL0     H15672  13.976   0.831   9.279 -1.4017  0.7953  0.1193
  857MOL0     H15673  14.135   0.815   9.530 -0.1447 -0.7769 -0.1500
  857MOL0     H15674  14.133   0.691   9.400  1.1546 -0.1497  1.2821
  857MOL0     H15675  13.064   0.441   9.602 -1.6197  0.3842  2.4650
  857MOL0     H15676  12.823   0.481   9.551  0.3180 -0.6175 -1.6794
  857MOL0     H15677  12.517   0.840   9.484 -0.9098  1.0502 -1.1500
  857MOL0     H15678  12.271   0.834   9.475  3.0050  2.8787  0.9644
  857MOL0     H15679  10.686   0.555  10.290 -1.4557 -0.7750 -1.5077
  857MOL0     H15680  10.506   0.414  10.411  0.5825  1.5226  3.1096
  857MOL0     H15681  10.333   0.202  10.670  0.7160  0.5102 -0.5432
  857MOL0     H15682  10.153   0.092  10.787 -0.6331 -2.0237 -0.0588
  857MOL0     H15683  10.029  -0.328  10.757 -0.5408  1.7801  2.4648
  857MOL0     H15684   9.961  -0.263  10.601 -2.0789 -2.1854 -0.0276
  857MOL0     H15685   9.849  -0.280  10.868 -0.3088 -2.4221 -0.8774
  857MOL0     H15686   9.784  -0.338  10.720  1.5010 -0.8776 -0.8010
  857MOL0     H15687   9.777  -0.056  10.821 -2.9910  0.0035  0.9471
  857MOL0     H15688   9.649  -0.162  10.790  1.4043 -1.2427  0.2320
  857MOL0     H15689   9.634  -0.015  10.605 -1.0458 -1.7970  0.5477
  857MOL0     H15690   9.815  -0.025  10.579  0.5000  0.2551 -0.2770
  857MOL0     H15691   9.670  -0.373  10.392 -2.0268  0.7313 -0.1700
  857MOL0     H15692  10.172  -0.249  10.537 -2.7469  0.4015  1.9622
  857MOL0     H15693  10.477  -0.191  10.387  0.6651 -0.7927 -3.6126
  857MOL0     H15694  10.318  -0.286  10.374 -0.8746  0.8728  0.5263
  857MOL0     H15695  10.360  -0.137  10.282 -2.6423  0.2557  0.0748
  858MOL0     O15696   1.005   5.496   4.854  0.3394  0.7026  0.0969
  858MOL0     C15697   0.956   5.406   4.924  0.3983 -0.9947  0.0045
  858MOL0     O15698   1.029   5.312   4.985  1.1991 -0.0350 -0.0208
  858MOL0     C15699   1.163   5.321   4.963 -0.3341 -0.7372 -0.3972
  858MOL0     C15700   1.238   5.405   5.034  0.1663  0.0591 -0.2026
  858MOL0     C15701   1.374   5.413   5.013 -0.0188  0.2259  0.0398
  858MOL0     C15702   1.435   5.335   4.910 -0.1053  0.4889  0.1955
  858MOL0     O15703   1.572   5.353   4.897 -0.0964  0.4955  0.5318
  858MOL0     C15704   1.633   5.307   4.775 -0.0700  0.8235 -0.0091
  858MOL0     C15705   1.790   5.315   4.790  0.3108 -0.1156  0.0665
  858MOL0     C15706   1.863   5.302   4.651  1.4083 -0.0199 -0.6205
  858MOL0     C15707   2.014   5.315   4.659  1.1088  0.5551  0.2641
  858MOL0     C15708   2.082   5.292   4.518  0.4053  1.1325 -0.1814
  858MOL0     C15709   2.235   5.271   4.523  0.2746 -1.1117 -0.0910
  858MOL0     C15710   2.295   5.299   4.387 -1.0897 -0.0732  0.5595
  858MOL0     C15711   2.439   5.239   4.377  0.2933  0.1633  0.3191
  858MOL0     N15712   2.499   5.307   4.259 -0.3000  0.0957  0.3387
  858MOL0     C15713   2.618   5.372   4.235 -0.2986 -0.3472  0.0466
  858MOL0     C15714   2.640   5.378   4.103 -0.6466 -0.2273 -0.6563
  858MOL0     C15715   2.767   5.420   4.035  0.3395  0.3488 -0.5042
  858MOL0     C15716   2.760   5.559   3.966  0.3077  0.3242  0.0720
  858MOL0     C15717   2.905   5.598   3.910  0.8890 -0.4532 -0.4506
  858MOL0     C15718   2.984   5.523   3.804  0.4431 -0.2106 -0.3937
  858MOL0     O15719   2.925   5.526   3.669  0.1217  0.3769  0.1490
  858MOL0     C15720   3.000   5.466   3.569  0.2895 -0.8880 -0.0332
  858MOL0     C15721   3.109   5.378   3.576  0.6106  0.1210 -0.2514
  858MOL0     C15722   3.184   5.338   3.465 -0.8032  0.1400 -0.8585
  858MOL0     C15723   3.135   5.383   3.343 -0.2921 -0.3250  0.9062
  858MOL0     C15724   3.190   5.326   3.217 -0.3373 -0.2764 -0.4110
  858MOL0     O15725   3.306   5.267   3.233 -1.0207  0.3398 -0.0191
  858MOL0     C15726   3.376   5.191   3.135 -0.5902  0.3206 -0.2944
  858MOL0     C15727   3.491   5.144   3.190  0.1697  0.1656  0.5136
  858MOL0     C15728   3.579   5.071   3.113  0.3808  0.3135 -0.1642
  858MOL0     C15729   3.548   5.026   2.987 -0.1516 -1.3467  1.2501
  858MOL0     O15730   3.630   4.941   2.914  0.4532 -0.2385 -0.7100
  858MOL0     C15731   3.757   4.917   2.958  0.6750 -0.1660 -0.5249
  858MOL0     C15732   3.821   4.831   2.846  0.2172 -0.4645 -0.3172
  858MOL0     C15733   3.773   4.683   2.865  0.7743 -0.2334 -0.5285
  858MOL0     C15734   3.772   4.603   2.741 -0.3559  0.6282 -0.4360
  858MOL0     C15735   3.914   4.585   2.699  0.0636 -0.2482 -0.8922
  858MOL0     C15736   3.917   4.486   2.582 -0.1564 -0.2648 -0.4875
  858MOL0     C15737   4.054   4.445   2.517  0.0711  0.6827 -0.3471
  858MOL0     C15738   4.145   4.353   2.602 -0.3442 -0.1271 -0.6010
  858MOL0    Cl15739   4.279   4.302   2.500  0.2389  0.0209  0.1230
  858MOL0     C15740   3.427   5.078   2.927 -0.5101 -0.3013  0.0847
  858MOL0     C15741   3.346   5.166   3.003  0.1692  0.1269  0.0276
  858MOL0     O15742   3.122   5.335   3.108 -0.6089 -0.0878 -0.5775
  858MOL0     C15743   3.025   5.472   3.333 -0.1942 -0.2386 -0.3307
  858MOL0     C15744   2.961   5.517   3.448  0.4116  0.1708  0.2105
  858MOL0     N15745   2.529   5.321   4.047 -0.1869 -0.7368 -0.0918
  858MOL0     N15746   2.452   5.281   4.132 -0.5709  0.0620 -0.3044
  858MOL0     C15747   1.351   5.259   4.824 -0.2639 -0.0013 -0.5734
  858MOL0     C15748   1.220   5.255   4.857 -0.8714 -0.1158 -0.7814
  858MOL0     C15749   0.814   5.405   4.946  0.1950 -0.2283 -0.9516
  858MOL0     C15750   0.738   5.525   4.973  0.1681  0.0082 -0.0074
  858MOL0     C15751   0.596   5.514   4.981 -0.4570 -0.5252 -0.5581
  858MOL0     C15752   0.533   5.395   4.982 -0.6702 -0.2930 -0.6160
  858MOL0     O15753   0.398   5.370   5.001 -0.8613  1.0296  0.1460
  858MOL0     C15754   0.299   5.473   4.983 -0.4703  0.7744  0.2541
  858MOL0     C15755   0.165   5.424   5.032 -0.1422 -0.1348 -0.2214
  858MOL0     C15756   0.054   5.536   5.000 -0.6161 -0.0092 -0.1745
  858MOL0     C15757   0.033   5.643   5.107 -0.0333  0.5760 -0.6651
  858MOL0     C15758   0.153   5.731   5.127  0.2229 -0.7542  0.1674
  858MOL0     C15759   0.247   5.811   5.147 -0.6987 -0.1940  0.5480
  858MOL0     C15760   0.605   5.283   4.953 -0.0326 -0.7242  0.6546
  858MOL0     C15761   0.745   5.284   4.932 -0.2342 -0.8700  0.4039
  858MOL0     C15762   0.812   5.168   4.858  0.2315  0.4059  0.0321
  858MOL0     H15763   1.202   5.468   5.115  3.0008  1.7148 -0.0970
  858MOL0     H15764   1.443   5.470   5.075  0.4317  0.2826 -0.5083
  858MOL0     H15765   1.608   5.201   4.768  1.8336  0.3814 -0.7930
  858MOL0     H15766   1.596   5.364   4.690 -1.5602  0.5833  0.4512
  858MOL0     H15767   1.835   5.236   4.851 -0.9137  0.1240  1.3153
  858MOL0     H15768   1.810   5.410   4.840 -1.2055  1.6272 -2.3803
  858MOL0     H15769   1.824   5.376   4.579  0.2980  0.4661  0.4472
  858MOL0     H15770   1.822   5.206   4.619 -1.3788  0.0539  2.2228
  858MOL0     H15771   2.022   5.416   4.700  1.8161  1.3574 -1.7193
  858MOL0     H15772   2.058   5.254   4.738  1.2521  0.2890 -0.0176
  858MOL0     H15773   2.028   5.219   4.457  1.0082  0.3688  0.1927
  858MOL0     H15774   2.070   5.386   4.462  2.3988  0.4552 -1.8879
  858MOL0     H15775   2.282   5.344   4.589  2.0044 -2.7526  0.5920
  858MOL0     H15776   2.261   5.171   4.559  2.8657 -0.9697 -1.3729
  858MOL0     H15777   2.291   5.403   4.353  0.7480 -0.9278 -2.7386
  858MOL0     H15778   2.243   5.241   4.309  2.5313  0.0497 -2.2481
  858MOL0     H15779   2.489   5.271   4.468 -2.3512 -1.7932  2.6418
  858MOL0     H15780   2.441   5.131   4.362  5.0661  0.3498 -2.7695
  858MOL0     H15781   2.686   5.390   4.318  0.8630 -2.1822 -0.4403
  858MOL0     H15782   2.844   5.421   4.112 -1.5810 -2.5730  1.7067
  858MOL0     H15783   2.796   5.337   3.970  0.7575 -0.6790  0.9241
  858MOL0     H15784   2.690   5.556   3.883  1.5472 -0.9269 -0.9736
  858MOL0     H15785   2.726   5.634   4.039 -1.8496  0.6188 -1.1549
  858MOL0     H15786   2.960   5.599   4.005 -0.7929  0.8832  0.5602
  858MOL0     H15787   2.892   5.703   3.881 -5.0320 -0.8564 -0.4150
  858MOL0     H15788   2.986   5.417   3.831  0.1857 -0.1762 -0.2399
  858MOL0     H15789   3.086   5.562   3.811  0.4839 -0.6191  1.9518
  858MOL0     H15790   3.131   5.331   3.671  0.4669 -1.1836 -0.8392
  858MOL0     H15791   3.268   5.269   3.473 -0.9941 -0.0447 -0.3876
  858MOL0     H15792   3.529   5.172   3.288  3.2463  1.3613 -0.9100
  858MOL0     H15793   3.672   5.052   3.166 -0.9105  1.3018  2.6910
  858MOL0     H15794   3.813   5.010   2.969 -1.4919  1.3589 -1.7033
  858MOL0     H15795   3.745   4.862   3.052  1.5305  0.9612  0.2705
  858MOL0     H15796   3.804   4.879   2.749  0.9412 -0.8906 -0.6668
  858MOL0     H15797   3.930   4.828   2.853  0.3782  3.0879  0.6858
  858MOL0     H15798   3.837   4.640   2.942  0.0202 -0.5016 -0.0373
  858MOL0     H15799   3.669   4.677   2.900  0.3411 -1.4398 -1.9146
  858MOL0     H15800   3.713   4.648   2.660 -0.6346  1.8991  0.4500
  858MOL0     H15801   3.725   4.507   2.765  0.3095  0.9403  2.3574
  858MOL0     H15802   3.969   4.538   2.781 -0.0482  0.4080 -0.4381
  858MOL0     H15803   3.965   4.678   2.671  0.8901 -0.3420  0.2173
  858MOL0     H15804   3.865   4.395   2.614 -0.7010 -0.5735 -2.1750
  858MOL0     H15805   3.859   4.536   2.504 -0.1179  1.2808  0.4368
  858MOL0     H15806   4.123   4.528   2.498  1.3617 -0.0267  1.0217
  858MOL0     H15807   4.039   4.396   2.421  1.2903 -0.2179 -0.1047
  858MOL0     H15808   4.186   4.410   2.686 -0.9006  1.0206 -1.0785
  858MOL0     H15809   4.081   4.267   2.627 -0.0465 -0.2687 -0.3267
  858MOL0     H15810   3.424   5.052   2.822  0.7743  0.7123 -0.2412
  858MOL0     H15811   3.257   5.206   2.957 -0.5297 -1.8269 -0.4074
  858MOL0     H15812   2.998   5.528   3.244 -1.8047  0.4302  0.5327
  858MOL0     H15813   2.886   5.595   3.438 -1.0978 -1.0976  1.2413
  858MOL0     H15814   1.382   5.201   4.738 -0.8397 -0.6041 -0.3879
  858MOL0     H15815   1.146   5.204   4.796  0.0146 -1.9893 -0.3578
  858MOL0     H15816   0.795   5.617   4.980  1.3795 -0.7865  1.2368
  858MOL0     H15817   0.544   5.604   5.011  0.9028 -0.5696  2.3210
  858MOL0     H15818   0.289   5.499   4.877 -0.0318  0.1440  0.0504
  858MOL0     H15819   0.331   5.554   5.049  0.7790 -1.2398  2.2574
  858MOL0     H15820   0.169   5.400   5.139 -0.8607  1.0756  0.0936
  858MOL0     H15821   0.144   5.329   4.981  0.8537 -0.0234 -0.8493
  858MOL0     H15822  -0.041   5.482   4.999 -1.6750  1.4601  3.6165
  858MOL0     H15823   0.078   5.585   4.905 -1.0369 -1.5505 -1.1155
  858MOL0     H15824  -0.047   5.701   5.059 -1.0241 -0.8920 -0.8523
  858MOL0     H15825  -0.003   5.613   5.205  0.2801  1.5116 -0.2542
  858MOL0     H15826   0.329   5.875   5.172 -2.2540  1.3716  1.9058
  858MOL0     H15827   0.553   5.189   4.935  0.6070 -0.9455 -0.0680
  858MOL0     H15828   0.877   5.103   4.917  1.1754  0.7427 -0.6127
  858MOL0     H15829   0.729   5.099   4.840  0.0453  0.5855  0.1984
  858MOL0     H15830   0.848   5.201   4.760 -2.3225 -1.1267 -1.5397
  859MOL0     O15831   6.349   6.065  11.142 -0.0244  0.2605 -0.6154
  859MOL0     C15832   6.348   6.117  11.035  0.2586 -0.7075  0.2466
  859MOL0     O15833   6.459   6.178  10.980 -0.8984 -0.2893 -0.5500
  859MOL0     C15834   6.592   6.162  11.021 -0.2961 -0.8437  0.7700
  859MOL0     C15835   6.641   6.070  11.111 -0.0404  0.0196 -0.4637
  859MOL0     C15836   6.770   6.067  11.148  0.4124  0.7195  0.5680
  859MOL0     C15837   6.866   6.160  11.098  0.1124  0.1672  0.3540
  859MOL0     O15838   7.002   6.158  11.125  0.9859 -0.2662  0.0606
  859MOL0     C15839   7.027   6.122  11.259 -0.6973 -0.8948  0.1740
  859MOL0     C15840   7.182   6.130  11.288  0.0668  0.9301  0.0105
  859MOL0     C15841   7.243   5.981  11.282  0.7380  0.5136 -0.1812
  859MOL0     C15842   7.388   6.003  11.313  0.2423  0.7366  0.3408
  859MOL0     C15843   7.475   5.877  11.296  0.5933  0.4749  0.1100
  859MOL0     C15844   7.624   5.906  11.296 -0.8251  0.3474  0.6533
  859MOL0     C15845   7.706   5.775  11.301  0.2608 -0.1727 -0.5426
  859MOL0     C15846   7.726   5.704  11.166  0.0369 -0.2671  0.1707
  859MOL0     N15847   7.839   5.609  11.190 -0.3027  0.0118  0.5281
  859MOL0     C15848   7.835   5.505  11.273 -0.3929  0.0803  0.5430
  859MOL0     C15849   7.935   5.422  11.231  0.1086  0.4773 -0.6500
  859MOL0     C15850   7.963   5.276  11.280 -0.1252 -0.4104 -0.1251
  859MOL0     C15851   8.001   5.277  11.429  0.2224  0.2403 -0.0369
  859MOL0     C15852   8.141   5.335  11.428 -0.5405 -0.6779 -0.8109
  859MOL0     C15853   8.194   5.342  11.567 -0.2056 -0.5314 -0.1751
  859MOL0     O15854   8.329   5.372  11.573  0.3156 -0.8511 -0.4674
  859MOL0     C15855   8.381   5.415  11.695 -0.3961  0.6874 -0.8432
  859MOL0     C15856   8.305   5.461  11.806 -0.0284 -0.3491 -0.6289
  859MOL0     C15857   8.375   5.498  11.923 -0.0151 -0.7934  0.5085
  859MOL0     C15858   8.515   5.489  11.932  0.8029 -0.2079 -0.2439
  859MOL0     C15859   8.591   5.515  12.057 -0.0107 -0.6203 -0.4549
  859MOL0     O15860   8.722   5.487  12.061 -0.6630 -0.0869 -0.0773
  859MOL0     C15861   8.813   5.487  12.173  0.4100 -0.0569  0.6148
  859MOL0     C15862   8.929   5.406  12.167  0.4919 -0.8603  0.7946
  859MOL0     C15863   9.021   5.411  12.277  0.3736  0.7236  0.5266
  859MOL0     C15864   9.003   5.493  12.386  0.7840 -0.9270  0.1083
  859MOL0     O15865   9.099   5.503  12.477 -0.3152 -0.3176 -0.1663
  859MOL0     C15866   9.064   5.538  12.607  0.4777  0.4964 -0.4058
  859MOL0     C15867   9.173   5.550  12.707 -0.2508 -0.0272 -0.5046
  859MOL0     C15868   9.244   5.417  12.729  0.8837 -0.1027  0.7748
  859MOL0     C15869   9.328   5.411  12.859  0.0665  0.1743 -0.1633
  859MOL0     C15870   9.408   5.283  12.873  0.5734  0.3167 -0.5163
  859MOL0     C15871   9.473   5.277  13.014  0.4476 -1.0696 -0.2225
  859MOL0     C15872   9.550   5.156  13.037 -0.8743  0.5810  0.2890
  859MOL0     C15873   9.603   5.149  13.179  0.1025 -0.3222 -0.4669
  859MOL0    Cl15874   9.668   4.982  13.204  0.1738  0.0941 -0.4735
  859MOL0     C15875   8.888   5.576  12.384 -0.2422 -0.0443 -0.1632
  859MOL0     C15876   8.798   5.572  12.278  0.3832  0.1980 -0.6919
  859MOL0     O15877   8.526   5.557  12.158  0.0548 -0.1499 -0.1990
  859MOL0     C15878   8.589   5.451  11.818  0.2980  0.7435  0.9343
  859MOL0     C15879   8.520   5.409  11.707 -1.3296 -0.0054  0.0365
  859MOL0     N15880   8.010   5.488  11.138 -0.5141 -0.1519 -0.2394
  859MOL0     N15881   7.950   5.593  11.103 -0.2084 -0.2155 -0.1313
  859MOL0     C15882   6.822   6.256  11.002  0.2309  0.2050  0.0884
  859MOL0     C15883   6.685   6.259  10.978  0.1219  0.7300  0.6913
  859MOL0     C15884   6.229   6.089  10.950 -0.0027 -0.2190 -0.0129
  859MOL0     C15885   6.141   5.977  10.972  0.4129 -0.3259  0.3092
  859MOL0     C15886   6.035   5.950  10.881 -0.0304  0.7160  0.2054
  859MOL0     C15887   6.015   6.029  10.773  0.2760  0.5398  0.3923
  859MOL0     O15888   5.915   6.012  10.675 -0.2357 -0.4679 -0.1720
  859MOL0     C15889   5.857   5.885  10.653 -0.5253 -0.2969 -0.1514
  859MOL0     C15890   5.804   5.880  10.510 -0.1986 -0.2462 -0.0889
  859MOL0     C15891   5.898   5.938  10.411 -0.0591 -0.3800 -0.3651
  859MOL0     C15892   5.830   5.918  10.275 -0.9454 -0.1506  0.0636
  859MOL0     C15893   5.848   5.780  10.230  0.4455  0.2477  0.4128
  859MOL0     C15894   5.871   5.672  10.177 -0.0693  0.4220 -0.7253
  859MOL0     C15895   6.095   6.136  10.751  0.1504  0.0969 -0.1468
  859MOL0     C15896   6.192   6.171  10.834 -0.6697 -0.5754 -0.5609
  859MOL0     C15897   6.280   6.294  10.798  1.6035 -0.0223 -0.1146
  859MOL0     H15898   6.581   5.995  11.162 -0.4883  0.3555 -0.4823
  859MOL0     H15899   6.797   5.982  11.210 -2.9287 -0.7483  0.2373
  859MOL0     H15900   6.973   6.186  11.330 -1.7763  0.7602 -2.0257
  859MOL0     H15901   6.998   6.017  11.266  2.5366 -1.9685 -0.6464
  859MOL0     H15902   7.200   6.179  11.384  2.9300  0.4500 -0.1939
  859MOL0     H15903   7.237   6.180  11.208  1.2394 -2.2199 -1.2951
  859MOL0     H15904   7.245   5.940  11.181 -1.6786  0.8932 -0.4531
  859MOL0     H15905   7.189   5.912  11.349  0.3851 -0.1561 -1.1383
  859MOL0     H15906   7.425   6.069  11.234 -1.0993 -0.2657 -1.2046
  859MOL0     H15907   7.412   6.038  11.413 -1.9685  0.0930  1.1687
  859MOL0     H15908   7.450   5.823  11.388  0.9941  0.6112  0.3033
  859MOL0     H15909   7.445   5.803  11.221  2.4559  0.6081 -0.8299
  859MOL0     H15910   7.644   5.963  11.204 -2.5345  0.9248  0.6158
  859MOL0     H15911   7.641   5.971  11.382  0.3995 -1.3895  1.7831
  859MOL0     H15912   7.661   5.701  11.368  1.9749 -1.4807 -0.7715
  859MOL0     H15913   7.810   5.794  11.330 -0.2059 -1.2580  2.1331
  859MOL0     H15914   7.634   5.653  11.137 -0.6448  1.8853 -1.7904
  859MOL0     H15915   7.749   5.779  11.090  1.0678 -0.2519  0.4853
  859MOL0     H15916   7.753   5.491  11.343 -2.1271 -0.6658 -1.5149
  859MOL0     H15917   7.871   5.218  11.274 -0.0917 -0.5847  0.9095
  859MOL0     H15918   8.042   5.233  11.217 -1.1196  3.4329 -4.5646
  859MOL0     H15919   7.928   5.328  11.492 -0.7166 -0.4005 -0.5826
  859MOL0     H15920   7.995   5.174  11.464 -2.2815  0.2220 -0.3585
  859MOL0     H15921   8.147   5.435  11.385  1.2276  0.0671  0.9687
  859MOL0     H15922   8.217   5.276  11.374  1.2183 -0.4337  1.2276
  859MOL0     H15923   8.179   5.245  11.615 -1.4992 -1.9078 -3.1084
  859MOL0     H15924   8.127   5.403  11.628 -0.4731 -1.0710  0.0710
  859MOL0     H15925   8.197   5.474  11.809 -0.2389  0.0234 -4.6884
  859MOL0     H15926   8.323   5.543  12.007 -1.3639  2.1201 -1.7007
  859MOL0     H15927   8.947   5.357  12.072 -0.3670  1.7028 -0.7833
  859MOL0     H15928   9.117   5.361  12.273  0.6053  1.1964 -0.0563
  859MOL0     H15929   9.015   5.636  12.605 -0.7005  0.1464  3.5394
  859MOL0     H15930   8.991   5.465  12.641 -1.0741  1.4695 -1.5294
  859MOL0     H15931   9.245   5.629  12.688  0.1528 -0.3583 -0.3718
  859MOL0     H15932   9.125   5.569  12.804 -1.1002 -0.5921 -0.7971
  859MOL0     H15933   9.170   5.338  12.719  1.1591 -0.6520  2.7112
  859MOL0     H15934   9.305   5.401  12.640  2.1971 -2.0525  1.9526
  859MOL0     H15935   9.262   5.421  12.945 -1.4523 -4.2128 -0.5631
  859MOL0     H15936   9.392   5.499  12.856  0.6832 -0.2035  1.2199
  859MOL0     H15937   9.488   5.286  12.799 -0.3429  1.2086 -1.5235
  859MOL0     H15938   9.343   5.196  12.864  1.5087 -0.4031 -0.3611
  859MOL0     H15939   9.532   5.368  13.031 -1.6436  0.4315 -0.5785
  859MOL0     H15940   9.388   5.275  13.083 -0.6752 -1.3820 -1.5777
  859MOL0     H15941   9.637   5.144  12.973 -0.5105  0.9450  0.7045
  859MOL0     H15942   9.488   5.070  13.011  0.9386 -0.9685  0.9385
  859MOL0     H15943   9.684   5.218  13.202 -1.8800  2.8012 -2.0503
  859MOL0     H15944   9.527   5.163  13.256  0.8856  0.6571  0.1497
  859MOL0     H15945   8.856   5.634  12.470 -0.0347  1.9621 -1.3983
  859MOL0     H15946   8.713   5.639  12.288 -0.3744 -1.1078  4.2221
  859MOL0     H15947   8.697   5.463  11.816  0.2760  0.9130  0.7558
  859MOL0     H15948   8.574   5.384  11.616  1.3911  1.2896  1.2031
  859MOL0     H15949   6.899   6.320  10.961 -0.4958 -0.6042 -2.7126
  859MOL0     H15950   6.645   6.328  10.905 -1.6443 -0.1509  0.7795
  859MOL0     H15951   6.161   5.904  11.050  0.7512  0.3137  0.8382
  859MOL0     H15952   5.972   5.863  10.897  2.1062 -1.4092 -2.0472
  859MOL0     H15953   5.778   5.877  10.727 -0.9622  0.2497 -0.5467
  859MOL0     H15954   5.922   5.804  10.685 -0.5645  0.8924  3.2660
  859MOL0     H15955   5.717   5.945  10.521  0.6057  1.1609 -1.6968
  859MOL0     H15956   5.781   5.776  10.483 -0.6041 -0.5756  1.4054
  859MOL0     H15957   5.999   5.897  10.414 -0.2624 -0.8541  0.1505
  859MOL0     H15958   5.909   6.047  10.419 -0.5306 -0.4660  2.1440
  859MOL0     H15959   5.725   5.948  10.265 -0.3498  1.3269 -4.7984
  859MOL0     H15960   5.878   5.985  10.202  0.6035 -0.0814  1.1110
  859MOL0     H15961   5.876   5.572  10.137 -0.6336  0.1269 -0.0700
  859MOL0     H15962   6.089   6.189  10.656 -1.5484  1.1711  0.5212
  859MOL0     H15963   6.221   6.353  10.729 -0.9144 -2.3320 -0.1223
  859MOL0     H15964   6.310   6.347  10.889  1.4143  0.2007 -0.1836
  859MOL0     H15965   6.370   6.265  10.744  2.1870  2.5375 -0.6263
  860MOL0     O15966   0.301   7.665  10.491 -0.0022  0.2265  0.7370
  860MOL0     C15967   0.257   7.767  10.546  0.3245 -0.8866 -0.2233
  860MOL0     O15968   0.325   7.835  10.642  0.8111 -0.3251  0.6308
  860MOL0     C15969   0.457   7.864  10.623 -0.9724  0.3568  0.1084
  860MOL0     C15970   0.550   7.837  10.719  0.7219 -0.9024 -0.2839
  860MOL0     C15971   0.682   7.838  10.692 -0.9331  0.7522  0.6668
  860MOL0     C15972   0.727   7.891  10.571  0.3945 -0.2109 -0.4399
  860MOL0     O15973   0.863   7.901  10.551  0.0072  0.0517  1.1805
  860MOL0     C15974   0.914   7.971  10.431 -0.6565  0.2997 -0.4691
  860MOL0     C15975   1.066   7.949  10.413  0.2109  0.7317 -0.5269
  860MOL0     C15976   1.116   8.050  10.322  0.0080  0.3092 -0.2740
  860MOL0     C15977   1.250   8.013  10.254  0.6262  0.2222 -0.7223
  860MOL0     C15978   1.365   7.977  10.344  0.6161  0.5733  0.0179
  860MOL0     C15979   1.491   7.999  10.262 -0.1820 -0.3539 -0.2806
  860MOL0     C15980   1.613   7.962  10.348  0.3150 -0.8273 -0.6178
  860MOL0     C15981   1.730   7.953  10.266  0.1427  0.5406  0.1772
  860MOL0     N15982   1.844   7.893  10.340  0.0489 -0.4174 -0.3010
  860MOL0     C15983   1.881   7.760  10.344  1.0285  0.9719  0.3563
  860MOL0     C15984   1.996   7.756  10.415  0.5375  0.0217 -0.4664
  860MOL0     C15985   2.076   7.636  10.457 -0.3685  0.3224 -0.2753
  860MOL0     C15986   2.055   7.504  10.378  0.1797  0.1711 -0.0792
  860MOL0     C15987   2.091   7.509  10.223 -1.0749  0.2818  0.0906
  860MOL0     C15988   2.238   7.478  10.197 -1.0314 -0.5168 -0.3664
  860MOL0     O15989   2.285   7.340  10.223 -0.3132 -0.0471 -0.8020
  860MOL0     C15990   2.409   7.321  10.274  0.1876  0.6285 -0.3988
  860MOL0     C15991   2.523   7.392  10.243  0.2856  0.1710 -0.5554
  860MOL0     C15992   2.646   7.364  10.298  0.1593 -0.1124 -0.0888
  860MOL0     C15993   2.663   7.261  10.391  0.6325  0.1946  1.6528
  860MOL0     C15994   2.796   7.241  10.457  0.2327  0.2840 -1.2071
  860MOL0     O15995   2.898   7.309  10.399  0.3669  0.2149 -0.1837
  860MOL0     C15996   3.024   7.307  10.448 -0.5240  0.2926  0.6557
  860MOL0     C15997   3.097   7.429  10.447  0.7125 -0.4330  1.2826
  860MOL0     C15998   3.236   7.437  10.480 -0.7600  0.7351  0.4990
  860MOL0     C15999   3.302   7.321  10.531 -0.2355 -0.5545  0.7334
  860MOL0     O16000   3.428   7.310  10.574 -0.3464  0.1585 -0.1326
  860MOL0     C16001   3.507   7.421  10.615  1.0141 -0.2207  0.6042
  860MOL0     C16002   3.659   7.390  10.611 -0.1993 -0.7441 -0.3357
  860MOL0     C16003   3.742   7.510  10.673 -0.1177  0.1959  0.4731
  860MOL0     C16004   3.888   7.491  10.661  0.0164  0.2576  0.2141
  860MOL0     C16005   3.929   7.511  10.513  0.4839  0.3712 -0.0681
  860MOL0     C16006   4.083   7.479  10.496  0.3368 -0.4515 -0.7534
  860MOL0     C16007   4.135   7.504  10.352  0.1251 -0.0394  0.0694
  860MOL0     C16008   4.115   7.649  10.308  0.4320 -0.2088  0.1242
  860MOL0    Cl16009   4.175   7.768  10.422 -0.3855  0.5057  0.1128
  860MOL0     C16010   3.227   7.205  10.545 -0.5256  0.0847  0.0768
  860MOL0     C16011   3.093   7.195  10.502  0.2584 -0.6258  0.1248
  860MOL0     O16012   2.801   7.160  10.548 -0.4437  0.0260 -0.6366
  860MOL0     C16013   2.552   7.190  10.427  0.1433  0.2728  0.3421
  860MOL0     C16014   2.427   7.213  10.361 -0.9327 -0.1412 -0.5321
  860MOL0     N16015   2.028   7.884  10.458  0.1978 -0.3850  0.1867
  860MOL0     N16016   1.934   7.962  10.408 -0.2119  0.1473 -0.2612
  860MOL0     C16017   0.637   7.928  10.476  0.7247  0.6020  0.1330
  860MOL0     C16018   0.502   7.916  10.497  0.5536  0.1048 -1.0839
  860MOL0     C16019   0.110   7.800  10.525 -0.0822 -0.2217  0.3696
  860MOL0     C16020   0.039   7.742  10.420 -0.6712  0.1309  0.8092
  860MOL0     C16021  -0.092   7.761  10.397  0.5572 -0.4309  0.3549
  860MOL0     C16022  -0.168   7.832  10.487  0.7449  0.4527  0.4420
  860MOL0     O16023  -0.306   7.852  10.467  0.3321 -0.3214  0.7606
  860MOL0     C16024  -0.340   7.911  10.340  1.1326 -0.0716 -0.1454
  860MOL0     C16025  -0.281   8.051  10.305 -0.2142 -0.6974 -0.1524
  860MOL0     C16026  -0.333   8.150  10.406  0.4499  0.2770 -0.6440
  860MOL0     C16027  -0.294   8.296  10.388  0.4514 -0.2625 -0.0280
  860MOL0     C16028  -0.371   8.382  10.480 -0.3627  0.1909 -0.5020
  860MOL0     C16029  -0.424   8.464  10.551 -0.3325  0.8330 -0.5724
  860MOL0     C16030  -0.113   7.877  10.601  0.1363  0.3061 -0.6292
  860MOL0     C16031   0.026   7.866  10.618 -0.8767  0.2500 -0.5502
  860MOL0     C16032   0.083   7.936  10.741  0.0276  0.2581  0.6761
  860MOL0     H16033   0.524   7.803  10.819  2.6756 -1.0554  0.2049
  860MOL0     H16034   0.761   7.817  10.764  2.0598  0.8910 -2.3540
  860MOL0     H16035   0.868   7.937  10.338  0.9874  2.3498 -2.1478
  860MOL0     H16036   0.892   8.078  10.436 -2.3106 -0.0708  1.2873
  860MOL0     H16037   1.094   7.847  10.386  0.0634 -0.6603  3.8596
  860MOL0     H16038   1.106   7.971  10.512 -2.6660 -0.9903  1.1812
  860MOL0     H16039   1.127   8.143  10.379 -1.6493 -0.7964  1.9891
  860MOL0     H16040   1.039   8.078  10.250  0.8968 -2.3026 -2.3951
  860MOL0     H16041   1.235   7.925  10.192  3.2962 -0.3829 -0.5977
  860MOL0     H16042   1.279   8.096  10.189 -2.8428 -0.0946 -2.9530
  860MOL0     H16043   1.360   8.037  10.436  0.9955 -1.8782  1.7495
  860MOL0     H16044   1.366   7.872  10.376  0.1123  0.8725  1.0527
  860MOL0     H16045   1.476   7.934  10.176 -1.7774 -1.4752  0.7917
  860MOL0     H16046   1.502   8.103  10.231  2.2920 -0.1494  1.0022
  860MOL0     H16047   1.605   7.858  10.382 -0.0435 -0.2748  1.0710
  860MOL0     H16048   1.609   8.037  10.427  1.0239  1.7643 -2.8811
  860MOL0     H16049   1.716   7.897  10.173  1.0786  2.5094 -1.2248
  860MOL0     H16050   1.766   8.054  10.243  1.0484  0.4192  0.9864
  860MOL0     H16051   1.839   7.670  10.300 -0.9893  0.7997  2.4736
  860MOL0     H16052   2.180   7.668  10.446  0.0206 -0.2443  1.5056
  860MOL0     H16053   2.063   7.615  10.563  1.2447  0.4187 -0.0376
  860MOL0     H16054   2.117   7.432  10.432 -1.3507 -0.0245  1.4915
  860MOL0     H16055   1.950   7.475  10.377 -0.0741  1.0596  0.2311
  860MOL0     H16056   2.061   7.599  10.170 -0.4348  0.0490 -0.6865
  860MOL0     H16057   2.034   7.428  10.178 -1.9633  1.8926 -1.8051
  860MOL0     H16058   2.306   7.546  10.248 -2.3102  0.9810 -0.5789
  860MOL0     H16059   2.266   7.493  10.092 -1.9288  1.4205 -0.3661
  860MOL0     H16060   2.510   7.470  10.168 -0.5163  0.4011 -0.1922
  860MOL0     H16061   2.734   7.419  10.267  0.3946 -0.1202  0.5394
  860MOL0     H16062   3.044   7.516  10.409  0.0795 -2.0895 -1.9602
  860MOL0     H16063   3.279   7.536  10.469 -1.5742  1.0183 -0.1918
  860MOL0     H16064   3.480   7.509  10.556 -0.5325 -0.2211  1.2663
  860MOL0     H16065   3.490   7.444  10.721 -0.8290 -1.2382  0.5735
  860MOL0     H16066   3.683   7.308  10.679  0.1202  0.4937  1.0693
  860MOL0     H16067   3.683   7.374  10.505 -0.9211  1.9563 -0.9911
  860MOL0     H16068   3.706   7.604  10.631  0.1745  0.2897  0.4309
  860MOL0     H16069   3.713   7.513  10.778 -1.1170 -1.6941  0.2867
  860MOL0     H16070   3.927   7.398  10.703  1.6931  1.2282  0.8995
  860MOL0     H16071   3.933   7.570  10.723 -0.1065 -0.4371  1.2111
  860MOL0     H16072   3.902   7.608  10.471 -0.9491  0.8890  1.9073
  860MOL0     H16073   3.880   7.432  10.455 -2.0723  2.3532 -0.7927
  860MOL0     H16074   4.140   7.537  10.569 -1.4257 -3.7293  3.6407
  860MOL0     H16075   4.105   7.376  10.523 -1.1752 -0.8570 -0.9588
  860MOL0     H16076   4.105   7.427  10.281  5.1131 -4.5295  2.1645
  860MOL0     H16077   4.243   7.485  10.349  0.3446  0.6456  2.2144
  860MOL0     H16078   4.178   7.662  10.219 -0.3781  2.4227 -0.1586
  860MOL0     H16079   4.011   7.671  10.284 -0.0749 -2.3399  0.1597
  860MOL0     H16080   3.273   7.116  10.588  1.2301  0.6889 -0.4742
  860MOL0     H16081   3.051   7.095  10.507 -0.9480 -0.2382 -1.5213
  860MOL0     H16082   2.564   7.106  10.495  1.1188 -0.5231 -0.7507
  860MOL0     H16083   2.341   7.152  10.386  0.2262 -1.1964  1.0932
  860MOL0     H16084   0.662   7.964  10.376 -1.6594  0.0639 -0.7266
  860MOL0     H16085   0.415   7.929  10.433 -0.3733 -0.6763 -0.0342
  860MOL0     H16086   0.102   7.692  10.348 -1.5831 -0.4284  0.3942
  860MOL0     H16087  -0.131   7.734  10.299 -0.6694  1.0888  0.3856
  860MOL0     H16088  -0.448   7.931  10.344  0.8069 -1.7363  0.1906
  860MOL0     H16089  -0.303   7.845  10.261 -0.4540 -0.2666 -0.7740
  860MOL0     H16090  -0.314   8.087  10.207  3.1570 -0.5777 -1.3753
  860MOL0     H16091  -0.171   8.045  10.301 -0.2041  0.0071 -1.0259
  860MOL0     H16092  -0.309   8.106  10.503 -2.1123 -1.3430 -0.6300
  860MOL0     H16093  -0.442   8.145  10.394  0.0981  0.6439  1.9362
  860MOL0     H16094  -0.187   8.294  10.412  0.9870 -0.8554 -2.2595
  860MOL0     H16095  -0.307   8.330  10.285 -1.3327  0.7946  0.4896
  860MOL0     H16096  -0.457   8.542  10.617  2.5757  2.3362 -0.7332
  860MOL0     H16097  -0.169   7.936  10.672 -0.2985  0.5499 -1.1637
  860MOL0     H16098  -0.005   7.972  10.795 -0.8850 -0.8978  0.0203
  860MOL0     H16099   0.149   7.869  10.797  1.6102 -0.5866 -2.0204
  860MOL0     H16100   0.139   8.020  10.700 -1.0940  0.1133 -1.2735
  861MOL0     O16101   5.364   7.243   0.890  0.5113  0.0042 -0.2555
  861MOL0     C16102   5.340   7.175   0.788 -0.3445 -0.2719  0.1525
  861MOL0     O16103   5.435   7.116   0.709 -0.2682 -0.4650 -0.3026
  861MOL0     C16104   5.562   7.106   0.752  0.4035 -0.1890 -0.0209
  861MOL0     C16105   5.639   7.226   0.759  0.0841 -0.2238 -0.6827
  861MOL0     C16106   5.781   7.213   0.765 -0.0544  0.0149 -0.0518
  861MOL0     C16107   5.846   7.090   0.777  0.0343 -0.6389  0.4248
  861MOL0     O16108   5.976   7.073   0.800 -0.2126 -0.1622 -0.3484
  861MOL0     C16109   6.074   7.149   0.723  0.9995 -0.2817 -0.2951
  861MOL0     C16110   6.218   7.124   0.780  0.1074 -0.1125 -0.2749
  861MOL0     C16111   6.256   6.968   0.768 -0.3584 -0.5650 -1.1164
  861MOL0     C16112   6.396   6.969   0.827 -0.9719 -0.5301 -0.3354
  861MOL0     C16113   6.448   6.825   0.828 -0.1264  0.0339 -0.1296
  861MOL0     C16114   6.584   6.811   0.894 -0.8969  0.2738  0.2958
  861MOL0     C16115   6.610   6.887   1.023 -0.4920 -0.2020 -0.2010
  861MOL0     C16116   6.539   6.820   1.148 -0.2602  0.7248 -0.7595
  861MOL0     N16117   6.597   6.870   1.277 -0.0158 -0.0020  0.3009
  861MOL0     C16118   6.589   6.811   1.401 -0.1536 -0.7434 -0.4063
  861MOL0     C16119   6.672   6.882   1.484 -0.1497  0.0618  0.1417
  861MOL0     C16120   6.703   6.843   1.623 -0.4695  0.3552  1.0549
  861MOL0     C16121   6.856   6.807   1.637 -0.0171  0.5236 -0.3207
  861MOL0     C16122   6.896   6.781   1.780  0.2681 -0.1583 -0.1904
  861MOL0     C16123   7.040   6.721   1.777 -0.1740  0.1652  0.4527
  861MOL0     O16124   7.083   6.702   1.908  0.2086  0.0369 -0.6704
  861MOL0     C16125   7.201   6.646   1.946 -0.9130  0.4216  0.4312
  861MOL0     C16126   7.227   6.631   2.085 -0.7107 -0.4842  0.7315
  861MOL0     C16127   7.350   6.575   2.143 -0.7996 -1.0385  0.3701
  861MOL0     C16128   7.449   6.531   2.049 -0.0423  0.2265  0.3487
  861MOL0     C16129   7.579   6.469   2.089 -0.3612 -0.9179 -0.0280
  861MOL0     O16130   7.596   6.438   2.222  0.5679  0.5740  0.5629
  861MOL0     C16131   7.720   6.394   2.271  0.0208  0.6229  0.0729
  861MOL0     C16132   7.843   6.439   2.220  0.3125 -0.4943 -1.1354
  861MOL0     C16133   7.965   6.381   2.272  0.3726 -0.1152 -0.0282
  861MOL0     C16134   7.953   6.288   2.375 -0.0130  0.6726 -1.0045
  861MOL0     O16135   8.057   6.224   2.439 -0.1667  0.5405  0.4709
  861MOL0     C16136   8.189   6.242   2.390 -0.4237  0.1616 -0.7950
  861MOL0     C16137   8.284   6.181   2.487 -0.0969  0.9064 -0.6156
  861MOL0     C16138   8.427   6.243   2.465 -0.2958 -0.4402 -0.2606
  861MOL0     C16139   8.540   6.156   2.527 -0.9704  0.0299 -0.3347
  861MOL0     C16140   8.687   6.215   2.511 -0.3710 -0.8131  1.1408
  861MOL0     C16141   8.710   6.334   2.603 -1.2199  0.7514 -0.3385
  861MOL0     C16142   8.860   6.374   2.613  0.2645 -0.3342 -0.1703
  861MOL0     C16143   8.894   6.497   2.710 -0.9740  0.1883 -0.4687
  861MOL0    Cl16144   8.819   6.637   2.635 -0.0160  0.1272 -0.1306
  861MOL0     C16145   7.824   6.253   2.429  0.4100  0.3956  0.0521
  861MOL0     C16146   7.705   6.304   2.371 -0.4106 -0.1799 -0.9716
  861MOL0     O16147   7.660   6.443   2.003  0.1188  0.3179  0.0372
  861MOL0     C16148   7.420   6.540   1.910 -0.4985  0.4923 -0.3573
  861MOL0     C16149   7.302   6.592   1.859 -0.6354 -1.0031  0.1278
  861MOL0     N16150   6.721   6.986   1.415 -0.0802  0.3008  0.6378
  861MOL0     N16151   6.684   6.972   1.290  0.0143 -0.3115  0.3710
  861MOL0     C16152   5.766   6.976   0.784 -0.0790  0.2887 -0.1835
  861MOL0     C16153   5.624   6.984   0.754 -0.1547  0.1737  0.1328
  861MOL0     C16154   5.214   7.183   0.714 -0.2308  0.8525  0.8304
  861MOL0     C16155   5.221   7.197   0.581 -0.1250  0.0507  1.2714
  861MOL0     C16156   5.104   7.207   0.505  0.0741 -0.1968  0.3122
  861MOL0     C16157   4.976   7.211   0.564  0.3938 -1.2208  0.7859
  861MOL0     O16158   4.859   7.198   0.500  0.6598  0.1736  0.1796
  861MOL0     C16159   4.851   7.170   0.353 -0.1838  0.6496 -0.1445
  861MOL0     C16160   4.704   7.166   0.304 -0.4774 -0.3244 -0.7336
  861MOL0     C16161   4.634   7.055   0.383  0.9112  0.3599 -0.2336
  861MOL0     C16162   4.500   7.016   0.314 -0.1673  0.3639  0.5419
  861MOL0     C16163   4.416   6.930   0.403  0.2829  0.1261  0.5096
  861MOL0     C16164   4.351   6.863   0.479 -0.2709  0.6769 -0.4333
  861MOL0     C16165   4.969   7.208   0.704 -0.4149 -0.3259  0.0216
  861MOL0     C16166   5.088   7.184   0.774  0.5651 -0.7396 -0.2752
  861MOL0     C16167   5.065   7.174   0.922  0.1346 -0.8937 -0.7258
  861MOL0     H16168   5.587   7.321   0.748 -0.1030 -0.2904 -0.3993
  861MOL0     H16169   5.841   7.303   0.762 -0.8099  0.5851  1.2642
  861MOL0     H16170   6.063   7.112   0.621 -1.2305  0.6808 -0.4528
  861MOL0     H16171   6.057   7.257   0.720  0.7660 -0.3381 -1.6194
  861MOL0     H16172   6.217   7.152   0.886 -0.5515  0.4646 -0.4296
  861MOL0     H16173   6.282   7.174   0.707 -1.6566  1.4787 -0.8127
  861MOL0     H16174   6.253   6.926   0.667  1.7275 -0.2392 -1.3596
  861MOL0     H16175   6.194   6.909   0.836  1.4267 -1.7612 -0.4488
  861MOL0     H16176   6.461   7.035   0.769  0.0421 -0.2265  1.0841
  861MOL0     H16177   6.388   7.014   0.927 -1.1686  1.2703 -1.1162
  861MOL0     H16178   6.376   6.762   0.882 -1.4066  0.6827 -1.0520
  861MOL0     H16179   6.461   6.797   0.724 -2.9470  0.4063 -0.6538
  861MOL0     H16180   6.608   6.705   0.905 -1.3127  0.1126 -0.2657
  861MOL0     H16181   6.656   6.852   0.823 -0.7918  0.7604  0.6825
  861MOL0     H16182   6.579   6.991   1.008 -0.2510  0.0188  0.7576
  861MOL0     H16183   6.717   6.896   1.044 -0.9241 -0.1437  2.2845
  861MOL0     H16184   6.431   6.835   1.154  0.0854  3.1664  0.5346
  861MOL0     H16185   6.560   6.713   1.144  0.8372  0.9239 -0.6194
  861MOL0     H16186   6.547   6.715   1.428  2.0036 -1.1841  1.7076
  861MOL0     H16187   6.685   6.925   1.694  0.5918  0.8862  0.7447
  861MOL0     H16188   6.640   6.757   1.646 -3.5915  1.8356 -1.1754
  861MOL0     H16189   6.885   6.723   1.572  2.8796  2.0037 -1.1083
  861MOL0     H16190   6.916   6.893   1.607  0.9945 -0.3324 -0.8360
  861MOL0     H16191   6.819   6.726   1.834 -0.0058 -1.0588 -1.4371
  861MOL0     H16192   6.914   6.876   1.831 -0.2101 -0.7164  1.0642
  861MOL0     H16193   7.108   6.788   1.724 -1.3730  0.1740 -1.1560
  861MOL0     H16194   7.041   6.623   1.729 -0.8503 -1.4079  3.4260
  861MOL0     H16195   7.153   6.666   2.157 -1.0575  0.4700 -0.0602
  861MOL0     H16196   7.377   6.572   2.248  0.9110 -0.1422 -0.0127
  861MOL0     H16197   7.854   6.509   2.138 -2.0687  1.8695  0.3866
  861MOL0     H16198   8.064   6.405   2.233 -0.5772  3.0973 -0.7620
  861MOL0     H16199   8.196   6.194   2.292 -2.2900 -0.8199 -0.4932
  861MOL0     H16200   8.216   6.348   2.380 -0.5791  0.7040  2.8624
  861MOL0     H16201   8.260   6.211   2.589 -0.5744 -0.2817 -0.3616
  861MOL0     H16202   8.280   6.072   2.475  2.0053  0.7617 -0.3681
  861MOL0     H16203   8.458   6.264   2.362  4.3748  1.8628  1.3270
  861MOL0     H16204   8.421   6.344   2.507  1.7227 -0.9365  1.3716
  861MOL0     H16205   8.536   6.054   2.487  2.2102 -0.1736 -0.4540
  861MOL0     H16206   8.516   6.135   2.632 -1.0698 -0.5971 -0.4754
  861MOL0     H16207   8.700   6.251   2.409 -1.5660  0.4356  1.4033
  861MOL0     H16208   8.767   6.142   2.528  0.4032  0.1134  1.5448
  861MOL0     H16209   8.654   6.423   2.574 -1.1384  1.8054  2.3747
  861MOL0     H16210   8.676   6.305   2.703 -2.6014 -2.6987 -1.6483
  861MOL0     H16211   8.895   6.395   2.512 -0.1311  0.5608 -0.1274
  861MOL0     H16212   8.909   6.287   2.658  0.6359  0.4397  0.9629
  861MOL0     H16213   8.856   6.465   2.808  0.5213  0.8525  0.3574
  861MOL0     H16214   9.001   6.514   2.720  0.8390 -6.4491 -3.5154
  861MOL0     H16215   7.826   6.177   2.506 -0.1464  1.2145  0.9004
  861MOL0     H16216   7.604   6.271   2.391  0.3680 -1.8459  0.4598
  861MOL0     H16217   7.483   6.488   1.838 -1.1159 -0.9945  0.1439
  861MOL0     H16218   7.289   6.612   1.753  1.5381  0.1537  0.0212
  861MOL0     H16219   5.824   6.884   0.781  0.0290  0.3289  0.6518
  861MOL0     H16220   5.573   6.895   0.718  2.2956 -0.9198 -0.8480
  861MOL0     H16221   5.309   7.170   0.524  0.0862  1.0810  1.1032
  861MOL0     H16222   5.103   7.198   0.397  2.0878  0.4551  0.1940
  861MOL0     H16223   4.896   7.072   0.338 -0.5854  0.8159 -2.9636
  861MOL0     H16224   4.908   7.243   0.295  3.0423 -1.2188  0.4557
  861MOL0     H16225   4.693   7.135   0.199 -0.9728 -2.5617 -0.0819
  861MOL0     H16226   4.647   7.259   0.312 -1.6138 -1.0725  0.1382
  861MOL0     H16227   4.604   7.093   0.481 -3.0732  0.4385 -1.3117
  861MOL0     H16228   4.698   6.966   0.395  0.1541 -0.2840 -0.8419
  861MOL0     H16229   4.441   7.105   0.292  0.7076  1.0087  0.7359
  861MOL0     H16230   4.528   6.963   0.222  2.5336 -1.4562  2.2625
  861MOL0     H16231   4.282   6.803   0.534 -0.9913  0.5549 -1.4432
  861MOL0     H16232   4.877   7.205   0.761  1.0120  3.4904  2.9590
  861MOL0     H16233   5.156   7.140   0.973  1.1846  3.2752  0.5592
  861MOL0     H16234   5.047   7.273   0.965 -2.5701 -1.6389  0.0576
  861MOL0     H16235   4.978   7.109   0.941 -0.0523  0.0334  2.1472
  862MOL0     O16236   6.114   7.433   4.681  0.1072  0.1240 -0.2237
  862MOL0     C16237   6.041   7.353   4.741 -0.2180  0.1867  1.5460
  862MOL0     O16238   6.089   7.267   4.839  0.6422 -0.2769  0.6387
  862MOL0     C16239   6.220   7.261   4.871  0.1430  0.4220 -0.8406
  862MOL0     C16240   6.323   7.241   4.784 -0.6355 -0.5810  1.0380
  862MOL0     C16241   6.453   7.246   4.826 -0.3575  0.4584  0.1923
  862MOL0     C16242   6.478   7.265   4.966 -0.2558 -0.7802  0.4924
  862MOL0     O16243   6.611   7.252   5.013  1.0604 -0.8527  0.4565
  862MOL0     C16244   6.640   7.124   5.056 -0.3484  0.4199  0.1532
  862MOL0     C16245   6.782   7.111   5.067 -0.1105  0.1209 -0.1055
  862MOL0     C16246   6.848   7.138   4.928  0.1242  0.0399 -0.4750
  862MOL0     C16247   7.002   7.125   4.948 -0.1216  0.1027  0.9312
  862MOL0     C16248   7.086   7.198   4.846 -1.4523 -0.2210 -0.5299
  862MOL0     C16249   7.244   7.178   4.875  0.3315 -0.0544 -0.0420
  862MOL0     C16250   7.328   7.245   4.768  0.7707  0.0127  0.0599
  862MOL0     C16251   7.471   7.191   4.774  0.3539  0.0766 -0.9934
  862MOL0     N16252   7.537   7.222   4.900 -0.3447  0.1877  0.3733
  862MOL0     C16253   7.555   7.333   4.981  0.2455 -0.8101  1.4441
  862MOL0     C16254   7.633   7.298   5.079 -0.3478 -0.0701 -0.2620
  862MOL0     C16255   7.687   7.391   5.184 -0.3063 -0.2842 -0.2702
  862MOL0     C16256   7.817   7.456   5.136 -0.2802  0.1637 -0.6521
  862MOL0     C16257   7.941   7.359   5.117  0.5596 -0.9015  1.0020
  862MOL0     C16258   8.080   7.411   5.150  0.2615 -0.2618 -0.2869
  862MOL0     O16259   8.095   7.546   5.098 -0.0627  0.1726  0.5440
  862MOL0     C16260   8.197   7.626   5.141 -0.1998  0.3151  0.0061
  862MOL0     C16261   8.294   7.586   5.236  0.1303 -0.1712  0.6020
  862MOL0     C16262   8.400   7.665   5.266 -0.0076  0.1308 -1.2538
  862MOL0     C16263   8.420   7.791   5.198 -0.2214  0.2003 -0.3070
  862MOL0     C16264   8.541   7.873   5.226  0.6448  0.1730 -1.1949
  862MOL0     O16265   8.632   7.824   5.311 -0.1440 -0.0715 -0.4714
  862MOL0     C16266   8.736   7.908   5.333  0.8929 -0.1383 -0.2843
  862MOL0     C16267   8.870   7.860   5.325 -0.8704  0.0505 -1.1691
  862MOL0     C16268   8.978   7.945   5.358 -0.0616  0.6726 -0.2896
  862MOL0     C16269   8.957   8.078   5.390 -0.4682 -0.4044 -0.9910
  862MOL0     O16270   9.065   8.146   5.426 -0.7866 -0.2498  0.1079
  862MOL0     C16271   9.054   8.250   5.529  0.1344 -0.7954  0.5899
  862MOL0     C16272   9.195   8.281   5.578  0.6851  0.1537 -0.0237
  862MOL0     C16273   9.204   8.363   5.707  0.2715  0.3263  0.4229
  862MOL0     C16274   9.168   8.510   5.670  0.2657 -0.3475 -0.4088
  862MOL0     C16275   9.154   8.587   5.807 -0.0740 -0.1595  0.2673
  862MOL0     C16276   9.098   8.732   5.778 -0.5977 -0.4633  0.0955
  862MOL0     C16277   9.141   8.829   5.885 -0.3066 -0.2796 -0.7873
  862MOL0     C16278   9.048   8.851   6.006 -0.4154  0.4717 -0.7301
  862MOL0    Cl16279   9.068   8.705   6.116  0.0948  0.7932  0.4096
  862MOL0     C16280   8.824   8.125   5.412  0.0177 -1.1174  0.1636
  862MOL0     C16281   8.717   8.041   5.380  0.0774 -0.4776 -0.1456
  862MOL0     O16282   8.561   7.969   5.150 -0.6686  0.0510  0.2221
  862MOL0     C16283   8.318   7.836   5.110  0.1775 -1.5551 -0.4654
  862MOL0     C16284   8.204   7.762   5.092 -0.8054  0.0517  0.1755
  862MOL0     N16285   7.655   7.169   5.067 -0.4986  0.0546 -0.2402
  862MOL0     N16286   7.594   7.117   4.968 -0.0370  0.8759  0.3463
  862MOL0     C16287   6.369   7.296   5.054 -0.0277  0.6311  1.2229
  862MOL0     C16288   6.243   7.288   5.001 -0.2915 -0.6188 -0.7173
  862MOL0     C16289   5.898   7.336   4.714 -1.4171  0.1106 -0.0007
  862MOL0     C16290   5.831   7.446   4.657 -0.6148 -0.5931  0.0667
  862MOL0     C16291   5.696   7.445   4.632 -0.1874 -1.2417 -0.9387
  862MOL0     C16292   5.623   7.328   4.650  0.0553 -0.2560 -0.5337
  862MOL0     O16293   5.489   7.334   4.617  0.1837 -0.2192 -0.1282
  862MOL0     C16294   5.406   7.233   4.670 -0.6637  0.0437 -0.1308
  862MOL0     C16295   5.266   7.252   4.619  0.4058 -0.4133  0.6271
  862MOL0     C16296   5.172   7.171   4.713 -0.8591 -0.4303 -0.1408
  862MOL0     C16297   5.027   7.166   4.658 -0.1085 -0.2211 -0.2434
  862MOL0     C16298   4.959   7.057   4.727  0.5603  0.4212 -0.2251
  862MOL0     C16299   4.898   6.968   4.783 -0.5383 -0.7290 -0.4623
  862MOL0     C16300   5.693   7.216   4.713 -0.3333 -0.0818  0.4954
  862MOL0     C16301   5.827   7.222   4.743  0.7983 -0.2926 -0.7636
  862MOL0     C16302   5.876   7.103   4.813  1.5085 -0.2436  0.2684
  862MOL0     H16303   6.305   7.220   4.679  3.1874  0.9362 -0.1035
  862MOL0     H16304   6.540   7.223   4.767 -0.3417 -1.7226  0.9637
  862MOL0     H16305   6.584   7.108   5.148 -0.1752 -0.4677  0.1088
  862MOL0     H16306   6.606   7.055   4.979 -0.0235  0.0747  0.3158
  862MOL0     H16307   6.795   7.009   5.104 -0.8621 -0.5497 -1.6232
  862MOL0     H16308   6.821   7.179   5.144  3.0003 -1.7295  0.1308
  862MOL0     H16309   6.809   7.227   4.879 -0.9793 -1.1969 -1.9422
  862MOL0     H16310   6.824   7.061   4.854  0.8328 -0.2893 -0.3788
  862MOL0     H16311   7.017   7.171   5.046 -0.8860  2.8463 -0.1351
  862MOL0     H16312   7.025   7.018   4.949 -2.6694 -0.5213  1.0850
  862MOL0     H16313   7.056   7.163   4.747 -0.1325 -1.1738 -0.6229
  862MOL0     H16314   7.074   7.307   4.846  0.8954  0.1570  1.9379
  862MOL0     H16315   7.273   7.216   4.974 -2.8930  2.0701  0.2539
  862MOL0     H16316   7.270   7.071   4.873  1.4215  0.1349  1.6869
  862MOL0     H16317   7.322   7.354   4.773 -1.1811 -0.1051  4.0280
  862MOL0     H16318   7.281   7.218   4.673 -0.6591 -1.6883  1.1905
  862MOL0     H16319   7.474   7.082   4.763  1.2713 -0.0282  0.0878
  862MOL0     H16320   7.533   7.235   4.696  2.9320  1.2237  1.4874
  862MOL0     H16321   7.503   7.426   4.961  0.4402 -0.9868 -0.0308
  862MOL0     H16322   7.612   7.469   5.198  0.0091  0.1172 -0.7771
  862MOL0     H16323   7.705   7.352   5.285  1.7987  3.4975  1.0211
  862MOL0     H16324   7.791   7.523   5.054  0.9298  1.0814 -0.3163
  862MOL0     H16325   7.849   7.529   5.211  1.5943 -0.7183 -0.5502
  862MOL0     H16326   7.938   7.337   5.010  1.6873 -1.0695  0.9946
  862MOL0     H16327   7.931   7.273   5.183  1.2033 -0.3728  1.8054
  862MOL0     H16328   8.161   7.348   5.111  1.1844  2.2502 -2.8156
  862MOL0     H16329   8.086   7.425   5.258 -0.5139 -1.2465 -0.1077
  862MOL0     H16330   8.292   7.488   5.282  0.9343 -1.3756 -1.7334
  862MOL0     H16331   8.480   7.629   5.331  2.3059  1.7373 -3.0147
  862MOL0     H16332   8.886   7.756   5.299 -1.8894 -0.8924  1.5572
  862MOL0     H16333   9.077   7.902   5.357  0.9573  2.7924  0.7640
  862MOL0     H16334   9.009   8.341   5.490  0.8193 -0.3452  0.8220
  862MOL0     H16335   9.004   8.206   5.616  0.3862  1.4022  1.9338
  862MOL0     H16336   9.246   8.187   5.599  0.2077 -0.4862 -1.5603
  862MOL0     H16337   9.261   8.325   5.503  0.4446 -0.8088 -0.8307
  862MOL0     H16338   9.139   8.335   5.790 -0.9644 -0.5220 -0.7989
  862MOL0     H16339   9.309   8.346   5.732  0.8428 -1.2224 -2.5638
  862MOL0     H16340   9.068   8.507   5.628 -0.6736  0.9658  1.5838
  862MOL0     H16341   9.230   8.556   5.592 -1.3161  2.2094 -0.2736
  862MOL0     H16342   9.257   8.585   5.844  0.5846  1.1515 -1.3240
  862MOL0     H16343   9.086   8.539   5.877  0.7673 -0.3851  0.9513
  862MOL0     H16344   9.133   8.769   5.681 -0.3291  3.4240  1.5076
  862MOL0     H16345   8.989   8.722   5.772 -0.6962  0.4858  0.2194
  862MOL0     H16346   9.148   8.928   5.839 -0.5809 -1.0547 -2.5653
  862MOL0     H16347   9.241   8.796   5.917 -0.5832  0.0210  0.4081
  862MOL0     H16348   9.069   8.940   6.065 -2.0569  1.0014 -0.9213
  862MOL0     H16349   8.946   8.856   5.968  0.0024  1.2361 -1.7949
  862MOL0     H16350   8.810   8.219   5.465  0.9431 -1.3803  0.9178
  862MOL0     H16351   8.615   8.070   5.403 -0.1896 -1.2567 -0.3259
  862MOL0     H16352   8.323   7.933   5.063 -2.8173 -1.5133 -0.8944
  862MOL0     H16353   8.114   7.799   5.045 -0.2809  1.9973  0.6112
  862MOL0     H16354   6.406   7.310   5.155  2.3539 -0.5090  0.5809
  862MOL0     H16355   6.160   7.298   5.071  0.2492 -2.5916  0.2963
  862MOL0     H16356   5.883   7.540   4.640  0.1538 -0.8398  1.0171
  862MOL0     H16357   5.649   7.528   4.581  0.1389 -2.3335 -3.1326
  862MOL0     H16358   5.402   7.230   4.779 -1.5932 -0.2060 -0.1635
  862MOL0     H16359   5.436   7.131   4.643 -0.6799 -0.4167  1.4822
  862MOL0     H16360   5.261   7.222   4.514  0.5813 -2.1755  1.0869
  862MOL0     H16361   5.237   7.357   4.611 -0.6435 -0.5347  2.3456
  862MOL0     H16362   5.166   7.223   4.809  0.5855 -0.6311  0.0926
  862MOL0     H16363   5.215   7.073   4.732 -3.2177 -1.5355 -0.1834
  862MOL0     H16364   4.980   7.262   4.682  3.1715  1.4807  0.0336
  862MOL0     H16365   5.034   7.151   4.550  1.1567 -0.2428 -0.1699
  862MOL0     H16366   4.840   6.888   4.824 -2.4214  1.0537  0.5675
  862MOL0     H16367   5.640   7.125   4.736 -1.2058  0.0979 -0.6837
  862MOL0     H16368   5.956   7.066   4.748  1.3488  0.3583 -0.2796
  862MOL0     H16369   5.916   7.123   4.913 -1.8609 -3.4181  2.4893
  862MOL0     H16370   5.800   7.025   4.813  0.5927  0.6284  0.8329
  863MOL0     O16371   4.430   1.682   1.672  0.3874  0.0739  0.7973
  863MOL0     C16372   4.380   1.609   1.587 -1.0070 -0.7403  0.1938
  863MOL0     O16373   4.452   1.529   1.505  0.1864  0.6702 -0.1074
  863MOL0     C16374   4.589   1.522   1.510  0.7282  0.9697 -0.6719
  863MOL0     C16375   4.644   1.399   1.545 -0.1552 -0.0119 -0.5690
  863MOL0     C16376   4.783   1.382   1.535  0.4681 -0.3017  0.3455
  863MOL0     C16377   4.867   1.483   1.496  0.4676  0.4334  0.7534
  863MOL0     O16378   4.997   1.479   1.457 -0.1567  0.5018 -0.2664
  863MOL0     C16379   5.028   1.359   1.380 -0.1807 -0.3285 -0.2253
  863MOL0     C16380   5.164   1.386   1.311  0.6948  0.2463 -0.1332
  863MOL0     C16381   5.267   1.390   1.423 -0.2351  0.3418 -0.2920
  863MOL0     C16382   5.398   1.324   1.394 -0.3915  0.9577 -0.4388
  863MOL0     C16383   5.513   1.370   1.497  0.1391 -0.2891  0.1587
  863MOL0     C16384   5.645   1.304   1.455  0.0465  0.1979 -0.7507
  863MOL0     C16385   5.761   1.346   1.547 -0.9529 -0.5731 -0.1881
  863MOL0     C16386   5.890   1.283   1.490 -1.2040 -0.4871  1.0204
  863MOL0     N16387   6.008   1.329   1.561  1.0099  0.0599 -0.6592
  863MOL0     C16388   6.026   1.308   1.703  1.0377 -0.1191  1.1795
  863MOL0     C16389   6.138   1.367   1.739 -0.2181 -1.0477 -0.7494
  863MOL0     C16390   6.182   1.378   1.884 -0.3254  0.2588  0.3805
  863MOL0     C16391   6.334   1.379   1.893 -0.2621  0.1496  0.1428
  863MOL0     C16392   6.365   1.346   2.040 -0.1609 -0.0236  0.0642
  863MOL0     C16393   6.520   1.315   2.039  0.4828  1.0027  0.2268
  863MOL0     O16394   6.575   1.314   2.173  0.0240  0.1110  0.8275
  863MOL0     C16395   6.709   1.288   2.196  0.7426  0.1183 -0.2822
  863MOL0     C16396   6.756   1.336   2.320 -0.1235  0.8267 -0.4088
  863MOL0     C16397   6.884   1.311   2.365  0.3451 -0.9125 -0.2413
  863MOL0     C16398   6.974   1.244   2.284  0.0485  0.0787 -0.1507
  863MOL0     C16399   7.110   1.230   2.337 -0.4366 -0.0369 -0.3639
  863MOL0     O16400   7.159   1.333   2.413  0.2068  0.5428 -0.2059
  863MOL0     C16401   7.295   1.311   2.457 -0.3095  0.5358 -0.4391
  863MOL0     C16402   7.324   1.283   2.593 -0.6589  0.4048  0.1927
  863MOL0     C16403   7.460   1.262   2.631  0.3668 -0.4925 -0.4274
  863MOL0     C16404   7.564   1.262   2.536  0.5727 -0.7789 -0.2780
  863MOL0     O16405   7.701   1.254   2.566  0.4901  0.2898  0.0046
  863MOL0     C16406   7.740   1.202   2.694 -0.9026  0.3634 -0.3294
  863MOL0     C16407   7.885   1.161   2.696  0.1039  0.2857 -0.1266
  863MOL0     C16408   7.911   1.023   2.626 -0.0410 -0.0295  0.2681
  863MOL0     C16409   7.934   1.042   2.468 -0.2118  0.2512 -0.1435
  863MOL0     C16410   7.965   0.903   2.413  0.3175 -0.1785  0.2920
  863MOL0     C16411   7.942   0.903   2.258  0.4772  0.3704  0.8536
  863MOL0     C16412   7.899   0.762   2.218 -1.3847  1.3766 -0.4409
  863MOL0     C16413   7.893   0.756   2.063  0.6553 -0.8585  0.6859
  863MOL0    Cl16414   8.052   0.758   1.974  0.2801 -0.4498 -0.0826
  863MOL0     C16415   7.532   1.301   2.402  1.0167 -0.4140 -0.6318
  863MOL0     C16416   7.399   1.317   2.364 -0.3628 -0.4588 -0.0522
  863MOL0     O16417   7.160   1.120   2.321  0.3590 -0.0406 -1.0324
  863MOL0     C16418   6.932   1.188   2.162 -0.2996  0.3382 -0.0484
  863MOL0     C16419   6.800   1.218   2.117 -0.3362  0.7287 -0.0045
  863MOL0     N16420   6.187   1.422   1.620 -0.6788 -0.5997  0.3865
  863MOL0     N16421   6.114   1.406   1.519  0.4652 -0.5325 -0.0199
  863MOL0     C16422   4.808   1.605   1.479 -0.5760  0.2616  0.3721
  863MOL0     C16423   4.671   1.622   1.474 -0.3587  0.4230  0.5437
  863MOL0     C16424   4.235   1.622   1.563  0.5008  0.7648  0.5009
  863MOL0     C16425   4.197   1.597   1.426 -0.0421  0.1042 -0.0966
  863MOL0     C16426   4.068   1.626   1.382 -0.2091 -0.1705 -0.5538
  863MOL0     C16427   3.973   1.680   1.461  0.3333  0.3217 -0.5181
  863MOL0     O16428   3.847   1.702   1.413 -0.0808 -0.3928  0.1999
  863MOL0     C16429   3.837   1.746   1.275 -0.3385 -0.6092  0.1192
  863MOL0     C16430   3.721   1.830   1.245  0.5160 -0.4466 -0.3361
  863MOL0     C16431   3.584   1.763   1.291 -0.1532  0.7248  0.0831
  863MOL0     C16432   3.539   1.639   1.218 -0.2974 -0.2711 -0.1470
  863MOL0     C16433   3.489   1.666   1.081  0.3615  0.8073 -0.7003
  863MOL0     C16434   3.456   1.694   0.967 -0.0619 -0.1287  0.1680
  863MOL0     C16435   4.002   1.704   1.594 -0.1398 -0.0142 -0.3530
  863MOL0     C16436   4.137   1.674   1.652  0.7348 -0.2223 -0.3400
  863MOL0     C16437   4.163   1.701   1.799 -0.2695  0.5904 -0.5029
  863MOL0     H16438   4.607   1.303   1.579  2.6704 -0.4713  1.5952
  863MOL0     H16439   4.827   1.285   1.559  0.4197 -0.1121  1.2237
  863MOL0     H16440   5.035   1.275   1.449 -0.4033 -0.2494 -0.1065
  863MOL0     H16441   4.957   1.330   1.303  1.8373 -1.8246 -1.6104
  863MOL0     H16442   5.166   1.482   1.260  0.2089 -0.8654 -2.3800
  863MOL0     H16443   5.181   1.299   1.246 -1.1347  1.2346 -2.0917
  863MOL0     H16444   5.225   1.345   1.513  2.5746 -3.1407 -0.4738
  863MOL0     H16445   5.284   1.495   1.445 -1.8250  0.0062  3.0311
  863MOL0     H16446   5.396   1.215   1.394  2.9025  0.7986 -0.0159
  863MOL0     H16447   5.430   1.354   1.294  0.4771  0.2905 -0.3727
  863MOL0     H16448   5.535   1.476   1.485 -1.4169  0.3901  2.5241
  863MOL0     H16449   5.475   1.361   1.600 -2.2894  2.9727 -0.2835
  863MOL0     H16450   5.627   1.197   1.468  1.9944  0.0185  1.0289
  863MOL0     H16451   5.675   1.315   1.351  0.6595  0.0165 -0.5944
  863MOL0     H16452   5.739   1.296   1.642 -0.9116  1.3162  0.8733
  863MOL0     H16453   5.770   1.453   1.569 -0.4881 -0.4686 -0.8519
  863MOL0     H16454   5.892   1.174   1.478 -1.2053 -0.3049 -0.9928
  863MOL0     H16455   5.900   1.327   1.390  1.8802 -3.4063 -0.1456
  863MOL0     H16456   5.954   1.264   1.772 -0.9001  1.2810  0.1267
  863MOL0     H16457   6.151   1.472   1.931 -0.1293  0.4708  0.0893
  863MOL0     H16458   6.140   1.300   1.949  2.4132 -0.1133  1.8388
  863MOL0     H16459   6.375   1.304   1.826 -0.5582 -2.0631  2.3056
  863MOL0     H16460   6.365   1.476   1.852  0.3119 -0.4678 -0.9049
  863MOL0     H16461   6.316   1.254   2.072  1.9076 -1.1609  0.0909
  863MOL0     H16462   6.343   1.436   2.098 -0.7097 -1.1858  1.7343
  863MOL0     H16463   6.569   1.383   1.969 -1.7978  1.9093 -0.6014
  863MOL0     H16464   6.535   1.223   1.982 -1.1862  2.4007 -2.7447
  863MOL0     H16465   6.692   1.382   2.395  0.4570 -0.7517  1.1132
  863MOL0     H16466   6.907   1.357   2.461 -0.2857  1.0334 -0.9564
  863MOL0     H16467   7.252   1.282   2.674  2.1281 -2.8322  2.9507
  863MOL0     H16468   7.470   1.242   2.737 -0.4144  0.9302 -0.0744
  863MOL0     H16469   7.723   1.271   2.776 -1.4893  0.9172 -0.9057
  863MOL0     H16470   7.682   1.112   2.715  0.7751 -0.2974  1.8628
  863MOL0     H16471   7.939   1.246   2.654  0.4228  0.4658  0.6139
  863MOL0     H16472   7.918   1.156   2.801 -0.1975  2.0624  0.0884
  863MOL0     H16473   8.004   0.987   2.672  0.3227 -0.6042 -0.9003
  863MOL0     H16474   7.835   0.950   2.653  1.7678 -2.6803 -1.3385
  863MOL0     H16475   8.020   1.108   2.454 -1.1721  1.5982  0.0963
  863MOL0     H16476   7.849   1.090   2.418  1.0436  0.3926 -2.2701
  863MOL0     H16477   7.897   0.829   2.456  1.1973 -0.0680  1.9574
  863MOL0     H16478   8.067   0.867   2.431  1.5938  1.2557 -3.1998
  863MOL0     H16479   7.862   0.973   2.232  0.3387 -0.0194  0.2081
  863MOL0     H16480   8.038   0.936   2.218 -0.1314  2.2824  0.8653
  863MOL0     H16481   7.803   0.721   2.254 -0.5527 -0.0124  0.3080
  863MOL0     H16482   7.976   0.688   2.243 -0.6371  1.5006 -2.2409
  863MOL0     H16483   7.838   0.667   2.030  0.1155  0.1342 -1.2764
  863MOL0     H16484   7.836   0.842   2.026 -0.1617 -0.8930  1.8306
  863MOL0     H16485   7.606   1.314   2.324  2.7597 -1.0618  0.8652
  863MOL0     H16486   7.379   1.350   2.262  0.1255  1.1141  0.3333
  863MOL0     H16487   6.997   1.127   2.100 -0.1768  1.6002 -1.1870
  863MOL0     H16488   6.759   1.174   2.026  0.4781 -1.7358  0.7292
  863MOL0     H16489   4.867   1.690   1.447 -2.3480  0.7699 -1.7463
  863MOL0     H16490   4.622   1.717   1.453  0.4780  2.0608  4.8082
  863MOL0     H16491   4.259   1.568   1.342 -1.5477  0.1944 -1.2672
  863MOL0     H16492   4.039   1.589   1.285 -2.0608  0.6766 -0.3657
  863MOL0     H16493   3.826   1.656   1.214  1.4260 -0.3172 -0.6766
  863MOL0     H16494   3.923   1.801   1.237  1.1638 -1.6675  1.8599
  863MOL0     H16495   3.713   1.863   1.141 -0.9841  0.7207  0.1116
  863MOL0     H16496   3.727   1.921   1.304 -2.4185 -0.7783  0.6115
  863MOL0     H16497   3.500   1.833   1.291 -0.9746 -0.1529  2.6285
  863MOL0     H16498   3.603   1.744   1.397  1.3666  1.3437 -0.0510
  863MOL0     H16499   3.619   1.565   1.222  0.4540  0.4861 -0.7584
  863MOL0     H16500   3.450   1.597   1.265 -0.9908 -1.2087 -2.1492
  863MOL0     H16501   3.415   1.725   0.873 -0.7940  0.2105  0.5914
  863MOL0     H16502   3.920   1.735   1.658 -0.3233 -1.5659  0.2212
  863MOL0     H16503   4.090   1.775   1.833  1.2129  1.3701  1.1316
  863MOL0     H16504   4.160   1.607   1.854  0.7628 -0.1086 -1.5988
  863MOL0     H16505   4.256   1.751   1.827 -1.3157  2.2380  0.2608
  864MOL0     O16506   5.669   8.402   9.586 -0.5005 -0.2066  0.5285
  864MOL0     C16507   5.691   8.507   9.530 -0.2567  0.2543  0.1209
  864MOL0     O16508   5.791   8.592   9.566  0.7969 -0.5106  0.5781
  864MOL0     C16509   5.895   8.550   9.638  0.0472  0.1871 -0.1455
  864MOL0     C16510   6.022   8.531   9.580 -0.0790 -0.7385 -0.1955
  864MOL0     C16511   6.124   8.497   9.659 -0.3595  0.5744  0.3490
  864MOL0     C16512   6.110   8.468   9.796  0.7872  0.2633  0.6140
  864MOL0     O16513   6.211   8.432   9.872 -0.0346  0.4525 -0.4075
  864MOL0     C16514   6.338   8.486   9.863 -0.3189 -0.6432  0.6421
  864MOL0     C16515   6.352   8.636   9.900 -0.1798  0.8151 -0.2325
  864MOL0     C16516   6.483   8.703   9.846  0.3730 -0.2255 -0.2874
  864MOL0     C16517   6.462   8.855   9.854  0.2014 -0.2343 -0.4835
  864MOL0     C16518   6.484   8.901   9.999 -0.6207  0.2690  0.0339
  864MOL0     C16519   6.437   9.040  10.036  1.1575 -0.8340  0.4635
  864MOL0     C16520   6.298   9.090   9.999 -0.1283 -0.1014  0.3974
  864MOL0     C16521   6.194   8.994  10.044 -0.4690 -0.0858 -0.5962
  864MOL0     N16522   6.179   8.960  10.193 -0.0448  0.5871 -0.2398
  864MOL0     C16523   6.181   9.048  10.299 -0.0373  0.0476  0.1614
  864MOL0     C16524   6.139   8.981  10.403  0.7870 -0.2329 -0.1759
  864MOL0     C16525   6.105   9.034  10.544 -0.5766 -0.8970  0.9031
  864MOL0     C16526   6.209   9.003  10.650 -0.0615 -0.1974  0.2319
  864MOL0     C16527   6.341   9.088  10.632 -0.3759  0.6548 -0.5729
  864MOL0     C16528   6.442   9.030  10.736 -0.8532  0.7266  0.9303
  864MOL0     O16529   6.408   9.055  10.874 -0.7061 -0.0697 -0.2420
  864MOL0     C16530   6.513   9.067  10.969 -0.6841  0.2112  0.5011
  864MOL0     C16531   6.627   8.986  10.957 -0.3304 -0.2097  0.0414
  864MOL0     C16532   6.726   8.992  11.051  0.1884  0.5827 -0.4301
  864MOL0     C16533   6.716   9.096  11.150 -1.1088  0.8610  1.2579
  864MOL0     C16534   6.838   9.119  11.228 -0.5945 -0.0989  0.1109
  864MOL0     O16535   6.846   9.231  11.298 -0.3809 -0.0939  0.0253
  864MOL0     C16536   6.947   9.253  11.387  0.1287  0.1724 -0.1477
  864MOL0     C16537   6.918   9.299  11.514 -0.1826 -0.1678 -0.4689
  864MOL0     C16538   7.010   9.326  11.600 -0.4261  0.1381 -0.5021
  864MOL0     C16539   7.145   9.326  11.569 -1.1293  0.3253  0.9629
  864MOL0     O16540   7.239   9.342  11.679  1.1831  0.1963  0.0823
  864MOL0     C16541   7.369   9.400  11.646  0.0762 -0.7819 -1.0942
  864MOL0     C16542   7.426   9.479  11.765  0.0868  0.4008 -0.7292
  864MOL0     C16543   7.447   9.398  11.892  0.6038  0.3899 -0.7128
  864MOL0     C16544   7.568   9.448  11.975 -0.3081 -0.1943 -0.0962
  864MOL0     C16545   7.570   9.385  12.119 -0.4290 -0.1527 -0.2573
  864MOL0     C16546   7.645   9.255  12.119 -0.6084 -0.0248  0.5778
  864MOL0     C16547   7.634   9.184  12.251 -0.4614  0.2026 -0.1728
  864MOL0     C16548   7.704   9.047  12.243 -0.3417  0.3721  0.3194
  864MOL0    Cl16549   7.615   8.933  12.148  0.1432 -0.3427 -0.4961
  864MOL0     C16550   7.178   9.300  11.439 -0.0650  0.0782  0.2642
  864MOL0     C16551   7.081   9.248  11.350 -0.5800  0.5237 -0.6801
  864MOL0     O16552   6.917   9.023  11.220 -0.0837  0.4461  0.0175
  864MOL0     C16553   6.596   9.168  11.172  0.1209  0.2607 -0.0203
  864MOL0     C16554   6.495   9.150  11.077 -0.0440 -0.3441 -0.3992
  864MOL0     N16555   6.114   8.850  10.365 -0.0231  0.1238  0.5888
  864MOL0     N16556   6.138   8.845  10.238  0.9561 -0.1123 -0.2291
  864MOL0     C16557   5.987   8.482   9.854 -0.6071  0.0695  0.1252
  864MOL0     C16558   5.878   8.523   9.777 -0.2208 -0.3239 -0.7461
  864MOL0     C16559   5.590   8.560   9.434 -0.0199 -0.2040  0.0291
  864MOL0     C16560   5.505   8.471   9.363 -0.0868 -0.3793 -0.6058
  864MOL0     C16561   5.399   8.503   9.280 -0.6297  0.4243 -0.1232
  864MOL0     C16562   5.371   8.635   9.271  0.1456  0.3386  0.0780
  864MOL0     O16563   5.282   8.687   9.183  0.0766  0.4238 -1.3782
  864MOL0     C16564   5.188   8.595   9.124  0.0187 -0.7862 -0.5290
  864MOL0     C16565   5.087   8.693   9.058  0.7081  0.6427 -0.0372
  864MOL0     C16566   4.976   8.628   8.980 -0.2480 -0.0038  0.3766
  864MOL0     C16567   4.852   8.602   9.066  0.0799 -0.3222 -0.7482
  864MOL0     C16568   4.723   8.619   8.992  0.5697  0.0904  0.3241
  864MOL0     C16569   4.612   8.630   8.946 -0.2444 -0.0788  0.2301
  864MOL0     C16570   5.451   8.733   9.338 -0.7303  0.3723 -0.0055
  864MOL0     C16571   5.562   8.704   9.416  0.3301  0.6920  0.5161
  864MOL0     C16572   5.621   8.825   9.494  0.8052  0.2161  0.2752
  864MOL0     H16573   6.045   8.562   9.479 -0.6778 -1.3067 -0.5187
  864MOL0     H16574   6.222   8.490   9.613 -1.0892 -1.1647 -1.0528
  864MOL0     H16575   6.402   8.429   9.932  1.2459  2.6532  2.1209
  864MOL0     H16576   6.385   8.475   9.764 -0.0218  0.4413  0.6483
  864MOL0     H16577   6.344   8.646  10.009  0.8413  0.3724 -0.1127
  864MOL0     H16578   6.262   8.679   9.854  0.3167  1.7979 -0.3150
  864MOL0     H16579   6.512   8.673   9.746  4.5944 -1.6506  1.1491
  864MOL0     H16580   6.565   8.678   9.914 -1.9134 -0.7658  2.4721
  864MOL0     H16581   6.535   8.913   9.796 -1.3840  1.6219 -0.7379
  864MOL0     H16582   6.363   8.884   9.818  1.5337  0.0544 -4.3738
  864MOL0     H16583   6.423   8.842  10.068 -1.2554  0.6813 -0.1662
  864MOL0     H16584   6.590   8.887  10.024 -0.6473  0.3166  0.1751
  864MOL0     H16585   6.449   9.034  10.145  3.6906  0.9492  0.3860
  864MOL0     H16586   6.497   9.122   9.995 -1.3338  0.1714 -1.4397
  864MOL0     H16587   6.290   9.114   9.893 -1.7494 -0.9484  0.2951
  864MOL0     H16588   6.293   9.186  10.051 -1.5719 -0.2690  0.6287
  864MOL0     H16589   6.105   9.036   9.997  0.0915  2.1770  0.2508
  864MOL0     H16590   6.228   8.903   9.994  0.6472  0.1449 -0.2858
  864MOL0     H16591   6.218   9.150  10.294  5.6245 -1.7020 -2.2453
  864MOL0     H16592   6.101   9.143  10.540  1.3156 -0.8352 -2.8915
  864MOL0     H16593   6.004   8.995  10.566 -1.4461 -0.1397 -1.4348
  864MOL0     H16594   6.166   9.040  10.744 -1.6147 -0.2376 -0.4270
  864MOL0     H16595   6.220   8.895  10.654 -2.1534 -0.4590 -0.1284
  864MOL0     H16596   6.326   9.195  10.643  0.0699  0.7130 -0.5005
  864MOL0     H16597   6.375   9.070  10.529  1.3765  0.3966  0.0189
  864MOL0     H16598   6.540   9.073  10.712 -0.3922 -1.0703 -0.5862
  864MOL0     H16599   6.443   8.921  10.727  0.8244  0.6505  1.5534
  864MOL0     H16600   6.641   8.926  10.868  0.2453 -0.0987  0.0567
  864MOL0     H16601   6.816   8.932  11.038 -0.7971 -1.5393  1.7159
  864MOL0     H16602   6.818   9.315  11.553 -1.2871  0.1240 -3.1385
  864MOL0     H16603   6.979   9.349  11.701  1.6310  4.7789 -0.7057
  864MOL0     H16604   7.437   9.322  11.611 -0.0191 -2.6412  2.4799
  864MOL0     H16605   7.358   9.472  11.564 -0.1284  0.5593  0.0628
  864MOL0     H16606   7.519   9.530  11.739 -0.2599  0.8722 -1.0572
  864MOL0     H16607   7.357   9.559  11.792 -1.2913 -1.0016  0.0116
  864MOL0     H16608   7.354   9.389  11.949  0.3349 -0.5979 -1.2659
  864MOL0     H16609   7.469   9.292  11.874  0.1089 -0.2592  2.0842
  864MOL0     H16610   7.569   9.557  11.984 -0.4364 -0.0479 -1.6548
  864MOL0     H16611   7.652   9.402  11.923  0.4431 -2.2089  2.6809
  864MOL0     H16612   7.465   9.381  12.152 -0.3739  0.7729  0.0651
  864MOL0     H16613   7.609   9.465  12.183  1.7477 -1.0341 -0.4262
  864MOL0     H16614   7.603   9.184  12.047 -0.4721 -1.4164  1.8178
  864MOL0     H16615   7.749   9.280  12.096 -0.7663  0.7713  0.7038
  864MOL0     H16616   7.528   9.170  12.277 -0.3243  1.9111  1.4642
  864MOL0     H16617   7.689   9.238  12.329 -0.0450 -0.5463  0.0619
  864MOL0     H16618   7.804   9.047  12.201  0.6593  0.5543  2.5461
  864MOL0     H16619   7.725   9.017  12.346  1.2659  0.3037 -0.0048
  864MOL0     H16620   7.280   9.312  11.405 -0.3364 -0.1564 -0.6409
  864MOL0     H16621   7.098   9.223  11.245 -0.9416 -2.8292 -0.0722
  864MOL0     H16622   6.585   9.243  11.250 -0.1712  1.3853 -1.1261
  864MOL0     H16623   6.404   9.209  11.085  0.6243  0.7426 -0.5830
  864MOL0     H16624   5.977   8.482   9.962 -0.6857  1.5674  0.1381
  864MOL0     H16625   5.785   8.537   9.831  1.2742 -1.0107  2.2293
  864MOL0     H16626   5.520   8.369   9.397 -1.6067  0.1481  1.9052
  864MOL0     H16627   5.346   8.422   9.232 -0.1719 -1.4662  2.3404
  864MOL0     H16628   5.147   8.528   9.200 -2.0378  0.9248 -0.0240
  864MOL0     H16629   5.238   8.529   9.052 -1.1885 -2.3452  0.0132
  864MOL0     H16630   5.140   8.754   8.984 -0.0498 -0.1013 -1.2325
  864MOL0     H16631   5.057   8.762   9.137  2.1905  0.9152  0.3341
  864MOL0     H16632   5.007   8.535   8.931  0.2796  1.3672 -2.0559
  864MOL0     H16633   4.948   8.706   8.908  0.7167  0.2133  0.2130
  864MOL0     H16634   4.864   8.504   9.114  4.0009 -0.3030 -1.3465
  864MOL0     H16635   4.859   8.677   9.145  1.4937 -1.3744  0.1855
  864MOL0     H16636   4.519   8.633   8.893  0.9982 -0.5170 -2.1145
  864MOL0     H16637   5.422   8.837   9.326  0.2377  0.5279 -1.1905
  864MOL0     H16638   5.605   8.807   9.601  0.8044 -1.2388  0.0560
  864MOL0     H16639   5.728   8.841   9.481  0.7159 -0.0494 -0.9017
  864MOL0     H16640   5.573   8.921   9.474  0.3021  0.3218  1.8615
  865MOL0     O16641  10.959  10.735   6.786  0.7787 -0.5099  0.0600
  865MOL0     C16642  11.053  10.661   6.792 -0.0596  0.3920  0.8508
  865MOL0     O16643  11.052  10.534   6.730  0.3196  0.1296 -0.0284
  865MOL0     C16644  10.940  10.470   6.688  0.0767 -0.0512 -0.1116
  865MOL0     C16645  10.805  10.497   6.723 -0.1957 -0.0609  0.6738
  865MOL0     C16646  10.699  10.421   6.666  0.0783  0.4497  0.9445
  865MOL0     C16647  10.725  10.322   6.577  0.1156 -0.4280 -1.5968
  865MOL0     O16648  10.614  10.253   6.535  0.4484  0.0406  0.4175
  865MOL0     C16649  10.624  10.166   6.434  0.5002  0.4426  0.1769
  865MOL0     C16650  10.489  10.145   6.372  0.5183  0.0366 -0.4236
  865MOL0     C16651  10.400  10.052   6.464  0.0392 -0.5858  0.4491
  865MOL0     C16652  10.247  10.053   6.412 -1.1284  0.2428  0.6421
  865MOL0     C16653  10.160   9.964   6.503  0.1276  0.3072 -0.0553
  865MOL0     C16654  10.167   9.823   6.457 -0.2351 -0.0686 -0.6785
  865MOL0     C16655  10.125   9.724   6.564 -0.2781  0.0053 -0.4283
  865MOL0     C16656  10.229   9.710   6.678 -0.5282 -0.6583  0.1114
  865MOL0     N16657  10.336   9.613   6.649 -0.2106 -0.3050 -0.8041
  865MOL0     C16658  10.331   9.478   6.669  0.3355  0.0769 -0.6425
  865MOL0     C16659  10.459   9.425   6.652  0.7454 -0.4180 -0.0589
  865MOL0     C16660  10.508   9.283   6.670 -0.8616 -1.7525 -0.2535
  865MOL0     C16661  10.601   9.273   6.802  0.8973  0.7998  0.5567
  865MOL0     C16662  10.743   9.312   6.774  0.4636  0.4808 -0.0877
  865MOL0     C16663  10.831   9.245   6.872  0.9614 -0.1199  0.3818
  865MOL0     O16664  10.967   9.274   6.844 -0.3703 -0.1820  0.3385
  865MOL0     C16665  11.070   9.207   6.896  0.3845  0.6114 -0.4140
  865MOL0     C16666  11.046   9.096   6.985  0.3669 -1.0231 -0.0183
  865MOL0     C16667  11.159   9.031   7.037 -0.6555 -0.2081 -0.5433
  865MOL0     C16668  11.288   9.074   7.000 -0.6617  0.0905 -0.1444
  865MOL0     C16669  11.410   8.984   7.035 -0.0026 -0.1910 -0.2270
  865MOL0     O16670  11.380   8.849   7.050 -0.8819  0.0791 -1.0732
  865MOL0     C16671  11.476   8.758   7.069 -0.0171  0.0374  0.5251
  865MOL0     C16672  11.538   8.703   6.952  0.6419 -0.2401  0.1505
  865MOL0     C16673  11.639   8.609   6.958  1.0061 -0.3536  0.3611
  865MOL0     C16674  11.680   8.557   7.083 -0.5430  0.0497  0.5920
  865MOL0     O16675  11.774   8.460   7.103  0.8735 -0.0963  0.6652
  865MOL0     C16676  11.836   8.399   6.991  0.5783  0.6625  0.8198
  865MOL0     C16677  11.930   8.289   7.035  1.0711 -0.1146 -0.4491
  865MOL0     C16678  11.886   8.216   7.165 -0.4554 -0.4844  0.6370
  865MOL0     C16679  11.943   8.253   7.297  0.1702 -0.7998  0.1240
  865MOL0     C16680  12.075   8.178   7.318  1.1776 -0.6483  0.3002
  865MOL0     C16681  12.143   8.226   7.453 -0.8679  0.2673 -0.1201
  865MOL0     C16682  12.281   8.173   7.502  0.9627  0.0049  0.2921
  865MOL0     C16683  12.386   8.226   7.404  0.1910  0.5986 -0.0539
  865MOL0    Cl16684  12.541   8.151   7.460  0.4044 -0.2979  0.0718
  865MOL0     C16685  11.624   8.607   7.197 -0.3326  0.2824  0.0302
  865MOL0     C16686  11.524   8.709   7.190  0.8421 -0.3974 -1.1060
  865MOL0     O16687  11.523   9.034   7.028 -0.2456 -0.6573 -1.0914
  865MOL0     C16688  11.307   9.182   6.914 -0.3714  0.4750 -0.3821
  865MOL0     C16689  11.199   9.252   6.866  0.0177  0.3714 -0.1857
  865MOL0     N16690  10.535   9.526   6.602  0.0270  0.4115  0.0733
  865MOL0     N16691  10.464   9.638   6.620 -1.0343 -0.2977  0.0579
  865MOL0     C16692  10.865  10.278   6.557  0.7399  0.0553  0.2435
  865MOL0     C16693  10.967  10.349   6.614 -1.0320  0.0358 -0.1743
  865MOL0     C16694  11.189  10.712   6.833 -0.0315 -0.6201  0.6566
  865MOL0     C16695  11.293  10.636   6.780 -0.3581 -0.8524 -0.2583
  865MOL0     C16696  11.428  10.680   6.798  0.1530  0.3892  0.1062
  865MOL0     C16697  11.455  10.804   6.865  0.5025  1.4956 -0.1382
  865MOL0     O16698  11.583  10.851   6.860 -0.0120  0.2544 -0.2125
  865MOL0     C16699  11.624  10.968   6.941 -0.4001  0.2403 -0.3848
  865MOL0     C16700  11.740  11.036   6.866 -0.5838 -0.0375 -0.8568
  865MOL0     C16701  11.864  10.939   6.885 -1.0757  0.7189  0.2170
  865MOL0     C16702  11.981  10.998   6.802  0.6300  0.2771 -0.3759
  865MOL0     C16703  12.025  11.116   6.870  1.1133 -0.3107  0.6983
  865MOL0     C16704  12.068  11.207   6.932  0.2211 -0.1976  0.3544
  865MOL0     C16705  11.344  10.875   6.919  0.9484 -0.0178 -0.3292
  865MOL0     C16706  11.212  10.838   6.899 -0.2332  0.3850  0.7195
  865MOL0     C16707  11.098  10.919   6.965  0.3621 -0.4333  0.4795
  865MOL0     H16708  10.770  10.571   6.794 -0.0155  0.1983  0.4982
  865MOL0     H16709  10.598  10.444   6.696 -0.4225  0.0980 -0.4237
  865MOL0     H16710  10.676  10.214   6.350 -2.2793  1.2585 -1.2249
  865MOL0     H16711  10.676  10.078   6.473  0.1066  0.9787  1.9946
  865MOL0     H16712  10.493  10.094   6.276 -1.3488 -2.5070  0.7237
  865MOL0     H16713  10.451  10.246   6.357  1.2016  0.2966 -0.4458
  865MOL0     H16714  10.409  10.081   6.569 -0.3714 -0.5692  0.4841
  865MOL0     H16715  10.448   9.954   6.458  0.2303 -0.5714  1.5698
  865MOL0     H16716  10.210  10.155   6.420  0.7636  1.2163 -1.9390
  865MOL0     H16717  10.239  10.029   6.306  2.0503  0.3908  0.2768
  865MOL0     H16718  10.184   9.969   6.610 -1.5311  1.3201  0.3157
  865MOL0     H16719  10.062  10.013   6.503 -1.0178 -1.8648 -0.6181
  865MOL0     H16720  10.098   9.803   6.374 -2.0381  1.9303  0.2501
  865MOL0     H16721  10.268   9.800   6.424  0.8765 -0.6535  2.7082
  865MOL0     H16722  10.126   9.620   6.527 -0.4511  0.4692 -1.8176
  865MOL0     H16723  10.021   9.747   6.590 -2.0284 -3.3495 -3.4415
  865MOL0     H16724  10.286   9.802   6.688  1.5416 -1.9323  0.6135
  865MOL0     H16725  10.183   9.687   6.775  2.9477  0.4657  2.2181
  865MOL0     H16726  10.252   9.421   6.717  0.6740  0.5315  0.4827
  865MOL0     H16727  10.429   9.207   6.663 -0.6728 -2.3805  2.8560
  865MOL0     H16728  10.570   9.265   6.582 -0.3839 -0.5039 -0.1843
  865MOL0     H16729  10.560   9.332   6.885 -0.2580 -1.9288  2.0699
  865MOL0     H16730  10.605   9.168   6.832 -0.8059 -0.1576 -2.2457
  865MOL0     H16731  10.759   9.420   6.778  1.9691  0.2532  0.5339
  865MOL0     H16732  10.776   9.290   6.672 -0.1494  3.6848 -1.0695
  865MOL0     H16733  10.803   9.139   6.867 -2.9598  0.4695  3.9948
  865MOL0     H16734  10.812   9.273   6.976 -1.7870 -3.1797  0.8680
  865MOL0     H16735  10.952   9.056   7.022 -0.2533  1.0496  0.7783
  865MOL0     H16736  11.144   8.948   7.105  2.5477  0.4516  1.1528
  865MOL0     H16737  11.501   8.737   6.856 -0.5427 -0.9086  0.3482
  865MOL0     H16738  11.676   8.577   6.861 -0.2174  0.9315 -0.5667
  865MOL0     H16739  11.760   8.361   6.921  1.8339 -0.7099  0.1459
  865MOL0     H16740  11.886   8.469   6.924 -1.3103  1.0931 -0.2055
  865MOL0     H16741  11.919   8.205   6.965 -0.0177  0.3461 -0.8658
  865MOL0     H16742  12.033   8.322   7.048  1.4581 -1.3540 -0.2250
  865MOL0     H16743  11.777   8.208   7.171 -0.2990 -1.6205  3.6215
  865MOL0     H16744  11.924   8.114   7.152  0.5050 -0.3625  2.3067
  865MOL0     H16745  11.876   8.227   7.380  1.4787 -1.6498  0.9440
  865MOL0     H16746  11.967   8.360   7.302 -0.4852 -0.6742  0.8402
  865MOL0     H16747  12.144   8.211   7.241 -1.2712  0.1161 -1.7038
  865MOL0     H16748  12.069   8.069   7.310 -1.5269 -0.5034 -0.8119
  865MOL0     H16749  12.155   8.335   7.454  2.8057  0.0824 -2.5706
  865MOL0     H16750  12.070   8.208   7.532  0.2664 -0.5309  0.7836
  865MOL0     H16751  12.274   8.063   7.505 -0.7196  0.1175  1.5265
  865MOL0     H16752  12.299   8.196   7.607 -2.2979 -0.8635  1.1563
  865MOL0     H16753  12.369   8.196   7.300  0.9025 -2.1619  0.5325
  865MOL0     H16754  12.387   8.334   7.420 -0.4342  0.4051  1.5026
  865MOL0     H16755  11.641   8.577   7.300 -3.3647 -0.0647  0.5379
  865MOL0     H16756  11.475   8.757   7.274  2.0964  0.8620 -1.0622
  865MOL0     H16757  11.412   9.196   6.889  0.3064 -2.9229 -0.0201
  865MOL0     H16758  11.224   9.331   6.796 -1.9659 -0.1649 -1.5876
  865MOL0     H16759  10.878  10.189   6.495 -1.9583  1.3091 -2.3289
  865MOL0     H16760  11.073  10.329   6.619 -1.3960 -2.0386  0.0197
  865MOL0     H16761  11.286  10.545   6.723  1.6116 -1.1347 -0.1213
  865MOL0     H16762  11.513  10.626   6.759  0.1776 -0.2824  1.0723
  865MOL0     H16763  11.661  10.928   7.036 -0.0162 -0.1348 -0.6891
  865MOL0     H16764  11.547  11.045   6.947  1.3647  2.0163  0.5767
  865MOL0     H16765  11.749  11.139   6.902 -2.3508 -0.4857  1.0287
  865MOL0     H16766  11.719  11.034   6.759 -0.6410  0.2343 -0.8503
  865MOL0     H16767  11.847  10.838   6.847 -0.7926  0.2568  1.2899
  865MOL0     H16768  11.885  10.923   6.991 -1.3762  0.7385  0.2804
  865MOL0     H16769  12.059  10.921   6.805 -0.0231 -0.7773 -4.3448
  865MOL0     H16770  11.961  11.023   6.697  4.4365 -2.0270 -1.8315
  865MOL0     H16771  12.108  11.288   6.990 -0.9252  1.4525 -1.0339
  865MOL0     H16772  11.342  10.972   6.968 -0.7212  0.1840 -0.7395
  865MOL0     H16773  11.029  10.956   6.889  0.3852 -0.3271  0.5104
  865MOL0     H16774  11.042  10.867   7.044 -2.0248  1.7383  0.3506
  865MOL0     H16775  11.147  11.009   7.004 -1.6136  1.7300 -1.7336
  866MOL0     O16776   4.926   0.610   6.069 -0.0963  0.8357  0.7625
  866MOL0     C16777   4.841   0.577   6.159 -0.3719 -0.1969  0.1365
  866MOL0     O16778   4.886   0.543   6.291  0.6356  0.0961 -0.5214
  866MOL0     C16779   5.018   0.516   6.318 -0.7086  0.3207 -0.3757
  866MOL0     C16780   5.102   0.625   6.326 -0.1489  0.5506  0.1577
  866MOL0     C16781   5.238   0.610   6.345  0.2246  0.4005  0.2820
  866MOL0     C16782   5.296   0.486   6.340  0.3714  0.3621  0.7765
  866MOL0     O16783   5.427   0.484   6.369  0.0201 -0.0046 -0.5139
  866MOL0     C16784   5.503   0.366   6.350 -0.3711  0.5386  0.0473
  866MOL0     C16785   5.622   0.364   6.451 -0.0913  0.3744 -0.2019
  866MOL0     C16786   5.721   0.481   6.421  0.3669 -0.5215 -0.2758
  866MOL0     C16787   5.814   0.537   6.536 -0.2157 -0.0034  0.0997
  866MOL0     C16788   5.913   0.640   6.494  0.1123 -0.1620  0.0375
  866MOL0     C16789   5.976   0.711   6.608  0.1946 -0.2859  0.0837
  866MOL0     C16790   6.092   0.799   6.563 -0.1090 -0.5512  0.0018
  866MOL0     C16791   6.166   0.866   6.679 -0.3301 -0.5356 -0.5166
  866MOL0     N16792   6.299   0.911   6.637 -0.4058 -0.5723  0.8229
  866MOL0     C16793   6.346   1.034   6.590 -0.3675  0.0179  0.2051
  866MOL0     C16794   6.476   1.019   6.568 -0.1191 -0.1414  0.2730
  866MOL0     C16795   6.574   1.122   6.523 -0.1975  0.1407  0.8109
  866MOL0     C16796   6.658   1.183   6.634 -0.0174 -0.2888 -1.0499
  866MOL0     C16797   6.659   1.344   6.627 -0.1373 -0.4806  0.0624
  866MOL0     C16798   6.773   1.406   6.710 -0.3594 -0.3878 -0.5493
  866MOL0     O16799   6.896   1.342   6.690  0.2415 -0.2711  0.1561
  866MOL0     C16800   7.016   1.402   6.732  0.4846  0.1286  0.1155
  866MOL0     C16801   7.018   1.512   6.813 -1.0312  0.9506  0.1243
  866MOL0     C16802   7.143   1.559   6.860 -0.4403  0.2751 -0.3043
  866MOL0     C16803   7.266   1.499   6.826  0.3412 -0.8207 -0.1641
  866MOL0     C16804   7.386   1.554   6.888 -0.5132 -1.0868  0.1637
  866MOL0     O16805   7.502   1.480   6.862  0.0268  0.0233 -0.3907
  866MOL0     C16806   7.621   1.523   6.906  0.1067  0.6283  0.4628
  866MOL0     C16807   7.709   1.430   6.962  0.1290 -0.5264 -0.5274
  866MOL0     C16808   7.835   1.467   6.996 -1.0984 -0.2928  0.5302
  866MOL0     C16809   7.889   1.591   6.973  0.5807  0.1739 -0.5978
  866MOL0     O16810   8.012   1.608   7.022 -0.1029  0.2084 -0.5252
  866MOL0     C16811   8.094   1.716   6.965  0.4560 -0.3768  0.3250
  866MOL0     C16812   8.233   1.712   7.027  0.3341 -0.5721 -0.2173
  866MOL0     C16813   8.313   1.599   6.980 -0.1207  0.5637 -0.1474
  866MOL0     C16814   8.452   1.610   7.046  0.0171 -0.2232 -0.6399
  866MOL0     C16815   8.552   1.583   6.936  0.2371  0.1920  0.6199
  866MOL0     C16816   8.696   1.575   6.990 -0.1588  0.0694  0.1006
  866MOL0     C16817   8.790   1.559   6.866  0.2762 -0.3239 -0.9717
  866MOL0     C16818   8.934   1.523   6.893  0.0615 -0.6429 -0.4024
  866MOL0    Cl16819   9.016   1.448   6.748 -0.6421 -0.5429 -0.0721
  866MOL0     C16820   7.809   1.679   6.901 -0.3775 -0.1467 -0.3307
  866MOL0     C16821   7.676   1.649   6.859 -0.3519  0.3460 -0.6223
  866MOL0     O16822   7.382   1.656   6.959  0.0502  0.7517 -0.1950
  866MOL0     C16823   7.264   1.384   6.750  0.2408 -0.7635 -0.2356
  866MOL0     C16824   7.136   1.342   6.692 -0.3126  0.2341  0.5218
  866MOL0     N16825   6.517   0.891   6.597  0.0595 -0.3326  0.0840
  866MOL0     N16826   6.408   0.827   6.630 -0.0008  0.1369  0.2696
  866MOL0     C16827   5.210   0.367   6.324 -0.3193 -0.2923  0.0914
  866MOL0     C16828   5.073   0.388   6.324 -0.2630  0.1833 -0.3380
  866MOL0     C16829   4.700   0.602   6.132 -0.3259  0.1663  0.0083
  866MOL0     C16830   4.658   0.693   6.030  0.0337  0.9964 -0.0869
  866MOL0     C16831   4.527   0.692   5.988  0.0013 -0.4974  0.6943
  866MOL0     C16832   4.432   0.621   6.050  0.1692 -0.0841  0.4736
  866MOL0     O16833   4.294   0.631   6.018  0.5618 -0.0864  0.1973
  866MOL0     C16834   4.252   0.741   5.936 -0.2925 -0.0673  0.5774
  866MOL0     C16835   4.103   0.740   5.944  0.0180  0.9074 -0.0176
  866MOL0     C16836   4.046   0.612   5.878 -0.0854 -0.6674 -0.0582
  866MOL0     C16837   3.905   0.583   5.923 -0.0395  0.0722 -0.6548
  866MOL0     C16838   3.818   0.700   5.922  0.1077 -0.1403 -0.2316
  866MOL0     C16839   3.760   0.808   5.924 -0.0660 -0.5486  0.5834
  866MOL0     C16840   4.465   0.542   6.152 -0.3084  0.2110 -0.6298
  866MOL0     C16841   4.595   0.531   6.198 -0.5542  0.4710  0.9799
  866MOL0     C16842   4.620   0.427   6.314  0.0612 -0.4194  0.9503
  866MOL0     H16843   5.061   0.723   6.303 -0.1450  0.0505 -2.3306
  866MOL0     H16844   5.298   0.700   6.334  3.3909 -1.3697  1.7337
  866MOL0     H16845   5.445   0.277   6.374  0.5722  0.7107  3.5156
  866MOL0     H16846   5.536   0.366   6.246  1.2436 -0.8618  0.5058
  866MOL0     H16847   5.668   0.265   6.443 -1.0042  0.0513 -2.3029
  866MOL0     H16848   5.597   0.387   6.555  0.7726  0.8693 -0.0918
  866MOL0     H16849   5.654   0.561   6.387  0.1831 -0.4714  0.2000
  866MOL0     H16850   5.777   0.464   6.329  1.5226  2.8414 -0.3348
  866MOL0     H16851   5.752   0.566   6.621 -0.3057  1.6529 -0.4748
  866MOL0     H16852   5.875   0.456   6.577 -1.6150 -0.5590  1.1305
  866MOL0     H16853   5.977   0.595   6.418 -0.0437  3.3269 -2.3766
  866MOL0     H16854   5.858   0.713   6.434  1.5706  1.6488  0.8267
  866MOL0     H16855   5.901   0.787   6.633 -1.7603 -1.5812 -1.4386
  866MOL0     H16856   6.003   0.648   6.692 -2.3456  0.9105  1.9337
  866MOL0     H16857   6.049   0.882   6.506 -0.5240 -1.0484 -0.4245
  866MOL0     H16858   6.163   0.739   6.505  2.8513  2.8851 -0.2825
  866MOL0     H16859   6.105   0.948   6.718 -0.1329 -1.5894  2.2488
  866MOL0     H16860   6.188   0.796   6.760 -0.2857 -0.4616 -0.4649
  866MOL0     H16861   6.292   1.129   6.588  1.9025  1.4132  1.0162
  866MOL0     H16862   6.651   1.075   6.461  0.9243  0.2867  2.0358
  866MOL0     H16863   6.523   1.198   6.464  0.8577 -0.7942 -1.4005
  866MOL0     H16864   6.618   1.146   6.729 -1.3626  2.4375 -0.4648
  866MOL0     H16865   6.763   1.152   6.630  0.4095  0.8808  0.4292
  866MOL0     H16866   6.570   1.396   6.664  0.0765  0.7201 -1.0350
  866MOL0     H16867   6.668   1.379   6.523  0.1222 -1.0848 -0.1222
  866MOL0     H16868   6.749   1.390   6.815  1.0522 -3.5469 -0.6179
  866MOL0     H16869   6.769   1.516   6.703  0.1964 -0.4528 -2.3452
  866MOL0     H16870   6.924   1.557   6.842 -1.5312 -2.3260  4.6407
  866MOL0     H16871   7.135   1.642   6.930  0.9190  0.1823 -0.0180
  866MOL0     H16872   7.687   1.325   6.978  1.2429 -0.4043  2.5469
  866MOL0     H16873   7.894   1.386   7.040 -1.0226 -0.1857  0.6258
  866MOL0     H16874   8.096   1.697   6.857  2.2922 -2.6636  0.6711
  866MOL0     H16875   8.055   1.816   6.983 -1.8616 -1.5128  2.1214
  866MOL0     H16876   8.286   1.804   6.999  1.9921 -0.1195  3.7292
  866MOL0     H16877   8.218   1.708   7.136  1.1034  2.1862  0.0720
  866MOL0     H16878   8.260   1.507   7.009 -0.9869  0.3347 -2.3037
  866MOL0     H16879   8.316   1.598   6.871  1.0756 -1.1834 -0.1503
  866MOL0     H16880   8.454   1.527   7.117 -1.6232 -0.9099 -1.3437
  866MOL0     H16881   8.473   1.709   7.088 -0.8590  0.1270 -0.9990
  866MOL0     H16882   8.534   1.654   6.855 -3.4416 -1.9650 -0.7281
  866MOL0     H16883   8.532   1.485   6.891  0.5767  0.1901  0.4702
  866MOL0     H16884   8.724   1.676   7.021  0.1477 -0.0774  0.2989
  866MOL0     H16885   8.707   1.509   7.076 -1.8387 -1.5501 -0.8546
  866MOL0     H16886   8.780   1.646   6.801 -1.5798  0.0563 -0.2214
  866MOL0     H16887   8.744   1.476   6.811 -1.4019 -0.6510  0.8178
  866MOL0     H16888   8.981   1.610   6.938  0.2907  0.3975 -2.5412
  866MOL0     H16889   8.939   1.450   6.975 -0.4946  3.8858  4.1795
  866MOL0     H16890   7.846   1.780   6.885 -0.0956 -0.1245  0.4564
  866MOL0     H16891   7.607   1.724   6.821 -0.3805  1.2502  1.1085
  866MOL0     H16892   7.349   1.325   6.718 -0.0945 -1.3837 -0.0022
  866MOL0     H16893   7.139   1.262   6.619 -2.2887  0.4424  0.1788
  866MOL0     H16894   5.253   0.268   6.325 -0.2810 -0.2754  0.8010
  866MOL0     H16895   5.018   0.298   6.298  2.0767 -0.9887 -1.6106
  866MOL0     H16896   4.726   0.759   5.978  0.6518 -0.0554 -0.6553
  866MOL0     H16897   4.514   0.763   5.908  1.9272 -3.5330 -2.6444
  866MOL0     H16898   4.289   0.735   5.833 -0.7656 -1.7870  0.4845
  866MOL0     H16899   4.285   0.837   5.977  1.6884  0.7747 -2.6412
  866MOL0     H16900   4.076   0.838   5.904  1.5248  1.3126 -0.0911
  866MOL0     H16901   4.075   0.745   6.050 -0.9013  0.5474 -0.2324
  866MOL0     H16902   4.113   0.526   5.885  2.8683  1.4702 -0.0482
  866MOL0     H16903   4.046   0.632   5.770 -0.7914 -1.1903 -0.1640
  866MOL0     H16904   3.877   0.495   5.865  1.2532  1.4787 -3.6395
  866MOL0     H16905   3.907   0.535   6.022 -0.1123  0.9525 -0.2184
  866MOL0     H16906   3.707   0.900   5.930  0.2332 -0.0552 -2.5017
  866MOL0     H16907   4.389   0.482   6.202 -0.5976  1.7526  0.8739
  866MOL0     H16908   4.655   0.475   6.406 -0.6448  2.9818 -0.4106
  866MOL0     H16909   4.529   0.368   6.327 -0.6641  0.8186  1.7488
  866MOL0     H16910   4.706   0.365   6.287  1.7640  1.4352  1.7894
  867MOL0     O16911   7.589   4.923   3.824 -0.3678  0.3807  0.3920
  867MOL0     C16912   7.575   4.918   3.700 -0.6849  0.3911 -1.0271
  867MOL0     O16913   7.675   4.888   3.619  0.1807 -0.5479 -0.2818
  867MOL0     C16914   7.784   4.813   3.649 -0.6524  0.2518  0.7467
  867MOL0     C16915   7.802   4.732   3.763  1.1168 -0.6690 -0.3564
  867MOL0     C16916   7.930   4.683   3.779 -0.0838  0.3584 -0.5193
  867MOL0     C16917   8.035   4.685   3.683 -0.0143  0.6825  0.2715
  867MOL0     O16918   8.149   4.611   3.715 -0.0682 -0.4396  0.5771
  867MOL0     C16919   8.211   4.549   3.603  0.7614  0.2551  0.6097
  867MOL0     C16920   8.303   4.445   3.659  0.2385  1.0524  0.0854
  867MOL0     C16921   8.415   4.515   3.738 -0.2427  0.1614 -0.4240
  867MOL0     C16922   8.501   4.398   3.785  0.0191 -0.2088  0.1605
  867MOL0     C16923   8.614   4.442   3.871  0.7800 -0.1558 -0.2368
  867MOL0     C16924   8.721   4.328   3.880  0.3551 -0.1281 -0.1404
  867MOL0     C16925   8.849   4.351   3.961  0.2969  0.6479 -0.9572
  867MOL0     C16926   8.921   4.480   3.915 -0.7447 -0.1464  0.0168
  867MOL0     N16927   9.030   4.504   4.013 -0.1058 -0.1180 -0.3181
  867MOL0     C16928   9.019   4.574   4.135  0.5130  0.5313  0.2085
  867MOL0     C16929   9.122   4.528   4.209  0.1290  0.3059  0.8944
  867MOL0     C16930   9.148   4.562   4.347  0.1659  0.4597  0.1490
  867MOL0     C16931   9.293   4.547   4.380 -0.4190 -0.4400 -1.0851
  867MOL0     C16932   9.374   4.650   4.310  0.6666 -0.4125 -0.3582
  867MOL0     C16933   9.516   4.636   4.370 -0.1644  0.0986 -0.4444
  867MOL0     O16934   9.515   4.710   4.495  0.4806  0.0354 -0.3796
  867MOL0     C16935   9.638   4.727   4.558 -0.4713 -0.7382 -0.4080
  867MOL0     C16936   9.758   4.668   4.518  0.5828  0.2303 -0.0191
  867MOL0     C16937   9.872   4.696   4.592 -0.9024  0.5437 -0.0261
  867MOL0     C16938   9.876   4.780   4.711 -0.0349 -0.0139 -0.0481
  867MOL0     C16939   9.996   4.800   4.780  0.5060  0.1146 -0.2394
  867MOL0     O16940  10.113   4.743   4.734 -0.0603  0.1740  0.2783
  867MOL0     C16941  10.237   4.739   4.791  0.4266 -0.4499  0.0303
  867MOL0     C16942  10.331   4.845   4.775  1.2388  0.8334 -0.1276
  867MOL0     C16943  10.457   4.835   4.829 -0.0346 -0.1134  0.7679
  867MOL0     C16944  10.499   4.726   4.889 -0.3115 -0.5870 -0.0311
  867MOL0     O16945  10.631   4.725   4.920 -0.7722  0.5949 -0.1668
  867MOL0     C16946  10.661   4.683   5.050  0.5140 -0.0841 -0.6646
  867MOL0     C16947  10.810   4.723   5.072 -0.2398  0.0367  0.7320
  867MOL0     C16948  10.858   4.699   5.214 -0.3196 -0.9202  0.1784
  867MOL0     C16949  10.992   4.774   5.234  0.4782  0.1198  0.1782
  867MOL0     C16950  11.051   4.732   5.367  0.4654  0.0767  0.0462
  867MOL0     C16951  11.162   4.825   5.403  0.2455  0.5620  0.5809
  867MOL0     C16952  11.294   4.803   5.328 -0.0178 -0.3638  0.8328
  867MOL0     C16953  11.405   4.908   5.352 -0.5462  0.5199 -0.7173
  867MOL0    Cl16954  11.443   4.894   5.535 -0.2038 -0.4018  0.0065
  867MOL0     C16955  10.414   4.616   4.906  0.3456  0.3721 -0.2874
  867MOL0     C16956  10.273   4.620   4.864  0.7950  0.0225 -0.4226
  867MOL0     O16957   9.989   4.866   4.879  0.5875  0.4660 -0.6569
  867MOL0     C16958   9.752   4.842   4.740 -0.0928 -0.3534 -0.2100
  867MOL0     C16959   9.634   4.816   4.665 -0.5007 -0.1896 -0.0304
  867MOL0     N16960   9.194   4.430   4.140 -0.8813 -0.1596 -0.4101
  867MOL0     N16961   9.143   4.426   4.026  0.1708  0.4773  0.7494
  867MOL0     C16962   8.007   4.747   3.559 -0.4001  0.2556 -0.0006
  867MOL0     C16963   7.884   4.811   3.544  0.3213 -0.1710 -0.0469
  867MOL0     C16964   7.441   4.959   3.662  0.6587  0.0772  0.4491
  867MOL0     C16965   7.352   5.018   3.756  0.0317 -0.2645  0.3769
  867MOL0     C16966   7.227   5.066   3.718  0.5150 -0.1842  0.0075
  867MOL0     C16967   7.185   5.071   3.581  0.4453  0.1401 -0.2889
  867MOL0     O16968   7.060   5.119   3.537 -0.3952  0.4989 -0.3215
  867MOL0     C16969   7.019   5.236   3.603  0.3107  0.6668 -0.3140
  867MOL0     C16970   6.961   5.333   3.503 -0.8311  0.1589 -0.5272
  867MOL0     C16971   6.913   5.467   3.566 -0.2549 -0.3808  0.3188
  867MOL0     C16972   6.827   5.563   3.480 -0.1865  0.5790 -0.0138
  867MOL0     C16973   6.779   5.684   3.548 -0.3320 -0.1352 -0.0320
  867MOL0     C16974   6.740   5.793   3.581  1.0720 -0.4812 -0.2630
  867MOL0     C16975   7.270   5.002   3.491  0.0982 -0.2566 -0.6290
  867MOL0     C16976   7.388   4.946   3.528 -0.0087 -0.4729 -0.0366
  867MOL0     C16977   7.459   4.869   3.422 -0.4523  0.2614 -0.5919
  867MOL0     H16978   7.728   4.719   3.841  0.1170 -1.0913 -1.3383
  867MOL0     H16979   7.948   4.624   3.869 -1.4980 -1.0955 -1.1338
  867MOL0     H16980   8.126   4.507   3.550  1.1262  0.7478 -0.3878
  867MOL0     H16981   8.258   4.627   3.542 -0.2905 -0.6258 -1.4095
  867MOL0     H16982   8.349   4.386   3.579 -1.2757  0.1854 -0.1664
  867MOL0     H16983   8.246   4.367   3.708  0.4163  0.2534 -0.9450
  867MOL0     H16984   8.377   4.575   3.821  0.2645 -2.2704  1.7194
  867MOL0     H16985   8.476   4.579   3.674  1.0609  1.0190  1.5865
  867MOL0     H16986   8.440   4.332   3.847  0.0535 -0.2310  0.1709
  867MOL0     H16987   8.529   4.344   3.694 -1.5553  0.1938 -0.5961
  867MOL0     H16988   8.659   4.533   3.832  1.9272  0.2348  1.8259
  867MOL0     H16989   8.589   4.456   3.977 -2.4411 -0.7358 -0.8253
  867MOL0     H16990   8.670   4.244   3.928  1.3412 -0.9328 -0.4780
  867MOL0     H16991   8.764   4.300   3.784  0.2824 -2.5265  0.4738
  867MOL0     H16992   8.910   4.260   3.954  0.6869  0.8324 -0.0519
  867MOL0     H16993   8.826   4.364   4.067 -2.7461  0.3360 -1.4888
  867MOL0     H16994   8.970   4.458   3.820 -0.7114 -0.6641  0.1518
  867MOL0     H16995   8.865   4.573   3.898  0.2777  0.9726  2.3122
  867MOL0     H16996   8.941   4.644   4.165  0.2958  0.5969 -0.4922
  867MOL0     H16997   9.127   4.668   4.360  0.0352  0.3545  0.8428
  867MOL0     H16998   9.087   4.494   4.408 -1.0442  2.6194  1.4702
  867MOL0     H16999   9.290   4.579   4.484 -2.1989 -0.8904 -0.9616
  867MOL0     H17000   9.324   4.442   4.371 -0.4078 -0.6595  1.0449
  867MOL0     H17001   9.336   4.753   4.312  3.1876  0.5876  0.5283
  867MOL0     H17002   9.379   4.623   4.204  0.3735 -2.0555  0.0188
  867MOL0     H17003   9.582   4.683   4.296 -0.8474  3.3858  0.8385
  867MOL0     H17004   9.550   4.534   4.392 -1.1617 -0.3497 -0.9263
  867MOL0     H17005   9.754   4.601   4.432 -2.1736  1.9627 -1.3986
  867MOL0     H17006   9.960   4.641   4.561 -1.4998  1.3943 -3.6195
  867MOL0     H17007  10.298   4.930   4.715 -2.1494 -0.6809 -0.6113
  867MOL0     H17008  10.526   4.919   4.835  1.3995 -1.3084  1.4714
  867MOL0     H17009  10.605   4.735   5.129  1.9035  0.0198  0.2872
  867MOL0     H17010  10.659   4.575   5.067  0.1214  0.2829  2.1425
  867MOL0     H17011  10.866   4.673   4.993 -0.3645  0.8944  0.0879
  867MOL0     H17012  10.833   4.827   5.047  2.4283 -1.0461 -1.7737
  867MOL0     H17013  10.791   4.735   5.292  1.1819 -0.5815  1.3372
  867MOL0     H17014  10.872   4.591   5.226  2.2861 -0.9181 -1.7730
  867MOL0     H17015  10.980   4.882   5.222 -0.3492 -0.0777 -0.8606
  867MOL0     H17016  11.057   4.750   5.149 -0.8172  0.8090 -1.0364
  867MOL0     H17017  11.087   4.629   5.365 -0.6538 -0.3210 -2.3596
  867MOL0     H17018  10.967   4.739   5.437 -0.0026  1.0342 -0.5781
  867MOL0     H17019  11.124   4.924   5.377 -2.2714  0.3331  2.9114
  867MOL0     H17020  11.186   4.819   5.509  0.6640 -0.2749  0.4444
  867MOL0     H17021  11.271   4.807   5.221 -0.5707  2.7326  0.9781
  867MOL0     H17022  11.342   4.709   5.356  3.4037  0.1362 -2.5161
  867MOL0     H17023  11.496   4.872   5.305  0.8539  3.5344 -0.5397
  867MOL0     H17024  11.376   5.009   5.322  0.6122  0.8229 -0.8270
  867MOL0     H17025  10.458   4.526   4.949 -0.5827 -0.1136 -0.3462
  867MOL0     H17026  10.204   4.540   4.887  1.3639  0.0247  1.4586
  867MOL0     H17027   9.736   4.911   4.822  0.1684 -2.7548  2.0078
  867MOL0     H17028   9.530   4.842   4.683 -1.5267 -2.5162 -2.1139
  867MOL0     H17029   8.081   4.749   3.481 -0.6210  1.8405 -0.2075
  867MOL0     H17030   7.851   4.854   3.449 -2.4542 -4.4108 -1.2821
  867MOL0     H17031   7.379   5.006   3.861 -1.1609 -0.2970  0.6938
  867MOL0     H17032   7.155   5.102   3.790  2.5350  1.1145  1.4884
  867MOL0     H17033   7.106   5.286   3.648 -0.0335 -0.6072  1.9578
  867MOL0     H17034   6.944   5.205   3.676  3.6187 -0.3253  2.9895
  867MOL0     H17035   6.888   5.283   3.439 -0.5383  1.2042 -1.7400
  867MOL0     H17036   7.046   5.358   3.438 -0.4676 -0.3962 -0.2673
  867MOL0     H17037   6.995   5.523   3.611 -1.9105  2.3808  0.1693
  867MOL0     H17038   6.847   5.439   3.649  1.1585 -1.1603  1.2156
  867MOL0     H17039   6.887   5.598   3.395  1.5301 -0.7228  0.6062
  867MOL0     H17040   6.741   5.514   3.434  0.9711  1.5689 -3.5243
  867MOL0     H17041   6.704   5.884   3.623  0.4169 -1.8008  2.2327
  867MOL0     H17042   7.238   4.993   3.387 -1.1846 -3.3006 -0.0688
  867MOL0     H17043   7.389   4.814   3.358  0.0650  0.6747 -1.5421
  867MOL0     H17044   7.518   4.935   3.358  0.8003 -0.7598 -0.5213
  867MOL0     H17045   7.519   4.791   3.471  3.1044  2.0803 -1.7286
  868MOL0     O17046   8.149   6.978   3.046 -0.0933  0.0392  0.1725
  868MOL0     C17047   8.093   6.949   3.149  0.3904  0.5533  0.4464
  868MOL0     O17048   8.106   7.001   3.273  0.3944  0.6338 -0.1553
  868MOL0     C17049   8.212   7.077   3.294 -0.6966  0.0075 -0.6741
  868MOL0     C17050   8.337   7.015   3.315  0.2876  0.5558  0.0453
  868MOL0     C17051   8.450   7.097   3.317 -0.9370 -0.2904  0.9274
  868MOL0     C17052   8.446   7.234   3.302  0.5739 -0.3810 -0.2490
  868MOL0     O17053   8.566   7.304   3.308 -0.1243  0.2175  0.7145
  868MOL0     C17054   8.558   7.446   3.318 -0.0845  0.2165 -0.4162
  868MOL0     C17055   8.696   7.506   3.334  0.2675 -0.1991  0.5289
  868MOL0     C17056   8.712   7.651   3.316  0.1991 -0.3428 -0.0155
  868MOL0     C17057   8.839   7.699   3.389 -0.6081 -0.1309 -0.2167
  868MOL0     C17058   8.892   7.843   3.342  0.6353 -0.4941 -0.0436
  868MOL0     C17059   9.032   7.874   3.393  0.0893 -0.0570  0.6259
  868MOL0     C17060   9.055   7.910   3.535  0.0664  0.4819  0.8149
  868MOL0     C17061   9.168   7.813   3.583 -0.2214 -0.1824  0.0436
  868MOL0     N17062   9.209   7.858   3.714 -0.3819  0.1599  0.6229
  868MOL0     C17063   9.142   7.868   3.832 -0.0062  1.1277  0.1220
  868MOL0     C17064   9.222   7.934   3.914  0.7940  0.5803  0.4398
  868MOL0     C17065   9.177   7.964   4.058  0.1806  0.0898  0.1761
  868MOL0     C17066   9.291   8.037   4.143  0.9083 -0.2235  0.7350
  868MOL0     C17067   9.415   7.948   4.164  0.9194  0.1983 -0.5961
  868MOL0     C17068   9.508   8.008   4.276 -0.0957  0.2800  0.8662
  868MOL0     O17069   9.622   7.925   4.284 -0.1170 -0.0217 -0.0666
  868MOL0     C17070   9.709   7.937   4.395 -0.6037 -0.4812  0.5940
  868MOL0     C17071   9.813   7.847   4.415 -0.1346  0.9375 -0.5203
  868MOL0     C17072   9.895   7.853   4.529 -0.3300 -0.3030 -0.8082
  868MOL0     C17073   9.880   7.958   4.621 -0.9543 -0.6397  0.0581
  868MOL0     C17074   9.975   7.972   4.733  0.1345  0.0518 -0.1602
  868MOL0     O17075   9.977   8.089   4.802 -0.3205  0.0043 -0.0016
  868MOL0     C17076  10.065   8.088   4.909 -0.5786 -0.2530 -0.1916
  868MOL0     C17077  10.052   8.007   5.021 -0.4110  0.4108 -0.2192
  868MOL0     C17078  10.145   8.010   5.127 -0.2897  0.3494 -0.4900
  868MOL0     C17079  10.250   8.095   5.125 -0.3285  0.4034  0.4557
  868MOL0     O17080  10.341   8.126   5.227  0.2182  0.1642  0.2324
  868MOL0     C17081  10.338   8.035   5.328 -0.3093  0.0138 -0.0211
  868MOL0     C17082  10.452   8.069   5.424 -0.2329  0.0637  0.9863
  868MOL0     C17083  10.417   8.198   5.506 -0.7310  0.3177 -0.5239
  868MOL0     C17084  10.450   8.346   5.460  0.6589  0.0456  0.2195
  868MOL0     C17085  10.454   8.448   5.570  0.0327 -0.7084 -0.1509
  868MOL0     C17086  10.594   8.446   5.630 -0.2860  0.4532  0.2332
  868MOL0     C17087  10.593   8.525   5.762  0.1981 -0.2610  0.0961
  868MOL0     C17088  10.729   8.596   5.800  0.2561  0.4554 -0.2199
  868MOL0    Cl17089  10.834   8.450   5.853  0.4898 -0.1570  0.1761
  868MOL0     C17090  10.272   8.180   5.022 -0.2159 -0.2095 -0.0262
  868MOL0     C17091  10.179   8.181   4.920  0.3151 -0.0861 -0.2342
  868MOL0     O17092  10.045   7.878   4.760  0.8033 -0.0568  0.1079
  868MOL0     C17093   9.791   8.057   4.603 -0.2872  0.2155  0.5590
  868MOL0     C17094   9.707   8.048   4.490 -0.7292  0.0824 -0.3361
  868MOL0     N17095   9.338   7.960   3.850 -0.7397  0.0728 -0.1980
  868MOL0     N17096   9.329   7.913   3.730 -0.2261 -0.3761  0.7322
  868MOL0     C17097   8.327   7.296   3.282 -0.7151  0.1366 -0.3452
  868MOL0     C17098   8.210   7.220   3.284  0.6602 -0.0220 -0.2080
  868MOL0     C17099   7.984   6.848   3.129 -0.3120 -0.5145  0.0505
  868MOL0     C17100   7.989   6.732   3.201 -0.6437 -0.3114  0.0391
  868MOL0     C17101   7.892   6.630   3.193  0.2708 -0.4048  0.2474
  868MOL0     C17102   7.793   6.640   3.100  0.9531 -0.3486  0.6956
  868MOL0     O17103   7.710   6.529   3.102  0.8292 -0.3942  0.4466
  868MOL0     C17104   7.603   6.528   3.000  0.0933 -0.2616  1.3097
  868MOL0     C17105   7.580   6.377   2.979  0.2341 -0.2537  0.6174
  868MOL0     C17106   7.480   6.359   2.866 -0.3612 -0.1180  0.3805
  868MOL0     C17107   7.536   6.391   2.731 -0.6678  0.2782  0.4247
  868MOL0     C17108   7.444   6.431   2.625 -0.8643  0.1683 -0.4213
  868MOL0     C17109   7.381   6.472   2.530  0.1378  0.0632  0.7300
  868MOL0     C17110   7.779   6.756   3.030  0.3004 -0.6908  0.2627
  868MOL0     C17111   7.877   6.857   3.034  0.2006 -0.1086 -0.1742
  868MOL0     C17112   7.868   6.974   2.939 -0.0253  0.1396 -0.1054
  868MOL0     H17113   8.353   6.910   3.339  2.4394  0.8387  0.0003
  868MOL0     H17114   8.550   7.057   3.324 -0.3829  0.5514 -1.3782
  868MOL0     H17115   8.509   7.478   3.225  0.0525 -1.7227 -1.1914
  868MOL0     H17116   8.498   7.479   3.404 -0.5469 -0.8494 -0.3233
  868MOL0     H17117   8.762   7.455   3.262 -2.0702 -2.1607 -0.3845
  868MOL0     H17118   8.734   7.487   3.435  0.7334  0.9582  0.5858
  868MOL0     H17119   8.628   7.688   3.377  1.0511 -1.8390  2.1904
  868MOL0     H17120   8.705   7.675   3.210 -0.0270 -3.3886 -0.7944
  868MOL0     H17121   8.820   7.706   3.496  0.3691 -1.4312  0.0575
  868MOL0     H17122   8.914   7.621   3.375  1.1586  1.8036 -2.4115
  868MOL0     H17123   8.891   7.852   3.233  1.7401  1.2779  0.0641
  868MOL0     H17124   8.826   7.918   3.388 -1.3219 -1.7732 -0.6148
  868MOL0     H17125   9.086   7.784   3.360 -0.4979  0.0867 -0.8154
  868MOL0     H17126   9.064   7.955   3.327  2.2781 -1.0294  0.3850
  868MOL0     H17127   8.958   7.899   3.585 -0.0181  2.1901  1.0805
  868MOL0     H17128   9.093   8.010   3.558 -0.1937  1.2396 -1.8248
  868MOL0     H17129   9.131   7.710   3.590  1.5880 -0.9407 -0.7228
  868MOL0     H17130   9.257   7.816   3.520  0.5505 -0.2457  1.0977
  868MOL0     H17131   9.044   7.830   3.858 -0.3253  2.9080  1.7634
  868MOL0     H17132   9.092   8.032   4.052 -1.6663 -2.0478  0.8625
  868MOL0     H17133   9.144   7.879   4.117 -1.7643  1.2023  0.7657
  868MOL0     H17134   9.321   8.134   4.101  0.6799 -0.9253 -1.1377
  868MOL0     H17135   9.242   8.062   4.237  2.0429 -0.9702  1.5420
  868MOL0     H17136   9.476   7.950   4.073  3.4905  1.7355  1.0226
  868MOL0     H17137   9.378   7.847   4.185 -0.7784  0.8036 -0.5435
  868MOL0     H17138   9.458   8.011   4.373 -2.5169  0.9326 -0.3372
  868MOL0     H17139   9.545   8.109   4.258 -1.6762  1.2384  2.7057
  868MOL0     H17140   9.818   7.768   4.340  2.2385  2.5260 -2.1502
  868MOL0     H17141   9.971   7.781   4.559 -1.0254 -1.6039 -2.0165
  868MOL0     H17142   9.974   7.932   5.021 -1.6225  1.6206  0.6227
  868MOL0     H17143  10.140   7.937   5.207 -0.2057 -0.9167 -1.6165
  868MOL0     H17144  10.243   8.046   5.381 -1.0211  0.1240 -1.2682
  868MOL0     H17145  10.342   7.933   5.289 -1.1721  0.3098 -0.9557
  868MOL0     H17146  10.471   7.986   5.492  0.1921 -2.1702 -1.6909
  868MOL0     H17147  10.541   8.088   5.364 -0.1007 -0.1047  1.1299
  868MOL0     H17148  10.312   8.198   5.538 -0.9783  1.9738 -1.2339
  868MOL0     H17149  10.471   8.192   5.601 -2.5295  0.5736  0.5781
  868MOL0     H17150  10.359   8.364   5.402 -0.5116 -2.4456  1.1630
  868MOL0     H17151  10.534   8.343   5.389  0.3735 -2.7959 -0.1145
  868MOL0     H17152  10.378   8.422   5.645 -2.6655 -0.3086 -2.5754
  868MOL0     H17153  10.440   8.543   5.519  0.1761 -0.1976  0.7328
  868MOL0     H17154  10.624   8.346   5.661 -1.9750 -0.4144 -0.7970
  868MOL0     H17155  10.670   8.489   5.564  0.2022 -0.7605 -0.0151
  868MOL0     H17156  10.561   8.458   5.842 -0.6770 -1.0381 -0.8772
  868MOL0     H17157  10.515   8.601   5.754  0.6875  0.0471 -3.3517
  868MOL0     H17158  10.781   8.653   5.722  0.0958  2.7920  1.2987
  868MOL0     H17159  10.714   8.660   5.887 -0.4153 -0.0926  0.0840
  868MOL0     H17160  10.355   8.249   5.014  0.9574 -1.6352 -0.4795
  868MOL0     H17161  10.210   8.241   4.835  1.1875 -1.2950 -0.7940
  868MOL0     H17162   9.789   8.142   4.670  1.1530  1.7788 -1.2419
  868MOL0     H17163   9.633   8.127   4.488 -0.4398  0.3578 -0.3722
  868MOL0     H17164   8.328   7.404   3.280  0.1974  0.1712  0.9749
  868MOL0     H17165   8.116   7.271   3.265  0.4320  0.1830  1.3140
  868MOL0     H17166   8.056   6.710   3.284 -0.5303 -1.3120 -0.3036
  868MOL0     H17167   7.915   6.541   3.251  0.1756 -1.1330 -0.8077
  868MOL0     H17168   7.613   6.575   2.902 -1.1454 -3.5515 -0.5616
  868MOL0     H17169   7.522   6.576   3.056  1.6848  2.8401  1.1703
  868MOL0     H17170   7.519   6.340   3.061 -3.4224  1.4963 -1.0445
  868MOL0     H17171   7.664   6.310   2.961 -1.3996 -2.2016 -0.1706
  868MOL0     H17172   7.391   6.421   2.883  0.2730  0.3899  1.9700
  868MOL0     H17173   7.447   6.255   2.875 -1.5851  0.2573  0.4162
  868MOL0     H17174   7.611   6.470   2.738 -1.8897  1.3153  2.5046
  868MOL0     H17175   7.592   6.301   2.702 -1.3190 -0.4789  1.4650
  868MOL0     H17176   7.328   6.512   2.446  0.6274 -0.1513  0.3160
  868MOL0     H17177   7.704   6.763   2.952  0.4390  0.5031  0.2218
  868MOL0     H17178   7.926   6.942   2.852  0.4486 -1.9412  0.9268
  868MOL0     H17179   7.763   6.999   2.919 -0.0082 -0.0894 -0.4936
  868MOL0     H17180   7.912   7.068   2.973  1.3880 -0.8701  0.9795
  869MOL0     O17181   3.350  10.460   3.396  0.3038 -0.1674 -0.1552
  869MOL0     C17182   3.325  10.509   3.503  0.3744 -0.6468  0.4361
  869MOL0     O17183   3.420  10.566   3.589  0.3661  0.2014  0.0779
  869MOL0     C17184   3.549  10.584   3.549  0.3386  0.6629 -0.1601
  869MOL0     C17185   3.638  10.477   3.571 -0.5899 -0.2699 -0.3767
  869MOL0     C17186   3.762  10.496   3.515 -0.1480  0.5498 -0.4387
  869MOL0     C17187   3.797  10.603   3.436 -0.3669  0.5505  0.3241
  869MOL0     O17188   3.915  10.611   3.363 -0.3357  0.3601 -0.4026
  869MOL0     C17189   4.020  10.507   3.363 -0.2766 -0.3386 -0.0931
  869MOL0     C17190   4.128  10.532   3.260 -0.0785 -0.0671  0.7686
  869MOL0     C17191   4.247  10.440   3.283  0.0258 -0.3066  0.7147
  869MOL0     C17192   4.344  10.449   3.158  0.0738  0.1092 -0.0801
  869MOL0     C17193   4.467  10.366   3.174 -0.2404  0.1734 -0.0206
  869MOL0     C17194   4.571  10.399   3.056 -0.6804 -0.0898  0.3208
  869MOL0     C17195   4.704  10.318   3.070  0.2327  0.1779  0.3033
  869MOL0     C17196   4.791  10.317   2.946 -0.0429 -0.4567  0.1778
  869MOL0     N17197   4.796  10.438   2.863 -0.5305 -0.9988 -0.7014
  869MOL0     C17198   4.898  10.531   2.872 -0.4101  0.7841  0.3488
  869MOL0     C17199   4.870  10.622   2.779  0.0182  0.2445 -0.1472
  869MOL0     C17200   4.945  10.757   2.761 -1.1551  0.5245  0.3735
  869MOL0     C17201   5.099  10.739   2.785 -0.5657  0.2834  0.8169
  869MOL0     C17202   5.173  10.869   2.776 -0.8016 -0.2012  0.7773
  869MOL0     C17203   5.328  10.857   2.783  0.8432 -1.2670 -0.5030
  869MOL0     O17204   5.360  10.776   2.669 -0.5873 -0.0240  0.8476
  869MOL0     C17205   5.492  10.733   2.645  0.0637  0.8634 -1.0840
  869MOL0     C17206   5.597  10.750   2.740 -0.5543  0.4034 -0.5474
  869MOL0     C17207   5.731  10.708   2.708  0.3238 -0.4589  0.2403
  869MOL0     C17208   5.764  10.662   2.579  0.3563  0.2465 -0.0657
  869MOL0     C17209   5.907  10.634   2.550 -0.1538 -0.2064 -0.3417
  869MOL0     O17210   5.998  10.718   2.603  0.1285  0.7260 -0.1909
  869MOL0     C17211   6.127  10.700   2.600  0.0250 -0.3882  0.0581
  869MOL0     C17212   6.209  10.605   2.537  0.1006 -0.8485  0.6431
  869MOL0     C17213   6.354  10.609   2.558 -0.0633 -0.3983  0.0645
  869MOL0     C17214   6.408  10.701   2.649  0.4796  1.1705  0.2533
  869MOL0     O17215   6.547  10.691   2.664 -0.5777  0.8629  0.3227
  869MOL0     C17216   6.618  10.796   2.730  1.2171  0.2149 -1.0188
  869MOL0     C17217   6.766  10.770   2.691 -0.9402  0.3513  0.9317
  869MOL0     C17218   6.843  10.888   2.727  0.4349  0.6598  0.8954
  869MOL0     C17219   6.982  10.896   2.661 -0.0175 -0.0556  0.0382
  869MOL0     C17220   7.101  10.893   2.761  0.3540 -0.3302  0.4186
  869MOL0     C17221   7.226  10.947   2.698 -0.4663 -0.1099  0.0056
  869MOL0     C17222   7.265  10.858   2.576  0.2482 -0.0839 -0.3354
  869MOL0     C17223   7.417  10.880   2.541  0.5005  0.1587 -0.4265
  869MOL0    Cl17224   7.437  11.026   2.440  0.0043 -0.1259  0.4764
  869MOL0     C17225   6.321  10.797   2.709  0.0476 -0.1643 -0.2659
  869MOL0     C17226   6.188  10.790   2.692  0.5904 -0.2580 -0.1505
  869MOL0     O17227   5.922  10.534   2.481  0.8530  0.0775 -0.3618
  869MOL0     C17228   5.658  10.645   2.486  0.4117  0.0435 -1.0956
  869MOL0     C17229   5.524  10.677   2.522 -0.0328  0.0158  0.0236
  869MOL0     N17230   4.752  10.588   2.717 -0.1480 -0.5701 -0.0890
  869MOL0     N17231   4.706  10.476   2.763 -0.2725  0.5674 -0.3614
  869MOL0     C17232   3.705  10.702   3.420  0.1498  0.0102  0.0644
  869MOL0     C17233   3.580  10.692   3.467  0.6681 -0.4892 -0.4376
  869MOL0     C17234   3.177  10.504   3.524  0.6228  0.6421 -0.0207
  869MOL0     C17235   3.096  10.415   3.448 -0.7636  0.2203 -0.0274
  869MOL0     C17236   2.957  10.414   3.461  0.2888 -0.3800  0.0248
  869MOL0     C17237   2.891  10.511   3.542  0.2791 -0.6042 -0.1818
  869MOL0     O17238   2.757  10.534   3.566 -0.0765 -0.1824  0.4514
  869MOL0     C17239   2.674  10.414   3.555 -0.0869 -0.8265  0.2919
  869MOL0     C17240   2.534  10.450   3.614  0.1616 -1.0985 -0.4117
  869MOL0     C17241   2.432  10.342   3.589 -0.2592 -0.3138  0.5014
  869MOL0     C17242   2.290  10.348   3.650 -0.5871  0.0664  0.0305
  869MOL0     C17243   2.205  10.424   3.559  0.3612  0.2030  0.6548
  869MOL0     C17244   2.141  10.481   3.477  0.3598 -0.0965  0.6548
  869MOL0     C17245   2.965  10.604   3.612 -0.7325  0.2716  0.1767
  869MOL0     C17246   3.109  10.600   3.610  0.4171  0.1709  0.4822
  869MOL0     C17247   3.189  10.703   3.675 -0.0207  0.9851 -0.5479
  869MOL0     H17248   3.609  10.384   3.618  0.7517 -1.4546 -1.7873
  869MOL0     H17249   3.832  10.414   3.533 -4.1885 -3.0094  0.7658
  869MOL0     H17250   4.082  10.510   3.453  3.3114 -4.2210 -2.0666
  869MOL0     H17251   3.985  10.405   3.341  1.6465 -1.2241  0.6907
  869MOL0     H17252   4.155  10.638   3.265 -3.6331  0.9131  1.7510
  869MOL0     H17253   4.086  10.514   3.160  1.8978 -0.3122 -0.0651
  869MOL0     H17254   4.225  10.333   3.288  3.0056 -0.9973  0.6345
  869MOL0     H17255   4.301  10.478   3.370 -0.1761 -1.2813  1.2790
  869MOL0     H17256   4.302  10.419   3.061 -1.0834 -1.3073  0.8325
  869MOL0     H17257   4.368  10.556   3.150  2.8474  0.0061  4.0868
  869MOL0     H17258   4.512  10.390   3.271 -1.3440 -0.9796  0.8150
  869MOL0     H17259   4.436  10.261   3.177 -1.9280  0.6683  2.0205
  869MOL0     H17260   4.526  10.374   2.959  0.4055  2.8864 -1.0483
  869MOL0     H17261   4.580  10.508   3.052 -2.4520  0.2382  2.6379
  869MOL0     H17262   4.673  10.216   3.092 -3.3260  1.2461  0.9224
  869MOL0     H17263   4.769  10.361   3.146  2.1748  1.8304 -2.1362
  869MOL0     H17264   4.890  10.282   2.977  0.1524 -0.0720 -0.0026
  869MOL0     H17265   4.758  10.239   2.877  0.0116  0.7598 -1.2923
  869MOL0     H17266   4.980  10.538   2.943 -0.2054  0.8349  0.1087
  869MOL0     H17267   4.920  10.799   2.663  2.3766  0.3696 -0.7343
  869MOL0     H17268   4.902  10.820   2.839  0.4671  0.9549  0.9517
  869MOL0     H17269   5.108  10.693   2.884  0.2030  0.0865  0.6616
  869MOL0     H17270   5.137  10.667   2.712  1.8076 -1.0345  3.2126
  869MOL0     H17271   5.150  10.935   2.860  1.5839  0.2599  1.1139
  869MOL0     H17272   5.150  10.916   2.680  1.7866 -1.2478 -0.4437
  869MOL0     H17273   5.347  10.812   2.881  0.3767 -2.2312 -0.8404
  869MOL0     H17274   5.374  10.956   2.793  1.3454 -1.6876  2.5413
  869MOL0     H17275   5.575  10.789   2.839 -2.1986 -1.8712  0.0632
  869MOL0     H17276   5.808  10.727   2.783  1.0496  0.1854 -0.6484
  869MOL0     H17277   6.174  10.521   2.479 -1.4718  1.1402 -1.4959
  869MOL0     H17278   6.413  10.538   2.500 -0.6993  1.2521 -2.8349
  869MOL0     H17279   6.590  10.898   2.699  1.4074 -0.2123 -2.7048
  869MOL0     H17280   6.604  10.789   2.838 -0.1346  0.5081 -1.1564
  869MOL0     H17281   6.814  10.683   2.737 -0.1857  0.4793  0.4142
  869MOL0     H17282   6.768  10.753   2.583  1.5072  0.1963  0.9351
  869MOL0     H17283   6.783  10.972   2.690  1.4367  0.8193 -0.4531
  869MOL0     H17284   6.854  10.894   2.836  0.4802 -0.1291  0.9356
  869MOL0     H17285   6.978  10.992   2.608  0.9487 -0.7073 -1.2624
  869MOL0     H17286   7.001  10.815   2.590 -0.0441 -1.3577  1.4616
  869MOL0     H17287   7.119  10.789   2.790  0.1722 -0.6994 -0.7277
  869MOL0     H17288   7.073  10.955   2.847  1.1089  1.0079 -0.2652
  869MOL0     H17289   7.209  11.052   2.674  1.0885  0.8638  2.6713
  869MOL0     H17290   7.315  10.942   2.762 -0.1558 -3.3911 -0.5057
  869MOL0     H17291   7.195  10.876   2.493 -0.4434  1.4578  0.5469
  869MOL0     H17292   7.254  10.751   2.592  1.1057 -0.1877 -0.4043
  869MOL0     H17293   7.470  10.894   2.636  0.3476 -0.2018 -0.2876
  869MOL0     H17294   7.460  10.789   2.499  1.6093 -0.3374  1.6659
  869MOL0     H17295   6.362  10.872   2.776  0.9935 -0.1165 -0.8822
  869MOL0     H17296   6.126  10.864   2.741  0.6828  0.0115 -0.4442
  869MOL0     H17297   5.688  10.607   2.389 -0.0918  1.8285 -1.9928
  869MOL0     H17298   5.439  10.665   2.456 -0.1109 -0.4932  0.2095
  869MOL0     H17299   3.727  10.795   3.368  0.7433  1.1231  2.2001
  869MOL0     H17300   3.497  10.758   3.444 -0.7338 -0.6357  3.4992
  869MOL0     H17301   3.147  10.340   3.387  1.1120  1.1650  0.3270
  869MOL0     H17302   2.895  10.337   3.416  0.9331 -1.5717  1.1350
  869MOL0     H17303   2.710  10.325   3.609 -1.6004 -0.6724  1.6376
  869MOL0     H17304   2.668  10.404   3.447  0.3468  2.3526 -0.1027
  869MOL0     H17305   2.493  10.538   3.564 -1.6166 -2.4969 -1.5495
  869MOL0     H17306   2.532  10.475   3.720  1.7310 -0.0737 -0.5810
  869MOL0     H17307   2.474  10.251   3.632  0.2504  0.2460  1.2329
  869MOL0     H17308   2.413  10.328   3.483  1.8174  2.9509 -0.4393
  869MOL0     H17309   2.252  10.246   3.645 -0.6020  0.1169 -1.3741
  869MOL0     H17310   2.292  10.391   3.750 -1.9132  2.8027 -1.0168
  869MOL0     H17311   2.092  10.530   3.396  0.9178 -1.2901 -0.4432
  869MOL0     H17312   2.918  10.684   3.668  1.6625  2.5279 -0.8037
  869MOL0     H17313   3.246  10.771   3.612  0.2376  1.6710  0.4019
  869MOL0     H17314   3.122  10.759   3.741  1.0094  1.0884  0.4526
  869MOL0     H17315   3.252  10.645   3.744 -2.8369  0.0698  1.4441
  870MOL0     O17316   7.614   0.541   8.802  0.1969 -0.1234  0.1791
  870MOL0     C17317   7.542   0.606   8.882 -0.2210 -0.2902  0.5092
  870MOL0     O17318   7.523   0.578   9.019  0.2865  0.3277 -0.1089
  870MOL0     C17319   7.574   0.461   9.074 -0.5229  1.0986  0.7940
  870MOL0     C17320   7.717   0.434   9.074  0.1112 -0.6375  0.5266
  870MOL0     C17321   7.766   0.333   9.150  0.4904  0.4236  0.7889
  870MOL0     C17322   7.672   0.252   9.228 -0.2207 -0.7042 -0.3057
  870MOL0     O17323   7.698   0.135   9.302  0.1070 -0.2384 -0.4029
  870MOL0     C17324   7.836   0.125   9.358  0.1925  0.1570  0.4859
  870MOL0     C17325   7.881   0.243   9.450 -0.1607 -0.0619  0.3247
  870MOL0     C17326   8.028   0.223   9.508 -0.4993 -0.1247 -0.2580
  870MOL0     C17327   8.049   0.329   9.621  0.4909  0.3432 -0.3363
  870MOL0     C17328   8.198   0.333   9.649  0.7501 -0.4320  0.7001
  870MOL0     C17329   8.227   0.443   9.752 -0.2250  0.1233  0.0000
  870MOL0     C17330   8.366   0.508   9.735  0.7511  0.1632  0.5938
  870MOL0     C17331   8.418   0.594   9.852  0.0396 -0.6583 -0.8401
  870MOL0     N17332   8.480   0.509   9.956 -0.6346  0.2350 -0.1239
  870MOL0     C17333   8.597   0.443   9.936 -0.5660 -0.3588  0.2340
  870MOL0     C17334   8.602   0.345  10.020 -0.6711 -0.2316  0.2240
  870MOL0     C17335   8.720   0.253  10.040  0.3861  0.1741  0.3202
  870MOL0     C17336   8.826   0.334  10.125  0.1469  0.5900 -0.0247
  870MOL0     C17337   8.945   0.248  10.141  0.1665  0.1932 -0.3905
  870MOL0     C17338   9.041   0.313  10.228  0.8838 -0.2360 -0.2681
  870MOL0     O17339   9.158   0.228  10.246  0.8836 -0.8183  0.3420
  870MOL0     C17340   9.267   0.269  10.319  0.1764 -0.7053  1.1360
  870MOL0     C17341   9.287   0.408  10.361  0.3578 -0.5876 -0.5064
  870MOL0     C17342   9.408   0.450  10.423 -0.3016 -0.4602  0.4256
  870MOL0     C17343   9.508   0.358  10.450 -0.9195  0.8723  0.2350
  870MOL0     C17344   9.634   0.392  10.518  0.1233 -0.1432 -0.7995
  870MOL0     O17345   9.713   0.288  10.563 -0.3681  0.3461 -0.2201
  870MOL0     C17346   9.823   0.325  10.641 -0.3703 -0.4826 -0.8948
  870MOL0     C17347   9.819   0.272  10.773 -0.8182  0.0241 -0.2126
  870MOL0     C17348   9.921   0.313  10.869  0.6694  0.5166  1.4057
  870MOL0     C17349  10.039   0.373  10.812 -0.2837  0.6429  0.4108
  870MOL0     O17350  10.153   0.408  10.885 -0.2158 -0.2586  0.0865
  870MOL0     C17351  10.156   0.375  11.032 -0.3737  0.5364  0.1120
  870MOL0     C17352  10.274   0.424  11.102 -0.0707 -0.2132  0.0109
  870MOL0     C17353  10.412   0.404  11.032 -0.1449  0.5220  0.4560
  870MOL0     C17354  10.465   0.487  10.918 -0.0259 -0.2280 -0.0339
  870MOL0     C17355  10.624   0.505  10.911 -0.0529  0.0622  0.1960
  870MOL0     C17356  10.692   0.382  10.854 -0.1457 -0.3249  0.0140
  870MOL0     C17357  10.847   0.389  10.836 -0.2014 -1.3708  0.2894
  870MOL0     C17358  10.924   0.255  10.820  0.6430  0.6502 -0.1219
  870MOL0    Cl17359  11.092   0.314  10.759 -0.2131  0.0519  0.6130
  870MOL0     C17360  10.038   0.414  10.682 -0.2232 -0.3527  1.5853
  870MOL0     C17361   9.933   0.394  10.591 -0.2507 -0.0830 -1.0847
  870MOL0     O17362   9.652   0.513  10.533  0.1208  0.3979 -0.4088
  870MOL0     C17363   9.487   0.221  10.412 -0.0256 -0.3694 -0.5527
  870MOL0     C17364   9.371   0.176  10.345  0.0568 -0.7676 -0.4924
  870MOL0     N17365   8.494   0.348  10.092 -0.3946 -0.1709 -0.4120
  870MOL0     N17366   8.422   0.449  10.063 -0.5827 -0.2943  0.1006
  870MOL0     C17367   7.534   0.267   9.205  0.9834  0.2635  0.6992
  870MOL0     C17368   7.492   0.382   9.149  0.5654  0.4129  0.1155
  870MOL0     C17369   7.477   0.734   8.831  0.2872  0.0800 -0.7614
  870MOL0     C17370   7.351   0.776   8.886  0.4220 -0.7945 -0.2201
  870MOL0     C17371   7.281   0.894   8.843 -0.6662  1.2400 -0.2359
  870MOL0     C17372   7.342   0.976   8.755  0.2667  0.3800  0.3850
  870MOL0     O17373   7.298   1.089   8.691  0.4006 -0.2430 -0.1500
  870MOL0     C17374   7.302   1.211   8.765  0.9975  0.4104  0.3105
  870MOL0     C17375   7.164   1.268   8.800 -0.2813 -0.6536 -0.0767
  870MOL0     C17376   7.102   1.331   8.673 -0.1051  0.1032  0.3721
  870MOL0     C17377   6.962   1.391   8.709 -0.6079 -0.6002  0.2939
  870MOL0     C17378   6.967   1.523   8.771 -0.0726 -0.8375  0.1936
  870MOL0     C17379   6.983   1.638   8.821 -0.2387 -0.0029 -0.1811
  870MOL0     C17380   7.463   0.938   8.708  0.5331  0.8427  0.6022
  870MOL0     C17381   7.533   0.819   8.737  0.2673  0.1903  0.0179
  870MOL0     C17382   7.648   0.782   8.650 -0.0078  0.3705  0.0336
  870MOL0     H17383   7.779   0.498   9.013  0.3660 -1.5300 -0.1651
  870MOL0     H17384   7.874   0.322   9.160  0.5318 -1.5116 -1.1000
  870MOL0     H17385   7.854   0.027   9.405 -1.2918 -0.8527 -0.9385
  870MOL0     H17386   7.904   0.136   9.273  1.2983 -0.1448  1.3035
  870MOL0     H17387   7.819   0.242   9.540 -2.4758  0.7034 -1.2095
  870MOL0     H17388   7.875   0.341   9.403 -5.1535 -0.6200 -0.6950
  870MOL0     H17389   8.106   0.228   9.432  0.4548  1.9546  0.7683
  870MOL0     H17390   8.032   0.125   9.556  1.3917 -0.4045 -0.9215
  870MOL0     H17391   8.015   0.427   9.587  0.2118 -0.1427 -1.5063
  870MOL0     H17392   7.979   0.295   9.697 -1.5875  0.3331 -2.1474
  870MOL0     H17393   8.231   0.238   9.690  0.9058 -1.1549 -1.0021
  870MOL0     H17394   8.247   0.354   9.553 -1.2249  0.3431 -0.1938
  870MOL0     H17395   8.146   0.516   9.749 -0.9670 -0.7055 -2.2879
  870MOL0     H17396   8.205   0.408   9.853 -5.0086  0.2734 -0.7220
  870MOL0     H17397   8.347   0.572   9.649  0.3059  1.8988  1.9415
  870MOL0     H17398   8.436   0.431   9.699  1.6186  0.9499  0.5769
  870MOL0     H17399   8.490   0.659   9.801  0.5900 -0.9061 -0.3989
  870MOL0     H17400   8.353   0.658   9.912  3.8971  2.1077  0.8309
  870MOL0     H17401   8.664   0.462   9.852 -1.0950 -0.3428 -0.1903
  870MOL0     H17402   8.674   0.170  10.093 -0.9369 -0.8207 -2.2288
  870MOL0     H17403   8.770   0.220   9.949 -0.6531  0.4013 -0.3454
  870MOL0     H17404   8.846   0.435  10.089 -0.0727  0.7986  0.4407
  870MOL0     H17405   8.784   0.352  10.224  0.6932  1.1601  0.1105
  870MOL0     H17406   8.994   0.242  10.044  0.9090  0.8525 -0.0717
  870MOL0     H17407   8.920   0.150  10.184  0.1716 -0.3422 -1.5792
  870MOL0     H17408   9.012   0.338  10.331  1.8653 -0.0489 -0.0332
  870MOL0     H17409   9.059   0.412  10.184 -0.6368 -0.3228 -1.1746
  870MOL0     H17410   9.207   0.474  10.328 -1.4808 -3.1002 -1.4536
  870MOL0     H17411   9.424   0.553  10.453 -0.1754 -0.2259 -0.4172
  870MOL0     H17412   9.730   0.215  10.797 -0.8129 -0.4298 -1.2235
  870MOL0     H17413   9.899   0.298  10.974  0.8628  0.2291  1.4078
  870MOL0     H17414  10.074   0.423  11.087  0.1429  0.8100  0.6582
  870MOL0     H17415  10.148   0.267  11.048  1.1284  0.3753 -0.0737
  870MOL0     H17416  10.267   0.532  11.116  0.5660 -0.2829  0.9483
  870MOL0     H17417  10.273   0.365  11.193 -0.7498 -0.2224  0.0052
  870MOL0     H17418  10.481   0.417  11.116  0.5153  1.9842 -0.2895
  870MOL0     H17419  10.414   0.300  10.998 -1.3959  0.9692 -1.1091
  870MOL0     H17420  10.427   0.590  10.913 -1.2823 -0.6933 -0.4519
  870MOL0     H17421  10.416   0.458  10.825  1.1379 -0.3791 -0.6082
  870MOL0     H17422  10.662   0.519  11.012  1.8452  1.4468 -0.6539
  870MOL0     H17423  10.644   0.588  10.842  3.6162 -1.2036 -0.5342
  870MOL0     H17424  10.675   0.295  10.918  1.5215 -1.0622 -0.4715
  870MOL0     H17425  10.650   0.356  10.757 -0.0088 -3.2446  0.6575
  870MOL0     H17426  10.895   0.434  10.923  0.9489 -0.2252 -0.8708
  870MOL0     H17427  10.853   0.452  10.746 -2.4823  1.8457  2.1908
  870MOL0     H17428  10.941   0.201  10.913 -1.2677  0.0776 -0.0584
  870MOL0     H17429  10.880   0.193  10.741  1.5991  0.3951 -0.4703
  870MOL0     H17430  10.118   0.478  10.647  0.4441 -1.7037  0.5683
  870MOL0     H17431   9.924   0.426  10.487 -3.2988 -4.0419 -2.3436
  870MOL0     H17432   9.556   0.140  10.433 -2.3185 -2.5810 -1.0543
  870MOL0     H17433   9.366   0.072  10.313 -0.3227 -0.9987  0.3019
  870MOL0     H17434   7.472   0.202   9.266  1.0315 -1.1093 -0.6495
  870MOL0     H17435   7.386   0.407   9.151  0.3658 -0.1252 -1.8045
  870MOL0     H17436   7.309   0.707   8.958 -0.7432  0.3876  0.2615
  870MOL0     H17437   7.179   0.901   8.879  0.1812 -2.6281  3.9577
  870MOL0     H17438   7.357   1.284   8.704  2.5549 -0.9135  0.0652
  870MOL0     H17439   7.376   1.214   8.846  0.3597  0.4834  0.8998
  870MOL0     H17440   7.182   1.349   8.871  1.8920 -0.0028 -1.2665
  870MOL0     H17441   7.106   1.190   8.850 -2.1571  1.4000  1.1005
  870MOL0     H17442   7.106   1.261   8.589  0.9890  2.4369 -1.6521
  870MOL0     H17443   7.169   1.412   8.643  1.6641  0.8592  5.3476
  870MOL0     H17444   6.912   1.405   8.613 -1.7966  1.2274  1.1237
  870MOL0     H17445   6.899   1.328   8.773 -0.0921 -0.2306  1.1931
  870MOL0     H17446   6.991   1.730   8.875  0.3027  1.2256 -2.2316
  870MOL0     H17447   7.505   0.997   8.627  2.2283 -0.1552  0.6944
  870MOL0     H17448   7.649   0.867   8.581 -2.9253  0.4432 -0.0221
  870MOL0     H17449   7.743   0.778   8.704  1.1099  3.8338 -1.3877
  870MOL0     H17450   7.637   0.689   8.595 -0.2495 -0.1882  1.0063
  871MOL0     O17451   1.152   3.421   4.069 -0.3342  0.0600 -1.1472
  871MOL0     C17452   1.117   3.308   4.115  0.2187 -0.0226 -0.1427
  871MOL0     O17453   1.181   3.188   4.095  0.4534  0.5940 -0.1497
  871MOL0     C17454   1.316   3.193   4.061 -0.0275  0.8058 -0.0202
  871MOL0     C17455   1.416   3.259   4.140  0.9132  0.3132 -0.8233
  871MOL0     C17456   1.548   3.246   4.114  0.0031 -0.2214  0.2907
  871MOL0     C17457   1.594   3.180   3.999  0.4631 -0.3509 -0.1748
  871MOL0     O17458   1.727   3.184   3.973  0.0705  1.0481  0.5174
  871MOL0     C17459   1.783   3.139   3.843 -0.6442  0.3394  0.2376
  871MOL0     C17460   1.928   3.110   3.868  0.3476  0.0044 -0.0930
  871MOL0     C17461   1.996   3.046   3.747  0.4218  1.2614  0.0330
  871MOL0     C17462   2.150   3.047   3.763 -0.0483  0.3520 -1.2712
  871MOL0     C17463   2.202   2.969   3.647 -0.6679  0.0527  0.7289
  871MOL0     C17464   2.355   2.961   3.643 -0.8843  0.7703  0.5666
  871MOL0     C17465   2.391   2.848   3.538 -0.5808 -0.2295 -0.4524
  871MOL0     C17466   2.545   2.815   3.558  0.0520  0.6309 -1.1032
  871MOL0     N17467   2.590   2.781   3.428  0.6905 -0.1968 -0.1398
  871MOL0     C17468   2.606   2.655   3.372 -0.4482  0.2189 -0.2539
  871MOL0     C17469   2.670   2.681   3.255  0.1344 -0.2733  0.0608
  871MOL0     C17470   2.695   2.577   3.150 -0.0164 -0.3173 -0.8866
  871MOL0     C17471   2.579   2.562   3.046 -0.4431  0.3325 -0.0794
  871MOL0     C17472   2.587   2.457   2.939  0.1232  0.0669 -0.3967
  871MOL0     C17473   2.732   2.416   2.897  0.1117 -0.0208 -0.1104
  871MOL0     O17474   2.801   2.348   3.005 -1.1302  0.5424  0.0107
  871MOL0     C17475   2.931   2.304   2.979  0.6086  0.8148  0.0970
  871MOL0     C17476   2.982   2.187   3.050 -0.1467 -0.2155 -0.0802
  871MOL0     C17477   3.103   2.129   3.029  0.4488 -0.1009  0.4918
  871MOL0     C17478   3.190   2.193   2.940  0.0578  0.1795 -0.7955
  871MOL0     C17479   3.332   2.140   2.936  0.5429  0.6308 -0.0401
  871MOL0     O17480   3.384   2.038   3.012  0.5754 -0.4032  0.0062
  871MOL0     C17481   3.510   1.998   2.980  0.9114  0.9591  0.5426
  871MOL0     C17482   3.618   2.086   2.976 -0.3721 -0.1414 -1.4431
  871MOL0     C17483   3.751   2.045   2.942 -0.5327 -0.5422  0.3196
  871MOL0     C17484   3.774   1.900   2.929  1.2670 -0.4110 -0.1125
  871MOL0     O17485   3.895   1.844   2.906 -0.6121 -0.4345  0.4461
  871MOL0     C17486   4.015   1.914   2.850  0.1632 -0.6789  0.6902
  871MOL0     C17487   4.110   1.962   2.959 -0.1091  0.1753 -0.6404
  871MOL0     C17488   4.189   2.075   2.905 -0.2497 -0.3828 -0.3202
  871MOL0     C17489   4.290   2.138   3.010 -0.7979  0.1945  0.3113
  871MOL0     C17490   4.441   2.128   2.967 -0.1501 -0.3073 -0.2026
  871MOL0     C17491   4.476   2.224   2.854 -0.5097 -0.2994 -0.0120
  871MOL0     C17492   4.610   2.178   2.782  0.3769  0.1518 -0.3932
  871MOL0     C17493   4.683   2.289   2.712 -0.2579 -0.0123  0.6111
  871MOL0    Cl17494   4.722   2.425   2.835 -0.4034  0.5819 -0.3170
  871MOL0     C17495   3.659   1.810   2.937  0.1808 -0.3415 -0.5727
  871MOL0     C17496   3.529   1.862   2.964  0.0508  0.2120 -0.2356
  871MOL0     O17497   3.390   2.187   2.839  0.0660 -0.0050 -0.7515
  871MOL0     C17498   3.148   2.311   2.873  0.4106 -0.5099  0.2998
  871MOL0     C17499   3.026   2.370   2.899 -0.1146  0.2711 -0.6953
  871MOL0     N17500   2.695   2.820   3.239  0.4288 -0.3969  0.4676
  871MOL0     N17501   2.641   2.881   3.337  0.4339  0.6153 -0.2291
  871MOL0     C17502   1.499   3.135   3.906  0.7751 -0.0086 -0.2130
  871MOL0     C17503   1.358   3.127   3.942 -0.8827 -0.6022 -0.7627
  871MOL0     C17504   0.997   3.294   4.199  0.2510 -0.0012  0.0199
  871MOL0     C17505   0.942   3.164   4.211 -0.4789 -0.4353  0.2230
  871MOL0     C17506   0.837   3.132   4.295 -0.0225  0.7008  0.7199
  871MOL0     C17507   0.776   3.236   4.369  0.8554  0.8417  1.1545
  871MOL0     O17508   0.677   3.203   4.455 -0.9680 -0.0066  0.3305
  871MOL0     C17509   0.556   3.280   4.462 -0.1335  0.0716 -0.2792
  871MOL0     C17510   0.455   3.210   4.371 -0.9312  0.4817 -0.7609
  871MOL0     C17511   0.314   3.271   4.386  0.0700 -0.0320 -0.1572
  871MOL0     C17512   0.313   3.423   4.349 -0.0942  0.4655  0.3852
  871MOL0     C17513   0.360   3.443   4.214 -0.5505  0.3987  0.4342
  871MOL0     C17514   0.404   3.475   4.101  0.4672  0.2420  0.2601
  871MOL0     C17515   0.832   3.366   4.360 -0.5832  0.2184  0.0164
  871MOL0     C17516   0.935   3.395   4.272  0.1011 -0.1669 -0.1558
  871MOL0     C17517   0.980   3.539   4.276  0.8817 -0.4363 -0.0094
  871MOL0     H17518   1.378   3.326   4.217  1.1852  0.1581 -0.5543
  871MOL0     H17519   1.617   3.306   4.172  1.0299 -0.0379 -1.0587
  871MOL0     H17520   1.733   3.050   3.804  0.1603  0.2499 -0.6047
  871MOL0     H17521   1.769   3.229   3.783  2.6377  0.5562 -0.3645
  871MOL0     H17522   1.937   3.036   3.949 -2.4950 -1.3237 -0.8669
  871MOL0     H17523   1.973   3.205   3.900 -1.2988  1.0806 -0.8436
  871MOL0     H17524   1.982   3.111   3.661  3.5877  0.6329 -1.0992
  871MOL0     H17525   1.952   2.946   3.733 -1.8930  2.1339  0.6264
  871MOL0     H17526   2.192   3.148   3.761  1.2295 -0.0356  1.5969
  871MOL0     H17527   2.178   2.987   3.850  2.1005  0.4056 -1.8693
  871MOL0     H17528   2.170   2.866   3.658  0.1781 -0.2213  0.7367
  871MOL0     H17529   2.163   3.003   3.550  2.1524 -0.0950 -0.5608
  871MOL0     H17530   2.399   3.053   3.605 -1.0604  0.5349 -0.2167
  871MOL0     H17531   2.394   2.934   3.742 -0.2282  1.9108  0.6291
  871MOL0     H17532   2.367   2.884   3.437  1.6125  1.8255 -0.3486
  871MOL0     H17533   2.330   2.759   3.555  0.5399 -0.8961  0.2228
  871MOL0     H17534   2.591   2.909   3.589 -0.6485  0.0790  1.9417
  871MOL0     H17535   2.585   2.745   3.632 -1.0051  0.2896 -0.8388
  871MOL0     H17536   2.561   2.559   3.394  0.1239  0.0149  0.0482
  871MOL0     H17537   2.784   2.620   3.103  0.4074 -0.9743 -0.6999
  871MOL0     H17538   2.724   2.479   3.191 -1.6845 -0.6565 -0.4576
  871MOL0     H17539   2.493   2.539   3.109 -0.6352 -1.6501 -1.0150
  871MOL0     H17540   2.568   2.660   2.998  0.1989  0.2170 -0.4808
  871MOL0     H17541   2.532   2.491   2.851  0.7055  3.1047  0.3034
  871MOL0     H17542   2.541   2.368   2.983  0.4908  1.5537  3.3015
  871MOL0     H17543   2.790   2.503   2.865 -1.5584  0.2227 -2.8095
  871MOL0     H17544   2.730   2.347   2.812 -1.0563 -1.5457  1.0710
  871MOL0     H17545   2.918   2.134   3.120  0.3819  1.6817  1.9657
  871MOL0     H17546   3.129   2.035   3.077  1.0225 -0.0835  0.2288
  871MOL0     H17547   3.598   2.191   2.994  0.0840 -0.3709  0.6675
  871MOL0     H17548   3.823   2.125   2.940 -1.6078  0.4544 -1.0965
  871MOL0     H17549   4.056   1.848   2.773 -1.1445  0.9326 -1.5051
  871MOL0     H17550   3.975   2.009   2.812 -1.7917 -1.7963 -0.1791
  871MOL0     H17551   4.051   2.001   3.043  1.1441  0.7722 -0.0157
  871MOL0     H17552   4.179   1.879   2.978 -1.2871 -0.6472  0.2721
  871MOL0     H17553   4.228   2.035   2.811 -1.7556  1.0493 -1.6304
  871MOL0     H17554   4.124   2.156   2.869  1.3054  1.3503  0.6022
  871MOL0     H17555   4.283   2.078   3.101 -0.6795  2.1052  1.6179
  871MOL0     H17556   4.271   2.242   3.035 -1.8311  0.0611  0.0890
  871MOL0     H17557   4.449   2.024   2.936 -2.8711 -0.6665  0.1013
  871MOL0     H17558   4.515   2.143   3.046  2.8287  1.0478 -2.9915
  871MOL0     H17559   4.391   2.229   2.786 -1.8185  0.1476  1.5960
  871MOL0     H17560   4.494   2.326   2.891  3.3518 -1.0896  0.6895
  871MOL0     H17561   4.605   2.085   2.724 -1.8018 -0.9784  1.4244
  871MOL0     H17562   4.669   2.152   2.871 -0.6390  0.4816  0.3937
  871MOL0     H17563   4.779   2.256   2.669 -1.6032 -2.6869 -0.5763
  871MOL0     H17564   4.627   2.333   2.629  0.3896  0.4644  0.4072
  871MOL0     H17565   3.680   1.704   2.933  1.0868 -0.1917  0.0110
  871MOL0     H17566   3.430   1.818   2.961  0.0484  0.2796 -1.7837
  871MOL0     H17567   3.216   2.372   2.813 -0.7586 -1.4649 -2.1485
  871MOL0     H17568   3.011   2.465   2.849  4.4446  2.2472  1.1332
  871MOL0     H17569   1.523   3.096   3.808  2.5619 -1.6888  0.8228
  871MOL0     H17570   1.286   3.092   3.869 -1.6402  2.8253 -1.8590
  871MOL0     H17571   0.981   3.082   4.152 -0.5720 -0.8522  0.7276
  871MOL0     H17572   0.792   3.033   4.302  0.0912  0.5836 -0.1127
  871MOL0     H17573   0.566   3.386   4.438 -2.4056  0.7935  1.5456
  871MOL0     H17574   0.515   3.275   4.563 -1.1978  1.1417 -0.6258
  871MOL0     H17575   0.446   3.109   4.413 -2.1335  0.1793 -1.7046
  871MOL0     H17576   0.481   3.205   4.265 -0.4132 -3.4514 -0.5788
  871MOL0     H17577   0.284   3.264   4.491  1.2003  0.0071  0.1836
  871MOL0     H17578   0.244   3.219   4.320  0.9475 -0.0555 -1.1107
  871MOL0     H17579   0.211   3.458   4.365 -0.3442  0.6685 -1.5158
  871MOL0     H17580   0.370   3.483   4.421  1.8429 -0.5770 -0.2154
  871MOL0     H17581   0.449   3.516   4.013  0.5759  1.0219  0.6687
  871MOL0     H17582   0.789   3.448   4.417 -2.2739 -1.3038  1.0497
  871MOL0     H17583   0.936   3.596   4.193 -0.4547 -0.6449  0.5403
  871MOL0     H17584   0.941   3.592   4.363 -2.1863  2.0029 -2.5939
  871MOL0     H17585   1.089   3.554   4.280  1.3126 -2.5049 -1.9633
  872MOL0     O17586  10.984   3.547   9.885 -1.0597 -0.4319 -0.4253
  872MOL0     C17587  10.980   3.668   9.912 -0.4806  0.0451  0.3052
  872MOL0     O17588  11.089   3.755   9.898  0.0484  0.0242  0.0258
  872MOL0     C17589  11.203   3.712   9.837 -0.0828  0.0641 -0.9064
  872MOL0     C17590  11.284   3.607   9.887  0.6113 -0.2859 -0.0396
  872MOL0     C17591  11.413   3.578   9.829 -0.0889  0.4867 -0.4059
  872MOL0     C17592  11.461   3.649   9.716  0.5677 -0.5444 -0.4083
  872MOL0     O17593  11.574   3.617   9.652  0.5634 -1.0085  0.2928
  872MOL0     C17594  11.696   3.634   9.725 -0.1441 -0.1032  0.4280
  872MOL0     C17595  11.793   3.583   9.622  0.0972  0.0266  1.1629
  872MOL0     C17596  11.937   3.615   9.646 -0.1551 -0.2568  0.3725
  872MOL0     C17597  12.018   3.554   9.530  0.7258 -0.0707  0.0713
  872MOL0     C17598  12.164   3.572   9.507  0.2743 -0.7392 -0.2441
  872MOL0     C17599  12.227   3.527   9.638  0.5489 -0.1677 -0.7073
  872MOL0     C17600  12.373   3.504   9.606  0.4277  0.3404  0.4090
  872MOL0     C17601  12.455   3.447   9.717  0.2123  1.3031 -0.5550
  872MOL0     N17602  12.589   3.444   9.663 -0.1833 -0.3078 -0.9057
  872MOL0     C17603  12.690   3.521   9.722 -0.1570  1.2344 -0.3543
  872MOL0     C17604  12.805   3.497   9.649 -0.3472  0.5198  0.6179
  872MOL0     C17605  12.944   3.550   9.687 -0.4902 -0.0006 -0.5351
  872MOL0     C17606  13.044   3.535   9.575  0.0150  0.2593 -0.4524
  872MOL0     C17607  13.097   3.390   9.557 -0.7802  0.1840 -0.5317
  872MOL0     C17608  13.227   3.380   9.471  0.8824  0.4373  0.0547
  872MOL0     O17609  13.329   3.440   9.551  0.8028 -0.5895  0.4924
  872MOL0     C17610  13.455   3.455   9.507 -0.0915 -0.2647 -0.0120
  872MOL0     C17611  13.487   3.485   9.373  0.0247 -0.4176 -0.0043
  872MOL0     C17612  13.618   3.521   9.332  0.2551 -0.2622  0.0665
  872MOL0     C17613  13.723   3.522   9.425  0.2264 -0.0506  0.7852
  872MOL0     C17614  13.854   3.566   9.386  0.5647 -0.2470  0.4979
  872MOL0     O17615  13.947   3.560   9.481  0.1396 -0.5854 -0.0241
  872MOL0     C17616  14.072   3.613   9.450 -0.3766  0.0732  0.1696
  872MOL0     C17617  14.181   3.529   9.467  0.7084  0.4113 -0.1237
  872MOL0     C17618  14.305   3.575   9.454 -0.7799  0.0449  0.2111
  872MOL0     C17619  14.333   3.706   9.413 -0.8166  0.7082 -0.5440
  872MOL0     O17620  14.458   3.749   9.392 -0.2757 -0.3400  0.5717
  872MOL0     C17621  14.480   3.802   9.261 -1.1762 -0.1445 -0.1870
  872MOL0     C17622  14.634   3.827   9.257  0.6743  0.2627  0.0917
  872MOL0     C17623  14.709   3.702   9.209  0.0645 -0.1272  0.4522
  872MOL0     C17624  14.852   3.728   9.239  0.3158  0.0709  0.0218
  872MOL0     C17625  14.938   3.822   9.159 -0.1570  0.3804  0.0379
  872MOL0     C17626  15.084   3.818   9.192  0.7060  0.2413 -0.4194
  872MOL0     C17627  15.167   3.892   9.093  0.1811  0.4235 -0.8307
  872MOL0     C17628  15.322   3.903   9.122  0.4019  0.5831 -0.5791
  872MOL0    Cl17629  15.382   4.049   9.041  0.0061 -0.3839 -0.2292
  872MOL0     C17630  14.224   3.791   9.393  0.3509 -0.4292 -0.5715
  872MOL0     C17631  14.090   3.747   9.411  0.2045 -0.2396 -0.1110
  872MOL0     O17632  13.868   3.592   9.267  0.2447  0.1208 -0.6826
  872MOL0     C17633  13.692   3.477   9.553  0.2797  1.0602 -0.7908
  872MOL0     C17634  13.560   3.446   9.597  1.0600 -0.6431 -0.2975
  872MOL0     N17635  12.765   3.401   9.554 -0.7178  0.5872  0.0787
  872MOL0     N17636  12.641   3.380   9.553 -0.6181 -0.3614  0.4688
  872MOL0     C17637  11.375   3.752   9.666  0.5177 -0.1470  0.5756
  872MOL0     C17638  11.254   3.786   9.728 -0.6000  0.9790 -0.5407
  872MOL0     C17639  10.847   3.734   9.945 -0.7076 -0.1031  0.4503
  872MOL0     C17640  10.844   3.866  10.006 -0.1256 -0.6589  0.8073
  872MOL0     C17641  10.721   3.939  10.024 -0.1796  0.2785 -0.1606
  872MOL0     C17642  10.596   3.881  10.001 -0.4652 -0.9455 -1.1456
  872MOL0     O17643  10.482   3.959  10.023  0.2825  0.4577  0.0606
  872MOL0     C17644  10.475   4.082  10.093  0.7432 -0.5459  0.2946
  872MOL0     C17645  10.340   4.142  10.058 -1.0517 -0.8924 -0.0841
  872MOL0     C17646  10.230   4.041  10.064  0.4875 -0.1437 -0.4457
  872MOL0     C17647  10.085   4.089  10.087  0.4732 -0.1192  0.3063
  872MOL0     C17648  10.054   4.214  10.022  0.1613 -0.1957 -0.7769
  872MOL0     C17649  10.024   4.316   9.973  0.2669  0.0500  0.1988
  872MOL0     C17650  10.601   3.740   9.963 -0.4186  0.6772 -0.0762
  872MOL0     C17651  10.720   3.672   9.936  0.2346  0.5997  0.2097
  872MOL0     C17652  10.698   3.523   9.897 -0.0895  0.1135  0.2111
  872MOL0     H17653  11.231   3.559   9.968 -2.3534  2.0811 -0.3938
  872MOL0     H17654  11.479   3.500   9.865 -0.4979  0.3965  0.1727
  872MOL0     H17655  11.705   3.740   9.752 -1.9531  0.2114 -0.0501
  872MOL0     H17656  11.707   3.570   9.813  2.4875  0.8834  0.8953
  872MOL0     H17657  11.762   3.629   9.528  1.1493  3.6035  2.4140
  872MOL0     H17658  11.776   3.476   9.610 -2.1228  0.3723  0.8803
  872MOL0     H17659  11.962   3.567   9.741 -3.9100 -1.3390  0.9523
  872MOL0     H17660  11.939   3.724   9.646 -1.3778 -0.2099 -0.9686
  872MOL0     H17661  11.989   3.449   9.525 -1.9440  0.6367 -1.2722
  872MOL0     H17662  11.976   3.589   9.435 -0.2321 -0.4745  0.3358
  872MOL0     H17663  12.194   3.513   9.421  0.5443  1.3401 -1.6533
  872MOL0     H17664  12.195   3.676   9.493 -2.9948  0.6305  1.4720
  872MOL0     H17665  12.207   3.598   9.719  1.3278 -2.0629  1.2610
  872MOL0     H17666  12.182   3.429   9.656  0.6660 -0.0188  0.5076
  872MOL0     H17667  12.424   3.596   9.578  2.0157 -1.2512 -2.3909
  872MOL0     H17668  12.375   3.443   9.515 -0.5311  2.6689 -1.2805
  872MOL0     H17669  12.462   3.504   9.810  1.4748  2.8531 -1.5342
  872MOL0     H17670  12.410   3.349   9.738  2.6600  0.4692  1.2597
  872MOL0     H17671  12.682   3.579   9.814  1.3435  2.2276 -0.7957
  872MOL0     H17672  12.921   3.652   9.720  0.4746  0.4644 -1.2620
  872MOL0     H17673  12.974   3.495   9.777  1.0357  0.3135 -0.8282
  872MOL0     H17674  12.999   3.565   9.480 -1.0204  0.2515  0.0200
  872MOL0     H17675  13.132   3.597   9.594  1.2981 -1.4263 -0.7009
  872MOL0     H17676  13.022   3.324   9.512 -2.2109  1.8309 -0.6809
  872MOL0     H17677  13.114   3.354   9.659 -1.2862 -1.0004 -0.8423
  872MOL0     H17678  13.213   3.431   9.375 -0.3348  0.9633  0.4885
  872MOL0     H17679  13.256   3.276   9.457  0.3359 -0.5087  4.4293
  872MOL0     H17680  13.411   3.496   9.296  1.4274  4.0693 -1.1106
  872MOL0     H17681  13.632   3.567   9.235 -0.2588 -2.0454 -0.9075
  872MOL0     H17682  14.167   3.425   9.497 -2.3404  1.1479  1.3690
  872MOL0     H17683  14.390   3.513   9.478  0.5266  1.3190 -0.9919
  872MOL0     H17684  14.447   3.733   9.183 -3.2860  1.1733 -0.5374
  872MOL0     H17685  14.432   3.900   9.258 -1.2726 -0.1791  0.1053
  872MOL0     H17686  14.673   3.904   9.190  1.3032  1.1514  1.4464
  872MOL0     H17687  14.663   3.855   9.359  0.0047 -2.1389  1.0038
  872MOL0     H17688  14.672   3.613   9.260  1.1830 -1.6424 -1.2805
  872MOL0     H17689  14.703   3.691   9.100 -0.9819  3.0864  0.0850
  872MOL0     H17690  14.888   3.628   9.215 -1.2360 -0.2320 -1.1739
  872MOL0     H17691  14.858   3.752   9.346  0.8058 -1.9827  0.4912
  872MOL0     H17692  14.910   3.927   9.171  1.0471  0.5489  1.7475
  872MOL0     H17693  14.930   3.797   9.052 -1.0990 -1.4124  0.4824
  872MOL0     H17694  15.102   3.856   9.293 -2.6629 -1.4750  0.9774
  872MOL0     H17695  15.113   3.713   9.182  1.2740  0.3933 -0.4036
  872MOL0     H17696  15.130   3.995   9.094 -0.4129  0.2653  1.7747
  872MOL0     H17697  15.152   3.846   8.995 -0.6351  2.5738 -1.7707
  872MOL0     H17698  15.335   3.922   9.229 -4.5889  1.0864  0.1863
  872MOL0     H17699  15.371   3.807   9.101 -2.1509 -1.2480  1.2607
  872MOL0     H17700  14.253   3.894   9.375 -1.4959  0.6178  1.9096
  872MOL0     H17701  14.011   3.819   9.392  1.8003  1.1800 -1.7129
  872MOL0     H17702  13.773   3.484   9.626 -0.9747 -1.5599  1.0124
  872MOL0     H17703  13.558   3.401   9.696  1.5093  1.5823  0.7647
  872MOL0     H17704  11.404   3.825   9.591 -1.5986  1.6169  1.3730
  872MOL0     H17705  11.187   3.867   9.702 -1.1083  0.3844 -1.1315
  872MOL0     H17706  10.941   3.910  10.027  0.9041 -2.0515 -0.7480
  872MOL0     H17707  10.729   4.040  10.063 -0.0594  0.6645 -1.1481
  872MOL0     H17708  10.556   4.148  10.062  0.2265 -0.5266 -1.0941
  872MOL0     H17709  10.477   4.055  10.198 -1.7607 -2.0743  0.0437
  872MOL0     H17710  10.340   4.193   9.961  2.7415  1.8464  1.1418
  872MOL0     H17711  10.325   4.228  10.123 -3.7527 -1.3533  0.0531
  872MOL0     H17712  10.257   3.982  10.152 -0.9019 -1.2137 -0.7076
  872MOL0     H17713  10.230   3.978   9.974 -1.3057 -1.0303  0.1295
  872MOL0     H17714  10.018   4.012  10.049  1.9765 -0.8937 -0.8778
  872MOL0     H17715  10.065   4.103  10.193  2.2744  1.3624  0.5033
  872MOL0     H17716   9.980   4.404   9.931 -2.8845 -1.1521  0.7554
  872MOL0     H17717  10.502   3.702   9.938 -1.4133  1.5557  2.2438
  872MOL0     H17718  10.734   3.509   9.795  0.2414  0.8650  0.2165
  872MOL0     H17719  10.760   3.461   9.962  0.4224  0.5396  0.1356
  872MOL0     H17720  10.592   3.496   9.903 -0.7826  2.4051 -0.6874
  873MOL0     O17721   6.594   7.568   3.461 -0.1378 -0.2220 -0.0701
  873MOL0     C17722   6.518   7.479   3.429 -0.1717 -0.3665 -0.0970
  873MOL0     O17723   6.554   7.362   3.368  0.5926 -0.3442  0.5144
  873MOL0     C17724   6.685   7.341   3.344  0.1954  0.2578  0.6397
  873MOL0     C17725   6.802   7.356   3.423  0.5510  0.0660  0.1092
  873MOL0     C17726   6.930   7.317   3.373  0.6601  0.3080 -1.0594
  873MOL0     C17727   6.942   7.267   3.244  0.3773 -0.3987 -0.8153
  873MOL0     O17728   7.059   7.241   3.179 -0.4344 -0.1793 -0.1633
  873MOL0     C17729   7.181   7.310   3.225  0.2807 -0.3502  0.8023
  873MOL0     C17730   7.290   7.312   3.122  0.4770 -0.6108  0.2724
  873MOL0     C17731   7.425   7.325   3.189  0.0670  0.3995  0.1468
  873MOL0     C17732   7.531   7.303   3.083 -0.3794 -0.2712  0.7421
  873MOL0     C17733   7.674   7.334   3.127 -0.4957  0.3368 -0.1770
  873MOL0     C17734   7.764   7.370   3.007  0.0057 -0.0747  0.6996
  873MOL0     C17735   7.916   7.382   3.049 -0.3138 -0.2477  0.2524
  873MOL0     C17736   8.000   7.436   2.938 -0.1674 -0.8215  0.1011
  873MOL0     N17737   8.028   7.337   2.831  0.3483  1.0154  0.7198
  873MOL0     C17738   8.096   7.221   2.838  0.2679  0.5467 -0.2873
  873MOL0     C17739   8.091   7.177   2.714 -0.0978 -0.1248  0.2635
  873MOL0     C17740   8.159   7.053   2.661  0.1075 -0.8027 -0.4299
  873MOL0     C17741   8.229   7.081   2.530  0.0750 -0.6860 -0.1138
  873MOL0     C17742   8.341   7.185   2.523  0.1458  0.1751 -0.5615
  873MOL0     C17743   8.464   7.151   2.601 -1.0546 -0.0963 -0.4590
  873MOL0     O17744   8.554   7.245   2.563 -0.3427 -0.3296  0.1209
  873MOL0     C17745   8.688   7.195   2.567  0.4621 -0.5291 -0.3774
  873MOL0     C17746   8.770   7.209   2.459 -0.2386 -0.0768  1.0586
  873MOL0     C17747   8.908   7.172   2.461  0.2630  0.0054 -0.6194
  873MOL0     C17748   8.959   7.106   2.570  0.8873  0.2431  0.0832
  873MOL0     C17749   9.096   7.061   2.575 -0.5156 -0.4980  0.5431
  873MOL0     O17750   9.121   6.963   2.665 -0.9986 -0.7153 -0.1175
  873MOL0     C17751   9.253   6.930   2.684  0.5821  0.2533 -0.1985
  873MOL0     C17752   9.356   7.028   2.697 -0.8275 -0.1474  0.4138
  873MOL0     C17753   9.491   6.987   2.722  0.5724 -0.0028  0.0482
  873MOL0     C17754   9.525   6.854   2.740  0.4561  0.0611  1.1039
  873MOL0     O17755   9.644   6.802   2.770  0.0563  0.4183 -0.1060
  873MOL0     C17756   9.732   6.890   2.843 -0.5364 -0.1184 -0.2772
  873MOL0     C17757   9.831   6.791   2.895  0.0145  0.2331  0.2841
  873MOL0     C17758   9.922   6.742   2.786 -1.4234  0.6932  0.1888
  873MOL0     C17759  10.022   6.646   2.845 -0.2061  0.0440  0.0146
  873MOL0     C17760  10.147   6.659   2.761  0.2598 -0.6342  1.3911
  873MOL0     C17761  10.271   6.605   2.837 -0.6329 -0.1097  0.3253
  873MOL0     C17762  10.389   6.620   2.754 -1.2973  0.0209  0.0051
  873MOL0     C17763  10.506   6.531   2.811 -0.7606  0.2099  0.7432
  873MOL0    Cl17764  10.568   6.575   2.967  0.1193 -0.7434  0.3936
  873MOL0     C17765   9.423   6.758   2.734 -0.1751 -0.0314  0.0694
  873MOL0     C17766   9.294   6.791   2.701  0.1958 -0.3519 -0.6179
  873MOL0     O17767   9.171   7.088   2.484  0.7197  0.2366  0.6458
  873MOL0     C17768   8.872   7.092   2.684  1.0915  0.3546  0.8183
  873MOL0     C17769   8.741   7.140   2.685  0.4285 -0.6549 -0.4327
  873MOL0     N17770   8.026   7.262   2.637  0.6278  0.7035  0.9141
  873MOL0     N17771   7.983   7.357   2.706 -0.1783 -0.2227  0.7989
  873MOL0     C17772   6.832   7.261   3.159  1.0126 -0.0576  0.0266
  873MOL0     C17773   6.703   7.295   3.211 -0.3484  0.0970  0.3406
  873MOL0     C17774   6.380   7.497   3.473  0.0054  0.4102 -0.4419
  873MOL0     C17775   6.360   7.575   3.591  0.6039  0.5639  0.4129
  873MOL0     C17776   6.232   7.589   3.651  0.2587 -0.0166  0.3691
  873MOL0     C17777   6.116   7.531   3.593 -0.0932 -0.8624  0.1574
  873MOL0     O17778   5.986   7.542   3.627  0.0908 -0.0803 -0.1439
  873MOL0     C17779   5.945   7.612   3.746  0.5284  0.5970 -0.0075
  873MOL0     C17780   5.805   7.662   3.723  0.4685 -0.2928 -1.2750
  873MOL0     C17781   5.709   7.558   3.686  0.4623  0.1051  0.6083
  873MOL0     C17782   5.573   7.621   3.677  0.0425 -0.1388 -0.4549
  873MOL0     C17783   5.486   7.528   3.611  0.5373  0.0212 -0.6916
  873MOL0     C17784   5.418   7.439   3.578  0.2930 -0.8324  0.4340
  873MOL0     C17785   6.140   7.463   3.471  0.0433  0.1208  0.2493
  873MOL0     C17786   6.265   7.437   3.412  0.2860  1.3886  0.7766
  873MOL0     C17787   6.264   7.353   3.281  0.1927 -0.5483  0.0085
  873MOL0     H17788   6.781   7.401   3.519  1.6461  3.0581 -0.9572
  873MOL0     H17789   7.014   7.325   3.441 -1.2998  0.4331  1.5255
  873MOL0     H17790   7.174   7.415   3.258  1.4607 -0.8167  2.6821
  873MOL0     H17791   7.215   7.262   3.317  2.8232  0.6260  0.4505
  873MOL0     H17792   7.277   7.405   3.065  0.8186 -0.9024 -0.2918
  873MOL0     H17793   7.290   7.214   3.073 -0.9077 -0.4624 -0.0683
  873MOL0     H17794   7.429   7.257   3.274  0.5834  2.5281  1.9284
  873MOL0     H17795   7.444   7.424   3.231  0.8742  0.5350 -0.5295
  873MOL0     H17796   7.528   7.199   3.050  0.8624 -0.2262  0.4463
  873MOL0     H17797   7.506   7.354   2.989 -1.8754  0.2870  1.4163
  873MOL0     H17798   7.674   7.418   3.197  2.8771  2.4654 -2.4175
  873MOL0     H17799   7.718   7.256   3.191  1.1164  1.1759 -0.2187
  873MOL0     H17800   7.770   7.300   2.923  2.3751  0.9885 -0.1077
  873MOL0     H17801   7.729   7.465   2.967 -1.0565 -0.3640  0.9153
  873MOL0     H17802   7.961   7.291   3.091  2.5091  1.7018  1.7590
  873MOL0     H17803   7.927   7.441   3.140  0.3330 -0.9862  0.6679
  873MOL0     H17804   7.948   7.521   2.892  0.4967 -0.4014  0.1149
  873MOL0     H17805   8.092   7.484   2.972 -0.3857 -0.7830  0.6559
  873MOL0     H17806   8.154   7.173   2.916  2.2349 -1.8259 -2.9751
  873MOL0     H17807   8.239   7.028   2.732  1.2153 -0.6579 -1.6004
  873MOL0     H17808   8.088   6.971   2.653 -2.1670  1.1458 -1.3322
  873MOL0     H17809   8.247   6.985   2.481  2.5159  0.5225 -1.7519
  873MOL0     H17810   8.152   7.119   2.462  0.7253 -1.7084 -1.4913
  873MOL0     H17811   8.306   7.282   2.560  1.6431  1.3537 -2.0618
  873MOL0     H17812   8.361   7.197   2.416 -1.6094  0.7942 -0.8525
  873MOL0     H17813   8.493   7.048   2.580  0.4879 -0.2468  1.9882
  873MOL0     H17814   8.444   7.157   2.709  0.6374 -1.1618 -0.0468
  873MOL0     H17815   8.735   7.250   2.365  0.8172  2.1533  1.5584
  873MOL0     H17816   8.962   7.172   2.367  2.5246  0.4049  0.5985
  873MOL0     H17817   9.331   7.132   2.680 -2.6986 -0.6151  0.1750
  873MOL0     H17818   9.564   7.066   2.702  1.5749 -0.4593  1.6783
  873MOL0     H17819   9.785   6.969   2.791 -0.1167 -1.4147 -1.9027
  873MOL0     H17820   9.688   6.926   2.937  1.2897 -1.8942  1.3785
  873MOL0     H17821   9.891   6.838   2.974  0.7964  2.1129 -1.3283
  873MOL0     H17822   9.778   6.711   2.946 -0.4718  0.6751  0.4758
  873MOL0     H17823   9.876   6.709   2.692  2.2700 -1.4159 -1.0984
  873MOL0     H17824   9.969   6.837   2.758  0.1764  0.5635  2.2036
  873MOL0     H17825   9.982   6.545   2.848 -1.2675  0.4879  1.9491
  873MOL0     H17826  10.043   6.679   2.947 -1.7007 -1.3331  0.8039
  873MOL0     H17827  10.171   6.761   2.730 -0.8698 -0.8749 -0.4888
  873MOL0     H17828  10.143   6.593   2.673 -0.7035  0.2935  0.7165
  873MOL0     H17829  10.298   6.664   2.925  1.0435 -0.0648 -0.1891
  873MOL0     H17830  10.250   6.502   2.868  0.4688 -0.2046  0.8326
  873MOL0     H17831  10.422   6.724   2.753  0.6277 -0.5495 -0.6768
  873MOL0     H17832  10.366   6.604   2.648  0.0834  1.6221 -0.5758
  873MOL0     H17833  10.468   6.429   2.806 -0.3631  0.1274 -1.4154
  873MOL0     H17834  10.590   6.549   2.744 -0.5223  2.7579  1.6055
  873MOL0     H17835   9.469   6.660   2.741  3.0473  1.4145  1.1715
  873MOL0     H17836   9.220   6.713   2.695  0.2121 -0.2863 -2.0022
  873MOL0     H17837   8.913   7.043   2.772  1.5249  2.4683  1.8371
  873MOL0     H17838   8.676   7.127   2.770  0.1248 -0.1122 -0.5765
  873MOL0     H17839   6.843   7.214   3.062  1.8204 -3.6486  1.6899
  873MOL0     H17840   6.616   7.284   3.148 -0.7742  3.0519  0.2361
  873MOL0     H17841   6.444   7.625   3.637 -0.0204  0.4619  1.6978
  873MOL0     H17842   6.211   7.639   3.744 -4.4157 -1.2663  0.2058
  873MOL0     H17843   6.016   7.690   3.775  2.3227 -0.0251 -2.4087
  873MOL0     H17844   5.939   7.545   3.833 -2.8290  2.0276  1.0116
  873MOL0     H17845   5.822   7.735   3.643  0.8182  2.8819  1.5148
  873MOL0     H17846   5.783   7.714   3.816  1.2445 -0.1635 -1.1587
  873MOL0     H17847   5.695   7.479   3.760  3.6927  0.7649  2.0824
  873MOL0     H17848   5.741   7.507   3.594 -0.9038 -0.2564  0.3071
  873MOL0     H17849   5.534   7.641   3.777  0.1106  1.9612 -0.8044
  873MOL0     H17850   5.569   7.716   3.624  1.1654 -0.5101 -1.2573
  873MOL0     H17851   5.354   7.359   3.547  1.5740 -1.5940 -0.3733
  873MOL0     H17852   6.051   7.427   3.421  0.1755  0.4770 -0.2517
  873MOL0     H17853   6.172   7.295   3.283 -1.5613  1.9330 -1.6228
  873MOL0     H17854   6.264   7.426   3.199  2.2274  0.7528  1.0909
  873MOL0     H17855   6.352   7.291   3.268  1.6578  0.9145  2.2404
  874MOL0     O17856   6.338   9.791   6.265  0.0464  0.2571  0.7638
  874MOL0     C17857   6.280   9.850   6.173 -0.2886 -0.0912  0.7724
  874MOL0     O17858   6.332   9.957   6.109  0.0529  0.0414  0.0274
  874MOL0     C17859   6.439  10.023   6.154  0.5021 -1.1948  0.0691
  874MOL0     C17860   6.449  10.074   6.287 -0.4868  0.8884 -0.1040
  874MOL0     C17861   6.562  10.133   6.344 -0.1663  0.5230 -0.8671
  874MOL0     C17862   6.671  10.154   6.262 -0.1784  0.3428 -0.0117
  874MOL0     O17863   6.780  10.228   6.308  0.3760 -0.1280  0.2285
  874MOL0     C17864   6.895  10.197   6.239 -0.7353 -0.1499 -0.0576
  874MOL0     C17865   7.013  10.197   6.337 -0.2945 -0.1324  0.5599
  874MOL0     C17866   7.152  10.195   6.258  0.7460 -0.2331 -0.0505
  874MOL0     C17867   7.280  10.185   6.348  0.9157 -0.3654  0.5405
  874MOL0     C17868   7.410  10.209   6.270 -0.7613 -0.5427  0.2409
  874MOL0     C17869   7.536  10.244   6.367  0.2663 -1.2151  0.6094
  874MOL0     C17870   7.602  10.123   6.416 -0.9628  0.3924 -0.0114
  874MOL0     C17871   7.690  10.051   6.315 -0.0891  0.5849 -0.3691
  874MOL0     N17872   7.804  10.136   6.268 -0.1718  0.9261  0.5144
  874MOL0     C17873   7.899  10.200   6.353  0.1957 -0.1009 -0.1314
  874MOL0     C17874   7.971  10.268   6.261  0.2857 -0.5899 -0.7969
  874MOL0     C17875   8.065  10.382   6.298  0.2369 -0.0933  0.2547
  874MOL0     C17876   8.209  10.348   6.275  0.1923  0.7400 -0.9853
  874MOL0     C17877   8.248  10.391   6.131 -0.3148 -0.2537  0.2081
  874MOL0     C17878   8.390  10.365   6.093  0.2835  0.4862 -0.1811
  874MOL0     O17879   8.480  10.457   6.165 -0.7123  0.5485 -0.3854
  874MOL0     C17880   8.610  10.472   6.128 -0.3905  0.0547 -0.0731
  874MOL0     C17881   8.687  10.548   6.215 -0.2923 -0.5188  0.0323
  874MOL0     C17882   8.821  10.563   6.182  0.1113 -0.7083  0.4415
  874MOL0     C17883   8.875  10.527   6.061 -0.9007 -0.4013  0.2962
  874MOL0     C17884   9.023  10.545   6.035 -0.4341 -0.5453 -0.9283
  874MOL0     O17885   9.077  10.488   5.922  0.9326  0.2061  0.4029
  874MOL0     C17886   9.213  10.473   5.924  0.6287  0.1412 -0.3772
  874MOL0     C17887   9.272  10.349   5.948  0.4705  0.1162  0.0819
  874MOL0     C17888   9.411  10.336   5.951 -0.2087  0.3282 -0.2948
  874MOL0     C17889   9.488  10.442   5.920  0.0196 -0.8283 -0.0288
  874MOL0     O17890   9.620  10.427   5.937 -0.0509  0.0289  0.2106
  874MOL0     C17891   9.717  10.533   5.911  0.1800 -0.2157 -0.7053
  874MOL0     C17892   9.858  10.491   5.959 -0.5129  0.3167 -0.0732
  874MOL0     C17893   9.966  10.598   5.949 -0.4172 -0.4544 -0.2709
  874MOL0     C17894  10.007  10.642   5.807 -0.7187 -0.3922 -0.4181
  874MOL0     C17895  10.094  10.771   5.813  0.1178  0.3050  0.2184
  874MOL0     C17896  10.195  10.775   5.692 -0.3027  0.1802 -0.0510
  874MOL0     C17897  10.267  10.904   5.714 -0.5021  0.0178 -0.1302
  874MOL0     C17898  10.366  10.934   5.609 -0.6277  0.6174 -0.9868
  874MOL0    Cl17899  10.497  11.045   5.659  0.2303 -0.0031  0.1280
  874MOL0     C17900   9.429  10.564   5.899 -0.8648 -0.6263  0.1560
  874MOL0     C17901   9.293  10.585   5.905 -0.0996  0.4025  1.4271
  874MOL0     O17902   9.091  10.611   6.112 -0.2968 -0.0898 -0.1191
  874MOL0     C17903   8.800  10.449   5.978  0.0602 -0.1865  0.3162
  874MOL0     C17904   8.674  10.416   6.017  1.5479  0.2969 -0.2540
  874MOL0     N17905   7.930  10.243   6.130 -0.4946 -0.3835  0.5316
  874MOL0     N17906   7.839  10.154   6.138  0.2376 -0.1742 -0.5536
  874MOL0     C17907   6.664  10.108   6.121  0.5278 -1.2744 -0.5104
  874MOL0     C17908   6.551  10.033   6.077  0.3598 -0.2400  0.5327
  874MOL0     C17909   6.149   9.802   6.128  0.6142 -0.3349  0.6084
  874MOL0     C17910   6.088   9.900   6.039 -0.2073  0.6263 -0.6360
  874MOL0     C17911   5.961   9.864   5.999 -0.2938  0.2295  0.6972
  874MOL0     C17912   5.897   9.736   6.037 -0.0980 -0.5825  0.4680
  874MOL0     O17913   5.771   9.717   5.986  0.5619  0.4219 -0.0173
  874MOL0     C17914   5.704   9.594   6.011  0.0877 -0.4143  0.0305
  874MOL0     C17915   5.552   9.587   5.974  0.7794 -0.5216  0.0127
  874MOL0     C17916   5.461   9.654   6.076  0.0248  0.0256  0.3254
  874MOL0     C17917   5.314   9.651   6.046  0.5643 -0.6783  0.3572
  874MOL0     C17918   5.222   9.705   6.146 -0.5675 -0.6496 -1.1342
  874MOL0     C17919   5.152   9.735   6.240  1.2517 -0.0813 -0.9369
  874MOL0     C17920   5.956   9.656   6.126  0.5426 -0.2388  0.3528
  874MOL0     C17921   6.082   9.685   6.175  0.9838 -0.0844  0.0339
  874MOL0     C17922   6.157   9.578   6.257  0.1214 -0.3972 -0.3826
  874MOL0     H17923   6.358  10.057   6.344  0.1493  0.6113  0.8460
  874MOL0     H17924   6.571  10.180   6.442  1.1795  0.6890 -1.0489
  874MOL0     H17925   6.892  10.097   6.194  1.8573  0.0509 -0.8135
  874MOL0     H17926   6.925  10.259   6.154  0.3584 -0.4559  0.0911
  874MOL0     H17927   7.004  10.118   6.412 -0.1150  0.0539  0.7764
  874MOL0     H17928   7.016  10.289   6.395  1.3988  1.1469 -1.4007
  874MOL0     H17929   7.166  10.287   6.201 -1.6226  1.1219  1.3325
  874MOL0     H17930   7.153  10.109   6.191 -1.7036  0.1627 -0.6943
  874MOL0     H17931   7.277  10.271   6.415  0.4204  0.9092 -1.0408
  874MOL0     H17932   7.275  10.086   6.393  0.7416 -2.8950 -4.3343
  874MOL0     H17933   7.430  10.133   6.194 -0.7754 -0.3365  0.0269
  874MOL0     H17934   7.396  10.300   6.211 -4.0386 -1.0247  0.1198
  874MOL0     H17935   7.604  10.307   6.309 -2.1477  0.6899 -0.3329
  874MOL0     H17936   7.513  10.320   6.443 -1.6960 -2.5582  1.4449
  874MOL0     H17937   7.520  10.062   6.454 -2.1562  2.3578  0.7374
  874MOL0     H17938   7.666  10.144   6.502  0.2741  0.5338 -0.9280
  874MOL0     H17939   7.738   9.966   6.364 -0.3783  0.2013 -0.7435
  874MOL0     H17940   7.638  10.004   6.231 -0.8278 -0.3037  0.5622
  874MOL0     H17941   7.892  10.210   6.461 -4.2286 -0.6697 -0.1480
  874MOL0     H17942   8.040  10.471   6.238  2.3911  1.6365  1.7451
  874MOL0     H17943   8.048  10.414   6.401  0.7653  0.9995  0.0245
  874MOL0     H17944   8.264  10.387   6.361  0.6890 -2.7053  0.4576
  874MOL0     H17945   8.209  10.239   6.269 -2.4391  0.7479 -2.1967
  874MOL0     H17946   8.230  10.499   6.118  0.1511 -0.3986 -2.0931
  874MOL0     H17947   8.190  10.349   6.049 -0.1966  1.6874 -0.9499
  874MOL0     H17948   8.400  10.394   5.988 -3.0605  2.0081 -0.2090
  874MOL0     H17949   8.417  10.260   6.104 -0.1709  0.4735  0.9671
  874MOL0     H17950   8.649  10.590   6.308  2.5389 -1.3415  1.6589
  874MOL0     H17951   8.880  10.619   6.253 -1.1802 -1.9402  2.6243
  874MOL0     H17952   9.206  10.263   5.956  0.5101 -0.0103 -0.8657
  874MOL0     H17953   9.464  10.246   5.978 -0.1588  0.7093  0.9089
  874MOL0     H17954   9.714  10.549   5.803  1.0712 -0.0250 -0.7083
  874MOL0     H17955   9.696  10.617   5.977  0.5602 -0.7903  0.1664
  874MOL0     H17956   9.847  10.452   6.061 -1.2206  0.2855 -0.1571
  874MOL0     H17957   9.887  10.409   5.893 -0.0723 -0.3762  0.9481
  874MOL0     H17958   9.910  10.684   5.987 -2.6382 -2.4880  1.2551
  874MOL0     H17959  10.053  10.579   6.012 -0.0230 -0.6703 -0.8658
  874MOL0     H17960   9.920  10.660   5.743 -0.6771 -0.9752 -0.6462
  874MOL0     H17961  10.055  10.565   5.746 -0.9109  0.9141 -2.3116
  874MOL0     H17962  10.140  10.791   5.910 -1.4406 -0.8484  1.2440
  874MOL0     H17963  10.028  10.858   5.805 -1.0638 -0.6166 -0.4868
  874MOL0     H17964  10.267  10.694   5.702  2.5420  2.3166 -1.9317
  874MOL0     H17965  10.137  10.770   5.600 -2.8542  0.8898  1.4059
  874MOL0     H17966  10.315  10.909   5.812 -1.9519  3.7506  0.5869
  874MOL0     H17967  10.200  10.990   5.717  1.1305  1.3251  0.5240
  874MOL0     H17968  10.427  10.844   5.603 -0.2593  0.8580 -0.8739
  874MOL0     H17969  10.319  10.952   5.512 -0.6441 -2.6411 -1.7033
  874MOL0     H17970   9.490  10.653   5.890  0.0438 -1.1316  1.0717
  874MOL0     H17971   9.253  10.679   5.868  0.6082  0.0150 -0.4226
  874MOL0     H17972   8.840  10.411   5.885 -0.6504 -1.9364  0.6995
  874MOL0     H17973   8.612  10.365   5.944 -0.1732  3.4729 -1.1923
  874MOL0     H17974   6.747  10.116   6.052  0.2725 -2.6778 -1.0133
  874MOL0     H17975   6.560  10.005   5.972 -1.0234  3.0981 -0.5936
  874MOL0     H17976   6.137   9.988   5.999  0.6289 -0.1546 -1.3718
  874MOL0     H17977   5.907   9.929   5.930 -3.8073 -1.4876  1.5963
  874MOL0     H17978   5.708   9.568   6.117 -2.0327  2.9689  1.0919
  874MOL0     H17979   5.758   9.519   5.952  0.5092  0.4462 -0.6942
  874MOL0     H17980   5.518   9.483   5.966 -2.0711  0.4775 -2.5779
  874MOL0     H17981   5.531   9.622   5.873  2.8278 -2.3232 -1.1397
  874MOL0     H17982   5.496   9.755   6.094  2.9795 -1.3701  3.4870
  874MOL0     H17983   5.458   9.599   6.171  0.0151  2.2334  1.6519
  874MOL0     H17984   5.293   9.702   5.952  1.7816 -0.6364  0.0840
  874MOL0     H17985   5.278   9.549   6.028 -2.1441  0.0342  1.2943
  874MOL0     H17986   5.087   9.742   6.325 -0.1515 -0.6331 -1.9307
  874MOL0     H17987   5.922   9.561   6.167 -0.0065  0.7113  2.2579
  874MOL0     H17988   6.149   9.608   6.362  4.3791 -1.6347  0.5252
  874MOL0     H17989   6.116   9.483   6.222  0.1486  0.5129 -3.1178
  874MOL0     H17990   6.266   9.581   6.246  0.0361  1.1642 -0.9405
  875MOL0     O17991   7.975   5.229   4.964 -0.2887  0.2489 -0.2536
  875MOL0     C17992   7.991   5.285   5.068 -0.1091 -0.2453 -0.1219
  875MOL0     O17993   8.095   5.276   5.158  0.9346 -0.1262 -0.3804
  875MOL0     C17994   8.198   5.196   5.118 -1.2711 -0.1673 -0.3476
  875MOL0     C17995   8.178   5.063   5.099  0.6489  1.0801 -0.4099
  875MOL0     C17996   8.284   4.982   5.053  0.6072 -0.4335  0.5815
  875MOL0     C17997   8.406   5.040   5.018 -0.2248 -0.1464  0.5596
  875MOL0     O17998   8.514   4.978   4.955 -0.4837  0.1271  0.4553
  875MOL0     C17999   8.502   4.853   4.897 -0.2199  0.0658  0.3066
  875MOL0     C18000   8.529   4.741   4.997 -0.0986  0.5677 -0.4889
  875MOL0     C18001   8.604   4.785   5.128  0.1398  0.6087 -0.0776
  875MOL0     C18002   8.749   4.812   5.082  0.1063  0.0290  0.0034
  875MOL0     C18003   8.833   4.885   5.191  0.8771 -0.2786  0.6751
  875MOL0     C18004   8.862   4.807   5.318  0.2604 -0.3229 -0.4708
  875MOL0     C18005   8.965   4.877   5.401 -0.8822 -0.6106  0.1051
  875MOL0     C18006   8.957   4.821   5.544 -1.0284 -0.4230  0.1949
  875MOL0     N18007   9.049   4.887   5.631 -0.2685 -0.5483  0.2803
  875MOL0     C18008   9.067   5.021   5.655 -0.4830 -0.0888 -0.5212
  875MOL0     C18009   9.154   5.021   5.760  0.3851 -0.7455 -0.5095
  875MOL0     C18010   9.188   5.154   5.834  0.3851  0.2303 -0.4771
  875MOL0     C18011   9.301   5.151   5.935  0.0767 -0.8446  0.1445
  875MOL0     C18012   9.259   5.078   6.067 -0.6876 -0.2770 -0.4085
  875MOL0     C18013   9.384   5.041   6.154  0.7794  0.4412  0.4941
  875MOL0     O18014   9.474   5.152   6.151  0.2069 -0.9680 -0.7106
  875MOL0     C18015   9.566   5.155   6.250 -0.5383  0.7886 -0.2862
  875MOL0     C18016   9.611   5.282   6.286  0.9532 -0.3717 -0.6139
  875MOL0     C18017   9.711   5.306   6.380  0.1541 -0.3632  0.4693
  875MOL0     C18018   9.763   5.198   6.442 -0.2051 -0.2032 -0.9232
  875MOL0     C18019   9.848   5.215   6.556  0.4776  0.2281 -1.0198
  875MOL0     O18020   9.887   5.107   6.639  0.4085  0.0547  0.1669
  875MOL0     C18021   9.958   5.135   6.753  0.4254 -0.5842 -0.5859
  875MOL0     C18022  10.095   5.181   6.759  0.8399 -0.3701 -0.2606
  875MOL0     C18023  10.154   5.229   6.878  0.6199  0.0433 -0.5608
  875MOL0     C18024  10.090   5.213   7.005  0.3654 -0.1337 -0.4750
  875MOL0     O18025  10.170   5.231   7.122  0.2384 -0.2757  0.8300
  875MOL0     C18026  10.127   5.193   7.250  0.1414  0.5780  0.6316
  875MOL0     C18027  10.241   5.143   7.335  0.8553 -0.5233 -1.1354
  875MOL0     C18028  10.352   5.246   7.364  0.5611  0.3158 -0.1863
  875MOL0     C18029  10.444   5.181   7.467 -0.2671 -0.2668  0.8999
  875MOL0     C18030  10.565   5.274   7.495 -0.0159 -0.1366 -0.6494
  875MOL0     C18031  10.653   5.230   7.612  0.0028 -0.4809  0.6554
  875MOL0     C18032  10.797   5.292   7.599 -0.3891 -0.3741 -0.3855
  875MOL0     C18033  10.788   5.450   7.600  0.1166 -0.4695 -0.0627
  875MOL0    Cl18034  10.963   5.503   7.626  0.0579  0.2130  0.0701
  875MOL0     C18035   9.960   5.163   7.001  0.0936  0.2718 -0.2271
  875MOL0     C18036   9.895   5.125   6.884  0.0539 -0.6478 -0.0390
  875MOL0     O18037   9.876   5.333   6.587 -0.3970 -0.2119 -0.2468
  875MOL0     C18038   9.721   5.069   6.413 -0.2191 -0.4943 -0.0330
  875MOL0     C18039   9.623   5.042   6.323  0.3212  0.8096 -0.1593
  875MOL0     N18040   9.191   4.901   5.795  0.0685  0.1271 -0.4342
  875MOL0     N18041   9.126   4.816   5.716 -0.0955 -0.1401 -0.8766
  875MOL0     C18042   8.429   5.178   5.042  0.5254  0.4381  0.3986
  875MOL0     C18043   8.324   5.256   5.101 -0.8218  0.0665  0.2148
  875MOL0     C18044   7.867   5.358   5.118  0.2538 -0.2767 -0.4128
  875MOL0     C18045   7.766   5.367   5.026 -0.5333  0.0403 -0.3797
  875MOL0     C18046   7.640   5.422   5.060 -0.2566  0.2602 -0.2518
  875MOL0     C18047   7.618   5.466   5.186 -0.2227 -0.3020  0.5542
  875MOL0     O18048   7.501   5.516   5.231  0.5388  0.4808  0.0707
  875MOL0     C18049   7.406   5.589   5.147 -0.1893  0.3917 -0.6217
  875MOL0     C18050   7.275   5.516   5.114  0.7396 -0.6110  0.1326
  875MOL0     C18051   7.206   5.569   4.985  0.3448 -0.7989  0.2361
  875MOL0     C18052   7.062   5.511   4.972 -0.6472  0.7288  0.3514
  875MOL0     C18053   6.962   5.612   4.951  0.1073 -0.2604 -0.6753
  875MOL0     C18054   6.871   5.688   4.934 -0.2776  0.5440  0.3936
  875MOL0     C18055   7.724   5.460   5.281  0.6172 -0.7500 -0.0693
  875MOL0     C18056   7.846   5.399   5.252 -0.1365  0.0156 -0.4482
  875MOL0     C18057   7.941   5.386   5.364 -0.0626 -0.0041 -1.0441
  875MOL0     H18058   8.088   5.014   5.133  1.1043 -0.0618 -0.8165
  875MOL0     H18059   8.258   4.879   5.029 -0.1389 -0.2578  0.5936
  875MOL0     H18060   8.403   4.832   4.855 -0.5277 -2.5175  2.1043
  875MOL0     H18061   8.573   4.850   4.814 -0.3786  1.2906  0.1013
  875MOL0     H18062   8.593   4.668   4.945  0.5450  0.0856  0.9369
  875MOL0     H18063   8.430   4.701   5.021 -0.3027  1.6284  0.4973
  875MOL0     H18064   8.610   4.703   5.200  1.5853  0.6739 -0.0928
  875MOL0     H18065   8.548   4.868   5.173 -0.6964 -0.4421  0.9023
  875MOL0     H18066   8.806   4.721   5.065  2.4819  1.3660  0.2843
  875MOL0     H18067   8.751   4.874   4.992 -0.5598  0.3965  0.2324
  875MOL0     H18068   8.921   4.920   5.136  0.3222  0.6112  0.3168
  875MOL0     H18069   8.777   4.973   5.223  2.7364  1.0031  0.5936
  875MOL0     H18070   8.769   4.796   5.375  0.5175  1.2039  0.3083
  875MOL0     H18071   8.903   4.708   5.296  0.9625 -0.0395 -0.4606
  875MOL0     H18072   8.943   4.984   5.394  0.4536 -0.3410 -0.3743
  875MOL0     H18073   9.069   4.867   5.368  0.0940 -0.3502  2.8842
  875MOL0     H18074   8.855   4.839   5.580 -1.5589  0.7451 -1.7065
  875MOL0     H18075   8.983   4.715   5.535  3.7502  0.5984 -0.6438
  875MOL0     H18076   9.032   5.111   5.606  1.6576  1.4085  0.5821
  875MOL0     H18077   9.213   5.234   5.763  0.2796  2.8736  2.2609
  875MOL0     H18078   9.101   5.179   5.895  0.5391 -2.6648  1.0790
  875MOL0     H18079   9.389   5.101   5.894  0.4777  0.2125 -0.3152
  875MOL0     H18080   9.325   5.255   5.960 -3.2790 -0.1171  0.8271
  875MOL0     H18081   9.201   4.989   6.042  2.8576 -2.7086 -0.7654
  875MOL0     H18082   9.190   5.141   6.124 -1.4762 -1.0652 -0.4713
  875MOL0     H18083   9.428   4.949   6.113  2.0670  1.0480  0.4461
  875MOL0     H18084   9.330   5.026   6.248 -1.4242  1.4095 -0.5528
  875MOL0     H18085   9.574   5.375   6.243 -2.3321 -0.7020  1.1878
  875MOL0     H18086   9.760   5.401   6.400  4.5902 -2.3454  0.0706
  875MOL0     H18087  10.156   5.182   6.669  2.7504  2.3314  0.9363
  875MOL0     H18088  10.256   5.266   6.874  1.0692 -1.2681 -3.7666
  875MOL0     H18089  10.068   5.271   7.298 -4.9246 -1.0067 -2.2370
  875MOL0     H18090  10.059   5.107   7.243 -1.3101  1.7322  0.1800
  875MOL0     H18091  10.197   5.101   7.425 -2.3545 -2.2115 -3.2914
  875MOL0     H18092  10.287   5.060   7.281  0.4266 -0.1438 -2.1067
  875MOL0     H18093  10.413   5.277   7.279 -1.2776  1.4311 -1.1694
  875MOL0     H18094  10.299   5.334   7.402 -0.0454 -0.0583 -0.1514
  875MOL0     H18095  10.483   5.084   7.434  0.3484 -0.0899  1.0888
  875MOL0     H18096  10.389   5.165   7.561 -2.2767 -0.0269 -0.1709
  875MOL0     H18097  10.533   5.378   7.504  2.3572  0.4815  3.0481
  875MOL0     H18098  10.630   5.258   7.409  1.5574  0.9818  0.2829
  875MOL0     H18099  10.609   5.257   7.709  2.5683 -1.4544  2.1767
  875MOL0     H18100  10.676   5.123   7.619  1.1875 -0.2644  0.2731
  875MOL0     H18101  10.858   5.254   7.517 -0.3910  0.0587 -0.5921
  875MOL0     H18102  10.850   5.253   7.687 -0.2780 -0.9737 -0.7142
  875MOL0     H18103  10.748   5.495   7.508 -0.3193 -1.3266 -0.3044
  875MOL0     H18104  10.723   5.485   7.681  1.8514 -1.0440  1.6497
  875MOL0     H18105   9.900   5.147   7.090  1.8071  2.0227  1.3263
  875MOL0     H18106   9.789   5.104   6.892 -0.0325 -0.7181 -1.1770
  875MOL0     H18107   9.775   4.988   6.460  2.0574 -0.1858 -1.9508
  875MOL0     H18108   9.587   4.945   6.291  0.9837 -0.2990  2.2864
  875MOL0     H18109   8.525   5.217   5.008  0.0357  0.2372 -1.3216
  875MOL0     H18110   8.346   5.358   5.131  2.2223 -0.3627 -0.2629
  875MOL0     H18111   7.770   5.337   4.922  1.2983 -0.2036 -0.2664
  875MOL0     H18112   7.563   5.423   4.983 -0.4520 -0.6139 -0.0750
  875MOL0     H18113   7.457   5.592   5.050 -2.5827 -2.0151 -2.1082
  875MOL0     H18114   7.392   5.690   5.186  2.0543 -0.2927  2.3213
  875MOL0     H18115   7.208   5.528   5.200  0.5421 -2.8529  0.3413
  875MOL0     H18116   7.289   5.410   5.089  1.9166 -0.4812  0.1799
  875MOL0     H18117   7.263   5.535   4.898  1.4230 -0.3711  0.7673
  875MOL0     H18118   7.207   5.678   4.981 -0.2749 -0.7940 -0.0275
  875MOL0     H18119   7.066   5.440   4.889  3.1424 -0.4761  1.3633
  875MOL0     H18120   7.029   5.459   5.062 -1.4807 -0.1119 -0.4008
  875MOL0     H18121   6.798   5.765   4.920 -0.2692  0.3358 -0.8683
  875MOL0     H18122   7.697   5.499   5.379  2.9037  1.1429 -0.0809
  875MOL0     H18123   7.891   5.425   5.453 -0.6624 -0.2544 -1.2675
  875MOL0     H18124   7.969   5.281   5.375 -0.4734 -0.2540 -2.1885
  875MOL0     H18125   8.029   5.444   5.335  0.2639 -0.1706 -0.3951
  876MOL0     O18126   7.829   9.864   1.173  0.9732  0.5349 -1.1202
  876MOL0     C18127   7.785   9.747   1.169 -0.0693 -0.2466 -0.3067
  876MOL0     O18128   7.859   9.634   1.149 -0.4221  0.1657  0.1138
  876MOL0     C18129   7.981   9.658   1.090 -0.0346 -0.2349  0.0197
  876MOL0     C18130   7.984   9.644   0.952 -0.1985  0.1133 -0.1576
  876MOL0     C18131   8.107   9.673   0.887 -0.3770 -0.5888 -0.2885
  876MOL0     C18132   8.222   9.733   0.955  0.7690  0.0812  0.0133
  876MOL0     O18133   8.332   9.746   0.876 -0.3331  0.3796  0.5091
  876MOL0     C18134   8.447   9.819   0.922  0.7766 -0.0908  0.2316
  876MOL0     C18135   8.574   9.821   0.836 -0.1665 -0.0352  0.4825
  876MOL0     C18136   8.694   9.868   0.919 -0.2602 -0.3171 -0.7084
  876MOL0     C18137   8.813   9.884   0.823 -0.4800 -0.1882  0.4760
  876MOL0     C18138   8.936   9.923   0.907  0.2107  0.4613  0.5762
  876MOL0     C18139   9.021   9.806   0.967 -0.0313  0.7613  0.2820
  876MOL0     C18140   9.174   9.842   0.978 -0.0270  0.2261  0.1342
  876MOL0     C18141   9.278   9.759   1.046 -0.5079  0.1864 -0.3132
  876MOL0     N18142   9.417   9.792   1.008  0.0003  0.0780 -1.0045
  876MOL0     C18143   9.519   9.708   1.041  0.2683 -0.2091  0.2978
  876MOL0     C18144   9.623   9.775   0.987 -0.9845 -0.5884  0.0706
  876MOL0     C18145   9.762   9.723   1.000 -0.1047  0.6515 -0.6073
  876MOL0     C18146   9.844   9.789   1.110  1.1309 -0.7513  0.2430
  876MOL0     C18147   9.980   9.712   1.139 -0.3427 -0.5419  0.8960
  876MOL0     C18148  10.098   9.803   1.175 -0.4836 -0.6236  0.2099
  876MOL0     O18149  10.226   9.721   1.186  0.2511 -0.5251 -0.3743
  876MOL0     C18150  10.307   9.721   1.072 -0.9697 -0.0488  0.4037
  876MOL0     C18151  10.415   9.805   1.048  0.6608  0.2291 -0.7301
  876MOL0     C18152  10.494   9.790   0.930 -0.0603  0.5769  0.1375
  876MOL0     C18153  10.472   9.688   0.832  0.4665  0.1198 -0.5535
  876MOL0     C18154  10.549   9.684   0.710 -0.2106  0.0328 -0.9227
  876MOL0     O18155  10.521   9.597   0.614  0.4948 -0.4606  0.3562
  876MOL0     C18156  10.610   9.553   0.523  0.6715  0.0314  0.6277
  876MOL0     C18157  10.743   9.596   0.490 -0.3899  0.4787  0.3173
  876MOL0     C18158  10.815   9.514   0.408 -0.2782  0.1480  0.3815
  876MOL0     C18159  10.773   9.379   0.370 -0.3243 -0.2072  0.2910
  876MOL0     O18160  10.857   9.295   0.303  0.2976 -0.0627  0.2402
  876MOL0     C18161  10.822   9.159   0.276  1.2659 -0.2047 -0.7961
  876MOL0     C18162  10.933   9.085   0.211 -0.9213 -0.5988  0.7204
  876MOL0     C18163  10.980   9.169   0.091  0.1878  0.5668  0.7134
  876MOL0     C18164  11.085   9.100  -0.002 -0.2500  0.6136  0.2344
  876MOL0     C18165  11.112   9.186  -0.133  0.5640  0.2459  0.3396
  876MOL0     C18166  11.221   9.115  -0.226 -0.0260 -0.6402 -0.2704
  876MOL0     C18167  11.174   8.983  -0.288  1.0340  0.1512 -0.2892
  876MOL0     C18168  11.279   8.929  -0.391  0.4675  0.3124 -0.8682
  876MOL0    Cl18169  11.279   9.023  -0.543  0.1494 -0.1208  0.0334
  876MOL0     C18170  10.645   9.339   0.407  1.6835 -0.1325 -0.3880
  876MOL0     C18171  10.561   9.429   0.477 -0.1962 -0.6330 -0.6948
  876MOL0     O18172  10.652   9.760   0.712 -0.4036 -0.0478 -0.1390
  876MOL0     C18173  10.363   9.606   0.860 -0.4337  0.1610  0.5309
  876MOL0     C18174  10.288   9.618   0.974  0.3755 -0.5492 -1.3448
  876MOL0     N18175   9.586   9.878   0.904  0.3065  0.0725 -1.1789
  876MOL0     N18176   9.460   9.889   0.928 -0.3616 -0.2233  0.5284
  876MOL0     C18177   8.206   9.758   1.090 -0.2787  0.3431 -0.2675
  876MOL0     C18178   8.087   9.723   1.156  0.7185 -0.4705  0.2110
  876MOL0     C18179   7.635   9.733   1.197  0.1128  0.3918  0.5516
  876MOL0     C18180   7.545   9.837   1.169 -0.8102 -0.4960  0.4977
  876MOL0     C18181   7.413   9.830   1.186  1.0236  0.0797  0.4596
  876MOL0     C18182   7.350   9.714   1.233 -0.3828 -0.1101 -0.1452
  876MOL0     O18183   7.216   9.698   1.248 -0.2091  0.3435  0.5373
  876MOL0     C18184   7.121   9.783   1.172 -0.0581 -1.1544  0.8758
  876MOL0     C18185   7.119   9.754   1.022  0.3895  0.2989 -0.5800
  876MOL0     C18186   6.994   9.824   0.969  0.2441  0.4197 -0.7197
  876MOL0     C18187   6.999   9.970   0.956 -0.0906  0.1263 -0.1135
  876MOL0     C18188   6.888  10.000   0.865 -0.6093  0.5426 -1.1277
  876MOL0     C18189   6.793  10.040   0.808  0.7380 -0.0232  0.1466
  876MOL0     C18190   7.439   9.613   1.274 -0.3433  0.3780  0.3005
  876MOL0     C18191   7.582   9.619   1.250 -0.3591  0.2606 -0.3154
  876MOL0     C18192   7.659   9.491   1.281 -0.4513 -0.8066  0.1732
  876MOL0     H18193   7.900   9.607   0.894  0.2974 -1.5253  0.1340
  876MOL0     H18194   8.118   9.652   0.781  0.4476 -2.8548  0.1969
  876MOL0     H18195   8.422   9.925   0.930 -0.8933 -0.4761  0.3595
  876MOL0     H18196   8.471   9.773   1.019  0.5578 -2.8869 -0.9562
  876MOL0     H18197   8.559   9.884   0.747 -1.0877  0.1343  0.7531
  876MOL0     H18198   8.588   9.717   0.805 -1.5914  0.0380 -0.5132
  876MOL0     H18199   8.725   9.799   0.998 -1.0946  1.6144  1.4497
  876MOL0     H18200   8.672   9.966   0.965 -2.2135 -0.3076 -1.5762
  876MOL0     H18201   8.827   9.793   0.762 -0.2588  0.7353 -0.9007
  876MOL0     H18202   8.784   9.950   0.741 -0.3600 -0.3057  0.3357
  876MOL0     H18203   9.006   9.971   0.837  0.1815 -1.9469 -1.2337
  876MOL0     H18204   8.902   9.995   0.982  0.9887  0.8845  0.5329
  876MOL0     H18205   8.981   9.773   1.063  0.0920  2.1753  0.8403
  876MOL0     H18206   9.002   9.723   0.898 -1.6476 -0.3185  1.9499
  876MOL0     H18207   9.189   9.946   1.009 -0.4276  0.4446 -0.3716
  876MOL0     H18208   9.197   9.826   0.872  0.3023  0.4896  0.1629
  876MOL0     H18209   9.266   9.756   1.155  2.1359 -2.0643 -0.0003
  876MOL0     H18210   9.262   9.663   0.996 -0.2198  0.6675 -1.3613
  876MOL0     H18211   9.508   9.623   1.107 -4.6428 -0.2221 -0.1982
  876MOL0     H18212   9.758   9.616   1.020  2.2126  0.2329 -2.0330
  876MOL0     H18213   9.814   9.735   0.905 -3.0015  1.1083 -2.2523
  876MOL0     H18214   9.871   9.892   1.085  0.8242 -0.1964  2.0447
  876MOL0     H18215   9.773   9.791   1.194 -1.5834 -1.7018 -1.8703
  876MOL0     H18216  10.014   9.663   1.047  2.0256  3.2717 -0.4994
  876MOL0     H18217   9.964   9.634   1.214  2.0375 -1.3197  0.6516
  876MOL0     H18218  10.076   9.856   1.268  1.5207 -0.9129  0.8914
  876MOL0     H18219  10.105   9.879   1.097  0.3375  2.8109  3.3639
  876MOL0     H18220  10.434   9.886   1.117  1.1221 -0.5117  0.0222
  876MOL0     H18221  10.577   9.857   0.909  1.6491 -1.6878 -0.7156
  876MOL0     H18222  10.785   9.693   0.514 -1.7597  0.3621  3.7469
  876MOL0     H18223  10.916   9.535   0.377 -0.2620 -0.2970  0.1222
  876MOL0     H18224  10.806   9.106   0.371  0.0463  1.6395  0.0828
  876MOL0     H18225  10.731   9.154   0.214 -0.1148  1.9676  0.9043
  876MOL0     H18226  11.007   9.080   0.291  0.9248  3.2072 -0.5131
  876MOL0     H18227  10.908   8.985   0.175  2.6463 -0.8105 -1.6431
  876MOL0     H18228  10.894   9.192   0.028  2.5094 -0.1652 -3.0491
  876MOL0     H18229  11.009   9.268   0.127 -1.3086  0.7771  1.4097
  876MOL0     H18230  11.061   8.996  -0.027 -0.7034  0.3756  1.5768
  876MOL0     H18231  11.182   9.107   0.048  0.9349 -3.4329 -1.1168
  876MOL0     H18232  11.133   9.291  -0.113  0.0883 -0.0397  2.6434
  876MOL0     H18233  11.017   9.189  -0.186 -0.6341 -2.1174  2.1371
  876MOL0     H18234  11.251   9.185  -0.305  3.0932  1.5026  2.5439
  876MOL0     H18235  11.304   9.090  -0.160 -0.5913  1.1399  1.2054
  876MOL0     H18236  11.077   8.977  -0.338  0.2310 -0.0152  1.2383
  876MOL0     H18237  11.173   8.908  -0.208  0.0751  1.0181  0.5424
  876MOL0     H18238  11.378   8.927  -0.344 -1.1129 -3.0264  2.9179
  876MOL0     H18239  11.253   8.824  -0.407  1.7360 -0.3911  1.1809
  876MOL0     H18240  10.595   9.252   0.366 -0.7446  0.4706  1.0908
  876MOL0     H18241  10.459   9.401   0.499  0.5277 -1.8454  1.4722
  876MOL0     H18242  10.335   9.538   0.781  0.7950 -0.1830  0.3726
  876MOL0     H18243  10.198   9.561   0.994 -0.4346  1.6615  2.1349
  876MOL0     H18244   8.287   9.803   1.147 -0.0690  2.9552 -2.4054
  876MOL0     H18245   8.065   9.764   1.253  0.2243  0.6176 -0.3416
  876MOL0     H18246   7.588   9.930   1.133  1.1037 -1.9681 -1.2774
  876MOL0     H18247   7.349   9.916   1.173  0.4057 -0.3809  0.3927
  876MOL0     H18248   7.125   9.891   1.190 -0.9111 -1.0276  0.3953
  876MOL0     H18249   7.023   9.757   1.215  0.0073  0.7223  2.2920
  876MOL0     H18250   7.103   9.646   1.016 -0.9855  0.5559 -2.3205
  876MOL0     H18251   7.205   9.790   0.965 -0.8581  2.0773 -1.4227
  876MOL0     H18252   6.913   9.792   1.036  1.5822  0.8938  1.2111
  876MOL0     H18253   6.990   9.772   0.873  3.1123  1.0615 -1.2688
  876MOL0     H18254   6.986  10.020   1.053 -0.4805  0.3119 -0.2568
  876MOL0     H18255   7.093   9.989   0.904 -0.0136 -0.1806 -0.0849
  876MOL0     H18256   6.714  10.085   0.752  1.0899 -1.4562 -1.5893
  876MOL0     H18257   7.406   9.524   1.325  4.0414 -0.2686  2.4474
  876MOL0     H18258   7.686   9.437   1.190 -3.2569  0.7784 -1.7445
  876MOL0     H18259   7.744   9.517   1.345 -1.8155  1.3687  1.2341
  876MOL0     H18260   7.593   9.429   1.343 -2.1947  1.9491  1.2715
  877MOL0     O18261   2.072   9.957   4.568 -0.2313  0.1181  0.8159
  877MOL0     C18262   1.970   9.947   4.643 -0.3022 -0.2134  0.0301
  877MOL0     O18263   1.881  10.043   4.683  0.0306 -0.4608  0.6340
  877MOL0     C18264   1.870  10.161   4.613  0.8354  0.2269 -0.2242
  877MOL0     C18265   1.860  10.175   4.468  0.7329  0.5495  0.1899
  877MOL0     C18266   1.824  10.293   4.402 -0.5246 -0.1543 -0.0052
  877MOL0     C18267   1.792  10.408   4.486 -0.9942 -0.2162  0.5536
  877MOL0     O18268   1.743  10.528   4.436  0.0483  0.5133 -0.0691
  877MOL0     C18269   1.740  10.553   4.294 -0.3393  0.7709 -0.4640
  877MOL0     C18270   1.720  10.698   4.257 -0.2831  0.4226 -0.1820
  877MOL0     C18271   1.832  10.794   4.284  0.0698 -0.0901 -0.5666
  877MOL0     C18272   1.828  10.838   4.426  0.1123 -1.0061 -0.0954
  877MOL0     C18273   1.941  10.938   4.462  0.4615  0.3838 -0.3213
  877MOL0     C18274   1.933  11.070   4.376 -0.1901 -0.1018  0.5667
  877MOL0     C18275   1.813  11.147   4.424 -0.2433  0.0887 -0.1627
  877MOL0     C18276   1.827  11.295   4.371 -0.5279  0.3374 -0.9665
  877MOL0     N18277   1.942  11.357   4.438  0.3164 -0.5950  0.4401
  877MOL0     C18278   1.925  11.428   4.554  0.5105  0.4678  0.2144
  877MOL0     C18279   2.050  11.478   4.584  0.0618 -0.1372 -0.4285
  877MOL0     C18280   2.085  11.571   4.701  0.0206  0.0698 -0.4301
  877MOL0     C18281   2.233  11.578   4.738 -0.6956  0.0775 -0.1725
  877MOL0     C18282   2.261  11.678   4.851  0.8033  0.4366 -0.5288
  877MOL0     C18283   2.413  11.698   4.855 -0.0453  0.5274 -0.5488
  877MOL0     O18284   2.474  11.572   4.891 -0.1771 -1.0591 -0.2003
  877MOL0     C18285   2.614  11.578   4.898 -0.3676 -0.4462 -0.1867
  877MOL0     C18286   2.697  11.684   4.851 -0.3908  0.1810 -0.3630
  877MOL0     C18287   2.837  11.674   4.856 -0.0220 -0.3236 -0.0717
  877MOL0     C18288   2.895  11.556   4.910  0.2893 -0.2845  0.7281
  877MOL0     C18289   3.046  11.540   4.898  0.5194  0.0595 -0.5284
  877MOL0     O18290   3.108  11.424   4.947  0.6410  0.3167  0.3595
  877MOL0     C18291   3.232  11.382   4.910 -0.3564  1.0327  0.6601
  877MOL0     C18292   3.340  11.441   4.976 -0.2599 -0.0326  0.1132
  877MOL0     C18293   3.471  11.396   4.964  0.4831  0.1578  0.2458
  877MOL0     C18294   3.497  11.287   4.883  0.4546  0.4144  0.1116
  877MOL0     O18295   3.633  11.252   4.871  0.4694  0.5335  0.0154
  877MOL0     C18296   3.671  11.129   4.809 -0.0058 -0.5049  0.0263
  877MOL0     C18297   3.682  11.129   4.654 -0.8120  0.0167 -0.5831
  877MOL0     C18298   3.793  11.036   4.608 -0.1728  0.1909 -0.5353
  877MOL0     C18299   3.831  11.074   4.462  0.6955 -1.0292  0.0164
  877MOL0     C18300   3.881  10.950   4.384 -0.2465  0.0324 -0.7248
  877MOL0     C18301   3.972  10.992   4.264 -0.1093  0.1769 -0.3073
  877MOL0     C18302   4.013  10.865   4.196 -0.7266  0.0845  0.0012
  877MOL0     C18303   4.127  10.886   4.094 -0.8373  0.4603  0.5431
  877MOL0    Cl18304   4.272  10.935   4.188  0.4289 -0.3272 -0.0731
  877MOL0     C18305   3.390  11.235   4.804 -0.7175 -0.2567 -0.3830
  877MOL0     C18306   3.253  11.276   4.820  0.7277 -0.5472  0.1509
  877MOL0     O18307   3.106  11.630   4.842 -0.5136 -0.1389  0.0519
  877MOL0     C18308   2.815  11.451   4.965 -0.2516 -0.4349  0.0269
  877MOL0     C18309   2.681  11.473   4.958  0.0973  0.5302 -0.0799
  877MOL0     N18310   2.137  11.447   4.481 -0.2463  0.3904  0.5593
  877MOL0     N18311   2.071  11.378   4.394 -0.2424 -0.8085  0.0191
  877MOL0     C18312   1.814  10.398   4.626 -1.1192  0.2526  0.7056
  877MOL0     C18313   1.846  10.275   4.686  1.0573  0.2776 -0.6196
  877MOL0     C18314   1.934   9.811   4.691 -0.2766  0.1594 -0.4694
  877MOL0     C18315   1.797   9.778   4.716  0.9417  0.1415  0.0481
  877MOL0     C18316   1.762   9.654   4.769  0.4388  0.3386  0.1126
  877MOL0     C18317   1.849   9.551   4.772  0.0396  0.2120 -0.4967
  877MOL0     O18318   1.820   9.427   4.814 -1.1561  0.7639 -0.2316
  877MOL0     C18319   1.687   9.371   4.810 -0.8665 -0.1384  0.6229
  877MOL0     C18320   1.661   9.305   4.669 -0.4346  0.3535 -0.1870
  877MOL0     C18321   1.534   9.215   4.677 -0.0380 -0.1349 -0.2534
  877MOL0     C18322   1.472   9.217   4.544 -0.0495 -0.3599  0.1312
  877MOL0     C18323   1.339   9.154   4.551  0.1093 -0.5485 -0.9009
  877MOL0     C18324   1.224   9.112   4.558 -0.1090  0.5358  0.8233
  877MOL0     C18325   1.983   9.577   4.743  0.4451  0.3861  1.5950
  877MOL0     C18326   2.022   9.699   4.695 -0.8775 -0.0881  0.2870
  877MOL0     C18327   2.164   9.697   4.648 -1.2473 -0.2713  0.1792
  877MOL0     H18328   1.892  10.087   4.413  3.3384  0.0899  2.2227
  877MOL0     H18329   1.805  10.282   4.296 -3.3111  2.5136  0.0798
  877MOL0     H18330   1.832  10.515   4.249 -1.7963  0.4312 -3.3345
  877MOL0     H18331   1.661  10.491   4.252  1.1271  0.4855 -2.9998
  877MOL0     H18332   1.621  10.730   4.290 -0.4395  2.0119 -1.9731
  877MOL0     H18333   1.711  10.686   4.148 -0.0741 -2.3254  0.0159
  877MOL0     H18334   1.808  10.883   4.226 -0.1659  0.2635  0.0679
  877MOL0     H18335   1.930  10.753   4.256  0.5261  1.0373 -0.6811
  877MOL0     H18336   1.733  10.880   4.460  0.1943  0.3004 -1.3643
  877MOL0     H18337   1.850  10.750   4.487 -0.0730 -1.2454 -0.3644
  877MOL0     H18338   1.934  10.974   4.565 -0.2620  0.4052 -0.3781
  877MOL0     H18339   2.037  10.891   4.441 -0.1524 -0.6859 -0.7630
  877MOL0     H18340   2.029  11.121   4.390  0.2824 -0.9244  0.4693
  877MOL0     H18341   1.917  11.041   4.272  0.0234 -1.1406  0.8068
  877MOL0     H18342   1.806  11.154   4.533  1.4791  0.5228 -0.0458
  877MOL0     H18343   1.726  11.097   4.380  0.1842 -0.7599 -0.0746
  877MOL0     H18344   1.848  11.281   4.265 -1.2006 -3.4597 -0.7474
  877MOL0     H18345   1.744  11.364   4.387 -1.1656 -0.9522  1.9542
  877MOL0     H18346   1.833  11.444   4.610 -0.1650  0.9193 -0.9717
  877MOL0     H18347   2.063  11.671   4.660  0.1073  0.0211 -0.5980
  877MOL0     H18348   2.021  11.554   4.787  1.1914  1.0039  0.6627
  877MOL0     H18349   2.270  11.480   4.771  1.5535  1.6054  2.3566
  877MOL0     H18350   2.282  11.604   4.644  0.0693 -0.4954  0.0500
  877MOL0     H18351   2.221  11.653   4.950  0.1321  1.4839 -0.5189
  877MOL0     H18352   2.206  11.770   4.829 -1.3831 -0.7193 -0.1810
  877MOL0     H18353   2.442  11.780   4.922 -2.1107 -0.2361  1.4069
  877MOL0     H18354   2.446  11.722   4.754  1.6044 -1.8861 -0.6747
  877MOL0     H18355   2.648  11.765   4.799 -1.7671 -2.1468 -2.9570
  877MOL0     H18356   2.898  11.760   4.831  0.9506 -0.3948  1.8170
  877MOL0     H18357   3.333  11.522   5.048  0.8344  0.2430 -0.0828
  877MOL0     H18358   3.551  11.428   5.030  3.1246 -2.0259 -1.6911
  877MOL0     H18359   3.775  11.116   4.840  0.4506  0.4990 -1.0144
  877MOL0     H18360   3.608  11.048   4.846 -0.0373 -1.4032 -1.8815
  877MOL0     H18361   3.587  11.094   4.613 -0.9671 -0.7593  0.4091
  877MOL0     H18362   3.700  11.234   4.630  2.3542  0.0209  1.2872
  877MOL0     H18363   3.883  11.032   4.670  0.3711 -1.9954 -1.3835
  877MOL0     H18364   3.750  10.936   4.606  1.2935 -0.4991  0.7322
  877MOL0     H18365   3.909  11.149   4.476 -0.6110  0.3087  0.2825
  877MOL0     H18366   3.751  11.129   4.412  0.4433 -1.4621 -0.0661
  877MOL0     H18367   3.793  10.892   4.353 -0.0835 -0.7781  0.2564
  877MOL0     H18368   3.925  10.878   4.453 -1.6344 -1.3104 -1.1621
  877MOL0     H18369   3.925  11.062   4.194 -0.5155  0.9799  0.7465
  877MOL0     H18370   4.058  11.045   4.306 -0.1405  1.8964 -2.2427
  877MOL0     H18371   3.924  10.819   4.152  0.2331 -2.1576  0.2644
  877MOL0     H18372   4.053  10.784   4.258 -0.6296 -0.6039 -0.9395
  877MOL0     H18373   4.142  10.787   4.050  1.6984  1.8297 -1.9641
  877MOL0     H18374   4.100  10.966   4.025  0.0772  0.9633  0.7492
  877MOL0     H18375   3.408  11.161   4.727  0.3702 -1.2560  0.7837
  877MOL0     H18376   3.170  11.248   4.756  1.3423 -2.0478 -0.0400
  877MOL0     H18377   2.870  11.366   5.006 -0.8666 -0.2661  1.2383
  877MOL0     H18378   2.625  11.394   5.007  1.1159 -1.7490 -2.3251
  877MOL0     H18379   1.793  10.487   4.684 -4.1686 -0.4977  0.8913
  877MOL0     H18380   1.870  10.271   4.792  2.5270  1.5091 -0.8790
  877MOL0     H18381   1.730   9.862   4.703  3.6540  2.3317 -0.7014
  877MOL0     H18382   1.656   9.646   4.793  0.1203  2.3905 -0.3875
  877MOL0     H18383   1.610   9.449   4.817 -1.3129 -0.4188 -0.8231
  877MOL0     H18384   1.677   9.298   4.890  0.0878  0.5811  1.4146
  877MOL0     H18385   1.749   9.254   4.628 -0.0898 -0.6539  1.6938
  877MOL0     H18386   1.649   9.389   4.599  5.2093  1.3073 -0.4980
  877MOL0     H18387   1.468   9.256   4.753  1.1132 -2.0756  1.9335
  877MOL0     H18388   1.567   9.112   4.695  1.3810  0.5514  1.3936
  877MOL0     H18389   1.458   9.320   4.511  0.2576 -0.3628 -0.0111
  877MOL0     H18390   1.530   9.169   4.465 -0.7748 -1.9670  0.5370
  877MOL0     H18391   1.122   9.081   4.569  0.3485 -0.1981  4.3850
  877MOL0     H18392   2.055   9.496   4.748 -0.8233 -1.2576 -2.5015
  877MOL0     H18393   2.167   9.702   4.539  0.3005  1.1170  0.2389
  877MOL0     H18394   2.202   9.789   4.693  3.3941 -1.0534 -1.6001
  877MOL0     H18395   2.227   9.614   4.681 -0.5375 -0.4986 -1.6506
  878MOL0     O18396   1.241   1.255   6.895  0.6464 -0.8261  0.2788
  878MOL0     C18397   1.163   1.204   6.975 -0.9608 -0.6274 -0.1390
  878MOL0     O18398   1.201   1.117   7.072 -0.3906  0.0591 -0.0293
  878MOL0     C18399   1.322   1.055   7.063 -0.4263  0.4977  0.6473
  878MOL0     C18400   1.347   0.965   6.957 -0.1729 -0.1597  0.4911
  878MOL0     C18401   1.469   0.892   6.950 -0.2790  1.1205 -0.4502
  878MOL0     C18402   1.573   0.919   7.041 -0.3050 -0.1331 -0.3283
  878MOL0     O18403   1.698   0.865   7.052 -0.2936  0.6088  0.0799
  878MOL0     C18404   1.733   0.796   6.934  0.1141 -0.1936 -0.0848
  878MOL0     C18405   1.881   0.762   6.935  0.4633 -0.3102  0.2639
  878MOL0     C18406   1.967   0.893   6.972 -0.1827  1.2510  0.2215
  878MOL0     C18407   2.110   0.867   6.937  0.1106 -0.3774 -0.4509
  878MOL0     C18408   2.193   0.980   6.997 -0.8515 -0.2875 -0.5372
  878MOL0     C18409   2.168   1.113   6.913 -0.0855  1.1254  0.4500
  878MOL0     C18410   2.253   1.233   6.954 -0.6557 -0.2655  0.0640
  878MOL0     C18411   2.222   1.361   6.875  0.0620 -0.4454 -0.1387
  878MOL0     N18412   2.333   1.460   6.893  0.2025  0.2405 -0.1213
  878MOL0     C18413   2.407   1.474   7.011  0.7081 -0.3405  1.1440
  878MOL0     C18414   2.514   1.536   6.970 -1.1213 -0.2210 -0.3660
  878MOL0     C18415   2.639   1.570   7.044 -0.7147  0.8093 -0.1278
  878MOL0     C18416   2.719   1.452   7.096 -0.0438  0.2992  0.0205
  878MOL0     C18417   2.774   1.346   7.000 -0.0416 -0.0877  0.4128
  878MOL0     C18418   2.862   1.236   7.048  0.1346  0.1197 -0.5119
  878MOL0     O18419   2.894   1.136   6.954  0.0959 -0.2069  0.1202
  878MOL0     C18420   2.997   1.163   6.866 -0.6285 -0.3524 -0.1121
  878MOL0     C18421   3.031   1.061   6.776  0.0911 -0.0738  0.0602
  878MOL0     C18422   3.135   1.071   6.688 -0.6630  0.1327  0.8511
  878MOL0     C18423   3.201   1.187   6.672 -0.0280  0.1979 -0.3549
  878MOL0     C18424   3.296   1.209   6.555 -0.2865  0.5506  0.4122
  878MOL0     O18425   3.372   1.326   6.548  0.1706 -0.0014  0.3454
  878MOL0     C18426   3.457   1.338   6.447  0.5245 -0.9430  0.7359
  878MOL0     C18427   3.415   1.353   6.315 -0.1353 -0.0501 -0.7466
  878MOL0     C18428   3.509   1.376   6.208  0.3266  0.5802  0.3696
  878MOL0     C18429   3.644   1.394   6.236  0.2823  0.2894 -0.2050
  878MOL0     O18430   3.747   1.413   6.141  0.3277  0.0200  0.3056
  878MOL0     C18431   3.764   1.303   6.058  0.2394  0.2832 -0.2490
  878MOL0     C18432   3.898   1.294   5.975 -0.3154 -0.7151  0.0166
  878MOL0     C18433   3.971   1.430   5.960 -0.2411  0.6655 -0.2023
  878MOL0     C18434   4.083   1.425   5.853 -0.5177  0.5370 -0.5824
  878MOL0     C18435   4.141   1.560   5.845  0.9416  0.3224 -0.7408
  878MOL0     C18436   4.258   1.572   5.739  0.3212 -0.1031 -0.3742
  878MOL0     C18437   4.256   1.715   5.675  0.3429  0.3609  0.1082
  878MOL0     C18438   4.393   1.759   5.621 -0.0266  1.2763 -0.8885
  878MOL0    Cl18439   4.449   1.675   5.468 -0.1140 -0.2647 -0.0074
  878MOL0     C18440   3.684   1.386   6.364 -0.3409  0.6201 -0.0753
  878MOL0     C18441   3.595   1.361   6.471 -0.2797  0.5029 -0.3158
  878MOL0     O18442   3.276   1.130   6.463 -0.6522 -0.0607  0.7693
  878MOL0     C18443   3.182   1.293   6.762  0.1329  0.3608 -0.3855
  878MOL0     C18444   3.085   1.279   6.864  0.0145  0.8497 -0.5930
  878MOL0     N18445   2.511   1.566   6.834  1.0203 -0.3171  1.1340
  878MOL0     N18446   2.398   1.518   6.791  0.5690 -0.3349 -0.0960
  878MOL0     C18447   1.550   1.020   7.143  0.5750 -0.3068  0.6998
  878MOL0     C18448   1.423   1.084   7.149  0.0707  0.6137 -0.6183
  878MOL0     C18449   1.015   1.237   6.989 -0.1925 -0.1125 -0.1512
  878MOL0     C18450   0.933   1.167   7.081 -0.0810 -0.7812 -0.0815
  878MOL0     C18451   0.800   1.196   7.094 -0.0710  0.1618 -0.1081
  878MOL0     C18452   0.741   1.295   7.010 -0.0588 -0.1523  0.2997
  878MOL0     O18453   0.608   1.316   7.015  0.3023  0.0733  0.5324
  878MOL0     C18454   0.532   1.318   6.889 -0.2143  0.3506 -0.0830
  878MOL0     C18455   0.514   1.174   6.856 -0.0170 -0.3466  0.4950
  878MOL0     C18456   0.442   1.092   6.962  0.1763 -0.3901 -0.0920
  878MOL0     C18457   0.377   0.958   6.918  0.5240  0.1920  0.4329
  878MOL0     C18458   0.308   0.894   7.032 -0.8974  0.1449  0.0684
  878MOL0     C18459   0.237   0.829   7.115 -0.6553  0.4147 -0.2523
  878MOL0     C18460   0.821   1.368   6.918 -0.5457 -0.4727 -0.1788
  878MOL0     C18461   0.958   1.344   6.911  0.3590  0.1169  0.5355
  878MOL0     C18462   1.043   1.419   6.805  0.2286  0.1662  0.0785
  878MOL0     H18463   1.272   0.956   6.879  0.2273 -0.3864  0.1288
  878MOL0     H18464   1.485   0.805   6.887 -1.4005 -0.8475  1.8110
  878MOL0     H18465   1.673   0.709   6.907 -1.7922  1.2070 -0.6555
  878MOL0     H18466   1.724   0.869   6.853  1.7384  0.3236  0.1628
  878MOL0     H18467   1.909   0.724   6.836 -1.3069 -3.3680  0.8002
  878MOL0     H18468   1.905   0.679   7.003 -0.1876  0.3008  1.2686
  878MOL0     H18469   1.953   0.896   7.080 -0.1281 -0.8591  0.3408
  878MOL0     H18470   1.927   0.976   6.913 -0.3876  0.6997 -0.4440
  878MOL0     H18471   2.143   0.779   6.991  2.1508  0.8261  0.4018
  878MOL0     H18472   2.127   0.850   6.830  1.8783  1.4670 -0.5408
  878MOL0     H18473   2.171   0.998   7.102  1.3502  1.0040 -0.2468
  878MOL0     H18474   2.302   0.973   6.985 -0.9349 -3.8826 -0.3134
  878MOL0     H18475   2.187   1.078   6.811  3.2740  0.1899  1.2779
  878MOL0     H18476   2.060   1.133   6.917 -0.6481 -1.0334 -1.8083
  878MOL0     H18477   2.356   1.198   6.940 -1.2488 -1.8797 -0.4932
  878MOL0     H18478   2.233   1.253   7.059 -1.8764  1.9055 -0.5135
  878MOL0     H18479   2.200   1.351   6.768 -0.4608  1.7942 -0.2869
  878MOL0     H18480   2.128   1.410   6.903 -0.9333 -1.9911 -0.6202
  878MOL0     H18481   2.389   1.438   7.112  1.2265  0.9338  1.7090
  878MOL0     H18482   2.703   1.618   6.969 -0.4991  0.4365 -0.1840
  878MOL0     H18483   2.616   1.625   7.136 -2.5278 -2.4424  1.5171
  878MOL0     H18484   2.806   1.497   7.144  1.6189 -0.4813 -2.1077
  878MOL0     H18485   2.653   1.411   7.173 -0.8582  0.5687 -0.5110
  878MOL0     H18486   2.826   1.401   6.921 -1.1878  0.2464 -0.1417
  878MOL0     H18487   2.686   1.309   6.946  0.2415 -1.8378  1.1050
  878MOL0     H18488   2.803   1.191   7.127 -0.8946 -0.5931 -1.6470
  878MOL0     H18489   2.958   1.272   7.088 -0.1468 -0.2609  0.5107
  878MOL0     H18490   2.976   0.968   6.779  1.5736 -0.9774  0.2506
  878MOL0     H18491   3.162   0.992   6.619  0.8226  0.6767  0.7705
  878MOL0     H18492   3.308   1.354   6.298  0.0338  0.6048 -1.8068
  878MOL0     H18493   3.474   1.373   6.106  0.2418  2.8284  0.2975
  878MOL0     H18494   3.754   1.217   6.125  0.2002 -0.4110 -1.1258
  878MOL0     H18495   3.684   1.300   5.983 -0.2624 -2.0360  0.2942
  878MOL0     H18496   3.958   1.223   6.032 -3.6136 -2.4957  1.5702
  878MOL0     H18497   3.884   1.259   5.872  2.1366  0.7946 -0.9138
  878MOL0     H18498   3.893   1.502   5.934  0.0748  0.9487 -0.3706
  878MOL0     H18499   4.009   1.452   6.061 -4.6289 -1.9861  2.3298
  878MOL0     H18500   4.042   1.398   5.755 -0.7614 -1.9093  0.1299
  878MOL0     H18501   4.162   1.357   5.884 -0.5647  0.4821 -0.5832
  878MOL0     H18502   4.152   1.600   5.946  0.9150  0.5845 -0.8407
  878MOL0     H18503   4.063   1.625   5.804  1.2839  0.5180 -1.0844
  878MOL0     H18504   4.356   1.554   5.785  1.4514 -0.3523 -2.7560
  878MOL0     H18505   4.247   1.494   5.664  1.5462  0.4887 -1.2053
  878MOL0     H18506   4.220   1.791   5.745 -3.9444  1.2181 -2.6341
  878MOL0     H18507   4.178   1.714   5.598 -1.3697  0.7534  1.7482
  878MOL0     H18508   4.385   1.867   5.606  1.5988  1.2801 -1.9742
  878MOL0     H18509   4.464   1.736   5.701  0.0440  1.0562 -1.0126
  878MOL0     H18510   3.790   1.410   6.372 -0.1902 -0.4952  2.0652
  878MOL0     H18511   3.631   1.375   6.573 -1.0708  1.0913 -0.1049
  878MOL0     H18512   3.237   1.387   6.754 -0.7190  0.9288  0.3218
  878MOL0     H18513   3.065   1.360   6.933 -1.7245  0.5872 -0.7363
  878MOL0     H18514   1.637   1.047   7.202  0.2289  0.5207  0.8391
  878MOL0     H18515   1.419   1.156   7.230  1.5678 -0.2389  0.2457
  878MOL0     H18516   0.972   1.089   7.145 -0.1701 -2.1294 -1.6017
  878MOL0     H18517   0.746   1.148   7.174  3.4096  1.3707  3.3300
  878MOL0     H18518   0.586   1.370   6.809  1.2721  0.1556  0.7526
  878MOL0     H18519   0.444   1.380   6.906 -1.2076 -0.9051 -0.5108
  878MOL0     H18520   0.599   1.123   6.810 -2.1687  0.6495 -5.4800
  878MOL0     H18521   0.438   1.171   6.777  0.8874  1.5912 -0.5254
  878MOL0     H18522   0.358   1.148   7.003 -1.2565 -0.7412 -2.3705
  878MOL0     H18523   0.509   1.067   7.045  0.7054 -1.7876 -0.9059
  878MOL0     H18524   0.302   0.969   6.838 -3.3030  0.6748  3.7754
  878MOL0     H18525   0.459   0.896   6.881  1.5889  1.4869  0.5128
  878MOL0     H18526   0.165   0.767   7.165 -1.9612 -0.7792 -3.3538
  878MOL0     H18527   0.777   1.435   6.845  3.2556 -1.1076 -3.3952
  878MOL0     H18528   0.976   1.489   6.753 -0.3236 -1.3936 -1.4190
  878MOL0     H18529   1.128   1.476   6.844  1.1288 -0.6001 -0.7125
  878MOL0     H18530   1.087   1.356   6.727  2.1248  2.7047 -1.0557
  879MOL0     O18531   6.671   2.020   0.159 -0.3219 -0.0090 -0.3436
  879MOL0     C18532   6.589   1.992   0.068 -0.4876 -0.2189  0.3011
  879MOL0     O18533   6.618   2.015  -0.066 -0.2225  0.1016 -0.1652
  879MOL0     C18534   6.746   2.064  -0.089 -0.3272 -0.5421 -0.3952
  879MOL0     C18535   6.741   2.193  -0.139  0.4055  0.8233 -0.8562
  879MOL0     C18536   6.863   2.249  -0.171  0.4342 -0.9231 -0.6573
  879MOL0     C18537   6.986   2.193  -0.142  0.6456 -0.5878 -0.1040
  879MOL0     O18538   7.103   2.250  -0.186  0.4095 -0.3368  0.2081
  879MOL0     C18539   7.187   2.294  -0.081 -0.4516 -0.1534 -0.9843
  879MOL0     C18540   7.312   2.361  -0.131  0.1530 -0.0573  0.1541
  879MOL0     C18541   7.443   2.343  -0.044  0.5908  0.0241 -0.0753
  879MOL0     C18542   7.571   2.408  -0.105  1.2183 -0.7886  0.2906
  879MOL0     C18543   7.567   2.563  -0.079  0.0291  0.4646 -0.2028
  879MOL0     C18544   7.689   2.616  -0.156  0.0380  0.1729  0.1339
  879MOL0     C18545   7.686   2.769  -0.148  0.0371 -0.2295  0.1980
  879MOL0     C18546   7.814   2.828  -0.193 -0.1945  0.4369  0.1588
  879MOL0     N18547   7.921   2.818  -0.092 -0.0484 -0.6367 -0.1589
  879MOL0     C18548   7.947   2.900   0.011 -0.4419 -0.2599  0.1518
  879MOL0     C18549   8.064   2.853   0.061  0.3008 -0.0189  0.1453
  879MOL0     C18550   8.132   2.904   0.179 -0.8672  0.1220  0.5445
  879MOL0     C18551   8.078   2.836   0.304  1.0686 -1.0166 -0.1493
  879MOL0     C18552   8.108   2.907   0.442  0.5947 -0.0041  0.1841
  879MOL0     C18553   8.253   2.917   0.450 -0.1088 -0.3938  0.3545
  879MOL0     O18554   8.299   3.054   0.425 -0.3729  0.4445 -0.4840
  879MOL0     C18555   8.440   3.064   0.424  0.2800 -0.1544 -0.2396
  879MOL0     C18556   8.496   3.166   0.341  0.8149 -0.7342 -0.8090
  879MOL0     C18557   8.624   3.201   0.349 -0.5457  0.8545 -0.5075
  879MOL0     C18558   8.709   3.132   0.442 -0.6328 -0.3184 -0.0965
  879MOL0     C18559   8.852   3.163   0.467 -0.3836 -0.0320  0.1291
  879MOL0     O18560   8.929   3.102   0.568  0.6982  0.2097  0.2620
  879MOL0     C18561   9.068   3.104   0.550 -0.3367  0.1425  0.3967
  879MOL0     C18562   9.154   3.181   0.629  0.3160  0.4437 -0.1235
  879MOL0     C18563   9.288   3.194   0.605 -0.5756  1.3008  0.1118
  879MOL0     C18564   9.350   3.116   0.507  0.3955  0.0946 -0.3732
  879MOL0     O18565   9.485   3.121   0.472  0.2520 -0.0326  0.0712
  879MOL0     C18566   9.572   3.210   0.532 -0.5837 -1.0479  0.2363
  879MOL0     C18567   9.614   3.147   0.672  0.0604 -0.4255  0.1403
  879MOL0     C18568   9.759   3.085   0.665 -0.3271 -0.4607  0.2994
  879MOL0     C18569   9.775   3.012   0.793  0.1579  0.0343 -0.6361
  879MOL0     C18570   9.922   2.981   0.834 -0.2294 -0.1283 -0.2064
  879MOL0     C18571   9.921   2.874   0.944 -0.5143  0.7557  0.5576
  879MOL0     C18572  10.064   2.840   0.972  0.0520 -0.3917  0.3311
  879MOL0     C18573  10.072   2.751   1.094  0.4991 -0.1749 -0.0410
  879MOL0    Cl18574  10.228   2.688   1.107  0.1290 -0.6267  0.0987
  879MOL0     C18575   9.267   3.031   0.429 -0.0821  0.5226 -0.0389
  879MOL0     C18576   9.126   3.032   0.440  0.3075  0.1762  0.5937
  879MOL0     O18577   8.894   3.239   0.381 -0.7227  0.3745 -0.2527
  879MOL0     C18578   8.655   3.023   0.524  0.4020 -0.3376 -0.1653
  879MOL0     C18579   8.521   2.989   0.512 -0.5971  0.4325 -0.0874
  879MOL0     N18580   8.110   2.752  -0.009 -0.0925  0.2429  0.5287
  879MOL0     N18581   8.033   2.734  -0.110  1.1277  0.5254 -0.9332
  879MOL0     C18582   6.993   2.064  -0.091  0.0631  0.2668 -0.3629
  879MOL0     C18583   6.865   1.996  -0.063  0.3966 -0.1992 -0.0178
  879MOL0     C18584   6.457   1.935   0.099  0.5889 -0.1746 -0.0699
  879MOL0     C18585   6.383   1.876  -0.006 -1.0948  0.7114  0.1757
  879MOL0     C18586   6.264   1.806   0.014 -0.0083  0.1054 -0.0002
  879MOL0     C18587   6.211   1.798   0.141 -0.0751  0.0760 -0.6281
  879MOL0     O18588   6.085   1.750   0.171  0.3290  0.6107 -0.7183
  879MOL0     C18589   5.995   1.859   0.173 -0.1498  0.6898 -0.0356
  879MOL0     C18590   5.856   1.809   0.137 -0.2453  0.1082  0.0762
  879MOL0     C18591   5.843   1.759  -0.001  0.2469 -0.3257  0.1100
  879MOL0     C18592   5.723   1.655  -0.024  0.1187 -0.5128 -0.7966
  879MOL0     C18593   5.596   1.703   0.028 -0.1843 -0.2401 -0.1282
  879MOL0     C18594   5.481   1.724   0.056 -0.4182 -0.2886 -0.2586
  879MOL0     C18595   6.285   1.846   0.251  0.0980  0.1256 -0.5163
  879MOL0     C18596   6.405   1.911   0.234 -1.2516 -0.0667 -0.5294
  879MOL0     C18597   6.466   1.964   0.362  0.5737 -0.2337 -1.1012
  879MOL0     H18598   6.647   2.244  -0.155  0.0317  1.5754  2.7664
  879MOL0     H18599   6.860   2.350  -0.210 -2.3724 -0.4488  0.4772
  879MOL0     H18600   7.141   2.362  -0.009  2.1457 -1.1654  1.8655
  879MOL0     H18601   7.223   2.204  -0.029 -2.8609  0.5341  2.1878
  879MOL0     H18602   7.287   2.466  -0.144  1.6439  0.7483  3.0365
  879MOL0     H18603   7.330   2.323  -0.232  2.4925  1.9289 -0.2594
  879MOL0     H18604   7.460   2.238  -0.018 -1.8503 -0.4916 -0.3552
  879MOL0     H18605   7.424   2.392   0.052 -0.6434 -0.0822 -0.2581
  879MOL0     H18606   7.660   2.362  -0.060  1.1426 -0.7519  0.4818
  879MOL0     H18607   7.581   2.388  -0.212  1.0557  0.8586 -0.0553
  879MOL0     H18608   7.479   2.620  -0.108  0.5676 -0.1227 -3.2706
  879MOL0     H18609   7.578   2.579   0.029  0.6494 -1.6346  0.0882
  879MOL0     H18610   7.786   2.579  -0.121  0.7023 -0.0498 -1.8081
  879MOL0     H18611   7.679   2.590  -0.262  2.2050  1.0137 -0.3413
  879MOL0     H18612   7.682   2.798  -0.042 -0.7180 -1.7875  0.6199
  879MOL0     H18613   7.601   2.809  -0.204  0.1104 -0.9241 -0.4207
  879MOL0     H18614   7.847   2.783  -0.287  1.8229  3.4030 -0.6604
  879MOL0     H18615   7.799   2.935  -0.209  1.9062  0.3736 -3.1437
  879MOL0     H18616   7.893   2.977   0.064  0.6038 -1.6133  3.4385
  879MOL0     H18617   8.239   2.886   0.162 -1.0493 -1.2607  0.6916
  879MOL0     H18618   8.126   3.013   0.183  1.2720  0.3770 -1.0967
  879MOL0     H18619   7.971   2.814   0.290  0.0238  0.5858  3.9080
  879MOL0     H18620   8.126   2.738   0.315 -1.0616 -1.8694  2.7213
  879MOL0     H18621   8.081   2.843   0.526  0.9758 -0.9404 -0.3880
  879MOL0     H18622   8.055   3.002   0.455 -0.1556 -0.2527 -0.9010
  879MOL0     H18623   8.300   2.831   0.400 -0.8536 -1.3589  1.2677
  879MOL0     H18624   8.273   2.898   0.556  1.7993  1.4229  0.4007
  879MOL0     H18625   8.423   3.226   0.287 -1.4913 -2.2371  0.4453
  879MOL0     H18626   8.652   3.288   0.290 -0.5660  0.5156 -1.0209
  879MOL0     H18627   9.105   3.240   0.706  1.2112  0.0006  0.8214
  879MOL0     H18628   9.351   3.255   0.669  0.8626 -1.2891  1.3300
  879MOL0     H18629   9.659   3.221   0.466 -0.4243  0.7866  0.6940
  879MOL0     H18630   9.527   3.307   0.553 -1.7690 -1.3743 -0.6638
  879MOL0     H18631   9.595   3.221   0.750 -4.1987 -0.9681 -0.1392
  879MOL0     H18632   9.540   3.071   0.700  0.9355 -1.2976  0.1578
  879MOL0     H18633   9.759   3.015   0.581 -1.5911  0.0359 -0.1275
  879MOL0     H18634   9.839   3.158   0.646  0.6449 -1.6194 -0.1629
  879MOL0     H18635   9.712   2.923   0.799 -3.3014  2.3547  1.3029
  879MOL0     H18636   9.729   3.070   0.874  2.3182  0.2998  0.4919
  879MOL0     H18637   9.963   3.076   0.870 -0.1928 -0.8291  1.7245
  879MOL0     H18638   9.974   2.941   0.747  0.3816  0.3157 -0.0562
  879MOL0     H18639   9.867   2.915   1.030  0.1245  0.3351  1.1726
  879MOL0     H18640   9.865   2.787   0.909 -1.4023  1.8183 -0.7430
  879MOL0     H18641  10.118   2.933   0.995  1.2955 -0.6460 -1.4088
  879MOL0     H18642  10.121   2.784   0.898  1.6897  1.4445  0.1354
  879MOL0     H18643  10.046   2.787   1.193 -3.3624 -2.1562 -0.1549
  879MOL0     H18644   9.999   2.670   1.084 -1.1880  0.9153  2.4208
  879MOL0     H18645   9.317   2.975   0.350  0.6384  1.1694 -0.0466
  879MOL0     H18646   9.061   2.976   0.374 -0.5709  1.5695  0.2476
  879MOL0     H18647   8.722   2.967   0.588 -1.1020 -2.2072 -0.1304
  879MOL0     H18648   8.481   2.917   0.582 -2.5696 -1.2157 -2.7240
  879MOL0     H18649   7.088   2.011  -0.085 -0.0807 -0.4450 -2.8827
  879MOL0     H18650   6.871   1.897  -0.019 -2.0945 -0.7338 -0.7025
  879MOL0     H18651   6.418   1.874  -0.109 -3.7198 -0.7752 -0.7835
  879MOL0     H18652   6.206   1.771  -0.071  0.7215  1.9571 -1.3086
  879MOL0     H18653   6.022   1.940   0.104  1.1086 -0.9825 -1.6019
  879MOL0     H18654   5.994   1.902   0.273 -1.2282 -0.3160  0.4129
  879MOL0     H18655   5.790   1.896   0.142 -0.6782 -0.2298  0.4508
  879MOL0     H18656   5.823   1.738   0.214 -2.8162  0.9919 -0.0950
  879MOL0     H18657   5.940   1.719  -0.033  1.3581  1.1776  1.4384
  879MOL0     H18658   5.832   1.845  -0.068  2.5471  1.1698  1.4860
  879MOL0     H18659   5.711   1.638  -0.132  2.1856 -0.0142 -1.1425
  879MOL0     H18660   5.754   1.565   0.029  0.8682 -0.1029 -0.5399
  879MOL0     H18661   5.379   1.726   0.086 -0.1255 -2.6853  1.2058
  879MOL0     H18662   6.238   1.838   0.349  1.0076 -1.3067 -0.1703
  879MOL0     H18663   6.553   1.907   0.397 -0.4462 -0.9538  0.4123
  879MOL0     H18664   6.496   2.069   0.360  0.8966 -0.1373  2.4823
  879MOL0     H18665   6.388   1.968   0.438  0.0241 -0.0457 -1.6710
  880MOL0     O18666   8.257   8.935   9.390 -0.1299  0.5937 -0.1416
  880MOL0     C18667   8.227   8.916   9.511 -0.5211 -0.1703 -0.5375
  880MOL0     O18668   8.313   8.912   9.620 -0.2196 -0.2210 -0.1860
  880MOL0     C18669   8.451   8.896   9.605  0.0425 -0.1280 -0.5125
  880MOL0     C18670   8.509   8.826   9.496 -1.0448  0.3949  0.7666
  880MOL0     C18671   8.654   8.819   9.492  0.5471  1.1116 -0.7045
  880MOL0     C18672   8.740   8.854   9.595  0.5870 -0.4692 -0.8000
  880MOL0     O18673   8.876   8.826   9.604 -0.1806 -0.2110 -0.9182
  880MOL0     C18674   8.947   8.765   9.493 -0.4226 -0.6963  0.0006
  880MOL0     C18675   9.098   8.760   9.526  0.0148  0.4984  0.3796
  880MOL0     C18676   9.186   8.796   9.402  0.1947 -0.1834  0.0235
  880MOL0     C18677   9.322   8.852   9.454 -0.5442 -0.2411 -0.2433
  880MOL0     C18678   9.428   8.858   9.342 -0.2923  0.2018 -0.0431
  880MOL0     C18679   9.385   8.965   9.236  0.7352  0.6362 -0.1273
  880MOL0     C18680   9.508   9.031   9.182 -0.0697 -1.1122  0.7245
  880MOL0     C18681   9.484   9.098   9.053 -0.5694 -0.0268 -0.8258
  880MOL0     N18682   9.610   9.146   9.006 -0.3321 -0.2929  0.6948
  880MOL0     C18683   9.676   9.259   9.041 -0.0649  0.1014  0.6146
  880MOL0     C18684   9.769   9.274   8.948  0.1785  0.9647 -0.0829
  880MOL0     C18685   9.883   9.368   8.957 -0.0047  0.0972 -0.4988
  880MOL0     C18686  10.013   9.288   8.936 -0.6775 -0.4686 -0.0979
  880MOL0     C18687  10.059   9.208   9.055 -0.0306 -0.8664 -0.4692
  880MOL0     C18688  10.182   9.143   9.024 -0.5253 -0.2807  0.2798
  880MOL0     O18689  10.297   9.235   9.041 -0.3441  0.4928  0.3688
  880MOL0     C18690  10.422   9.173   9.064 -0.6906  0.7677 -0.4560
  880MOL0     C18691  10.443   9.047   9.107  0.0983 -0.9622  0.1176
  880MOL0     C18692  10.564   8.988   9.110 -0.7061  0.1910 -0.6949
  880MOL0     C18693  10.683   9.062   9.083 -0.4835  0.7210  0.1573
  880MOL0     C18694  10.824   9.007   9.095  0.3281  0.9547 -0.1648
  880MOL0     O18695  10.928   9.094   9.077  0.5218 -0.2262  0.2407
  880MOL0     C18696  11.053   9.052   9.073 -0.6034 -0.0909 -0.0299
  880MOL0     C18697  11.091   8.917   9.024  0.1241  0.2556 -0.0201
  880MOL0     C18698  11.230   8.888   9.013  0.6608 -0.9686  0.5548
  880MOL0     C18699  11.328   8.986   9.037 -0.2757  0.3830  0.4389
  880MOL0     O18700  11.464   8.981   9.020 -0.4338 -0.2007  0.3766
  880MOL0     C18701  11.526   8.868   8.944 -0.7405 -0.5697  0.2350
  880MOL0     C18702  11.672   8.897   8.924 -0.5229  0.4048  0.4688
  880MOL0     C18703  11.756   8.824   9.032 -0.0118  0.0298  0.7340
  880MOL0     C18704  11.909   8.857   9.004 -0.7478 -0.4611  0.8522
  880MOL0     C18705  12.002   8.793   9.110  0.6380 -0.5501 -0.4409
  880MOL0     C18706  12.146   8.805   9.070 -0.9901 -0.0168  0.2437
  880MOL0     C18707  12.222   8.728   9.181 -1.0582  0.2823 -0.5184
  880MOL0     C18708  12.372   8.719   9.137  0.6025  0.8457  0.5678
  880MOL0    Cl18709  12.460   8.858   9.195 -0.1152  0.1996 -0.5547
  880MOL0     C18710  11.291   9.111   9.085  0.2422  0.2604  0.4118
  880MOL0     C18711  11.157   9.146   9.106 -0.1381 -0.2056  0.5173
  880MOL0     O18712  10.832   8.888   9.138  0.0250  0.3340 -0.1792
  880MOL0     C18713  10.662   9.200   9.059  0.7595  0.3922 -1.1620
  880MOL0     C18714  10.529   9.256   9.049 -1.0535 -0.7618  0.4623
  880MOL0     N18715   9.762   9.176   8.856  0.3772  0.2077 -0.1682
  880MOL0     N18716   9.664   9.102   8.892 -0.3314  0.2085  0.4389
  880MOL0     C18717   8.676   8.921   9.704 -0.5267  0.2096  0.0932
  880MOL0     C18718   8.535   8.939   9.712  0.6944  0.4414  0.5806
  880MOL0     C18719   8.089   8.915   9.552  0.1510  0.2131  0.3193
  880MOL0     C18720   8.052   8.938   9.688 -0.5777  0.4171  0.2880
  880MOL0     C18721   7.916   8.943   9.726  0.6419  0.6622 -0.8145
  880MOL0     C18722   7.817   8.932   9.634 -0.3744 -0.4021  0.6582
  880MOL0     O18723   7.689   8.940   9.680 -0.1536 -0.4153  0.2220
  880MOL0     C18724   7.568   8.915   9.600  0.0661 -0.4897 -0.1486
  880MOL0     C18725   7.446   8.971   9.668  0.2082  0.1157 -0.5680
  880MOL0     C18726   7.421   8.900   9.801 -0.3755 -0.0712 -0.5771
  880MOL0     C18727   7.289   8.936   9.865  0.4221  0.0368  0.2149
  880MOL0     C18728   7.287   9.080   9.886 -0.0566 -0.4856  0.1782
  880MOL0     C18729   7.293   9.204   9.897  1.0555 -0.9809  0.4460
  880MOL0     C18730   7.850   8.927   9.499  0.1055 -0.4021 -0.4744
  880MOL0     C18731   7.981   8.906   9.458  0.3205 -0.1045 -0.2150
  880MOL0     C18732   7.991   8.893   9.310  0.4449  0.4724  0.1081
  880MOL0     H18733   8.439   8.783   9.425 -1.7110  0.8078  1.1595
  880MOL0     H18734   8.710   8.765   9.415  1.7083 -1.5188  1.7858
  880MOL0     H18735   8.922   8.660   9.482 -0.0502 -0.9219  1.1757
  880MOL0     H18736   8.928   8.821   9.400 -0.0385  0.8853  0.8355
  880MOL0     H18737   9.122   8.657   9.556  0.4466  0.6432  0.5419
  880MOL0     H18738   9.121   8.832   9.605 -2.4105  0.3065  1.3575
  880MOL0     H18739   9.129   8.860   9.334 -2.5242 -0.1294  2.1852
  880MOL0     H18740   9.209   8.704   9.348  1.6344 -0.0886  0.4356
  880MOL0     H18741   9.319   8.953   9.495  1.9190  0.2336 -1.0798
  880MOL0     H18742   9.354   8.795   9.542  1.5103  0.0072 -0.7749
  880MOL0     H18743   9.525   8.891   9.380 -0.1185 -0.2220 -0.1174
  880MOL0     H18744   9.449   8.763   9.293  1.1579  1.3039 -1.7120
  880MOL0     H18745   9.322   8.907   9.168  0.8769 -1.0786  1.1494
  880MOL0     H18746   9.320   9.040   9.282 -0.4338 -0.2898 -0.2284
  880MOL0     H18747   9.588   8.959   9.162  0.4189 -0.1089 -1.1310
  880MOL0     H18748   9.541   9.098   9.262 -1.7221 -1.0822  1.4312
  880MOL0     H18749   9.447   9.020   8.985  0.8913 -1.2306 -0.2759
  880MOL0     H18750   9.412   9.181   9.059 -1.8737 -1.2265  1.7333
  880MOL0     H18751   9.659   9.329   9.122 -0.6589  0.4816  0.1686
  880MOL0     H18752   9.878   9.451   8.886  0.9333 -0.3545 -1.1150
  880MOL0     H18753   9.885   9.423   9.052 -2.1915  1.5749 -1.2477
  880MOL0     H18754  10.009   9.232   8.842 -0.0670 -0.8283  0.0856
  880MOL0     H18755  10.089   9.366   8.923  1.1312 -2.1937 -0.2479
  880MOL0     H18756   9.978   9.135   9.066 -1.6262  1.0313  1.0177
  880MOL0     H18757  10.054   9.283   9.134  0.2144  0.0204 -1.2784
  880MOL0     H18758  10.191   9.102   8.923  2.6305  0.9918 -0.0565
  880MOL0     H18759  10.181   9.053   9.087 -1.7629 -0.5940 -0.1605
  880MOL0     H18760  10.364   8.979   9.138 -1.6454  1.9895  2.7026
  880MOL0     H18761  10.584   8.886   9.141 -1.0597 -0.0242 -1.1696
  880MOL0     H18762  11.012   8.852   8.987 -0.9623  1.3572  0.2937
  880MOL0     H18763  11.247   8.795   8.960  0.0136 -1.0980  0.5600
  880MOL0     H18764  11.512   8.775   9.001 -0.0656 -2.2366 -2.1685
  880MOL0     H18765  11.471   8.868   8.850  1.3604  2.8592 -1.1877
  880MOL0     H18766  11.707   8.874   8.824  1.8687  2.3307  0.7540
  880MOL0     H18767  11.693   9.004   8.939  1.4857  0.5700 -2.7305
  880MOL0     H18768  11.730   8.866   9.130 -1.2855  4.0643 -1.1307
  880MOL0     H18769  11.753   8.715   9.032 -1.6829  0.0409  1.9393
  880MOL0     H18770  11.931   8.963   9.023  1.4531 -1.4164  4.5983
  880MOL0     H18771  11.929   8.824   8.902 -0.3745  1.1724  0.3655
  880MOL0     H18772  11.963   8.691   9.109 -1.1232  0.0877 -0.7190
  880MOL0     H18773  11.975   8.847   9.201 -0.0434 -0.0286 -0.9351
  880MOL0     H18774  12.159   8.757   8.973 -2.5756  0.3809 -0.1968
  880MOL0     H18775  12.191   8.903   9.052  1.6426 -1.5750 -2.6418
  880MOL0     H18776  12.184   8.626   9.193  0.0330 -0.2607 -1.4295
  880MOL0     H18777  12.214   8.775   9.279  1.4066 -2.3837  1.1646
  880MOL0     H18778  12.412   8.627   9.182 -1.5428 -1.2250 -1.4652
  880MOL0     H18779  12.368   8.704   9.029 -0.6226  1.2847  0.5459
  880MOL0     H18780  11.367   9.189   9.089 -1.3595  1.8972  0.5342
  880MOL0     H18781  11.128   9.248   9.131  0.1200 -0.0733  0.2819
  880MOL0     H18782  10.739   9.271   9.032 -0.2307  0.7370 -3.3405
  880MOL0     H18783  10.524   9.360   9.021  1.0570 -1.3234 -2.5454
  880MOL0     H18784   8.741   8.937   9.790 -1.1499  1.8891  0.2882
  880MOL0     H18785   8.482   8.989   9.793 -1.4383 -0.5607 -0.1150
  880MOL0     H18786   8.123   8.943   9.770  1.9123 -0.6445 -1.6554
  880MOL0     H18787   7.891   8.965   9.829  2.0546  0.3719 -0.3837
  880MOL0     H18788   7.559   8.808   9.579  3.8424 -1.2196  1.0617
  880MOL0     H18789   7.574   8.966   9.504 -2.2654  1.7288  0.7858
  880MOL0     H18790   7.358   8.963   9.602  0.9259 -2.9601 -1.3425
  880MOL0     H18791   7.474   9.074   9.688 -1.0891  0.4670 -0.4388
  880MOL0     H18792   7.493   8.914   9.882 -3.0076 -1.9990  2.3627
  880MOL0     H18793   7.414   8.791   9.791 -1.7456  0.0164 -0.8633
  880MOL0     H18794   7.193   8.898   9.827  0.2903  0.6039 -0.0390
  880MOL0     H18795   7.298   8.903   9.968  1.8462 -0.5545 -0.0787
  880MOL0     H18796   7.296   9.311   9.903 -1.0265 -0.9686  2.1102
  880MOL0     H18797   7.765   8.921   9.432 -1.2398 -0.0251  1.1542
  880MOL0     H18798   8.061   8.815   9.278  0.6696  0.6553  0.1509
  880MOL0     H18799   7.895   8.856   9.272  1.7418 -0.1101 -2.8781
  880MOL0     H18800   8.022   8.983   9.257  1.1042  0.0092 -0.3144
  881MOL0     O18801   3.401   4.976   6.789 -0.2658  0.4571 -0.2962
  881MOL0     C18802   3.362   5.035   6.688 -0.5041 -0.4334  0.3221
  881MOL0     O18803   3.430   5.104   6.594  0.3855  0.8564  0.4632
  881MOL0     C18804   3.564   5.080   6.599  0.2484 -0.3535 -0.1441
  881MOL0     C18805   3.618   4.947   6.585  0.2893 -0.9504  0.2188
  881MOL0     C18806   3.747   4.913   6.628 -0.3659 -0.0413  0.5408
  881MOL0     C18807   3.841   5.016   6.675  0.6155  0.4770  1.0290
  881MOL0     O18808   3.971   4.976   6.716 -0.1765  0.1669 -0.1102
  881MOL0     C18809   4.071   5.064   6.659  1.1558 -0.3867  0.3134
  881MOL0     C18810   4.197   5.020   6.725  0.0302 -0.7235 -0.5423
  881MOL0     C18811   4.310   5.110   6.685 -0.7508 -0.1572  1.0515
  881MOL0     C18812   4.302   5.243   6.768 -0.1133  0.3381 -0.1912
  881MOL0     C18813   4.420   5.342   6.745 -0.3498 -0.2694 -0.3731
  881MOL0     C18814   4.422   5.463   6.846  0.1071  0.5958  0.5044
  881MOL0     C18815   4.547   5.555   6.832 -0.7661 -0.6626 -0.1474
  881MOL0     C18816   4.538   5.681   6.912  0.0447 -0.7427 -0.8951
  881MOL0     N18817   4.660   5.767   6.914  0.3416  0.2051  0.6272
  881MOL0     C18818   4.742   5.785   6.808 -0.1629  0.3685  0.5214
  881MOL0     C18819   4.861   5.815   6.864 -0.0018  0.3198 -0.1699
  881MOL0     C18820   4.998   5.815   6.793  0.2704  0.0048  0.0841
  881MOL0     C18821   5.005   5.937   6.697  0.3039  0.7223 -0.7679
  881MOL0     C18822   5.143   5.952   6.627 -0.3754 -0.1913 -0.1329
  881MOL0     C18823   5.255   5.986   6.717 -0.2637  0.5819  0.0023
  881MOL0     O18824   5.242   6.109   6.794 -0.3257 -0.0236 -0.2055
  881MOL0     C18825   5.346   6.170   6.854 -0.5789  0.2828  0.5936
  881MOL0     C18826   5.465   6.096   6.884  0.4316 -0.0163  0.3637
  881MOL0     C18827   5.577   6.161   6.922  0.1211  0.2240 -0.0359
  881MOL0     C18828   5.572   6.297   6.954 -0.3494 -0.2242 -0.5689
  881MOL0     C18829   5.696   6.366   7.011 -0.2945 -0.2669  0.2737
  881MOL0     O18830   5.808   6.294   7.016 -0.8729 -0.0169 -0.0669
  881MOL0     C18831   5.921   6.348   7.078 -0.6670 -0.2438 -0.4192
  881MOL0     C18832   6.014   6.258   7.136 -0.4801 -0.3322 -0.4591
  881MOL0     C18833   6.128   6.304   7.203 -0.0278  0.0614  0.6048
  881MOL0     C18834   6.166   6.438   7.198  1.1522  0.2613 -0.5664
  881MOL0     O18835   6.284   6.478   7.261  0.5197  0.4653 -0.6250
  881MOL0     C18836   6.282   6.611   7.326 -0.5497 -0.7680 -0.4558
  881MOL0     C18837   6.404   6.639   7.416  0.5872  1.2508  0.0837
  881MOL0     C18838   6.418   6.548   7.536 -0.2697 -0.6645  0.2741
  881MOL0     C18839   6.507   6.631   7.628  0.6006 -0.4646 -0.8892
  881MOL0     C18840   6.561   6.529   7.728 -0.0610 -0.0626 -0.0213
  881MOL0     C18841   6.641   6.583   7.843  0.0155  0.2094  0.1758
  881MOL0     C18842   6.564   6.681   7.942 -0.5426 -0.2181 -0.4798
  881MOL0     C18843   6.574   6.633   8.092 -0.1524  0.2431  0.0952
  881MOL0    Cl18844   6.748   6.605   8.140  0.6634 -0.4604  0.0447
  881MOL0     C18845   6.079   6.525   7.134  0.0780  0.2184 -0.2402
  881MOL0     C18846   5.960   6.482   7.079  0.0655 -0.7465  0.3509
  881MOL0     O18847   5.675   6.479   7.063  0.6977  0.6126 -0.0276
  881MOL0     C18848   5.448   6.363   6.942 -0.7667 -0.2677 -0.5135
  881MOL0     C18849   5.340   6.298   6.892  0.1443 -0.6538  0.4420
  881MOL0     N18850   4.847   5.822   6.999 -0.0372  0.3686  0.4446
  881MOL0     N18851   4.721   5.809   7.027  0.1347 -0.7975  0.0706
  881MOL0     C18852   3.784   5.146   6.671 -0.2930 -0.0011 -0.6378
  881MOL0     C18853   3.652   5.185   6.638 -0.4540  0.2439  0.6990
  881MOL0     C18854   3.217   5.027   6.667 -0.7981 -0.1468  0.1550
  881MOL0     C18855   3.137   5.041   6.782  0.0110  0.3786  0.0601
  881MOL0     C18856   2.997   5.046   6.759 -0.7512 -0.3737  0.2051
  881MOL0     C18857   2.938   5.022   6.637  0.2198  0.0046  0.0932
  881MOL0     O18858   2.802   5.027   6.633  0.2799  0.4199 -0.3440
  881MOL0     C18859   2.745   5.071   6.508 -0.3158 -0.9233 -0.6183
  881MOL0     C18860   2.591   5.094   6.521 -0.1419  0.4573  0.4779
  881MOL0     C18861   2.527   4.958   6.494 -0.1420 -0.7885  0.4597
  881MOL0     C18862   2.374   4.962   6.520  0.6237 -0.6029  0.5772
  881MOL0     C18863   2.297   5.021   6.402  0.0046 -0.7519  0.3200
  881MOL0     C18864   2.224   5.081   6.322  0.1107  0.2594  0.4306
  881MOL0     C18865   3.023   5.002   6.524  0.9489  0.3934 -0.5745
  881MOL0     C18866   3.162   4.988   6.538  0.5987 -0.0141 -0.4142
  881MOL0     C18867   3.241   4.954   6.420 -0.0152 -0.0306 -0.1243
  881MOL0     H18868   3.560   4.868   6.537 -1.4381  1.6559 -2.3757
  881MOL0     H18869   3.774   4.810   6.607 -0.6828  0.0108 -0.1552
  881MOL0     H18870   4.069   5.062   6.550 -2.0362  2.5963  0.1472
  881MOL0     H18871   4.053   5.165   6.695  0.5464 -0.9854  1.7724
  881MOL0     H18872   4.220   4.916   6.705  0.2231 -0.5133 -1.4372
  881MOL0     H18873   4.179   5.028   6.833  1.4163 -0.5231 -0.3127
  881MOL0     H18874   4.315   5.129   6.577  1.1653  0.2259  1.1716
  881MOL0     H18875   4.406   5.064   6.710 -0.3456 -0.6856 -1.2495
  881MOL0     H18876   4.207   5.294   6.749  0.1437  0.2801 -1.7066
  881MOL0     H18877   4.313   5.212   6.872 -0.8357 -0.5802 -0.3720
  881MOL0     H18878   4.514   5.288   6.755 -1.3426 -2.0283 -0.2045
  881MOL0     H18879   4.423   5.382   6.643  0.1751  1.6297  0.3331
  881MOL0     H18880   4.325   5.512   6.835 -1.8492 -2.3995  2.8343
  881MOL0     H18881   4.424   5.416   6.944 -2.5218 -0.4792  0.1190
  881MOL0     H18882   4.556   5.580   6.726  0.9939 -0.3418  0.0462
  881MOL0     H18883   4.626   5.486   6.862  0.5191  0.0563 -1.7285
  881MOL0     H18884   4.460   5.745   6.872  1.7102  1.0974 -1.3365
  881MOL0     H18885   4.521   5.659   7.018 -1.7445 -0.1532 -1.0397
  881MOL0     H18886   4.731   5.760   6.703  1.7037 -0.5805  0.5152
  881MOL0     H18887   5.069   5.826   6.876 -1.5872  1.6392  1.5788
  881MOL0     H18888   5.009   5.723   6.736 -0.3343  0.7098 -1.1989
  881MOL0     H18889   4.931   5.918   6.619  0.6444 -2.1741 -0.4718
  881MOL0     H18890   4.978   6.029   6.751  1.4763  0.7044 -0.1194
  881MOL0     H18891   5.134   6.018   6.540 -0.4346 -1.8563 -1.4524
  881MOL0     H18892   5.162   5.860   6.572  1.1055  1.0639 -1.8286
  881MOL0     H18893   5.339   5.985   6.647 -0.5619 -1.5167 -0.3930
  881MOL0     H18894   5.272   5.902   6.786 -1.2149 -0.6013 -1.1637
  881MOL0     H18895   5.476   5.996   6.844 -0.5635 -0.4484  1.1218
  881MOL0     H18896   5.674   6.114   6.933  1.3605  2.8082  0.6664
  881MOL0     H18897   5.995   6.151   7.131 -0.2173 -0.3687 -0.6824
  881MOL0     H18898   6.193   6.226   7.243 -1.2495 -1.3190  0.0068
  881MOL0     H18899   6.293   6.686   7.246  0.7063  0.7067  1.0261
  881MOL0     H18900   6.189   6.635   7.377  1.0083  1.0942  1.7311
  881MOL0     H18901   6.498   6.621   7.362 -0.8239  1.4817 -2.6548
  881MOL0     H18902   6.392   6.743   7.448 -1.9452  0.7339  1.0609
  881MOL0     H18903   6.325   6.533   7.592 -0.6324 -2.8031 -0.8011
  881MOL0     H18904   6.461   6.452   7.505  2.0347  1.1532 -2.6048
  881MOL0     H18905   6.444   6.705   7.678  1.9939 -0.6678  1.3658
  881MOL0     H18906   6.588   6.684   7.578  1.7195  1.1181  2.3188
  881MOL0     H18907   6.619   6.451   7.678  0.9406  0.4634  0.3061
  881MOL0     H18908   6.475   6.473   7.766  2.1805 -3.6989  0.1619
  881MOL0     H18909   6.686   6.499   7.897 -0.2995  1.0083  1.7497
  881MOL0     H18910   6.725   6.634   7.794 -0.4631  1.0589  0.2123
  881MOL0     H18911   6.459   6.685   7.911 -1.0824 -1.0746  1.1132
  881MOL0     H18912   6.612   6.779   7.932 -0.2301 -0.5329 -2.5193
  881MOL0     H18913   6.530   6.714   8.151 -1.1308  0.5975 -1.0685
  881MOL0     H18914   6.512   6.543   8.090 -1.6078  1.1977 -2.4659
  881MOL0     H18915   6.097   6.632   7.123 -1.3741  0.3709 -1.4195
  881MOL0     H18916   5.901   6.555   7.024  2.4929  1.9908  1.1370
  881MOL0     H18917   5.431   6.463   6.982  3.5082  1.0111 -1.3476
  881MOL0     H18918   5.249   6.358   6.894  0.2329 -0.4458  3.6522
  881MOL0     H18919   3.848   5.228   6.702 -0.5700  0.2336 -0.6878
  881MOL0     H18920   3.616   5.287   6.644  0.9912  1.0468 -2.2537
  881MOL0     H18921   3.184   5.050   6.879 -0.2294 -0.2718  0.2431
  881MOL0     H18922   2.936   5.055   6.849 -1.4282 -3.1489  0.0970
  881MOL0     H18923   2.772   4.995   6.434  1.8523  0.7529 -1.6701
  881MOL0     H18924   2.791   5.163   6.472 -0.2543 -1.0249 -0.8005
  881MOL0     H18925   2.563   5.167   6.445 -0.9602 -0.1295  0.2011
  881MOL0     H18926   2.558   5.120   6.622 -1.0471 -0.6594  0.4896
  881MOL0     H18927   2.570   4.882   6.559 -0.6816  0.6042  2.5667
  881MOL0     H18928   2.543   4.927   6.390  1.3799  2.5251 -0.4357
  881MOL0     H18929   2.336   4.860   6.524 -0.9308 -0.0787  0.0638
  881MOL0     H18930   2.355   5.025   6.607  0.5180  1.4198 -0.8427
  881MOL0     H18931   2.167   5.146   6.258  1.1965  0.8273  0.0149
  881MOL0     H18932   2.981   5.009   6.424 -0.7087  1.2992  0.1571
  881MOL0     H18933   3.281   5.045   6.374 -0.3441  0.3758  0.3880
  881MOL0     H18934   3.327   4.896   6.455  0.2212  1.0714  1.2074
  881MOL0     H18935   3.177   4.911   6.342 -0.4352  3.2608 -1.7693
  882MOL0     O18936   9.076   3.584   2.651 -0.0467  0.0121 -0.3813
  882MOL0     C18937   9.124   3.595   2.543 -0.4723  0.1210  0.1243
  882MOL0     O18938   9.234   3.664   2.516  0.3936 -0.5720 -0.8712
  882MOL0     C18939   9.278   3.771   2.598 -0.1449 -0.0360  0.0528
  882MOL0     C18940   9.204   3.848   2.695 -0.1147 -0.1553 -0.4253
  882MOL0     C18941   9.271   3.958   2.755 -0.6175  0.0934  0.2628
  882MOL0     C18942   9.406   3.983   2.731 -0.8710  0.1580  0.0396
  882MOL0     O18943   9.488   4.074   2.800 -0.2489 -0.4114  0.3475
  882MOL0     C18944   9.431   4.133   2.918 -0.4436  0.3901 -0.4670
  882MOL0     C18945   9.538   4.209   2.985 -1.5459 -0.6940 -0.0667
  882MOL0     C18946   9.652   4.124   3.038 -0.0100 -0.0102 -0.5180
  882MOL0     C18947   9.763   4.202   3.109 -0.0998  0.8988 -0.1258
  882MOL0     C18948   9.877   4.250   3.022 -0.0907  0.1985 -0.1511
  882MOL0     C18949  10.005   4.173   3.038  0.5601  0.0884 -0.1224
  882MOL0     C18950  10.004   4.046   2.954 -0.7736 -0.5020 -0.3414
  882MOL0     C18951  10.128   3.959   2.981 -0.0039 -0.1438 -0.1907
  882MOL0     N18952  10.257   4.022   3.007 -0.4103 -0.4924 -0.1300
  882MOL0     C18953  10.332   4.042   2.898 -0.0159  1.1536  0.4154
  882MOL0     C18954  10.454   4.079   2.941  0.2659  0.0287  0.0546
  882MOL0     C18955  10.572   4.099   2.850  0.1463  0.2409  0.1909
  882MOL0     C18956  10.655   3.980   2.829  0.0100 -0.3447  0.1680
  882MOL0     C18957  10.731   3.916   2.939  0.4268 -0.2539  0.5667
  882MOL0     C18958  10.792   4.016   3.037 -0.9297  0.4984  0.1095
  882MOL0     O18959  10.871   4.118   2.980 -0.1173 -0.4432 -0.4484
  882MOL0     C18960  11.010   4.104   2.993 -0.4148 -0.4764 -0.3565
  882MOL0     C18961  11.094   4.218   2.988  0.0024  0.5060  0.0507
  882MOL0     C18962  11.231   4.209   2.978  0.1665  1.0695 -0.7758
  882MOL0     C18963  11.300   4.083   2.980  0.7252  0.7830  0.1299
  882MOL0     C18964  11.441   4.069   2.956 -1.6439  0.1356  0.0392
  882MOL0     O18965  11.499   3.952   2.998  0.4072  0.5389 -0.0128
  882MOL0     C18966  11.634   3.931   2.962  1.0774  0.0906  0.0126
  882MOL0     C18967  11.673   3.929   2.829  0.2569  0.0141 -1.0634
  882MOL0     C18968  11.797   3.887   2.793  0.5307  0.4887  0.4305
  882MOL0     C18969  11.892   3.838   2.883  0.3365 -0.9198  0.6338
  882MOL0     O18970  12.013   3.789   2.840  0.0353  0.1010  0.6831
  882MOL0     C18971  12.120   3.746   2.928 -0.4957 -0.3119 -0.3493
  882MOL0     C18972  12.141   3.595   2.923  0.6649 -0.5138  0.0771
  882MOL0     C18973  12.057   3.506   3.025  0.6740  0.2561  0.9009
  882MOL0     C18974  12.017   3.360   2.981  0.0030 -0.6498  0.2235
  882MOL0     C18975  11.932   3.356   2.845  0.8209  0.8151  0.4124
  882MOL0     C18976  11.831   3.236   2.850  0.1985 -0.4751 -0.1072
  882MOL0     C18977  11.782   3.223   2.707 -0.7542  1.3156 -0.3893
  882MOL0     C18978  11.654   3.304   2.683 -0.7516  0.7121  0.5477
  882MOL0    Cl18979  11.531   3.239   2.793  0.1164 -0.4646  0.0890
  882MOL0     C18980  11.853   3.867   3.019  0.0493  0.4850  0.9402
  882MOL0     C18981  11.727   3.908   3.064 -0.3874  0.0129 -0.1838
  882MOL0     O18982  11.496   4.151   2.883 -0.5416 -0.5612  0.4781
  882MOL0     C18983  11.218   3.969   2.983  0.1822  0.1563 -0.2886
  882MOL0     C18984  11.077   3.978   2.984 -1.2976  0.6103  0.0855
  882MOL0     N18985  10.455   4.067   3.078 -0.0038 -0.8196 -0.6640
  882MOL0     N18986  10.331   4.037   3.117 -0.2083  0.3899 -0.6893
  882MOL0     C18987   9.480   3.905   2.644  0.1496 -0.1942  0.1343
  882MOL0     C18988   9.408   3.814   2.568 -0.1386 -0.1876 -0.1429
  882MOL0     C18989   9.085   3.497   2.441  0.4649  0.8972 -0.4046
  882MOL0     C18990   9.188   3.434   2.371 -1.6703  0.2235  0.2760
  882MOL0     C18991   9.161   3.323   2.297 -0.3755  0.4585 -0.1964
  882MOL0     C18992   9.033   3.265   2.278 -0.2341  0.7269  0.5957
  882MOL0     O18993   9.015   3.152   2.192  0.5446 -0.4278  0.1418
  882MOL0     C18994   8.891   3.099   2.165  0.1608 -0.6370 -1.1410
  882MOL0     C18995   8.866   3.005   2.283  0.5714  0.3399 -0.3468
  882MOL0     C18996   8.963   2.884   2.290 -0.0710 -0.6165 -0.3365
  882MOL0     C18997   8.955   2.797   2.420  0.6415 -0.5279  0.7394
  882MOL0     C18998   8.814   2.740   2.430 -0.3711  0.1408  0.0966
  882MOL0     C18999   8.713   2.680   2.425  0.5081  0.2611 -0.3628
  882MOL0     C19000   8.930   3.345   2.332  0.3991  0.0439 -0.4072
  882MOL0     C19001   8.954   3.452   2.425  0.3946  0.0005  0.1377
  882MOL0     C19002   8.840   3.502   2.509  0.9441  0.5402 -0.3076
  882MOL0     H19003   9.097   3.835   2.706 -0.1590 -0.3848 -1.1298
  882MOL0     H19004   9.206   4.012   2.823  0.4442  1.1081  0.4986
  882MOL0     H19005   9.351   4.202   2.891 -2.3810 -1.9251 -0.9544
  882MOL0     H19006   9.386   4.055   2.981 -1.0982  0.6971 -0.5499
  882MOL0     H19007   9.488   4.267   3.062  0.9313  0.5315  0.7241
  882MOL0     H19008   9.593   4.274   2.917 -0.5228 -1.5084 -0.0544
  882MOL0     H19009   9.688   4.055   2.961 -1.0240  1.3614 -2.3003
  882MOL0     H19010   9.602   4.070   3.119  0.0405  1.9833  0.9382
  882MOL0     H19011   9.719   4.286   3.163  0.1810  0.2818  1.1072
  882MOL0     H19012   9.814   4.155   3.194 -0.8780  1.2280  0.5303
  882MOL0     H19013   9.840   4.256   2.919 -3.6096  0.9623  1.0256
  882MOL0     H19014   9.899   4.354   3.047 -2.2914  0.8914 -0.8343
  882MOL0     H19015  10.085   4.236   3.000  1.7846 -1.3429 -0.0147
  882MOL0     H19016  10.025   4.163   3.145 -0.0848 -1.0521 -0.0865
  882MOL0     H19017  10.008   4.078   2.850  2.0630  1.6279  0.3152
  882MOL0     H19018   9.918   3.980   2.970  0.1349 -2.4555 -2.8717
  882MOL0     H19019  10.114   3.905   3.075 -1.4089  2.0313  0.9385
  882MOL0     H19020  10.132   3.892   2.895  2.3432 -1.1864  0.6549
  882MOL0     H19021  10.304   4.025   2.794 -0.8173  1.4492  0.5692
  882MOL0     H19022  10.539   4.139   2.754  0.2164 -0.3498 -0.0814
  882MOL0     H19023  10.630   4.177   2.901 -0.5105  0.1394  1.1211
  882MOL0     H19024  10.591   3.902   2.784 -0.5620  1.0626 -1.5720
  882MOL0     H19025  10.727   3.998   2.749  2.8678 -1.0693  2.4129
  882MOL0     H19026  10.807   3.855   2.891 -0.2841 -1.0487  0.4172
  882MOL0     H19027  10.670   3.845   2.997 -0.4091  1.5967  2.0554
  882MOL0     H19028  10.844   3.964   3.118 -2.4389  1.8030  2.0127
  882MOL0     H19029  10.707   4.059   3.091 -1.6922 -3.6841  2.6220
  882MOL0     H19030  11.042   4.313   2.988 -0.0788  0.4623  0.3300
  882MOL0     H19031  11.286   4.302   2.968  1.1885  0.8386  1.9318
  882MOL0     H19032  11.607   3.956   2.748 -0.4132  0.9948 -0.2252
  882MOL0     H19033  11.825   3.885   2.688 -0.2391 -1.3254  0.2216
  882MOL0     H19034  12.205   3.793   2.877 -1.2822 -0.3655 -1.7880
  882MOL0     H19035  12.104   3.769   3.033 -1.4563  0.0472 -0.5654
  882MOL0     H19036  12.111   3.574   2.821 -0.7159 -0.7531  0.5156
  882MOL0     H19037  12.245   3.585   2.957  0.3270 -1.4875  0.8776
  882MOL0     H19038  12.120   3.493   3.114  0.8956 -1.4668  0.5403
  882MOL0     H19039  11.966   3.559   3.054  0.7426  1.4110 -0.8735
  882MOL0     H19040  11.970   3.309   3.065 -0.4600  1.4872  1.3266
  882MOL0     H19041  12.106   3.302   2.953  0.9766  0.6261  0.6050
  882MOL0     H19042  11.997   3.337   2.758  0.7912  0.5338  0.4504
  882MOL0     H19043  11.873   3.447   2.830 -0.2329 -0.0606 -1.0524
  882MOL0     H19044  11.892   3.150   2.880  2.3777  0.6748 -1.0359
  882MOL0     H19045  11.749   3.255   2.919  0.4881  2.7955 -0.4970
  882MOL0     H19046  11.766   3.116   2.690  0.9804  0.9810 -0.1520
  882MOL0     H19047  11.857   3.247   2.632 -0.6496  1.9045 -0.0961
  882MOL0     H19048  11.674   3.410   2.704 -1.0397  0.4764  2.1108
  882MOL0     H19049  11.627   3.296   2.577  1.8728  0.2982 -0.1628
  882MOL0     H19050  11.922   3.840   3.099 -0.4537  2.5010  2.1348
  882MOL0     H19051  11.700   3.917   3.169  0.9364 -0.8766  0.2575
  882MOL0     H19052  11.261   3.870   2.991 -1.1769 -0.4555 -0.1773
  882MOL0     H19053  11.013   3.890   2.976 -0.3227 -0.0454 -0.6849
  882MOL0     H19054   9.585   3.926   2.625  0.1689 -1.0221 -0.7730
  882MOL0     H19055   9.461   3.761   2.489  0.5451  1.4620 -0.8361
  882MOL0     H19056   9.294   3.457   2.382 -1.4951 -0.5689  0.2761
  882MOL0     H19057   9.246   3.272   2.252 -0.7337 -1.4060  1.1417
  882MOL0     H19058   8.904   3.038   2.075  0.2643 -0.9770 -0.8950
  882MOL0     H19059   8.816   3.177   2.148  1.6293  1.6195  1.8745
  882MOL0     H19060   8.761   2.976   2.284 -0.0169  2.3163  0.0494
  882MOL0     H19061   8.877   3.062   2.376 -2.5285 -1.0228  0.9836
  882MOL0     H19062   9.069   2.909   2.282  0.4424 -2.5041 -0.0172
  882MOL0     H19063   8.940   2.822   2.203  0.4997  0.2357 -1.1125
  882MOL0     H19064   9.022   2.711   2.412  1.5828  0.3051 -1.0071
  882MOL0     H19065   8.972   2.855   2.511  3.0779 -2.2277  1.4643
  882MOL0     H19066   8.621   2.626   2.424  0.5139  0.2632 -0.9083
  882MOL0     H19067   8.826   3.321   2.308  0.4215 -2.0644  1.3130
  882MOL0     H19068   8.743   3.457   2.486  1.4644 -0.5603 -0.4117
  882MOL0     H19069   8.852   3.470   2.613 -0.2649  0.8543 -0.0500
  882MOL0     H19070   8.808   3.606   2.505 -0.8080  0.1444  1.5457
  883MOL0     O19071   9.725  10.537   6.431  0.1558 -0.3594 -0.7934
  883MOL0     C19072   9.680  10.605   6.526 -0.1596 -0.5585 -1.0137
  883MOL0     O19073   9.749  10.676   6.627  0.1375 -0.3122 -0.7127
  883MOL0     C19074   9.885  10.657   6.611 -0.6608  0.4714 -0.0452
  883MOL0     C19075   9.952  10.755   6.544  0.6490 -0.3991 -0.2967
  883MOL0     C19076  10.086  10.730   6.512  0.8255 -0.4645 -0.0378
  883MOL0     C19077  10.160  10.629   6.573  0.0102  0.5068  0.8829
  883MOL0     O19078  10.289  10.601   6.552 -0.5471 -0.2293  0.3262
  883MOL0     C19079  10.362  10.720   6.507 -0.2248  0.3159  0.2893
  883MOL0     C19080  10.509  10.685   6.524 -0.5539 -0.6593 -0.1182
  883MOL0     C19081  10.604  10.809   6.500 -0.3841  0.0489  0.1684
  883MOL0     C19082  10.753  10.775   6.487 -0.5610 -0.4485 -0.2562
  883MOL0     C19083  10.842  10.906   6.448 -0.6403  0.9515  0.2400
  883MOL0     C19084  10.958  10.851   6.371 -0.8716 -0.3931  0.8221
  883MOL0     C19085  11.087  10.940   6.390 -0.6333  0.2137  0.0710
  883MOL0     C19086  11.162  10.921   6.520 -0.6148 -0.2872 -0.8105
  883MOL0     N19087  11.274  11.025   6.526 -0.2916 -0.3901  0.4221
  883MOL0     C19088  11.297  11.113   6.628 -0.6900 -0.0689 -0.1870
  883MOL0     C19089  11.413  11.174   6.610 -0.4188  0.1916 -0.7862
  883MOL0     C19090  11.446  11.301   6.679 -0.5798 -0.5998  0.9036
  883MOL0     C19091  11.600  11.334   6.694  0.1488  0.4266  0.0952
  883MOL0     C19092  11.627  11.488   6.724 -0.1838  0.2931  0.2813
  883MOL0     C19093  11.769  11.508   6.767  0.2826  0.5316 -0.1636
  883MOL0     O19094  11.776  11.455   6.899  0.1308  0.7047 -0.5247
  883MOL0     C19095  11.890  11.481   6.976  0.8691  0.6322 -0.6481
  883MOL0     C19096  11.891  11.433   7.110  0.4043 -0.2682  0.4262
  883MOL0     C19097  11.990  11.472   7.198 -1.0297 -0.0899  0.6506
  883MOL0     C19098  12.099  11.548   7.151  0.1691  0.2839 -0.1064
  883MOL0     C19099  12.209  11.575   7.249 -1.5195 -0.2613  0.3978
  883MOL0     O19100  12.180  11.583   7.385  0.4123 -0.4877  0.2527
  883MOL0     C19101  12.285  11.603   7.476 -0.6277 -0.1432  0.1753
  883MOL0     C19102  12.338  11.730   7.507 -0.2241  0.1376 -0.3882
  883MOL0     C19103  12.440  11.744   7.602 -0.2180  0.4369 -0.7473
  883MOL0     C19104  12.496  11.628   7.662  0.3440  0.1569 -0.4073
  883MOL0     O19105  12.590  11.655   7.758 -0.3232  0.8063 -0.1222
  883MOL0     C19106  12.590  11.570   7.873  0.6274 -0.2099  0.6688
  883MOL0     C19107  12.739  11.534   7.907 -0.7290 -0.0310 -0.0899
  883MOL0     C19108  12.745  11.430   8.021  0.7208 -1.0289 -0.2304
  883MOL0     C19109  12.756  11.287   7.980  0.2108 -0.2063 -0.2025
  883MOL0     C19110  12.893  11.229   7.944  0.2689 -1.0655  0.8944
  883MOL0     C19111  12.887  11.089   7.873  0.5852 -0.0616 -0.5941
  883MOL0     C19112  13.022  11.018   7.879  0.4343  0.5251  0.4933
  883MOL0     C19113  13.060  10.930   7.756  0.0716  0.4787  0.5064
  883MOL0    Cl19114  13.089  11.023   7.608 -0.0758 -0.0565  0.0745
  883MOL0     C19115  12.440  11.499   7.637 -0.6462  0.0765  0.6406
  883MOL0     C19116  12.341  11.483   7.539 -0.8226  0.1156 -0.0573
  883MOL0     O19117  12.321  11.564   7.202 -0.4755  0.3424 -0.1968
  883MOL0     C19118  12.108  11.592   7.019  0.0199 -0.6470  0.6271
  883MOL0     C19119  12.000  11.562   6.930  0.0852 -0.6659  0.2655
  883MOL0     N19120  11.471  11.108   6.504  0.5498 -0.2839  0.4720
  883MOL0     N19121  11.389  11.021   6.451 -0.0144  0.3702  0.0037
  883MOL0     C19122  10.090  10.536   6.651  0.6611  0.0155 -1.2041
  883MOL0     C19123   9.958  10.554   6.670 -0.1626  0.6299  0.3277
  883MOL0     C19124   9.537  10.616   6.541 -0.2719  0.1712 -0.4544
  883MOL0     C19125   9.479  10.631   6.671 -0.1441 -0.2694 -0.0126
  883MOL0     C19126   9.337  10.637   6.681  0.1774 -0.4506  0.0115
  883MOL0     C19127   9.247  10.622   6.577 -0.5129 -0.0687  0.1383
  883MOL0     O19128   9.118  10.611   6.601 -0.2425 -0.0958  0.4345
  883MOL0     C19129   9.029  10.630   6.492 -0.0143  1.0244  0.2113
  883MOL0     C19130   8.888  10.636   6.543  0.1740 -0.7903  0.5859
  883MOL0     C19131   8.847  10.773   6.601  0.2079  0.8434 -0.3318
  883MOL0     C19132   8.697  10.784   6.619  0.2481 -0.1983 -0.8410
  883MOL0     C19133   8.661  10.715   6.745 -0.5565 -0.4562 -0.1297
  883MOL0     C19134   8.643  10.646   6.844 -0.8712 -0.0054 -0.0879
  883MOL0     C19135   9.307  10.612   6.447 -0.1639 -0.6415 -0.0410
  883MOL0     C19136   9.446  10.598   6.428  0.1845 -0.2270  0.4885
  883MOL0     C19137   9.493  10.553   6.285 -0.4857  0.2824 -0.2458
  883MOL0     H19138   9.895  10.843   6.516  0.3812 -0.0736  1.1822
  883MOL0     H19139  10.128  10.807   6.447 -0.6904  0.1504 -0.3356
  883MOL0     H19140  10.348  10.743   6.401  0.2250 -1.4209 -0.1714
  883MOL0     H19141  10.340  10.806   6.572  0.0617  1.5327 -1.1720
  883MOL0     H19142  10.541  10.608   6.455 -0.9185 -1.5352  0.6664
  883MOL0     H19143  10.514  10.660   6.631 -1.2588  0.7616  0.2845
  883MOL0     H19144  10.586  10.877   6.584 -0.1644  0.1062  0.1697
  883MOL0     H19145  10.585  10.861   6.405  2.2106 -0.4810 -0.7347
  883MOL0     H19146  10.798  10.730   6.576  1.2670  1.8091  0.0609
  883MOL0     H19147  10.744  10.708   6.401 -2.9193  0.6829 -0.9718
  883MOL0     H19148  10.781  10.964   6.378  0.6321  0.6306 -1.1901
  883MOL0     H19149  10.864  10.962   6.539 -1.0099  0.0166  0.9166
  883MOL0     H19150  10.979  10.744   6.384 -1.2252 -0.3352  2.0534
  883MOL0     H19151  10.926  10.858   6.267  1.3845 -0.6143  0.0709
  883MOL0     H19152  11.044  11.038   6.367 -3.7160 -0.9952  0.1354
  883MOL0     H19153  11.153  10.910   6.308 -0.3318 -2.6453  1.2383
  883MOL0     H19154  11.109  10.928   6.615  0.2885 -3.1926  0.0209
  883MOL0     H19155  11.208  10.822   6.532 -4.2899 -2.0212  0.3307
  883MOL0     H19156  11.230  11.137   6.710  0.0242 -0.6938  0.5969
  883MOL0     H19157  11.398  11.377   6.615  1.6551 -1.4263 -1.9483
  883MOL0     H19158  11.401  11.312   6.778 -0.4429 -0.0786  0.9117
  883MOL0     H19159  11.636  11.291   6.788  1.3791  0.3191 -0.4115
  883MOL0     H19160  11.663  11.297   6.612 -0.7204 -0.4147 -0.2152
  883MOL0     H19161  11.564  11.525   6.805  0.1201  1.2089  0.1198
  883MOL0     H19162  11.610  11.548   6.634 -2.1742  0.8163  0.9465
  883MOL0     H19163  11.779  11.616   6.753 -1.5668  0.7890  0.1453
  883MOL0     H19164  11.840  11.461   6.699  0.9898  3.9484 -2.0017
  883MOL0     H19165  11.815  11.370   7.156  0.7745  1.1986  3.2703
  883MOL0     H19166  11.983  11.434   7.299 -2.2738 -0.7491  0.3332
  883MOL0     H19167  12.293  11.814   7.454 -0.3810 -0.1010 -0.6362
  883MOL0     H19168  12.469  11.845   7.631  1.0099 -0.3698  1.0240
  883MOL0     H19169  12.553  11.630   7.957 -1.0017 -1.6019  1.0048
  883MOL0     H19170  12.530  11.479   7.868 -0.1703  0.3654 -1.1953
  883MOL0     H19171  12.791  11.500   7.817 -1.0308 -2.4238  0.5807
  883MOL0     H19172  12.794  11.625   7.934  1.7167 -0.1357 -3.9480
  883MOL0     H19173  12.837  11.456   8.074  0.4856 -1.8978  0.6131
  883MOL0     H19174  12.657  11.440   8.085  0.5394 -3.4537 -0.0009
  883MOL0     H19175  12.698  11.266   7.890 -0.5583  1.6367 -0.1893
  883MOL0     H19176  12.715  11.230   8.064 -0.1638  0.3036 -0.0331
  883MOL0     H19177  12.951  11.224   8.037 -0.5399  0.6600  1.5436
  883MOL0     H19178  12.940  11.296   7.872 -1.6480 -1.0737 -0.4124
  883MOL0     H19179  12.820  11.016   7.919 -1.7243 -0.6528 -4.4816
  883MOL0     H19180  12.846  11.090   7.771 -1.9538  0.6081  0.3663
  883MOL0     H19181  13.028  10.945   7.960 -1.3462 -2.2941 -1.7005
  883MOL0     H19182  13.100  11.092   7.896  0.2869  0.6447  0.6450
  883MOL0     H19183  13.142  10.862   7.784 -0.0303  0.5908  1.0967
  883MOL0     H19184  12.972  10.869   7.737  0.6363 -0.0349 -0.5512
  883MOL0     H19185  12.480  11.410   7.685 -0.9316 -1.5614 -1.9661
  883MOL0     H19186  12.313  11.382   7.511 -0.1018  0.1666 -1.0064
  883MOL0     H19187  12.197  11.645   6.988 -0.1219  0.0158  1.2986
  883MOL0     H19188  12.015  11.592   6.827 -0.2364 -0.6108  0.2365
  883MOL0     H19189  10.140  10.451   6.699  0.3209  0.0057 -0.8685
  883MOL0     H19190   9.900  10.483   6.729 -0.9113  0.0507 -1.0508
  883MOL0     H19191   9.540  10.646   6.759  0.7491 -4.9062  0.4100
  883MOL0     H19192   9.304  10.659   6.783  1.6627  0.8191  0.2500
  883MOL0     H19193   9.040  10.544   6.425  0.6903  1.2619  0.0140
  883MOL0     H19194   9.047  10.716   6.426  1.4055 -0.9721 -2.1843
  883MOL0     H19195   8.898  10.576   6.634 -0.9038 -0.6416  0.8106
  883MOL0     H19196   8.811  10.594   6.479 -0.6698 -0.3627  1.2960
  883MOL0     H19197   8.882  10.856   6.538  2.0578  0.4649  0.1510
  883MOL0     H19198   8.890  10.785   6.701 -1.0635 -1.4479  0.5699
  883MOL0     H19199   8.669  10.889   6.634  0.5117 -0.5236  3.1376
  883MOL0     H19200   8.637  10.749   6.535 -0.6961 -0.7996  0.0575
  883MOL0     H19201   8.622  10.573   6.920  0.1603  0.4642  0.6745
  883MOL0     H19202   9.241  10.609   6.361 -1.1161  0.8537  0.5883
  883MOL0     H19203   9.579  10.614   6.256  0.7058 -1.8470 -1.4998
  883MOL0     H19204   9.530  10.451   6.272 -1.3820  0.0733 -1.2764
  883MOL0     H19205   9.406  10.548   6.219 -0.7488 -2.3313  0.1722
  884MOL0     O19206   3.342   8.082   9.057 -0.3585 -0.2268  1.0481
  884MOL0     C19207   3.319   8.012   8.965  0.3710  0.2858  0.1555
  884MOL0     O19208   3.404   7.931   8.901  0.4912 -0.5858 -0.0881
  884MOL0     C19209   3.541   7.930   8.929 -0.5475  0.5168  0.0280
  884MOL0     C19210   3.625   8.037   8.958 -0.3437  0.2825 -0.6922
  884MOL0     C19211   3.767   8.027   8.956 -0.0009 -0.7869 -0.4388
  884MOL0     C19212   3.828   7.908   8.931  0.4739  0.0341 -0.3798
  884MOL0     O19213   3.960   7.882   8.954  0.2538 -0.0802 -0.0878
  884MOL0     C19214   4.054   7.983   8.998 -0.0000 -0.1785  0.2153
  884MOL0     C19215   4.182   7.918   9.056  0.3894  0.6698 -0.6548
  884MOL0     C19216   4.300   8.015   9.088  0.1120 -0.3403 -0.3486
  884MOL0     C19217   4.428   7.941   9.130 -0.2653 -0.7360 -1.1166
  884MOL0     C19218   4.548   8.027   9.153 -0.4990  0.3988  0.4276
  884MOL0     C19219   4.656   7.942   9.218  0.0984 -0.2223  0.6806
  884MOL0     C19220   4.787   8.023   9.223  0.1572 -0.2454 -0.0698
  884MOL0     C19221   4.801   8.108   9.352  0.2738 -0.3981  0.1455
  884MOL0     N19222   4.934   8.165   9.365 -0.7200 -0.6204 -0.2969
  884MOL0     C19223   5.000   8.168   9.485 -0.1427  0.6289  0.0538
  884MOL0     C19224   5.105   8.250   9.461  0.2253 -0.1235  0.1961
  884MOL0     C19225   5.235   8.238   9.532 -0.2146 -0.1428  0.2834
  884MOL0     C19226   5.259   8.338   9.648  0.2016  0.2144 -0.4286
  884MOL0     C19227   5.241   8.482   9.605  0.1446 -0.1099  0.1417
  884MOL0     C19228   5.338   8.563   9.697 -0.7938 -0.1752 -0.3837
  884MOL0     O19229   5.296   8.551   9.837  0.0927  0.5509  0.3636
  884MOL0     C19230   5.185   8.628   9.867  0.4378 -0.0819 -0.4208
  884MOL0     C19231   5.119   8.720   9.787 -0.0329 -0.5938 -0.9629
  884MOL0     C19232   5.012   8.796   9.838  0.3382 -0.2953  0.4039
  884MOL0     C19233   4.964   8.769   9.966  0.3385  0.2416 -0.1622
  884MOL0     C19234   4.846   8.849  10.015  0.1471 -0.2051 -0.4900
  884MOL0     O19235   4.768   8.917   9.920  0.2599 -0.3263 -0.1123
  884MOL0     C19236   4.653   8.977   9.958 -1.4327 -0.3250  0.5268
  884MOL0     C19237   4.641   9.078  10.058  0.3992 -0.4310  0.0211
  884MOL0     C19238   4.519   9.144  10.069 -0.5752 -0.3212 -1.1118
  884MOL0     C19239   4.409   9.102   9.993 -0.0687 -0.4248  0.2654
  884MOL0     O19240   4.281   9.137  10.017 -0.4706 -0.1106  0.5356
  884MOL0     C19241   4.251   9.261  10.072  0.2301 -0.7286  0.1843
  884MOL0     C19242   4.130   9.322   9.991 -0.2239  0.2798 -0.2146
  884MOL0     C19243   4.003   9.235   9.990  0.2316  0.3409  0.1255
  884MOL0     C19244   3.927   9.227  10.124  0.2744  0.1082 -0.8174
  884MOL0     C19245   3.801   9.142  10.118  1.0267  0.0629  0.1137
  884MOL0     C19246   3.827   8.988  10.087 -0.0021  0.5557  0.1956
  884MOL0     C19247   3.689   8.909  10.102 -0.1532 -0.6231 -1.0385
  884MOL0     C19248   3.714   8.761  10.074  0.1845 -0.8894 -0.3104
  884MOL0    Cl19249   3.832   8.702  10.193  0.3653  0.2078 -0.3303
  884MOL0     C19250   4.426   8.999   9.892  0.5968 -0.7789 -0.9013
  884MOL0     C19251   4.549   8.943   9.871  0.3674 -0.3654 -0.0826
  884MOL0     O19252   4.810   8.837  10.135  0.3902 -0.5621 -0.2986
  884MOL0     C19253   5.041   8.689  10.053  0.1058 -0.6723  0.0744
  884MOL0     C19254   5.150   8.613  10.004  0.5874 -0.1292 -0.0765
  884MOL0     N19255   5.099   8.296   9.334  0.8435  0.1866 -0.3941
  884MOL0     N19256   4.989   8.257   9.283 -0.3511  0.5153  0.2207
  884MOL0     C19257   3.747   7.793   8.915  0.5645  0.3470 -0.3536
  884MOL0     C19258   3.606   7.805   8.924 -0.2743  0.0495 -0.2718
  884MOL0     C19259   3.177   8.013   8.919  0.4056 -0.9752  1.7641
  884MOL0     C19260   3.151   7.956   8.787 -0.0369  0.4369 -0.3535
  884MOL0     C19261   3.031   7.966   8.728  0.0643  1.0476 -0.2153
  884MOL0     C19262   2.924   8.031   8.795  0.3279  0.0492 -0.7732
  884MOL0     O19263   2.810   8.047   8.719 -0.6639  0.0040 -0.0541
  884MOL0     C19264   2.702   8.124   8.769 -0.1171 -0.2121  0.0291
  884MOL0     C19265   2.580   8.069   8.685 -0.5834 -0.3780  1.0922
  884MOL0     C19266   2.606   8.110   8.533 -0.1793 -0.1111 -0.2056
  884MOL0     C19267   2.482   8.130   8.447 -0.0612  0.4594  0.2556
  884MOL0     C19268   2.429   8.264   8.462 -0.4081 -0.0178 -0.2894
  884MOL0     C19269   2.377   8.373   8.457  0.1921  0.5675 -0.5842
  884MOL0     C19270   2.950   8.089   8.919 -0.0563  1.1327  0.0577
  884MOL0     C19271   3.067   8.073   8.986 -0.0949 -0.3879  0.0341
  884MOL0     C19272   3.072   8.147   9.118 -0.1248  0.1702 -0.3488
  884MOL0     H19273   3.602   8.139   8.988  0.2052  0.5035 -1.0039
  884MOL0     H19274   3.829   8.113   8.976 -2.3298  1.1472 -1.0212
  884MOL0     H19275   4.086   8.032   8.905  0.4147 -1.4604 -0.3435
  884MOL0     H19276   4.009   8.056   9.066 -2.4981 -1.5439  0.1424
  884MOL0     H19277   4.203   7.839   8.984 -1.5934 -0.9312  0.4224
  884MOL0     H19278   4.164   7.862   9.148  1.3064  1.6105  0.1382
  884MOL0     H19279   4.266   8.082   9.167 -1.2968 -2.5862  1.0656
  884MOL0     H19280   4.331   8.071   8.999 -0.0921 -1.8167 -1.3832
  884MOL0     H19281   4.407   7.898   9.228 -0.8528  1.0931 -0.4053
  884MOL0     H19282   4.445   7.859   9.059 -1.8695 -0.0470 -2.3507
  884MOL0     H19283   4.572   8.055   9.050 -3.1829 -2.7884 -1.2636
  884MOL0     H19284   4.526   8.117   9.212 -2.0543  1.7195 -2.0023
  884MOL0     H19285   4.629   7.923   9.322  0.6823  2.9458  1.5145
  884MOL0     H19286   4.669   7.852   9.156 -0.8016  0.5132 -0.6485
  884MOL0     H19287   4.789   8.090   9.136 -1.3134 -0.0933 -0.0208
  884MOL0     H19288   4.873   7.957   9.218  0.2240 -0.2062  0.5025
  884MOL0     H19289   4.719   8.178   9.366  0.2451 -0.1520 -1.1262
  884MOL0     H19290   4.791   8.038   9.436  2.8883 -0.0197  0.8739
  884MOL0     H19291   4.994   8.106   9.573  0.3921  3.4566  2.2582
  884MOL0     H19292   5.233   8.145   9.591  1.7040 -0.0324  0.6011
  884MOL0     H19293   5.320   8.231   9.463 -0.2715 -1.1080  0.2923
  884MOL0     H19294   5.177   8.332   9.720  1.4403 -2.4666  0.8737
  884MOL0     H19295   5.354   8.313   9.695 -0.3800  1.5869  1.5817
  884MOL0     H19296   5.141   8.521   9.630  0.4329  1.2515 -0.7032
  884MOL0     H19297   5.261   8.499   9.499 -1.7056 -0.1615 -0.2603
  884MOL0     H19298   5.348   8.668   9.668 -2.2853  0.2258  0.4617
  884MOL0     H19299   5.436   8.513   9.695 -0.4880  0.2592  1.4679
  884MOL0     H19300   5.142   8.739   9.683 -0.9580 -2.0398 -1.4693
  884MOL0     H19301   4.965   8.876   9.782 -0.7466 -1.8407 -0.9910
  884MOL0     H19302   4.718   9.094  10.133 -0.2629 -2.2063  1.1448
  884MOL0     H19303   4.503   9.220  10.145  1.5253 -1.7539  0.8767
  884MOL0     H19304   4.225   9.247  10.178  1.7150 -0.5139  0.6018
  884MOL0     H19305   4.336   9.328  10.059  1.0222 -2.0835 -2.0294
  884MOL0     H19306   4.104   9.420  10.033  2.1154  0.2434  1.5081
  884MOL0     H19307   4.160   9.340   9.888 -0.0839  0.6795 -0.1085
  884MOL0     H19308   3.941   9.283   9.914  1.2410  1.5858  0.0462
  884MOL0     H19309   4.030   9.133   9.959  3.4339  1.2933 -0.6694
  884MOL0     H19310   3.893   9.327  10.152 -1.4639 -0.2728 -1.4246
  884MOL0     H19311   3.984   9.173  10.200 -0.6848 -1.0631 -0.9040
  884MOL0     H19312   3.723   9.194  10.062  0.2474  1.7628  2.6386
  884MOL0     H19313   3.759   9.152  10.218 -1.8700  5.6525 -1.2150
  884MOL0     H19314   3.862   8.963   9.986  0.5476 -0.2138  0.5670
  884MOL0     H19315   3.910   8.962  10.153  0.2083 -1.9707 -0.9569
  884MOL0     H19316   3.626   8.947  10.021 -0.9476 -1.2560 -0.7296
  884MOL0     H19317   3.648   8.936  10.199  0.6724  0.0737 -0.8674
  884MOL0     H19318   3.619   8.708  10.078 -0.0438 -0.7108 -2.3165
  884MOL0     H19319   3.756   8.750   9.973  1.3252 -1.1649  0.1785
  884MOL0     H19320   4.338   8.985   9.830  0.1899  2.7234 -1.3512
  884MOL0     H19321   4.568   8.873   9.790 -0.2640 -0.2248 -0.3600
  884MOL0     H19322   5.003   8.686  10.155  1.9657  5.1532  1.3049
  884MOL0     H19323   5.219   8.546  10.053  0.8264 -0.5679 -0.9865
  884MOL0     H19324   3.796   7.698   8.895  2.9806  1.4779 -0.2890
  884MOL0     H19325   3.550   7.713   8.912 -2.6420  1.2779  0.6905
  884MOL0     H19326   3.221   7.899   8.727  1.0899  0.1413  1.1781
  884MOL0     H19327   3.016   7.942   8.623 -0.9186 -0.3147  0.2110
  884MOL0     H19328   2.719   8.231   8.756 -1.0462  0.1183  1.3135
  884MOL0     H19329   2.671   8.113   8.874 -3.9978  0.7605 -0.8400
  884MOL0     H19330   2.490   8.118   8.724 -0.6452 -1.4401  2.3202
  884MOL0     H19331   2.565   7.961   8.691 -3.9086 -0.1709 -0.7774
  884MOL0     H19332   2.670   8.037   8.481 -0.9641  1.3805 -3.5210
  884MOL0     H19333   2.665   8.202   8.535  0.4148 -0.4189 -1.9151
  884MOL0     H19334   2.498   8.113   8.340 -2.3450  3.1367 -0.6279
  884MOL0     H19335   2.417   8.053   8.489  1.4312 -0.7921  0.3805
  884MOL0     H19336   2.317   8.461   8.445 -0.9606 -0.4433 -2.7926
  884MOL0     H19337   2.874   8.149   8.967 -0.4299 -0.4981  1.5987
  884MOL0     H19338   2.967   8.150   9.148  0.7083 -0.1788  2.8878
  884MOL0     H19339   3.133   8.103   9.198 -1.7892 -1.8040 -0.0789
  884MOL0     H19340   3.101   8.246   9.081 -1.9943  0.7372 -0.3851
  885MOL0     O19341   0.339  10.496   5.153 -0.8884 -0.8902  0.2866
  885MOL0     C19342   0.341  10.617   5.158  0.7081  0.0612  0.7787
  885MOL0     O19343   0.444  10.691   5.189  0.1569  0.1714 -0.1245
  885MOL0     C19344   0.557  10.635   5.243 -0.6759 -0.8427 -0.0194
  885MOL0     C19345   0.611  10.695   5.357  0.0572  0.1456  0.3915
  885MOL0     C19346   0.732  10.659   5.418 -0.2844  0.2988 -0.1171
  885MOL0     C19347   0.801  10.546   5.378 -0.5781 -0.5071  0.1751
  885MOL0     O19348   0.907  10.491   5.455 -0.8487  0.1793 -0.0282
  885MOL0     C19349   0.938  10.353   5.455  0.0720 -0.2899  0.2797
  885MOL0     C19350   1.049  10.324   5.354  0.0771  0.3482 -0.7031
  885MOL0     C19351   1.186  10.381   5.409  0.0755  0.1801 -0.0685
  885MOL0     C19352   1.306  10.344   5.316  0.0713 -0.6297  0.2931
  885MOL0     C19353   1.439  10.374   5.375 -0.3359  0.1164 -0.0798
  885MOL0     C19354   1.453  10.521   5.426  0.1680 -0.0416  0.0054
  885MOL0     C19355   1.600  10.556   5.455  0.0796  1.0491 -0.2666
  885MOL0     C19356   1.629  10.469   5.580 -0.4286  0.7449 -0.2966
  885MOL0     N19357   1.761  10.494   5.647 -0.0474  0.0854 -0.4530
  885MOL0     C19358   1.880  10.520   5.584 -0.3639  0.9866  0.5904
  885MOL0     C19359   1.964  10.560   5.685 -1.2047  0.1850  0.6183
  885MOL0     C19360   2.108  10.609   5.675  0.2733 -0.4975 -0.0353
  885MOL0     C19361   2.206  10.501   5.635 -0.1499  0.4604 -0.1736
  885MOL0     C19362   2.354  10.527   5.660 -0.0024  0.3206 -0.6980
  885MOL0     C19363   2.439  10.421   5.599  0.0381  0.1186 -0.2392
  885MOL0     O19364   2.581  10.467   5.614  0.8893  1.0153  0.5472
  885MOL0     C19365   2.670  10.415   5.698  0.4564  0.1740 -0.6823
  885MOL0     C19366   2.797  10.452   5.668 -0.2824  0.2971 -0.2384
  885MOL0     C19367   2.897  10.409   5.752 -0.6385  0.0771  0.3774
  885MOL0     C19368   2.873  10.332   5.868  0.0562 -0.4880 -0.7167
  885MOL0     C19369   2.982  10.285   5.947  0.8215  0.4479 -0.8334
  885MOL0     O19370   3.111  10.306   5.906 -0.4069 -0.3234  0.7144
  885MOL0     C19371   3.212  10.224   5.947 -0.1312 -0.1410  0.0873
  885MOL0     C19372   3.209  10.079   5.958  0.3345 -0.9096 -0.4365
  885MOL0     C19373   3.325  10.005   5.992  0.5535  0.6816  0.3088
  885MOL0     C19374   3.443  10.081   6.010 -0.4589  0.1851 -0.2412
  885MOL0     O19375   3.567  10.028   6.051 -0.3056  0.1952  0.7564
  885MOL0     C19376   3.576   9.888   6.066 -0.3444  0.9264 -0.7083
  885MOL0     C19377   3.729   9.869   6.072 -0.0015  0.1679  0.2895
  885MOL0     C19378   3.764   9.718   6.049  0.8762 -1.0467 -0.8907
  885MOL0     C19379   3.912   9.712   6.076 -0.1760  0.4054 -0.2143
  885MOL0     C19380   3.965   9.565   6.075  0.0176  0.2051  0.3147
  885MOL0     C19381   4.107   9.542   6.130 -0.4128  0.1041  0.0852
  885MOL0     C19382   4.148   9.403   6.113 -0.3558 -0.5047 -0.1595
  885MOL0     C19383   4.299   9.385   6.136  0.1021 -0.5106 -0.4557
  885MOL0    Cl19384   4.362   9.218   6.146  0.4369  0.0933  0.1992
  885MOL0     C19385   3.445  10.217   5.998  0.2619  0.0741 -0.2468
  885MOL0     C19386   3.332  10.290   5.966 -0.4701 -0.3207  0.0369
  885MOL0     O19387   2.949  10.219   6.047  0.1984  0.1978 -0.8090
  885MOL0     C19388   2.735  10.308   5.893  0.8283  0.6147  0.5752
  885MOL0     C19389   2.627  10.337   5.807 -0.0377 -0.2395 -0.5723
  885MOL0     N19390   1.893  10.558   5.803 -0.0761  0.5024  0.0689
  885MOL0     N19391   1.769  10.535   5.781  0.1452  0.3488  0.2755
  885MOL0     C19392   0.757  10.485   5.258  1.1155 -0.7786 -0.6674
  885MOL0     C19393   0.646  10.539   5.187  0.5975 -0.2219  0.2388
  885MOL0     C19394   0.225  10.683   5.099  0.1516  1.0677 -0.5238
  885MOL0     C19395   0.147  10.601   5.008 -0.0939 -0.0227 -1.0275
  885MOL0     C19396   0.020  10.639   4.970 -0.7104 -1.1124 -0.1006
  885MOL0     C19397  -0.024  10.766   5.007  0.0464 -0.0086  0.4267
  885MOL0     O19398  -0.137  10.831   4.966  1.0612 -0.2912 -0.1122
  885MOL0     C19399  -0.157  10.861   4.825  1.5487  0.4296 -0.5522
  885MOL0     C19400  -0.049  10.946   4.766  0.4116  0.4679 -0.5643
  885MOL0     C19401  -0.100  11.022   4.642 -0.2228 -0.3306 -0.2145
  885MOL0     C19402   0.010  11.093   4.560 -0.3573 -0.0406  0.0920
  885MOL0     C19403  -0.038  11.148   4.440  0.4470 -0.4326 -0.1218
  885MOL0     C19404  -0.074  11.191   4.332  0.7449  0.4064 -0.4305
  885MOL0     C19405   0.056  10.854   5.085  0.2609  0.0626  0.6616
  885MOL0     C19406   0.181  10.811   5.135  0.4416  0.1719  0.0033
  885MOL0     C19407   0.267  10.908   5.215  0.2171  1.0883  0.4341
  885MOL0     H19408   0.560  10.782   5.398 -0.0730 -1.2979  3.6420
  885MOL0     H19409   0.764  10.713   5.506 -3.1828 -2.3081  2.7897
  885MOL0     H19410   0.970  10.334   5.558  0.0492  2.0686  0.7622
  885MOL0     H19411   0.846  10.297   5.433  0.7704 -2.1517  1.7412
  885MOL0     H19412   1.019  10.383   5.268 -0.6187 -1.2639 -1.5991
  885MOL0     H19413   1.058  10.217   5.332  1.9977  0.7373 -2.0927
  885MOL0     H19414   1.206  10.344   5.510  2.1843 -1.9774 -1.1940
  885MOL0     H19415   1.170  10.489   5.410 -0.1033  0.1697 -1.2356
  885MOL0     H19416   1.302  10.235   5.302  3.2157 -0.8367  0.2212
  885MOL0     H19417   1.305  10.398   5.220  2.3730  0.0179  0.5701
  885MOL0     H19418   1.469  10.303   5.453  1.8459  1.6552  0.6006
  885MOL0     H19419   1.513  10.364   5.295 -0.2567 -0.2807  0.0409
  885MOL0     H19420   1.407  10.583   5.349 -1.6833 -0.4890  0.6935
  885MOL0     H19421   1.390  10.533   5.515 -1.7526 -2.7956 -0.8514
  885MOL0     H19422   1.604  10.654   5.503 -0.0052 -0.4757  3.1582
  885MOL0     H19423   1.669  10.542   5.371 -0.3183 -3.3925 -0.0860
  885MOL0     H19424   1.550  10.475   5.655 -0.6076 -4.0333  0.1526
  885MOL0     H19425   1.624  10.364   5.550 -0.8054  0.7308 -0.1869
  885MOL0     H19426   1.904  10.511   5.478 -1.7528  0.2029  0.3193
  885MOL0     H19427   2.114  10.690   5.602  2.8571 -0.1005  0.5081
  885MOL0     H19428   2.131  10.652   5.773 -1.7990  1.1418 -0.1986
  885MOL0     H19429   2.187  10.415   5.699 -3.3859  2.7365  2.2201
  885MOL0     H19430   2.184  10.461   5.535 -0.5630 -0.4991  0.2938
  885MOL0     H19431   2.348  10.531   5.770  1.0299  3.7530 -0.6694
  885MOL0     H19432   2.382  10.628   5.629  1.3183  0.6822  1.4393
  885MOL0     H19433   2.409  10.423   5.494 -1.3601  1.9761  0.1252
  885MOL0     H19434   2.418  10.322   5.640  1.7405 -0.7014 -1.2685
  885MOL0     H19435   2.815  10.520   5.586  1.5823 -0.6895 -0.6895
  885MOL0     H19436   2.995  10.449   5.728 -1.2136  1.8342  0.8749
  885MOL0     H19437   3.113  10.029   5.953 -2.2706  3.3890  0.9986
  885MOL0     H19438   3.324   9.897   5.985 -0.1816  0.7168 -0.2092
  885MOL0     H19439   3.521   9.861   6.156  0.5888  1.5571  0.0813
  885MOL0     H19440   3.527   9.831   5.987  0.0740 -1.6397  0.7859
  885MOL0     H19441   3.769   9.927   5.988  0.0464 -0.2475  0.0232
  885MOL0     H19442   3.769   9.902   6.169 -1.0871 -0.6105  1.0185
  885MOL0     H19443   3.705   9.647   6.109 -1.1619 -0.7519 -2.4504
  885MOL0     H19444   3.742   9.687   5.947 -3.3740 -1.2690 -0.1065
  885MOL0     H19445   3.927   9.753   6.176 -2.1026 -0.8750  0.6678
  885MOL0     H19446   3.958   9.770   5.996 -4.7221 -0.2276 -3.7354
  885MOL0     H19447   3.978   9.537   5.970 -0.6158 -2.0916  0.7985
  885MOL0     H19448   3.895   9.496   6.122 -1.3778  1.5670  0.3265
  885MOL0     H19449   4.175   9.617   6.091  0.8950 -1.1175 -0.0709
  885MOL0     H19450   4.101   9.556   6.239 -2.0506 -2.5265  0.4391
  885MOL0     H19451   4.141   9.361   6.012 -1.1450  1.1756 -0.8491
  885MOL0     H19452   4.088   9.337   6.177  1.0095 -0.2403  1.4519
  885MOL0     H19453   4.359   9.436   6.060 -1.0144  1.1985 -0.2330
  885MOL0     H19454   4.316   9.425   6.237  0.2640 -1.7184  0.0104
  885MOL0     H19455   3.547  10.253   6.005  1.1538 -2.3808  0.5129
  885MOL0     H19456   3.343  10.396   5.947 -0.8600 -0.4839 -1.2307
  885MOL0     H19457   2.708  10.256   5.984 -0.1301 -1.9715 -1.0928
  885MOL0     H19458   2.521  10.325   5.828  0.6274 -2.0153  2.3156
  885MOL0     H19459   0.809  10.395   5.229 -0.5107 -2.1168  0.3968
  885MOL0     H19460   0.626  10.487   5.094  0.2483  0.2934  0.0217
  885MOL0     H19461   0.177  10.498   4.990 -1.5029 -0.4267 -1.1727
  885MOL0     H19462  -0.035  10.568   4.909  0.5093 -1.7703 -0.4715
  885MOL0     H19463  -0.252  10.914   4.817  2.2651  1.5499 -2.2043
  885MOL0     H19464  -0.172  10.762   4.779 -3.4117 -0.2425  1.7858
  885MOL0     H19465   0.045  10.901   4.733  0.5988  1.3500 -1.2730
  885MOL0     H19466  -0.023  11.022   4.841 -0.4287  1.5155 -1.3063
  885MOL0     H19467  -0.166  11.098   4.684 -3.0623 -3.5661  1.6874
  885MOL0     H19468  -0.165  10.956   4.583 -1.4188 -1.1966  1.9614
  885MOL0     H19469   0.059  11.164   4.628 -2.0436 -0.3078  1.6823
  885MOL0     H19470   0.083  11.017   4.528 -1.2906 -1.2171  0.6747
  885MOL0     H19471  -0.114  11.221   4.237 -2.4971 -0.1020  0.6654
  885MOL0     H19472   0.024  10.958   5.093 -0.3612 -0.0199 -0.5686
  885MOL0     H19473   0.208  10.995   5.247 -1.1696  1.1645 -2.1187
  885MOL0     H19474   0.302  10.861   5.308 -3.2009  1.9545  2.3323
  885MOL0     H19475   0.345  10.954   5.152 -2.1357  3.3200 -1.0454
  886MOL0     O19476  10.426   7.275   5.267 -0.1277 -0.4788 -0.1812
  886MOL0     C19477  10.402   7.214   5.169  0.1706  0.3163  0.2254
  886MOL0     O19478  10.390   7.272   5.049  0.2430  0.5192  0.3695
  886MOL0     C19479  10.433   7.404   5.034  0.3683 -0.6906 -0.8180
  886MOL0     C19480  10.348   7.501   4.990 -0.2376 -0.5482  0.4166
  886MOL0     C19481  10.387   7.636   4.969 -0.2251 -0.9274  0.3970
  886MOL0     C19482  10.519   7.670   4.969 -1.2974 -0.5870 -0.0938
  886MOL0     O19483  10.579   7.790   4.923  0.2017 -0.1930 -0.2882
  886MOL0     C19484  10.488   7.888   4.877 -0.0666  0.6607  0.3574
  886MOL0     C19485  10.568   7.996   4.811 -0.0549  0.0388  0.3289
  886MOL0     C19486  10.622   7.957   4.670  0.1371  0.5618  0.5175
  886MOL0     C19487  10.522   7.959   4.561 -0.1282  0.5964 -0.1016
  886MOL0     C19488  10.610   7.945   4.433  0.6223  0.2461  0.3466
  886MOL0     C19489  10.508   7.911   4.321  0.8416  0.5799  0.9814
  886MOL0     C19490  10.578   7.855   4.193  0.4453  0.8028  0.2474
  886MOL0     C19491  10.478   7.785   4.103 -0.0995  0.6315  0.3269
  886MOL0     N19492  10.543   7.706   4.001  0.4370 -0.1412 -0.2903
  886MOL0     C19493  10.583   7.761   3.878  0.7004 -0.3587 -0.5930
  886MOL0     C19494  10.625   7.649   3.809  0.6814  0.0954 -0.5397
  886MOL0     C19495  10.652   7.642   3.658 -0.6387 -0.8446  0.4123
  886MOL0     C19496  10.808   7.621   3.638  0.2720 -0.4301 -0.0489
  886MOL0     C19497  10.844   7.592   3.491  0.4661 -1.2579 -0.1509
  886MOL0     C19498  10.991   7.574   3.476 -0.4566  0.4284  0.3514
  886MOL0     O19499  11.004   7.586   3.334  0.0778  0.7136  0.1490
  886MOL0     C19500  11.107   7.666   3.302 -0.0129  0.7350 -0.4820
  886MOL0     C19501  11.098   7.801   3.337  0.2731 -0.4934  0.5020
  886MOL0     C19502  11.208   7.882   3.316  0.3086 -0.0017 -0.1471
  886MOL0     C19503  11.327   7.832   3.271 -0.8439  0.3049 -0.0198
  886MOL0     C19504  11.448   7.922   3.257  0.2297  0.1327  0.4869
  886MOL0     O19505  11.569   7.862   3.246  0.1213 -0.7449 -0.5626
  886MOL0     C19506  11.681   7.945   3.239 -0.5104  0.2892  0.3061
  886MOL0     C19507  11.690   8.043   3.135 -0.3225 -0.3309  0.2055
  886MOL0     C19508  11.806   8.130   3.135 -0.2531  0.6423  0.5456
  886MOL0     C19509  11.905   8.123   3.231 -0.3549 -0.2565  0.8006
  886MOL0     O19510  12.006   8.215   3.233  0.8913  0.2284 -0.2311
  886MOL0     C19511  12.071   8.235   3.361  0.2071 -0.0104 -0.3310
  886MOL0     C19512  12.146   8.371   3.361 -0.6985  0.2591 -0.6434
  886MOL0     C19513  12.248   8.365   3.486 -1.0586 -0.3893  0.2589
  886MOL0     C19514  12.326   8.495   3.491  0.8671 -0.0586 -0.3538
  886MOL0     C19515  12.407   8.492   3.619  0.7702  0.1826  0.4914
  886MOL0     C19516  12.507   8.608   3.644  0.3731  0.7172 -0.1781
  886MOL0     C19517  12.610   8.614   3.532 -0.5518  0.7088 -0.0578
  886MOL0     C19518  12.743   8.679   3.560 -1.1246 -0.7073  0.3736
  886MOL0    Cl19519  12.713   8.827   3.664 -0.1891  0.0232 -0.0148
  886MOL0     C19520  11.903   8.019   3.325 -0.5011 -0.7377  0.1335
  886MOL0     C19521  11.794   7.925   3.321  0.7120  0.5151 -0.6540
  886MOL0     O19522  11.429   8.042   3.246  0.3449  0.2786 -0.3708
  886MOL0     C19523  11.343   7.698   3.239 -0.1226  0.0892  0.4418
  886MOL0     C19524  11.232   7.614   3.257 -0.5267  0.4702 -1.1732
  886MOL0     N19525  10.613   7.542   3.889 -0.6160  0.1895 -0.3438
  886MOL0     N19526  10.566   7.569   4.005  0.3735 -0.9793 -0.2327
  886MOL0     C19527  10.610   7.570   5.006 -0.3519  0.3843 -0.5837
  886MOL0     C19528  10.568   7.440   5.041 -0.6484 -0.2242 -0.7650
  886MOL0     C19529  10.379   7.068   5.177 -0.1158 -0.8864 -0.0935
  886MOL0     C19530  10.267   7.012   5.115  0.8756  0.2290  0.0538
  886MOL0     C19531  10.233   6.877   5.118  0.6674  0.2908 -0.7028
  886MOL0     C19532  10.307   6.791   5.195  0.6360  0.4572 -0.5389
  886MOL0     O19533  10.273   6.659   5.230 -0.4126 -0.4662 -0.2665
  886MOL0     C19534  10.201   6.586   5.138  0.4773  0.2960  0.1665
  886MOL0     C19535  10.196   6.437   5.175 -0.1894 -0.5912 -0.7118
  886MOL0     C19536  10.078   6.397   5.268 -0.2010  0.1328 -0.1406
  886MOL0     C19537  10.105   6.255   5.314  0.0862  0.9521 -0.8399
  886MOL0     C19538   9.978   6.205   5.375 -0.4941 -0.1616 -0.9186
  886MOL0     C19539   9.876   6.159   5.403  0.3130  0.4791 -0.0231
  886MOL0     C19540  10.411   6.844   5.276  1.1475  0.1807  0.2053
  886MOL0     C19541  10.453   6.979   5.263 -0.3543 -0.6461 -0.3796
  886MOL0     C19542  10.576   7.020   5.340 -0.5273  0.2470  1.1153
  886MOL0     H19543  10.243   7.483   4.970 -0.1860  0.8614 -1.3681
  886MOL0     H19544  10.313   7.711   4.943  1.8329  0.8158 -0.8027
  886MOL0     H19545  10.413   7.845   4.809 -1.1788  1.5238  1.0154
  886MOL0     H19546  10.430   7.937   4.955  1.5653 -0.1042  2.1162
  886MOL0     H19547  10.651   8.028   4.874  0.9137  0.2850 -1.0198
  886MOL0     H19548  10.502   8.082   4.796 -2.1300 -1.6124 -0.5043
  886MOL0     H19549  10.667   7.858   4.671  1.7777  1.2303 -1.0529
  886MOL0     H19550  10.698   8.028   4.637 -0.2539  2.1384  2.7895
  886MOL0     H19551  10.454   7.875   4.579  0.8228 -0.3142 -0.6344
  886MOL0     H19552  10.458   8.047   4.565 -4.2105 -2.0374 -1.3480
  886MOL0     H19553  10.662   8.039   4.416 -0.0790  0.2479 -2.2383
  886MOL0     H19554  10.682   7.863   4.436  0.6485  0.2366 -0.4811
  886MOL0     H19555  10.438   7.840   4.367 -2.1881  2.9727  0.3880
  886MOL0     H19556  10.450   8.001   4.299  2.0120  1.4053  1.1934
  886MOL0     H19557  10.663   7.792   4.220 -0.2612 -0.1449  0.3145
  886MOL0     H19558  10.620   7.940   4.138  0.9923  0.5289  0.2362
  886MOL0     H19559  10.405   7.729   4.162  1.6490 -0.5907  1.4081
  886MOL0     H19560  10.425   7.862   4.046  0.8202  1.6468  0.7787
  886MOL0     H19561  10.558   7.860   3.841  0.6200 -1.0678 -2.5225
  886MOL0     H19562  10.587   7.564   3.619  0.3759 -0.7806 -1.5107
  886MOL0     H19563  10.617   7.736   3.615  2.7031 -0.1745 -1.2297
  886MOL0     H19564  10.865   7.709   3.668  1.4211 -0.2633 -2.5382
  886MOL0     H19565  10.832   7.535   3.702 -1.9194 -0.6463  0.5823
  886MOL0     H19566  10.800   7.665   3.422  1.2750 -0.7881 -0.1861
  886MOL0     H19567  10.788   7.501   3.470  1.7534 -2.5541  1.7622
  886MOL0     H19568  11.012   7.472   3.511  3.9037  1.5022  1.5095
  886MOL0     H19569  11.051   7.647   3.531  1.1406  0.1422 -0.9190
  886MOL0     H19570  11.013   7.847   3.384  1.2840 -0.3871  2.3202
  886MOL0     H19571  11.196   7.988   3.340 -3.7691 -0.4966  0.6149
  886MOL0     H19572  11.605   8.065   3.070 -1.5718 -0.2731  1.7898
  886MOL0     H19573  11.788   8.209   3.063 -1.7754 -1.7609 -1.8908
  886MOL0     H19574  11.993   8.243   3.437 -2.7956 -0.2227 -3.1235
  886MOL0     H19575  12.133   8.151   3.392 -0.8223  0.0025  1.9368
  886MOL0     H19576  12.197   8.377   3.265  1.4123  2.1029  0.5076
  886MOL0     H19577  12.076   8.454   3.370 -0.3037  0.4176  1.5460
  886MOL0     H19578  12.192   8.344   3.578 -0.9562 -1.8958 -0.0064
  886MOL0     H19579  12.319   8.282   3.479  1.6888  1.6148  2.1268
  886MOL0     H19580  12.265   8.583   3.510 -0.7710 -1.4111  0.9095
  886MOL0     H19581  12.391   8.515   3.405  0.9788 -0.9471 -0.4873
  886MOL0     H19582  12.467   8.401   3.606 -2.1234 -1.6543 -1.0778
  886MOL0     H19583  12.341   8.491   3.706  0.1628  0.5611  0.0366
  886MOL0     H19584  12.461   8.705   3.665  2.3445  1.8913 -1.0280
  886MOL0     H19585  12.557   8.571   3.734 -0.4336 -0.5006 -0.2019
  886MOL0     H19586  12.571   8.643   3.434  1.5056  1.7833 -0.6148
  886MOL0     H19587  12.637   8.512   3.503 -0.5169  1.4739 -2.9901
  886MOL0     H19588  12.812   8.608   3.605  0.9899  1.0627  0.0704
  886MOL0     H19589  12.790   8.715   3.469 -1.2085 -0.6688  0.3450
  886MOL0     H19590  11.981   8.004   3.399 -0.7459  2.8541  1.3046
  886MOL0     H19591  11.797   7.842   3.390 -0.6367 -0.3613 -1.6091
  886MOL0     H19592  11.435   7.656   3.201 -0.3471  0.4782 -0.5595
  886MOL0     H19593  11.251   7.508   3.247 -0.4063  0.1383  1.7411
  886MOL0     H19594  10.714   7.597   5.014 -0.2055 -0.3237 -0.0243
  886MOL0     H19595  10.644   7.367   5.065 -1.2201 -0.8180 -0.7533
  886MOL0     H19596  10.202   7.079   5.059  1.7477 -0.7466 -2.2704
  886MOL0     H19597  10.147   6.835   5.067  1.5263 -0.5725 -1.4862
  886MOL0     H19598  10.249   6.582   5.040  0.6519 -3.9152  0.2569
  886MOL0     H19599  10.096   6.616   5.133  0.0195 -1.4335 -2.3662
  886MOL0     H19600  10.291   6.413   5.224 -1.4903 -0.5373  2.0347
  886MOL0     H19601  10.198   6.380   5.082 -1.3878 -0.6379 -0.7220
  886MOL0     H19602   9.997   6.405   5.194  0.1642  1.3985 -0.4262
  886MOL0     H19603  10.060   6.474   5.343  2.3768  0.0247  0.6692
  886MOL0     H19604  10.130   6.203   5.222 -0.5331 -1.0726  0.0810
  886MOL0     H19605  10.183   6.251   5.390 -1.9212 -0.3625  1.3010
  886MOL0     H19606   9.781   6.115   5.429  0.5044 -1.2410 -1.9531
  886MOL0     H19607  10.455   6.792   5.361 -0.5071 -0.5475  0.6595
  886MOL0     H19608  10.659   7.048   5.275 -0.3349  1.1363  1.7331
  886MOL0     H19609  10.552   7.093   5.417  1.9041 -0.0467  2.2398
  886MOL0     H19610  10.617   6.929   5.386  0.2375 -0.6983 -1.2687
  887MOL0     O19611   0.081   8.523   0.626  0.5002  0.6741  0.8094
  887MOL0     C19612   0.036   8.419   0.585  0.7515 -0.9121 -0.3218
  887MOL0     O19613   0.080   8.357   0.469 -0.5995  0.5232 -0.8209
  887MOL0     C19614   0.175   8.406   0.379  0.5056 -0.5153  0.0778
  887MOL0     C19615   0.297   8.470   0.414 -0.3556  0.1951  0.0150
  887MOL0     C19616   0.389   8.510   0.314  0.2249  0.1705  0.3319
  887MOL0     C19617   0.367   8.484   0.174  0.2461  0.2528  0.3957
  887MOL0     O19618   0.459   8.510   0.074 -0.4286  0.0128 -0.3067
  887MOL0     C19619   0.588   8.527   0.120  0.7527 -0.7453 -0.6127
  887MOL0     C19620   0.677   8.519   0.001  0.3472  0.6432 -0.7797
  887MOL0     C19621   0.825   8.551   0.048  0.5763 -0.0579 -0.7972
  887MOL0     C19622   0.927   8.444  -0.002 -1.3218 -0.1180  0.2839
  887MOL0     C19623   1.076   8.480   0.028  0.0230 -0.7310  0.9391
  887MOL0     C19624   1.176   8.368  -0.008  0.3296 -0.3121 -0.5245
  887MOL0     C19625   1.311   8.392   0.062  0.3339  0.8546  0.1637
  887MOL0     C19626   1.393   8.506  -0.018  0.7519  0.6161 -0.5586
  887MOL0     N19627   1.536   8.492  -0.029  0.2151  0.3586  0.3263
  887MOL0     C19628   1.605   8.396  -0.098 -0.5944 -0.0866 -0.2307
  887MOL0     C19629   1.730   8.435  -0.066 -0.2566 -0.2958 -0.4173
  887MOL0     C19630   1.845   8.344  -0.101  0.4291 -0.2958 -1.0178
  887MOL0     C19631   1.985   8.402  -0.043  0.3644 -0.5564  0.8474
  887MOL0     C19632   2.019   8.542  -0.106 -0.4589 -0.0542  0.0573
  887MOL0     C19633   2.164   8.552  -0.111  0.3598 -0.6262  0.6670
  887MOL0     O19634   2.202   8.647  -0.205 -0.3323 -0.5162  0.2825
  887MOL0     C19635   2.342   8.670  -0.221  0.1358  0.5917  0.0905
  887MOL0     C19636   2.387   8.754  -0.325  0.4955  0.0217 -0.0393
  887MOL0     C19637   2.521   8.779  -0.341  0.4382  0.4330  0.7432
  887MOL0     C19638   2.613   8.721  -0.261 -0.1188 -0.0460  0.1624
  887MOL0     C19639   2.757   8.757  -0.279 -0.0545 -0.3082  0.0796
  887MOL0     O19640   2.866   8.658  -0.282  0.6573 -0.1266 -0.2007
  887MOL0     C19641   2.998   8.697  -0.275  0.0014  0.2691 -0.7876
  887MOL0     C19642   3.072   8.729  -0.379 -0.3415  0.0891  0.1991
  887MOL0     C19643   3.203   8.758  -0.364  0.6642 -0.3815  0.2326
  887MOL0     C19644   3.263   8.752  -0.241  0.2350 -0.4740  0.7692
  887MOL0     O19645   3.400   8.774  -0.236 -0.5406 -0.1646 -0.2427
  887MOL0     C19646   3.480   8.663  -0.186 -0.5047  0.0647 -0.2110
  887MOL0     C19647   3.618   8.651  -0.241 -0.6535  0.1976  0.1664
  887MOL0     C19648   3.692   8.786  -0.235 -1.4186 -0.1919 -0.5241
  887MOL0     C19649   3.844   8.752  -0.267 -0.1900 -0.7890  0.0761
  887MOL0     C19650   3.934   8.874  -0.230  0.4086 -0.6142  0.1626
  887MOL0     C19651   4.084   8.846  -0.254  0.3050 -0.1471  0.3648
  887MOL0     C19652   4.118   8.916  -0.383 -0.3296 -0.0925 -0.2056
  887MOL0     C19653   4.260   8.882  -0.430  0.0368  0.0604 -0.0326
  887MOL0    Cl19654   4.390   8.946  -0.317 -0.1383  0.2056  0.4080
  887MOL0     C19655   3.196   8.708  -0.126  0.4416 -0.5142  0.4939
  887MOL0     C19656   3.058   8.673  -0.141  0.4067 -0.0687  0.0876
  887MOL0     O19657   2.775   8.876  -0.290  0.4072 -0.0194  0.2833
  887MOL0     C19658   2.573   8.623  -0.171 -0.4444 -0.0676  0.0903
  887MOL0     C19659   2.440   8.601  -0.150 -0.4775 -0.5498 -0.2056
  887MOL0     N19660   1.732   8.538   0.017 -0.5911  0.3562 -0.4845
  887MOL0     N19661   1.619   8.579   0.035  0.4092  0.5593 -0.4275
  887MOL0     C19662   0.243   8.433   0.140  0.2342 -0.5898 -0.0405
  887MOL0     C19663   0.148   8.401   0.235  0.4661  0.3909 -0.3963
  887MOL0     C19664  -0.092   8.366   0.650 -0.2776  0.1271 -0.1244
  887MOL0     C19665  -0.138   8.445   0.761 -0.1516 -0.7065  1.0546
  887MOL0     C19666  -0.249   8.410   0.841  0.6988  0.2505 -0.3501
  887MOL0     C19667  -0.327   8.299   0.807  0.4015 -0.1726 -0.0852
  887MOL0     O19668  -0.443   8.267   0.871  0.1246 -0.1772 -0.6832
  887MOL0     C19669  -0.485   8.330   0.989 -0.9100 -0.3172 -0.4966
  887MOL0     C19670  -0.620   8.271   1.035  0.6307  0.1432 -0.0354
  887MOL0     C19671  -0.734   8.343   0.953  0.2743 -0.3918 -0.4460
  887MOL0     C19672  -0.735   8.302   0.802 -0.2113  0.5744 -0.4453
  887MOL0     C19673  -0.832   8.370   0.713  0.7340  0.2723 -0.3265
  887MOL0     C19674  -0.906   8.415   0.633  0.5817  0.5846 -0.1186
  887MOL0     C19675  -0.285   8.214   0.695  0.4531 -0.1141  0.5386
  887MOL0     C19676  -0.165   8.247   0.623 -0.1806  0.2362 -0.4234
  887MOL0     C19677  -0.122   8.156   0.502  0.0401  0.2895  0.0247
  887MOL0     H19678   0.314   8.475   0.521 -3.2641 -1.5648  0.6539
  887MOL0     H19679   0.480   8.556   0.351 -0.8024  1.2956  1.5611
  887MOL0     H19680   0.606   8.627   0.161  3.0780 -1.0957 -0.6478
  887MOL0     H19681   0.604   8.451   0.198 -0.8735  1.5209  2.1311
  887MOL0     H19682   0.631   8.584  -0.074 -1.9543 -1.4103 -1.2726
  887MOL0     H19683   0.672   8.418  -0.039 -0.6880  0.4916 -0.2939
  887MOL0     H19684   0.825   8.558   0.157 -1.1260 -1.2697 -0.6770
  887MOL0     H19685   0.857   8.650   0.014  1.4566  0.2670  0.8823
  887MOL0     H19686   0.902   8.348   0.044 -1.6239 -0.0149  0.3408
  887MOL0     H19687   0.922   8.439  -0.111 -1.8075  1.8098  0.1766
  887MOL0     H19688   1.106   8.567  -0.031 -0.5599  1.3236  3.4646
  887MOL0     H19689   1.086   8.508   0.133 -1.9275  0.3037  0.8915
  887MOL0     H19690   1.141   8.273   0.034 -2.8049  1.4071  1.1091
  887MOL0     H19691   1.194   8.358  -0.115  2.9650  1.1300 -0.3237
  887MOL0     H19692   1.357   8.293   0.057  0.7488  1.0971 -1.4083
  887MOL0     H19693   1.303   8.421   0.167  1.1303 -1.9177  1.0893
  887MOL0     H19694   1.364   8.499  -0.123  3.1958 -0.7045 -1.2182
  887MOL0     H19695   1.375   8.606   0.022  1.1252  0.8425 -0.9555
  887MOL0     H19696   1.572   8.311  -0.157 -0.5216  0.3935 -0.9783
  887MOL0     H19697   1.826   8.243  -0.064  1.0380 -0.3473 -0.8278
  887MOL0     H19698   1.844   8.335  -0.210  0.6590  1.5587 -1.2052
  887MOL0     H19699   1.970   8.413   0.065 -1.9429 -0.5073  0.5702
  887MOL0     H19700   2.063   8.327  -0.054 -0.5397 -1.2513 -1.4437
  887MOL0     H19701   1.971   8.625  -0.055  0.3055  1.0146 -0.8919
  887MOL0     H19702   1.980   8.549  -0.208 -2.3276  1.6561  0.8304
  887MOL0     H19703   2.202   8.463  -0.164 -1.1581 -0.2233 -1.2373
  887MOL0     H19704   2.209   8.567  -0.013 -0.8403 -2.2019  1.5071
  887MOL0     H19705   2.327   8.804  -0.400  1.7275 -1.3027 -1.9747
  887MOL0     H19706   2.550   8.855  -0.412 -2.9383  0.1795 -1.0890
  887MOL0     H19707   3.031   8.722  -0.479 -1.7093  1.2748  0.6339
  887MOL0     H19708   3.252   8.784  -0.458 -3.3278  2.1672 -1.4026
  887MOL0     H19709   3.488   8.658  -0.077 -1.2655  2.1908  0.0056
  887MOL0     H19710   3.428   8.572  -0.217 -0.5517 -0.4485  1.3064
  887MOL0     H19711   3.678   8.584  -0.179  2.6290  1.5721 -1.2875
  887MOL0     H19712   3.606   8.609  -0.341  3.0697 -4.7031  1.4330
  887MOL0     H19713   3.649   8.860  -0.303  0.6212  1.7240  0.1519
  887MOL0     H19714   3.686   8.833  -0.136 -1.9716 -1.4802  0.0698
  887MOL0     H19715   3.848   8.741  -0.376  0.7685 -1.8038  0.1966
  887MOL0     H19716   3.879   8.663  -0.215  0.5686 -0.9593 -0.7137
  887MOL0     H19717   3.916   8.900  -0.126 -1.6703 -0.3447 -0.2185
  887MOL0     H19718   3.895   8.959  -0.288 -3.4884 -1.0896  1.8138
  887MOL0     H19719   4.142   8.883  -0.170  1.7553 -0.0266 -0.6484
  887MOL0     H19720   4.102   8.738  -0.264  1.2573  0.0669 -0.3677
  887MOL0     H19721   4.119   9.023  -0.360 -0.7930 -0.3671  1.2322
  887MOL0     H19722   4.046   8.896  -0.463  2.1863  1.2155 -2.9607
  887MOL0     H19723   4.265   8.773  -0.443 -5.5117 -0.4104 -0.6709
  887MOL0     H19724   4.268   8.925  -0.531 -0.2117  1.1158  0.3915
  887MOL0     H19725   3.242   8.698  -0.028 -1.3873 -0.1653  1.4264
  887MOL0     H19726   3.002   8.647  -0.052 -0.9720 -0.2083 -0.7832
  887MOL0     H19727   2.654   8.571  -0.121 -0.1930 -0.8962 -1.1321
  887MOL0     H19728   2.407   8.536  -0.069  0.2593  0.8086  1.2575
  887MOL0     H19729   0.211   8.425   0.037 -3.4607  1.0378  0.8206
  887MOL0     H19730   0.053   8.373   0.189  0.3371  1.3410 -0.7437
  887MOL0     H19731  -0.094   8.537   0.799  0.1222  0.9258 -2.8329
  887MOL0     H19732  -0.277   8.475   0.924 -3.2903  0.4569 -1.6553
  887MOL0     H19733  -0.490   8.439   0.990 -0.6284 -0.2200  3.2043
  887MOL0     H19734  -0.407   8.311   1.063  1.1393 -0.0632 -2.4681
  887MOL0     H19735  -0.636   8.285   1.143 -2.9831 -0.7587 -0.3252
  887MOL0     H19736  -0.621   8.164   1.016  0.1624  0.1429 -0.0385
  887MOL0     H19737  -0.727   8.452   0.959 -0.7611 -0.3560  0.2133
  887MOL0     H19738  -0.825   8.312   1.005  0.3457 -0.0482 -0.1119
  887MOL0     H19739  -0.640   8.338   0.761  0.8183  1.7259  2.6539
  887MOL0     H19740  -0.734   8.192   0.802  1.4465  0.5585 -1.1432
  887MOL0     H19741  -0.959   8.448   0.546  1.2028  0.3802 -0.5895
  887MOL0     H19742  -0.342   8.131   0.657  0.2143  0.8056 -1.2044
  887MOL0     H19743  -0.014   8.135   0.507  0.4361  1.2280 -2.7217
  887MOL0     H19744  -0.178   8.063   0.509 -1.3339  1.0775 -0.2568
  887MOL0     H19745  -0.125   8.196   0.400 -0.9122 -0.4229 -0.2402
  888MOL0     O19746   5.495   9.182   5.847 -0.0565 -0.0544  0.2194
  888MOL0     C19747   5.571   9.132   5.928 -0.4658 -0.8298  0.3765
  888MOL0     O19748   5.540   9.032   6.014 -0.0442  0.2504  0.1432
  888MOL0     C19749   5.403   9.000   6.041  0.1567  0.7533 -0.0104
  888MOL0     C19750   5.366   8.954   6.167 -0.7812  0.5130 -0.1337
  888MOL0     C19751   5.234   8.920   6.200  0.7300 -1.0601  0.3990
  888MOL0     C19752   5.130   8.919   6.106 -0.7401 -1.7593  0.0511
  888MOL0     O19753   4.999   8.891   6.120  0.5990  0.3707  0.5313
  888MOL0     C19754   4.950   8.880   6.253 -0.3906  0.5303 -0.0399
  888MOL0     C19755   4.812   8.818   6.262  0.1684 -0.1064  0.3070
  888MOL0     C19756   4.723   8.924   6.206 -0.4646 -0.0533 -0.1348
  888MOL0     C19757   4.573   8.869   6.204 -0.2933  0.1960 -0.6748
  888MOL0     C19758   4.544   8.773   6.093  0.2310  0.6829 -0.0899
  888MOL0     C19759   4.398   8.733   6.071 -0.6456 -1.0909 -0.2022
  888MOL0     C19760   4.391   8.619   5.969 -0.2713 -0.0849  0.1470
  888MOL0     C19761   4.243   8.573   5.938  0.1388 -0.8619 -0.2594
  888MOL0     N19762   4.245   8.461   5.850 -0.8118  0.3894  0.4160
  888MOL0     C19763   4.299   8.341   5.878  0.0242 -0.0328 -0.4531
  888MOL0     C19764   4.260   8.260   5.774 -0.2096 -0.8129 -0.0907
  888MOL0     C19765   4.294   8.112   5.780  0.1872 -0.5883  0.7221
  888MOL0     C19766   4.438   8.076   5.762 -0.2191 -0.4164  0.2628
  888MOL0     C19767   4.476   7.929   5.747 -0.6068  0.3343  0.0657
  888MOL0     C19768   4.630   7.908   5.729  0.9700  0.8782 -0.1589
  888MOL0     O19769   4.709   7.922   5.853 -0.1630  0.3919 -0.1590
  888MOL0     C19770   4.834   7.871   5.847  0.0034 -0.1802  0.0692
  888MOL0     C19771   4.918   7.873   5.731 -1.3553  0.0077 -0.3946
  888MOL0     C19772   5.044   7.825   5.750 -1.3079 -0.5092  0.5140
  888MOL0     C19773   5.099   7.778   5.876  0.4058 -0.5559 -0.0834
  888MOL0     C19774   5.234   7.737   5.897 -0.3290  0.2091  0.5704
  888MOL0     O19775   5.279   7.713   6.023 -0.5202 -0.9441 -0.0345
  888MOL0     C19776   5.422   7.720   6.035  0.1938 -0.1707 -0.3332
  888MOL0     C19777   5.487   7.842   6.026 -0.7214  0.5349  0.5901
  888MOL0     C19778   5.631   7.847   6.057 -0.3070 -0.5627 -0.0829
  888MOL0     C19779   5.699   7.732   6.095 -0.4746 -0.4757  0.0608
  888MOL0     O19780   5.828   7.731   6.150  0.4232  0.2809 -0.3787
  888MOL0     C19781   5.896   7.857   6.187 -0.2752 -0.1591  0.0493
  888MOL0     C19782   5.968   7.902   6.059 -1.0092  0.2529  0.0218
  888MOL0     C19783   6.086   8.006   6.077  0.6838  1.4168  0.0451
  888MOL0     C19784   6.211   7.938   6.124  0.3321  0.1610  0.0009
  888MOL0     C19785   6.323   8.028   6.176  0.4696 -0.1085  0.0446
  888MOL0     C19786   6.265   8.115   6.294  0.1911 -0.0196 -0.5102
  888MOL0     C19787   6.366   8.208   6.358 -0.0231 -0.1974  0.1706
  888MOL0     C19788   6.295   8.282   6.474 -0.2807 -0.2668  0.1943
  888MOL0    Cl19789   6.397   8.421   6.533 -0.1466 -0.2851 -0.1778
  888MOL0     C19790   5.627   7.609   6.093  0.5127 -0.8807 -0.4872
  888MOL0     C19791   5.492   7.603   6.059  1.1835  0.1446 -0.3101
  888MOL0     O19792   5.300   7.735   5.793  0.5112 -0.2573 -0.1194
  888MOL0     C19793   5.007   7.792   5.989  0.5376 -0.3430  0.0217
  888MOL0     C19794   4.876   7.834   5.970  0.0855  0.5789  0.0135
  888MOL0     N19795   4.201   8.338   5.675  0.5873  0.2280 -0.2767
  888MOL0     N19796   4.208   8.456   5.721  0.0162  0.6155 -0.3934
  888MOL0     C19797   5.166   8.970   5.979 -0.5828  0.8330 -0.6296
  888MOL0     C19798   5.305   8.999   5.944  0.9931  0.0101 -0.4505
  888MOL0     C19799   5.713   9.188   5.932  0.1153 -0.1366  0.1871
  888MOL0     C19800   5.785   9.222   5.812  0.6456 -0.3531  0.2766
  888MOL0     C19801   5.915   9.280   5.804  0.5668  0.2487  0.9641
  888MOL0     C19802   5.978   9.298   5.922 -0.1664 -0.9827 -0.7164
  888MOL0     O19803   6.097   9.369   5.937  0.3487  0.7800 -0.8921
  888MOL0     C19804   6.195   9.364   5.823  1.2387 -0.8606  0.4430
  888MOL0     C19805   6.338   9.357   5.864 -0.5712 -0.3575  0.3026
  888MOL0     C19806   6.374   9.480   5.957 -0.4053  0.6690  0.8600
  888MOL0     C19807   6.525   9.512   5.942  0.2361  0.1795  0.6243
  888MOL0     C19808   6.564   9.618   6.041 -0.6050 -0.1149  0.6466
  888MOL0     C19809   6.605   9.707   6.122  0.2039  0.2356  0.0060
  888MOL0     C19810   5.913   9.267   6.040  0.3208 -0.4312  0.1754
  888MOL0     C19811   5.778   9.226   6.050 -0.0079  0.3230  0.5176
  888MOL0     C19812   5.729   9.208   6.187 -0.1690  0.6305  0.3233
  888MOL0     H19813   5.450   8.949   6.235 -0.4374  0.4687 -0.5606
  888MOL0     H19814   5.219   8.883   6.301  2.0783 -1.6731  0.3990
  888MOL0     H19815   5.009   8.807   6.310 -1.8500 -0.6474  0.0221
  888MOL0     H19816   4.966   8.973   6.307  0.3261  0.6881 -0.4974
  888MOL0     H19817   4.783   8.788   6.363 -0.4246 -2.0391 -0.3891
  888MOL0     H19818   4.806   8.724   6.207 -0.4336  0.3194 -0.3832
  888MOL0     H19819   4.743   8.949   6.102  3.5765 -1.0785  0.2225
  888MOL0     H19820   4.737   9.013   6.268  1.4507 -1.3609  1.4696
  888MOL0     H19821   4.544   8.835   6.304 -3.3488 -0.8005 -1.7732
  888MOL0     H19822   4.510   8.958   6.192  0.7731  1.0535 -0.0643
  888MOL0     H19823   4.566   8.820   5.996 -1.4852  1.5870 -0.0831
  888MOL0     H19824   4.609   8.686   6.100  0.4051  0.8197 -0.0153
  888MOL0     H19825   4.364   8.697   6.168  1.9841 -0.6621  0.9671
  888MOL0     H19826   4.334   8.818   6.044  0.2646 -0.1334  0.5646
  888MOL0     H19827   4.450   8.534   6.004  2.1615  0.8925 -1.2680
  888MOL0     H19828   4.431   8.652   5.872 -1.3184 -0.2926 -0.3715
  888MOL0     H19829   4.196   8.541   6.031  0.2377 -1.2028 -0.3271
  888MOL0     H19830   4.190   8.653   5.885 -1.2650 -3.3357 -2.8062
  888MOL0     H19831   4.350   8.314   5.970 -2.3390  2.3963  1.7218
  888MOL0     H19832   4.254   8.087   5.879  0.8577  1.3686  1.5409
  888MOL0     H19833   4.239   8.063   5.700 -0.1093  1.5913 -0.4974
  888MOL0     H19834   4.478   8.138   5.681 -2.1212  0.6762  0.0952
  888MOL0     H19835   4.482   8.112   5.855 -2.3450 -1.3619  1.7017
  888MOL0     H19836   4.421   7.891   5.660 -2.7573  0.4644  1.3099
  888MOL0     H19837   4.445   7.865   5.830 -0.3811 -0.2760 -0.3094
  888MOL0     H19838   4.661   7.974   5.647 -1.4435  1.4365 -0.6929
  888MOL0     H19839   4.645   7.810   5.683 -2.6155  1.6776 -3.5396
  888MOL0     H19840   4.897   7.912   5.632  0.8038  0.8202 -0.5949
  888MOL0     H19841   5.109   7.814   5.664 -0.2508 -1.0242  1.3570
  888MOL0     H19842   5.434   7.931   5.994 -1.5564 -0.6195 -1.4277
  888MOL0     H19843   5.676   7.945   6.071  2.5225 -1.9812  1.9927
  888MOL0     H19844   5.816   7.924   6.222 -1.9650 -2.8809  1.8697
  888MOL0     H19845   5.962   7.834   6.272  0.7907  2.6159  0.0515
  888MOL0     H19846   6.009   7.813   6.010  2.4113  2.5548 -1.7095
  888MOL0     H19847   5.898   7.939   5.984 -2.8427  1.7758  2.3512
  888MOL0     H19848   6.094   8.065   5.986  0.0661  1.6967  0.1681
  888MOL0     H19849   6.046   8.072   6.155 -1.4139  1.4828 -1.0099
  888MOL0     H19850   6.254   7.878   6.043  0.3862  0.3108 -0.0838
  888MOL0     H19851   6.187   7.868   6.204 -0.1486  0.5038  0.1616
  888MOL0     H19852   6.361   8.088   6.093  0.2922  2.5155  1.7519
  888MOL0     H19853   6.399   7.965   6.225  0.6958 -0.1503 -0.3534
  888MOL0     H19854   6.191   8.183   6.250  1.5106  0.4030 -2.1690
  888MOL0     H19855   6.217   8.059   6.375  1.2261  1.5529  1.2753
  888MOL0     H19856   6.404   8.280   6.285 -2.6182  0.1887 -0.9118
  888MOL0     H19857   6.448   8.150   6.402  1.3956  1.6968  0.1412
  888MOL0     H19858   6.198   8.311   6.432  0.9108 -0.8894 -3.2733
  888MOL0     H19859   6.278   8.212   6.556  0.6516 -0.7893 -0.0526
  888MOL0     H19860   5.683   7.525   6.133  1.0445  0.1930  1.1482
  888MOL0     H19861   5.440   7.508   6.064  0.8427  0.3703  0.5918
  888MOL0     H19862   5.043   7.755   6.085  2.3896  0.8063 -0.1825
  888MOL0     H19863   4.813   7.847   6.057 -2.1749 -1.0961 -1.2557
  888MOL0     H19864   5.086   8.968   5.906 -2.4144 -3.4369  1.1631
  888MOL0     H19865   5.318   9.006   5.836 -1.7211 -0.9879 -0.9179
  888MOL0     H19866   5.724   9.208   5.724 -0.4771  0.0017  0.9708
  888MOL0     H19867   5.957   9.301   5.706 -2.1395 -4.6020 -1.6133
  888MOL0     H19868   6.178   9.455   5.765  2.8960  0.0827  1.3370
  888MOL0     H19869   6.170   9.283   5.755  0.5290 -0.7542  0.5685
  888MOL0     H19870   6.405   9.356   5.777 -0.8315 -0.2711  0.1007
  888MOL0     H19871   6.352   9.261   5.914  0.6689 -0.3957 -0.0877
  888MOL0     H19872   6.359   9.460   6.063 -0.9691  3.1182  1.3042
  888MOL0     H19873   6.312   9.567   5.932  0.1749  0.4128 -1.7632
  888MOL0     H19874   6.590   9.425   5.955 -0.3383 -0.1260  1.5648
  888MOL0     H19875   6.546   9.559   5.845  0.6153  0.7008  0.9526
  888MOL0     H19876   6.644   9.774   6.196 -0.8748  2.3190 -1.2409
  888MOL0     H19877   5.966   9.290   6.132 -1.7978 -1.3742  1.7174
  888MOL0     H19878   5.663   9.291   6.210  0.1939  2.3726 -3.9292
  888MOL0     H19879   5.665   9.119   6.186 -0.1402  0.5187 -2.6982
  888MOL0     H19880   5.811   9.196   6.258  0.5426  2.6121 -0.1073
  889MOL0     O19881   1.977   3.744   7.749  0.2251 -0.2697 -0.3075
  889MOL0     C19882   2.005   3.789   7.638  0.6877 -0.2045  0.1181
  889MOL0     O19883   2.125   3.832   7.601 -0.0552 -0.1090  0.4599
  889MOL0     C19884   2.241   3.841   7.683  0.6206  0.4240 -0.1548
  889MOL0     C19885   2.276   3.761   7.798  0.0600  0.8610 -0.1105
  889MOL0     C19886   2.408   3.775   7.851 -0.3766 -0.2800 -0.2082
  889MOL0     C19887   2.497   3.875   7.801 -1.3173 -0.6556 -0.5573
  889MOL0     O19888   2.617   3.890   7.862  0.3433  0.0856 -0.1392
  889MOL0     C19889   2.619   3.888   8.008 -0.0996  0.5339 -0.0705
  889MOL0     C19890   2.752   3.960   8.036  1.0711  0.4760 -0.4593
  889MOL0     C19891   2.777   3.976   8.183 -0.3639 -0.2594  0.1034
  889MOL0     C19892   2.927   4.025   8.210 -0.5886 -0.5577 -0.1492
  889MOL0     C19893   3.029   3.915   8.160  0.4258 -0.8385  0.7492
  889MOL0     C19894   3.163   3.952   8.221 -0.3673  0.2321 -0.0007
  889MOL0     C19895   3.266   3.841   8.191 -0.2055 -0.0201 -0.1174
  889MOL0     C19896   3.406   3.863   8.271  0.1980 -0.5588 -0.2238
  889MOL0     N19897   3.484   3.975   8.203 -0.3540  0.1495 -0.1996
  889MOL0     C19898   3.572   4.051   8.268 -0.1331  0.3466  0.2226
  889MOL0     C19899   3.645   4.109   8.165 -0.2294 -0.3082 -0.0070
  889MOL0     C19900   3.738   4.227   8.198 -0.3186 -0.6665 -0.3013
  889MOL0     C19901   3.882   4.190   8.157 -0.3575  0.5066  0.5056
  889MOL0     C19902   3.984   4.310   8.151 -0.2945 -0.4948 -0.6026
  889MOL0     C19903   4.124   4.247   8.116 -0.3310 -0.6398  0.0245
  889MOL0     O19904   4.227   4.347   8.086  0.0130  0.3311  0.0709
  889MOL0     C19905   4.354   4.296   8.085 -0.0154 -0.2700 -0.5166
  889MOL0     C19906   4.395   4.165   8.067 -0.5875  0.0412  0.0654
  889MOL0     C19907   4.525   4.137   8.058 -0.5424  0.5354 -0.5698
  889MOL0     C19908   4.622   4.234   8.056  0.1188 -0.1830  0.0429
  889MOL0     C19909   4.761   4.202   8.021 -0.3509 -0.1023  0.2531
  889MOL0     O19910   4.847   4.301   8.036 -0.8136 -0.2405 -0.1014
  889MOL0     C19911   4.986   4.289   7.997  1.3378  0.0341 -0.3895
  889MOL0     C19912   5.063   4.174   7.985  0.1206  0.3299  0.2821
  889MOL0     C19913   5.197   4.181   7.953  0.4313 -0.6298 -0.1184
  889MOL0     C19914   5.260   4.299   7.911  0.5492  0.0908 -0.5677
  889MOL0     O19915   5.391   4.288   7.857 -0.3705 -0.3520  0.2738
  889MOL0     C19916   5.456   4.420   7.837 -0.2501  0.0637 -0.4056
  889MOL0     C19917   5.603   4.392   7.800  0.5562  0.7574  0.1355
  889MOL0     C19918   5.673   4.524   7.790 -0.1844  0.0104  0.1859
  889MOL0     C19919   5.811   4.492   7.734 -0.3324  0.6145 -0.7275
  889MOL0     C19920   5.916   4.607   7.754 -0.3119  1.3161 -0.4953
  889MOL0     C19921   6.059   4.555   7.714 -0.7573  0.1796 -0.2894
  889MOL0     C19922   6.159   4.669   7.696 -0.0310 -0.6634 -0.7793
  889MOL0     C19923   6.298   4.630   7.665 -0.5247  0.7762 -0.1621
  889MOL0    Cl19924   6.379   4.511   7.769 -0.1321  0.2104 -0.0033
  889MOL0     C19925   5.182   4.414   7.916  0.2717  0.5200 -0.1336
  889MOL0     C19926   5.053   4.408   7.962  0.0984 -0.3244 -0.1439
  889MOL0     O19927   4.785   4.090   7.968  0.3103 -0.0900  0.4512
  889MOL0     C19928   4.580   4.368   8.063  0.5496 -0.0363 -0.6205
  889MOL0     C19929   4.446   4.400   8.076  0.2984  0.5018 -0.6170
  889MOL0     N19930   3.606   4.055   8.044 -0.7408  0.0057 -0.2860
  889MOL0     N19931   3.511   3.975   8.070 -0.0342 -0.0921 -0.3386
  889MOL0     C19932   2.470   3.942   7.681 -0.2938  0.0401 -0.0862
  889MOL0     C19933   2.345   3.913   7.623  0.6003  0.4563  0.4260
  889MOL0     C19934   1.902   3.763   7.527  0.7275  0.3570 -0.2323
  889MOL0     C19935   1.925   3.816   7.405  0.2881  0.5458  0.4951
  889MOL0     C19936   1.854   3.773   7.298  0.8426  0.1201  0.2492
  889MOL0     C19937   1.741   3.689   7.312  0.2097 -0.0449  0.4304
  889MOL0     O19938   1.672   3.653   7.193  0.7216 -0.0131  0.3581
  889MOL0     C19939   1.674   3.509   7.158 -0.2812 -0.5537  0.1033
  889MOL0     C19940   1.541   3.448   7.160  0.4011  0.6788 -0.5265
  889MOL0     C19941   1.449   3.491   7.051  0.0368  1.2612 -0.1805
  889MOL0     C19942   1.307   3.431   7.069  0.2667 -0.4711  0.1116
  889MOL0     C19943   1.218   3.463   6.955  0.5723 -0.0282  0.2382
  889MOL0     C19944   1.128   3.476   6.875 -0.3841  0.4365 -0.5236
  889MOL0     C19945   1.700   3.654   7.439  0.1757 -0.3154 -0.0906
  889MOL0     C19946   1.782   3.683   7.551  0.0279 -0.1275  0.5862
  889MOL0     C19947   1.734   3.653   7.692  0.8968 -0.4884  1.2769
  889MOL0     H19948   2.220   3.670   7.820  3.0538 -0.5098  2.6230
  889MOL0     H19949   2.447   3.697   7.916  0.6344 -0.2515 -0.7618
  889MOL0     H19950   2.533   3.937   8.056  0.6760  1.5355  0.3350
  889MOL0     H19951   2.627   3.791   8.058  2.6455  1.2164  0.9582
  889MOL0     H19952   2.755   4.057   7.986  0.9637  0.9564  0.4575
  889MOL0     H19953   2.833   3.901   7.992 -0.5866 -3.9279  1.7519
  889MOL0     H19954   2.752   3.887   8.241 -1.7837  0.0823  0.0535
  889MOL0     H19955   2.710   4.053   8.222  0.6593  0.0881  1.2407
  889MOL0     H19956   2.949   4.118   8.156 -0.6014 -0.5738 -0.1818
  889MOL0     H19957   2.939   4.045   8.317 -1.5709 -0.3000 -0.0777
  889MOL0     H19958   3.005   3.813   8.191  0.9382 -0.7643  1.4192
  889MOL0     H19959   3.038   3.920   8.051  0.5543 -4.2480  0.5045
  889MOL0     H19960   3.198   4.051   8.191 -1.0276  1.2027  2.2087
  889MOL0     H19961   3.163   3.961   8.330  0.9136 -1.1561  0.1462
  889MOL0     H19962   3.286   3.837   8.084  1.8989  0.0510  0.2404
  889MOL0     H19963   3.226   3.744   8.223 -0.1762 -0.5621 -1.6324
  889MOL0     H19964   3.383   3.891   8.374 -0.7854 -2.4776  0.1353
  889MOL0     H19965   3.466   3.772   8.269 -1.2170 -1.5438  0.2722
  889MOL0     H19966   3.572   4.069   8.375  1.1000  0.8256  0.1597
  889MOL0     H19967   3.705   4.313   8.138 -2.2013 -1.3020 -0.2562
  889MOL0     H19968   3.741   4.242   8.307  2.7125 -3.8536  0.2388
  889MOL0     H19969   3.926   4.118   8.227 -1.1625 -1.6059 -1.0504
  889MOL0     H19970   3.876   4.142   8.060 -1.1007  0.2230  0.6851
  889MOL0     H19971   3.988   4.355   8.251 -3.6237  0.1738 -0.6312
  889MOL0     H19972   3.954   4.387   8.080 -0.0253 -0.0539 -0.2440
  889MOL0     H19973   4.109   4.190   8.024  2.3549 -0.9419 -0.2957
  889MOL0     H19974   4.157   4.183   8.198 -2.6406 -0.8721  0.8517
  889MOL0     H19975   4.325   4.083   8.054  1.7702 -1.6179 -4.4223
  889MOL0     H19976   4.552   4.032   8.049  1.6329  0.7783  1.9735
  889MOL0     H19977   5.022   4.074   7.993 -0.7171  0.6698  0.3441
  889MOL0     H19978   5.249   4.087   7.934  2.7806  0.6405 -0.2999
  889MOL0     H19979   5.411   4.474   7.753  0.8464  0.7747 -0.5597
  889MOL0     H19980   5.453   4.471   7.933 -1.1065 -1.6238  0.4988
  889MOL0     H19981   5.642   4.325   7.877 -2.3052 -1.4141 -0.1396
  889MOL0     H19982   5.597   4.345   7.702  1.6326  1.6895 -0.3991
  889MOL0     H19983   5.620   4.596   7.726 -0.4445  0.9190  1.4027
  889MOL0     H19984   5.680   4.576   7.886  0.5808 -0.8898  0.6313
  889MOL0     H19985   5.811   4.451   7.633 -0.4146 -1.0827 -0.0755
  889MOL0     H19986   5.854   4.414   7.797 -0.9317  1.1482  0.3712
  889MOL0     H19987   5.926   4.639   7.858  0.3769  0.6679 -0.3478
  889MOL0     H19988   5.874   4.692   7.700 -5.6002  1.2100  2.7640
  889MOL0     H19989   6.098   4.495   7.796  0.6231  0.1608 -0.9261
  889MOL0     H19990   6.052   4.495   7.623 -1.4868  0.7076 -0.5972
  889MOL0     H19991   6.156   4.729   7.787 -0.5575  1.5307 -2.1463
  889MOL0     H19992   6.114   4.737   7.623 -0.7156  0.8619  0.9756
  889MOL0     H19993   6.311   4.599   7.561  0.5354 -1.1369  0.4920
  889MOL0     H19994   6.357   4.722   7.672  2.8975 -1.3891  1.9886
  889MOL0     H19995   5.214   4.509   7.873 -1.9039  0.9582 -0.8833
  889MOL0     H19996   4.989   4.496   7.959  2.4248  1.5702  1.9050
  889MOL0     H19997   4.649   4.451   8.056 -1.3265  1.7333  0.8535
  889MOL0     H19998   4.426   4.506   8.093 -0.4658  0.1391  1.0199
  889MOL0     H19999   2.540   4.008   7.631  0.3669 -0.5228  0.0748
  889MOL0     H20000   2.319   3.946   7.523 -0.8571  0.5295  0.8122
  889MOL0     H20001   2.014   3.876   7.392  2.1841 -2.6135 -3.0471
  889MOL0     H20002   1.882   3.809   7.199 -2.0956 -1.5569 -1.3061
  889MOL0     H20003   1.740   3.461   7.231  0.8257  3.9081  2.3599
  889MOL0     H20004   1.716   3.498   7.057 -1.0540 -0.8144 -0.1983
  889MOL0     H20005   1.492   3.471   7.255 -1.9550 -3.2229 -0.5416
  889MOL0     H20006   1.553   3.339   7.155  0.1156  0.6168  0.0677
  889MOL0     H20007   1.495   3.460   6.957  0.9287  2.3832 -0.1233
  889MOL0     H20008   1.455   3.600   7.046  2.3735  1.1845 -0.0712
  889MOL0     H20009   1.305   3.322   7.077 -1.9931 -0.4121  1.2006
  889MOL0     H20010   1.257   3.466   7.160 -0.3557 -0.6761 -0.1468
  889MOL0     H20011   1.048   3.464   6.805 -1.3219  0.7452  0.4769
  889MOL0     H20012   1.603   3.606   7.450  0.3732 -1.0097 -1.2758
  889MOL0     H20013   1.646   3.587   7.694 -0.2982  0.8173 -2.0091
  889MOL0     H20014   1.806   3.594   7.749  1.6276  0.4207  1.3154
  889MOL0     H20015   1.712   3.744   7.749 -1.1797 -0.0164 -0.1646
  890MOL0     O20016   8.887   8.527   3.674 -0.4665  0.4477 -0.8525
  890MOL0     C20017   8.847   8.448   3.764 -0.1213  1.3794 -0.3424
  890MOL0     O20018   8.900   8.438   3.890  0.4072  0.4313 -0.5782
  890MOL0     C20019   9.032   8.472   3.902  0.5771  0.2143  0.4199
  890MOL0     C20020   9.127   8.376   3.903  0.3468  0.0441 -0.1117
  890MOL0     C20021   9.251   8.399   3.954  0.1546 -1.0082  0.6632
  890MOL0     C20022   9.290   8.529   3.985 -0.0871 -0.3201 -0.3051
  890MOL0     O20023   9.420   8.524   4.017 -0.2745  0.7969  0.3365
  890MOL0     C20024   9.477   8.653   4.036 -0.3302 -0.0010 -0.5324
  890MOL0     C20025   9.630   8.634   4.050 -0.2136 -0.5052 -0.5391
  890MOL0     C20026   9.661   8.547   4.173  0.1664 -0.3128  1.1663
  890MOL0     C20027   9.809   8.531   4.196 -0.2491  0.0195 -0.1785
  890MOL0     C20028   9.829   8.430   4.308  0.0112  0.1032 -0.7016
  890MOL0     C20029   9.979   8.432   4.358 -0.7645 -0.3264  0.1165
  890MOL0     C20030   9.992   8.320   4.470 -0.0029  0.2490 -0.0373
  890MOL0     C20031  10.105   8.347   4.574  0.0214  0.8144 -0.5117
  890MOL0     N20032  10.235   8.392   4.513  0.9282  0.1888 -0.8983
  890MOL0     C20033  10.308   8.339   4.419 -0.4848  0.3202  0.7747
  890MOL0     C20034  10.392   8.432   4.377 -0.1152 -0.8409 -0.8565
  890MOL0     C20035  10.477   8.415   4.253 -0.0049  0.2688  0.3495
  890MOL0     C20036  10.615   8.355   4.297  0.5731 -0.5163  0.4722
  890MOL0     C20037  10.706   8.341   4.175  0.1517 -0.3157 -0.2956
  890MOL0     C20038  10.845   8.293   4.199  0.4268  0.4953 -0.2086
  890MOL0     O20039  10.919   8.290   4.076 -0.0496  0.3363 -0.4814
  890MOL0     C20040  11.056   8.310   4.078  0.6917  0.2381 -0.5971
  890MOL0     C20041  11.113   8.347   3.954 -0.5848 -0.7944  0.5072
  890MOL0     C20042  11.242   8.399   3.942 -1.5303 -0.3585 -0.4889
  890MOL0     C20043  11.331   8.375   4.047 -0.0630  0.9631 -0.1228
  890MOL0     C20044  11.480   8.378   4.030 -0.9332  0.7084 -0.1379
  890MOL0     O20045  11.561   8.347   4.137  0.9229 -1.1239 -0.3753
  890MOL0     C20046  11.700   8.344   4.109  1.0400  0.1725 -0.5557
  890MOL0     C20047  11.764   8.444   4.043  0.7054 -0.8069 -0.3517
  890MOL0     C20048  11.904   8.443   4.027  0.5293 -0.0753 -0.3314
  890MOL0     C20049  11.977   8.336   4.067 -1.0338  0.0854 -0.2208
  890MOL0     O20050  12.111   8.314   4.060 -0.2412  0.2020  1.0376
  890MOL0     C20051  12.198   8.416   4.010  0.4037 -0.1992 -0.1278
  890MOL0     C20052  12.349   8.371   3.997 -0.5100 -0.0911 -0.5447
  890MOL0     C20053  12.422   8.354   4.128  0.0413 -0.5264  0.4312
  890MOL0     C20054  12.475   8.486   4.183  0.5148  0.2296 -0.3790
  890MOL0     C20055  12.568   8.470   4.305  0.0725 -0.0456  0.1949
  890MOL0     C20056  12.712   8.432   4.267 -0.1634 -0.3210 -0.8241
  890MOL0     C20057  12.789   8.405   4.399  0.6235 -0.6206  0.1068
  890MOL0     C20058  12.934   8.385   4.375  0.5794  0.4411  0.2382
  890MOL0    Cl20059  13.020   8.354   4.521 -0.1101 -0.5561  0.0015
  890MOL0     C20060  11.911   8.231   4.132  0.2003  0.7881  0.7877
  890MOL0     C20061  11.773   8.233   4.153  0.4492 -0.1001  0.9856
  890MOL0     O20062  11.515   8.407   3.919 -0.4609 -0.9231 -0.1745
  890MOL0     C20063  11.272   8.331   4.173  0.2614  0.2995 -0.0114
  890MOL0     C20064  11.136   8.299   4.187 -0.1925  0.1374  0.0196
  890MOL0     N20065  10.372   8.547   4.453 -0.3485  0.0503  0.0472
  890MOL0     N20066  10.283   8.523   4.538 -0.6060 -0.0489  0.0672
  890MOL0     C20067   9.201   8.630   3.978  0.3238 -0.5745  0.4102
  890MOL0     C20068   9.064   8.601   3.943  0.3862  0.3261  0.7170
  890MOL0     C20069   8.724   8.366   3.748  0.4733 -0.9741  0.0190
  890MOL0     C20070   8.600   8.435   3.764  0.5831 -0.2843  0.3379
  890MOL0     C20071   8.479   8.362   3.770  0.1943 -0.0506 -0.4664
  890MOL0     C20072   8.491   8.226   3.765  0.3617 -0.3083 -0.1252
  890MOL0     O20073   8.387   8.138   3.775 -0.2019  0.7168 -0.0667
  890MOL0     C20074   8.258   8.192   3.811  0.2508 -0.5629  0.2998
  890MOL0     C20075   8.161   8.089   3.868  0.2259  0.1325 -0.7974
  890MOL0     C20076   8.013   8.130   3.849  0.5231  0.1085  0.3272
  890MOL0     C20077   7.974   8.251   3.931 -0.6395 -0.6981  0.7367
  890MOL0     C20078   7.830   8.283   3.901 -0.4065  0.1942 -0.8517
  890MOL0     C20079   7.710   8.311   3.886 -0.1146  0.3259  0.6954
  890MOL0     C20080   8.610   8.153   3.755 -0.2796 -0.1989 -0.0581
  890MOL0     C20081   8.731   8.227   3.738  0.0746  1.1567 -0.0325
  890MOL0     C20082   8.857   8.146   3.704  0.3434 -0.0576 -0.0151
  890MOL0     H20083   9.094   8.278   3.872 -1.5733  0.3114  0.9572
  890MOL0     H20084   9.313   8.310   3.962  0.7344 -1.2217 -3.8050
  890MOL0     H20085   9.454   8.707   3.943 -0.2902 -1.1853 -1.2494
  890MOL0     H20086   9.440   8.699   4.128  0.2057  1.5890 -1.0724
  890MOL0     H20087   9.675   8.731   4.075  2.2228 -1.0514 -2.4038
  890MOL0     H20088   9.672   8.591   3.959  4.1750 -0.8681  1.4029
  890MOL0     H20089   9.600   8.458   4.156 -0.9295  0.9221 -2.2526
  890MOL0     H20090   9.624   8.584   4.268  0.6116 -1.1789  1.6915
  890MOL0     H20091   9.856   8.504   4.101 -0.6219 -0.4042 -0.2453
  890MOL0     H20092   9.849   8.630   4.220 -1.3941  0.3519  0.3959
  890MOL0     H20093   9.762   8.447   4.394 -0.6698 -0.6093 -1.0759
  890MOL0     H20094   9.798   8.332   4.270  1.9504 -0.6242 -0.5011
  890MOL0     H20095  10.043   8.410   4.272 -0.6507  0.8889 -0.1263
  890MOL0     H20096  10.022   8.525   4.394  1.7046 -0.4253 -2.2134
  890MOL0     H20097  10.004   8.217   4.435  0.7347 -0.6302  2.5608
  890MOL0     H20098   9.899   8.315   4.527 -0.3616  0.6250 -0.5804
  890MOL0     H20099  10.075   8.429   4.640  3.0887  0.5401  1.4273
  890MOL0     H20100  10.118   8.262   4.641 -3.1486  0.4746 -0.1859
  890MOL0     H20101  10.301   8.248   4.361  1.6088 -0.2363  1.2975
  890MOL0     H20102  10.433   8.353   4.175 -2.1344  2.2990 -0.1674
  890MOL0     H20103  10.494   8.517   4.217 -1.1125 -0.1956 -1.6461
  890MOL0     H20104  10.663   8.418   4.372 -0.7621 -0.6151  1.4369
  890MOL0     H20105  10.596   8.252   4.330 -1.0569 -0.1436  0.7506
  890MOL0     H20106  10.717   8.439   4.129  0.4380  0.6760  1.8091
  890MOL0     H20107  10.663   8.270   4.102 -0.7976 -0.8213  0.7255
  890MOL0     H20108  10.847   8.194   4.246 -2.2174  1.0225  1.2047
  890MOL0     H20109  10.897   8.364   4.263  3.9245  0.3303 -2.5694
  890MOL0     H20110  11.046   8.352   3.869  1.0545  0.1050 -0.7962
  890MOL0     H20111  11.280   8.445   3.851 -1.4095  1.1371  0.2947
  890MOL0     H20112  11.711   8.525   3.993  0.2497 -0.3892  0.7788
  890MOL0     H20113  11.956   8.524   3.977  0.7166 -0.0374 -0.0766
  890MOL0     H20114  12.156   8.460   3.919 -0.0201  1.1306  0.6664
  890MOL0     H20115  12.205   8.495   4.085 -0.5232 -0.7158  0.5184
  890MOL0     H20116  12.342   8.284   3.931  3.2266  1.0842 -2.8211
  890MOL0     H20117  12.400   8.452   3.944 -0.5614  1.1133  1.1773
  890MOL0     H20118  12.346   8.316   4.197 -1.0157 -0.4497 -0.6703
  890MOL0     H20119  12.509   8.290   4.109  1.5080  1.2759  0.7765
  890MOL0     H20120  12.390   8.548   4.214  0.2399 -0.6644  0.7185
  890MOL0     H20121  12.539   8.535   4.109 -1.2126 -1.1297 -2.8942
  890MOL0     H20122  12.523   8.406   4.382 -0.0184  0.3614  0.4829
  890MOL0     H20123  12.566   8.569   4.352  0.3191  0.4037 -0.7295
  890MOL0     H20124  12.714   8.343   4.204 -2.9961 -2.1799  1.4469
  890MOL0     H20125  12.750   8.520   4.214  0.5030 -0.2943 -0.3130
  890MOL0     H20126  12.749   8.316   4.448  4.0091 -2.8169 -0.7394
  890MOL0     H20127  12.781   8.489   4.470 -1.6917 -1.5624  1.0457
  890MOL0     H20128  12.947   8.300   4.308 -0.1290  0.4091  0.1429
  890MOL0     H20129  12.982   8.471   4.326  1.3262 -0.3674 -0.4883
  890MOL0     H20130  11.965   8.148   4.176  1.0098  0.9122  0.0461
  890MOL0     H20131  11.727   8.145   4.197 -2.3749  0.3020 -0.8656
  890MOL0     H20132  11.340   8.334   4.258 -0.6295 -2.2962  0.8983
  890MOL0     H20133  11.098   8.272   4.285 -0.1933 -1.8035 -0.4808
  890MOL0     H20134   9.236   8.731   3.997 -2.3350  0.5567 -0.1781
  890MOL0     H20135   9.000   8.688   3.945  0.4623  0.5051 -1.5069
  890MOL0     H20136   8.578   8.541   3.775  1.8769 -0.0519  0.9056
  890MOL0     H20137   8.392   8.425   3.784  2.0831  2.5491  0.4494
  890MOL0     H20138   8.212   8.235   3.721  0.2040 -1.9692 -0.3667
  890MOL0     H20139   8.266   8.264   3.893 -1.0090 -2.1020  1.8546
  890MOL0     H20140   8.175   8.081   3.976 -1.0062  1.4920 -0.4956
  890MOL0     H20141   8.169   7.994   3.815  0.2796  0.6836 -1.8078
  890MOL0     H20142   7.949   8.043   3.866  0.7746 -0.7004 -2.3613
  890MOL0     H20143   8.000   8.154   3.743  0.3258  2.1418  0.7745
  890MOL0     H20144   7.993   8.226   4.035 -1.8698 -1.0919  0.8843
  890MOL0     H20145   8.029   8.343   3.908  2.4032 -1.9841  2.4106
  890MOL0     H20146   7.604   8.319   3.876 -0.0032  0.6355 -0.4667
  890MOL0     H20147   8.605   8.045   3.752 -0.0984 -0.2130  0.1371
  890MOL0     H20148   8.911   8.187   3.619  0.4069 -0.6975 -0.2905
  890MOL0     H20149   8.917   8.160   3.794 -1.2289  0.8797  0.9369
  890MOL0     H20150   8.833   8.041   3.684 -3.4384  0.6389  0.1436
  891MOL0     O20151   6.347   1.380   0.607  0.2454  0.2034 -0.1762
  891MOL0     C20152   6.275   1.421   0.697 -0.8440 -0.1738 -0.1638
  891MOL0     O20153   6.312   1.450   0.825  0.1444  0.0723 -0.2437
  891MOL0     C20154   6.439   1.408   0.877  0.5014 -0.0139 -0.5868
  891MOL0     C20155   6.572   1.415   0.828 -0.2275 -0.2715  0.4317
  891MOL0     C20156   6.689   1.373   0.896 -0.1779  0.7857 -0.9869
  891MOL0     C20157   6.673   1.349   1.033  0.0751  0.1356 -0.1950
  891MOL0     O20158   6.778   1.338   1.111  0.4370  0.4632 -0.0745
  891MOL0     C20159   6.800   1.461   1.195  0.0707 -0.4308  0.8462
  891MOL0     C20160   6.944   1.494   1.208 -0.4415 -0.2853  0.3133
  891MOL0     C20161   6.966   1.605   1.299 -0.3873 -0.7871  0.3032
  891MOL0     C20162   7.096   1.678   1.252  0.1775 -0.4333  0.1311
  891MOL0     C20163   7.232   1.598   1.268 -0.3572  0.5713  1.0455
  891MOL0     C20164   7.265   1.560   1.417  0.2458  0.0994 -0.4553
  891MOL0     C20165   7.401   1.493   1.451 -1.2411 -0.4604 -0.3623
  891MOL0     C20166   7.407   1.340   1.462  0.5880  0.8216  0.1539
  891MOL0     N20167   7.365   1.274   1.341  0.1185  0.0528  0.1985
  891MOL0     C20168   7.240   1.215   1.314  0.2226  0.7606 -0.0611
  891MOL0     C20169   7.234   1.199   1.183  0.0822 -0.1101 -0.1592
  891MOL0     C20170   7.114   1.172   1.094 -1.1408  0.5379 -0.6152
  891MOL0     C20171   7.117   1.209   0.942  0.3492  0.2351 -0.4304
  891MOL0     C20172   7.004   1.139   0.870  0.5420  0.2769  0.4359
  891MOL0     C20173   7.021   1.158   0.719 -0.7312 -0.5638 -0.7162
  891MOL0     O20174   6.893   1.120   0.663 -0.8824 -0.2472 -0.4756
  891MOL0     C20175   6.847   1.166   0.545 -0.1054  0.0249  0.3020
  891MOL0     C20176   6.920   1.170   0.424 -0.3809 -0.3334  0.5977
  891MOL0     C20177   6.858   1.223   0.307 -0.3330  0.4717 -0.9048
  891MOL0     C20178   6.722   1.268   0.309 -0.2923 -0.4235 -0.3832
  891MOL0     C20179   6.665   1.321   0.184 -0.1607  0.3620  0.0526
  891MOL0     O20180   6.529   1.351   0.183  0.0321  0.1469  0.3895
  891MOL0     C20181   6.466   1.410   0.069 -0.2697 -0.5362  0.5121
  891MOL0     C20182   6.528   1.483  -0.035  0.3498  0.0215 -0.8797
  891MOL0     C20183   6.460   1.541  -0.135 -0.2387  0.2675  0.3082
  891MOL0     C20184   6.321   1.532  -0.147  0.9798  0.7449 -0.1996
  891MOL0     O20185   6.275   1.591  -0.260 -0.6339  0.3990 -0.6275
  891MOL0     C20186   6.132   1.573  -0.292  0.1061  0.9432  0.3481
  891MOL0     C20187   6.105   1.592  -0.439  0.4106 -0.8702  0.8214
  891MOL0     C20188   5.959   1.631  -0.462 -0.5633 -0.5970  0.4525
  891MOL0     C20189   5.954   1.786  -0.450  0.5804 -0.3546  0.5728
  891MOL0     C20190   5.810   1.829  -0.440 -0.9378 -0.6163  0.5429
  891MOL0     C20191   5.754   1.899  -0.564 -0.6845  0.1840  0.4396
  891MOL0     C20192   5.736   1.810  -0.683  0.1857  0.0589 -0.4972
  891MOL0     C20193   5.600   1.735  -0.691 -0.0033 -0.1113  0.8059
  891MOL0    Cl20194   5.478   1.859  -0.759 -0.0203 -0.1068 -0.1002
  891MOL0     C20195   6.253   1.461  -0.048 -1.1564 -0.2321  0.8016
  891MOL0     C20196   6.327   1.398   0.061  0.0656 -0.2372  0.7129
  891MOL0     O20197   6.737   1.315   0.084 -0.1665  0.6288  0.2357
  891MOL0     C20198   6.657   1.269   0.438  0.1697 -1.4930  0.9215
  891MOL0     C20199   6.723   1.218   0.550  0.7047 -0.1800  0.1984
  891MOL0     N20200   7.351   1.246   1.130  0.4958  0.6029  0.1629
  891MOL0     N20201   7.435   1.287   1.224  0.8368 -0.0677  0.4464
  891MOL0     C20202   6.545   1.340   1.091  0.1359 -0.3270 -0.2217
  891MOL0     C20203   6.429   1.361   1.011 -1.0246 -0.4816 -0.0246
  891MOL0     C20204   6.135   1.451   0.668  0.9818 -0.9227  0.8016
  891MOL0     C20205   6.038   1.450   0.771  0.7086  0.0111 -0.2297
  891MOL0     C20206   5.904   1.470   0.747 -0.2236  0.2174 -0.0150
  891MOL0     C20207   5.861   1.510   0.620 -0.1899 -0.0950  0.7101
  891MOL0     O20208   5.727   1.542   0.592  0.3401 -0.1759 -0.4776
  891MOL0     C20209   5.674   1.470   0.474 -0.6018 -0.0132 -0.4537
  891MOL0     C20210   5.520   1.459   0.466  0.8267  0.0337 -0.8518
  891MOL0     C20211   5.450   1.593   0.508 -0.3729  0.6983  0.0933
  891MOL0     C20212   5.438   1.611   0.667 -1.1366  0.3922 -0.5047
  891MOL0     C20213   5.304   1.651   0.712 -1.1676 -0.4817 -0.4380
  891MOL0     C20214   5.193   1.679   0.754  0.4123  0.3946 -0.6618
  891MOL0     C20215   5.958   1.518   0.518 -0.5380  0.4916 -0.0822
  891MOL0     C20216   6.094   1.488   0.538 -0.0579  0.4926  0.1184
  891MOL0     C20217   6.190   1.500   0.416  0.3568 -0.4365  1.1394
  891MOL0     H20218   6.575   1.459   0.729  2.1871 -0.8121  0.2171
  891MOL0     H20219   6.791   1.376   0.859  0.6024 -2.1114  0.6153
  891MOL0     H20220   6.749   1.547   1.151  2.0326  1.2643  1.7356
  891MOL0     H20221   6.761   1.436   1.294  2.2088  0.0553  1.8729
  891MOL0     H20222   6.988   1.509   1.109 -0.0550 -0.5341  0.4435
  891MOL0     H20223   6.997   1.410   1.255  1.4934  0.5708 -0.2647
  891MOL0     H20224   6.979   1.573   1.403  3.3066 -2.0341 -0.4125
  891MOL0     H20225   6.890   1.685   1.298  2.1744  1.8080 -0.2161
  891MOL0     H20226   7.085   1.696   1.145 -1.1994  1.0214  0.4694
  891MOL0     H20227   7.112   1.767   1.314 -0.1018 -0.2685 -0.0300
  891MOL0     H20228   7.221   1.504   1.214 -0.0506  1.5833 -0.8558
  891MOL0     H20229   7.312   1.660   1.227 -2.7508  3.5766  0.5351
  891MOL0     H20230   7.275   1.653   1.474 -0.4135  0.3461 -0.7329
  891MOL0     H20231   7.189   1.495   1.461 -0.3752 -2.1416 -4.4064
  891MOL0     H20232   7.439   1.520   1.550  0.6435  0.2829 -1.2291
  891MOL0     H20233   7.474   1.517   1.374  0.0424 -2.4043  0.2047
  891MOL0     H20234   7.512   1.316   1.482 -0.2213 -2.3779  1.2735
  891MOL0     H20235   7.341   1.303   1.541 -3.6812  1.4580 -2.8004
  891MOL0     H20236   7.167   1.193   1.391  0.6771 -0.8494 -0.0376
  891MOL0     H20237   7.112   1.063   1.103  1.7099  0.5250  0.9784
  891MOL0     H20238   7.022   1.211   1.139 -0.6101  2.1659 -0.8698
  891MOL0     H20239   7.104   1.318   0.934 -0.1095  0.2773  0.7652
  891MOL0     H20240   7.214   1.183   0.900  2.1054 -0.0694  3.3889
  891MOL0     H20241   6.915   1.191   0.905 -0.2904 -0.0352 -1.1210
  891MOL0     H20242   6.985   1.034   0.893 -1.7630  0.9357  1.8311
  891MOL0     H20243   7.105   1.098   0.680 -0.3861  1.2591 -2.9854
  891MOL0     H20244   7.051   1.262   0.704  0.0788 -0.2134  2.6240
  891MOL0     H20245   7.025   1.142   0.430 -0.9584 -2.5327  1.6528
  891MOL0     H20246   6.935   1.216   0.231  0.8861  1.0367  0.2463
  891MOL0     H20247   6.636   1.496  -0.035  0.4032 -0.3247 -2.0389
  891MOL0     H20248   6.509   1.607  -0.205  0.2571 -1.4354 -0.9991
  891MOL0     H20249   6.088   1.478  -0.262 -0.2659 -0.3285 -3.6056
  891MOL0     H20250   6.077   1.649  -0.236  0.0084  0.5219  0.8254
  891MOL0     H20251   6.165   1.668  -0.490 -4.0172  1.8942 -0.8968
  891MOL0     H20252   6.124   1.495  -0.486 -0.3125 -0.6760  0.1068
  891MOL0     H20253   5.935   1.602  -0.564  0.2993  0.0711  0.0566
  891MOL0     H20254   5.893   1.590  -0.385 -0.9459 -1.7305 -0.4558
  891MOL0     H20255   6.002   1.837  -0.534  0.1182 -0.9965 -0.0957
  891MOL0     H20256   6.004   1.821  -0.359 -0.3452  0.3519  0.8291
  891MOL0     H20257   5.794   1.902  -0.360 -2.4562  1.4281 -1.4830
  891MOL0     H20258   5.748   1.739  -0.434 -0.6809 -0.9359 -0.9991
  891MOL0     H20259   5.659   1.948  -0.541 -1.0381  0.0095 -0.5893
  891MOL0     H20260   5.817   1.982  -0.597  0.6051 -1.4799 -1.5101
  891MOL0     H20261   5.813   1.733  -0.689 -0.0612 -0.0959 -2.8475
  891MOL0     H20262   5.751   1.868  -0.774  1.7008  2.2466  1.0624
  891MOL0     H20263   5.612   1.654  -0.764  0.2371  0.1758  0.5247
  891MOL0     H20264   5.563   1.698  -0.595 -0.1086 -2.1534  0.0266
  891MOL0     H20265   6.146   1.444  -0.037 -1.4372  0.5058 -0.5173
  891MOL0     H20266   6.260   1.350   0.132 -0.4110  2.1229  1.9723
  891MOL0     H20267   6.555   1.303   0.451  0.6672 -0.7580  3.5245
  891MOL0     H20268   6.670   1.234   0.643  2.2780  0.3713  1.0329
  891MOL0     H20269   6.554   1.314   1.196  1.3677  0.1800 -0.1847
  891MOL0     H20270   6.332   1.338   1.055  0.0260 -2.2821  1.4723
  891MOL0     H20271   6.071   1.433   0.873  0.1257  0.1858 -0.0096
  891MOL0     H20272   5.825   1.457   0.821  0.9107 -0.8454  1.0559
  891MOL0     H20273   5.712   1.367   0.477 -0.9158 -0.2127  4.8293
  891MOL0     H20274   5.702   1.514   0.378  0.9936  0.5223  0.2344
  891MOL0     H20275   5.480   1.381   0.532  0.5459  0.5091 -0.4557
  891MOL0     H20276   5.496   1.438   0.361  1.2069  1.5756 -1.2645
  891MOL0     H20277   5.353   1.604   0.456 -0.4029  1.0931  0.2256
  891MOL0     H20278   5.505   1.672   0.456 -1.1434  0.4267 -1.1835
  891MOL0     H20279   5.461   1.519   0.721  0.1451  2.4059  2.6597
  891MOL0     H20280   5.509   1.685   0.705 -1.2980  0.0812  0.4314
  891MOL0     H20281   5.095   1.687   0.797  0.1640 -4.3524  0.2831
  891MOL0     H20282   5.926   1.556   0.422 -2.8503 -1.9853 -0.4346
  891MOL0     H20283   6.264   1.580   0.426  0.2600  0.0548 -1.4090
  891MOL0     H20284   6.235   1.403   0.398 -0.2884 -0.3509 -1.2225
  891MOL0     H20285   6.130   1.520   0.326 -0.5791 -0.1340  1.8074
  892MOL0     O20286  10.793  11.186  10.808 -0.2077 -1.0340  0.8733
  892MOL0     C20287  10.771  11.118  10.707  0.1933 -0.1784 -0.1692
  892MOL0     O20288  10.869  11.074  10.616 -0.3876  0.6729  0.3686
  892MOL0     C20289  10.991  11.135  10.637 -0.3775  0.8724  0.2263
  892MOL0     C20290  11.047  11.230  10.545 -0.5170  0.2697  0.7537
  892MOL0     C20291  11.171  11.289  10.568  0.5555 -0.7158 -0.7702
  892MOL0     C20292  11.240  11.270  10.686 -0.0732  0.8066  0.3166
  892MOL0     O20293  11.355  11.347  10.689 -0.0064 -0.0967 -0.0644
  892MOL0     C20294  11.478  11.292  10.741 -0.4009  0.4684 -0.1164
  892MOL0     C20295  11.563  11.263  10.618  0.1375 -0.0218  0.5401
  892MOL0     C20296  11.708  11.223  10.659 -0.1393  0.5037  0.3926
  892MOL0     C20297  11.796  11.171  10.547  0.1388  0.3687 -0.0502
  892MOL0     C20298  11.944  11.155  10.597  0.3809  0.9168  0.6416
  892MOL0     C20299  12.021  11.048  10.519  1.5802  0.3494  0.1029
  892MOL0     C20300  12.170  11.064  10.536 -0.1854 -0.1192  0.0917
  892MOL0     C20301  12.239  10.944  10.466  0.3016  0.2483  0.6816
  892MOL0     N20302  12.378  10.927  10.510 -0.1012  0.2200 -0.3534
  892MOL0     C20303  12.496  11.008  10.486 -0.2450  0.1408 -0.0407
  892MOL0     C20304  12.604  10.943  10.532 -0.0382 -0.0607  0.6530
  892MOL0     C20305  12.744  11.003  10.518 -0.0623  0.2706  0.1357
  892MOL0     C20306  12.836  10.905  10.435  0.2742 -0.8908 -0.4340
  892MOL0     C20307  12.978  10.960  10.403 -0.9815  0.1599 -0.5237
  892MOL0     C20308  13.082  10.849  10.368  0.4227 -0.7251 -0.0937
  892MOL0     O20309  13.186  10.925  10.318 -0.0539 -0.1633 -0.4052
  892MOL0     C20310  13.298  10.855  10.294  0.8970 -0.2449  0.8083
  892MOL0     C20311  13.401  10.929  10.235 -0.4809  0.2103  0.2970
  892MOL0     C20312  13.523  10.872  10.225  0.5368  0.4963  0.6787
  892MOL0     C20313  13.554  10.739  10.271  0.9556  0.6694  0.0082
  892MOL0     C20314  13.694  10.687  10.266  0.5177  0.8543 -0.1662
  892MOL0     O20315  13.786  10.779  10.216 -0.2218 -0.6677  0.1669
  892MOL0     C20316  13.913  10.726  10.205  0.2570  0.4340  0.1923
  892MOL0     C20317  13.989  10.701  10.319 -0.1203  0.7319  0.3879
  892MOL0     C20318  14.121  10.661  10.310  0.1874  1.1359 -1.0485
  892MOL0     C20319  14.178  10.635  10.188 -0.1692 -0.4437 -0.3890
  892MOL0     O20320  14.293  10.565  10.189 -0.0540 -0.1996 -0.0240
  892MOL0     C20321  14.336  10.511  10.070 -0.0264  0.2177 -0.1793
  892MOL0     C20322  14.470  10.436  10.091 -0.3411  0.0773  0.2440
  892MOL0     C20323  14.515  10.373   9.955  0.1620 -0.8479 -0.7269
  892MOL0     C20324  14.650  10.303   9.976 -0.0597  0.6500 -0.4568
  892MOL0     C20325  14.763  10.397   9.984  0.4947 -0.5292 -0.0630
  892MOL0     C20326  14.906  10.335  10.001  0.2464  0.1967  0.3544
  892MOL0     C20327  15.036  10.423  10.001  0.1391 -0.6758 -0.2998
  892MOL0     C20328  15.073  10.474   9.862  0.5247 -0.5914 -0.3794
  892MOL0    Cl20329  15.242  10.530   9.877 -0.4767  0.1305 -0.3589
  892MOL0     C20330  14.109  10.671  10.076  0.7186 -0.0180  0.2698
  892MOL0     C20331  13.972  10.712  10.079  0.5291  0.1153  0.0064
  892MOL0     O20332  13.719  10.581  10.322 -0.8442  0.4819 -0.0978
  892MOL0     C20333  13.445  10.661  10.311 -0.4537  0.0211  0.6894
  892MOL0     C20334  13.314  10.722  10.329  0.0497  0.0286  0.1526
  892MOL0     N20335  12.565  10.823  10.592 -0.9120  0.1644  0.4178
  892MOL0     N20336  12.433  10.815  10.571  0.4566  0.2549  0.4418
  892MOL0     C20337  11.196  11.165  10.775  0.5693 -0.7545 -0.3011
  892MOL0     C20338  11.072  11.100  10.750  0.1342  0.2906  0.0570
  892MOL0     C20339  10.644  11.053  10.715 -0.0307  0.0943  0.6017
  892MOL0     C20340  10.627  10.927  10.652 -0.2757  0.4743  0.7363
  892MOL0     C20341  10.513  10.853  10.666 -0.4075  0.0717  0.4413
  892MOL0     C20342  10.414  10.901  10.750  0.1867 -0.1226  0.2305
  892MOL0     O20343  10.312  10.827  10.802  0.0199  0.3424 -0.5311
  892MOL0     C20344  10.282  10.701  10.750 -0.4290  0.7456  0.9495
  892MOL0     C20345  10.133  10.651  10.779  0.0766  0.4677 -0.1012
  892MOL0     C20346  10.026  10.676  10.660  0.7281 -1.3212 -0.0243
  892MOL0     C20347   9.884  10.626  10.714 -1.0260 -0.0878 -0.0050
  892MOL0     C20348   9.764  10.650  10.641  0.4347 -0.4659 -0.0710
  892MOL0     C20349   9.660  10.672  10.580  0.0237 -0.8146 -0.4271
  892MOL0     C20350  10.423  11.021  10.810  0.0655  0.1087 -0.6644
  892MOL0     C20351  10.530  11.108  10.788 -0.6758 -0.2413  0.9844
  892MOL0     C20352  10.521  11.247  10.833  0.1004  0.7716 -0.0744
  892MOL0     H20353  10.994  11.250  10.453  0.0916 -0.4034  0.2426
  892MOL0     H20354  11.207  11.364  10.498 -2.0324  1.1077 -0.2778
  892MOL0     H20355  11.527  11.365  10.806  0.2023  0.3932 -0.4792
  892MOL0     H20356  11.470  11.206  10.808 -0.1647  1.0010  0.6041
  892MOL0     H20357  11.566  11.354  10.558 -2.7820  0.0558  0.3950
  892MOL0     H20358  11.513  11.193  10.551 -1.2025  0.0145  1.4613
  892MOL0     H20359  11.693  11.148  10.737 -0.2359  0.8505  0.7083
  892MOL0     H20360  11.756  11.311  10.701  1.0718 -0.7070  1.6494
  892MOL0     H20361  11.756  11.076  10.509 -3.9202  1.8093  0.1655
  892MOL0     H20362  11.795  11.240  10.462 -0.5488  1.3668  0.7555
  892MOL0     H20363  12.010  11.240  10.577  2.3015 -0.8437 -0.9635
  892MOL0     H20364  11.948  11.130  10.704 -1.3274 -2.0148  0.1266
  892MOL0     H20365  11.996  10.952  10.564  1.6713 -0.1773 -0.9337
  892MOL0     H20366  11.998  11.039  10.412 -0.5966 -2.8116  0.6950
  892MOL0     H20367  12.181  11.060  10.645 -2.3017 -1.2631  0.3279
  892MOL0     H20368  12.204  11.160  10.498 -3.8725  1.1469 -0.4211
  892MOL0     H20369  12.194  10.847  10.488 -0.1271 -0.1050 -1.5557
  892MOL0     H20370  12.237  10.953  10.357  0.6129 -1.0534  0.5575
  892MOL0     H20371  12.506  11.101  10.431 -1.4131 -0.9327 -2.2316
  892MOL0     H20372  12.728  11.086  10.449 -0.7491 -0.8322 -1.0815
  892MOL0     H20373  12.787  11.031  10.614  1.6886 -2.0644  0.1373
  892MOL0     H20374  12.853  10.811  10.486 -1.0026 -1.1417 -0.4329
  892MOL0     H20375  12.784  10.881  10.341  1.4689  0.3684 -1.4729
  892MOL0     H20376  13.018  11.012  10.491 -2.5992 -0.1329  0.4206
  892MOL0     H20377  12.962  11.029  10.320 -1.0314  0.7091 -0.0596
  892MOL0     H20378  13.041  10.770  10.304  1.4159 -0.9951 -0.4061
  892MOL0     H20379  13.102  10.805  10.466 -2.0632 -0.8164  0.4385
  892MOL0     H20380  13.389  11.036  10.223 -1.1986  0.1667  0.6070
  892MOL0     H20381  13.607  10.924  10.179  0.5844 -1.5506 -1.8073
  892MOL0     H20382  13.950  10.736  10.414  2.4952  0.2490  1.7162
  892MOL0     H20383  14.176  10.623  10.395 -0.7102 -2.6620 -1.9745
  892MOL0     H20384  14.268  10.439  10.024  1.5795 -3.5433  2.7928
  892MOL0     H20385  14.362  10.596  10.006  1.2540  1.7190  2.1629
  892MOL0     H20386  14.534  10.518  10.122 -0.0950 -0.5239  1.4052
  892MOL0     H20387  14.479  10.356  10.165  2.5015 -0.3447 -0.4579
  892MOL0     H20388  14.435  10.309   9.917 -0.1993 -1.2923  0.7335
  892MOL0     H20389  14.534  10.454   9.884  2.0082 -0.6131 -0.0189
  892MOL0     H20390  14.667  10.245   9.885  3.9274 -1.2351  1.2142
  892MOL0     H20391  14.649  10.235  10.062 -1.4670  0.2544 -0.7621
  892MOL0     H20392  14.732  10.458  10.070 -0.4365  1.4310 -1.7078
  892MOL0     H20393  14.772  10.464   9.898 -1.4576  1.2776  1.0552
  892MOL0     H20394  14.903  10.291  10.101  0.4773  0.6946  0.5863
  892MOL0     H20395  14.924  10.269   9.915  0.6949  1.0747 -0.2383
  892MOL0     H20396  15.108  10.348  10.034  1.4972  1.0215  0.7211
  892MOL0     H20397  15.031  10.510  10.068 -0.8036  1.9861 -3.5441
  892MOL0     H20398  15.057  10.396   9.787 -1.3727 -0.4621 -0.1450
  892MOL0     H20399  15.018  10.565   9.838  1.6045  0.5240  1.2323
  892MOL0     H20400  14.155  10.675   9.978 -3.1426  0.6542 -1.6958
  892MOL0     H20401  13.914  10.736   9.990 -1.1251  1.1768  1.3230
  892MOL0     H20402  13.463  10.557  10.337 -0.7251 -0.9032 -2.4294
  892MOL0     H20403  13.236  10.657  10.366  1.3506 -1.1539  0.8722
  892MOL0     H20404  11.255  11.139  10.862 -0.9352  0.0688  1.0147
  892MOL0     H20405  11.040  11.022  10.818  1.1557  1.2480  1.7024
  892MOL0     H20406  10.710  10.876  10.602 -0.0475  0.7511  0.8301
  892MOL0     H20407  10.512  10.749  10.635  1.2047 -0.2699  1.4024
  892MOL0     H20408  10.353  10.625  10.784 -0.5725 -1.5388 -3.2852
  892MOL0     H20409  10.288  10.704  10.641 -2.9320 -1.9075  0.6149
  892MOL0     H20410  10.098  10.700  10.870  2.7576  0.9199  0.7670
  892MOL0     H20411  10.137  10.543  10.801 -1.3376  0.1548 -1.2205
  892MOL0     H20412  10.057  10.625  10.568 -0.3679  0.4651 -1.4545
  892MOL0     H20413  10.026  10.784  10.642  0.4762 -1.2309  0.5221
  892MOL0     H20414   9.877  10.517  10.720 -0.1163 -0.1634 -0.1665
  892MOL0     H20415   9.874  10.663  10.817  0.6053 -3.4407  1.5171
  892MOL0     H20416   9.562  10.708  10.556  0.0671 -1.0776 -1.0098
  892MOL0     H20417  10.344  11.067  10.870  0.2524 -2.2371  1.5677
  892MOL0     H20418  10.416  11.273  10.853  0.4460  0.6952  2.0678
  892MOL0     H20419  10.581  11.255  10.924 -0.9338 -2.5876  1.0375
  892MOL0     H20420  10.565  11.314  10.759  0.2564  0.1095 -0.5889
  893MOL0     O20421   1.712   5.426   6.174  0.8920  0.2231 -0.3055
  893MOL0     C20422   1.605   5.486   6.181 -0.0920 -0.7343  0.1562
  893MOL0     O20423   1.536   5.539   6.072  0.1266  0.5320  0.2850
  893MOL0     C20424   1.601   5.554   5.949 -0.3960  0.1865 -0.6481
  893MOL0     C20425   1.679   5.669   5.929  0.1122  0.0527 -0.0584
  893MOL0     C20426   1.743   5.694   5.805 -0.1830  0.5567 -0.8780
  893MOL0     C20427   1.746   5.595   5.704  0.6717 -0.8333  0.0112
  893MOL0     O20428   1.811   5.613   5.591  0.0539  0.5401  1.4228
  893MOL0     C20429   1.856   5.744   5.539 -0.7571  0.1091 -1.0902
  893MOL0     C20430   1.899   5.731   5.396  0.2021  0.0677 -0.0014
  893MOL0     C20431   2.053   5.707   5.379 -0.4779 -0.0183  0.5683
  893MOL0     C20432   2.085   5.687   5.230  0.2533 -0.5044 -0.4643
  893MOL0     C20433   2.239   5.656   5.208  0.5438 -0.5251 -0.6485
  893MOL0     C20434   2.266   5.587   5.081 -0.2775  0.6225  0.0361
  893MOL0     C20435   2.257   5.698   4.970  0.3533 -0.0899  0.1183
  893MOL0     C20436   2.266   5.633   4.826  0.3809 -0.6651  0.3077
  893MOL0     N20437   2.378   5.546   4.806 -0.1218 -0.6434  0.0466
  893MOL0     C20438   2.506   5.593   4.784  0.7222  0.1437  0.5362
  893MOL0     C20439   2.584   5.478   4.770  1.1048 -0.0023 -0.0398
  893MOL0     C20440   2.738   5.474   4.763  0.3445  0.0917  0.3323
  893MOL0     C20441   2.808   5.371   4.843  0.1910  0.4542 -0.2471
  893MOL0     C20442   2.785   5.219   4.810 -0.6749 -0.1802 -0.4508
  893MOL0     C20443   2.814   5.185   4.668  0.2597 -0.0726 -0.0177
  893MOL0     O20444   2.957   5.200   4.646  0.8362  0.5599 -0.0270
  893MOL0     C20445   2.993   5.244   4.520  0.6025 -0.4217 -0.0874
  893MOL0     C20446   3.112   5.305   4.509  0.2189 -0.2416 -0.0965
  893MOL0     C20447   3.154   5.353   4.384  0.6816 -0.0409  0.5443
  893MOL0     C20448   3.085   5.326   4.270 -0.2416 -0.7916 -0.8599
  893MOL0     C20449   3.142   5.355   4.137  0.2413  0.2283 -0.4473
  893MOL0     O20450   3.276   5.388   4.135 -0.3325  0.3774 -0.1322
  893MOL0     C20451   3.310   5.445   4.012  1.1829  0.0258  0.8081
  893MOL0     C20452   3.341   5.379   3.890  1.1383 -0.0894 -0.3600
  893MOL0     C20453   3.375   5.454   3.781  0.2450  0.0233  0.6000
  893MOL0     C20454   3.389   5.594   3.779  0.7275  0.2039 -0.0983
  893MOL0     O20455   3.426   5.677   3.678  0.7469 -0.1608  0.9513
  893MOL0     C20456   3.352   5.667   3.550 -0.1904 -0.9023  0.1411
  893MOL0     C20457   3.445   5.605   3.441  0.0097 -0.7427 -0.2743
  893MOL0     C20458   3.396   5.650   3.305 -0.5556 -0.5774 -0.5860
  893MOL0     C20459   3.494   5.595   3.196  0.5012 -0.1227 -0.2265
  893MOL0     C20460   3.439   5.612   3.057  0.1630  0.2220  0.1933
  893MOL0     C20461   3.483   5.510   2.952  0.0137 -0.2658 -0.1167
  893MOL0     C20462   3.626   5.540   2.911  0.3442 -0.2745  0.2832
  893MOL0     C20463   3.651   5.440   2.790  0.2313 -0.4858  0.4651
  893MOL0    Cl20464   3.686   5.275   2.837 -0.0697 -0.5122  0.1025
  893MOL0     C20465   3.357   5.655   3.899  0.7481 -0.4791  0.0448
  893MOL0     C20466   3.322   5.584   4.013 -0.2321  0.4170  0.6809
  893MOL0     O20467   3.069   5.336   4.045  0.2333  0.1465  0.2330
  893MOL0     C20468   2.965   5.248   4.282 -0.3370  0.4768  0.5249
  893MOL0     C20469   2.913   5.223   4.405  0.3945 -0.1346 -0.2419
  893MOL0     N20470   2.499   5.363   4.800 -0.8877  0.0904  0.4240
  893MOL0     N20471   2.376   5.410   4.818  0.0938 -0.6759  0.8662
  893MOL0     C20472   1.685   5.472   5.734 -0.1784  0.3607 -0.1398
  893MOL0     C20473   1.605   5.453   5.844  0.2480 -0.4613 -0.4879
  893MOL0     C20474   1.539   5.511   6.316  0.7360 -0.2056 -0.7032
  893MOL0     C20475   1.422   5.594   6.317  1.0211  1.2924 -0.5261
  893MOL0     C20476   1.338   5.607   6.426  0.7942  0.0734  0.5647
  893MOL0     C20477   1.373   5.548   6.557  0.3640 -0.5621  0.0042
  893MOL0     O20478   1.295   5.565   6.669  0.4263 -0.3944 -0.1999
  893MOL0     C20479   1.169   5.632   6.665  0.0293  0.2571 -0.4793
  893MOL0     C20480   1.103   5.612   6.801 -0.1923  0.4429 -0.4329
  893MOL0     C20481   1.089   5.470   6.862 -0.2596  0.5743 -0.4073
  893MOL0     C20482   0.989   5.463   6.980 -0.0014 -0.5005 -0.5225
  893MOL0     C20483   0.980   5.327   7.017  0.2234 -0.4680 -0.7698
  893MOL0     C20484   0.974   5.211   7.037 -0.9396 -0.0129  0.5152
  893MOL0     C20485   1.495   5.475   6.561  1.1472  0.5327  0.4237
  893MOL0     C20486   1.574   5.446   6.445  1.1767 -0.3362  0.4391
  893MOL0     C20487   1.671   5.341   6.448 -0.1458  0.4008  0.3684
  893MOL0     H20488   1.670   5.743   6.008 -1.9513 -1.5490  1.3180
  893MOL0     H20489   1.805   5.781   5.784  1.5667 -0.8033 -1.6023
  893MOL0     H20490   1.779   5.822   5.545 -0.0016  0.7684  0.8924
  893MOL0     H20491   1.947   5.772   5.592 -2.3958  1.1031  1.4019
  893MOL0     H20492   1.875   5.832   5.359 -1.6697 -0.3046  0.0674
  893MOL0     H20493   1.835   5.661   5.341  1.3074 -1.2912  0.3925
  893MOL0     H20494   2.088   5.619   5.435  2.6702  1.1146  0.5358
  893MOL0     H20495   2.110   5.793   5.415 -1.1988  1.3589 -1.4250
  893MOL0     H20496   2.028   5.604   5.187 -3.0599  1.5420 -0.4569
  893MOL0     H20497   2.045   5.771   5.172  0.7727  0.3666  0.4093
  893MOL0     H20498   2.303   5.745   5.214 -0.0373 -0.1664  0.4723
  893MOL0     H20499   2.269   5.597   5.295  2.3777  3.5018  1.7398
  893MOL0     H20500   2.364   5.537   5.085 -1.4018 -1.6425  1.1255
  893MOL0     H20501   2.199   5.502   5.066  2.3124 -1.4840 -0.3669
  893MOL0     H20502   2.330   5.777   4.989 -0.5149  0.1848  2.5918
  893MOL0     H20503   2.160   5.745   4.986 -0.0039 -1.2977  1.7137
  893MOL0     H20504   2.172   5.578   4.820  0.5424 -0.8258 -1.1290
  893MOL0     H20505   2.277   5.716   4.756 -1.1088  0.3300  1.1950
  893MOL0     H20506   2.533   5.696   4.763 -2.7866  1.1955  0.5491
  893MOL0     H20507   2.773   5.475   4.660  0.8424 -0.0865  0.4984
  893MOL0     H20508   2.784   5.564   4.805  2.7944 -0.2823 -1.3557
  893MOL0     H20509   2.916   5.387   4.832 -0.0817  1.1689 -2.1658
  893MOL0     H20510   2.777   5.386   4.947 -0.7227 -0.9866 -0.2827
  893MOL0     H20511   2.685   5.185   4.840 -0.0271 -1.0708  0.8121
  893MOL0     H20512   2.855   5.157   4.867  0.5506  1.3558 -0.2033
  893MOL0     H20513   2.750   5.245   4.603  0.3969  0.4059  0.2812
  893MOL0     H20514   2.798   5.080   4.646 -0.2307  0.8013 -4.9808
  893MOL0     H20515   3.181   5.327   4.590 -1.4158 -0.1370  1.3433
  893MOL0     H20516   3.251   5.400   4.378  1.7640 -1.6859  3.5391
  893MOL0     H20517   3.320   5.274   3.880 -4.6465  0.8311 -1.2322
  893MOL0     H20518   3.419   5.404   3.695  0.1250  0.5096  0.2527
  893MOL0     H20519   3.269   5.598   3.563 -0.3893 -0.6342  0.3096
  893MOL0     H20520   3.315   5.768   3.527 -1.0899 -1.1352  0.5339
  893MOL0     H20521   3.545   5.649   3.447 -0.1779 -0.2694 -0.5835
  893MOL0     H20522   3.451   5.496   3.452  0.9239 -0.6717  0.0737
  893MOL0     H20523   3.293   5.616   3.289 -0.1888 -0.8777 -2.7054
  893MOL0     H20524   3.399   5.759   3.295  0.1037 -0.1834  2.7830
  893MOL0     H20525   3.510   5.489   3.215  1.6936  0.1003  0.1055
  893MOL0     H20526   3.594   5.638   3.201 -0.2455  2.2081 -2.4666
  893MOL0     H20527   3.453   5.715   3.021  1.6020  0.0757  0.3048
  893MOL0     H20528   3.332   5.593   3.071 -0.2786  1.4771 -1.1070
  893MOL0     H20529   3.480   5.407   2.987  2.3760 -0.3789 -0.0404
  893MOL0     H20530   3.412   5.507   2.869 -0.3745  2.3946  0.0167
  893MOL0     H20531   3.692   5.530   2.997  0.3924  0.0153  0.2806
  893MOL0     H20532   3.637   5.643   2.877 -1.2905  0.1937  1.0536
  893MOL0     H20533   3.564   5.427   2.725  0.5109  0.3285 -0.0923
  893MOL0     H20534   3.737   5.467   2.728  1.1036 -3.7088  0.1075
  893MOL0     H20535   3.372   5.762   3.912  5.0665 -1.0630  1.7091
  893MOL0     H20536   3.296   5.647   4.098 -2.5507 -0.4321  0.6683
  893MOL0     H20537   2.919   5.208   4.191  1.8295 -2.9797  0.7728
  893MOL0     H20538   2.825   5.160   4.417  1.8302 -2.2712 -0.3767
  893MOL0     H20539   1.689   5.397   5.656  1.6833  3.0269 -2.8494
  893MOL0     H20540   1.549   5.361   5.858 -0.1430 -0.3188 -1.0438
  893MOL0     H20541   1.389   5.628   6.220 -0.5430 -0.9570 -0.8436
  893MOL0     H20542   1.247   5.663   6.409  1.9339  1.5300 -0.9648
  893MOL0     H20543   1.122   5.570   6.588  1.8569  0.1238 -1.5360
  893MOL0     H20544   1.166   5.739   6.642 -2.6438  0.4457  0.4325
  893MOL0     H20545   1.010   5.666   6.782 -1.0225 -1.0578 -0.7908
  893MOL0     H20546   1.170   5.658   6.874  0.7978 -1.7113  0.1043
  893MOL0     H20547   1.189   5.442   6.896  0.0461  2.8708  0.7508
  893MOL0     H20548   1.049   5.408   6.781  1.2196  0.5215 -1.1274
  893MOL0     H20549   1.022   5.535   7.057  0.9591 -0.8604 -0.5867
  893MOL0     H20550   0.893   5.496   6.940  0.2227 -1.4675 -1.9255
  893MOL0     H20551   0.974   5.104   7.042  0.2055 -0.1446 -1.3370
  893MOL0     H20552   1.527   5.430   6.655 -0.2990 -0.1240  0.6235
  893MOL0     H20553   1.658   5.270   6.530  2.9271 -3.0206 -1.7596
  893MOL0     H20554   1.658   5.276   6.361 -1.0861  0.4105  0.4938
  893MOL0     H20555   1.775   5.373   6.459 -0.5139  1.2629  1.5303
  894MOL0     O20556  10.877   8.007   3.560 -0.2076  0.2597  0.0820
  894MOL0     C20557  10.825   8.113   3.565  0.3395  0.3103  0.0637
  894MOL0     O20558  10.877   8.230   3.526 -0.9203  0.1382  0.1823
  894MOL0     C20559  11.016   8.239   3.508  0.0599  0.2815  0.9149
  894MOL0     C20560  11.059   8.296   3.381  0.5681  0.0549 -0.8036
  894MOL0     C20561  11.194   8.335   3.363  0.7286 -0.0254  0.4045
  894MOL0     C20562  11.289   8.303   3.461  0.1672  0.5001 -0.1069
  894MOL0     O20563  11.417   8.345   3.431  0.3571  0.0620 -0.2597
  894MOL0     C20564  11.517   8.316   3.529 -0.1056 -0.1786  1.0539
  894MOL0     C20565  11.654   8.361   3.480 -0.0045  0.3000  0.4675
  894MOL0     C20566  11.689   8.484   3.563 -0.1428  0.0933 -0.1384
  894MOL0     C20567  11.830   8.533   3.538  0.5827  0.6380  0.0113
  894MOL0     C20568  11.865   8.667   3.601 -0.3107 -0.4793  0.2561
  894MOL0     C20569  12.007   8.704   3.573 -0.3890  0.2635  0.1320
  894MOL0     C20570  12.051   8.849   3.594  0.1096 -0.2322  0.7082
  894MOL0     C20571  12.033   8.901   3.743 -0.8582  0.9621  0.3612
  894MOL0     N20572  12.138   8.836   3.823 -0.3001  0.1015 -0.5880
  894MOL0     C20573  12.259   8.900   3.827  0.5647  0.4090  0.9338
  894MOL0     C20574  12.323   8.821   3.915  0.0264 -0.3345  0.1874
  894MOL0     C20575  12.466   8.829   3.947 -0.4595  0.0153  0.0680
  894MOL0     C20576  12.480   8.921   4.065 -0.6541 -0.0477  0.2883
  894MOL0     C20577  12.629   8.914   4.107  0.8755 -0.1307  0.1371
  894MOL0     C20578  12.654   8.967   4.247 -1.1752  0.3487  0.1762
  894MOL0     O20579  12.760   8.871   4.304  0.0170 -0.5998 -0.2135
  894MOL0     C20580  12.899   8.891   4.302  0.0429  0.1999 -0.4623
  894MOL0     C20581  12.976   8.798   4.379 -0.2512 -0.3516 -1.1688
  894MOL0     C20582  13.111   8.826   4.389  0.5486 -0.1962  0.0130
  894MOL0     C20583  13.180   8.913   4.298 -1.2634  0.1312  0.1406
  894MOL0     C20584  13.326   8.918   4.289 -0.0965 -0.6013  0.2321
  894MOL0     O20585  13.388   9.019   4.220  0.0982  0.7737 -0.1808
  894MOL0     C20586  13.520   9.051   4.223  0.6725 -0.3500  0.2230
  894MOL0     C20587  13.560   9.145   4.129  0.0979  0.0767  1.0778
  894MOL0     C20588  13.697   9.188   4.127  0.2450  0.9310 -1.0154
  894MOL0     C20589  13.796   9.132   4.213  0.4173  0.1263 -0.1553
  894MOL0     O20590  13.922   9.185   4.198 -0.8891 -0.0105 -0.2491
  894MOL0     C20591  14.023   9.132   4.284 -0.3780  0.5022  0.5233
  894MOL0     C20592  14.152   9.194   4.246 -0.1464  0.3918  0.3523
  894MOL0     C20593  14.150   9.343   4.266 -0.4053 -0.3850  0.0513
  894MOL0     C20594  14.274   9.410   4.208 -1.1085  0.9935 -0.5783
  894MOL0     C20595  14.276   9.557   4.231  0.0700 -0.4194  0.0849
  894MOL0     C20596  14.358   9.596   4.353 -0.1188  0.5073  0.5283
  894MOL0     C20597  14.376   9.749   4.363 -0.3869  1.0353 -0.0891
  894MOL0     C20598  14.481   9.802   4.459  0.5108  0.4812 -0.7600
  894MOL0    Cl20599  14.653   9.752   4.421  0.2381  0.5277  0.2837
  894MOL0     C20600  13.751   9.033   4.307  0.1208 -0.5440  0.4649
  894MOL0     C20601  13.617   8.994   4.308  0.0485 -0.1086  0.6251
  894MOL0     O20602  13.382   8.825   4.346 -0.1286  0.0273 -0.2287
  894MOL0     C20603  13.102   8.989   4.209 -0.3327  0.2787  0.6184
  894MOL0     C20604  12.967   8.982   4.222 -0.1476 -0.6372  0.6196
  894MOL0     N20605  12.240   8.725   3.970  0.4474 -0.5847  0.2715
  894MOL0     N20606  12.124   8.732   3.909  0.3672  0.2461 -0.2986
  894MOL0     C20607  11.248   8.233   3.574 -0.1795  0.1204  0.5729
  894MOL0     C20608  11.114   8.215   3.602 -0.4300  0.0557  0.2334
  894MOL0     C20609  10.687   8.108   3.618  0.0089  0.1421  0.0252
  894MOL0     C20610  10.599   8.020   3.552 -0.5041  1.3704 -0.0692
  894MOL0     C20611  10.464   8.016   3.594  0.1306  0.4813  0.0898
  894MOL0     C20612  10.422   8.088   3.702 -0.0358  0.3645 -0.9987
  894MOL0     O20613  10.294   8.073   3.736 -0.9186 -0.2078  0.0681
  894MOL0     C20614  10.220   8.153   3.831  0.4444 -0.5399  0.1374
  894MOL0     C20615  10.181   8.304   3.807 -0.1735 -0.5282  0.6883
  894MOL0     C20616  10.142   8.342   3.661 -0.3367  0.1230  0.3015
  894MOL0     C20617   9.994   8.336   3.633  0.3364  1.1317 -0.3615
  894MOL0     C20618   9.966   8.189   3.613 -0.2287  0.2801 -0.8392
  894MOL0     C20619   9.937   8.073   3.603  0.4929  1.1973 -0.0318
  894MOL0     C20620  10.507   8.179   3.762 -0.5674 -0.4876  0.2935
  894MOL0     C20621  10.637   8.190   3.713 -0.2191 -0.3857 -0.7940
  894MOL0     C20622  10.726   8.292   3.791 -0.2089  0.4542 -0.0414
  894MOL0     H20623  10.988   8.321   3.304  1.6175  0.6323 -1.6037
  894MOL0     H20624  11.233   8.380   3.272  2.0425 -1.8181  0.0137
  894MOL0     H20625  11.500   8.366   3.625 -0.3852  0.3261  0.7449
  894MOL0     H20626  11.521   8.208   3.541  1.5344 -0.0555  1.8692
  894MOL0     H20627  11.649   8.389   3.374  3.9537  0.8667  0.2921
  894MOL0     H20628  11.728   8.283   3.500  0.1573  0.4255  0.3614
  894MOL0     H20629  11.673   8.461   3.669  0.1201  1.3596  0.1892
  894MOL0     H20630  11.627   8.572   3.546 -0.4674 -0.2508 -0.7592
  894MOL0     H20631  11.902   8.463   3.583  0.5617  0.4933 -0.1752
  894MOL0     H20632  11.854   8.546   3.432 -1.5074  0.8477 -0.4874
  894MOL0     H20633  11.804   8.741   3.548 -0.7213 -0.6397  0.4974
  894MOL0     H20634  11.839   8.659   3.707 -5.6033  3.7829 -0.2459
  894MOL0     H20635  12.076   8.635   3.623 -1.0229 -0.9267 -0.5785
  894MOL0     H20636  12.031   8.694   3.466 -2.5464  1.3046 -0.5100
  894MOL0     H20637  11.981   8.905   3.532 -1.7428 -0.9112  2.1046
  894MOL0     H20638  12.152   8.875   3.560  0.0343  0.6330  1.1080
  894MOL0     H20639  12.045   9.009   3.750 -0.6889  0.8756  1.6708
  894MOL0     H20640  11.931   8.881   3.778 -0.2672 -0.4604  1.3782
  894MOL0     H20641  12.295   8.985   3.770  1.4623  0.0182  0.8854
  894MOL0     H20642  12.501   8.734   3.990 -0.6205 -0.6858 -1.3072
  894MOL0     H20643  12.531   8.857   3.865 -0.4607 -4.2494 -1.6564
  894MOL0     H20644  12.455   9.022   4.033 -2.8500  0.0543  2.0841
  894MOL0     H20645  12.408   8.894   4.142 -1.2821  0.7373 -0.0164
  894MOL0     H20646  12.693   8.954   4.028  3.5321  0.5477  2.4754
  894MOL0     H20647  12.649   8.806   4.115 -0.2358 -0.4790 -1.3765
  894MOL0     H20648  12.573   8.953   4.318 -0.2320 -0.0019  1.2134
  894MOL0     H20649  12.692   9.070   4.240  1.6056 -0.5131  1.1147
  894MOL0     H20650  12.932   8.718   4.438 -0.2398 -0.7379 -1.6698
  894MOL0     H20651  13.165   8.750   4.446  0.8246 -1.1894 -1.4952
  894MOL0     H20652  13.488   9.187   4.060  1.0817  2.5446  1.4469
  894MOL0     H20653  13.737   9.260   4.056  1.7095 -0.4744 -1.6878
  894MOL0     H20654  13.996   9.167   4.384 -0.2089  2.3079 -0.0330
  894MOL0     H20655  14.027   9.022   4.287  1.0977  0.5597  2.4460
  894MOL0     H20656  14.229   9.150   4.310 -0.3928  0.8796  0.9970
  894MOL0     H20657  14.167   9.160   4.143  0.9043  1.6908  0.0377
  894MOL0     H20658  14.066   9.389   4.214  0.4597 -1.2064 -2.2120
  894MOL0     H20659  14.129   9.348   4.373 -2.2727  0.5306 -0.3282
  894MOL0     H20660  14.279   9.391   4.100  0.6339 -0.5388 -0.2758
  894MOL0     H20661  14.362   9.359   4.247 -2.7195 -3.6903 -2.3551
  894MOL0     H20662  14.172   9.592   4.236 -1.0186 -2.5977 -3.3660
  894MOL0     H20663  14.331   9.598   4.146  2.7771 -0.3051  1.7810
  894MOL0     H20664  14.307   9.562   4.443 -0.9171 -0.7481 -0.3548
  894MOL0     H20665  14.456   9.550   4.335  0.1727  0.9452  0.9888
  894MOL0     H20666  14.280   9.793   4.393 -2.0503 -1.2889 -1.6074
  894MOL0     H20667  14.391   9.790   4.263  0.5650 -1.0947 -0.8833
  894MOL0     H20668  14.479   9.911   4.452  1.5344  0.6539  0.9299
  894MOL0     H20669  14.461   9.771   4.562  1.9074 -1.9017 -1.1386
  894MOL0     H20670  13.827   8.985   4.367  0.3611  1.5002  1.9127
  894MOL0     H20671  13.593   8.920   4.384 -2.2495 -1.8467 -1.6137
  894MOL0     H20672  13.153   9.053   4.138 -0.7585  1.8237  1.6687
  894MOL0     H20673  12.905   9.043   4.157  0.9165 -0.2415 -0.0626
  894MOL0     H20674  11.320   8.206   3.650 -1.7827 -2.7212  1.2240
  894MOL0     H20675  11.086   8.163   3.693  0.4159 -0.1343  0.3965
  894MOL0     H20676  10.636   7.960   3.469 -1.1032 -0.3372  0.8428
  894MOL0     H20677  10.389   7.950   3.550 -0.1773 -0.0442  1.3392
  894MOL0     H20678  10.281   8.158   3.921  3.1646  0.8876 -1.6642
  894MOL0     H20679  10.123   8.104   3.842  0.2203 -0.0011  0.6313
  894MOL0     H20680  10.264   8.363   3.847 -1.0673  0.1793  1.5385
  894MOL0     H20681  10.100   8.326   3.876  1.7966  1.2812  2.5543
  894MOL0     H20682  10.196   8.281   3.589 -1.5083  1.2681 -1.6241
  894MOL0     H20683  10.176   8.446   3.653 -0.8441  0.1692 -1.6015
  894MOL0     H20684   9.932   8.376   3.713 -0.5623  1.6915 -1.3099
  894MOL0     H20685   9.980   8.399   3.545  1.2171  0.6361 -0.8794
  894MOL0     H20686   9.902   7.973   3.586  1.6754  0.6688  0.5411
  894MOL0     H20687  10.478   8.262   3.825  3.6506  1.4895 -0.0169
  894MOL0     H20688  10.831   8.263   3.792 -0.0834  0.7952 -1.3250
  894MOL0     H20689  10.716   8.387   3.737 -0.3770  1.1216  1.1270
  894MOL0     H20690  10.699   8.312   3.895 -0.0294 -2.3471  0.6373
  895MOL0     O20691   8.280  10.569   1.228  0.2234  0.3092  0.0737
  895MOL0     C20692   8.201  10.587   1.319 -0.0772 -0.2770  0.9124
  895MOL0     O20693   8.231  10.599   1.454  0.2142 -0.5516 -0.6101
  895MOL0     C20694   8.353  10.613   1.513  0.7325 -0.4032 -0.1599
  895MOL0     C20695   8.467  10.583   1.445 -0.9826  0.3585  0.5834
  895MOL0     C20696   8.590  10.598   1.502  0.6837  0.1111  0.1754
  895MOL0     C20697   8.596  10.660   1.627 -0.1345  0.8361  0.9028
  895MOL0     O20698   8.710  10.678   1.692 -0.5214  0.0746 -0.4579
  895MOL0     C20699   8.835  10.661   1.629 -0.3293 -0.0375  0.4571
  895MOL0     C20700   8.959  10.682   1.716  0.1367  0.4587  0.4454
  895MOL0     C20701   9.084  10.678   1.639 -0.7500 -1.0340  0.0902
  895MOL0     C20702   9.199  10.719   1.722  0.4866  0.6322 -0.5262
  895MOL0     C20703   9.323  10.759   1.643  0.0593 -0.2125 -0.8512
  895MOL0     C20704   9.437  10.801   1.735 -0.8531 -0.5630  0.1964
  895MOL0     C20705   9.575  10.838   1.662  0.2407 -0.4368  0.0475
  895MOL0     C20706   9.677  10.724   1.634  0.5004 -0.3661  0.4401
  895MOL0     N20707   9.797  10.761   1.562 -0.2397 -0.0656  0.6141
  895MOL0     C20708   9.842  10.704   1.446  0.6145 -0.3244 -0.0389
  895MOL0     C20709   9.946  10.776   1.401  0.2748 -0.1833  0.1360
  895MOL0     C20710  10.031  10.740   1.284 -0.0456  0.3130  0.0182
  895MOL0     C20711  10.164  10.683   1.335  0.3250  0.1999 -0.1603
  895MOL0     C20712  10.265  10.793   1.337  0.5920 -0.1906 -0.2270
  895MOL0     C20713  10.404  10.728   1.367  0.2464  0.2017  0.2878
  895MOL0     O20714  10.503  10.837   1.392  0.5663 -0.2897 -0.5870
  895MOL0     C20715  10.626  10.819   1.335  0.1175 -0.1575 -0.5711
  895MOL0     C20716  10.712  10.929   1.348  1.3097 -0.0091 -0.8141
  895MOL0     C20717  10.844  10.925   1.293  0.7767  0.0347  0.1163
  895MOL0     C20718  10.892  10.810   1.237 -0.1572  0.2407 -0.1111
  895MOL0     C20719  11.037  10.803   1.189 -0.1269 -0.5645 -0.7818
  895MOL0     O20720  11.110  10.919   1.182 -0.2400 -0.2244 -0.8553
  895MOL0     C20721  11.236  10.913   1.131 -0.0830  0.3247 -0.3406
  895MOL0     C20722  11.340  10.853   1.206  0.7464  0.4676  0.5449
  895MOL0     C20723  11.467  10.867   1.160 -0.6804  0.4720 -0.1896
  895MOL0     C20724  11.499  10.922   1.036  0.0422  0.4987  0.6354
  895MOL0     O20725  11.629  10.932   0.990 -0.4800  0.2862 -0.0367
  895MOL0     C20726  11.646  10.925   0.843  0.4563 -0.3742 -1.0618
  895MOL0     C20727  11.805  10.929   0.814 -0.1944  0.3984 -0.4819
  895MOL0     C20728  11.859  10.795   0.750  0.0523 -0.4606 -0.0979
  895MOL0     C20729  12.013  10.797   0.733  0.6623  0.8575  0.4583
  895MOL0     C20730  12.073  10.656   0.743 -0.7686  0.0527  0.1879
  895MOL0     C20731  12.224  10.664   0.752 -0.6055  0.6632  0.4270
  895MOL0     C20732  12.270  10.714   0.891  0.1727  0.5327  0.3859
  895MOL0     C20733  12.326  10.861   0.902 -0.0260 -0.0692 -0.1810
  895MOL0    Cl20734  12.307  10.919   1.069 -0.5628  0.1350  0.1914
  895MOL0     C20735  11.393  10.965   0.960  0.5659  0.1741 -0.3956
  895MOL0     C20736  11.263  10.979   1.014  0.1175  0.5723  0.1749
  895MOL0     O20737  11.074  10.693   1.160 -0.8473 -0.8612 -0.1898
  895MOL0     C20738  10.807  10.696   1.235 -0.7478 -0.6138 -0.0196
  895MOL0     C20739  10.678  10.704   1.284  0.5771 -0.4064 -0.3260
  895MOL0     N20740   9.961  10.878   1.486 -0.4423  0.2722  0.4444
  895MOL0     N20741   9.879  10.869   1.586 -0.1193  0.3087 -0.6354
  895MOL0     C20742   8.481  10.680   1.703  0.2243 -0.9003  0.5606
  895MOL0     C20743   8.358  10.655   1.649  0.6240  0.0822  0.6080
  895MOL0     C20744   8.060  10.620   1.274  0.0347 -0.7090 -0.1896
  895MOL0     C20745   7.997  10.566   1.155  0.2175 -0.8130  0.1087
  895MOL0     C20746   7.866  10.600   1.109 -0.1310  0.2001  0.2111
  895MOL0     C20747   7.790  10.684   1.192  0.7321 -0.0460 -0.0831
  895MOL0     O20748   7.661  10.718   1.163 -0.1390  0.3326 -0.1172
  895MOL0     C20749   7.595  10.665   1.054  0.4529  0.6144 -0.2501
  895MOL0     C20750   7.452  10.728   1.037  0.0648 -0.5724 -0.0810
  895MOL0     C20751   7.355  10.673   1.138  0.5840  0.0157  0.5628
  895MOL0     C20752   7.227  10.751   1.114  0.8765 -0.4870  0.1674
  895MOL0     C20753   7.137  10.741   1.229  0.0300 -0.5108  0.5486
  895MOL0     C20754   7.068  10.738   1.325 -0.6894 -0.0406 -0.1795
  895MOL0     C20755   7.844  10.749   1.301  0.2747  1.0739  0.2972
  895MOL0     C20756   7.972  10.716   1.341 -0.2431  0.0620 -0.4478
  895MOL0     C20757   8.030  10.808   1.437  0.4935  0.1199  0.1737
  895MOL0     H20758   8.465  10.543   1.344  0.1794 -0.7123  0.9566
  895MOL0     H20759   8.676  10.571   1.440  1.3587  0.3774  0.9746
  895MOL0     H20760   8.845  10.560   1.589 -0.2117  0.4803 -0.8858
  895MOL0     H20761   8.845  10.739   1.553  2.3390  1.2664  2.0004
  895MOL0     H20762   8.969  10.606   1.794 -1.1505 -1.2258 -0.9627
  895MOL0     H20763   8.945  10.776   1.771 -1.3893  0.5728 -0.0989
  895MOL0     H20764   9.082  10.756   1.563 -0.1293  0.3346  1.4231
  895MOL0     H20765   9.108  10.581   1.593 -2.3547 -0.7652 -1.4268
  895MOL0     H20766   9.179  10.803   1.789  2.8057 -0.3344  1.5042
  895MOL0     H20767   9.213  10.630   1.784 -1.9056  0.0903 -0.6466
  895MOL0     H20768   9.347  10.671   1.583 -3.3919  0.0863 -2.9014
  895MOL0     H20769   9.288  10.836   1.574 -1.1587  0.5442  0.5590
  895MOL0     H20770   9.414  10.892   1.790 -0.5670  0.4574 -1.3323
  895MOL0     H20771   9.460  10.724   1.810 -0.5410 -2.6495 -1.9262
  895MOL0     H20772   9.628  10.912   1.723  2.2187 -2.3283  0.7591
  895MOL0     H20773   9.551  10.881   1.565  1.7531  0.3730  0.0053
  895MOL0     H20774   9.703  10.673   1.727 -2.5368 -4.6427 -0.7425
  895MOL0     H20775   9.629  10.640   1.582  1.7620 -1.0708  0.3691
  895MOL0     H20776   9.789  10.616   1.410  2.1583 -1.6881  0.8895
  895MOL0     H20777   9.977  10.674   1.215  0.2948  0.7046 -0.6355
  895MOL0     H20778  10.055  10.828   1.224  0.1100 -1.3198 -2.4880
  895MOL0     H20779  10.156  10.628   1.429 -2.7748 -1.8757 -1.4757
  895MOL0     H20780  10.194  10.606   1.263 -0.5108 -0.5972  0.3261
  895MOL0     H20781  10.248  10.862   1.420  2.0724  0.6757 -0.6171
  895MOL0     H20782  10.274  10.859   1.251  1.8033  0.7220  0.5719
  895MOL0     H20783  10.428  10.673   1.276 -0.6827  2.7576 -1.6336
  895MOL0     H20784  10.388  10.668   1.457 -0.9432  1.4785  0.9881
  895MOL0     H20785  10.682  11.015   1.407 -0.6570 -1.0040 -0.2775
  895MOL0     H20786  10.911  11.010   1.293  2.3011 -1.1336  0.5235
  895MOL0     H20787  11.312  10.794   1.292 -0.2045 -1.1522 -0.8189
  895MOL0     H20788  11.546  10.815   1.212 -0.6369  1.6963  1.0240
  895MOL0     H20789  11.587  10.845   0.799 -2.3209  1.4347 -0.8424
  895MOL0     H20790  11.606  11.016   0.799 -0.2762 -0.1455  0.0348
  895MOL0     H20791  11.836  11.013   0.751  4.0721 -2.3527 -2.5557
  895MOL0     H20792  11.858  10.936   0.910  0.3734 -2.6516 -0.4855
  895MOL0     H20793  11.814  10.713   0.806 -0.6026 -0.5633 -0.7481
  895MOL0     H20794  11.803  10.791   0.656 -0.1371 -0.9921  0.0345
  895MOL0     H20795  12.064  10.864   0.803 -1.6857  2.2531  0.9488
  895MOL0     H20796  12.042  10.838   0.636  1.5571  0.7835  0.6824
  895MOL0     H20797  12.049  10.607   0.649 -4.4647  0.2167  0.9007
  895MOL0     H20798  12.028  10.589   0.817  1.6525 -2.0368 -0.0738
  895MOL0     H20799  12.259  10.562   0.737  0.9328  1.1532  0.5243
  895MOL0     H20800  12.269  10.716   0.667 -0.3294  1.2479  0.9228
  895MOL0     H20801  12.355  10.648   0.911 -0.2504  0.0825  0.7383
  895MOL0     H20802  12.197  10.698   0.971  1.2804  1.7549  1.7001
  895MOL0     H20803  12.432  10.867   0.875 -0.2438 -1.7492 -1.5691
  895MOL0     H20804  12.263  10.914   0.829 -1.9517  2.0114  2.7729
  895MOL0     H20805  11.409  11.014   0.864 -0.2931 -3.0856 -2.3810
  895MOL0     H20806  11.189  11.049   0.978 -0.9757 -0.1723  0.9080
  895MOL0     H20807  10.852  10.602   1.204  0.2230 -0.1317 -0.0865
  895MOL0     H20808  10.615  10.615   1.287 -0.1160  0.0924  1.4247
  895MOL0     H20809   8.492  10.726   1.800  1.5724  1.9725 -0.8407
  895MOL0     H20810   8.264  10.673   1.701  1.3349  0.8249  1.6696
  895MOL0     H20811   8.059  10.494   1.102  0.4463 -2.7598  2.7779
  895MOL0     H20812   7.817  10.543   1.031  1.5702 -1.7936  0.5029
  895MOL0     H20813   7.583  10.559   1.079 -1.6102  0.5547 -1.2670
  895MOL0     H20814   7.655  10.691   0.966  2.4276 -1.9302  0.2186
  895MOL0     H20815   7.418  10.710   0.935  1.0097 -1.0039 -0.3338
  895MOL0     H20816   7.465  10.837   1.038  1.7192 -0.5193 -4.6215
  895MOL0     H20817   7.382  10.700   1.241  1.1527 -0.8084  0.6367
  895MOL0     H20818   7.335  10.566   1.135 -0.2589  0.1922 -0.5721
  895MOL0     H20819   7.255  10.857   1.103 -0.7855 -0.0503 -0.0762
  895MOL0     H20820   7.184  10.717   1.019  1.8362 -1.0102 -0.0943
  895MOL0     H20821   6.993  10.740   1.401 -1.4970  0.3662 -0.9740
  895MOL0     H20822   7.781  10.812   1.363  1.1263  0.1006  2.2516
  895MOL0     H20823   7.966  10.895   1.418 -0.0755 -0.2606  0.3083
  895MOL0     H20824   8.020  10.770   1.539 -1.3021  1.1616  0.4238
  895MOL0     H20825   8.130  10.831   1.399 -1.2541  2.6053 -3.5473
  896MOL0     O20826   1.307   4.783   1.234  0.1401  0.1789  1.1886
  896MOL0     C20827   1.250   4.690   1.172 -0.4133  0.5063  0.1540
  896MOL0     O20828   1.311   4.597   1.094  0.1222  0.2071  0.1575
  896MOL0     C20829   1.447   4.601   1.100  0.2766 -0.1399 -0.3279
  896MOL0     C20830   1.526   4.561   1.211  0.5737 -0.5308 -0.5404
  896MOL0     C20831   1.662   4.572   1.196 -0.6003  0.0129  0.0708
  896MOL0     C20832   1.725   4.638   1.099 -0.0238 -0.1455  1.0065
  896MOL0     O20833   1.862   4.634   1.102  0.1243  0.0837  0.2447
  896MOL0     C20834   1.936   4.753   1.088 -0.3390  0.4866 -0.0431
  896MOL0     C20835   2.077   4.728   1.043  0.3764 -0.0123  0.0337
  896MOL0     C20836   2.101   4.581   0.998 -0.0861  0.2253 -0.3582
  896MOL0     C20837   2.239   4.575   0.947 -0.8290 -0.1370  0.9469
  896MOL0     C20838   2.274   4.437   0.896  0.6375  0.5490  0.0362
  896MOL0     C20839   2.412   4.434   0.832  0.0584 -0.1124  0.1601
  896MOL0     C20840   2.438   4.300   0.761 -0.3039  0.0075  0.4816
  896MOL0     C20841   2.581   4.265   0.756  0.2199  0.2654 -0.3068
  896MOL0     N20842   2.661   4.363   0.690  0.1700 -0.1562 -0.1634
  896MOL0     C20843   2.666   4.370   0.555 -0.4914 -0.1077  0.0063
  896MOL0     C20844   2.766   4.460   0.531 -0.1219 -0.3632  0.0008
  896MOL0     C20845   2.824   4.525   0.409 -0.0052 -0.1069 -0.7047
  896MOL0     C20846   2.810   4.422   0.290 -0.0528  0.0201  0.4097
  896MOL0     C20847   2.880   4.481   0.168 -0.7324 -0.1972  0.3272
  896MOL0     C20848   3.025   4.481   0.149  0.8182  1.0740 -0.3283
  896MOL0     O20849   3.064   4.558   0.034 -0.3990 -0.3918 -0.0703
  896MOL0     C20850   3.192   4.549   0.002 -0.3661 -0.5150  0.7949
  896MOL0     C20851   3.301   4.516   0.087  0.5092  0.8394 -0.0269
  896MOL0     C20852   3.434   4.529   0.056  0.1387 -0.9825  0.3339
  896MOL0     C20853   3.467   4.564  -0.081 -0.5299 -0.6883 -1.0504
  896MOL0     C20854   3.607   4.560  -0.132  0.8709 -0.8325 -0.4813
  896MOL0     O20855   3.700   4.559  -0.027 -0.4364 -0.5691 -0.0340
  896MOL0     C20856   3.831   4.548  -0.054 -0.0421  0.6692 -0.0630
  896MOL0     C20857   3.922   4.631   0.017 -0.3688  0.2289 -0.8595
  896MOL0     C20858   4.055   4.631  -0.020  0.0742  0.5652  0.4169
  896MOL0     C20859   4.110   4.537  -0.110  0.1646  0.2809 -0.3295
  896MOL0     O20860   4.239   4.530  -0.160  0.8924  0.5330 -0.5374
  896MOL0     C20861   4.329   4.626  -0.106 -0.7495 -0.1556  0.7141
  896MOL0     C20862   4.449   4.603  -0.203  0.7172 -0.1087 -0.0698
  896MOL0     C20863   4.567   4.696  -0.190 -0.1917  0.6472 -0.3672
  896MOL0     C20864   4.677   4.646  -0.280  0.4681 -0.5191 -0.2170
  896MOL0     C20865   4.804   4.722  -0.241 -0.2048 -0.2515  0.0101
  896MOL0     C20866   4.918   4.685  -0.340  0.8584 -0.7144  1.0666
  896MOL0     C20867   5.045   4.778  -0.320 -0.1655 -0.1725 -0.7876
  896MOL0     C20868   5.177   4.749  -0.393 -0.6232 -0.8950 -0.0357
  896MOL0    Cl20869   5.318   4.855  -0.359  0.0122  0.0546 -0.3179
  896MOL0     C20870   4.019   4.449  -0.164  0.2706  0.7150  0.5476
  896MOL0     C20871   3.881   4.459  -0.148  0.2313  0.3406  0.3984
  896MOL0     O20872   3.630   4.563  -0.256 -0.3446  0.4503  0.2943
  896MOL0     C20873   3.360   4.576  -0.169  0.1954  0.5196  0.4218
  896MOL0     C20874   3.228   4.566  -0.126 -0.3285 -0.1567  1.0146
  896MOL0     N20875   2.809   4.507   0.655  0.0806  0.2663 -0.2586
  896MOL0     N20876   2.748   4.451   0.755 -0.6258  0.3315  0.8192
  896MOL0     C20877   1.651   4.684   0.990  0.3993  0.2515 -0.2863
  896MOL0     C20878   1.509   4.664   0.988 -0.2329 -0.6354 -0.8160
  896MOL0     C20879   1.100   4.684   1.168 -0.4979 -0.1954 -0.0174
  896MOL0     C20880   1.041   4.588   1.075  0.5442 -0.4886 -0.3271
  896MOL0     C20881   0.902   4.594   1.050  0.8690  0.1578 -0.2851
  896MOL0     C20882   0.810   4.674   1.125  0.3275  0.1339  0.0535
  896MOL0     O20883   0.668   4.690   1.111  0.0268  0.0391 -0.9564
  896MOL0     C20884   0.601   4.636   0.989 -0.9580 -0.1329 -0.8598
  896MOL0     C20885   0.446   4.628   0.995 -0.1041  0.7174  0.2071
  896MOL0     C20886   0.367   4.757   1.019  0.0829  0.1972 -0.7425
  896MOL0     C20887   0.217   4.738   1.006 -0.0085  0.1119 -0.3813
  896MOL0     C20888   0.155   4.619   1.059  0.3680  0.5664  0.2870
  896MOL0     C20889   0.082   4.536   1.097  0.4271 -1.0361 -0.1487
  896MOL0     C20890   0.862   4.761   1.214 -0.0857  0.8430  0.2693
  896MOL0     C20891   1.004   4.769   1.239 -0.6312 -0.9730 -0.4401
  896MOL0     C20892   1.051   4.848   1.361  0.5181 -0.2518  0.4851
  896MOL0     H20893   1.480   4.543   1.308  1.3694  4.2164  1.0191
  896MOL0     H20894   1.730   4.535   1.272 -0.3535  1.5196  0.6226
  896MOL0     H20895   1.880   4.827   1.030 -1.7860  0.8582  1.7558
  896MOL0     H20896   1.948   4.800   1.186  0.4092  0.5070 -0.1366
  896MOL0     H20897   2.150   4.747   1.123  1.2686  1.1562 -1.0137
  896MOL0     H20898   2.105   4.795   0.961  0.4011 -0.5255 -0.3895
  896MOL0     H20899   2.031   4.556   0.918 -1.6971  0.4588  0.9278
  896MOL0     H20900   2.091   4.509   1.079  2.9669 -0.9185 -0.8575
  896MOL0     H20901   2.247   4.649   0.866 -3.6135  0.0969  0.7729
  896MOL0     H20902   2.296   4.605   1.035  1.9400  3.4460 -1.7465
  896MOL0     H20903   2.256   4.367   0.978 -5.1122  2.4596  0.8748
  896MOL0     H20904   2.204   4.415   0.814 -0.2245 -0.3982  0.9905
  896MOL0     H20905   2.414   4.518   0.762  0.5864 -1.3162 -1.3221
  896MOL0     H20906   2.488   4.437   0.910 -0.3280 -0.0091  0.5380
  896MOL0     H20907   2.402   4.298   0.658 -1.2314 -1.5383  0.7966
  896MOL0     H20908   2.387   4.222   0.819  0.1401 -2.3940 -2.1632
  896MOL0     H20909   2.602   4.262   0.863 -0.7565  0.3761 -0.1060
  896MOL0     H20910   2.599   4.165   0.715 -1.8588  0.0301 -0.7645
  896MOL0     H20911   2.607   4.318   0.480  0.8786 -0.6893 -0.7094
  896MOL0     H20912   2.773   4.621   0.398  0.1419 -0.1559 -2.0102
  896MOL0     H20913   2.928   4.546   0.435 -0.3177 -0.6365  1.0934
  896MOL0     H20914   2.838   4.319   0.315 -3.9563 -2.1059 -2.7789
  896MOL0     H20915   2.708   4.403   0.255  0.6969 -2.6184 -0.5171
  896MOL0     H20916   2.850   4.586   0.169  1.1147  0.3906 -0.4498
  896MOL0     H20917   2.839   4.430   0.081 -2.0182  0.9393  0.2368
  896MOL0     H20918   3.052   4.374   0.149 -1.2426  0.4294  2.8067
  896MOL0     H20919   3.074   4.516   0.240  0.8539  1.5734 -0.5371
  896MOL0     H20920   3.290   4.494   0.193  0.9242  0.5010 -0.0484
  896MOL0     H20921   3.509   4.517   0.133 -0.3578  0.9340  1.1670
  896MOL0     H20922   3.878   4.700   0.088 -0.9865  0.3803 -1.3771
  896MOL0     H20923   4.123   4.701   0.028  3.9373 -2.4033 -0.2062
  896MOL0     H20924   4.291   4.728  -0.121  1.9041  0.6902 -1.1236
  896MOL0     H20925   4.356   4.607  -0.002 -1.3426  0.0068  0.8999
  896MOL0     H20926   4.475   4.497  -0.207 -1.3729 -0.6667 -0.3226
  896MOL0     H20927   4.397   4.622  -0.298  0.3141 -0.6159  0.0437
  896MOL0     H20928   4.537   4.799  -0.213  0.2374  1.3748  2.0158
  896MOL0     H20929   4.600   4.695  -0.085 -0.7867 -1.3569 -0.1619
  896MOL0     H20930   4.650   4.662  -0.385  0.9256  4.9702  0.2161
  896MOL0     H20931   4.698   4.541  -0.258 -1.6299 -1.2159 -1.1817
  896MOL0     H20932   4.839   4.692  -0.142  0.0773  0.1629  0.0425
  896MOL0     H20933   4.789   4.830  -0.239 -0.4706 -0.2584 -1.0742
  896MOL0     H20934   4.946   4.580  -0.324  1.7489 -0.6963 -0.2226
  896MOL0     H20935   4.880   4.688  -0.443  0.8664 -1.5468  1.0305
  896MOL0     H20936   5.069   4.759  -0.215 -0.5859  1.2529 -0.4153
  896MOL0     H20937   5.025   4.881  -0.348  0.1403  1.1888  3.3217
  896MOL0     H20938   5.211   4.645  -0.381 -0.4880 -0.5965  2.8636
  896MOL0     H20939   5.145   4.762  -0.496  0.6080  2.4971 -0.1054
  896MOL0     H20940   4.055   4.371  -0.231  1.8848  1.5935  0.3394
  896MOL0     H20941   3.820   4.400  -0.215  0.8290  0.6007 -0.3870
  896MOL0     H20942   3.376   4.578  -0.277 -0.8041 -0.5402  0.2298
  896MOL0     H20943   3.138   4.569  -0.187 -0.2518 -3.3295  0.5367
  896MOL0     H20944   1.695   4.728   0.902 -1.7906  1.8807 -0.6505
  896MOL0     H20945   1.459   4.708   0.903  0.0936  1.0507 -0.1803
  896MOL0     H20946   1.099   4.525   1.009  2.3209 -0.2642  0.9418
  896MOL0     H20947   0.858   4.530   0.973 -0.1597  1.1459 -0.5420
  896MOL0     H20948   0.633   4.532   0.973 -3.1582 -1.3071  1.6477
  896MOL0     H20949   0.627   4.701   0.905  1.4030 -1.9724 -1.6637
  896MOL0     H20950   0.430   4.546   1.066  1.0213 -2.0363 -2.5106
  896MOL0     H20951   0.416   4.572   0.905 -1.5109 -1.9770  2.1808
  896MOL0     H20952   0.413   4.830   0.952  1.4926  0.3060  0.2966
  896MOL0     H20953   0.384   4.786   1.123 -0.6772 -0.8725 -0.3095
  896MOL0     H20954   0.178   4.835   1.038  1.6380  0.3640  0.9709
  896MOL0     H20955   0.194   4.737   0.899 -1.0018 -1.0760 -0.1885
  896MOL0     H20956   0.040   4.444   1.131  0.2637 -1.2771 -0.9805
  896MOL0     H20957   0.793   4.818   1.277  1.1374 -0.0693  2.5416
  896MOL0     H20958   1.103   4.939   1.331  0.1061 -0.0278  0.4439
  896MOL0     H20959   0.965   4.890   1.415  0.9104  0.4570  0.5698
  896MOL0     H20960   1.108   4.787   1.431  1.4235 -2.0273 -1.6716
  897MOL0     O20961   7.437  10.525   4.364  0.2570  0.1004  0.3528
  897MOL0     C20962   7.396  10.429   4.300  0.1860  0.0023  0.4704
  897MOL0     O20963   7.458  10.313   4.290  0.2144  0.1510 -0.0462
  897MOL0     C20964   7.588  10.285   4.333 -0.2112  0.3247 -0.5293
  897MOL0     C20965   7.610  10.147   4.367 -0.3319  1.1480 -0.8214
  897MOL0     C20966   7.736  10.100   4.405  0.9189 -0.3728  1.0033
  897MOL0     C20967   7.835  10.193   4.423 -0.3106  0.2624 -0.0454
  897MOL0     O20968   7.958  10.135   4.436 -0.0755  0.0744 -0.2056
  897MOL0     C20969   8.077  10.219   4.437  0.6340 -0.6482 -0.1795
  897MOL0     C20970   8.201  10.140   4.471 -0.4986 -0.1537  0.0101
  897MOL0     C20971   8.336  10.222   4.455 -0.3237  0.0442 -0.2565
  897MOL0     C20972   8.472  10.136   4.478  0.3198  0.0421  0.2181
  897MOL0     C20973   8.588  10.232   4.496  0.5553 -0.4375  0.3278
  897MOL0     C20974   8.718  10.179   4.554  0.5502 -0.2233  1.6397
  897MOL0     C20975   8.719  10.200   4.702 -0.6081  0.0434  0.3756
  897MOL0     C20976   8.851  10.138   4.761 -0.1851  0.2365  0.9049
  897MOL0     N20977   8.968  10.223   4.721 -0.1652  0.3050  0.5690
  897MOL0     C20978   8.976  10.332   4.644 -0.1839  0.3795  0.5537
  897MOL0     C20979   9.104  10.338   4.592 -0.8769 -0.4209  0.1873
  897MOL0     C20980   9.162  10.440   4.499 -0.0909  0.9383 -0.5196
  897MOL0     C20981   9.166  10.379   4.361 -0.0113  0.1941  0.3146
  897MOL0     C20982   9.214  10.470   4.259  0.1255  0.6350  0.2222
  897MOL0     C20983   9.123  10.588   4.233 -0.7547 -0.6953  0.8563
  897MOL0     O20984   8.998  10.541   4.189  0.0786  0.5850  0.1851
  897MOL0     C20985   8.980  10.492   4.063 -0.8705  0.1692 -0.4830
  897MOL0     C20986   8.862  10.430   4.046 -0.3064  0.0962 -0.0970
  897MOL0     C20987   8.832  10.357   3.936 -0.5137 -0.4513  0.8634
  897MOL0     C20988   8.914  10.372   3.817 -0.2337 -0.9440 -0.2021
  897MOL0     C20989   8.868  10.330   3.679 -0.3767  0.0280 -0.6736
  897MOL0     O20990   8.777  10.231   3.678  0.1409 -0.1757  0.5240
  897MOL0     C20991   8.701  10.205   3.568 -0.7118  0.0996  0.4167
  897MOL0     C20992   8.747  10.106   3.467  0.6017  0.1706 -0.3225
  897MOL0     C20993   8.665  10.060   3.365  0.8503  0.0306 -0.0490
  897MOL0     C20994   8.528  10.105   3.360 -0.1416 -0.3794 -0.4366
  897MOL0     O20995   8.453  10.041   3.263 -0.0625 -0.3194 -0.8950
  897MOL0     C20996   8.311  10.031   3.290  0.2467  0.3485 -0.1786
  897MOL0     C20997   8.233   9.951   3.176 -0.4614 -0.1475 -0.5016
  897MOL0     C20998   8.251   9.795   3.207 -0.3995 -0.4040 -0.3430
  897MOL0     C20999   8.370   9.724   3.140  0.7180  1.0033 -0.1337
  897MOL0     C21000   8.342   9.685   2.989 -0.2292 -0.2088  0.3992
  897MOL0     C21001   8.234   9.578   2.964  0.6865  0.2571  0.3775
  897MOL0     C21002   8.266   9.450   3.047 -0.1002  0.2716  0.3526
  897MOL0     C21003   8.146   9.355   3.064  0.0429 -0.4140 -0.3293
  897MOL0    Cl21004   8.072   9.338   2.901  0.0334  0.2608 -0.1179
  897MOL0     C21005   8.483  10.197   3.459 -0.2567 -0.5448  0.8376
  897MOL0     C21006   8.570  10.256   3.564 -0.3913  1.0411  0.1244
  897MOL0     O21007   8.901  10.398   3.581  0.1749  0.4069 -0.6553
  897MOL0     C21008   9.026  10.459   3.829 -0.1445 -0.9407  0.0956
  897MOL0     C21009   9.061  10.512   3.954 -0.6813  0.5205  0.1136
  897MOL0     N21010   9.182  10.244   4.661 -0.1790 -0.0027 -0.3607
  897MOL0     N21011   9.092  10.175   4.733 -0.2937 -0.4489 -0.1341
  897MOL0     C21012   7.819  10.327   4.387 -0.5220  0.0378 -0.8529
  897MOL0     C21013   7.693  10.374   4.350 -0.2312  0.3263 -0.1081
  897MOL0     C21014   7.299  10.447   4.183 -0.0115 -0.1426 -0.3763
  897MOL0     C21015   7.316  10.364   4.069  0.0015 -0.6267  0.6284
  897MOL0     C21016   7.228  10.371   3.962 -0.0311 -0.7786  0.2017
  897MOL0     C21017   7.125  10.462   3.959  0.5200  0.2392 -0.0057
  897MOL0     O21018   7.056  10.475   3.843  0.2209  0.3839  0.5734
  897MOL0     C21019   6.962  10.576   3.819  0.4103  0.5455 -1.0141
  897MOL0     C21020   6.829  10.534   3.864  0.1794  0.3046  1.1621
  897MOL0     C21021   6.707  10.615   3.826 -0.3983 -1.2830  0.3220
  897MOL0     C21022   6.578  10.536   3.859 -0.1618 -0.1992 -0.4200
  897MOL0     C21023   6.462  10.622   3.876  0.1020  0.3037 -0.5201
  897MOL0     C21024   6.369  10.694   3.899 -0.6614 -1.0754  0.2975
  897MOL0     C21025   7.113  10.550   4.074 -0.0192 -0.3144  0.1407
  897MOL0     C21026   7.193  10.539   4.187 -0.1970  0.4875  0.3700
  897MOL0     C21027   7.170  10.631   4.299  0.0696  0.4899 -0.1412
  897MOL0     H21028   7.529  10.076   4.348 -0.3070  1.1659 -0.9973
  897MOL0     H21029   7.748   9.993   4.419  1.1154 -0.0369  3.9338
  897MOL0     H21030   8.102  10.264   4.341 -1.5274  0.0188 -0.4929
  897MOL0     H21031   8.071  10.310   4.499  1.8813  0.4637 -1.6312
  897MOL0     H21032   8.209  10.053   4.405 -2.0668 -1.9320  2.0427
  897MOL0     H21033   8.198  10.096   4.571 -1.0440  0.5868  0.3259
  897MOL0     H21034   8.342  10.302   4.529  3.1675 -1.0098  0.7858
  897MOL0     H21035   8.331  10.257   4.351 -0.4007 -2.3435 -1.1147
  897MOL0     H21036   8.461  10.075   4.569  0.7332  0.6643  0.6927
  897MOL0     H21037   8.475  10.079   4.384 -3.4758  1.1475 -0.7349
  897MOL0     H21038   8.604  10.275   4.397 -2.6748 -0.6253 -0.3778
  897MOL0     H21039   8.551  10.310   4.562 -0.7304 -1.3067  0.6801
  897MOL0     H21040   8.713  10.071   4.539 -1.2277  0.1144 -0.7199
  897MOL0     H21041   8.800  10.222   4.497 -2.3477  1.6089 -1.5203
  897MOL0     H21042   8.631  10.150   4.742  1.1226 -2.5396  1.1770
  897MOL0     H21043   8.713  10.308   4.722 -0.3154  0.4204 -1.3885
  897MOL0     H21044   8.830  10.118   4.866 -3.8331 -1.9721 -0.0449
  897MOL0     H21045   8.853  10.039   4.714  1.5576  0.0933  1.2109
  897MOL0     H21046   8.896  10.400   4.617  1.0830  2.8000  2.4908
  897MOL0     H21047   9.102  10.532   4.500 -1.2883  0.1881  0.4796
  897MOL0     H21048   9.257  10.462   4.549  1.4422 -4.4264 -0.4466
  897MOL0     H21049   9.221  10.285   4.373  0.5901  0.5092  0.0251
  897MOL0     H21050   9.060  10.359   4.342  0.0837  2.0185 -2.8113
  897MOL0     H21051   9.229  10.413   4.166  0.5798  2.0460 -0.5906
  897MOL0     H21052   9.309  10.511   4.293 -0.8872  2.7367  0.6405
  897MOL0     H21053   9.169  10.651   4.156 -0.9368 -1.5518  0.0221
  897MOL0     H21054   9.108  10.645   4.325 -0.8367  0.9513 -0.1235
  897MOL0     H21055   8.796  10.425   4.131 -2.1839  0.5074 -1.4802
  897MOL0     H21056   8.742  10.296   3.944 -0.7795 -0.6494 -2.3132
  897MOL0     H21057   8.843  10.054   3.469 -1.4318 -4.1095 -1.2990
  897MOL0     H21058   8.696   9.986   3.292  3.1078  2.0545 -1.2826
  897MOL0     H21059   8.281   9.998   3.389 -1.8463  0.0449 -0.8655
  897MOL0     H21060   8.268  10.131   3.278 -2.2054 -0.7865 -1.5585
  897MOL0     H21061   8.129   9.983   3.182 -0.2891  0.3753 -0.2550
  897MOL0     H21062   8.280   9.974   3.079  3.2959 -2.0148  0.6764
  897MOL0     H21063   8.269   9.764   3.310  1.0771 -0.7312 -0.6833
  897MOL0     H21064   8.155   9.749   3.179 -0.7458  0.5109 -0.6873
  897MOL0     H21065   8.409   9.639   3.195  0.6787 -0.6366 -2.4948
  897MOL0     H21066   8.454   9.795   3.143 -0.1627  2.0723  2.2236
  897MOL0     H21067   8.435   9.651   2.943 -2.0363 -1.1301 -2.9655
  897MOL0     H21068   8.301   9.773   2.937 -2.3246 -2.1356 -1.4520
  897MOL0     H21069   8.137   9.611   3.001  1.1302 -1.3282  3.2591
  897MOL0     H21070   8.225   9.552   2.858 -3.4792 -1.8662  1.0613
  897MOL0     H21071   8.290   9.477   3.150 -1.5846 -1.2872  1.1522
  897MOL0     H21072   8.340   9.391   2.992 -0.6593 -0.4431  0.3644
  897MOL0     H21073   8.184   9.258   3.097 -0.2809 -1.1691 -2.0641
  897MOL0     H21074   8.075   9.396   3.137  0.3053  2.5292 -1.5750
  897MOL0     H21075   8.379  10.227   3.451  0.7445  2.8512 -2.3153
  897MOL0     H21076   8.531  10.334   3.628  0.0117  0.7902  0.6773
  897MOL0     H21077   9.080  10.488   3.739  1.2189  0.9955  1.4706
  897MOL0     H21078   9.158  10.560   3.953  1.7456 -3.8113 -0.2060
  897MOL0     H21079   7.906  10.392   4.378 -0.2841 -0.4618 -2.8303
  897MOL0     H21080   7.684  10.476   4.315  0.5095  0.2676 -0.4967
  897MOL0     H21081   7.406  10.304   4.071  0.5486  0.0065 -1.5770
  897MOL0     H21082   7.254  10.305   3.879  0.9655 -0.1060 -0.0447
  897MOL0     H21083   6.957  10.591   3.711 -0.3892 -0.9145 -1.2076
  897MOL0     H21084   6.988  10.672   3.865 -0.8457  0.8558 -0.9130
  897MOL0     H21085   6.820  10.535   3.973 -1.7903  2.1053  1.0590
  897MOL0     H21086   6.821  10.429   3.832 -0.4238  1.4715 -3.2787
  897MOL0     H21087   6.711  10.638   3.719 -1.4925 -1.1452  0.2995
  897MOL0     H21088   6.711  10.708   3.884  2.0280  0.5315 -2.5050
  897MOL0     H21089   6.558  10.458   3.785 -2.1187 -0.4885  0.3526
  897MOL0     H21090   6.581  10.486   3.956 -0.4759  1.3320  0.4180
  897MOL0     H21091   6.296  10.772   3.905 -0.7361 -1.1544  0.4528
  897MOL0     H21092   7.031  10.621   4.079  0.9443  0.8292  0.0039
  897MOL0     H21093   7.235  10.717   4.283  1.1348 -0.1975  0.3576
  897MOL0     H21094   7.067  10.668   4.289 -0.6954 -1.7748 -1.3585
  897MOL0     H21095   7.187  10.586   4.397 -0.3565 -0.7538 -0.6117
  898MOL0     O21096   6.535   1.654   2.730 -0.0252  0.4605 -0.1447
  898MOL0     C21097   6.507   1.749   2.660 -0.0273 -0.8374  0.4652
  898MOL0     O21098   6.600   1.828   2.602 -0.0852 -0.0645 -0.7550
  898MOL0     C21099   6.729   1.788   2.618 -0.8528  0.0880 -0.3148
  898MOL0     C21100   6.787   1.657   2.595  0.8316 -0.0766 -0.1057
  898MOL0     C21101   6.926   1.635   2.620  0.1605 -0.3202 -0.1951
  898MOL0     C21102   7.005   1.739   2.670 -0.4243  0.1503  0.1747
  898MOL0     O21103   7.136   1.721   2.696 -0.2527  0.1082 -0.2696
  898MOL0     C21104   7.210   1.625   2.618 -0.4292  0.2092 -0.1804
  898MOL0     C21105   7.357   1.641   2.646  0.5240 -0.6851 -0.1450
  898MOL0     C21106   7.397   1.597   2.792  0.2401 -0.7265  0.3141
  898MOL0     C21107   7.531   1.651   2.845  1.1625  0.9518  0.0822
  898MOL0     C21108   7.651   1.565   2.814  0.7115  0.0240 -1.2002
  898MOL0     C21109   7.693   1.566   2.670 -0.7751  0.7397 -0.9338
  898MOL0     C21110   7.717   1.716   2.632  0.5818 -0.7327  0.2705
  898MOL0     C21111   7.814   1.803   2.712 -0.3429  0.0132  0.1241
  898MOL0     N21112   7.942   1.743   2.693 -0.2738  0.1437 -0.1301
  898MOL0     C21113   8.035   1.792   2.608  0.0789  0.2534  0.6673
  898MOL0     C21114   8.153   1.737   2.645  0.4214  0.0524 -0.4696
  898MOL0     C21115   8.298   1.764   2.595  0.8044  0.3725  0.4541
  898MOL0     C21116   8.338   1.909   2.559  0.2086  0.1489 -0.3816
  898MOL0     C21117   8.457   1.918   2.458 -0.4510  0.1463  0.8868
  898MOL0     C21118   8.583   1.848   2.505  0.2144 -0.1223  0.2233
  898MOL0     O21119   8.613   1.912   2.629 -0.2313  0.5917 -0.5347
  898MOL0     C21120   8.745   1.936   2.657  0.2251 -0.3638  0.4351
  898MOL0     C21121   8.850   1.873   2.592  0.4560 -0.0892 -0.7184
  898MOL0     C21122   8.979   1.894   2.634  0.0060 -0.0875  0.0765
  898MOL0     C21123   9.016   1.987   2.740  0.9781  0.4141  0.4084
  898MOL0     C21124   9.152   2.017   2.774 -0.1016  0.4165  0.9052
  898MOL0     O21125   9.168   2.142   2.818  0.1142 -0.6580 -0.8396
  898MOL0     C21126   9.292   2.190   2.851 -0.1165  0.7573  0.6416
  898MOL0     C21127   9.356   2.132   2.958 -0.0068 -0.6724  0.3344
  898MOL0     C21128   9.484   2.174   2.983  0.5204 -0.6302 -0.6782
  898MOL0     C21129   9.552   2.264   2.897  0.6566  0.3438 -0.3515
  898MOL0     O21130   9.683   2.305   2.914  0.2195  0.3279 -0.4283
  898MOL0     C21131   9.735   2.317   3.048  0.3195 -0.4901 -0.0797
  898MOL0     C21132   9.856   2.407   3.045  0.1581 -0.1039  0.0733
  898MOL0     C21133   9.934   2.412   3.177 -0.1562  1.0063  0.1948
  898MOL0     C21134  10.068   2.493   3.185 -0.5072  0.1425  0.1526
  898MOL0     C21135  10.045   2.641   3.148 -0.6036  0.4418 -0.1650
  898MOL0     C21136  10.175   2.717   3.160 -0.5437 -0.2660 -0.0739
  898MOL0     C21137  10.167   2.849   3.094 -0.5620 -0.5334  0.3380
  898MOL0     C21138  10.300   2.928   3.108  0.7989 -0.6651 -0.2171
  898MOL0    Cl21139  10.438   2.845   3.046  0.1117  0.1949 -0.0952
  898MOL0     C21140   9.487   2.321   2.783 -0.9037 -0.2898 -0.4705
  898MOL0     C21141   9.352   2.286   2.765  0.3813  0.4783  0.0742
  898MOL0     O21142   9.241   1.937   2.749  0.3637  0.0030  0.3161
  898MOL0     C21143   8.909   2.035   2.812  0.2622 -0.2520 -0.3849
  898MOL0     C21144   8.776   2.019   2.768 -0.1891 -0.1089  0.8484
  898MOL0     N21145   8.136   1.662   2.757  0.9023  0.0401  0.3967
  898MOL0     N21146   8.003   1.661   2.782  0.2038 -0.2529  0.2938
  898MOL0     C21147   6.948   1.856   2.701 -0.0125  0.1131  0.3293
  898MOL0     C21148   6.813   1.880   2.675 -0.8545 -0.3701 -0.5788
  898MOL0     C21149   6.367   1.795   2.647  0.1188  0.3816 -0.4756
  898MOL0     C21150   6.274   1.693   2.622  0.0150  0.4821  0.2745
  898MOL0     C21151   6.134   1.714   2.607 -0.7566 -0.2212 -0.2704
  898MOL0     C21152   6.077   1.845   2.603  0.4680  0.1980 -0.3973
  898MOL0     O21153   5.937   1.855   2.595 -0.0908  0.6528  0.1283
  898MOL0     C21154   5.882   1.977   2.538  1.0429  0.9324  0.2875
  898MOL0     C21155   5.741   1.947   2.474 -0.2898 -0.1538  0.6554
  898MOL0     C21156   5.694   2.056   2.374 -0.1727 -0.6233 -0.1896
  898MOL0     C21157   5.542   2.040   2.348 -0.2280 -0.3045  0.4361
  898MOL0     C21158   5.524   1.924   2.260 -1.1867 -0.0402 -0.6117
  898MOL0     C21159   5.492   1.817   2.217  0.5797  0.6785 -0.0454
  898MOL0     C21160   6.171   1.945   2.625  0.7926 -0.0652 -0.1078
  898MOL0     C21161   6.311   1.923   2.643  0.2224 -0.0463 -0.2996
  898MOL0     C21162   6.405   2.042   2.668 -0.3851  0.4807  0.0966
  898MOL0     H21163   6.729   1.583   2.541 -0.6533  2.3095 -1.9718
  898MOL0     H21164   6.982   1.550   2.582  1.3812  0.0907  0.6469
  898MOL0     H21165   7.181   1.528   2.660  1.9174 -0.2767  0.4744
  898MOL0     H21166   7.175   1.638   2.515 -0.7100 -0.3182 -0.1547
  898MOL0     H21167   7.390   1.742   2.620 -2.4054 -0.4609 -3.7217
  898MOL0     H21168   7.399   1.571   2.573 -2.0065 -1.7519 -0.6726
  898MOL0     H21169   7.388   1.489   2.803 -1.4383 -0.6282  0.0658
  898MOL0     H21170   7.321   1.640   2.858  2.0747 -1.4029  3.0521
  898MOL0     H21171   7.541   1.753   2.809 -1.9217  1.1189 -0.6395
  898MOL0     H21172   7.529   1.651   2.954 -0.4881 -0.1183  0.0950
  898MOL0     H21173   7.741   1.599   2.867  0.2598 -1.3275  0.5346
  898MOL0     H21174   7.631   1.464   2.849  0.3092  0.3970 -0.3196
  898MOL0     H21175   7.783   1.504   2.664 -0.8502 -0.2846  4.2482
  898MOL0     H21176   7.612   1.508   2.624  0.5710 -1.4296 -0.6850
  898MOL0     H21177   7.623   1.769   2.612  0.9863 -1.3283 -4.2568
  898MOL0     H21178   7.756   1.728   2.530 -0.6359  2.9956  0.0661
  898MOL0     H21179   7.824   1.904   2.669  1.7910 -0.7268 -1.2685
  898MOL0     H21180   7.793   1.809   2.819 -1.6092 -0.4186 -0.0900
  898MOL0     H21181   8.036   1.854   2.519  2.9352 -0.0127  0.4286
  898MOL0     H21182   8.365   1.717   2.668 -2.3093 -1.6058  2.2939
  898MOL0     H21183   8.316   1.705   2.504 -1.9397  0.3925 -0.1929
  898MOL0     H21184   8.252   1.962   2.518 -0.9624 -1.5636 -0.2665
  898MOL0     H21185   8.373   1.956   2.651 -0.9384  0.6420 -0.1806
  898MOL0     H21186   8.470   2.027   2.451 -1.5385  0.2129 -0.5523
  898MOL0     H21187   8.428   1.874   2.363 -0.0873  1.2453  0.2408
  898MOL0     H21188   8.667   1.860   2.435  0.6748  1.5952  0.9976
  898MOL0     H21189   8.560   1.742   2.512  0.6758 -0.2067  0.4989
  898MOL0     H21190   8.852   1.806   2.507  1.5441  0.6045 -1.2642
  898MOL0     H21191   9.060   1.845   2.581  0.1110 -2.7849  2.4511
  898MOL0     H21192   9.308   2.049   3.011  1.5162 -2.3932 -0.8753
  898MOL0     H21193   9.550   2.137   3.061  0.7075 -0.9448 -0.9844
  898MOL0     H21194   9.655   2.368   3.103 -0.5718 -0.4777 -1.3472
  898MOL0     H21195   9.767   2.221   3.088  1.9133  0.5311  1.2525
  898MOL0     H21196   9.921   2.381   2.961 -0.8339  0.5290 -0.9123
  898MOL0     H21197   9.823   2.510   3.030  2.0911  1.6375  5.5901
  898MOL0     H21198   9.868   2.461   3.249 -1.4553 -0.5063  0.0977
  898MOL0     H21199   9.964   2.312   3.209  2.2677  0.9605 -1.9508
  898MOL0     H21200  10.136   2.449   3.112  0.8527 -0.1173  1.5192
  898MOL0     H21201  10.112   2.492   3.286 -1.0943 -4.7573  0.5736
  898MOL0     H21202   9.970   2.688   3.212 -0.6836 -1.9166  1.6450
  898MOL0     H21203  10.015   2.642   3.043  1.7318 -0.0218 -0.9091
  898MOL0     H21204  10.203   2.728   3.265  2.5148 -1.9819 -0.5730
  898MOL0     H21205  10.248   2.658   3.103 -1.6449 -0.0846 -1.7347
  898MOL0     H21206  10.085   2.904   3.141 -1.6458  0.2143 -2.2768
  898MOL0     H21207  10.141   2.835   2.989 -0.2030  1.7689 -0.1081
  898MOL0     H21208  10.284   3.026   3.062 -2.1080 -0.7269  0.4538
  898MOL0     H21209  10.322   2.941   3.215  0.7547 -1.1584 -0.1446
  898MOL0     H21210   9.536   2.398   2.725 -0.2101  0.9352  1.6255
  898MOL0     H21211   9.284   2.328   2.691  1.8288  2.0671 -0.4131
  898MOL0     H21212   8.918   2.109   2.891 -0.4985 -0.3614 -0.1935
  898MOL0     H21213   8.692   2.062   2.822 -1.3874 -0.7199 -0.4637
  898MOL0     H21214   7.015   1.922   2.756 -0.3265  0.5308  0.2191
  898MOL0     H21215   6.774   1.979   2.695  0.8608  0.4649 -1.1233
  898MOL0     H21216   6.294   1.587   2.636  1.0451  0.2358 -2.4256
  898MOL0     H21217   6.064   1.632   2.599 -1.2054 -0.0938  1.8921
  898MOL0     H21218   5.952   2.022   2.468 -1.2942  3.0987 -0.8176
  898MOL0     H21219   5.877   2.053   2.616  0.5211  0.0167  1.1752
  898MOL0     H21220   5.674   1.915   2.554 -0.5962 -2.3191 -0.3725
  898MOL0     H21221   5.750   1.857   2.411 -1.5014 -1.1066  1.7804
  898MOL0     H21222   5.754   2.055   2.283  3.9782  0.5314  2.2619
  898MOL0     H21223   5.715   2.152   2.423  0.6227 -1.0139  0.2524
  898MOL0     H21224   5.477   2.016   2.433 -0.9065 -3.3287 -0.7965
  898MOL0     H21225   5.499   2.125   2.294 -2.5943  0.1954  2.8834
  898MOL0     H21226   5.463   1.718   2.189  2.6381  1.0198 -4.0709
  898MOL0     H21227   6.142   2.048   2.608 -1.7819 -0.6928  0.0365
  898MOL0     H21228   6.452   2.026   2.765  0.0681  2.1903  0.2030
  898MOL0     H21229   6.485   2.050   2.595 -1.7176  1.8308 -1.3049
  898MOL0     H21230   6.351   2.137   2.680  0.1675  0.4622  4.9558
  899MOL0     O21231   1.210   1.591   7.728 -0.3485 -0.2280  0.2246
  899MOL0     C21232   1.208   1.628   7.848 -0.9638 -0.1450  0.0114
  899MOL0     O21233   1.314   1.617   7.938  0.3560  0.8355  1.3003
  899MOL0     C21234   1.433   1.586   7.878  0.5001  0.3178 -0.5287
  899MOL0     C21235   1.517   1.687   7.843  0.3843  0.9204 -0.0228
  899MOL0     C21236   1.638   1.658   7.793  0.1816  0.1173 -0.0506
  899MOL0     C21237   1.682   1.525   7.786  0.2963 -1.2757 -0.4226
  899MOL0     O21238   1.812   1.508   7.751  0.5948  0.4660 -0.0844
  899MOL0     C21239   1.846   1.389   7.696 -0.4383  0.3791 -0.2617
  899MOL0     C21240   1.999   1.394   7.681  0.2420 -0.4794  0.2325
  899MOL0     C21241   2.037   1.267   7.598 -1.0029 -1.3594 -0.3622
  899MOL0     C21242   2.186   1.264   7.581 -0.6552 -0.4396  0.5281
  899MOL0     C21243   2.236   1.152   7.486  0.4430  0.0331 -0.4944
  899MOL0     C21244   2.366   1.206   7.418  1.0376 -1.3585 -0.3845
  899MOL0     C21245   2.417   1.109   7.308 -0.0665 -0.2520 -0.0683
  899MOL0     C21246   2.548   1.155   7.252  0.2743 -0.0207 -0.0419
  899MOL0     N21247   2.648   1.145   7.359  0.8482 -0.4560 -0.3765
  899MOL0     C21248   2.690   1.043   7.445  0.2181 -0.3520 -0.0190
  899MOL0     C21249   2.797   1.098   7.506 -0.8330  0.2644  0.1234
  899MOL0     C21250   2.859   1.033   7.622 -0.9922 -0.3889 -0.1452
  899MOL0     C21251   2.849   1.111   7.744  0.5225 -0.4027 -0.5421
  899MOL0     C21252   2.954   1.077   7.854 -0.5581  0.6014 -0.1697
  899MOL0     C21253   3.093   1.041   7.802 -0.2857 -0.3695  0.0158
  899MOL0     O21254   3.187   1.035   7.905  0.8718  0.7039 -0.3322
  899MOL0     C21255   3.319   1.010   7.890  0.6488 -0.0681  0.6334
  899MOL0     C21256   3.411   1.047   7.993 -0.3861  0.1420  0.6340
  899MOL0     C21257   3.546   1.015   7.996  0.5766 -0.0059  0.1090
  899MOL0     C21258   3.588   0.937   7.883 -0.8815 -0.8173 -0.0176
  899MOL0     C21259   3.726   0.885   7.879  0.6051  0.3187 -0.2411
  899MOL0     O21260   3.814   0.939   7.970 -0.6051 -0.1497  0.2768
  899MOL0     C21261   3.947   0.909   7.944 -0.3739 -0.3513  0.2792
  899MOL0     C21262   4.025   0.830   8.035  0.3848  0.4031  0.1417
  899MOL0     C21263   4.158   0.800   7.999 -0.0426 -0.6042  0.1220
  899MOL0     C21264   4.205   0.829   7.866 -0.7592 -0.1096  0.2418
  899MOL0     O21265   4.331   0.803   7.819  0.6181 -0.1436  0.5406
  899MOL0     C21266   4.442   0.767   7.905 -0.2602  0.0391  0.2329
  899MOL0     C21267   4.566   0.746   7.819 -0.3909  0.2356  0.0494
  899MOL0     C21268   4.701   0.695   7.886  0.1921  0.2479 -0.3134
  899MOL0     C21269   4.735   0.550   7.854 -0.0107 -0.2459 -0.0377
  899MOL0     C21270   4.775   0.522   7.710 -0.2020 -1.1026 -0.0293
  899MOL0     C21271   4.849   0.393   7.673 -0.0476 -0.4124 -0.6196
  899MOL0     C21272   4.848   0.362   7.525 -0.0544  0.0823 -0.4539
  899MOL0     C21273   4.963   0.268   7.482 -0.4141  0.1274 -0.2377
  899MOL0    Cl21274   4.928   0.229   7.318  0.2812 -0.0413 -0.4329
  899MOL0     C21275   4.130   0.902   7.782  1.0466  0.3956  0.1783
  899MOL0     C21276   3.997   0.932   7.816  0.7929 -0.5260 -0.1116
  899MOL0     O21277   3.749   0.798   7.791 -0.0215  0.3277 -0.1349
  899MOL0     C21278   3.505   0.918   7.771  0.1337  0.7402 -0.3810
  899MOL0     C21279   3.371   0.948   7.779 -0.1144 -0.8886  0.5282
  899MOL0     N21280   2.827   1.220   7.446 -0.8618 -0.2817 -0.4974
  899MOL0     N21281   2.736   1.244   7.361  0.3047 -0.1276 -0.5218
  899MOL0     C21282   1.597   1.429   7.821 -0.2440  0.4578  0.5932
  899MOL0     C21283   1.469   1.456   7.869 -0.0942 -0.4913 -0.3763
  899MOL0     C21284   1.076   1.666   7.914 -0.2388 -0.1057  0.9138
  899MOL0     C21285   1.065   1.673   8.048  0.0642  1.0316 -0.7915
  899MOL0     C21286   0.944   1.720   8.110  0.3310  0.5510 -0.2183
  899MOL0     C21287   0.835   1.762   8.030 -0.1279 -0.2309 -0.0598
  899MOL0     O21288   0.719   1.808   8.082  0.1709 -0.1848 -0.3290
  899MOL0     C21289   0.596   1.748   8.032 -0.0125 -0.1154  0.9320
  899MOL0     C21290   0.492   1.752   8.140  0.4776 -0.5339  0.6089
  899MOL0     C21291   0.367   1.678   8.107 -0.1595  0.2907 -0.2927
  899MOL0     C21292   0.260   1.735   8.199  0.5629 -0.4213  1.2025
  899MOL0     C21293   0.270   1.682   8.333 -0.2957 -0.5017 -0.1821
  899MOL0     C21294   0.274   1.652   8.451 -0.5365  0.7004  0.1458
  899MOL0     C21295   0.857   1.761   7.896  0.4314  0.2522  0.7707
  899MOL0     C21296   0.968   1.712   7.833 -0.1755 -0.6879 -0.0723
  899MOL0     C21297   0.975   1.743   7.685  0.2329 -0.1846  0.3987
  899MOL0     H21298   1.485   1.788   7.869 -0.2286  0.2818  1.8767
  899MOL0     H21299   1.706   1.740   7.769 -0.3830  0.9286  1.0458
  899MOL0     H21300   1.823   1.301   7.758 -1.3416  1.5343  1.0946
  899MOL0     H21301   1.801   1.379   7.597 -2.1411  2.1936  0.2851
  899MOL0     H21302   2.042   1.398   7.781 -0.5029 -1.7612  0.6238
  899MOL0     H21303   2.025   1.488   7.632 -3.6707  0.9853  0.6414
  899MOL0     H21304   1.980   1.250   7.506 -0.9115  0.0085 -0.7087
  899MOL0     H21305   2.001   1.195   7.671 -0.1220  0.3480  1.8780
  899MOL0     H21306   2.219   1.360   7.539 -1.2594  0.4519  1.9998
  899MOL0     H21307   2.239   1.267   7.677  0.8117  3.3426 -0.1850
  899MOL0     H21308   2.242   1.065   7.552 -2.0736  1.5410  1.9623
  899MOL0     H21309   2.162   1.115   7.413 -0.0984 -1.1424  0.6087
  899MOL0     H21310   2.343   1.298   7.363 -1.9392 -1.0698  1.1707
  899MOL0     H21311   2.438   1.240   7.493  0.4866  1.4573 -1.0225
  899MOL0     H21312   2.348   1.094   7.225 -0.1082 -1.1692  0.1235
  899MOL0     H21313   2.432   1.012   7.357  1.8703  0.2432  0.3888
  899MOL0     H21314   2.567   1.101   7.159 -1.9689  0.5790 -0.9363
  899MOL0     H21315   2.545   1.261   7.226  2.8994 -0.0345 -0.6765
  899MOL0     H21316   2.637   0.953   7.474  2.7864 -1.2412  2.3351
  899MOL0     H21317   2.832   0.927   7.625  0.3916 -0.7409  1.4009
  899MOL0     H21318   2.961   1.033   7.583 -1.1652 -1.2153 -0.6228
  899MOL0     H21319   2.863   1.215   7.710 -0.8482  0.1633  0.5101
  899MOL0     H21320   2.749   1.123   7.786  1.6408 -0.2841  2.2468
  899MOL0     H21321   2.916   0.998   7.918 -1.3843  0.9710 -0.1950
  899MOL0     H21322   2.963   1.160   7.925 -1.0669 -1.6195  2.6516
  899MOL0     H21323   3.119   1.131   7.745 -1.5055  0.1923  0.3085
  899MOL0     H21324   3.085   0.951   7.741  1.7699  0.0440 -0.9469
  899MOL0     H21325   3.369   1.092   8.083  0.6327  0.3818  1.0071
  899MOL0     H21326   3.608   1.043   8.080  0.6511 -0.3824  0.1810
  899MOL0     H21327   3.983   0.799   8.130  0.4776 -2.6410 -0.6957
  899MOL0     H21328   4.211   0.729   8.062  1.7160 -0.9149 -1.6114
  899MOL0     H21329   4.462   0.843   7.981 -4.9237  1.6314  0.1639
  899MOL0     H21330   4.415   0.675   7.959 -1.1036  0.0151 -0.2091
  899MOL0     H21331   4.539   0.678   7.738 -0.0115  1.2066 -0.9137
  899MOL0     H21332   4.589   0.837   7.763  2.9887 -1.6811 -2.0352
  899MOL0     H21333   4.790   0.757   7.874 -0.0031  0.6155  0.1052
  899MOL0     H21334   4.683   0.697   7.993 -2.1454  1.5044 -0.6713
  899MOL0     H21335   4.647   0.490   7.879  0.2062 -0.5809 -0.0684
  899MOL0     H21336   4.822   0.526   7.917 -0.7818  1.5606  1.8493
  899MOL0     H21337   4.834   0.607   7.674 -0.7091 -2.1067 -3.6766
  899MOL0     H21338   4.679   0.520   7.656  0.0097  1.9842 -0.6845
  899MOL0     H21339   4.952   0.410   7.706  0.5276  1.5099 -3.0591
  899MOL0     H21340   4.802   0.311   7.728  1.5513  1.2619  3.6282
  899MOL0     H21341   4.866   0.455   7.470 -0.4841  1.3818  1.4813
  899MOL0     H21342   4.753   0.321   7.488 -1.4986 -0.8826  3.7027
  899MOL0     H21343   5.060   0.315   7.499 -1.7449  2.4013  1.8262
  899MOL0     H21344   4.965   0.180   7.548  2.2175  1.2038  1.2760
  899MOL0     H21345   4.154   0.922   7.678  2.5936 -0.4905  0.3370
  899MOL0     H21346   3.938   0.985   7.742 -0.5610 -3.6637 -1.4916
  899MOL0     H21347   3.540   0.848   7.695  2.0370  1.1772  0.0316
  899MOL0     H21348   3.317   0.930   7.687  2.1293 -0.8570 -0.8909
  899MOL0     H21349   1.628   1.325   7.814  1.6968  1.0973 -2.0839
  899MOL0     H21350   1.400   1.374   7.883 -1.8470  1.0364  0.3978
  899MOL0     H21351   1.149   1.648   8.111 -0.9865 -2.7874 -0.6642
  899MOL0     H21352   0.949   1.730   8.218 -2.1200 -0.0129  0.0146
  899MOL0     H21353   0.611   1.642   8.009  0.5705 -0.8309  4.0766
  899MOL0     H21354   0.562   1.800   7.942  4.2192  1.0927 -0.1840
  899MOL0     H21355   0.462   1.854   8.168 -1.9917 -1.0848  0.2618
  899MOL0     H21356   0.532   1.705   8.231 -0.5522 -1.2488  0.7099
  899MOL0     H21357   0.382   1.570   8.119 -1.9726  0.0028 -0.4213
  899MOL0     H21358   0.339   1.696   8.003  0.9341  1.3771 -0.4316
  899MOL0     H21359   0.265   1.844   8.200  0.2318 -0.3934  0.1042
  899MOL0     H21360   0.162   1.716   8.156  0.7087  3.8923 -1.5877
  899MOL0     H21361   0.261   1.637   8.556 -0.6904  0.2363  0.0637
  899MOL0     H21362   0.779   1.792   7.826  1.0598  1.9648  0.7845
  899MOL0     H21363   0.981   1.649   7.629  3.1322 -0.0793  0.3679
  899MOL0     H21364   0.890   1.801   7.648  1.4675 -0.0254 -2.4657
  899MOL0     H21365   1.070   1.791   7.661  0.9087 -1.0238  1.2771
  900MOL0     O21366   3.727   0.126   0.877 -0.0237  0.1371 -0.4484
  900MOL0     C21367   3.710   0.005   0.883 -0.1316 -1.0786 -0.3419
  900MOL0     O21368   3.776  -0.079   0.974 -0.2146 -0.3212  0.0651
  900MOL0     C21369   3.850  -0.022   1.070 -0.7677 -0.6922  0.0455
  900MOL0     C21370   3.983  -0.068   1.077  0.3499  0.1735  0.3377
  900MOL0     C21371   4.075  -0.015   1.168 -0.6520 -0.1315 -0.3590
  900MOL0     C21372   4.038   0.085   1.249  0.2129 -0.2234 -0.0926
  900MOL0     O21373   4.128   0.141   1.333  0.1166 -0.7635 -0.3144
  900MOL0     C21374   4.256   0.186   1.281 -0.6375  0.9617 -0.1387
  900MOL0     C21375   4.270   0.332   1.317 -0.6933 -0.4021  0.5461
  900MOL0     C21376   4.376   0.390   1.224  0.0755  0.4409 -0.2170
  900MOL0     C21377   4.390   0.540   1.250 -0.3495 -0.1381 -0.6020
  900MOL0     C21378   4.511   0.607   1.186  0.7030 -0.0648 -0.3559
  900MOL0     C21379   4.541   0.562   1.036 -0.2933  0.1939 -0.6118
  900MOL0     C21380   4.670   0.618   0.983 -0.1053  0.0592 -0.7647
  900MOL0     C21381   4.794   0.542   1.028 -0.1872  0.4135  0.1609
  900MOL0     N21382   4.909   0.614   0.966 -0.0474 -0.2154 -0.3584
  900MOL0     C21383   4.985   0.569   0.855  0.4990  0.4563  0.5658
  900MOL0     C21384   5.080   0.662   0.832 -0.5586  0.0298 -0.1010
  900MOL0     C21385   5.205   0.646   0.750  0.1743  0.4158  0.3291
  900MOL0     C21386   5.331   0.711   0.819  0.1908  0.1719 -0.2450
  900MOL0     C21387   5.459   0.704   0.735  0.6181 -0.4302 -0.8074
  900MOL0     C21388   5.574   0.791   0.799 -0.1343 -0.0325  0.9467
  900MOL0     O21389   5.648   0.737   0.906  0.0644  0.2373 -0.1484
  900MOL0     C21390   5.748   0.806   0.968 -0.5730 -0.1888  0.5608
  900MOL0     C21391   5.772   0.938   0.927 -0.0686 -0.5067  0.3352
  900MOL0     C21392   5.880   1.005   0.994 -0.2692  1.0023  0.4900
  900MOL0     C21393   5.964   0.951   1.096  0.4652 -0.3306 -0.0646
  900MOL0     C21394   6.090   1.012   1.142 -0.1066  0.0961 -0.8854
  900MOL0     O21395   6.175   0.937   1.224 -0.4314 -0.0905 -0.3249
  900MOL0     C21396   6.263   0.995   1.312 -0.3035 -0.2473 -0.5012
  900MOL0     C21397   6.390   0.930   1.331  0.2739  0.2399  0.2103
  900MOL0     C21398   6.489   0.985   1.409  0.1186  1.2307 -1.3008
  900MOL0     C21399   6.461   1.099   1.486 -0.1198 -0.0670  0.1716
  900MOL0     O21400   6.556   1.156   1.565  1.4041 -0.1231  0.7215
  900MOL0     C21401   6.625   1.267   1.504 -0.1886 -0.7059  0.4757
  900MOL0     C21402   6.754   1.309   1.569 -0.0042  0.7385  0.0211
  900MOL0     C21403   6.731   1.366   1.715  0.0092 -0.5118 -0.1524
  900MOL0     C21404   6.844   1.461   1.756 -0.5365  0.1431  0.1762
  900MOL0     C21405   6.973   1.378   1.771 -0.4561  0.6157 -0.2159
  900MOL0     C21406   7.073   1.499   1.803  1.0764  0.5296  0.2390
  900MOL0     C21407   7.204   1.430   1.850 -0.3439 -0.4098  0.7215
  900MOL0     C21408   7.293   1.551   1.878  0.5802  0.3629 -0.0095
  900MOL0    Cl21409   7.439   1.482   1.953 -0.1809 -0.0512 -0.2540
  900MOL0     C21410   6.331   1.150   1.483  0.1083 -0.6590  0.1607
  900MOL0     C21411   6.241   1.109   1.389 -0.2383  0.1137  0.1520
  900MOL0     O21412   6.112   1.133   1.111  0.8434  0.1405 -0.0568
  900MOL0     C21413   5.927   0.817   1.129 -0.3420 -0.3196 -0.5639
  900MOL0     C21414   5.830   0.743   1.060 -0.1275  0.2508  0.7543
  900MOL0     N21415   5.068   0.750   0.935  0.2378 -1.3846  0.1604
  900MOL0     N21416   4.963   0.732   1.002  0.1774  0.3602  0.0363
  900MOL0     C21417   3.904   0.134   1.248  0.3120 -0.3492  0.7683
  900MOL0     C21418   3.807   0.081   1.157 -0.4924  0.6375  0.0478
  900MOL0     C21419   3.595  -0.045   0.811  0.0352 -0.0751 -0.1941
  900MOL0     C21420   3.529  -0.161   0.864 -0.8598 -0.4094 -0.0083
  900MOL0     C21421   3.406  -0.200   0.818 -0.2905 -0.1682 -0.5143
  900MOL0     C21422   3.351  -0.142   0.707 -0.1584 -0.4211  0.2169
  900MOL0     O21423   3.234  -0.184   0.654 -0.3767 -0.2048  0.1978
  900MOL0     C21424   3.170  -0.302   0.708 -0.7354  1.8042 -0.0700
  900MOL0     C21425   3.044  -0.346   0.629 -0.3291  0.3103 -0.3622
  900MOL0     C21426   2.971  -0.471   0.685 -0.6106 -0.0991  0.2626
  900MOL0     C21427   2.902  -0.459   0.815  0.0092  0.3574 -0.9837
  900MOL0     C21428   2.992  -0.472   0.918 -0.2822 -0.7164 -0.3445
  900MOL0     C21429   3.068  -0.498   1.012 -0.7760 -0.0352  0.3470
  900MOL0     C21430   3.409  -0.029   0.652  0.0288  0.3113  0.2555
  900MOL0     C21431   3.528   0.024   0.705 -0.5530 -0.2754  0.8320
  900MOL0     C21432   3.569   0.157   0.649  0.1753 -0.6966 -0.0994
  900MOL0     H21433   4.007  -0.135   0.995  0.1172  0.2282  0.2242
  900MOL0     H21434   4.177  -0.048   1.181 -1.1066 -0.4992  3.2983
  900MOL0     H21435   4.338   0.124   1.320 -1.4359 -0.7415 -1.0643
  900MOL0     H21436   4.247   0.189   1.172  0.1265  0.7878 -0.2169
  900MOL0     H21437   4.310   0.347   1.418  1.1385  0.8069 -0.3179
  900MOL0     H21438   4.179   0.392   1.307 -1.9119 -1.8982  2.0528
  900MOL0     H21439   4.347   0.377   1.119 -0.6178  1.7649 -0.2221
  900MOL0     H21440   4.472   0.345   1.247 -0.1199  0.7895  1.3557
  900MOL0     H21441   4.301   0.587   1.207 -0.7659 -0.3729 -0.0101
  900MOL0     H21442   4.390   0.570   1.355  0.5754  0.4257 -0.7445
  900MOL0     H21443   4.495   0.715   1.188  2.8712  0.3777 -2.5266
  900MOL0     H21444   4.593   0.588   1.256 -2.3407 -0.9300  3.3386
  900MOL0     H21445   4.554   0.453   1.032  0.5619  0.1949  1.1408
  900MOL0     H21446   4.455   0.601   0.980 -0.0470  2.6336  0.6001
  900MOL0     H21447   4.676   0.719   1.023 -0.1634  0.1701 -1.0345
  900MOL0     H21448   4.657   0.619   0.874 -3.4034  3.5808 -0.5473
  900MOL0     H21449   4.805   0.522   1.135  1.2253 -2.1145 -0.3586
  900MOL0     H21450   4.791   0.437   0.997 -3.6390  0.3847  0.1712
  900MOL0     H21451   4.968   0.467   0.822 -1.7001  1.5864 -2.1983
  900MOL0     H21452   5.221   0.542   0.720  0.8567  0.8628 -0.9300
  900MOL0     H21453   5.192   0.709   0.661  3.0505  1.5791  0.6155
  900MOL0     H21454   5.303   0.812   0.851 -0.4544 -0.5550  1.6176
  900MOL0     H21455   5.349   0.647   0.906 -1.1536 -0.3118 -0.2939
  900MOL0     H21456   5.439   0.742   0.635  0.0981  0.9031 -0.2309
  900MOL0     H21457   5.489   0.600   0.723 -1.0759 -1.2869  1.5598
  900MOL0     H21458   5.521   0.880   0.835 -0.4459 -0.4847  1.6193
  900MOL0     H21459   5.640   0.805   0.713  0.2781 -2.3646  0.8327
  900MOL0     H21460   5.708   0.998   0.863 -0.7190 -0.7517  0.7450
  900MOL0     H21461   5.902   1.110   0.979 -0.1625  0.7212 -1.6493
  900MOL0     H21462   6.411   0.837   1.280  1.8743 -0.3754  1.8672
  900MOL0     H21463   6.580   0.930   1.427 -1.3847 -0.9727  0.1121
  900MOL0     H21464   6.635   1.253   1.396 -2.5369  5.3097 -0.9280
  900MOL0     H21465   6.558   1.350   1.529  1.7721  1.2334 -0.3485
  900MOL0     H21466   6.829   1.229   1.566  0.9165  1.4346  2.3446
  900MOL0     H21467   6.799   1.386   1.506  2.3051  0.4740  1.2576
  900MOL0     H21468   6.635   1.417   1.729  0.4290 -0.3706  2.9563
  900MOL0     H21469   6.722   1.304   1.805 -0.9562  2.1177  1.6983
  900MOL0     H21470   6.834   1.500   1.858  3.5849  0.2686  0.7280
  900MOL0     H21471   6.859   1.546   1.689  4.2667 -1.6310 -1.4331
  900MOL0     H21472   7.016   1.325   1.685 -0.4903 -0.0519  0.1723
  900MOL0     H21473   6.966   1.300   1.847 -0.1937  0.1204 -0.6866
  900MOL0     H21474   7.095   1.556   1.713  1.6980 -1.0355 -0.6475
  900MOL0     H21475   7.033   1.559   1.885  1.7902  1.2439  0.0688
  900MOL0     H21476   7.240   1.363   1.771 -1.6174 -1.3673  0.9185
  900MOL0     H21477   7.202   1.364   1.937  1.3789 -1.6964 -0.1494
  900MOL0     H21478   7.323   1.600   1.784  1.6002 -2.0277 -1.0048
  900MOL0     H21479   7.253   1.626   1.946  0.7726 -0.7079  1.3166
  900MOL0     H21480   6.306   1.222   1.559  0.2367 -1.3495  0.8662
  900MOL0     H21481   6.146   1.159   1.373 -0.4239 -0.3751 -0.3006
  900MOL0     H21482   5.995   0.769   1.199 -0.2122  0.6582 -0.0033
  900MOL0     H21483   5.816   0.640   1.091  1.6246 -0.2927 -0.1459
  900MOL0     H21484   3.869   0.203   1.324  2.0812  0.3279  1.0102
  900MOL0     H21485   3.706   0.118   1.147  0.4690  3.0223 -1.9616
  900MOL0     H21486   3.573  -0.226   0.939  1.8659  1.0045 -0.2623
  900MOL0     H21487   3.363  -0.284   0.872 -0.8119  0.7877  0.5926
  900MOL0     H21488   3.129  -0.289   0.809 -0.4488 -1.6479  0.6100
  900MOL0     H21489   3.244  -0.382   0.715 -1.0297  1.4993 -0.4307
  900MOL0     H21490   3.081  -0.359   0.527  2.0917  3.4512 -0.0419
  900MOL0     H21491   2.968  -0.267   0.632 -1.5380 -0.7212 -1.9354
  900MOL0     H21492   3.037  -0.558   0.692 -2.3185 -1.3002  3.5061
  900MOL0     H21493   2.896  -0.498   0.610 -1.2149 -1.1144  1.2037
  900MOL0     H21494   2.859  -0.359   0.811 -1.2576 -0.2003 -1.7452
  900MOL0     H21495   2.817  -0.524   0.838 -1.1493  2.2970  0.5318
  900MOL0     H21496   3.132  -0.526   1.093  1.3660  5.5979  1.0677
  900MOL0     H21497   3.375   0.024   0.564  2.2395  1.9809  0.3373
  900MOL0     H21498   3.515   0.201   0.564  2.2619  1.1610 -0.5610
  900MOL0     H21499   3.566   0.238   0.723 -0.6733  0.2858 -1.1611
  900MOL0     H21500   3.674   0.146   0.621  0.3091  0.7287 -0.2524
  901MOL0     O21501   8.875   6.836  10.857 -0.3462  0.0236 -0.4231
  901MOL0     C21502   8.796   6.895  10.929  0.1436  0.0335  0.1396
  901MOL0     O21503   8.817   6.929  11.062 -0.2606 -0.6621  0.2463
  901MOL0     C21504   8.933   6.899  11.128  1.0163  0.3108 -1.0191
  901MOL0     C21505   8.951   6.985  11.237 -0.3499 -0.8429 -1.1279
  901MOL0     C21506   9.063   6.969  11.323  0.5774  0.0871  0.4662
  901MOL0     C21507   9.158   6.873  11.287 -0.3513  0.0804  0.4367
  901MOL0     O21508   9.273   6.870  11.362 -0.0049  0.7391  0.2303
  901MOL0     C21509   9.393   6.824  11.298 -0.0429 -0.6592 -0.1455
  901MOL0     C21510   9.503   6.779  11.393 -0.4393  0.6899 -0.8337
  901MOL0     C21511   9.516   6.875  11.511 -0.1750 -0.0004  0.7275
  901MOL0     C21512   9.619   6.821  11.608 -0.8918 -0.3516  0.2899
  901MOL0     C21513   9.637   6.931  11.715  0.6175 -0.4022 -0.2002
  901MOL0     C21514   9.738   6.903  11.820  0.4348  0.3158 -0.1997
  901MOL0     C21515   9.888   6.883  11.774 -0.9775  0.4805  0.4645
  901MOL0     C21516   9.974   6.809  11.870 -0.5838 -0.5153  0.2177
  901MOL0     N21517  10.003   6.867  12.006  0.0313  0.1124 -0.0739
  901MOL0     C21518   9.898   6.883  12.093 -0.0060 -0.1067  0.1005
  901MOL0     C21519   9.960   6.879  12.214  0.0351 -0.1611 -0.4543
  901MOL0     C21520   9.883   6.902  12.349 -0.0050 -0.5191  0.1520
  901MOL0     C21521   9.940   7.032  12.409  0.4914 -0.4742  0.9303
  901MOL0     C21522   9.867   7.075  12.534  0.6380 -0.6353 -0.7816
  901MOL0     C21523   9.876   7.228  12.543  0.3788  0.2467 -0.6238
  901MOL0     O21524   9.786   7.282  12.637  0.1887  0.3769 -0.0823
  901MOL0     C21525   9.649   7.257  12.623  1.0295  0.0441 -0.7924
  901MOL0     C21526   9.565   7.279  12.739  0.0320  0.1124  0.3842
  901MOL0     C21527   9.422   7.272  12.734 -0.6950 -0.1342  0.0052
  901MOL0     C21528   9.358   7.238  12.615  0.5477 -0.5074  0.0903
  901MOL0     C21529   9.210   7.220  12.604  0.4045 -0.3755 -0.4696
  901MOL0     O21530   9.157   7.161  12.491  0.8683 -0.0674 -0.7026
  901MOL0     C21531   9.036   7.102  12.512 -0.2054 -0.0609 -0.8835
  901MOL0     C21532   9.017   7.021  12.621 -0.2963  0.5347 -0.0005
  901MOL0     C21533   8.884   6.961  12.634  0.9701 -0.6305 -0.5573
  901MOL0     C21534   8.777   7.001  12.552  0.7023  0.1219 -0.5583
  901MOL0     O21535   8.652   6.944  12.567 -0.3676 -0.0657  0.1712
  901MOL0     C21536   8.606   6.902  12.696 -0.4338 -0.5788 -0.5122
  901MOL0     C21537   8.446   6.881  12.691  0.2424  0.2999  0.2486
  901MOL0     C21538   8.421   6.813  12.561  0.3866  0.5875 -0.1144
  901MOL0     C21539   8.265   6.772  12.548 -0.4806 -0.2517  0.4993
  901MOL0     C21540   8.232   6.709  12.413 -0.1338 -0.2012 -0.9565
  901MOL0     C21541   8.078   6.695  12.398  0.1036 -0.4971 -1.0578
  901MOL0     C21542   8.055   6.610  12.270 -0.0084  0.1373 -0.7984
  901MOL0     C21543   7.919   6.615  12.221  0.9743 -0.1831 -0.6179
  901MOL0    Cl21544   7.806   6.524  12.329  0.4869  0.2807  0.0360
  901MOL0     C21545   8.805   7.087  12.443  0.4998 -1.0282 -0.2955
  901MOL0     C21546   8.933   7.133  12.425 -0.1930 -0.5386 -0.6722
  901MOL0     O21547   9.147   7.256  12.703 -0.7218  0.2042  0.3107
  901MOL0     C21548   9.440   7.215  12.498 -0.4319 -0.9202 -0.0863
  901MOL0     C21549   9.578   7.231  12.507 -0.8829 -0.5929 -0.1857
  901MOL0     N21550  10.091   6.860  12.194  0.2127  0.5617 -1.2065
  901MOL0     N21551  10.122   6.847  12.069  0.1527 -0.7063 -0.0495
  901MOL0     C21552   9.131   6.780  11.186  0.5406  0.5092 -0.4619
  901MOL0     C21553   9.013   6.789  11.118  0.3313  0.3439  0.4237
  901MOL0     C21554   8.666   6.935  10.866  0.3555 -0.0248  0.0791
  901MOL0     C21555   8.608   7.042  10.937 -0.0337  0.7354  0.3399
  901MOL0     C21556   8.483   7.102  10.898  0.3323  0.7605 -0.0430
  901MOL0     C21557   8.416   7.041  10.798  0.3234  0.5964  0.9034
  901MOL0     O21558   8.292   7.099  10.771  0.4124  1.0185 -0.6189
  901MOL0     C21559   8.214   7.045  10.665  0.1423 -0.0200  0.1721
  901MOL0     C21560   8.067   7.098  10.664 -0.1238 -0.3014  0.3286
  901MOL0     C21561   7.989   7.032  10.548 -0.7883 -0.5094  0.0768
  901MOL0     C21562   7.829   7.039  10.571  0.0950 -0.6788  0.1956
  901MOL0     C21563   7.782   7.170  10.533  0.0633  0.3922 -0.1594
  901MOL0     C21564   7.741   7.282  10.510  0.1000 -1.1109 -0.4473
  901MOL0     C21565   8.469   6.927  10.743 -0.1378  0.0106 -0.8019
  901MOL0     C21566   8.594   6.871  10.772  0.0599  0.2071 -0.2426
  901MOL0     C21567   8.626   6.743  10.713 -0.1241 -0.1811  0.3216
  901MOL0     H21568   8.871   7.057  11.251  0.6286  0.4205 -1.9114
  901MOL0     H21569   9.098   7.024  11.410  1.2495  3.6275 -1.8528
  901MOL0     H21570   9.374   6.735  11.236 -1.6192 -1.2941  1.1632
  901MOL0     H21571   9.432   6.904  11.234  2.6942 -0.9733  1.0297
  901MOL0     H21572   9.598   6.783  11.339  1.5279 -1.4386  2.1960
  901MOL0     H21573   9.486   6.676  11.425  2.7474 -0.1922 -1.6508
  901MOL0     H21574   9.422   6.877  11.568  0.8274 -0.0554  2.4371
  901MOL0     H21575   9.532   6.977  11.475 -0.2223 -0.2626 -0.0555
  901MOL0     H21576   9.602   6.723  11.654  2.5440 -2.4320 -2.3538
  901MOL0     H21577   9.711   6.809  11.550 -2.4680 -1.0215 -2.2854
  901MOL0     H21578   9.666   7.030  11.676  3.4982 -0.4234  1.6070
  901MOL0     H21579   9.539   6.944  11.761  0.8071 -0.3616  0.1987
  901MOL0     H21580   9.733   6.985  11.892 -2.8537 -0.2013  0.3420
  901MOL0     H21581   9.706   6.809  11.866  3.2300 -0.3905  0.4484
  901MOL0     H21582   9.933   6.977  11.742 -1.7483  0.8950  0.5971
  901MOL0     H21583   9.885   6.821  11.683 -0.2721 -1.0678  1.4514
  901MOL0     H21584   9.938   6.709  11.896  0.2395 -0.4664  1.7140
  901MOL0     H21585  10.073   6.796  11.825 -0.7647  0.4171 -0.4803
  901MOL0     H21586   9.790   6.891  12.082 -0.0222 -1.6316 -1.1931
  901MOL0     H21587   9.775   6.906  12.333  0.2652  0.9905 -1.6802
  901MOL0     H21588   9.918   6.825  12.419  0.0777  0.4644  1.2174
  901MOL0     H21589  10.044   7.016  12.438  1.0976 -0.2454 -0.9778
  901MOL0     H21590   9.940   7.109  12.331  0.4805 -1.1070  0.2933
  901MOL0     H21591   9.920   7.029  12.618  0.3803 -0.0459 -0.2889
  901MOL0     H21592   9.762   7.045  12.537  0.4182  0.2082  1.0379
  901MOL0     H21593   9.853   7.267  12.443 -3.2897 -1.6135 -0.6948
  901MOL0     H21594   9.978   7.266  12.557  0.9095 -0.6339 -1.8528
  901MOL0     H21595   9.617   7.304  12.831 -0.0971  5.4754 -0.6812
  901MOL0     H21596   9.351   7.284  12.815  0.1888  1.5527  0.5742
  901MOL0     H21597   9.101   7.001  12.686 -0.5943  0.0423  0.2425
  901MOL0     H21598   8.865   6.899  12.722 -2.6764  1.4324  0.3378
  901MOL0     H21599   8.652   6.805  12.718 -0.8703 -0.4556  1.1030
  901MOL0     H21600   8.635   6.971  12.775 -1.1881 -2.2569  1.3382
  901MOL0     H21601   8.404   6.831  12.779 -1.6952  3.1453  1.0878
  901MOL0     H21602   8.396   6.978  12.690 -1.3665 -0.4813  1.3915
  901MOL0     H21603   8.447   6.878  12.477 -1.2213 -0.7625 -1.7481
  901MOL0     H21604   8.478   6.720  12.553  0.0205  0.3019  0.5330
  901MOL0     H21605   8.202   6.861  12.551  1.6060  1.4116 -1.6117
  901MOL0     H21606   8.237   6.706  12.631 -0.5468 -1.4867 -0.4777
  901MOL0     H21607   8.279   6.610  12.408 -2.9112 -1.5776 -2.0287
  901MOL0     H21608   8.264   6.779  12.335 -1.4286  1.2045 -0.2817
  901MOL0     H21609   8.015   6.647  12.473  0.6759 -0.6438 -0.6659
  901MOL0     H21610   8.038   6.796  12.388 -0.7253 -0.6055  0.8362
  901MOL0     H21611   8.089   6.507  12.278 -1.0990 -0.2731 -1.1997
  901MOL0     H21612   8.116   6.651  12.189  0.1262  0.3755 -0.5789
  901MOL0     H21613   7.884   6.719  12.225  0.7754 -0.2899  2.1105
  901MOL0     H21614   7.910   6.576  12.119 -2.1639  0.0841 -0.5544
  901MOL0     H21615   8.730   7.117  12.371  1.6929  1.4283 -0.6193
  901MOL0     H21616   8.953   7.186  12.332 -0.8638 -0.4632 -0.7790
  901MOL0     H21617   9.401   7.196  12.399  0.8877  1.9166 -1.2470
  901MOL0     H21618   9.621   7.218  12.408  2.2268 -0.6123  1.0724
  901MOL0     H21619   9.203   6.704  11.155  0.4042  0.0526  0.3069
  901MOL0     H21620   8.995   6.723  11.033 -0.1332  1.9108 -0.7416
  901MOL0     H21621   8.650   7.105  11.015 -1.6379  0.6921  1.2783
  901MOL0     H21622   8.450   7.199  10.930 -0.5498  0.4467  0.0149
  901MOL0     H21623   8.182   6.944  10.695 -1.2173  0.4182  0.2605
  901MOL0     H21624   8.267   7.050  10.569  0.1532  0.4428  0.2033
  901MOL0     H21625   8.073   7.207  10.654  0.4520 -0.2647  1.0090
  901MOL0     H21626   8.010   7.079  10.755 -1.7453 -3.0645 -1.1175
  901MOL0     H21627   8.030   6.932  10.532  0.6708  0.1049 -0.1928
  901MOL0     H21628   8.003   7.085  10.453 -0.2692 -2.6525 -1.1142
  901MOL0     H21629   7.781   6.961  10.512  1.9303 -0.7850 -1.2740
  901MOL0     H21630   7.805   7.032  10.677  3.4539 -2.4248  0.9777
  901MOL0     H21631   7.699   7.377  10.484 -1.0724 -1.5813 -0.3397
  901MOL0     H21632   8.402   6.880  10.671  0.2043 -2.0033  0.1284
  901MOL0     H21633   8.642   6.671  10.793 -2.2257 -2.9218 -1.5137
  901MOL0     H21634   8.547   6.712  10.644  0.3924 -0.1442 -0.2953
  901MOL0     H21635   8.711   6.750  10.645 -1.7068  1.6351 -1.6328
  902MOL0     O21636   0.315   5.818  10.360  0.1818  0.4164  0.6365
  902MOL0     C21637   0.261   5.899  10.284 -0.6023  1.0095 -0.5430
  902MOL0     O21638   0.214   6.019  10.324  0.3367 -0.5518  0.2517
  902MOL0     C21639   0.240   6.068  10.443  0.1734 -0.0126  0.0882
  902MOL0     C21640   0.157   6.050  10.547 -0.2825 -0.3231 -0.0770
  902MOL0     C21641   0.194   6.096  10.676  1.2763 -0.0531 -0.3650
  902MOL0     C21642   0.305   6.174  10.697  0.8341 -0.1634  0.1359
  902MOL0     O21643   0.322   6.224  10.823  0.5755  0.3387 -0.3873
  902MOL0     C21644   0.447   6.275  10.860  0.6726 -0.1257  0.6413
  902MOL0     C21645   0.459   6.286  11.010  0.0062  0.0232 -0.3971
  902MOL0     C21646   0.599   6.323  11.071 -0.1528 -0.3277 -0.3232
  902MOL0     C21647   0.582   6.330  11.226 -0.3115 -1.1043 -0.5646
  902MOL0     C21648   0.714   6.360  11.306 -0.4936  0.1291 -0.3537
  902MOL0     C21649   0.813   6.245  11.295 -0.1582 -0.1539 -0.0517
  902MOL0     C21650   0.943   6.274  11.385  0.4580  0.0217  0.2777
  902MOL0     C21651   0.933   6.306  11.535 -0.3408  0.4236 -1.1911
  902MOL0     N21652   1.056   6.316  11.611 -0.0574  0.0451 -0.1989
  902MOL0     C21653   1.072   6.401  11.722 -0.1546 -0.3076  0.2598
  902MOL0     C21654   1.178   6.351  11.793  0.3520  0.3257 -0.4259
  902MOL0     C21655   1.243   6.414  11.910  0.1143 -0.4540 -0.3153
  902MOL0     C21656   1.374   6.497  11.884 -0.5820  0.2785  0.1504
  902MOL0     C21657   1.457   6.526  12.012 -0.4777  0.0050 -0.2790
  902MOL0     C21658   1.528   6.404  12.079 -0.8051 -0.1540  0.0783
  902MOL0     O21659   1.587   6.441  12.208 -1.1175 -1.1335 -0.6726
  902MOL0     C21660   1.713   6.500  12.204 -0.1371 -0.3686 -0.2988
  902MOL0     C21661   1.765   6.536  12.324  0.7659 -0.6517 -0.6756
  902MOL0     C21662   1.886   6.613  12.336  0.0106 -1.6888  0.2232
  902MOL0     C21663   1.972   6.627  12.219  0.6029  0.3421 -0.5681
  902MOL0     C21664   2.099   6.696  12.232  0.6218 -0.3487  0.2196
  902MOL0     O21665   2.152   6.692  12.357 -0.1058  0.6147 -0.1912
  902MOL0     C21666   2.261   6.780  12.396  0.7458 -0.2695 -0.1858
  902MOL0     C21667   2.262   6.919  12.356 -0.2176  0.1671  0.0395
  902MOL0     C21668   2.362   6.995  12.404  0.2500 -0.5823 -0.4382
  902MOL0     C21669   2.466   6.937  12.482 -0.3686 -0.2676 -0.0497
  902MOL0     O21670   2.562   7.014  12.548 -0.6799  0.0662  0.7766
  902MOL0     C21671   2.521   7.111  12.637 -0.2045  0.5976 -0.7743
  902MOL0     C21672   2.457   7.046  12.760 -1.3794  0.7848  0.5810
  902MOL0     C21673   2.418   7.131  12.870 -0.1651  0.0200 -0.5385
  902MOL0     C21674   2.306   7.221  12.825 -0.3359 -0.5843 -0.5682
  902MOL0     C21675   2.247   7.305  12.933 -0.2107  0.2263 -0.1450
  902MOL0     C21676   2.108   7.367  12.898 -0.1615  0.5579 -0.3505
  902MOL0     C21677   2.064   7.454  13.018 -0.2255 -0.0783  0.6250
  902MOL0     C21678   1.940   7.545  12.996  0.1225 -0.5864 -0.6933
  902MOL0    Cl21679   1.955   7.657  12.848 -0.2606 -0.1957  0.1229
  902MOL0     C21680   2.473   6.804  12.512  0.7113  0.0630  0.3348
  902MOL0     C21681   2.363   6.726  12.471 -0.5390 -0.2404 -0.2602
  902MOL0     O21682   2.139   6.763  12.135 -0.6331  0.1136 -0.2589
  902MOL0     C21683   1.926   6.580  12.098  0.3978 -0.1407  0.3346
  902MOL0     C21684   1.792   6.527  12.090 -0.8561 -0.5656  0.6432
  902MOL0     N21685   1.223   6.242  11.727 -0.0797  0.7112 -0.0808
  902MOL0     N21686   1.161   6.220  11.614  0.5314 -0.6779 -0.4153
  902MOL0     C21687   0.394   6.188  10.588 -0.2717 -0.6094  0.1083
  902MOL0     C21688   0.359   6.144  10.461  1.0402  0.0177  0.4477
  902MOL0     C21689   0.269   5.873  10.141 -0.2332  0.1553 -0.2576
  902MOL0     C21690   0.311   5.989  10.065 -0.0151  0.4338 -0.1709
  902MOL0     C21691   0.315   5.975   9.928 -0.4096 -0.7545 -0.5073
  902MOL0     C21692   0.274   5.867   9.858  0.5857  0.1146  0.1678
  902MOL0     O21693   0.265   5.854   9.723  0.9880 -0.5367  0.7412
  902MOL0     C21694   0.327   5.961   9.651  0.3979 -1.3810  0.9039
  902MOL0     C21695   0.368   5.886   9.520 -0.1820  0.1035 -0.3110
  902MOL0     C21696   0.251   5.838   9.431 -0.2892  0.3610  0.1815
  902MOL0     C21697   0.259   5.698   9.365 -0.1215  0.4494 -0.1008
  902MOL0     C21698   0.386   5.672   9.296  0.8380 -0.7218 -0.7246
  902MOL0     C21699   0.491   5.650   9.244 -0.8996  0.7251 -0.5103
  902MOL0     C21700   0.243   5.750   9.937  0.0954 -0.6064 -0.1212
  902MOL0     C21701   0.234   5.756  10.078 -0.1909  0.2034  0.1167
  902MOL0     C21702   0.191   5.636  10.140 -0.8423  0.1629 -0.5618
  902MOL0     H21703   0.060   6.003  10.531  0.3432 -1.2203 -1.3487
  902MOL0     H21704   0.126   6.088  10.760 -0.2151  1.1755 -1.3921
  902MOL0     H21705   0.520   6.198  10.834 -0.6925 -2.4103  3.1178
  902MOL0     H21706   0.455   6.370  10.806 -0.9106  0.1117  0.7865
  902MOL0     H21707   0.428   6.192  11.058  1.7813 -0.4517 -0.1015
  902MOL0     H21708   0.390   6.365  11.042 -0.0899  0.0100 -0.5703
  902MOL0     H21709   0.627   6.425  11.041 -1.7935  0.6206  1.1371
  902MOL0     H21710   0.670   6.247  11.039  0.7144  1.2238 -2.3017
  902MOL0     H21711   0.509   6.408  11.250  0.8338  0.4010 -1.7743
  902MOL0     H21712   0.539   6.240  11.271 -2.6405  0.1367 -0.1887
  902MOL0     H21713   0.757   6.454  11.272 -0.6087  1.0008  1.7123
  902MOL0     H21714   0.690   6.371  11.412 -1.9353 -1.7238 -0.4361
  902MOL0     H21715   0.776   6.148  11.329  0.9765  0.0450  1.8688
  902MOL0     H21716   0.837   6.234  11.188  3.3693 -0.2279  0.6195
  902MOL0     H21717   0.984   6.358  11.327 -1.6041  0.4911 -0.5878
  902MOL0     H21718   1.008   6.187  11.372  1.1365  0.4444  0.7666
  902MOL0     H21719   0.873   6.393  11.562  0.6234  1.1160 -1.2220
  902MOL0     H21720   0.878   6.228  11.588 -2.1904  1.9015 -0.8551
  902MOL0     H21721   1.018   6.492  11.746 -1.6438 -1.8596  3.3842
  902MOL0     H21722   1.179   6.493  11.949  2.6989  0.8649  1.5019
  902MOL0     H21723   1.262   6.335  11.983  3.1260 -1.6225 -2.1413
  902MOL0     H21724   1.440   6.440  11.818 -2.4255 -2.0368  0.1780
  902MOL0     H21725   1.350   6.586  11.825  1.0213 -0.5211 -1.8017
  902MOL0     H21726   1.386   6.567  12.084 -0.2028 -1.0099  0.5967
  902MOL0     H21727   1.528   6.606  11.988  1.9514 -1.9321  0.1226
  902MOL0     H21728   1.605   6.360  12.013 -0.5873  1.0075 -0.4694
  902MOL0     H21729   1.453   6.325  12.086  0.4319 -1.2978  0.9658
  902MOL0     H21730   1.701   6.512  12.408  0.0139  0.0540 -1.0424
  902MOL0     H21731   1.920   6.634  12.437  0.8543  0.8330 -0.5129
  902MOL0     H21732   2.179   6.970  12.308 -0.0125  0.7344  0.2833
  902MOL0     H21733   2.366   7.102  12.383 -3.9382 -0.3267 -0.6453
  902MOL0     H21734   2.608   7.167  12.671  0.3527  0.4985 -1.9840
  902MOL0     H21735   2.460   7.190  12.594 -1.6525 -0.7226 -1.2453
  902MOL0     H21736   2.370   6.984  12.737  1.0126 -2.7162  0.3363
  902MOL0     H21737   2.534   6.975  12.790 -0.4712  0.2457 -2.6542
  902MOL0     H21738   2.373   7.066  12.946 -0.2503 -0.5052 -1.0251
  902MOL0     H21739   2.501   7.190  12.910  1.6878 -3.2669  0.9016
  902MOL0     H21740   2.221   7.161  12.790 -0.6768 -1.1030  1.0675
  902MOL0     H21741   2.343   7.288  12.747  3.0765  1.5192  2.5244
  902MOL0     H21742   2.310   7.394  12.936 -1.7882  1.5935 -3.0240
  902MOL0     H21743   2.252   7.246  13.024  0.1764 -0.8034 -0.8173
  902MOL0     H21744   2.119   7.430  12.810  3.0498  0.5897 -0.0432
  902MOL0     H21745   2.035   7.287  12.882  0.3719 -0.0288  0.0886
  902MOL0     H21746   2.148   7.520  13.041 -0.9391  1.7615 -1.6527
  902MOL0     H21747   2.032   7.382  13.094  1.5440 -1.4187  0.1612
  902MOL0     H21748   1.849   7.485  12.993  1.9856 -3.6176 -0.6824
  902MOL0     H21749   1.911   7.610  13.080  2.3375 -0.5682  0.1318
  902MOL0     H21750   2.548   6.754  12.572  1.5376  0.8072 -0.0702
  902MOL0     H21751   2.366   6.623  12.505 -0.7466 -0.6682 -1.5092
  902MOL0     H21752   1.972   6.599  12.002 -0.0803 -2.4448 -0.4187
  902MOL0     H21753   1.765   6.499  11.989  0.4967 -0.6607  0.2854
  902MOL0     H21754   0.488   6.240  10.604 -0.3661 -0.1054 -0.9309
  902MOL0     H21755   0.432   6.149  10.380  0.6637 -1.9255 -0.0655
  902MOL0     H21756   0.331   6.080  10.119 -1.1038 -0.2843  1.5500
  902MOL0     H21757   0.333   6.072   9.882 -2.6476 -0.9764 -2.0342
  902MOL0     H21758   0.420   6.002   9.693  0.3092  2.2697 -1.8886
  902MOL0     H21759   0.250   6.035   9.628  3.2968  1.3672 -0.7687
  902MOL0     H21760   0.430   5.802   9.555 -0.4682  1.4682  4.0342
  902MOL0     H21761   0.440   5.947   9.465 -0.0406  2.9501  2.7098
  902MOL0     H21762   0.234   5.910   9.350 -0.4340  2.9945  2.4028
  902MOL0     H21763   0.159   5.848   9.490  0.1207 -1.5020  1.2297
  902MOL0     H21764   0.236   5.612   9.428  0.6591 -0.1775 -0.6437
  902MOL0     H21765   0.177   5.712   9.294 -0.1847  0.2537 -0.0651
  902MOL0     H21766   0.588   5.650   9.199 -1.8273  1.1017 -2.6066
  902MOL0     H21767   0.209   5.666   9.877  1.1031  1.4084 -3.8048
  902MOL0     H21768   0.135   5.573  10.070  1.9094 -1.0796 -1.8128
  902MOL0     H21769   0.281   5.580  10.166 -1.0408 -0.1608 -0.5629
  902MOL0     H21770   0.128   5.651  10.228 -2.6485 -4.3622 -0.8122
  903MOL0     O21771   5.274   0.039   7.413 -0.6951  0.2376 -0.0103
  903MOL0     C21772   5.317  -0.012   7.304  0.6642 -0.0606  0.1184
  903MOL0     O21773   5.449  -0.026   7.270  0.1919 -0.3542  0.6474
  903MOL0     C21774   5.548   0.038   7.347  0.0600 -0.9448  0.1960
  903MOL0     C21775   5.551   0.047   7.492  0.2832 -0.2292  0.7397
  903MOL0     C21776   5.655   0.106   7.554  0.2438  0.4701 -0.0153
  903MOL0     C21777   5.762   0.151   7.477  0.2489  0.0756 -0.3733
  903MOL0     O21778   5.865   0.201   7.547 -0.2168 -0.2017 -0.9622
  903MOL0     C21779   5.999   0.195   7.498 -0.5892 -0.3594 -0.5553
  903MOL0     C21780   6.086   0.212   7.621  0.2276  0.6012 -0.5009
  903MOL0     C21781   6.239   0.217   7.589  0.7023 -0.0227 -0.7291
  903MOL0     C21782   6.318   0.164   7.708 -0.3044  0.2813 -0.5003
  903MOL0     C21783   6.474   0.144   7.677  0.1759  0.7150  0.5634
  903MOL0     C21784   6.561   0.083   7.791 -0.4606  0.0076  0.5239
  903MOL0     C21785   6.699   0.060   7.732 -0.3254 -0.5180  0.4913
  903MOL0     C21786   6.786  -0.004   7.838 -0.2959  0.1267 -0.3570
  903MOL0     N21787   6.930   0.016   7.820 -0.0140 -0.6234 -0.0861
  903MOL0     C21788   7.004   0.011   7.701  0.1228 -0.1077  0.1293
  903MOL0     C21789   7.130   0.068   7.727  0.3617  0.3264 -0.0316
  903MOL0     C21790   7.246   0.080   7.637 -0.1485  0.8108 -0.1160
  903MOL0     C21791   7.333  -0.046   7.647 -0.6304  0.1187  0.1521
  903MOL0     C21792   7.465  -0.028   7.573 -0.9253 -0.2701 -0.0099
  903MOL0     C21793   7.562  -0.139   7.608  0.2053  0.2169 -0.2424
  903MOL0     O21794   7.648  -0.176   7.497 -0.2717  0.4674  0.0389
  903MOL0     C21795   7.772  -0.115   7.485 -0.1246  0.2735 -0.6432
  903MOL0     C21796   7.840  -0.144   7.367 -0.4554 -0.3363 -0.4317
  903MOL0     C21797   7.967  -0.088   7.334  0.5257  0.7017 -0.5760
  903MOL0     C21798   8.027   0.004   7.426  0.4921 -0.6800 -0.1054
  903MOL0     C21799   8.157   0.062   7.398  0.1789 -0.6499  0.0207
  903MOL0     O21800   8.198   0.054   7.269 -0.6870  0.1340  0.0600
  903MOL0     C21801   8.316   0.115   7.221 -0.2373 -0.1859  0.5356
  903MOL0     C21802   8.412   0.027   7.163  1.0002 -0.6990 -0.3129
  903MOL0     C21803   8.526   0.084   7.109  0.2938 -0.1366  0.0197
  903MOL0     C21804   8.562   0.225   7.120  0.2443  0.0474 -0.0736
  903MOL0     O21805   8.671   0.287   7.062  0.0386 -0.3693 -0.3056
  903MOL0     C21806   8.731   0.250   6.940 -0.3844  0.1096 -0.2843
  903MOL0     C21807   8.880   0.236   6.984 -0.4672  0.6117  0.6852
  903MOL0     C21808   8.969   0.170   6.876  0.0762  0.2142  0.2574
  903MOL0     C21809   9.119   0.186   6.916  0.1759  0.3176 -0.1119
  903MOL0     C21810   9.224   0.128   6.820 -0.3571  0.0312 -1.1329
  903MOL0     C21811   9.364   0.142   6.884  0.8543 -0.5155 -0.9474
  903MOL0     C21812   9.476   0.120   6.788  0.2953  0.9727  0.2227
  903MOL0     C21813   9.604   0.119   6.863  0.0870 -0.0474  0.1755
  903MOL0    Cl21814   9.725   0.112   6.743  0.2314 -0.0202  0.6961
  903MOL0     C21815   8.467   0.307   7.185 -0.0011 -0.2692  0.4970
  903MOL0     C21816   8.351   0.250   7.235  0.3732  0.7288  0.8970
  903MOL0     O21817   8.223   0.122   7.487 -0.1150 -0.0206 -0.0491
  903MOL0     C21818   7.948   0.032   7.540  1.0013 -0.2442 -0.4704
  903MOL0     C21819   7.833  -0.031   7.576  0.1796  0.6750  0.3322
  903MOL0     N21820   7.130   0.095   7.865 -0.1909  0.7493 -0.5346
  903MOL0     N21821   7.015   0.069   7.917  0.3370 -0.1145 -0.9063
  903MOL0     C21822   5.767   0.142   7.341  0.5768  0.4015  0.1256
  903MOL0     C21823   5.659   0.088   7.275 -0.3216 -1.0342 -0.3298
  903MOL0     C21824   5.215  -0.054   7.208  0.5690  0.8772  0.2411
  903MOL0     C21825   5.235  -0.034   7.072  0.5550  0.1420  0.1218
  903MOL0     C21826   5.137  -0.073   6.976 -1.0464 -1.0609  0.1880
  903MOL0     C21827   5.008  -0.108   7.023 -0.7263 -0.4028 -0.5378
  903MOL0     O21828   4.904  -0.124   6.937  0.5602  0.4366  0.3987
  903MOL0     C21829   4.887  -0.013   6.840 -0.0024  1.3271  0.6309
  903MOL0     C21830   4.751  -0.036   6.771  0.3697  0.2256 -0.8223
  903MOL0     C21831   4.643  -0.012   6.876 -0.3600 -0.7347 -0.2336
  903MOL0     C21832   4.539  -0.116   6.878 -0.1672 -0.6009  0.6309
  903MOL0     C21833   4.482  -0.114   7.012  0.1684  0.0401  0.0152
  903MOL0     C21834   4.428  -0.136   7.120  0.2134 -0.0998 -0.0093
  903MOL0     C21835   4.995  -0.141   7.158  0.1806  0.5693  0.2216
  903MOL0     C21836   5.094  -0.121   7.253  0.3479 -0.2916  0.1161
  903MOL0     C21837   5.066  -0.166   7.396 -0.3405 -0.8721  0.5779
  903MOL0     H21838   5.469   0.014   7.555  0.8213 -0.3222  1.3979
  903MOL0     H21839   5.655   0.123   7.661 -0.4787 -1.0373  0.2505
  903MOL0     H21840   6.015   0.100   7.446 -3.0454  1.1569 -4.5755
  903MOL0     H21841   6.019   0.278   7.429 -1.7681 -0.2236 -0.7632
  903MOL0     H21842   6.060   0.124   7.680 -1.0254  0.6239 -0.9861
  903MOL0     H21843   6.052   0.299   7.678 -2.5823 -0.7301  0.0151
  903MOL0     H21844   6.266   0.323   7.594 -0.6079  0.3294 -0.6839
  903MOL0     H21845   6.280   0.177   7.496  0.4038  2.5509 -2.0732
  903MOL0     H21846   6.304   0.228   7.795  0.1656 -1.4513  0.9126
  903MOL0     H21847   6.270   0.071   7.739 -0.0054 -1.0098 -3.5555
  903MOL0     H21848   6.479   0.076   7.592 -1.7617 -0.5906  1.4103
  903MOL0     H21849   6.524   0.235   7.643  1.4679 -0.2581 -0.2143
  903MOL0     H21850   6.562   0.148   7.879 -1.3914 -0.6679  1.0550
  903MOL0     H21851   6.528  -0.014   7.828 -0.6036 -0.2279 -0.2085
  903MOL0     H21852   6.744   0.152   7.693  1.5208 -2.9415 -3.8441
  903MOL0     H21853   6.694  -0.001   7.641  0.6676 -1.0772  0.8029
  903MOL0     H21854   6.768   0.053   7.930  1.7514 -0.2788  0.3577
  903MOL0     H21855   6.778  -0.112   7.858  2.5317 -0.2138 -0.6294
  903MOL0     H21856   6.968  -0.028   7.607 -2.4672 -0.2727  1.1212
  903MOL0     H21857   7.221   0.107   7.534  1.6697  2.1075 -0.2670
  903MOL0     H21858   7.300   0.172   7.662 -1.5037  1.7836 -0.6088
  903MOL0     H21859   7.345  -0.072   7.753  1.7106  2.6729  0.6393
  903MOL0     H21860   7.286  -0.132   7.599  3.2018 -2.8145  1.1466
  903MOL0     H21861   7.512   0.067   7.602 -0.4220 -0.3784 -0.4539
  903MOL0     H21862   7.455  -0.027   7.464  0.9620 -1.0427 -0.2235
  903MOL0     H21863   7.498  -0.228   7.614 -0.0297  0.1623 -2.6612
  903MOL0     H21864   7.626  -0.122   7.696 -0.4502 -2.6729  0.9213
  903MOL0     H21865   7.796  -0.221   7.304 -0.5547 -0.3125 -0.3908
  903MOL0     H21866   8.021  -0.111   7.243  0.6598  2.6936 -1.0562
  903MOL0     H21867   8.380  -0.076   7.147 -2.5048 -0.2897  2.7373
  903MOL0     H21868   8.602   0.013   7.078 -0.0948 -0.9672  0.9229
  903MOL0     H21869   8.698   0.152   6.904 -1.2997  0.4454 -0.3663
  903MOL0     H21870   8.724   0.329   6.864  1.7432 -2.4070 -3.4205
  903MOL0     H21871   8.904   0.338   7.017 -0.9402  0.3480  1.9104
  903MOL0     H21872   8.885   0.174   7.074  0.8724 -0.9476 -0.4038
  903MOL0     H21873   8.942   0.064   6.870 -4.0652  1.0122  1.3078
  903MOL0     H21874   8.956   0.218   6.779  0.3905  0.5476  0.3772
  903MOL0     H21875   9.132   0.135   7.012  0.1568 -0.0425 -0.2976
  903MOL0     H21876   9.135   0.293   6.929 -1.4719  0.4248  1.3384
  903MOL0     H21877   9.225   0.191   6.731 -2.8895  2.5948  0.4552
  903MOL0     H21878   9.196   0.025   6.797  1.2106 -0.1228 -2.4778
  903MOL0     H21879   9.383   0.243   6.922  1.7659 -0.9542 -0.1892
  903MOL0     H21880   9.368   0.079   6.974  0.6690 -0.1408 -0.6688
  903MOL0     H21881   9.480   0.210   6.725 -1.4518  2.3663  1.9772
  903MOL0     H21882   9.461   0.030   6.728 -0.3806 -1.2283  3.4456
  903MOL0     H21883   9.602   0.214   6.917 -0.7194  0.7623 -1.2236
  903MOL0     H21884   9.617   0.044   6.941  0.8520 -0.6587 -0.5071
  903MOL0     H21885   8.484   0.414   7.181  2.9360 -0.5853 -5.1899
  903MOL0     H21886   8.282   0.312   7.291  2.0492  2.2789  1.3676
  903MOL0     H21887   7.998   0.102   7.607  0.6352 -1.5547  1.2611
  903MOL0     H21888   7.800   0.006   7.672  0.5877 -1.0003  1.1431
  903MOL0     H21889   5.852   0.172   7.280 -0.6217 -2.5229 -3.3343
  903MOL0     H21890   5.658   0.073   7.167  2.5494 -1.0258 -0.4312
  903MOL0     H21891   5.316   0.024   7.029  1.7937 -0.3935  1.6677
  903MOL0     H21892   5.162  -0.062   6.871 -0.8980 -0.5757  0.2700
  903MOL0     H21893   4.969  -0.029   6.769  0.8095  0.0386  1.8041
  903MOL0     H21894   4.897   0.079   6.897 -1.9175 -0.2235  3.7078
  903MOL0     H21895   4.749  -0.136   6.727  0.8722 -0.4522  0.6360
  903MOL0     H21896   4.727   0.035   6.690  0.0218  1.1898  0.1021
  903MOL0     H21897   4.605   0.091   6.876  0.2480 -0.4387  2.1694
  903MOL0     H21898   4.691  -0.025   6.973 -2.5968 -1.5925  0.8466
  903MOL0     H21899   4.466  -0.088   6.802  2.2485  0.3744 -1.4585
  903MOL0     H21900   4.574  -0.214   6.846 -1.6477 -1.6384  2.0026
  903MOL0     H21901   4.370  -0.134   7.209 -0.6798  0.8713 -0.5840
  903MOL0     H21902   4.895  -0.179   7.176  0.2790  0.5965  0.8564
  903MOL0     H21903   5.014  -0.261   7.381 -1.6656  0.2476 -2.7684
  903MOL0     H21904   5.149  -0.181   7.466 -2.3277 -2.3241  2.8268
  903MOL0     H21905   4.990  -0.100   7.439 -0.2801 -0.9258  0.7705
  904MOL0     O21906   7.727   0.271  10.629  0.1837 -0.0662 -0.4788
  904MOL0     C21907   7.638   0.247  10.712 -0.2262  0.4325  0.0446
  904MOL0     O21908   7.632   0.295  10.839  0.4751 -0.1192 -0.2162
  904MOL0     C21909   7.723   0.395  10.858  0.4803 -0.3229 -0.8883
  904MOL0     C21910   7.811   0.395  10.967 -1.0121  0.1371  0.0602
  904MOL0     C21911   7.894   0.497  11.001 -0.0026 -0.8466  0.3795
  904MOL0     C21912   7.889   0.617  10.929 -0.0683 -0.2438 -0.4308
  904MOL0     O21913   7.964   0.723  10.962  0.6859 -0.7133  0.1736
  904MOL0     C21914   7.991   0.736  11.107 -1.2288  0.5646  0.5515
  904MOL0     C21915   8.040   0.877  11.139  0.0570  0.2679 -0.1763
  904MOL0     C21916   8.115   0.884  11.273 -0.2320  1.0099  0.5821
  904MOL0     C21917   8.023   0.885  11.390 -0.2802  0.7162 -0.4340
  904MOL0     C21918   8.023   0.746  11.463 -0.2652 -0.8625  0.0758
  904MOL0     C21919   7.895   0.724  11.544  0.0802  0.1309  0.1628
  904MOL0     C21920   7.892   0.578  11.594  0.6699  0.1583  0.3713
  904MOL0     C21921   7.780   0.529  11.688  1.0541 -0.7903 -0.4558
  904MOL0     N21922   7.794   0.571  11.827  0.5809 -0.2651 -0.5281
  904MOL0     C21923   7.896   0.529  11.908  0.7938 -0.4667 -0.2537
  904MOL0     C21924   7.897   0.604  12.020 -0.6681  0.2504  0.2974
  904MOL0     C21925   7.968   0.564  12.135 -0.4622 -0.5491 -0.0545
  904MOL0     C21926   7.953   0.418  12.186 -0.0080 -0.1928  0.2941
  904MOL0     C21927   8.020   0.416  12.323 -0.0982  0.2685 -0.6456
  904MOL0     C21928   8.039   0.273  12.373 -0.0232  1.0381  0.5026
  904MOL0     O21929   8.078   0.267  12.511 -0.4275 -1.3351  0.3734
  904MOL0     C21930   8.212   0.236  12.530  0.3623 -0.4367 -0.3513
  904MOL0     C21931   8.269   0.108  12.499  0.3367  0.0289  0.2186
  904MOL0     C21932   8.412   0.091  12.500  0.3430  0.8076  1.1686
  904MOL0     C21933   8.493   0.189  12.555 -0.4738  0.6183 -0.0145
  904MOL0     C21934   8.638   0.163  12.570 -0.7263  0.4808 -0.5046
  904MOL0     O21935   8.709   0.273  12.619 -0.0101 -0.8119  0.0106
  904MOL0     C21936   8.841   0.254  12.653  0.1848 -0.2293 -0.0760
  904MOL0     C21937   8.875   0.228  12.782 -0.2826  0.3270 -0.1512
  904MOL0     C21938   9.009   0.235  12.821  0.5122 -0.2815 -0.0181
  904MOL0     C21939   9.111   0.277  12.735  0.5151  0.8792 -0.6215
  904MOL0     O21940   9.246   0.298  12.769 -0.0975  0.5027 -0.5371
  904MOL0     C21941   9.294   0.300  12.904 -0.9029 -0.1663 -0.1608
  904MOL0     C21942   9.446   0.290  12.885  0.4910 -0.5115 -0.2240
  904MOL0     C21943   9.514   0.407  12.822  0.3266  0.9646  0.2016
  904MOL0     C21944   9.505   0.522  12.911  0.1691 -0.2843  0.4205
  904MOL0     C21945   9.622   0.620  12.867  0.1781  0.3309 -0.4285
  904MOL0     C21946   9.593   0.693  12.733  0.0308 -0.2229 -0.6338
  904MOL0     C21947   9.714   0.780  12.684 -0.5106 -0.8113 -0.0244
  904MOL0     C21948   9.691   0.801  12.531 -0.3537  0.1712  0.2843
  904MOL0    Cl21949   9.789   0.941  12.457  0.3896  0.1228  0.0659
  904MOL0     C21950   9.078   0.292  12.597 -0.3971 -0.6434 -0.6201
  904MOL0     C21951   8.942   0.281  12.556 -0.3870 -0.3143 -0.0418
  904MOL0     O21952   8.684   0.051  12.547 -0.0905  1.3557 -0.3580
  904MOL0     C21953   8.436   0.312  12.599 -1.0755  0.4970  0.5300
  904MOL0     C21954   8.297   0.325  12.594 -0.1092 -0.7968 -0.0250
  904MOL0     N21955   7.795   0.692  12.001 -0.2222 -0.3000 -0.6785
  904MOL0     N21956   7.733   0.678  11.884 -0.1736  0.8186 -0.8957
  904MOL0     C21957   7.795   0.627  10.829  1.2651  0.2388 -0.4741
  904MOL0     C21958   7.711   0.521  10.795  0.7018 -0.3555 -0.5965
  904MOL0     C21959   7.525   0.160  10.662  0.2329 -0.6883 -0.0666
  904MOL0     C21960   7.542   0.079  10.545 -0.3147  0.3655  0.3663
  904MOL0     C21961   7.444  -0.008  10.498 -0.1178  0.2702 -0.0080
  904MOL0     C21962   7.322  -0.018  10.562  0.8648 -0.0062 -0.3814
  904MOL0     O21963   7.212  -0.093  10.527 -0.1659  0.2471  0.2079
  904MOL0     C21964   7.208  -0.183  10.410  0.0310  0.0880  1.0903
  904MOL0     C21965   7.302  -0.303  10.405 -0.6016 -0.0397 -0.9315
  904MOL0     C21966   7.292  -0.400  10.287 -0.2489 -0.4807 -0.1455
  904MOL0     C21967   7.318  -0.338  10.146 -0.3565  1.0996 -0.3467
  904MOL0     C21968   7.463  -0.309  10.133 -1.0300  0.0801 -0.1641
  904MOL0     C21969   7.583  -0.280  10.101  0.5513  0.5252  0.1760
  904MOL0     C21970   7.311   0.062  10.675  0.1943  0.4765 -0.0412
  904MOL0     C21971   7.407   0.143  10.734  0.5521 -0.7259 -0.4263
  904MOL0     C21972   7.367   0.223  10.851  1.0471  0.8719 -0.4832
  904MOL0     H21973   7.810   0.297  11.015  2.1936  0.7474  1.6379
  904MOL0     H21974   7.946   0.469  11.092  2.3822 -0.5790 -0.8031
  904MOL0     H21975   7.904   0.711  11.168 -0.9349  1.0400  1.1765
  904MOL0     H21976   8.065   0.660  11.135  2.5255  2.7709 -2.4194
  904MOL0     H21977   7.959   0.950  11.135 -1.9106 -1.2887  4.3109
  904MOL0     H21978   8.110   0.917  11.065  0.0237 -0.8238 -0.8225
  904MOL0     H21979   8.157   0.985  11.272  2.0454  0.1221  0.8312
  904MOL0     H21980   8.202   0.818  11.284 -0.5007  0.2160 -1.6373
  904MOL0     H21981   8.066   0.958  11.458 -0.5072 -1.7200  2.5408
  904MOL0     H21982   7.927   0.930  11.362 -0.1066  1.6174  0.3823
  904MOL0     H21983   8.023   0.665  11.388  0.7244 -1.8085  1.0529
  904MOL0     H21984   8.116   0.750  11.520 -1.0242  2.6559  1.2939
  904MOL0     H21985   7.888   0.794  11.628 -1.6626  0.4652 -0.2143
  904MOL0     H21986   7.808   0.733  11.478 -0.7493 -3.8413  0.5039
  904MOL0     H21987   7.988   0.540  11.631  0.3251 -2.4274 -1.1313
  904MOL0     H21988   7.888   0.519  11.502  1.1733  0.7012 -0.0078
  904MOL0     H21989   7.689   0.575  11.650  2.2740 -1.2935 -4.4655
  904MOL0     H21990   7.773   0.420  11.680 -0.3006 -0.8699  1.3964
  904MOL0     H21991   7.955   0.441  11.885 -0.3545 -0.9441 -1.5404
  904MOL0     H21992   8.072   0.581  12.106 -0.7376  3.5152  0.6284
  904MOL0     H21993   7.945   0.637  12.213  1.5173 -0.1042  0.1609
  904MOL0     H21994   7.846   0.398  12.183 -0.1570  0.7404 -1.6367
  904MOL0     H21995   7.999   0.345  12.120 -0.8509 -1.2275  0.8246
  904MOL0     H21996   7.948   0.461  12.392  2.1682 -0.2100  2.2461
  904MOL0     H21997   8.110   0.479  12.316 -0.8060  2.0373  3.3931
  904MOL0     H21998   8.112   0.219  12.313 -0.4677  1.5098 -0.4931
  904MOL0     H21999   7.948   0.216  12.354  1.9493 -2.3968  0.5808
  904MOL0     H22000   8.199   0.034  12.459  2.0764 -0.8423 -1.4276
  904MOL0     H22001   8.451   0.001  12.455  0.7210  1.0151  1.0727
  904MOL0     H22002   8.797   0.192  12.849 -0.9105 -2.4215 -2.1926
  904MOL0     H22003   9.017   0.213  12.927 -0.4634  1.1049  0.3647
  904MOL0     H22004   9.253   0.389  12.954 -1.5086  0.1883 -1.2510
  904MOL0     H22005   9.253   0.215  12.960  0.1814 -0.9992 -0.6109
  904MOL0     H22006   9.495   0.288  12.983 -0.1335  0.0647  0.1130
  904MOL0     H22007   9.460   0.197  12.829  1.7602  1.4312 -3.4006
  904MOL0     H22008   9.617   0.372  12.810  0.4429  1.3681 -0.0078
  904MOL0     H22009   9.461   0.414  12.727 -2.9382 -1.6840  1.6247
  904MOL0     H22010   9.526   0.485  13.012 -0.9190  0.1265  0.8171
  904MOL0     H22011   9.409   0.574  12.908  1.6022  2.6720  1.9554
  904MOL0     H22012   9.718   0.568  12.857  0.5183  1.1652 -1.7759
  904MOL0     H22013   9.621   0.689  12.951  1.3935  0.2461 -0.3229
  904MOL0     H22014   9.579   0.614  12.659 -0.0355 -0.2112 -0.6344
  904MOL0     H22015   9.499   0.750  12.745 -0.4837 -1.4063  1.6603
  904MOL0     H22016   9.813   0.736  12.700 -0.4045 -1.0070 -1.1475
  904MOL0     H22017   9.709   0.876  12.735  1.2320  0.5925 -2.3234
  904MOL0     H22018   9.717   0.702  12.490 -0.3547 -0.6246  2.0875
  904MOL0     H22019   9.585   0.823  12.517 -0.4112 -0.6088 -0.5868
  904MOL0     H22020   9.164   0.315  12.534 -2.3381  2.4329 -2.4404
  904MOL0     H22021   8.904   0.292  12.455 -1.2834 -1.9431  0.0813
  904MOL0     H22022   8.493   0.397  12.635 -3.2803  1.7389  1.2620
  904MOL0     H22023   8.257   0.423  12.617  1.7193  0.1048 -0.4584
  904MOL0     H22024   7.791   0.713  10.762  1.1405  1.6431  1.2711
  904MOL0     H22025   7.642   0.549  10.716 -0.2566  0.9305  0.6423
  904MOL0     H22026   7.619   0.109  10.475  1.1860 -0.2850  1.6567
  904MOL0     H22027   7.459  -0.061  10.405 -1.2177  0.3812 -0.2633
  904MOL0     H22028   7.206  -0.122  10.319  0.7766  1.7393  2.1257
  904MOL0     H22029   7.107  -0.222  10.395  0.0125  1.0129 -1.8822
  904MOL0     H22030   7.291  -0.361  10.497  0.9843  2.0047  0.6391
  904MOL0     H22031   7.404  -0.266  10.414 -0.5482 -0.3788  0.0625
  904MOL0     H22032   7.193  -0.446  10.291  0.4308 -2.0455 -0.6980
  904MOL0     H22033   7.364  -0.477  10.315 -0.8557 -0.0281  3.1552
  904MOL0     H22034   7.284  -0.412  10.073  1.0474  1.4619 -1.4096
  904MOL0     H22035   7.260  -0.247  10.131  2.3346  3.2196  1.1183
  904MOL0     H22036   7.677  -0.239  10.071  1.9070 -0.5710  2.5859
  904MOL0     H22037   7.216   0.050  10.728 -0.1918  0.3432 -0.7551
  904MOL0     H22038   7.260   0.221  10.871  1.5084  0.2112  2.2785
  904MOL0     H22039   7.411   0.189  10.945  0.1539 -0.2666 -0.4626
  904MOL0     H22040   7.390   0.330  10.848 -0.8594  1.4844  2.6957
  905MOL0     O22041   6.117   9.864   4.097 -0.0251 -0.4025  0.2734
  905MOL0     C22042   6.075   9.978   4.069  0.5005  0.1455 -0.1116
  905MOL0     O22043   6.150  10.074   4.022  0.1972 -0.5292 -0.0778
  905MOL0     C22044   6.288  10.073   4.041 -0.6658 -0.5993  0.3286
  905MOL0     C22045   6.357  10.017   4.150 -0.4387  0.0679  0.1220
  905MOL0     C22046   6.492  10.037   4.164 -0.7293 -0.1709 -0.2937
  905MOL0     C22047   6.569  10.107   4.065  0.7216  0.9212 -0.2232
  905MOL0     O22048   6.702  10.124   4.071  0.1238  0.0996  0.1069
  905MOL0     C22049   6.745  10.258   4.094 -0.0528 -0.1628 -0.7296
  905MOL0     C22050   6.793  10.285   4.235  0.7839  0.2376 -0.1081
  905MOL0     C22051   6.904  10.185   4.276  0.8420  0.2328  0.0081
  905MOL0     C22052   6.994  10.248   4.382  1.1386 -0.9049  0.3697
  905MOL0     C22053   7.085  10.150   4.454 -0.4515  0.0696 -0.2338
  905MOL0     C22054   7.167  10.250   4.550  0.0179 -0.8608  0.9661
  905MOL0     C22055   7.274  10.169   4.609 -1.0632 -0.0681 -0.3683
  905MOL0     C22056   7.369  10.249   4.703  0.4141 -0.4898 -0.6404
  905MOL0     N22057   7.468  10.164   4.775 -0.9556  0.2005  0.6124
  905MOL0     C22058   7.594  10.140   4.735 -0.4154 -0.2764  0.0598
  905MOL0     C22059   7.646  10.045   4.813  0.1375  0.4113 -0.2138
  905MOL0     C22060   7.786   9.993   4.843 -1.0152  0.6709  0.0656
  905MOL0     C22061   7.800   9.864   4.757 -0.9886 -0.4530 -0.0061
  905MOL0     C22062   7.947   9.824   4.729  0.1697  0.7043  0.2094
  905MOL0     C22063   8.024   9.832   4.861 -0.9556 -0.1631 -0.1910
  905MOL0     O22064   8.155   9.771   4.834  0.1320  0.3104  0.4668
  905MOL0     C22065   8.231   9.750   4.948  0.1276  0.4586 -0.1880
  905MOL0     C22066   8.227   9.822   5.068  0.3945  0.0992 -0.0658
  905MOL0     C22067   8.303   9.780   5.176  0.1439  1.0666  0.1078
  905MOL0     C22068   8.399   9.676   5.166  0.0323  0.2555  0.0578
  905MOL0     C22069   8.481   9.636   5.281  0.6617  0.3321  0.0858
  905MOL0     O22070   8.550   9.528   5.256  0.3699 -0.5921 -0.0415
  905MOL0     C22071   8.651   9.490   5.339 -0.2368 -0.7009 -0.2397
  905MOL0     C22072   8.660   9.362   5.386 -0.5725 -0.0164  0.1515
  905MOL0     C22073   8.778   9.315   5.450 -0.1258  0.3439 -0.1524
  905MOL0     C22074   8.881   9.400   5.482  0.7140 -0.0129 -0.2279
  905MOL0     O22075   8.994   9.353   5.546 -0.9504 -0.2559 -0.0716
  905MOL0     C22076   8.996   9.244   5.640  0.1776  0.3211 -0.7735
  905MOL0     C22077   9.140   9.211   5.682 -0.3862  0.9116 -0.0055
  905MOL0     C22078   9.221   9.167   5.561  0.6542 -0.0109 -0.5448
  905MOL0     C22079   9.324   9.064   5.581  1.1030  0.6699 -0.2980
  905MOL0     C22080   9.379   9.016   5.448  0.1827 -0.6394 -0.0577
  905MOL0     C22081   9.475   8.902   5.455  0.3777  1.6692 -0.0070
  905MOL0     C22082   9.622   8.948   5.481 -0.6471  0.5012 -0.4711
  905MOL0     C22083   9.735   8.846   5.445  0.8529 -0.1856  0.5567
  905MOL0    Cl22084   9.734   8.798   5.278  0.1068  0.3245  0.4266
  905MOL0     C22085   8.865   9.532   5.451 -0.5312 -0.6042  1.0474
  905MOL0     C22086   8.752   9.581   5.379  0.0971  0.0882  0.1803
  905MOL0     O22087   8.492   9.711   5.379  0.6336 -0.2356 -0.3795
  905MOL0     C22088   8.410   9.614   5.042 -0.2843  0.0302 -0.0077
  905MOL0     C22089   8.321   9.647   4.938  0.2959  0.2249  0.7360
  905MOL0     N22090   7.545  10.011   4.896  0.4567  1.3356 -0.1736
  905MOL0     N22091   7.435  10.078   4.867 -0.2617 -0.2139  0.2603
  905MOL0     C22092   6.503  10.156   3.956 -0.7916  0.3610  0.0056
  905MOL0     C22093   6.365  10.141   3.944  0.5708  0.0399  0.6348
  905MOL0     C22094   5.923   9.993   4.066 -0.0968  0.7700 -0.2325
  905MOL0     C22095   5.849   9.937   4.174 -0.5135 -0.1554  0.0558
  905MOL0     C22096   5.712   9.954   4.187  0.5838 -1.2264  0.8497
  905MOL0     C22097   5.640  10.013   4.078  0.7067 -0.2159  0.4478
  905MOL0     O22098   5.505  10.025   4.069  0.1386 -0.2198 -0.5044
  905MOL0     C22099   5.408   9.952   4.147  0.1853 -0.9877 -0.4699
  905MOL0     C22100   5.414   9.796   4.118  0.5739 -0.0112 -0.5783
  905MOL0     C22101   5.356   9.709   4.229  1.2274 -0.5622  0.2585
  905MOL0     C22102   5.271   9.592   4.184  0.0548 -0.1872 -0.1253
  905MOL0     C22103   5.142   9.623   4.118  0.1293 -0.3240 -0.7663
  905MOL0     C22104   5.043   9.675   4.069 -0.0964 -0.0187 -0.0252
  905MOL0     C22105   5.708  10.058   3.967  0.7561  0.1453  0.3398
  905MOL0     C22106   5.853  10.050   3.955 -0.3644 -0.3248 -0.3298
  905MOL0     C22107   5.922  10.127   3.848 -0.1130 -0.3464  0.2782
  905MOL0     H22108   6.301   9.953   4.217 -0.5288 -1.0208 -0.9690
  905MOL0     H22109   6.547   9.984   4.241 -0.6642 -0.0208 -0.2383
  905MOL0     H22110   6.830  10.277   4.028 -0.9331  2.7936 -1.1793
  905MOL0     H22111   6.668  10.330   4.065  1.6705  2.5233  0.8521
  905MOL0     H22112   6.704  10.278   4.299  0.9397 -2.4685 -0.0667
  905MOL0     H22113   6.847  10.379   4.248 -2.2357  2.2060 -0.7567
  905MOL0     H22114   6.972  10.162   4.194 -0.0870  2.3067 -1.4294
  905MOL0     H22115   6.855  10.091   4.306 -0.5075  0.7237 -0.5580
  905MOL0     H22116   7.050  10.331   4.339 -0.1852  0.4998  1.2622
  905MOL0     H22117   6.923  10.292   4.452 -0.2106 -0.0566 -1.4446
  905MOL0     H22118   7.036  10.075   4.516 -2.5401  1.8462  0.3950
  905MOL0     H22119   7.147  10.101   4.379 -3.1342 -4.4691  0.1623
  905MOL0     H22120   7.211  10.337   4.500  2.4448 -1.8088  1.2937
  905MOL0     H22121   7.106  10.291   4.631 -1.8321 -4.1795  1.4678
  905MOL0     H22122   7.332  10.122   4.529 -2.4402 -1.0988 -0.7937
  905MOL0     H22123   7.227  10.091   4.669  0.6584 -1.1026 -0.3105
  905MOL0     H22124   7.422  10.323   4.643  1.0800  0.2216  0.7619
  905MOL0     H22125   7.323  10.306   4.784  0.5706  1.4014 -1.8298
  905MOL0     H22126   7.652  10.191   4.659  0.6839 -1.5162  0.0312
  905MOL0     H22127   7.865  10.063   4.814 -0.0592  1.6795  4.3997
  905MOL0     H22128   7.798   9.961   4.947 -0.4596  1.8211  0.3767
  905MOL0     H22129   7.748   9.780   4.802  0.1859 -0.1126  2.1384
  905MOL0     H22130   7.749   9.877   4.662 -0.0898 -1.7646 -0.6916
  905MOL0     H22131   7.994   9.899   4.665  0.7514 -0.0711 -0.2794
  905MOL0     H22132   7.934   9.730   4.675 -2.3885  0.9249  0.3113
  905MOL0     H22133   7.969   9.792   4.946 -2.3245  3.1760  0.6311
  905MOL0     H22134   8.050   9.936   4.884 -1.0506  0.0610 -1.0314
  905MOL0     H22135   8.163   9.909   5.078 -0.5315 -0.3877 -1.5137
  905MOL0     H22136   8.289   9.810   5.279  1.8409  1.4816  0.2576
  905MOL0     H22137   8.573   9.298   5.383 -0.7335 -0.0345  2.6359
  905MOL0     H22138   8.777   9.208   5.466 -0.2808  0.0805 -1.7503
  905MOL0     H22139   8.934   9.267   5.728  2.4941 -1.6989  1.5714
  905MOL0     H22140   8.951   9.157   5.592  0.4094 -0.0248 -0.3727
  905MOL0     H22141   9.179   9.299   5.735  0.1169  1.6220 -1.4940
  905MOL0     H22142   9.136   9.123   5.748  0.6917 -0.0194 -1.1512
  905MOL0     H22143   9.164   9.119   5.481  0.0053 -1.7527  0.8941
  905MOL0     H22144   9.269   9.259   5.525 -1.4852  0.7607 -1.5669
  905MOL0     H22145   9.270   8.973   5.608 -1.4018  1.3558 -2.4886
  905MOL0     H22146   9.398   9.088   5.658 -0.2801  0.4278  1.1859
  905MOL0     H22147   9.434   9.096   5.397 -1.0731  0.2344 -0.1037
  905MOL0     H22148   9.302   8.986   5.376  3.0419  1.1426 -4.2357
  905MOL0     H22149   9.454   8.827   5.531  0.4744  0.1165 -1.4342
  905MOL0     H22150   9.466   8.846   5.361  0.3738  0.8175  0.4941
  905MOL0     H22151   9.628   8.972   5.588 -0.3848 -0.6023 -0.2196
  905MOL0     H22152   9.639   9.041   5.425  1.6786  0.9958  0.9259
  905MOL0     H22153   9.827   8.900   5.466 -0.3666  0.7941  4.0395
  905MOL0     H22154   9.719   8.762   5.514 -0.1526  0.0377  0.6101
  905MOL0     H22155   8.937   9.606   5.483  0.4470 -0.4826 -1.2196
  905MOL0     H22156   8.744   9.686   5.354 -2.0589 -0.2296 -0.6743
  905MOL0     H22157   8.500   9.556   5.024 -0.1050  0.6315 -1.0959
  905MOL0     H22158   8.329   9.595   4.843 -0.6036 -0.9883  1.2991
  905MOL0     H22159   6.556  10.215   3.881 -0.4973 -0.3946 -0.3954
  905MOL0     H22160   6.303  10.185   3.867  0.1655 -1.7590 -0.1101
  905MOL0     H22161   5.911   9.894   4.252  2.0796  2.0184 -0.6862
  905MOL0     H22162   5.652   9.914   4.268  0.2279  0.0529  1.2387
  905MOL0     H22163   5.307   9.989   4.128  0.7640  0.9124 -0.1004
  905MOL0     H22164   5.440   9.961   4.251  3.6437 -2.0208 -1.2937
  905MOL0     H22165   5.516   9.756   4.110 -0.1451 -2.5124  1.4284
  905MOL0     H22166   5.374   9.791   4.016  2.3394  0.7141 -1.3578
  905MOL0     H22167   5.312   9.771   4.308  3.6252 -1.0539  2.1040
  905MOL0     H22168   5.443   9.666   4.281  0.2462 -2.0266  0.7638
  905MOL0     H22169   5.337   9.529   4.123  1.4108 -1.0055  2.0690
  905MOL0     H22170   5.255   9.529   4.272  0.5210 -0.5808 -0.3119
  905MOL0     H22171   4.952   9.699   4.018 -1.3666 -0.2536  2.0025
  905MOL0     H22172   5.645  10.108   3.894  2.8698  1.1550 -0.9030
  905MOL0     H22173   5.871  10.114   3.752  0.8319  2.5561 -0.7055
  905MOL0     H22174   5.922  10.234   3.869  0.9487  0.2463 -2.2726
  905MOL0     H22175   6.021  10.082   3.834  1.6576  2.9771  1.1304
  906MOL0     O22176   1.311   5.649  10.094  0.7402 -0.2444  0.3750
  906MOL0     C22177   1.219   5.716  10.145  0.8789  0.2319 -0.4568
  906MOL0     O22178   1.182   5.843  10.096  0.5433 -0.7326  0.5963
  906MOL0     C22179   1.214   5.882   9.975  0.1706  0.5903  0.4061
  906MOL0     C22180   1.348   5.898   9.935 -0.2962  0.5222 -0.1285
  906MOL0     C22181   1.380   5.954   9.809  0.1428  0.3000  0.5609
  906MOL0     C22182   1.278   5.985   9.719 -0.6216 -0.5211 -0.8622
  906MOL0     O22183   1.303   6.041   9.595 -0.0226  0.0341  0.4560
  906MOL0     C22184   1.395   5.951   9.515 -0.9508 -0.1003  0.0022
  906MOL0     C22185   1.349   5.939   9.375  0.1455 -0.6019  0.4091
  906MOL0     C22186   1.347   5.792   9.338  0.1171  0.9292  0.4003
  906MOL0     C22187   1.330   5.762   9.190  0.1872  0.5089  0.0145
  906MOL0     C22188   1.448   5.801   9.100 -0.0805 -0.2498 -0.2974
  906MOL0     C22189   1.429   5.735   8.955 -0.1165  0.5203 -0.2670
  906MOL0     C22190   1.553   5.787   8.879 -0.3146  0.6688 -0.0523
  906MOL0     C22191   1.557   5.730   8.737 -0.7048  0.5380 -0.3995
  906MOL0     N22192   1.672   5.775   8.657  0.2337  0.0878  0.5344
  906MOL0     C22193   1.692   5.896   8.604  0.3443  0.1930  0.2672
  906MOL0     C22194   1.792   5.881   8.515  0.3194  0.2162  0.5915
  906MOL0     C22195   1.871   5.984   8.435  0.4213  0.0208 -0.6737
  906MOL0     C22196   1.804   6.125   8.427 -0.2405  0.4249  0.6393
  906MOL0     C22197   1.881   6.228   8.333 -0.2363  0.3012 -0.1131
  906MOL0     C22198   1.976   6.319   8.412  0.2733 -0.8617  0.2433
  906MOL0     O22199   2.080   6.256   8.482 -0.3250 -0.0448 -0.1973
  906MOL0     C22200   2.196   6.207   8.417 -0.0125  0.0900 -0.0910
  906MOL0     C22201   2.212   6.207   8.280  0.2062 -0.1080 -0.2361
  906MOL0     C22202   2.330   6.162   8.220 -0.2626 -0.2926 -0.1701
  906MOL0     C22203   2.428   6.090   8.302  0.3324  0.0483 -0.1437
  906MOL0     C22204   2.553   6.038   8.243 -0.2092  0.3511  0.6240
  906MOL0     O22205   2.595   6.112   8.128 -0.5340 -0.0613 -0.2228
  906MOL0     C22206   2.686   6.063   8.044 -0.4040 -0.8632  1.3180
  906MOL0     C22207   2.705   5.929   8.014 -0.6748  0.3159  0.1698
  906MOL0     C22208   2.797   5.886   7.921 -0.3824  0.4388  0.5603
  906MOL0     C22209   2.872   5.972   7.852 -0.4103 -0.2723 -0.2512
  906MOL0     O22210   2.966   5.919   7.761 -0.0236  0.4462  0.4563
  906MOL0     C22211   3.037   6.005   7.668  0.0386  0.0255 -0.0538
  906MOL0     C22212   3.169   6.051   7.728  0.3434 -0.0358  0.5664
  906MOL0     C22213   3.259   5.932   7.737  0.2326 -0.3890 -0.1429
  906MOL0     C22214   3.404   5.973   7.782  0.3691  0.7879  0.5757
  906MOL0     C22215   3.508   5.866   7.743 -0.3264 -0.1828  0.8217
  906MOL0     C22216   3.469   5.720   7.772  0.1979  0.4942  0.5386
  906MOL0     C22217   3.435   5.704   7.928  0.3105 -0.1387 -0.4001
  906MOL0     C22218   3.441   5.559   7.974  0.8211 -0.2328  0.4079
  906MOL0    Cl22219   3.601   5.492   8.003 -0.1472  0.4267 -0.0148
  906MOL0     C22220   2.863   6.113   7.878 -0.1759 -0.1696  0.1132
  906MOL0     C22221   2.773   6.156   7.980 -0.8533  0.4935 -0.3124
  906MOL0     O22222   2.602   5.938   8.289 -0.3254 -0.3292 -0.1708
  906MOL0     C22223   2.409   6.081   8.445  0.7646 -0.7470  0.1768
  906MOL0     C22224   2.294   6.142   8.496  1.2463  0.0620 -0.7750
  906MOL0     N22225   1.831   5.750   8.517  0.8420  0.4715  0.2309
  906MOL0     N22226   1.768   5.693   8.610  0.1655  0.3002  0.2651
  906MOL0     C22227   1.144   5.958   9.755  0.1246  0.2709 -0.3507
  906MOL0     C22228   1.111   5.903   9.883 -0.1389 -1.8722 -0.0854
  906MOL0     C22229   1.140   5.658  10.267 -0.3760 -0.5237  0.8464
  906MOL0     C22230   1.024   5.722  10.314  0.1095 -0.2228 -0.1382
  906MOL0     C22231   0.958   5.685  10.427  0.1193 -0.0664  0.4536
  906MOL0     C22232   0.998   5.575  10.502  0.6031  0.5274  0.0480
  906MOL0     O22233   0.925   5.549  10.617 -0.2924  0.1154  0.3191
  906MOL0     C22234   0.945   5.425  10.695  0.2010 -0.5587  0.0782
  906MOL0     C22235   1.056   5.432  10.791 -0.2664  0.9538 -0.3324
  906MOL0     C22236   1.115   5.289  10.816 -0.4476  0.1486  0.3047
  906MOL0     C22237   1.268   5.302  10.836 -0.2802 -0.2246 -0.0177
  906MOL0     C22238   1.330   5.176  10.875 -0.1890 -0.3245 -0.0781
  906MOL0     C22239   1.392   5.079  10.908  0.2418  0.6957  0.1693
  906MOL0     C22240   1.117   5.508  10.459 -0.5529 -1.0041 -0.7939
  906MOL0     C22241   1.196   5.556  10.348  0.0480  0.8079 -0.0261
  906MOL0     C22242   1.332   5.493  10.329 -0.4149 -0.6584  0.3798
  906MOL0     H22243   1.430   5.878  10.003  1.6735 -0.3673 -2.6023
  906MOL0     H22244   1.483   5.975   9.782 -0.0103  0.0011 -0.2787
  906MOL0     H22245   1.500   5.982   9.521 -0.9119 -0.1495 -0.3463
  906MOL0     H22246   1.392   5.853   9.563 -2.6002  0.8841  2.0603
  906MOL0     H22247   1.413   6.000   9.311  0.8904 -1.4491  0.3279
  906MOL0     H22248   1.250   5.984   9.368  0.0280 -0.6610  1.5145
  906MOL0     H22249   1.261   5.743   9.384  1.8168 -2.4881  0.2408
  906MOL0     H22250   1.437   5.749   9.381 -0.1672 -1.3464 -1.0880
  906MOL0     H22251   1.309   5.658   9.166  2.6272  0.6591 -3.6859
  906MOL0     H22252   1.242   5.814   9.152  1.1945  1.4607 -1.1184
  906MOL0     H22253   1.451   5.910   9.092 -0.1379 -0.3638 -2.0707
  906MOL0     H22254   1.546   5.773   9.139  0.7108  1.9650 -0.5523
  906MOL0     H22255   1.430   5.626   8.961 -1.6120  0.3880 -1.7138
  906MOL0     H22256   1.336   5.765   8.906  0.2062 -0.4063 -1.4957
  906MOL0     H22257   1.644   5.767   8.938 -1.8610  0.6360  2.4599
  906MOL0     H22258   1.553   5.896   8.870 -1.1682  0.5606 -1.6432
  906MOL0     H22259   1.560   5.621   8.752 -1.1682  0.2490 -2.1503
  906MOL0     H22260   1.466   5.759   8.683  0.1775  1.4801 -1.4257
  906MOL0     H22261   1.626   5.983   8.612  0.4337  0.3470 -0.6551
  906MOL0     H22262   1.968   5.985   8.486 -1.3061  1.6272  3.0017
  906MOL0     H22263   1.893   5.946   8.335  2.4509 -2.2423  0.5236
  906MOL0     H22264   1.703   6.099   8.394  0.6816 -1.4499 -0.9945
  906MOL0     H22265   1.800   6.158   8.531 -1.2781 -2.8207  1.7624
  906MOL0     H22266   1.816   6.299   8.281  1.2519  0.1141 -2.3583
  906MOL0     H22267   1.944   6.176   8.260 -0.5078 -0.5062  0.2192
  906MOL0     H22268   1.917   6.377   8.484  0.7646  2.1515 -1.6058
  906MOL0     H22269   2.018   6.396   8.347 -0.8688  2.1765  2.8283
  906MOL0     H22270   2.137   6.245   8.211  0.5394 -0.1639 -0.6339
  906MOL0     H22271   2.336   6.172   8.112  1.4280  2.8053  0.0756
  906MOL0     H22272   2.644   5.858   8.069 -0.6991 -0.1498 -0.4602
  906MOL0     H22273   2.803   5.779   7.906  2.6880  0.2093  2.4872
  906MOL0     H22274   3.064   5.953   7.576  4.2254  0.7568  0.5704
  906MOL0     H22275   2.982   6.098   7.648  1.1592  0.9812  1.1080
  906MOL0     H22276   3.207   6.137   7.673  1.4387 -2.7147 -3.3563
  906MOL0     H22277   3.158   6.074   7.834 -2.7943  0.8318  0.1542
  906MOL0     H22278   3.216   5.861   7.809 -0.7677 -0.6839 -1.0016
  906MOL0     H22279   3.260   5.883   7.639 -0.1289  1.2252 -0.9941
  906MOL0     H22280   3.395   5.987   7.890  0.4042 -0.2048  0.7166
  906MOL0     H22281   3.433   6.070   7.739  1.1588  0.6452  0.7790
  906MOL0     H22282   3.598   5.901   7.795 -1.1939  2.3393  0.7680
  906MOL0     H22283   3.528   5.867   7.635  0.9566  1.2293  1.0404
  906MOL0     H22284   3.390   5.688   7.703  0.0165  2.2008 -0.1000
  906MOL0     H22285   3.560   5.661   7.759 -0.9979 -1.7088  1.6821
  906MOL0     H22286   3.333   5.733   7.956 -0.5003 -4.3581  1.9008
  906MOL0     H22287   3.514   5.761   7.978  1.7567  2.5819 -5.1974
  906MOL0     H22288   3.398   5.565   8.074  0.1799  2.9058  0.0365
  906MOL0     H22289   3.378   5.503   7.904 -1.3371  1.1430  1.1383
  906MOL0     H22290   2.924   6.180   7.819  0.8418 -2.2919 -1.3646
  906MOL0     H22291   2.771   6.262   8.001 -0.6496  0.1455  1.7221
  906MOL0     H22292   2.473   6.030   8.516  0.3570 -1.6734 -0.1049
  906MOL0     H22293   2.280   6.133   8.603 -0.6668  2.4955 -0.7404
  906MOL0     H22294   1.054   5.979   9.698 -1.5545 -2.7779  0.9542
  906MOL0     H22295   1.007   5.884   9.907 -0.0882 -0.4461  1.4479
  906MOL0     H22296   0.968   5.791  10.252 -0.0075 -0.2683 -0.0826
  906MOL0     H22297   0.864   5.728  10.459 -1.1202  0.0020 -2.9284
  906MOL0     H22298   0.946   5.342  10.623  2.3684  1.1029 -1.9315
  906MOL0     H22299   0.853   5.408  10.752  0.2517  2.4839  1.2151
  906MOL0     H22300   1.041   5.468  10.894  1.4846 -0.4731  0.4777
  906MOL0     H22301   1.141   5.489  10.751 -0.7372  1.0030 -1.2709
  906MOL0     H22302   1.099   5.213  10.739 -0.4637  0.7155 -0.2546
  906MOL0     H22303   1.082   5.251  10.913  2.1960  0.8614  1.5871
  906MOL0     H22304   1.322   5.359  10.761 -0.0880  2.1796  1.8412
  906MOL0     H22305   1.272   5.357  10.931  4.6232 -1.8663  0.9926
  906MOL0     H22306   1.449   4.988  10.915  1.1361  1.2206 -0.0239
  906MOL0     H22307   1.153   5.425  10.520  0.6747 -0.3753 -0.6330
  906MOL0     H22308   1.411   5.568  10.338  1.1550 -1.7021 -2.9922
  906MOL0     H22309   1.353   5.424  10.411  1.8423  1.1278  1.4363
  906MOL0     H22310   1.345   5.445  10.232  0.6178  0.7086 -0.1886
  907MOL0     O22311   0.599   6.000   8.089  0.3747 -0.0607  0.2895
  907MOL0     C22312   0.511   5.919   8.061  0.0503 -0.0187  0.8494
  907MOL0     O22313   0.525   5.815   7.980 -0.2153  0.4074  0.0314
  907MOL0     C22314   0.645   5.798   7.913  0.2194 -1.0130  0.0696
  907MOL0     C22315   0.766   5.764   7.976 -0.3708 -0.2191  0.1362
  907MOL0     C22316   0.882   5.739   7.906  0.3447 -0.0612  0.2368
  907MOL0     C22317   0.878   5.745   7.768 -0.4018  0.5529 -0.2858
  907MOL0     O22318   0.992   5.740   7.696 -0.0201  0.1454  0.1996
  907MOL0     C22319   1.120   5.766   7.750  0.4715  0.2078 -0.3779
  907MOL0     C22320   1.236   5.777   7.652  0.0372 -0.3803  0.0664
  907MOL0     C22321   1.352   5.799   7.736 -0.2857  0.1719  0.0864
  907MOL0     C22322   1.483   5.812   7.651 -0.4763 -0.6970  1.0769
  907MOL0     C22323   1.597   5.875   7.726 -0.3472  0.1960 -0.3795
  907MOL0     C22324   1.710   5.908   7.631 -0.0564 -0.2764  0.3237
  907MOL0     C22325   1.820   5.802   7.615 -0.0546 -0.1821  0.7111
  907MOL0     C22326   1.928   5.833   7.511 -0.2593 -0.3349  0.5524
  907MOL0     N22327   1.965   5.982   7.509 -0.0941  0.1293 -0.3304
  907MOL0     C22328   2.030   6.049   7.606 -0.2056  0.2605 -0.8178
  907MOL0     C22329   1.996   6.176   7.585  0.2363 -0.2183  0.0237
  907MOL0     C22330   2.009   6.298   7.673  0.1738  0.0870 -0.0406
  907MOL0     C22331   2.078   6.423   7.621  0.6481 -0.7992  0.0749
  907MOL0     C22332   2.229   6.396   7.625  0.8984 -0.1132  0.6287
  907MOL0     C22333   2.302   6.525   7.585 -0.0115  0.3105 -0.1442
  907MOL0     O22334   2.434   6.538   7.641 -0.7136 -0.3212 -0.9516
  907MOL0     C22335   2.544   6.489   7.582  0.4841 -0.2196 -0.1967
  907MOL0     C22336   2.570   6.472   7.448 -0.2549  0.4040 -0.1263
  907MOL0     C22337   2.698   6.421   7.398 -0.4564  0.2376 -0.6928
  907MOL0     C22338   2.796   6.386   7.495 -0.1383 -0.8346  0.3240
  907MOL0     C22339   2.938   6.352   7.455  0.1888  0.4394  0.2275
  907MOL0     O22340   2.966   6.347   7.322  0.6593 -0.5533  0.4426
  907MOL0     C22341   3.096   6.333   7.278  0.4548 -0.2434  0.4797
  907MOL0     C22342   3.185   6.221   7.296 -0.3132  0.6150  0.4007
  907MOL0     C22343   3.315   6.222   7.250  0.3018  0.0980  0.5418
  907MOL0     C22344   3.363   6.330   7.180  0.8621 -0.1891 -0.3023
  907MOL0     O22345   3.485   6.321   7.137 -0.1864 -0.0664  0.7828
  907MOL0     C22346   3.544   6.425   7.056  0.9405  0.1375 -0.4614
  907MOL0     C22347   3.690   6.378   7.017  0.3775  0.1073  0.2082
  907MOL0     C22348   3.744   6.482   6.919 -0.5643 -0.9039 -0.5037
  907MOL0     C22349   3.893   6.474   6.906 -0.1313 -1.1153 -0.2730
  907MOL0     C22350   3.940   6.576   6.796 -0.0150  1.4885 -0.1195
  907MOL0     C22351   4.081   6.549   6.746  0.0506 -0.2665 -0.8680
  907MOL0     C22352   4.185   6.548   6.861  0.2373 -0.6548  0.0357
  907MOL0     C22353   4.326   6.554   6.815  0.1170  0.6503 -0.5535
  907MOL0    Cl22354   4.359   6.427   6.701 -0.4472  0.6852 -0.4732
  907MOL0     C22355   3.278   6.440   7.161 -0.1609  0.4382  0.0166
  907MOL0     C22356   3.145   6.441   7.202  0.1608  0.4245  0.8854
  907MOL0     O22357   3.029   6.332   7.540 -0.2954  0.1614  0.6881
  907MOL0     C22358   2.762   6.399   7.632 -0.3878  0.3176 -0.3659
  907MOL0     C22359   2.641   6.455   7.674  0.2030  0.6404 -0.0288
  907MOL0     N22360   1.908   6.184   7.475 -0.3270  0.0331  0.2099
  907MOL0     N22361   1.904   6.063   7.423 -0.2758 -0.7366 -0.0755
  907MOL0     C22362   0.754   5.766   7.704 -0.1230  0.3448  0.2745
  907MOL0     C22363   0.634   5.791   7.773 -0.4173 -0.5599  0.0816
  907MOL0     C22364   0.368   5.946   8.109 -0.7538 -0.3073 -0.1964
  907MOL0     C22365   0.339   6.081   8.141 -0.2836 -0.5238 -0.3826
  907MOL0     C22366   0.212   6.132   8.173  0.3830 -0.3048  0.3790
  907MOL0     C22367   0.106   6.041   8.184  0.0344 -0.6732 -0.6116
  907MOL0     O22368  -0.026   6.075   8.214 -0.5977  0.7899  0.1272
  907MOL0     C22369  -0.053   6.208   8.255  0.0549 -0.3531 -0.1543
  907MOL0     C22370  -0.195   6.235   8.304 -0.2325  0.7114 -0.4446
  907MOL0     C22371  -0.298   6.149   8.237  0.1475 -0.3304  0.8685
  907MOL0     C22372  -0.433   6.194   8.295  0.7205 -0.4113  0.7720
  907MOL0     C22373  -0.465   6.148   8.426  0.5362 -0.6769 -0.0015
  907MOL0     C22374  -0.501   6.119   8.540 -0.4800 -0.5050 -0.3346
  907MOL0     C22375   0.135   5.904   8.168  0.4503  0.3139 -0.3100
  907MOL0     C22376   0.263   5.857   8.127 -0.1915 -0.5353 -0.2603
  907MOL0     C22377   0.283   5.705   8.132 -0.6668 -0.1830 -0.2891
  907MOL0     H22378   0.765   5.769   8.084 -1.5880 -1.4568  0.2055
  907MOL0     H22379   0.971   5.714   7.964  2.3202 -0.9776 -2.8854
  907MOL0     H22380   1.104   5.853   7.814 -3.4069  0.2617 -1.1189
  907MOL0     H22381   1.146   5.681   7.814 -2.0916 -0.3762  0.0143
  907MOL0     H22382   1.224   5.856   7.577 -0.8153  1.2967  1.8639
  907MOL0     H22383   1.250   5.683   7.597 -0.5639 -0.8159  0.6368
  907MOL0     H22384   1.365   5.712   7.802 -0.1784  0.6798  0.7416
  907MOL0     H22385   1.337   5.891   7.794  0.6792 -0.3232  1.1618
  907MOL0     H22386   1.513   5.721   7.599 -4.5818 -1.5176 -0.2484
  907MOL0     H22387   1.460   5.884   7.572 -0.6290 -1.8885  0.0067
  907MOL0     H22388   1.559   5.963   7.781 -1.6032  0.0091 -0.8992
  907MOL0     H22389   1.629   5.801   7.799  0.2291 -0.3564 -1.1803
  907MOL0     H22390   1.674   5.945   7.535  0.8037  1.6826  0.6961
  907MOL0     H22391   1.760   5.997   7.672 -0.6846 -0.2355  1.0107
  907MOL0     H22392   1.771   5.708   7.585  0.3481  0.3125 -1.7039
  907MOL0     H22393   1.865   5.776   7.711 -0.8443 -0.6963  0.9523
  907MOL0     H22394   2.016   5.771   7.528  1.5647  2.1944  0.8781
  907MOL0     H22395   1.884   5.809   7.414  1.1184  3.7464 -1.2909
  907MOL0     H22396   2.100   6.021   7.685  0.8613 -0.0781 -1.8533
  907MOL0     H22397   1.904   6.326   7.691  0.0258 -0.6812  0.3217
  907MOL0     H22398   2.055   6.273   7.769  0.7540 -0.8639 -0.5529
  907MOL0     H22399   2.054   6.444   7.517  1.3446 -5.3301 -1.2265
  907MOL0     H22400   2.072   6.508   7.690  1.7368 -0.3772 -0.3185
  907MOL0     H22401   2.245   6.321   7.548  0.0924 -2.0337  2.2559
  907MOL0     H22402   2.265   6.364   7.723 -1.4963 -1.6017  1.1021
  907MOL0     H22403   2.249   6.605   7.638  2.3510  0.5853  1.9619
  907MOL0     H22404   2.293   6.544   7.478  0.7116  0.4689 -0.1799
  907MOL0     H22405   2.493   6.511   7.382  0.5741  2.2071 -0.1030
  907MOL0     H22406   2.725   6.422   7.293 -0.7206  0.7092 -0.7578
  907MOL0     H22407   3.163   6.123   7.337 -1.0746  0.5906 -0.0467
  907MOL0     H22408   3.381   6.136   7.258 -1.7877 -1.5231  1.2297
  907MOL0     H22409   3.472   6.439   6.975 -4.1703  0.3583  3.6024
  907MOL0     H22410   3.544   6.521   7.109  1.3895 -0.7387  1.2102
  907MOL0     H22411   3.748   6.382   7.109  1.1592  0.1534 -0.2816
  907MOL0     H22412   3.688   6.280   6.968 -1.8832  0.1606  0.0895
  907MOL0     H22413   3.688   6.476   6.826 -1.2217  0.9925 -0.2736
  907MOL0     H22414   3.714   6.579   6.960 -0.5473 -0.6124 -1.1713
  907MOL0     H22415   3.918   6.377   6.861  0.7311 -0.9471 -0.1568
  907MOL0     H22416   3.933   6.478   7.007 -1.5390 -1.8653  0.3574
  907MOL0     H22417   3.924   6.677   6.835 -1.0483  0.8451  1.2187
  907MOL0     H22418   3.869   6.576   6.713  0.0878  0.6157 -0.2081
  907MOL0     H22419   4.095   6.455   6.691 -0.2921  0.8681 -2.9892
  907MOL0     H22420   4.103   6.621   6.667 -0.6519 -0.5256 -1.3006
  907MOL0     H22421   4.167   6.457   6.919 -2.2133 -0.8494 -0.9024
  907MOL0     H22422   4.169   6.635   6.924 -1.6146  0.5421 -1.9351
  907MOL0     H22423   4.352   6.655   6.782  2.8782  0.7053  1.4258
  907MOL0     H22424   4.379   6.540   6.910 -0.1041  1.9493 -0.2121
  907MOL0     H22425   3.311   6.522   7.097 -5.4513  3.6211  0.7151
  907MOL0     H22426   3.069   6.516   7.183  1.2259  0.9273 -1.8700
  907MOL0     H22427   2.833   6.378   7.711  2.4619  0.4703 -2.7124
  907MOL0     H22428   2.618   6.468   7.779  2.1067  0.5231  0.4386
  907MOL0     H22429   0.756   5.774   7.595 -1.5370  1.2542  0.2863
  907MOL0     H22430   0.537   5.802   7.726 -0.4607 -1.2930 -0.0136
  907MOL0     H22431   0.424   6.148   8.139 -1.6146  1.5357  3.3311
  907MOL0     H22432   0.195   6.238   8.193  3.0198  0.3869 -0.6236
  907MOL0     H22433  -0.031   6.285   8.180 -1.5643 -0.0972 -0.4019
  907MOL0     H22434   0.025   6.225   8.330  0.5788  1.8680 -1.1101
  907MOL0     H22435  -0.221   6.341   8.298 -3.4768 -0.0434 -1.6880
  907MOL0     H22436  -0.194   6.206   8.409  3.1748  1.3779 -0.1678
  907MOL0     H22437  -0.279   6.042   8.250 -1.0170 -0.4528  1.8195
  907MOL0     H22438  -0.300   6.168   8.130  3.6451  0.2014  0.8092
  907MOL0     H22439  -0.449   6.302   8.302 -1.4590 -0.6445 -0.0127
  907MOL0     H22440  -0.508   6.164   8.221  1.2435  3.6912 -1.7535
  907MOL0     H22441  -0.537   6.108   8.640  1.1125 -3.1449  0.0298
  907MOL0     H22442   0.067   5.823   8.194  2.3010 -0.5769  2.1179
  907MOL0     H22443   0.215   5.661   8.059 -0.1712 -1.5018  0.0079
  907MOL0     H22444   0.377   5.661   8.098 -0.6445  0.0322 -0.5179
  907MOL0     H22445   0.261   5.666   8.232 -0.0690  1.2092  0.4102
  908MOL0     O22446   9.001   6.057   5.315  0.7443 -0.3311 -0.1276
  908MOL0     C22447   8.878   6.089   5.310  0.2416 -0.2795 -0.0668
  908MOL0     O22448   8.828   6.214   5.278  0.8487 -0.1257 -0.4822
  908MOL0     C22449   8.917   6.318   5.282  0.1824  0.1645 -0.5158
  908MOL0     C22450   8.955   6.373   5.411 -0.3290 -0.0931 -0.1297
  908MOL0     C22451   9.040   6.485   5.418 -0.8779 -0.7295  0.3483
  908MOL0     C22452   9.098   6.537   5.302  1.0479  0.3173 -0.7286
  908MOL0     O22453   9.186   6.636   5.321  0.3783 -0.8465 -0.2458
  908MOL0     C22454   9.246   6.701   5.212 -0.8616 -0.4976  0.1163
  908MOL0     C22455   9.315   6.828   5.276  0.0338 -0.1005  0.1706
  908MOL0     C22456   9.407   6.893   5.185 -0.2101  0.1311  0.6603
  908MOL0     C22457   9.529   6.950   5.273  0.2543 -0.6386  0.2562
  908MOL0     C22458   9.634   7.014   5.184  0.3659  0.5990  0.3510
  908MOL0     C22459   9.688   7.137   5.249  0.6091 -0.0314  0.0136
  908MOL0     C22460   9.827   7.173   5.187 -0.5603  0.8810 -0.9693
  908MOL0     C22461   9.909   7.269   5.269 -0.6840  0.0328  0.1193
  908MOL0     N22462   9.955   7.216   5.400  0.4602 -0.2543  0.4082
  908MOL0     C22463  10.068   7.147   5.418 -0.0054  0.4712 -0.2283
  908MOL0     C22464  10.065   7.108   5.547 -0.2995 -0.4831 -0.2347
  908MOL0     C22465  10.185   7.042   5.609 -0.3928  0.5521  0.0051
  908MOL0     C22466  10.300   7.138   5.627  0.3939  0.3980  0.1817
  908MOL0     C22467  10.411   7.073   5.709  0.4919 -0.0792 -0.0167
  908MOL0     C22468  10.545   7.139   5.727  0.4867 -0.6860 -0.0689
  908MOL0     O22469  10.646   7.068   5.657 -0.0025 -0.5771 -0.1073
  908MOL0     C22470  10.775   7.113   5.681  0.1848  0.0793  0.1270
  908MOL0     C22471  10.888   7.027   5.645  0.5057  0.6514  0.0532
  908MOL0     C22472  11.017   7.054   5.671 -0.6394 -0.5806 -0.2128
  908MOL0     C22473  11.052   7.180   5.717  0.1331  0.8914  1.2426
  908MOL0     C22474  11.194   7.204   5.747 -0.5108 -0.7463  0.0620
  908MOL0     O22475  11.227   7.330   5.759  0.2400 -0.0409 -0.4115
  908MOL0     C22476  11.364   7.354   5.775  0.6442  0.3574  0.0439
  908MOL0     C22477  11.449   7.372   5.663 -0.5560 -0.8087  1.0801
  908MOL0     C22478  11.585   7.403   5.676  0.3192 -0.9152  0.0359
  908MOL0     C22479  11.640   7.417   5.800 -0.1711 -0.9121  0.4868
  908MOL0     O22480  11.774   7.437   5.827  0.3017 -0.3384  0.6504
  908MOL0     C22481  11.860   7.438   5.710  0.3109 -0.7718 -0.5353
  908MOL0     C22482  11.998   7.432   5.762 -0.1161 -0.4943 -0.4748
  908MOL0     C22483  12.108   7.462   5.657 -0.5874 -0.5214 -0.0243
  908MOL0     C22484  12.238   7.459   5.732 -0.7390 -0.6631 -0.4341
  908MOL0     C22485  12.357   7.477   5.637  0.4416  0.3919  0.5598
  908MOL0     C22486  12.487   7.494   5.713 -0.1215  0.1440  0.2033
  908MOL0     C22487  12.594   7.543   5.614  0.0615  0.4640  0.6423
  908MOL0     C22488  12.734   7.553   5.674 -0.8058 -0.7220 -0.9395
  908MOL0    Cl22489  12.837   7.610   5.549  0.0668  0.0475  0.3044
  908MOL0     C22490  11.557   7.390   5.910 -0.1230  0.7676  0.5186
  908MOL0     C22491  11.423   7.362   5.901  0.3966  0.0217  0.0025
  908MOL0     O22492  11.270   7.105   5.747  0.1975  0.3455  0.7296
  908MOL0     C22493  10.952   7.271   5.744  0.2464 -0.1443 -0.6425
  908MOL0     C22494  10.815   7.241   5.733 -0.0638  0.2996 -0.4004
  908MOL0     N22495   9.953   7.148   5.610  0.6508  0.6609  0.4103
  908MOL0     N22496   9.883   7.212   5.515 -0.1855 -0.1560 -0.2415
  908MOL0     C22497   9.057   6.484   5.173 -0.1381 -0.0988  0.1405
  908MOL0     C22498   8.967   6.376   5.165 -0.3400 -0.2291 -0.6169
  908MOL0     C22499   8.780   5.970   5.323 -0.2650 -0.8805  0.4226
  908MOL0     C22500   8.645   5.991   5.300  0.5845 -0.0934  0.2340
  908MOL0     C22501   8.553   5.889   5.285  0.6483 -0.4017 -0.0092
  908MOL0     C22502   8.588   5.760   5.316 -0.5996 -0.3356  0.0922
  908MOL0     O22503   8.483   5.664   5.331 -0.2601 -0.7210 -0.7143
  908MOL0     C22504   8.517   5.556   5.430 -0.3343 -0.8371  0.5894
  908MOL0     C22505   8.395   5.497   5.499  1.0874  0.3663  0.0191
  908MOL0     C22506   8.280   5.591   5.527  0.4166  0.1199 -0.8432
  908MOL0     C22507   8.188   5.511   5.629 -0.1755  0.7856  0.1247
  908MOL0     C22508   8.048   5.554   5.654 -0.0363  0.3992  1.1939
  908MOL0     C22509   7.937   5.593   5.678 -1.2161  0.3297  0.0292
  908MOL0     C22510   8.717   5.740   5.351 -0.6505 -0.3545  0.2912
  908MOL0     C22511   8.818   5.836   5.358 -0.3148  0.5402 -0.4396
  908MOL0     C22512   8.955   5.789   5.407 -0.4383  0.2575 -0.2850
  908MOL0     H22513   8.912   6.343   5.506 -0.2437  0.1270 -0.0191
  908MOL0     H22514   9.053   6.532   5.515 -1.6483  2.3749 -0.9371
  908MOL0     H22515   9.315   6.636   5.156 -0.5343  0.1558 -0.2481
  908MOL0     H22516   9.176   6.743   5.138  0.5298  0.0774 -0.9206
  908MOL0     H22517   9.362   6.789   5.367 -0.0516 -0.7037 -0.0372
  908MOL0     H22518   9.243   6.905   5.307  3.3088  3.3348 -0.0600
  908MOL0     H22519   9.355   6.971   5.128 -2.7268  0.4753  3.2110
  908MOL0     H22520   9.444   6.817   5.115 -2.1535  0.2708 -0.5988
  908MOL0     H22521   9.491   7.027   5.342  2.2944 -0.7821  1.6345
  908MOL0     H22522   9.554   6.872   5.346 -1.9216  2.0250  4.2653
  908MOL0     H22523   9.709   6.936   5.166  0.0305  0.0406  1.2998
  908MOL0     H22524   9.593   7.039   5.086  0.3877 -1.5944 -0.2837
  908MOL0     H22525   9.628   7.226   5.228  1.1376  0.5541  0.9210
  908MOL0     H22526   9.701   7.114   5.355 -0.0977  0.8221  0.3002
  908MOL0     H22527   9.824   7.212   5.085 -0.6158  0.0005 -1.3103
  908MOL0     H22528   9.883   7.080   5.175  0.0690  1.3307 -1.5427
  908MOL0     H22529  10.003   7.277   5.214 -0.2383  0.2719  0.9158
  908MOL0     H22530   9.861   7.367   5.275  0.0846  0.5127 -1.0662
  908MOL0     H22531  10.145   7.135   5.342 -0.1333  1.6503 -0.5716
  908MOL0     H22532  10.156   6.987   5.699 -0.0751 -0.2402 -0.3609
  908MOL0     H22533  10.223   6.966   5.540 -0.9639  0.6188 -0.3893
  908MOL0     H22534  10.337   7.165   5.528  1.2582 -1.7276 -0.1179
  908MOL0     H22535  10.260   7.220   5.688 -1.5481 -1.3993  1.4836
  908MOL0     H22536  10.426   6.975   5.664 -0.8917 -1.0194  1.4526
  908MOL0     H22537  10.365   7.060   5.808 -0.6213 -0.9569 -0.6218
  908MOL0     H22538  10.570   7.151   5.833  1.9766  1.0772 -0.5716
  908MOL0     H22539  10.554   7.241   5.688 -1.8116 -0.7291 -0.8756
  908MOL0     H22540  10.864   6.930   5.604  1.1612  2.1612 -4.4751
  908MOL0     H22541  11.093   6.983   5.640 -1.5087 -2.1157  1.0286
  908MOL0     H22542  11.408   7.370   5.563  1.0781 -3.2069  0.3706
  908MOL0     H22543  11.646   7.422   5.588  0.7801  3.6464  1.1341
  908MOL0     H22544  11.838   7.350   5.648 -0.2061 -0.7555 -0.3765
  908MOL0     H22545  11.849   7.535   5.661  0.8399 -0.1328  0.5733
  908MOL0     H22546  12.001   7.499   5.848 -1.7723 -0.6687 -0.2440
  908MOL0     H22547  12.021   7.332   5.800  2.4225  0.4186  0.5507
  908MOL0     H22548  12.099   7.387   5.578 -1.6544 -2.4053  1.7817
  908MOL0     H22549  12.089   7.554   5.601  1.4556 -0.5747 -0.8990
  908MOL0     H22550  12.234   7.360   5.778 -0.1515 -0.7166 -0.4880
  908MOL0     H22551  12.238   7.536   5.809  0.3003  0.0974 -1.1513
  908MOL0     H22552  12.341   7.570   5.582  0.2488 -0.4964 -0.9161
  908MOL0     H22553  12.367   7.398   5.562  1.1681  3.9210 -3.4043
  908MOL0     H22554  12.484   7.566   5.795 -2.4657 -0.4887  0.7610
  908MOL0     H22555  12.515   7.393   5.746 -1.1383 -0.4568 -0.7046
  908MOL0     H22556  12.568   7.638   5.567  1.9221  0.6393 -0.1231
  908MOL0     H22557  12.594   7.463   5.539 -2.1063  1.0478 -0.0644
  908MOL0     H22558  12.732   7.623   5.758  1.5004 -1.1289 -0.4733
  908MOL0     H22559  12.757   7.467   5.737 -0.8450  0.4871  0.8094
  908MOL0     H22560  11.599   7.389   6.010 -4.5819  2.9330  2.6956
  908MOL0     H22561  11.360   7.339   5.986 -0.9419 -0.3348 -1.0562
  908MOL0     H22562  10.976   7.370   5.781  2.3197  0.1692 -2.6513
  908MOL0     H22563  10.750   7.320   5.769 -0.3663  0.7486 -1.8339
  908MOL0     H22564   9.105   6.526   5.084 -0.3726  1.8099  0.8535
  908MOL0     H22565   8.939   6.344   5.065 -0.9848  1.3403 -0.9680
  908MOL0     H22566   8.600   6.087   5.276  0.8694  0.0274  0.1718
  908MOL0     H22567   8.447   5.912   5.275  0.7653  1.3610  2.0814
  908MOL0     H22568   8.576   5.600   5.511  1.8403  0.7471 -1.6838
  908MOL0     H22569   8.571   5.477   5.377 -1.4716  0.1799 -2.2797
  908MOL0     H22570   8.429   5.452   5.593 -1.2290  0.9553  1.2157
  908MOL0     H22571   8.340   5.418   5.447 -0.4526  2.0565 -1.0365
  908MOL0     H22572   8.219   5.625   5.442 -0.1769  1.7217  0.1763
  908MOL0     H22573   8.314   5.686   5.570  1.3291 -0.8261  0.5922
  908MOL0     H22574   8.178   5.408   5.593  2.2271  0.5593 -0.0454
  908MOL0     H22575   8.243   5.507   5.724 -0.4613 -0.3144  0.2570
  908MOL0     H22576   7.841   5.638   5.694 -1.6050 -1.0486  1.9368
  908MOL0     H22577   8.743   5.638   5.378  1.2190  0.5635  2.2486
  908MOL0     H22578   9.012   5.767   5.317 -2.4445 -1.0864 -1.3242
  908MOL0     H22579   9.003   5.870   5.462  4.0253 -1.4641 -1.2567
  908MOL0     H22580   8.947   5.702   5.474  1.3530  0.7578  0.6409
  909MOL0     O22581   8.799   8.971   4.100 -0.8191  0.7780  0.2722
  909MOL0     C22582   8.784   8.849   4.125  0.1129  0.1882 -0.1594
  909MOL0     O22583   8.881   8.765   4.168 -0.0637  0.1610  0.7275
  909MOL0     C22584   9.001   8.819   4.214 -0.4079 -0.1337 -0.2314
  909MOL0     C22585   9.070   8.749   4.317 -0.1672 -0.3980 -0.4394
  909MOL0     C22586   9.196   8.794   4.356  0.2732  0.3401  0.5579
  909MOL0     C22587   9.258   8.899   4.298  0.4137 -0.1466  0.1100
  909MOL0     O22588   9.386   8.930   4.351  0.3282 -0.4933 -0.0789
  909MOL0     C22589   9.439   9.062   4.326  0.7355  0.1633  0.9405
  909MOL0     C22590   9.571   9.074   4.405  0.0569  0.1741  0.2375
  909MOL0     C22591   9.668   8.965   4.358 -1.2600 -0.1775 -0.0451
  909MOL0     C22592   9.805   8.973   4.431  0.4796  0.2520 -0.3695
  909MOL0     C22593   9.918   9.068   4.373  0.4001  0.6073 -0.9720
  909MOL0     C22594  10.029   9.093   4.482  0.3564  0.0847  0.7547
  909MOL0     C22595  10.110   8.966   4.519 -0.7884 -0.1484  0.2565
  909MOL0     C22596  10.174   8.889   4.395 -0.8028  0.1539 -0.1616
  909MOL0     N22597  10.274   8.975   4.331 -0.6477 -0.5709 -0.4249
  909MOL0     C22598  10.415   8.953   4.333 -0.3947  0.1854 -0.4321
  909MOL0     C22599  10.466   9.027   4.225 -0.0044  0.3900 -0.7189
  909MOL0     C22600  10.604   9.039   4.178  0.2693 -0.5671  0.2984
  909MOL0     C22601  10.706   8.995   4.279  0.5169 -0.4562  0.1069
  909MOL0     C22602  10.848   9.050   4.247 -0.3380 -0.2607  0.3494
  909MOL0     C22603  10.931   9.043   4.370 -0.3035  0.0129  0.0468
  909MOL0     O22604  11.063   9.084   4.328  0.6395 -0.0228 -0.4124
  909MOL0     C22605  11.162   9.047   4.409  0.1703  0.0583  0.2810
  909MOL0     C22606  11.288   9.089   4.362 -0.0913  0.6258  0.5783
  909MOL0     C22607  11.403   9.069   4.438 -0.0236 -0.0732  0.2354
  909MOL0     C22608  11.399   9.009   4.563  0.6257  0.2960  0.8726
  909MOL0     C22609  11.519   8.996   4.651  0.3336  0.1024 -0.1762
  909MOL0     O22610  11.514   8.893   4.743 -0.0171  0.9912  0.6536
  909MOL0     C22611  11.614   8.866   4.836  0.2769 -0.3443 -0.6339
  909MOL0     C22612  11.693   8.965   4.900 -0.1086  0.1457 -0.6557
  909MOL0     C22613  11.792   8.938   4.992  0.5490  0.0051 -0.8978
  909MOL0     C22614  11.822   8.803   5.021  0.5334 -0.1201  0.4177
  909MOL0     O22615  11.922   8.771   5.109  0.2286 -0.0528  0.7132
  909MOL0     C22616  12.012   8.882   5.143 -0.0436 -0.1194 -0.8275
  909MOL0     C22617  12.123   8.837   5.236 -0.6595  0.6483  0.5508
  909MOL0     C22618  12.231   8.748   5.187  0.0358 -0.1305  0.3381
  909MOL0     C22619  12.194   8.612   5.120 -0.3350  0.0286 -0.2542
  909MOL0     C22620  12.303   8.555   5.035  0.2949  0.5964 -0.3440
  909MOL0     C22621  12.436   8.541   5.118  1.1024 -0.7277 -0.0304
  909MOL0     C22622  12.539   8.457   5.029 -0.1180  0.3385 -0.7863
  909MOL0     C22623  12.589   8.329   5.091 -0.3743 -0.4275 -0.3180
  909MOL0    Cl22624  12.739   8.291   4.998  0.2262  0.4699 -0.5287
  909MOL0     C22625  11.737   8.697   4.968 -0.3723  0.4321 -0.3359
  909MOL0     C22626  11.628   8.735   4.879 -1.0548  0.3583  0.0174
  909MOL0     O22627  11.619   9.069   4.629  0.3032 -0.5437  0.0803
  909MOL0     C22628  11.276   8.958   4.611  1.0211 -0.1620 -0.0791
  909MOL0     C22629  11.155   8.991   4.544 -0.2512 -0.1991 -0.0520
  909MOL0     N22630  10.362   9.107   4.189  0.7124  0.6916  0.8152
  909MOL0     N22631  10.254   9.067   4.234  0.3333 -0.5639 -0.3563
  909MOL0     C22632   9.202   8.969   4.189  0.2901  0.2891 -0.9620
  909MOL0     C22633   9.071   8.927   4.146  0.2381  0.2333  0.5052
  909MOL0     C22634   8.639   8.790   4.118 -0.3058 -0.6600  1.0057
  909MOL0     C22635   8.609   8.651   4.100  0.4635 -0.1222  0.5850
  909MOL0     C22636   8.481   8.607   4.080  0.6012  0.0608  0.5815
  909MOL0     C22637   8.371   8.689   4.102 -0.7256  0.4691  0.2414
  909MOL0     O22638   8.252   8.629   4.069  0.1318 -0.0406  0.3147
  909MOL0     C22639   8.137   8.717   4.066  0.3335 -0.3945  0.8824
  909MOL0     C22640   8.021   8.655   3.991  0.5339  0.1103 -0.4393
  909MOL0     C22641   7.900   8.748   3.999 -0.7905 -0.2462 -1.1460
  909MOL0     C22642   7.805   8.682   3.903  0.4592  1.1001  0.3764
  909MOL0     C22643   7.660   8.734   3.929  0.0010  1.0944 -0.5156
  909MOL0     C22644   7.549   8.779   3.948  0.3834 -0.8062 -0.3863
  909MOL0     C22645   8.391   8.826   4.118 -0.1628 -0.2917 -1.1007
  909MOL0     C22646   8.525   8.877   4.141 -0.2175  0.6296  0.6232
  909MOL0     C22647   8.542   9.024   4.189  0.5404  0.2371 -0.3675
  909MOL0     H22648   9.028   8.662   4.367  2.3468 -0.1566  2.3818
  909MOL0     H22649   9.248   8.743   4.437  0.2771  0.7308  0.8065
  909MOL0     H22650   9.455   9.067   4.218  0.0456 -2.3735  0.6491
  909MOL0     H22651   9.369   9.137   4.364  0.4624 -0.7200  2.2609
  909MOL0     H22652   9.560   9.061   4.513 -0.5380  0.0145  0.1572
  909MOL0     H22653   9.612   9.175   4.393 -0.4858  0.5666  1.5320
  909MOL0     H22654   9.691   8.983   4.253 -2.3748  0.0179 -0.2624
  909MOL0     H22655   9.627   8.864   4.374  2.5263 -1.9162 -0.2548
  909MOL0     H22656   9.783   9.003   4.535 -2.6083  0.8856 -1.0939
  909MOL0     H22657   9.838   8.869   4.427 -5.0529 -1.8123 -2.7163
  909MOL0     H22658   9.952   9.023   4.279 -2.8559  0.5868 -2.2673
  909MOL0     H22659   9.882   9.168   4.347 -0.5701  0.1346 -1.4959
  909MOL0     H22660  10.097   9.173   4.450  0.4942  0.4486  1.9160
  909MOL0     H22661   9.978   9.134   4.570 -1.9650 -1.9528  0.4573
  909MOL0     H22662  10.043   8.894   4.566 -1.8590  0.6739  0.0093
  909MOL0     H22663  10.192   8.987   4.589  0.7934 -1.5102 -1.0693
  909MOL0     H22664  10.225   8.795   4.419  0.7945  0.3261 -2.5497
  909MOL0     H22665  10.100   8.858   4.320 -0.3161 -0.3651 -0.4274
  909MOL0     H22666  10.472   8.879   4.387 -0.9227  0.6095  0.7418
  909MOL0     H22667  10.610   8.985   4.083 -1.0697  0.0153 -0.1429
  909MOL0     H22668  10.625   9.145   4.161  0.8001 -0.5234  1.1766
  909MOL0     H22669  10.671   9.035   4.375  1.1645 -1.9424  0.9948
  909MOL0     H22670  10.703   8.886   4.287 -1.0483 -0.4534 -0.0987
  909MOL0     H22671  10.835   9.157   4.228 -0.2722 -0.4602 -0.9294
  909MOL0     H22672  10.889   9.008   4.155 -2.0156  0.9338 -1.0132
  909MOL0     H22673  10.936   8.936   4.390 -1.1941 -0.6562 -2.8886
  909MOL0     H22674  10.897   9.107   4.452  1.2868  0.4948  0.3843
  909MOL0     H22675  11.303   9.130   4.263  1.3439  0.7225  0.8053
  909MOL0     H22676  11.498   9.102   4.398 -1.1281  2.4691 -0.5118
  909MOL0     H22677  11.694   9.071   4.875 -1.2589  0.8702  1.9397
  909MOL0     H22678  11.847   9.022   5.034  1.2418 -1.4113  1.1943
  909MOL0     H22679  12.057   8.915   5.049 -1.2748  1.9683 -0.7376
  909MOL0     H22680  11.966   8.964   5.198  1.6950  0.3545 -0.0314
  909MOL0     H22681  12.173   8.931   5.260  0.4753 -0.1806  1.4845
  909MOL0     H22682  12.081   8.792   5.326  0.7056  0.3258  1.0399
  909MOL0     H22683  12.278   8.811   5.111 -0.5846  0.5348  0.4967
  909MOL0     H22684  12.293   8.725   5.274 -0.5291  0.0698  0.8008
  909MOL0     H22685  12.112   8.628   5.049 -0.0524 -1.0060 -0.8364
  909MOL0     H22686  12.157   8.531   5.184 -0.2753  0.3001  0.1311
  909MOL0     H22687  12.329   8.620   4.952  2.9389  1.2967  0.9217
  909MOL0     H22688  12.266   8.460   4.994 -2.6628  2.3230 -1.9314
  909MOL0     H22689  12.485   8.633   5.151 -0.6206 -0.5086  2.2111
  909MOL0     H22690  12.407   8.491   5.211 -2.0078 -1.5381 -1.3120
  909MOL0     H22691  12.615   8.535   5.018 -0.8715  1.2075  0.0275
  909MOL0     H22692  12.495   8.430   4.932  0.5118  0.3200 -1.0730
  909MOL0     H22693  12.614   8.337   5.197 -1.3688 -0.7251 -0.0480
  909MOL0     H22694  12.506   8.258   5.075 -1.3179  0.0376  2.0289
  909MOL0     H22695  11.754   8.593   4.990 -0.1036 -0.4058 -3.9162
  909MOL0     H22696  11.568   8.657   4.832 -1.1887 -1.4757  2.9579
  909MOL0     H22697  11.274   8.900   4.703 -1.7006  1.2566  0.8608
  909MOL0     H22698  11.060   8.958   4.584  0.0526 -1.1056 -0.0461
  909MOL0     H22699   9.246   9.050   4.132 -0.9789 -0.2791 -2.8247
  909MOL0     H22700   9.036   8.980   4.058 -0.3940  1.3250  1.3914
  909MOL0     H22701   8.688   8.578   4.083 -1.3506 -1.3537 -4.4309
  909MOL0     H22702   8.463   8.505   4.048 -1.1721 -0.2757  2.3824
  909MOL0     H22703   8.153   8.814   4.017 -0.6571 -1.1652 -1.0885
  909MOL0     H22704   8.106   8.727   4.170  2.3479 -1.7423  1.6809
  909MOL0     H22705   7.990   8.559   4.033  0.1332  0.8249  0.9531
  909MOL0     H22706   8.039   8.630   3.885 -1.4431  0.2216 -0.8496
  909MOL0     H22707   7.924   8.850   3.965  2.1459 -0.6893 -0.7016
  909MOL0     H22708   7.861   8.751   4.101  1.9633 -2.7258  0.1307
  909MOL0     H22709   7.827   8.694   3.796 -1.0838  1.9822  0.1224
  909MOL0     H22710   7.807   8.577   3.935  0.0675  1.1373  0.5236
  909MOL0     H22711   7.449   8.818   3.952  0.2041 -1.2391 -0.5085
  909MOL0     H22712   8.314   8.902   4.117 -1.5254 -1.6261 -1.5537
  909MOL0     H22713   8.572   9.086   4.104  0.2185  3.6262  1.7978
  909MOL0     H22714   8.447   9.058   4.230  0.5544  0.8072 -0.7830
  909MOL0     H22715   8.622   9.051   4.259  1.4794  0.6901 -1.5645
  910MOL0     O22716   8.241   6.036   5.121  0.5949  0.2742 -0.2520
  910MOL0     C22717   8.190   6.074   5.014 -0.6443  0.6599 -0.5702
  910MOL0     O22718   8.238   6.180   4.938 -0.2716 -0.6583 -0.0855
  910MOL0     C22719   8.362   6.236   4.944 -0.1396 -0.3348  0.4850
  910MOL0     C22720   8.365   6.370   4.909 -0.4693  0.5667 -0.8084
  910MOL0     C22721   8.482   6.438   4.909 -0.1773 -0.3687  0.3448
  910MOL0     C22722   8.596   6.384   4.950  0.1547  0.5632 -0.3427
  910MOL0     O22723   8.719   6.451   4.959  0.1648  0.1656  0.4011
  910MOL0     C22724   8.760   6.526   4.837  0.6957  0.2593 -1.0837
  910MOL0     C22725   8.904   6.541   4.854 -0.2298 -0.2359 -0.0393
  910MOL0     C22726   8.978   6.619   4.745  0.8481  0.4018  0.2972
  910MOL0     C22727   9.127   6.628   4.766 -0.0145  0.4061 -1.4380
  910MOL0     C22728   9.178   6.736   4.687 -0.1544  0.0851  0.1343
  910MOL0     C22729   9.330   6.740   4.713 -0.0162 -0.6088  0.4424
  910MOL0     C22730   9.399   6.875   4.667 -0.3387  0.2619 -0.5776
  910MOL0     C22731   9.546   6.885   4.718  0.4151  0.6677 -0.2767
  910MOL0     N22732   9.614   7.011   4.676  0.4399  0.2913  0.1429
  910MOL0     C22733   9.687   7.027   4.563  0.7512  0.2564 -0.1420
  910MOL0     C22734   9.767   7.141   4.584 -0.3455  0.6450  0.6211
  910MOL0     C22735   9.855   7.203   4.480 -0.5090 -1.0884 -0.0293
  910MOL0     C22736   9.944   7.311   4.547 -0.0413 -0.2872  0.9738
  910MOL0     C22737  10.063   7.341   4.456 -0.4034  0.2143 -0.4375
  910MOL0     C22738  10.164   7.438   4.525 -0.7132  1.4620  0.7166
  910MOL0     O22739  10.252   7.473   4.418 -0.2937  0.7245 -0.2353
  910MOL0     C22740  10.376   7.521   4.449  0.3498  0.5702 -0.1837
  910MOL0     C22741  10.420   7.555   4.570  0.4928 -0.6470 -0.0453
  910MOL0     C22742  10.553   7.594   4.596 -0.1993  0.6330  0.0192
  910MOL0     C22743  10.650   7.584   4.489  0.3229 -0.3087 -0.6031
  910MOL0     C22744  10.791   7.618   4.513  0.0406  1.0467 -0.3242
  910MOL0     O22745  10.845   7.603   4.640  0.1271 -0.3107 -0.0641
  910MOL0     C22746  10.966   7.643   4.679  0.0538 -0.5943  1.3855
  910MOL0     C22747  11.082   7.614   4.597  0.2505  0.6283  0.0843
  910MOL0     C22748  11.210   7.646   4.650  0.7965 -0.1453 -0.5189
  910MOL0     C22749  11.228   7.708   4.774  0.2818  0.1044 -0.1373
  910MOL0     O22750  11.350   7.724   4.829  0.3009 -0.3692 -0.1471
  910MOL0     C22751  11.381   7.858   4.866  0.8947 -0.5789  0.2046
  910MOL0     C22752  11.387   7.961   4.753 -0.9333 -0.4725 -0.0267
  910MOL0     C22753  11.526   7.965   4.686  0.0558 -0.5876  0.2170
  910MOL0     C22754  11.612   8.091   4.741 -0.0672  0.2394 -0.5792
  910MOL0     C22755  11.748   8.133   4.679 -0.2322 -0.5023  0.2846
  910MOL0     C22756  11.858   8.041   4.723  0.1794 -0.3432 -0.2232
  910MOL0     C22757  11.983   8.058   4.640 -0.1351  0.3042  0.3113
  910MOL0     C22758  11.959   8.016   4.498  0.1757  0.0072  0.4645
  910MOL0    Cl22759  12.122   8.023   4.415  0.1054  0.2618 -0.1573
  910MOL0     C22760  11.109   7.731   4.849 -0.2290 -0.6841 -0.5114
  910MOL0     C22761  10.986   7.699   4.807  0.2346 -0.2252 -0.0960
  910MOL0     O22762  10.850   7.653   4.410 -0.7156 -0.3240  0.3255
  910MOL0     C22763  10.602   7.558   4.363  0.8299  0.5729  0.1465
  910MOL0     C22764  10.466   7.517   4.344 -0.5653  0.5370  0.1056
  910MOL0     N22765   9.714   7.194   4.697 -0.8732 -0.4717  0.1295
  910MOL0     N22766   9.631   7.119   4.753  0.1291  0.6919  0.1496
  910MOL0     C22767   8.597   6.249   4.984  0.5640  0.1964  0.0379
  910MOL0     C22768   8.482   6.177   4.981 -0.4113 -0.1204  0.8637
  910MOL0     C22769   8.059   6.019   4.981 -0.4521  0.0320  1.0429
  910MOL0     C22770   7.968   6.103   4.922  0.8308 -0.5020  0.1041
  910MOL0     C22771   7.839   6.055   4.902 -0.4020  0.9068 -0.4937
  910MOL0     C22772   7.806   5.923   4.934  0.9622 -0.1572 -0.4925
  910MOL0     O22773   7.677   5.883   4.892 -0.2871  0.5911 -0.1039
  910MOL0     C22774   7.684   5.779   4.796 -0.3151 -0.1496 -0.0663
  910MOL0     C22775   7.599   5.844   4.681 -0.7890  0.1687 -0.5183
  910MOL0     C22776   7.566   5.753   4.563  0.0091  0.5545  0.2456
  910MOL0     C22777   7.482   5.631   4.607 -0.9755 -0.6109 -0.1694
  910MOL0     C22778   7.346   5.674   4.636  0.7333 -0.1206 -0.3654
  910MOL0     C22779   7.224   5.692   4.655  0.5374 -0.2544  0.4829
  910MOL0     C22780   7.900   5.836   4.989 -0.1875 -0.6287  0.1751
  910MOL0     C22781   8.031   5.882   5.005  0.0395  0.5516 -0.2634
  910MOL0     C22782   8.129   5.773   5.048 -0.7103  0.1741  0.6220
  910MOL0     H22783   8.266   6.412   4.891 -1.1257 -1.5373 -2.3888
  910MOL0     H22784   8.492   6.545   4.900  4.2814 -0.4853  1.2935
  910MOL0     H22785   8.749   6.466   4.746 -1.7712 -0.5726 -0.3376
  910MOL0     H22786   8.702   6.617   4.820 -0.7681 -0.8237 -2.2056
  910MOL0     H22787   8.943   6.439   4.859 -0.4932 -0.7884 -4.5974
  910MOL0     H22788   8.920   6.584   4.953 -0.0980  2.0230 -0.9601
  910MOL0     H22789   8.926   6.713   4.726 -0.9214 -0.2526  1.6298
  910MOL0     H22790   8.975   6.569   4.648  2.2559  1.1071 -0.1500
  910MOL0     H22791   9.142   6.649   4.873  0.8663  2.8159 -1.9686
  910MOL0     H22792   9.174   6.531   4.746 -1.7325 -0.5132 -1.1984
  910MOL0     H22793   9.163   6.722   4.580  1.5610  1.7540 -0.3832
  910MOL0     H22794   9.122   6.825   4.715 -2.7628 -1.4448  0.1113
  910MOL0     H22795   9.328   6.736   4.822 -1.4866 -0.2279  0.4540
  910MOL0     H22796   9.394   6.657   4.683  2.8410  2.6097 -3.6391
  910MOL0     H22797   9.341   6.964   4.694 -1.1008 -0.1416 -0.8536
  910MOL0     H22798   9.403   6.879   4.557  1.3639  1.0817 -0.5222
  910MOL0     H22799   9.561   6.888   4.826  1.6669 -0.6326 -0.3942
  910MOL0     H22800   9.606   6.802   4.678 -0.8674 -0.1589 -0.5699
  910MOL0     H22801   9.689   6.960   4.478  1.3066  1.5225 -1.1732
  910MOL0     H22802   9.916   7.122   4.438 -0.1292 -0.0843 -1.4595
  910MOL0     H22803   9.796   7.251   4.402 -0.7950  0.6274  1.1859
  910MOL0     H22804   9.896   7.408   4.556 -1.3538 -0.8424  0.2273
  910MOL0     H22805   9.977   7.273   4.644  0.1170 -1.7427  0.3874
  910MOL0     H22806  10.020   7.375   4.361 -1.2475  1.1007  0.2520
  910MOL0     H22807  10.107   7.242   4.437 -2.3862 -0.7198 -0.3879
  910MOL0     H22808  10.207   7.387   4.612 -0.1517 -0.6335 -0.7098
  910MOL0     H22809  10.111   7.523   4.568  0.4644  0.8752  3.6030
  910MOL0     H22810  10.355   7.547   4.658  1.0166 -1.1196  0.3019
  910MOL0     H22811  10.595   7.622   4.692 -1.9260  1.5798  0.5330
  910MOL0     H22812  11.075   7.580   4.494  2.0622  0.2996  0.0449
  910MOL0     H22813  11.289   7.618   4.581  2.5862 -2.7242  2.3320
  910MOL0     H22814  11.310   7.894   4.942  2.0660 -0.5137  1.3127
  910MOL0     H22815  11.484   7.870   4.902  1.6001  2.4261 -2.3641
  910MOL0     H22816  11.301   7.944   4.687 -0.6548  0.1567 -0.5650
  910MOL0     H22817  11.362   8.061   4.786 -0.3800 -0.4576  0.3540
  910MOL0     H22818  11.580   7.871   4.669  3.6509  1.2706  0.4096
  910MOL0     H22819  11.504   7.983   4.580 -1.9613  0.1866  0.7191
  910MOL0     H22820  11.632   8.082   4.848  2.3460  0.7442 -0.9443
  910MOL0     H22821  11.541   8.172   4.726 -1.2260 -0.9915 -2.0713
  910MOL0     H22822  11.769   8.240   4.690 -1.6571 -0.1693 -0.0593
  910MOL0     H22823  11.736   8.131   4.570 -0.5016  0.6163  0.2822
  910MOL0     H22824  11.888   8.050   4.827 -0.6478  0.7863 -0.0640
  910MOL0     H22825  11.828   7.936   4.720  0.3356 -0.4027  0.2774
  910MOL0     H22826  12.063   7.994   4.677 -1.2050 -0.2185  1.8535
  910MOL0     H22827  12.030   8.157   4.637  1.4279 -0.4301 -1.1233
  910MOL0     H22828  11.911   7.918   4.495 -0.3085  0.2296  0.8113
  910MOL0     H22829  11.906   8.099   4.450  1.7188  0.4942 -0.4640
  910MOL0     H22830  11.121   7.786   4.941  0.5996  0.1106 -1.0714
  910MOL0     H22831  10.904   7.716   4.876  0.0292  4.4134 -1.1554
  910MOL0     H22832  10.662   7.546   4.273 -0.9090 -2.6497 -0.7380
  910MOL0     H22833  10.425   7.478   4.251 -2.8650 -0.5114  1.4843
  910MOL0     H22834   8.684   6.215   5.039  1.2942  0.7672 -0.7531
  910MOL0     H22835   8.475   6.073   5.011  2.0906 -0.8468 -0.7161
  910MOL0     H22836   7.991   6.201   4.883 -2.4461  0.2046 -0.3910
  910MOL0     H22837   7.767   6.126   4.864 -1.3860  0.1167 -0.1330
  910MOL0     H22838   7.644   5.683   4.828 -2.3461  0.1485 -1.5194
  910MOL0     H22839   7.788   5.763   4.763  0.0807 -2.5241  2.0535
  910MOL0     H22840   7.661   5.926   4.644 -0.9992  0.1740 -0.8699
  910MOL0     H22841   7.506   5.887   4.720 -0.2311  1.8950 -1.0012
  910MOL0     H22842   7.660   5.723   4.514 -0.8087  1.4328 -1.9740
  910MOL0     H22843   7.508   5.810   4.490 -0.8516 -2.0156 -1.2001
  910MOL0     H22844   7.472   5.558   4.526  0.2775 -3.3540  1.9747
  910MOL0     H22845   7.533   5.585   4.692  0.3903  1.6993  0.3343
  910MOL0     H22846   7.120   5.697   4.679  0.4483  1.7533 -0.1637
  910MOL0     H22847   7.875   5.734   5.018 -2.2932  0.3661  2.0867
  910MOL0     H22848   8.143   5.787   5.156 -0.7741  0.5364  0.5854
  910MOL0     H22849   8.091   5.670   5.050 -2.3053  0.6697 -1.4155
  910MOL0     H22850   8.225   5.780   4.996 -1.9639  1.9395 -1.6022
  911MOL0     O22851   3.750   5.535   2.443 -0.1304 -1.0596 -1.1948
  911MOL0     C22852   3.769   5.525   2.325 -0.6903  0.4024 -0.5025
  911MOL0     O22853   3.889   5.487   2.262 -0.1033  0.0951 -0.5039
  911MOL0     C22854   3.971   5.424   2.338 -0.3103 -0.3251  0.1900
  911MOL0     C22855   3.965   5.281   2.348 -0.0076  0.4256 -0.5620
  911MOL0     C22856   4.071   5.218   2.413  0.0415  0.6464 -0.5476
  911MOL0     C22857   4.176   5.291   2.466  0.1823  0.0781 -0.9122
  911MOL0     O22858   4.266   5.216   2.535  0.6023 -0.4418 -0.9115
  911MOL0     C22859   4.398   5.238   2.501 -0.4910  0.8745 -0.4591
  911MOL0     C22860   4.437   5.194   2.358  0.1174  0.0916  0.1160
  911MOL0     C22861   4.580   5.224   2.337  0.9303  0.0608  0.4206
  911MOL0     C22862   4.617   5.184   2.192  0.3564 -0.5689 -0.3680
  911MOL0     C22863   4.765   5.166   2.157 -0.8657 -0.4719 -0.6167
  911MOL0     C22864   4.789   5.122   2.010 -0.4697  0.4494 -0.4765
  911MOL0     C22865   4.929   5.065   2.000 -0.7757 -0.0692 -0.0747
  911MOL0     C22866   4.974   5.026   1.859 -0.7825  0.6317  0.8149
  911MOL0     N22867   5.080   4.922   1.852 -0.6262 -0.1795 -0.7783
  911MOL0     C22868   5.180   4.914   1.947  0.2525 -0.0391 -0.0187
  911MOL0     C22869   5.251   4.804   1.906 -0.2227 -0.3205 -0.5391
  911MOL0     C22870   5.378   4.738   1.965  0.0961  0.3969  0.4409
  911MOL0     C22871   5.517   4.798   1.934  0.4097 -0.3895 -0.3746
  911MOL0     C22872   5.631   4.704   1.972 -0.1426  0.0153 -0.0488
  911MOL0     C22873   5.760   4.756   1.902 -0.5146  0.4904  0.2120
  911MOL0     O22874   5.877   4.676   1.953 -0.4810 -0.2692  0.0111
  911MOL0     C22875   5.931   4.560   1.889 -0.6265 -0.5388 -0.6937
  911MOL0     C22876   5.864   4.499   1.779 -0.1638 -0.0983 -0.1663
  911MOL0     C22877   5.933   4.393   1.714  0.3411  0.0218 -0.4439
  911MOL0     C22878   6.051   4.346   1.771 -0.5970 -0.6778  0.9210
  911MOL0     C22879   6.113   4.233   1.702  0.6870  0.2411  0.1043
  911MOL0     O22880   6.031   4.173   1.617 -0.4129  0.4974 -0.0226
  911MOL0     C22881   6.040   4.039   1.613 -0.1578  0.3808 -0.4766
  911MOL0     C22882   5.942   3.966   1.686 -0.5730  0.0608  0.9201
  911MOL0     C22883   5.953   3.823   1.690 -0.4974 -0.2121 -1.2868
  911MOL0     C22884   6.046   3.755   1.622  0.2300  0.6835  0.0984
  911MOL0     O22885   6.047   3.614   1.638 -0.4376 -1.0154  0.1405
  911MOL0     C22886   6.169   3.539   1.610 -0.3259  0.0963 -0.0059
  911MOL0     C22887   6.289   3.573   1.699  0.9868  0.6180 -0.3757
  911MOL0     C22888   6.412   3.486   1.671  1.1780 -0.1823 -0.0580
  911MOL0     C22889   6.395   3.348   1.723  0.1846 -0.2634  0.0372
  911MOL0     C22890   6.515   3.249   1.724  0.4272  0.3192  0.9319
  911MOL0     C22891   6.638   3.289   1.809 -0.5488 -0.0845  0.2951
  911MOL0     C22892   6.733   3.169   1.838 -0.4992  0.5346 -0.7215
  911MOL0     C22893   6.872   3.218   1.858 -0.4980  0.3272 -0.3670
  911MOL0    Cl22894   6.963   3.083   1.920  0.1782  0.0065  0.7093
  911MOL0     C22895   6.142   3.827   1.550  0.3872  0.4003  0.3484
  911MOL0     C22896   6.143   3.967   1.553 -0.0341  0.2110  0.1574
  911MOL0     O22897   6.234   4.212   1.719 -0.4846 -0.8174  0.1132
  911MOL0     C22898   6.112   4.405   1.883  0.2446  0.9790 -1.3004
  911MOL0     C22899   6.043   4.508   1.953 -0.5180 -0.3788  0.7357
  911MOL0     N22900   5.180   4.740   1.814 -0.2438 -0.0672  0.8512
  911MOL0     N22901   5.083   4.810   1.775 -1.0611 -0.0854  0.0376
  911MOL0     C22902   4.179   5.435   2.468  0.9227  0.7341  0.9543
  911MOL0     C22903   4.070   5.494   2.396 -0.0686  0.0013 -0.3869
  911MOL0     C22904   3.654   5.550   2.242 -0.2262  0.3680 -1.1495
  911MOL0     C22905   3.661   5.595   2.111  0.4464 -0.6526 -0.1032
  911MOL0     C22906   3.554   5.608   2.025 -0.1537  0.6809  0.6663
  911MOL0     C22907   3.428   5.563   2.066  0.5318 -0.5243  0.1623
  911MOL0     O22908   3.317   5.545   1.993  0.2259  0.2673  0.0880
  911MOL0     C22909   3.320   5.551   1.849  0.0930 -0.1587 -0.3922
  911MOL0     C22910   3.184   5.535   1.792  0.0176  0.6118  0.1307
  911MOL0     C22911   3.106   5.655   1.837  0.9443 -0.5183  0.0892
  911MOL0     C22912   3.016   5.634   1.962 -0.7086 -0.0743 -0.0516
  911MOL0     C22913   2.886   5.582   1.914 -0.4971  0.2925 -0.4206
  911MOL0     C22914   2.781   5.546   1.869  0.4864  0.1479 -0.7397
  911MOL0     C22915   3.414   5.527   2.197 -0.1605 -1.1415 -0.4184
  911MOL0     C22916   3.521   5.527   2.290  0.3662 -0.6251  0.8596
  911MOL0     C22917   3.473   5.477   2.428 -0.3531 -0.5750  0.0029
  911MOL0     H22918   3.870   5.240   2.314 -0.0671  0.6333 -0.6431
  911MOL0     H22919   4.071   5.111   2.432 -0.3900  0.9184  1.1998
  911MOL0     H22920   4.428   5.342   2.517  0.9462  0.3150  0.6389
  911MOL0     H22921   4.456   5.184   2.576 -3.9384 -0.9480  1.1425
  911MOL0     H22922   4.377   5.248   2.283  2.0718 -0.1798 -1.7473
  911MOL0     H22923   4.419   5.087   2.348 -4.1122  0.4887  1.5794
  911MOL0     H22924   4.640   5.175   2.415  1.2157 -1.6182 -0.8134
  911MOL0     H22925   4.597   5.331   2.356  0.3229  0.5646 -1.6414
  911MOL0     H22926   4.563   5.092   2.169 -1.2712 -0.3781  2.3353
  911MOL0     H22927   4.568   5.261   2.132  0.4479 -1.1560 -1.2221
  911MOL0     H22928   4.819   5.260   2.166  0.7949 -1.4061 -0.3032
  911MOL0     H22929   4.822   5.100   2.224  0.2354  1.1868  0.1564
  911MOL0     H22930   4.709   5.050   1.996 -1.8315  1.6738  0.5988
  911MOL0     H22931   4.784   5.208   1.943  4.2261  1.2714 -0.1236
  911MOL0     H22932   4.931   4.969   2.051  1.4457 -1.6580 -2.8487
  911MOL0     H22933   5.003   5.134   2.042  0.7130 -1.5145 -0.1804
  911MOL0     H22934   4.886   4.982   1.811 -1.7217 -0.9746  3.7157
  911MOL0     H22935   5.001   5.121   1.813  0.3068 -0.0507 -0.0181
  911MOL0     H22936   5.179   4.979   2.034  1.0258  0.8569 -0.6538
  911MOL0     H22937   5.364   4.735   2.073  0.2427 -0.1576  0.4508
  911MOL0     H22938   5.363   4.640   1.917 -0.8251  1.7896 -2.3537
  911MOL0     H22939   5.521   4.825   1.827  0.7728 -1.0510 -0.5304
  911MOL0     H22940   5.532   4.891   1.989  2.2264 -1.4908  1.0774
  911MOL0     H22941   5.621   4.601   1.936  1.7026 -0.6050  1.0439
  911MOL0     H22942   5.648   4.702   2.080 -0.4583 -0.1388 -0.0004
  911MOL0     H22943   5.760   4.859   1.939 -1.8341 -0.1921  2.2840
  911MOL0     H22944   5.749   4.760   1.793 -1.2962 -2.4944  0.0746
  911MOL0     H22945   5.774   4.533   1.729 -2.0728 -2.6034  1.3532
  911MOL0     H22946   5.891   4.367   1.617  1.9909  0.1910 -1.2437
  911MOL0     H22947   5.861   4.018   1.734  0.1500  2.8856 -0.7054
  911MOL0     H22948   5.874   3.759   1.728  0.0731  0.8742  2.1003
  911MOL0     H22949   6.139   3.435   1.627 -2.3444  1.1238  4.1470
  911MOL0     H22950   6.204   3.548   1.507 -3.2646 -4.2481 -1.6916
  911MOL0     H22951   6.308   3.680   1.690 -1.1631  1.5185  3.6989
  911MOL0     H22952   6.269   3.551   1.804  0.2495 -0.5765 -0.7457
  911MOL0     H22953   6.435   3.478   1.564  1.7849 -0.2082  0.0703
  911MOL0     H22954   6.495   3.532   1.726 -0.9394 -0.2859  3.5073
  911MOL0     H22955   6.306   3.307   1.675 -0.2871  1.6398 -0.7957
  911MOL0     H22956   6.359   3.361   1.826 -2.7652 -0.8773 -0.8260
  911MOL0     H22957   6.548   3.248   1.620  1.1635 -0.8921  1.1518
  911MOL0     H22958   6.477   3.153   1.760 -1.3869  1.1713  1.3610
  911MOL0     H22959   6.690   3.377   1.773  2.8224 -0.3289  3.9051
  911MOL0     H22960   6.593   3.323   1.903 -0.5428 -3.2137  1.5625
  911MOL0     H22961   6.726   3.094   1.759  2.7851 -0.6969 -0.0235
  911MOL0     H22962   6.695   3.125   1.931 -0.2650  0.2706 -0.7497
  911MOL0     H22963   6.901   3.253   1.758 -1.9236  1.0710 -0.5485
  911MOL0     H22964   6.874   3.298   1.933  1.2428  0.1073 -0.1364
  911MOL0     H22965   6.231   3.780   1.510 -1.0090 -1.8079 -0.4019
  911MOL0     H22966   6.222   4.020   1.501  0.8311  1.7265  2.8289
  911MOL0     H22967   6.205   4.363   1.921 -0.7789  1.6714  2.3994
  911MOL0     H22968   6.079   4.554   2.045  1.8308 -0.7333  0.0566
  911MOL0     H22969   4.255   5.498   2.512 -0.4057  1.4291  2.3663
  911MOL0     H22970   4.082   5.602   2.387  0.6130 -0.0767 -0.4376
  911MOL0     H22971   3.752   5.628   2.062 -0.3161  0.3515 -0.8721
  911MOL0     H22972   3.575   5.631   1.920 -0.4482 -0.7686  0.2743
  911MOL0     H22973   3.386   5.469   1.815  3.0948  1.2846  1.5102
  911MOL0     H22974   3.372   5.639   1.810 -0.1745 -0.5704 -1.7108
  911MOL0     H22975   3.131   5.452   1.839  0.3652 -0.9295 -2.0614
  911MOL0     H22976   3.180   5.530   1.683 -0.0843  1.4953  0.0892
  911MOL0     H22977   3.043   5.698   1.758 -2.9366 -1.6738  2.2729
  911MOL0     H22978   3.181   5.728   1.868  2.5284 -1.4626 -1.3716
  911MOL0     H22979   3.059   5.556   2.025 -2.6962 -0.0186  1.4669
  911MOL0     H22980   2.999   5.730   2.011 -0.6356 -0.0521 -0.0708
  911MOL0     H22981   2.688   5.505   1.836  0.8827  1.1879 -3.3742
  911MOL0     H22982   3.313   5.511   2.233 -0.1866  1.6232  1.0067
  911MOL0     H22983   3.365   5.476   2.445 -0.3557  1.3502  0.2699
  911MOL0     H22984   3.519   5.382   2.458  1.8621  0.2308 -0.6596
  911MOL0     H22985   3.510   5.537   2.512 -0.8877  0.3257 -0.4004
  912MOL0     O22986   3.098   4.615   3.952  0.1888 -0.6238  0.0253
  912MOL0     C22987   3.154   4.523   4.010 -0.9836  0.1346  0.3739
  912MOL0     O22988   3.272   4.539   4.075  0.1724  0.3868  0.1592
  912MOL0     C22989   3.359   4.637   4.055  0.0433 -0.1917 -0.2247
  912MOL0     C22990   3.491   4.614   4.006  0.4386  0.6813 -0.1639
  912MOL0     C22991   3.587   4.716   4.002 -0.0148 -0.2924 -0.0129
  912MOL0     C22992   3.555   4.847   4.040  0.0079 -1.5702  0.0614
  912MOL0     O22993   3.652   4.947   4.027  0.0646 -0.3665  0.0313
  912MOL0     C22994   3.684   4.982   3.892 -0.7725  0.0807 -0.1562
  912MOL0     C22995   3.694   5.139   3.879  0.6463 -0.1198  0.2622
  912MOL0     C22996   3.746   5.178   3.736 -0.4285  0.5688  0.5291
  912MOL0     C22997   3.698   5.097   3.613 -0.4733  0.2249 -0.7026
  912MOL0     C22998   3.699   5.182   3.481  0.8212  0.1032 -0.6297
  912MOL0     C22999   3.829   5.245   3.448  0.3314  0.7008 -0.4045
  912MOL0     C23000   3.812   5.313   3.316 -0.6470  0.1165 -0.1923
  912MOL0     C23001   3.947   5.364   3.259 -0.2196 -0.7586 -0.1925
  912MOL0     N23002   4.036   5.269   3.190  0.4349 -0.1102 -0.2548
  912MOL0     C23003   4.009   5.211   3.075 -0.0247 -0.1959  0.6754
  912MOL0     C23004   4.125   5.149   3.047 -0.5786 -0.0346  0.8840
  912MOL0     C23005   4.148   5.070   2.921 -0.4292  0.6943  0.9467
  912MOL0     C23006   4.280   5.081   2.851 -0.5910  0.1697  0.4560
  912MOL0     C23007   4.402   5.071   2.936  0.1367 -0.0051 -0.0979
  912MOL0     C23008   4.528   5.084   2.851 -0.2827  0.3075 -0.3245
  912MOL0     O23009   4.539   4.972   2.758 -0.5142 -0.0606  0.6266
  912MOL0     C23010   4.659   4.969   2.682  0.6790 -0.0438  0.5397
  912MOL0     C23011   4.778   5.040   2.714 -0.0930 -0.2904  1.1222
  912MOL0     C23012   4.899   5.030   2.640 -0.1898 -0.2382  0.0141
  912MOL0     C23013   4.908   4.969   2.515 -0.2424  0.0242  0.2942
  912MOL0     C23014   5.028   4.968   2.428  0.1627  0.1229 -0.1122
  912MOL0     O23015   5.124   5.052   2.466 -0.2265 -0.5611  0.0226
  912MOL0     C23016   5.242   5.062   2.399 -0.1151  0.5022 -0.8099
  912MOL0     C23017   5.311   5.187   2.385 -0.8999 -0.5084  0.9155
  912MOL0     C23018   5.442   5.193   2.317 -0.1902  0.3872 -0.2496
  912MOL0     C23019   5.504   5.081   2.274 -1.1601  0.6048 -0.4487
  912MOL0     O23020   5.620   5.087   2.203  0.5986 -0.4549 -0.0152
  912MOL0     C23021   5.694   5.206   2.203  0.6365  0.4595 -0.0973
  912MOL0     C23022   5.830   5.173   2.135 -0.1194 -0.8510  0.0207
  912MOL0     C23023   5.947   5.141   2.235 -0.1558 -0.6450  0.6532
  912MOL0     C23024   6.073   5.111   2.167  0.7186 -1.0441 -0.2628
  912MOL0     C23025   6.184   5.084   2.260 -0.0705  0.0218 -0.5737
  912MOL0     C23026   6.308   5.044   2.177  0.2039 -0.1851  0.1318
  912MOL0     C23027   6.429   5.053   2.276 -0.0395 -0.1154  0.0477
  912MOL0     C23028   6.561   5.009   2.199 -0.6810  0.3870 -0.2764
  912MOL0    Cl23029   6.563   4.834   2.195  0.0520  0.4328  0.0607
  912MOL0     C23030   5.429   4.962   2.270 -0.6201 -0.2467 -0.2159
  912MOL0     C23031   5.305   4.952   2.336 -0.0140  0.5366 -0.7207
  912MOL0     O23032   5.029   4.901   2.325  0.3568  0.5169  1.4254
  912MOL0     C23033   4.788   4.893   2.486 -0.4093  0.0826  0.1010
  912MOL0     C23034   4.671   4.896   2.561  0.1787 -0.2433 -0.4500
  912MOL0     N23035   4.218   5.183   3.147  0.8709  0.0792  0.2439
  912MOL0     N23036   4.163   5.250   3.227  0.3100  0.5285 -0.8936
  912MOL0     C23037   3.423   4.876   4.077  0.1754  0.0396  0.5620
  912MOL0     C23038   3.324   4.775   4.080 -0.4579  0.9317 -0.0177
  912MOL0     C23039   3.072   4.400   4.033  0.7681  0.7080  0.1010
  912MOL0     C23040   2.933   4.396   3.997 -0.0507  0.1774 -0.8701
  912MOL0     C23041   2.849   4.288   4.011  0.0355 -0.4407  0.5488
  912MOL0     C23042   2.899   4.171   4.060  0.6613  0.2675  0.4606
  912MOL0     O23043   2.838   4.052   4.067  0.1280  0.0343 -0.1478
  912MOL0     C23044   2.737   4.033   3.974 -0.6158  0.3341 -0.2491
  912MOL0     C23045   2.702   3.886   3.969  0.4013  0.2082  0.3807
  912MOL0     C23046   2.661   3.820   4.102  0.6665 -0.3637  0.4893
  912MOL0     C23047   2.617   3.678   4.072  0.2839 -0.3859 -0.0906
  912MOL0     C23048   2.724   3.576   4.051  0.0069 -0.6478  0.7244
  912MOL0     C23049   2.812   3.489   4.045  0.7353 -0.6322 -0.1752
  912MOL0     C23050   3.037   4.170   4.093  0.0496 -0.4668 -0.3404
  912MOL0     C23051   3.127   4.275   4.076  0.2684  0.1987  0.8461
  912MOL0     C23052   3.269   4.254   4.107 -0.7663  0.3976 -0.4001
  912MOL0     H23053   3.517   4.514   3.973 -1.2045  0.3598 -0.5648
  912MOL0     H23054   3.685   4.688   3.965 -0.9656 -2.6157 -0.9598
  912MOL0     H23055   3.783   4.936   3.886  0.0617  1.3214  2.4635
  912MOL0     H23056   3.620   4.938   3.815  0.9859 -1.3521 -0.8762
  912MOL0     H23057   3.742   5.176   3.970 -0.5539  0.1637  0.8020
  912MOL0     H23058   3.594   5.183   3.878  0.0903 -1.3350  0.4886
  912MOL0     H23059   3.855   5.164   3.731 -0.0266  2.8367  1.6741
  912MOL0     H23060   3.736   5.286   3.725  0.2129  0.7414  1.5553
  912MOL0     H23061   3.755   5.007   3.587 -0.7121  0.0771 -0.7145
  912MOL0     H23062   3.591   5.077   3.624 -0.4750  0.4669 -0.2143
  912MOL0     H23063   3.687   5.113   3.396  0.8596  1.3414 -1.6726
  912MOL0     H23064   3.621   5.258   3.470  2.2261  1.4377 -1.8788
  912MOL0     H23065   3.865   5.313   3.527 -1.6631  0.0044  1.1686
  912MOL0     H23066   3.901   5.163   3.437 -0.1577  0.4233 -1.7206
  912MOL0     H23067   3.749   5.401   3.332 -1.7893  0.0241 -3.4753
  912MOL0     H23068   3.766   5.251   3.239 -1.0341 -0.1601  0.2557
  912MOL0     H23069   3.930   5.448   3.192 -1.8201 -3.9884 -4.2755
  912MOL0     H23070   4.007   5.403   3.342  1.7812 -1.8831 -1.0307
  912MOL0     H23071   3.925   5.232   3.009  0.3258  1.7366  0.7944
  912MOL0     H23072   4.135   4.966   2.950  1.2843  0.6998  1.8743
  912MOL0     H23073   4.081   5.094   2.838  0.6232 -4.2504 -1.6769
  912MOL0     H23074   4.283   4.999   2.778  1.1833 -2.0167  2.7908
  912MOL0     H23075   4.281   5.177   2.798  2.3151  0.2620  0.4691
  912MOL0     H23076   4.385   4.970   2.976 -1.5308  0.8694  1.5338
  912MOL0     H23077   4.397   5.140   3.020 -3.0464  0.1236 -0.2750
  912MOL0     H23078   4.614   5.081   2.919 -0.5882  1.0866  0.1108
  912MOL0     H23079   4.531   5.183   2.805 -1.8630  0.5057 -0.0701
  912MOL0     H23080   4.783   5.120   2.787  2.9939  0.1144  0.6214
  912MOL0     H23081   4.986   5.091   2.666 -0.1722  2.2900 -4.7109
  912MOL0     H23082   5.269   5.276   2.431 -0.2769 -0.9409  2.3748
  912MOL0     H23083   5.491   5.290   2.318  1.2771 -0.3337 -0.1923
  912MOL0     H23084   5.640   5.282   2.145 -1.5146 -0.2046  0.9325
  912MOL0     H23085   5.710   5.245   2.304  1.5541 -0.8556  0.2940
  912MOL0     H23086   5.822   5.099   2.056 -0.5884  0.9777 -1.7340
  912MOL0     H23087   5.847   5.270   2.087 -0.9487 -0.1285  1.1200
  912MOL0     H23088   5.946   5.231   2.297  1.6346  1.2421 -1.8819
  912MOL0     H23089   5.915   5.051   2.289  2.5371 -1.6569  0.7103
  912MOL0     H23090   6.107   5.195   2.106  1.1858 -1.3739 -0.4593
  912MOL0     H23091   6.055   5.021   2.106  0.4928 -0.1586 -1.5521
  912MOL0     H23092   6.162   5.010   2.338  2.9067 -0.0899  0.2548
  912MOL0     H23093   6.211   5.172   2.319  1.4364  0.5577 -2.0020
  912MOL0     H23094   6.286   4.952   2.123 -2.8544 -0.5751  1.8338
  912MOL0     H23095   6.330   5.123   2.104 -0.5706 -1.2061 -1.2585
  912MOL0     H23096   6.411   4.984   2.359 -1.9867  3.0978  2.5274
  912MOL0     H23097   6.442   5.153   2.318  1.1634  0.2193 -1.0403
  912MOL0     H23098   6.565   5.042   2.095  0.5069 -0.3136 -0.4629
  912MOL0     H23099   6.655   5.037   2.247 -0.1376  2.3767 -2.3298
  912MOL0     H23100   5.483   4.876   2.232  0.3746  0.4595 -0.4402
  912MOL0     H23101   5.261   4.853   2.338  1.0638 -0.0131 -2.4528
  912MOL0     H23102   4.787   4.829   2.398  2.3687 -0.1532  0.1436
  912MOL0     H23103   4.591   4.830   2.527  0.3821 -0.9123  0.3415
  912MOL0     H23104   3.399   4.980   4.096 -0.3323  0.3096 -1.3945
  912MOL0     H23105   3.224   4.789   4.117 -1.1749  0.2505 -1.5982
  912MOL0     H23106   2.896   4.493   3.965 -2.3360 -0.1770  0.4467
  912MOL0     H23107   2.742   4.291   3.994 -0.2319 -2.0852  1.6303
  912MOL0     H23108   2.774   4.077   3.881  0.4927  1.7891  0.8316
  912MOL0     H23109   2.652   4.097   4.003  0.0737 -0.0268  2.9923
  912MOL0     H23110   2.790   3.833   3.932  0.7765 -1.1739  3.0330
  912MOL0     H23111   2.614   3.874   3.905  0.9478  2.3047 -0.8647
  912MOL0     H23112   2.578   3.878   4.143  1.6642  1.7834 -0.3940
  912MOL0     H23113   2.736   3.814   4.181 -1.4652 -0.5404  2.6112
  912MOL0     H23114   2.565   3.636   4.158 -1.1045 -0.5947 -0.9965
  912MOL0     H23115   2.554   3.663   3.984  2.5206 -4.8369 -1.2301
  912MOL0     H23116   2.882   3.409   4.036  4.1282  2.0378  0.4923
  912MOL0     H23117   3.078   4.076   4.129  0.9941  0.1567  0.2307
  912MOL0     H23118   3.282   4.152   4.145  0.7210  0.6964 -0.0196
  912MOL0     H23119   3.333   4.268   4.018  1.2591 -1.4579  0.6561
  912MOL0     H23120   3.301   4.325   4.183  1.6653 -1.5731  0.5689
  913MOL0     O23121  11.215   6.041   1.793  0.1227  0.7105 -0.4703
  913MOL0     C23122  11.235   5.993   1.677  0.8550 -0.9212 -0.0292
  913MOL0     O23123  11.336   5.907   1.644 -0.3594  0.3216  0.3429
  913MOL0     C23124  11.396   5.859   1.762  0.7033  1.2244 -0.2525
  913MOL0     C23125  11.516   5.914   1.804 -0.5228  0.3800  0.5559
  913MOL0     C23126  11.591   5.860   1.906  0.3216 -0.6237 -0.3922
  913MOL0     C23127  11.545   5.746   1.969 -0.6605 -0.1908 -0.5138
  913MOL0     O23128  11.630   5.687   2.064 -0.4521 -0.2066  0.3043
  913MOL0     C23129  11.626   5.544   2.080 -0.6596 -0.1217 -0.1632
  913MOL0     C23130  11.721   5.507   2.194  0.0431 -0.6657  0.2806
  913MOL0     C23131  11.685   5.567   2.337  0.7215 -0.1974  0.3408
  913MOL0     C23132  11.764   5.494   2.442  0.3935  0.8618  1.0108
  913MOL0     C23133  11.759   5.552   2.578  1.3179 -0.1234 -0.4277
  913MOL0     C23134  11.854   5.488   2.689 -0.2314  0.2009  0.3281
  913MOL0     C23135  11.999   5.543   2.680  0.1600  0.0466 -0.5924
  913MOL0     C23136  12.101   5.460   2.769 -0.3593  0.4098  0.6104
  913MOL0     N23137  12.153   5.340   2.695  0.2288 -0.7356  0.0560
  913MOL0     C23138  12.274   5.280   2.730  0.4909 -0.9284 -0.1031
  913MOL0     C23139  12.311   5.206   2.620  0.2991  0.3110  0.0366
  913MOL0     C23140  12.432   5.117   2.627  1.2079 -0.1882 -0.3822
  913MOL0     C23141  12.554   5.180   2.575  0.2629 -0.6352 -0.2245
  913MOL0     C23142  12.612   5.302   2.649 -0.0086  0.4437 -0.0972
  913MOL0     C23143  12.756   5.325   2.597 -0.3514 -0.0453 -0.6033
  913MOL0     O23144  12.851   5.229   2.632 -0.1417 -0.8162  0.0545
  913MOL0     C23145  12.973   5.222   2.576 -0.6084 -0.4185 -0.3350
  913MOL0     C23146  13.027   5.308   2.480  0.1011  0.0368  0.4074
  913MOL0     C23147  13.160   5.283   2.437  0.0069  0.6910 -0.3193
  913MOL0     C23148  13.243   5.180   2.496  0.4798  0.6710  0.0400
  913MOL0     C23149  13.380   5.160   2.451  0.3037  0.1675  0.2871
  913MOL0     O23150  13.452   5.071   2.525  0.5358 -0.6813  0.0724
  913MOL0     C23151  13.574   5.020   2.488 -0.2149 -0.0581 -0.2139
  913MOL0     C23152  13.687   5.098   2.452  0.4178 -0.0325  0.3077
  913MOL0     C23153  13.814   5.034   2.441  0.2784  0.7641 -0.1067
  913MOL0     C23154  13.822   4.895   2.451 -0.2669 -0.4209  0.7012
  913MOL0     O23155  13.926   4.816   2.415 -0.1337 -0.0479  0.5854
  913MOL0     C23156  14.046   4.875   2.364  0.1333 -0.0497  1.2107
  913MOL0     C23157  14.136   4.760   2.317 -0.0835  0.4539  0.4400
  913MOL0     C23158  14.265   4.803   2.244 -0.7458  0.7040 -0.2943
  913MOL0     C23159  14.377   4.695   2.238  0.2485  0.6583  0.5043
  913MOL0     C23160  14.501   4.749   2.166  0.0292  0.1277 -0.5406
  913MOL0     C23161  14.488   4.726   2.015  0.1628  0.4647  0.4694
  913MOL0     C23162  14.633   4.725   1.948  0.3071  0.2812  0.2876
  913MOL0     C23163  14.610   4.758   1.795 -0.7851  0.4430  0.1339
  913MOL0    Cl23164  14.545   4.607   1.716 -0.4485 -0.5958  0.0144
  913MOL0     C23165  13.713   4.824   2.486  0.1523 -0.0471 -0.9467
  913MOL0     C23166  13.595   4.887   2.515 -0.0499 -0.4703  1.0783
  913MOL0     O23167  13.418   5.224   2.352  0.6041 -0.6889  0.2283
  913MOL0     C23168  13.181   5.095   2.592  0.2196 -0.4823  0.2119
  913MOL0     C23169  13.048   5.124   2.633  0.0161 -0.4822  0.5397
  913MOL0     N23170  12.203   5.214   2.538  0.0784 -0.2346  0.3503
  913MOL0     N23171  12.113   5.300   2.577 -0.2021 -0.0069  0.7853
  913MOL0     C23172  11.413   5.694   1.940 -0.1879  0.5988  0.1257
  913MOL0     C23173  11.348   5.747   1.825  0.1836  0.4892 -0.0819
  913MOL0     C23174  11.147   6.034   1.564 -0.9837  0.8041 -0.4897
  913MOL0     C23175  11.166   5.963   1.442  0.2640 -1.0937  0.4054
  913MOL0     C23176  11.083   5.991   1.331 -0.2265  0.2147 -0.1182
  913MOL0     C23177  10.986   6.091   1.324  1.3222  0.6037 -1.5620
  913MOL0     O23178  10.924   6.096   1.201  0.5381 -0.2473 -0.0840
  913MOL0     C23179  10.811   6.185   1.207  0.8351 -0.2074  0.2279
  913MOL0     C23180  10.754   6.193   1.068 -0.0492 -0.2724  1.4672
  913MOL0     C23181  10.813   6.313   0.984  0.9105 -0.2617  0.7208
  913MOL0     C23182  10.728   6.333   0.859 -0.3999  0.9442  0.2420
  913MOL0     C23183  10.786   6.422   0.758 -0.1805  0.2053 -0.3097
  913MOL0     C23184  10.847   6.487   0.674  0.1321  0.6118 -0.7136
  913MOL0     C23185  10.968   6.163   1.449 -0.4974 -0.4398  0.0009
  913MOL0     C23186  11.045   6.135   1.567  1.2235 -0.1178 -0.5278
  913MOL0     C23187  11.012   6.227   1.688 -0.2316 -0.1258 -0.6981
  913MOL0     H23188  11.549   6.006   1.757 -2.6742  1.2488  0.6166
  913MOL0     H23189  11.688   5.900   1.932  0.4726 -2.4270  2.3035
  913MOL0     H23190  11.529   5.503   2.108 -0.2044 -1.5153 -0.5640
  913MOL0     H23191  11.654   5.505   1.982 -0.3538  0.0183 -0.1329
  913MOL0     H23192  11.823   5.529   2.161  0.0281 -0.3971  0.4153
  913MOL0     H23193  11.723   5.398   2.208 -3.1784 -0.9699 -0.7012
  913MOL0     H23194  11.580   5.557   2.365  1.1691 -1.9469  1.5694
  913MOL0     H23195  11.709   5.673   2.332  0.0532 -0.0899 -0.9655
  913MOL0     H23196  11.717   5.395   2.441  0.5938  0.7451  1.8692
  913MOL0     H23197  11.862   5.464   2.404 -0.8306  1.0212 -2.6209
  913MOL0     H23198  11.780   5.660   2.570 -1.3061  0.3189 -2.6557
  913MOL0     H23199  11.656   5.543   2.612  1.3104 -0.3102 -0.4986
  913MOL0     H23200  11.821   5.513   2.790 -0.5270  1.7323 -0.1234
  913MOL0     H23201  11.853   5.379   2.676  1.8827 -0.1216  2.2611
  913MOL0     H23202  11.986   5.644   2.718 -1.5814  0.1557 -1.3892
  913MOL0     H23203  12.032   5.559   2.577  0.8525 -0.0270 -0.3905
  913MOL0     H23204  12.178   5.532   2.798 -0.9055  0.5970  1.6796
  913MOL0     H23205  12.054   5.427   2.863  2.9947 -0.7747  2.0344
  913MOL0     H23206  12.327   5.284   2.824 -1.1344 -1.6789  0.9025
  913MOL0     H23207  12.450   5.080   2.729  0.4482  1.5693  0.4467
  913MOL0     H23208  12.417   5.029   2.563  1.8632  0.0872 -0.9121
  913MOL0     H23209  12.630   5.101   2.578  0.9290  0.0218  0.5017
  913MOL0     H23210  12.538   5.208   2.471  0.8118 -0.3630 -0.2386
  913MOL0     H23211  12.621   5.275   2.755  1.1483 -0.8650 -0.5091
  913MOL0     H23212  12.565   5.398   2.627  0.7255  0.6642 -0.7335
  913MOL0     H23213  12.792   5.422   2.634  1.7080 -0.0398 -2.3763
  913MOL0     H23214  12.759   5.329   2.488  1.0496 -0.7130 -0.6162
  913MOL0     H23215  12.979   5.397   2.440 -3.9475 -2.6078 -1.2829
  913MOL0     H23216  13.203   5.352   2.365  0.7225  0.2701 -0.3089
  913MOL0     H23217  13.684   5.204   2.433  2.8325  0.3287  1.6435
  913MOL0     H23218  13.897   5.094   2.403  0.1892 -0.0608 -1.6852
  913MOL0     H23219  14.024   4.941   2.280 -3.3325 -2.4039  0.0498
  913MOL0     H23220  14.100   4.924   2.445 -1.0891 -1.0680  2.7011
  913MOL0     H23221  14.173   4.711   2.408  0.4156  1.8679  1.0217
  913MOL0     H23222  14.081   4.696   2.247  0.2047  0.3279  0.3294
  913MOL0     H23223  14.253   4.837   2.141  2.8118  3.7477  0.0709
  913MOL0     H23224  14.311   4.887   2.297 -1.4984 -0.1776  1.8914
  913MOL0     H23225  14.345   4.604   2.187  1.2844  1.1201 -1.0671
  913MOL0     H23226  14.412   4.678   2.340 -0.6542  1.3928  0.9476
  913MOL0     H23227  14.587   4.692   2.201 -0.9260  0.3870  2.4804
  913MOL0     H23228  14.525   4.851   2.196  0.9494  0.5729 -2.5879
  913MOL0     H23229  14.446   4.629   1.988  0.6652  0.9961 -2.5953
  913MOL0     H23230  14.423   4.803   1.974  1.0848 -0.1606 -2.4106
  913MOL0     H23231  14.668   4.621   1.958  0.9106  0.4900  0.3878
  913MOL0     H23232  14.700   4.799   1.993 -0.7016  1.8599 -0.7381
  913MOL0     H23233  14.541   4.842   1.784 -1.2380  0.1075  0.3958
  913MOL0     H23234  14.701   4.786   1.741  0.0271 -0.8531  0.7947
  913MOL0     H23235  13.718   4.717   2.503  0.0771  0.4029  2.7067
  913MOL0     H23236  13.505   4.832   2.540 -0.9591  0.6248  0.3113
  913MOL0     H23237  13.215   5.003   2.637 -0.6609 -2.0455 -2.0918
  913MOL0     H23238  12.995   5.052   2.695 -4.3294  0.1564 -2.0485
  913MOL0     H23239  11.381   5.607   1.997 -2.1124  0.8934 -0.4284
  913MOL0     H23240  11.259   5.695   1.792  0.0392 -1.8570  3.4210
  913MOL0     H23241  11.239   5.885   1.423 -1.4003 -2.3896 -1.0347
  913MOL0     H23242  11.099   5.927   1.245  0.7649 -1.6820  1.3873
  913MOL0     H23243  10.836   6.279   1.255  2.0035 -0.7359  0.6788
  913MOL0     H23244  10.732   6.127   1.256 -0.5013  0.1990 -1.3274
  913MOL0     H23245  10.646   6.200   1.079 -0.3118  0.6903 -1.1164
  913MOL0     H23246  10.762   6.099   1.012 -1.0823 -0.4875  1.6668
  913MOL0     H23247  10.917   6.289   0.960  0.5826  0.8302 -2.0918
  913MOL0     H23248  10.802   6.406   1.042  2.7201  0.7741 -0.5056
  913MOL0     H23249  10.712   6.235   0.812  2.8625  0.4566 -0.1048
  913MOL0     H23250  10.632   6.372   0.894  1.3775  2.7056  3.7185
  913MOL0     H23251  10.896   6.526   0.587  0.0376 -1.9690 -2.0409
  913MOL0     H23252  10.896   6.243   1.447 -1.8180 -1.6088 -1.6937
  913MOL0     H23253  10.915   6.275   1.676 -0.9586 -1.4359 -0.1737
  913MOL0     H23254  11.020   6.166   1.778 -2.9051 -1.3273 -1.1904
  913MOL0     H23255  11.098   6.295   1.695 -1.9936  2.2698 -0.8281
  914MOL0     O23256  10.712   0.267   1.352  0.0359  0.9062 -0.2585
  914MOL0     C23257  10.671   0.183   1.427 -0.3014 -0.3100 -0.5319
  914MOL0     O23258  10.751   0.105   1.502 -0.1815 -0.6437  0.5992
  914MOL0     C23259  10.886   0.094   1.461  0.8815 -0.3357 -0.3135
  914MOL0     C23260  10.928   0.021   1.348 -0.3460  0.3973  0.6766
  914MOL0     C23261  11.067  -0.010   1.324  0.0708 -0.3429 -0.0767
  914MOL0     C23262  11.162   0.035   1.416 -1.5125  0.1204 -0.6278
  914MOL0     O23263  11.302   0.010   1.408 -0.4019 -0.5815 -1.0721
  914MOL0     C23264  11.350  -0.095   1.320 -0.3957  0.2321  0.0686
  914MOL0     C23265  11.502  -0.092   1.341 -0.5208 -0.0766  0.1169
  914MOL0     C23266  11.561  -0.206   1.421  0.7358 -0.0126  0.0688
  914MOL0     C23267  11.714  -0.173   1.444 -0.1714  0.6530  0.2037
  914MOL0     C23268  11.782  -0.286   1.519 -0.1128  1.2177 -0.5785
  914MOL0     C23269  11.923  -0.243   1.559  0.8008 -0.1127 -0.3839
  914MOL0     C23270  11.980  -0.318   1.683  0.3243  0.7194 -0.7863
  914MOL0     C23271  12.109  -0.265   1.754  0.1026  0.3903 -0.3910
  914MOL0     N23272  12.220  -0.285   1.657 -0.3406  0.3045 -0.1226
  914MOL0     C23273  12.320  -0.379   1.680 -0.0754  0.0824  0.0315
  914MOL0     C23274  12.405  -0.343   1.587  0.0441  0.1589  0.1883
  914MOL0     C23275  12.526  -0.412   1.547  0.3009 -0.4518 -0.1648
  914MOL0     C23276  12.655  -0.371   1.623 -0.2864 -0.1008  0.1094
  914MOL0     C23277  12.676  -0.439   1.758 -0.4823  0.0128  0.4154
  914MOL0     C23278  12.812  -0.399   1.822  0.2845 -0.8941 -0.0540
  914MOL0     O23279  12.803  -0.260   1.866 -0.2214  0.1609 -0.8820
  914MOL0     C23280  12.896  -0.213   1.961 -0.4033  0.4584 -0.2099
  914MOL0     C23281  13.022  -0.278   1.981 -0.2700  1.1640 -0.1791
  914MOL0     C23282  13.123  -0.209   2.049 -0.3833  0.0331 -0.0790
  914MOL0     C23283  13.099  -0.076   2.106 -0.0812 -0.6336  0.9028
  914MOL0     C23284  13.214   0.008   2.168  0.6885 -0.9193 -0.2789
  914MOL0     O23285  13.326  -0.062   2.209 -0.4437  0.2639  1.1549
  914MOL0     C23286  13.429  -0.002   2.277  0.6873 -0.7649  0.0455
  914MOL0     C23287  13.452  -0.038   2.411 -0.4077  0.5802 -0.0485
  914MOL0     C23288  13.566   0.010   2.477  0.8841 -0.0497 -0.4159
  914MOL0     C23289  13.660   0.090   2.413 -0.7874  0.4198 -0.3388
  914MOL0     O23290  13.779   0.144   2.463  0.6827  0.2551 -0.4446
  914MOL0     C23291  13.817   0.091   2.592  0.0753 -0.4272 -0.6269
  914MOL0     C23292  13.964   0.122   2.629 -1.0838 -0.1322  0.3432
  914MOL0     C23293  13.977   0.271   2.662 -0.5069 -0.0444  0.3442
  914MOL0     C23294  14.127   0.301   2.675  0.5866  0.0874 -0.1141
  914MOL0     C23295  14.143   0.456   2.698  0.3923 -0.7026 -0.1035
  914MOL0     C23296  14.112   0.550   2.579  0.1671  0.4315  0.3065
  914MOL0     C23297  14.142   0.697   2.611  0.1966 -0.0509 -0.5497
  914MOL0     C23298  14.153   0.775   2.477  0.1541 -0.1932  0.6743
  914MOL0    Cl23299  13.971   0.803   2.449 -0.2759  0.2569  0.5328
  914MOL0     C23300  13.636   0.138   2.290  0.3430  0.2753 -0.0040
  914MOL0     C23301  13.531   0.083   2.214  0.7166  0.8409  0.1977
  914MOL0     O23302  13.209   0.127   2.192  0.3907 -0.0384 -0.1934
  914MOL0     C23303  12.980  -0.018   2.075 -0.1687  0.0589  0.4169
  914MOL0     C23304  12.876  -0.084   2.002 -0.0825 -0.1971  0.1918
  914MOL0     N23305  12.361  -0.232   1.517  0.2411  1.4913 -0.3736
  914MOL0     N23306  12.244  -0.195   1.556 -0.6690 -0.7969 -0.5180
  914MOL0     C23307  11.120   0.102   1.529  0.2910 -0.0352 -0.3976
  914MOL0     C23308  10.985   0.122   1.551  0.6223 -0.3307 -1.1494
  914MOL0     C23309  10.524   0.172   1.471  0.3092  0.6834  0.3631
  914MOL0     C23310  10.495   0.067   1.557  0.8048  0.2567 -0.8041
  914MOL0     C23311  10.366   0.038   1.590  0.6593 -0.2787 -0.8468
  914MOL0     C23312  10.259   0.125   1.560 -0.5679 -0.1970  1.4096
  914MOL0     O23313  10.143   0.099   1.615 -0.6904 -0.7318  0.0889
  914MOL0     C23314  10.023   0.130   1.543  0.2761  0.5461  0.3909
  914MOL0     C23315   9.936   0.007   1.544  0.6145 -0.5776 -0.2773
  914MOL0     C23316   9.793   0.047   1.506 -0.9132 -0.0253  0.4194
  914MOL0     C23317   9.702  -0.080   1.521  0.1284  0.3091  0.0820
  914MOL0     C23318   9.581  -0.069   1.439 -0.2538  1.2242  0.8029
  914MOL0     C23319   9.478  -0.081   1.376 -0.7920 -0.5969  0.6198
  914MOL0     C23320  10.287   0.222   1.467  0.5130 -0.5711  0.1197
  914MOL0     C23321  10.416   0.248   1.427  0.3833  1.0855  0.3796
  914MOL0     C23322  10.429   0.355   1.312 -0.6551 -0.7787 -0.3884
  914MOL0     H23323  10.859  -0.011   1.271 -0.7418 -1.0140  1.5906
  914MOL0     H23324  11.087  -0.074   1.239  0.8309  0.7190 -0.7228
  914MOL0     H23325  11.319  -0.198   1.342 -0.2250  0.5636  2.0381
  914MOL0     H23326  11.320  -0.080   1.216  2.8697 -1.1610 -1.2071
  914MOL0     H23327  11.531   0.006   1.381 -3.1489  1.0749 -0.5931
  914MOL0     H23328  11.547  -0.089   1.242  1.8606  1.5550  1.1672
  914MOL0     H23329  11.552  -0.296   1.359  0.6661 -1.1856  1.7240
  914MOL0     H23330  11.506  -0.225   1.514  0.9428 -1.9790 -0.1772
  914MOL0     H23331  11.766  -0.155   1.350  2.3297 -1.0096  1.1780
  914MOL0     H23332  11.716  -0.082   1.506  0.2849  0.9650 -0.2605
  914MOL0     H23333  11.744  -0.300   1.620  2.2642 -0.1081  0.2033
  914MOL0     H23334  11.771  -0.387   1.478  2.0439 -0.0773  1.7393
  914MOL0     H23335  11.988  -0.255   1.472  0.8940  2.5366 -0.7733
  914MOL0     H23336  11.915  -0.135   1.576 -3.6844 -0.1964 -0.6049
  914MOL0     H23337  11.988  -0.423   1.651  0.0051  0.0493  1.1792
  914MOL0     H23338  11.910  -0.321   1.766  1.4649 -0.2344  0.1884
  914MOL0     H23339  12.102  -0.156   1.761  0.0525  0.4337 -1.0355
  914MOL0     H23340  12.120  -0.314   1.851  1.5590  2.4219  0.5446
  914MOL0     H23341  12.327  -0.452   1.760 -1.9320 -1.8655 -1.4878
  914MOL0     H23342  12.514  -0.520   1.553 -0.5741 -0.2924  1.8256
  914MOL0     H23343  12.539  -0.395   1.439  2.0052 -1.1864 -0.1029
  914MOL0     H23344  12.739  -0.393   1.556 -0.5488  1.2600 -0.7075
  914MOL0     H23345  12.645  -0.263   1.639 -0.2287  0.1197 -1.1771
  914MOL0     H23346  12.665  -0.546   1.740 -1.6431  0.2057 -0.0678
  914MOL0     H23347  12.597  -0.406   1.827 -0.6933 -0.3570  0.3508
  914MOL0     H23348  12.890  -0.402   1.746 -1.2285 -0.3354 -1.6844
  914MOL0     H23349  12.824  -0.462   1.911 -2.0719 -3.6498 -1.5208
  914MOL0     H23350  13.039  -0.373   1.932 -0.6734  1.6069 -1.2113
  914MOL0     H23351  13.221  -0.253   2.061  0.4412  1.2118 -2.0023
  914MOL0     H23352  13.377  -0.109   2.447 -4.4933  3.4643 -2.0366
  914MOL0     H23353  13.582  -0.034   2.575 -0.6846  2.0869  0.8904
  914MOL0     H23354  13.747   0.130   2.665  0.8898  1.1035 -0.6182
  914MOL0     H23355  13.811  -0.018   2.591  1.8971 -0.5834  0.5096
  914MOL0     H23356  13.999   0.061   2.713 -0.3393 -1.4505 -0.8677
  914MOL0     H23357  14.039   0.094   2.555 -0.5027 -2.0581  1.5855
  914MOL0     H23358  13.924   0.334   2.590  1.4740  0.5629 -0.6762
  914MOL0     H23359  13.940   0.291   2.763  0.9725 -1.6534  1.2760
  914MOL0     H23360  14.178   0.267   2.584  0.0656 -4.9855  1.2078
  914MOL0     H23361  14.156   0.265   2.774 -0.7205  1.8215  0.9584
  914MOL0     H23362  14.248   0.478   2.722 -0.1857  0.9353  1.1756
  914MOL0     H23363  14.088   0.485   2.788  1.8852  2.8604 -0.1762
  914MOL0     H23364  14.181   0.520   2.499 -3.5781 -1.8146 -2.4466
  914MOL0     H23365  14.010   0.533   2.543  0.3441 -0.1900  0.0763
  914MOL0     H23366  14.241   0.698   2.659 -1.0755 -2.3983  2.4999
  914MOL0     H23367  14.078   0.745   2.685  0.1777 -1.2861  0.2812
  914MOL0     H23368  14.199   0.873   2.493 -0.2948 -0.1198  1.6286
  914MOL0     H23369  14.202   0.716   2.399  1.0160 -0.5231  1.4396
  914MOL0     H23370  13.706   0.199   2.235 -0.2140  2.6718  1.8113
  914MOL0     H23371  13.517   0.128   2.116  1.8924  2.9093  0.9138
  914MOL0     H23372  12.958   0.084   2.105  1.6381  0.3522  0.8294
  914MOL0     H23373  12.788  -0.032   1.965  0.5651 -1.0389 -2.8473
  914MOL0     H23374  11.197   0.147   1.590 -0.9545  0.5126  0.8337
  914MOL0     H23375  10.950   0.177   1.638  1.3082  1.4786 -1.9693
  914MOL0     H23376  10.569   0.000   1.599  1.5351  2.7971  2.3411
  914MOL0     H23377  10.345  -0.044   1.658  0.9909 -1.0926 -1.7124
  914MOL0     H23378  10.042   0.154   1.438 -0.5550  1.8288  0.5177
  914MOL0     H23379   9.972   0.217   1.585 -1.0783  0.8932 -1.8187
  914MOL0     H23380   9.947  -0.035   1.644  2.5079  2.6009  0.9982
  914MOL0     H23381   9.971  -0.057   1.463 -1.7518  0.5533 -2.3168
  914MOL0     H23382   9.803   0.074   1.401 -0.4635  1.1629  0.7402
  914MOL0     H23383   9.745   0.130   1.559 -0.7627  2.2586 -2.7324
  914MOL0     H23384   9.746  -0.173   1.486 -1.4705 -0.0871 -0.9754
  914MOL0     H23385   9.682  -0.075   1.629  1.6547  0.4020  0.3825
  914MOL0     H23386   9.391  -0.103   1.317  0.1525 -2.2124 -0.2049
  914MOL0     H23387  10.207   0.284   1.428  0.7636  1.6172  2.7745
  914MOL0     H23388  10.449   0.305   1.217 -0.2634 -0.3208 -0.5475
  914MOL0     H23389  10.338   0.414   1.299 -0.4115 -0.6022 -1.3603
  914MOL0     H23390  10.506   0.429   1.336 -1.3996 -0.6403  1.8693
  915MOL0     O23391   0.767   7.027   3.106  0.4918  0.0618  0.0507
  915MOL0     C23392   0.742   6.904   3.112 -0.6207 -0.3159 -0.6164
  915MOL0     O23393   0.841   6.813   3.135 -0.2972 -0.3498  0.1064
  915MOL0     C23394   0.971   6.854   3.126 -0.2371 -0.1651  0.3710
  915MOL0     C23395   1.040   6.888   3.245 -0.0494 -0.1846 -0.1299
  915MOL0     C23396   1.181   6.907   3.227  0.2610 -0.1685  0.5704
  915MOL0     C23397   1.248   6.898   3.100  0.2662  0.0105 -0.9299
  915MOL0     O23398   1.380   6.932   3.089  0.1592 -0.3925  0.1496
  915MOL0     C23399   1.422   7.051   3.169  0.6405 -0.7320 -0.9684
  915MOL0     C23400   1.537   7.126   3.105  0.0560  0.1302 -0.1161
  915MOL0     C23401   1.663   7.044   3.093  0.8259 -0.3305  0.1169
  915MOL0     C23402   1.796   7.123   3.068 -0.4978 -0.4439 -0.0736
  915MOL0     C23403   1.913   7.064   3.154  0.0956  0.0949 -0.8484
  915MOL0     C23404   2.036   7.128   3.103 -0.0608  0.6094 -0.0340
  915MOL0     C23405   2.151   7.094   3.195  0.0167 -0.7553  1.1230
  915MOL0     C23406   2.281   7.129   3.116  0.3353 -0.5905  0.8190
  915MOL0     N23407   2.396   7.090   3.203  0.2110  0.1650  0.3306
  915MOL0     C23408   2.437   6.967   3.237 -0.5150 -0.6199  0.7524
  915MOL0     C23409   2.545   6.986   3.316 -0.1605 -0.2134  1.0418
  915MOL0     C23410   2.630   6.872   3.366 -0.5705 -0.2024 -0.1433
  915MOL0     C23411   2.621   6.854   3.528 -0.2697  0.4437  0.4427
  915MOL0     C23412   2.659   6.989   3.592 -0.3365  0.4399 -0.5624
  915MOL0     C23413   2.795   7.041   3.540  0.2647 -0.4028  0.2534
  915MOL0     O23414   2.903   6.951   3.553 -0.5369  0.2643 -0.4342
  915MOL0     C23415   3.016   6.975   3.482  0.8236  0.4073 -0.3033
  915MOL0     C23416   3.099   6.868   3.460 -0.5611 -0.7383 -0.4164
  915MOL0     C23417   3.219   6.872   3.393  0.2563 -1.0241  0.7580
  915MOL0     C23418   3.271   6.996   3.344  0.3313 -0.3097 -0.2120
  915MOL0     C23419   3.400   7.008   3.275  0.7395 -0.7234 -0.2388
  915MOL0     O23420   3.422   7.128   3.216  0.2414  0.5749 -0.2441
  915MOL0     C23421   3.541   7.154   3.150  0.4021 -0.0058  0.1916
  915MOL0     C23422   3.560   7.293   3.137 -0.0137 -0.0402  0.1175
  915MOL0     C23423   3.666   7.344   3.063  0.0005  0.3825  0.1582
  915MOL0     C23424   3.776   7.256   3.023 -0.2395 -0.2694 -0.3941
  915MOL0     O23425   3.890   7.299   2.967 -0.4007 -0.1285  0.5813
  915MOL0     C23426   3.886   7.418   2.900 -0.8280  0.0969 -0.3458
  915MOL0     C23427   4.002   7.451   2.815  0.1681  0.3630  0.5409
  915MOL0     C23428   4.133   7.466   2.898  0.1610  0.0457 -0.0393
  915MOL0     C23429   4.257   7.497   2.810  0.6218  0.2851 -0.7240
  915MOL0     C23430   4.370   7.535   2.905 -0.7797 -0.3420  0.0850
  915MOL0     C23431   4.512   7.540   2.834  0.3049 -0.2766 -0.0774
  915MOL0     C23432   4.538   7.665   2.747 -1.0325  0.2241 -0.9248
  915MOL0     C23433   4.682   7.664   2.665 -0.3305  0.0590 -0.2924
  915MOL0    Cl23434   4.827   7.621   2.752  0.3613  0.1742  0.2959
  915MOL0     C23435   3.757   7.115   3.035 -0.1826 -0.5342  0.4371
  915MOL0     C23436   3.637   7.073   3.092 -0.3145  0.2392  0.0474
  915MOL0     O23437   3.479   6.920   3.281 -0.1862 -0.2402 -0.0019
  915MOL0     C23438   3.184   7.108   3.365 -0.2461 -0.2396  0.4396
  915MOL0     C23439   3.063   7.105   3.436  0.5953 -0.3830  0.0965
  915MOL0     N23440   2.562   7.125   3.321 -0.1700  0.2766  0.2389
  915MOL0     N23441   2.464   7.185   3.264  0.4857 -0.5013 -0.2660
  915MOL0     C23442   1.172   6.861   2.997  0.1373  0.2921 -0.0279
  915MOL0     C23443   1.035   6.842   3.002 -0.2657 -0.1037 -0.6316
  915MOL0     C23444   0.603   6.858   3.118 -0.6834 -0.3446 -0.8276
  915MOL0     C23445   0.579   6.753   3.209 -0.2087  0.0566 -0.4381
  915MOL0     C23446   0.440   6.713   3.219  0.2411 -0.3902 -0.0054
  915MOL0     C23447   0.336   6.765   3.158 -0.7204 -1.4511 -0.1035
  915MOL0     O23448   0.211   6.714   3.179 -0.4329  0.4976  0.9875
  915MOL0     C23449   0.122   6.800   3.252  0.0841 -0.0710 -1.0242
  915MOL0     C23450   0.010   6.862   3.166  0.0703  0.0396  0.4110
  915MOL0     C23451  -0.121   6.893   3.238  0.0239  0.8137  0.1347
  915MOL0     C23452  -0.195   6.751   3.259 -0.1001  0.0452 -0.2305
  915MOL0     C23453  -0.313   6.757   3.351 -0.8074 -0.2743 -0.6671
  915MOL0     C23454  -0.404   6.766   3.431  0.2131 -0.0939 -0.1484
  915MOL0     C23455   0.368   6.870   3.070  0.1283 -0.6757  0.0604
  915MOL0     C23456   0.497   6.913   3.042  0.9370  0.2359  0.3251
  915MOL0     C23457   0.506   7.031   2.949 -0.4755 -0.1064  0.3558
  915MOL0     H23458   0.999   6.884   3.345  0.1420 -0.5456 -0.0647
  915MOL0     H23459   1.232   6.940   3.317  0.4801  0.6810  0.1470
  915MOL0     H23460   1.330   7.109   3.181 -0.2620 -2.3761  0.4474
  915MOL0     H23461   1.448   7.023   3.271 -1.1208 -0.2294 -0.3331
  915MOL0     H23462   1.569   7.211   3.166  3.8427 -1.5955  0.5872
  915MOL0     H23463   1.513   7.172   3.008 -1.9653 -1.1264 -0.2648
  915MOL0     H23464   1.661   6.956   3.028 -0.6991 -2.1253  2.4194
  915MOL0     H23465   1.669   6.985   3.185 -3.2594 -1.2949 -0.0478
  915MOL0     H23466   1.820   7.110   2.962  0.4892  5.4624 -0.9340
  915MOL0     H23467   1.786   7.226   3.102 -1.8219  0.0092 -1.6741
  915MOL0     H23468   1.895   7.084   3.260 -1.3056  1.2120 -1.2531
  915MOL0     H23469   1.913   6.955   3.143  1.6152 -0.2243  1.6728
  915MOL0     H23470   2.057   7.097   3.000  1.0195  1.1891 -0.0117
  915MOL0     H23471   2.029   7.237   3.093 -0.9114  0.4541 -1.3952
  915MOL0     H23472   2.152   6.993   3.238 -0.9409 -0.5133  1.7671
  915MOL0     H23473   2.136   7.162   3.280 -5.0824 -0.7417  0.5603
  915MOL0     H23474   2.286   7.078   3.020 -1.7107  0.0930  0.3045
  915MOL0     H23475   2.284   7.237   3.098  1.9720 -0.5929  0.8782
  915MOL0     H23476   2.401   6.871   3.200 -1.4028 -0.2519  0.6483
  915MOL0     H23477   2.600   6.788   3.303  0.5718  1.6858 -3.4794
  915MOL0     H23478   2.734   6.886   3.336 -0.2424  1.6215  1.6021
  915MOL0     H23479   2.521   6.820   3.554 -0.4217  0.7535  0.2596
  915MOL0     H23480   2.694   6.778   3.560 -1.2192 -2.3841 -3.2781
  915MOL0     H23481   2.655   6.976   3.700 -2.5344 -2.0195 -0.8189
  915MOL0     H23482   2.575   7.057   3.578  0.1829  1.6687  1.8348
  915MOL0     H23483   2.828   7.113   3.615 -1.4676 -1.4258  2.1014
  915MOL0     H23484   2.798   7.085   3.440  0.3336 -1.2711 -0.1394
  915MOL0     H23485   3.058   6.777   3.503 -1.9249  0.2571  0.4485
  915MOL0     H23486   3.275   6.780   3.392  0.8815 -0.6850 -1.4305
  915MOL0     H23487   3.486   7.369   3.162 -0.9174 -1.3630  1.6396
  915MOL0     H23488   3.676   7.451   3.046 -0.6690  0.4565  0.1722
  915MOL0     H23489   3.799   7.429   2.835 -1.3048  0.4814  0.3402
  915MOL0     H23490   3.873   7.491   2.980  1.9489  0.0192  0.2620
  915MOL0     H23491   4.015   7.375   2.738 -0.4512  2.3583 -1.6636
  915MOL0     H23492   3.979   7.539   2.755 -0.8640 -0.1851  0.1073
  915MOL0     H23493   4.108   7.554   2.957 -2.7589 -1.3066  0.9934
  915MOL0     H23494   4.144   7.379   2.964  1.6324 -2.0141 -2.7612
  915MOL0     H23495   4.222   7.569   2.736 -2.1857 -1.2453 -1.0133
  915MOL0     H23496   4.293   7.407   2.759  0.0822  0.1479 -0.8671
  915MOL0     H23497   4.373   7.467   2.991 -0.5849  0.2216  0.5312
  915MOL0     H23498   4.346   7.633   2.949 -1.5817 -1.1481  1.5006
  915MOL0     H23499   4.598   7.533   2.901  0.6134  0.0386 -0.4327
  915MOL0     H23500   4.510   7.447   2.776 -1.2789 -0.2079 -0.1818
  915MOL0     H23501   4.557   7.747   2.816  1.5689  0.2535 -1.5748
  915MOL0     H23502   4.452   7.689   2.684 -0.6608  0.7619 -1.2363
  915MOL0     H23503   4.665   7.596   2.581  2.2574 -0.8638 -0.1541
  915MOL0     H23504   4.708   7.757   2.615  2.6166 -0.7985 -0.5202
  915MOL0     H23505   3.836   7.049   2.999  0.6176  0.5802  0.0898
  915MOL0     H23506   3.621   6.965   3.091  0.0189  0.1533 -2.2994
  915MOL0     H23507   3.216   7.207   3.334 -0.7918 -0.3822 -0.6112
  915MOL0     H23508   3.008   7.195   3.462  1.4833 -0.4414  2.3518
  915MOL0     H23509   1.226   6.846   2.904  0.1095  0.1142 -0.0163
  915MOL0     H23510   0.984   6.823   2.908 -1.6728  0.7616 -0.0685
  915MOL0     H23511   0.653   6.712   3.277 -1.0040 -0.1543  0.3293
  915MOL0     H23512   0.425   6.636   3.294  2.5385  2.9289  4.3473
  915MOL0     H23513   0.167   6.888   3.299 -1.0755  0.7183 -1.3633
  915MOL0     H23514   0.093   6.726   3.328  2.9766 -2.6557 -2.2156
  915MOL0     H23515  -0.016   6.797   3.082 -0.4508 -2.3970  2.3583
  915MOL0     H23516   0.062   6.948   3.123  3.8954 -1.7341  1.0438
  915MOL0     H23517  -0.189   6.956   3.178 -0.0591 -0.6356 -1.3700
  915MOL0     H23518  -0.091   6.944   3.330  2.1932 -0.6256  0.2887
  915MOL0     H23519  -0.227   6.717   3.160 -0.3197 -0.6275  0.0648
  915MOL0     H23520  -0.124   6.679   3.302 -2.8694 -2.8638 -0.1579
  915MOL0     H23521  -0.474   6.775   3.512 -0.3533 -1.1009 -0.5061
  915MOL0     H23522   0.294   6.920   3.009  3.8877  3.6615 -1.5006
  915MOL0     H23523   0.556   7.117   2.994  0.9012 -0.8391  0.2876
  915MOL0     H23524   0.579   6.996   2.876  1.3720 -0.5892  2.3192
  915MOL0     H23525   0.412   7.056   2.899 -0.7916  1.4470  1.6341
  916MOL0     O23526   1.982   7.150   6.245 -0.9841  0.8303  0.4346
  916MOL0     C23527   1.953   7.036   6.289  0.0171 -0.4293 -0.5913
  916MOL0     O23528   2.036   6.955   6.352 -0.1990 -0.3291 -0.5802
  916MOL0     C23529   2.162   6.988   6.359 -0.6182  0.4124  1.2565
  916MOL0     C23530   2.208   7.073   6.459  0.0557  0.1168 -0.1252
  916MOL0     C23531   2.331   7.141   6.450  0.9876 -0.4427 -0.0287
  916MOL0     C23532   2.408   7.115   6.330 -0.0795 -1.1742  0.7208
  916MOL0     O23533   2.528   7.185   6.295  0.0576  0.1508 -0.2367
  916MOL0     C23534   2.622   7.188   6.404  0.3025  0.1455 -0.0753
  916MOL0     C23535   2.761   7.222   6.351 -0.0179  0.1772  0.3656
  916MOL0     C23536   2.821   7.093   6.288 -0.1374  0.8285  0.3488
  916MOL0     C23537   2.950   7.126   6.203 -0.1271 -0.3965  0.4143
  916MOL0     C23538   3.070   7.185   6.282  1.2707 -0.0320 -0.0371
  916MOL0     C23539   3.187   7.197   6.191 -0.4831 -1.0262  1.1766
  916MOL0     C23540   3.312   7.272   6.253 -0.0315  1.1497  0.0649
  916MOL0     C23541   3.416   7.327   6.148 -0.0168  0.3345  0.4350
  916MOL0     N23542   3.359   7.416   6.045 -0.7235 -1.1175  0.1750
  916MOL0     C23543   3.377   7.554   6.043  0.6464  0.3875 -0.0967
  916MOL0     C23544   3.326   7.605   5.931 -0.2315 -0.1625 -0.2428
  916MOL0     C23545   3.351   7.737   5.859 -1.2773  0.0476 -0.8112
  916MOL0     C23546   3.388   7.855   5.954 -1.0328  0.0627  0.2255
  916MOL0     C23547   3.383   7.993   5.881  0.1160 -1.2988 -0.0386
  916MOL0     C23548   3.400   8.119   5.976 -0.0101  0.2737 -0.1584
  916MOL0     O23549   3.297   8.105   6.079 -0.5706  0.4167  1.1498
  916MOL0     C23550   3.166   8.100   6.043 -0.2101  0.9943  0.4141
  916MOL0     C23551   3.114   8.166   5.926  0.2311  0.1051 -0.1374
  916MOL0     C23552   2.981   8.165   5.888  0.4792 -0.1630  0.2320
  916MOL0     C23553   2.893   8.105   5.972 -0.0164  0.7117  0.1006
  916MOL0     C23554   2.749   8.109   5.947 -0.6871 -0.6560  0.7180
  916MOL0     O23555   2.667   8.063   6.047  0.2603  0.7041 -0.2917
  916MOL0     C23556   2.531   8.057   6.045  0.1674 -0.0922 -0.4619
  916MOL0     C23557   2.458   8.036   5.923 -0.5672  0.0675 -0.1803
  916MOL0     C23558   2.321   8.016   5.927 -0.2996 -0.8306  0.0715
  916MOL0     C23559   2.246   8.030   6.045 -0.3688  0.7834  0.2514
  916MOL0     O23560   2.113   7.987   6.053  0.0024 -0.0086 -0.5871
  916MOL0     C23561   2.028   8.011   5.941  0.7541  0.1462 -0.0644
  916MOL0     C23562   1.889   7.975   5.975  0.3763 -0.0657 -0.5958
  916MOL0     C23563   1.798   7.978   5.851  0.1684 -0.2840  0.0019
  916MOL0     C23564   1.656   7.925   5.880  0.5071 -0.3406 -0.4901
  916MOL0     C23565   1.546   7.984   5.794  0.2038  0.0752 -0.3315
  916MOL0     C23566   1.409   7.944   5.860  0.6834 -0.1281 -1.0161
  916MOL0     C23567   1.314   7.897   5.749 -0.6638  0.3598  0.7337
  916MOL0     C23568   1.175   7.925   5.782  0.5904 -0.0715 -0.3982
  916MOL0    Cl23569   1.129   7.840   5.928  0.2433  0.1527  0.3273
  916MOL0     C23570   2.318   8.052   6.163 -0.4660 -0.1852 -1.0964
  916MOL0     C23571   2.459   8.060   6.166  0.0943  0.4817  0.4173
  916MOL0     O23572   2.707   8.134   5.830 -0.4506 -0.1215  0.0194
  916MOL0     C23573   2.940   8.047   6.090 -0.8443 -0.6694 -0.2225
  916MOL0     C23574   3.079   8.044   6.129 -1.0483  0.8488  0.9871
  916MOL0     N23575   3.296   7.494   5.861  0.3432  0.2410 -0.6062
  916MOL0     N23576   3.308   7.385   5.928 -0.7620 -0.2396  0.2875
  916MOL0     C23577   2.364   7.020   6.235  0.4824 -0.1534 -1.1874
  916MOL0     C23578   2.246   6.957   6.250  0.2109 -0.5606 -0.3687
  916MOL0     C23579   1.805   7.003   6.305 -0.1800  0.1054  0.7179
  916MOL0     C23580   1.715   7.030   6.202 -0.6935  0.0149  0.2962
  916MOL0     C23581   1.578   7.024   6.207 -0.8361 -0.1100  0.5704
  916MOL0     C23582   1.525   6.999   6.332 -0.2363  0.3405  0.5037
  916MOL0     O23583   1.387   7.008   6.334  0.8464 -0.5052  0.3833
  916MOL0     C23584   1.323   6.951   6.447 -0.6760 -0.3626 -0.4614
  916MOL0     C23585   1.174   6.922   6.429 -0.0923  0.3053 -0.1463
  916MOL0     C23586   1.085   7.002   6.530 -0.1767  0.1798  0.4649
  916MOL0     C23587   0.959   6.932   6.568  0.4687 -0.2576  0.5397
  916MOL0     C23588   0.850   7.028   6.597  0.5984 -0.0431  0.2872
  916MOL0     C23589   0.768   7.118   6.623  0.0554  0.9235  0.7475
  916MOL0     C23590   1.612   6.954   6.437  0.2298  0.1305 -0.1902
  916MOL0     C23591   1.749   6.955   6.425  0.7412  0.2963 -0.4545
  916MOL0     C23592   1.827   6.926   6.549 -0.6193  0.0804  0.3095
  916MOL0     H23593   2.140   7.103   6.538  0.2363 -2.5081  1.1088
  916MOL0     H23594   2.370   7.205   6.529  0.7355  1.2756 -1.2534
  916MOL0     H23595   2.584   7.268   6.469  0.6490 -0.7257  1.2553
  916MOL0     H23596   2.621   7.091   6.454  2.2990 -1.0275 -2.1388
  916MOL0     H23597   2.817   7.250   6.440 -1.5470 -0.3008  1.5163
  916MOL0     H23598   2.763   7.311   6.288  2.1232  0.1809  0.3890
  916MOL0     H23599   2.746   7.043   6.227 -0.8552 -0.3716  2.1207
  916MOL0     H23600   2.856   7.021   6.362  3.0014  2.7620  0.9349
  916MOL0     H23601   2.981   7.036   6.149  4.5650 -0.0350  2.0019
  916MOL0     H23602   2.937   7.195   6.120  2.2158  1.7921  1.7041
  916MOL0     H23603   3.047   7.285   6.322  3.1728  1.2917 -2.0186
  916MOL0     H23604   3.091   7.124   6.370  0.9212  2.7377  2.1353
  916MOL0     H23605   3.211   7.098   6.152 -1.8518 -1.3564  1.1130
  916MOL0     H23606   3.156   7.245   6.097  1.4166 -1.0620  0.4898
  916MOL0     H23607   3.361   7.183   6.295 -2.3960 -1.0617 -1.5776
  916MOL0     H23608   3.288   7.349   6.327 -0.6399  0.8209  0.2139
  916MOL0     H23609   3.504   7.364   6.201  0.7904  2.0699 -1.9393
  916MOL0     H23610   3.438   7.237   6.090 -1.3903 -0.9602  1.8104
  916MOL0     H23611   3.418   7.622   6.117 -1.1102  1.5215 -0.1035
  916MOL0     H23612   3.435   7.726   5.789 -0.7441  0.5882 -0.2675
  916MOL0     H23613   3.262   7.753   5.797 -2.3416 -1.0286  0.3723
  916MOL0     H23614   3.318   7.858   6.038 -0.1504  0.3324  0.9841
  916MOL0     H23615   3.488   7.837   5.995  0.6126  1.0949 -3.0375
  916MOL0     H23616   3.296   8.009   5.817  0.2741 -0.3743 -0.0415
  916MOL0     H23617   3.476   8.002   5.823  0.6634  1.9599  1.1305
  916MOL0     H23618   3.394   8.215   5.924  1.7495  0.6739  0.3299
  916MOL0     H23619   3.498   8.126   6.024 -0.4997 -2.5963  1.4568
  916MOL0     H23620   3.180   8.212   5.854  2.7922 -3.0830 -0.0466
  916MOL0     H23621   2.951   8.211   5.794 -1.5137  0.6644  1.2038
  916MOL0     H23622   2.513   8.034   5.829 -2.2737  0.0793 -1.2078
  916MOL0     H23623   2.266   7.976   5.843 -0.2602 -0.2695 -0.2267
  916MOL0     H23624   2.019   8.117   5.915 -0.6419 -0.5544 -2.8225
  916MOL0     H23625   2.061   7.960   5.850 -1.0513 -1.6492  0.2153
  916MOL0     H23626   1.884   7.878   6.027  0.4525 -0.4956 -1.3817
  916MOL0     H23627   1.846   8.041   6.051 -1.7156 -0.4026 -1.4085
  916MOL0     H23628   1.792   8.085   5.826 -0.3930 -0.4918 -0.7838
  916MOL0     H23629   1.839   7.921   5.767 -2.3663 -0.3519 -1.2892
  916MOL0     H23630   1.639   7.930   5.988 -0.3331 -0.0734 -0.6279
  916MOL0     H23631   1.652   7.816   5.880 -0.2570 -0.3439  1.1453
  916MOL0     H23632   1.557   7.959   5.688  0.3202 -1.8162  0.0908
  916MOL0     H23633   1.556   8.092   5.810 -1.5491  0.1128  0.8383
  916MOL0     H23634   1.419   7.854   5.921  0.1161  0.2618 -0.3498
  916MOL0     H23635   1.370   8.025   5.921  1.4972 -1.0434  0.8052
  916MOL0     H23636   1.325   7.789   5.737 -1.2593  0.4463 -0.7387
  916MOL0     H23637   1.340   7.939   5.652 -1.2332  3.0909  1.6770
  916MOL0     H23638   1.158   8.031   5.800 -2.8453 -0.5351 -0.2269
  916MOL0     H23639   1.105   7.900   5.702  1.1264  0.5848 -1.0881
  916MOL0     H23640   2.263   8.074   6.253 -1.1503 -0.3452 -1.4689
  916MOL0     H23641   2.509   8.083   6.259  0.7126 -0.7181  0.3945
  916MOL0     H23642   2.872   8.005   6.164  2.9101 -0.3215  3.8702
  916MOL0     H23643   3.120   7.999   6.219 -0.5741 -1.3852 -0.2621
  916MOL0     H23644   2.427   7.006   6.147  2.6467  0.4802  0.1855
  916MOL0     H23645   2.206   6.901   6.167  0.7964  1.5858 -2.2008
  916MOL0     H23646   1.758   7.077   6.114 -0.1090  1.0152  1.1015
  916MOL0     H23647   1.523   7.061   6.122  0.8621  1.3010  0.0257
  916MOL0     H23648   1.334   7.018   6.532 -2.9547  1.6577 -1.6487
  916MOL0     H23649   1.376   6.857   6.466  2.0047  1.3725  1.4015
  916MOL0     H23650   1.158   6.815   6.445  0.6027  0.1004 -0.7580
  916MOL0     H23651   1.145   6.940   6.324  0.5729 -0.4701 -0.4697
  916MOL0     H23652   1.074   7.106   6.496  1.4280  0.0071 -0.6632
  916MOL0     H23653   1.146   7.007   6.621 -0.6906 -0.1423  0.8349
  916MOL0     H23654   0.927   6.874   6.481 -2.7303  0.4881  1.0850
  916MOL0     H23655   0.982   6.869   6.654 -0.3566 -2.2124 -0.5936
  916MOL0     H23656   0.701   7.200   6.637  1.4908  1.9019  2.1669
  916MOL0     H23657   1.565   6.913   6.526 -0.4312 -0.8493 -0.9710
  916MOL0     H23658   1.919   6.869   6.532 -0.1731  0.2917  1.9020
  916MOL0     H23659   1.850   7.019   6.601 -1.7295 -0.4141  1.7623
  916MOL0     H23660   1.775   6.862   6.621 -1.3269  0.7103  0.3696
  917MOL0     O23661   5.473   5.181   9.098  0.5384 -0.5293  0.5572
  917MOL0     C23662   5.440   5.132   8.991 -0.5616 -0.1015 -0.8637
  917MOL0     O23663   5.534   5.097   8.894  0.4697 -0.4735  0.9270
  917MOL0     C23664   5.666   5.131   8.908  0.3237  0.1142 -1.2810
  917MOL0     C23665   5.721   5.255   8.917  0.2699 -0.2105  0.5400
  917MOL0     C23666   5.861   5.272   8.930 -0.4089  0.6125  0.9964
  917MOL0     C23667   5.948   5.166   8.934  0.4611  0.2436 -0.1471
  917MOL0     O23668   6.079   5.183   8.958  0.3958  0.2372  0.2869
  917MOL0     C23669   6.162   5.065   8.982 -0.2740  0.5389  0.0181
  917MOL0     C23670   6.309   5.102   9.011  0.4318  0.0664 -0.0924
  917MOL0     C23671   6.406   4.989   9.005 -1.0501  0.6426  0.0109
  917MOL0     C23672   6.561   5.021   9.017 -0.3670 -0.7760 -0.1392
  917MOL0     C23673   6.643   4.892   9.023  0.1993  0.4485 -0.1524
  917MOL0     C23674   6.798   4.905   9.019 -0.4189 -0.2796 -0.0893
  917MOL0     C23675   6.865   4.767   9.041 -0.6255  0.0656  0.4337
  917MOL0     C23676   7.020   4.766   9.047 -0.3051  0.1055  1.2551
  917MOL0     N23677   7.073   4.748   8.908  0.5956  0.1553 -0.4026
  917MOL0     C23678   7.053   4.642   8.830  0.8062  0.2910  0.2840
  917MOL0     C23679   7.105   4.663   8.705 -0.4584  0.2500  0.1442
  917MOL0     C23680   7.119   4.560   8.589 -0.8497 -0.3272  0.8463
  917MOL0     C23681   7.089   4.625   8.450 -0.0401 -0.0224  0.4913
  917MOL0     C23682   7.038   4.523   8.345  0.5403  0.0397 -0.2208
  917MOL0     C23683   7.135   4.405   8.336 -0.1114  0.4998  0.5643
  917MOL0     O23684   7.265   4.439   8.283 -1.0411 -0.3802 -0.4931
  917MOL0     C23685   7.373   4.354   8.315  0.6197 -1.2223  0.1522
  917MOL0     C23686   7.369   4.235   8.389 -0.0044 -0.3007 -0.0155
  917MOL0     C23687   7.482   4.159   8.409 -0.6917 -1.1674  0.0895
  917MOL0     C23688   7.606   4.212   8.362  0.3918  0.4447 -0.8033
  917MOL0     C23689   7.734   4.144   8.393  1.0151 -0.3721  0.9215
  917MOL0     O23690   7.835   4.190   8.315 -0.0970 -0.1162  0.3908
  917MOL0     C23691   7.956   4.125   8.327 -0.6906  0.4320  0.0409
  917MOL0     C23692   8.001   4.042   8.229 -0.4468 -0.8839  0.0340
  917MOL0     C23693   8.124   3.977   8.233 -0.1329 -0.8768  0.1708
  917MOL0     C23694   8.211   4.011   8.340  0.2175  0.0329  0.9245
  917MOL0     O23695   8.335   3.962   8.349  0.2044  0.2773 -0.4668
  917MOL0     C23696   8.430   3.981   8.460  0.4486 -0.2491  0.5452
  917MOL0     C23697   8.541   3.886   8.432  0.6535  0.7864 -0.5807
  917MOL0     C23698   8.643   3.881   8.547 -0.2132 -0.1489  0.6769
  917MOL0     C23699   8.769   3.797   8.510 -0.1990 -0.0415  1.2647
  917MOL0     C23700   8.853   3.783   8.632  0.3882 -0.4808  0.6206
  917MOL0     C23701   8.966   3.701   8.602  0.3844 -0.1777  0.3746
  917MOL0     C23702   9.061   3.712   8.729  0.7375  0.9413 -0.7544
  917MOL0     C23703   9.199   3.655   8.721 -0.1817  0.7409  0.0848
  917MOL0    Cl23704   9.261   3.679   8.889 -0.0749  0.2593  0.1176
  917MOL0     C23705   8.171   4.099   8.444 -0.1424  0.8943  0.5650
  917MOL0     C23706   8.039   4.149   8.441  0.0275  0.3885 -0.3939
  917MOL0     O23707   7.743   4.070   8.491 -0.1807  0.9628  0.9393
  917MOL0     C23708   7.607   4.326   8.282  0.0995  1.1292 -0.5066
  917MOL0     C23709   7.491   4.390   8.256  0.8559 -0.4449  0.0773
  917MOL0     N23710   7.161   4.790   8.707 -0.5430  0.4889  0.0318
  917MOL0     N23711   7.139   4.834   8.829  0.5800  0.3507 -0.6884
  917MOL0     C23712   5.888   5.041   8.915 -0.2280  0.1327  0.7525
  917MOL0     C23713   5.754   5.023   8.905 -0.6699  0.0122  0.8421
  917MOL0     C23714   5.292   5.094   8.972 -1.1051 -0.8966 -0.5208
  917MOL0     C23715   5.195   5.176   9.031 -0.1213 -0.6621  0.3454
  917MOL0     C23716   5.060   5.159   9.004  0.0684 -0.6408 -0.4507
  917MOL0     C23717   5.018   5.056   8.920 -0.3511  0.8331 -0.4011
  917MOL0     O23718   4.890   5.044   8.876  0.2908  0.2793 -0.1318
  917MOL0     C23719   4.771   5.078   8.958 -0.2580 -0.1261 -0.0026
  917MOL0     C23720   4.642   4.998   8.924 -0.3163 -0.4075 -0.4735
  917MOL0     C23721   4.628   4.969   8.775  0.0492  0.7163  0.5638
  917MOL0     C23722   4.512   4.869   8.750  0.6437 -0.3778 -0.1716
  917MOL0     C23723   4.382   4.935   8.764 -0.4383  0.4881  0.4917
  917MOL0     C23724   4.274   4.980   8.775 -0.1435  0.0912 -0.0239
  917MOL0     C23725   5.115   4.979   8.854  0.3219 -0.4623  0.6896
  917MOL0     C23726   5.247   4.994   8.884  1.1452 -0.9744 -0.0699
  917MOL0     C23727   5.346   4.902   8.818  1.4776  0.0862 -0.4558
  917MOL0     H23728   5.662   5.346   8.911  1.5168  0.5188 -2.4996
  917MOL0     H23729   5.905   5.370   8.914 -1.1132  1.1399  2.1627
  917MOL0     H23730   6.115   4.997   9.055 -4.7450  1.1903 -1.9362
  917MOL0     H23731   6.165   5.001   8.893 -0.5572 -2.9498  2.2750
  917MOL0     H23732   6.318   5.148   9.110  2.5639  2.2856 -1.2145
  917MOL0     H23733   6.333   5.185   8.944 -1.5011 -0.7165 -1.8693
  917MOL0     H23734   6.388   4.927   8.917 -0.5506 -0.6381  0.7907
  917MOL0     H23735   6.379   4.935   9.096 -2.3766 -1.6116 -1.6250
  917MOL0     H23736   6.602   5.072   8.929  1.6645  0.2898  1.3407
  917MOL0     H23737   6.588   5.082   9.104 -2.7531  2.5607 -1.5228
  917MOL0     H23738   6.618   4.836   9.114  2.5711  0.3937  0.5433
  917MOL0     H23739   6.610   4.840   8.933  2.9254 -0.6819 -0.5753
  917MOL0     H23740   6.840   4.965   8.937  3.4805  0.7886  2.4155
  917MOL0     H23741   6.830   4.962   9.107 -1.2906 -0.9681  0.6893
  917MOL0     H23742   6.832   4.708   8.955 -1.0129 -2.1350  2.0191
  917MOL0     H23743   6.821   4.736   9.137 -0.3168 -0.7216  0.3241
  917MOL0     H23744   7.065   4.855   9.092 -3.8313  2.4138  0.6417
  917MOL0     H23745   7.052   4.684   9.111 -1.5272 -0.0628  1.6910
  917MOL0     H23746   7.002   4.550   8.860  2.3738  0.1942  2.9866
  917MOL0     H23747   7.223   4.525   8.593 -0.7157  0.2063  2.5287
  917MOL0     H23748   7.048   4.477   8.600 -0.2609 -1.2632 -1.7282
  917MOL0     H23749   7.017   4.707   8.457  0.1038  0.7159 -4.0160
  917MOL0     H23750   7.184   4.662   8.410  0.0142 -3.0209 -2.6144
  917MOL0     H23751   7.021   4.571   8.248 -1.7499 -1.5142 -0.6686
  917MOL0     H23752   6.940   4.484   8.374 -0.0961  0.8015 -1.2603
  917MOL0     H23753   7.097   4.324   8.273  2.6417  0.6725 -1.5329
  917MOL0     H23754   7.149   4.363   8.436  1.0461  4.8904  2.5266
  917MOL0     H23755   7.280   4.196   8.438  0.1705 -1.5567 -0.6628
  917MOL0     H23756   7.480   4.061   8.455  3.9797 -2.8224 -2.5579
  917MOL0     H23757   7.933   4.028   8.146 -1.6478 -0.4874  0.9088
  917MOL0     H23758   8.168   3.916   8.155  0.0337  0.1773 -0.5821
  917MOL0     H23759   8.471   4.083   8.465  0.0963  0.0430 -1.5698
  917MOL0     H23760   8.390   3.950   8.556  2.2788  0.5556  1.6336
  917MOL0     H23761   8.489   3.791   8.416 -1.1376  1.4550  0.8366
  917MOL0     H23762   8.592   3.900   8.337 -2.9005 -1.8438 -3.1430
  917MOL0     H23763   8.669   3.985   8.567 -0.5458 -0.1638  1.1803
  917MOL0     H23764   8.594   3.843   8.636 -0.0716  0.1359  0.8782
  917MOL0     H23765   8.810   3.851   8.424 -1.2392 -2.0344 -0.5718
  917MOL0     H23766   8.748   3.700   8.463 -1.4124 -0.1975  2.1013
  917MOL0     H23767   8.790   3.744   8.712 -0.3569 -0.1100  0.2190
  917MOL0     H23768   8.875   3.889   8.647  0.7627 -0.5806  0.7971
  917MOL0     H23769   8.929   3.601   8.575  0.4297  0.1027 -0.7938
  917MOL0     H23770   9.019   3.733   8.512 -2.8592 -0.6029 -1.8703
  917MOL0     H23771   9.005   3.685   8.818  2.0111 -1.0486 -0.4942
  917MOL0     H23772   9.075   3.820   8.746  2.1519  0.3031  2.9943
  917MOL0     H23773   9.202   3.551   8.687  4.6905  1.0664 -1.1922
  917MOL0     H23774   9.261   3.707   8.648  1.9280  0.6716  1.7408
  917MOL0     H23775   8.237   4.121   8.528  0.3913 -0.6659  0.5837
  917MOL0     H23776   7.993   4.214   8.515  2.2008 -0.1072  1.5026
  917MOL0     H23777   7.702   4.360   8.242 -0.6463  1.4476 -2.0835
  917MOL0     H23778   7.486   4.479   8.194 -0.5469  1.3400  2.6069
  917MOL0     H23779   5.948   4.951   8.902 -0.7046 -0.2076  0.8919
  917MOL0     H23780   5.715   4.922   8.894 -1.3564  0.3811 -0.3537
  917MOL0     H23781   5.212   5.261   9.097  0.0812 -0.8562  0.5491
  917MOL0     H23782   4.990   5.225   9.053  2.5306 -0.7545  3.7202
  917MOL0     H23783   4.752   5.186   8.954  4.0451  0.8539  0.9230
  917MOL0     H23784   4.792   5.060   9.064  1.2629  4.6448  0.7473
  917MOL0     H23785   4.559   5.058   8.962 -0.3450 -0.2727 -0.7482
  917MOL0     H23786   4.660   4.906   8.980 -0.2221 -0.4197 -0.5240
  917MOL0     H23787   4.720   4.918   8.744 -1.3964 -1.5675 -0.2000
  917MOL0     H23788   4.599   5.045   8.703 -2.3929 -2.6342 -2.3085
  917MOL0     H23789   4.517   4.827   8.649 -0.9819 -2.3148  0.4684
  917MOL0     H23790   4.518   4.781   8.816  0.4699 -0.2637 -0.0021
  917MOL0     H23791   4.183   5.037   8.767  0.4615  0.9238 -1.1945
  917MOL0     H23792   5.079   4.899   8.791 -1.0322 -1.0665  2.1683
  917MOL0     H23793   5.419   4.859   8.887  0.5746 -1.2676 -0.3104
  917MOL0     H23794   5.286   4.815   8.790  0.3582  0.9068 -0.6792
  917MOL0     H23795   5.384   4.955   8.731 -1.2366  5.1586  0.9957
  918MOL0     O23796   2.272   3.707   4.729  0.7529  0.2866  0.1597
  918MOL0     C23797   2.232   3.774   4.640 -0.2765 -0.0820  0.6718
  918MOL0     O23798   2.301   3.781   4.524 -0.4166 -0.5647  0.3227
  918MOL0     C23799   2.439   3.766   4.532  0.1472 -0.4137 -0.5195
  918MOL0     C23800   2.503   3.645   4.555 -0.2502 -0.7301  0.0167
  918MOL0     C23801   2.642   3.636   4.562  0.2142 -0.1269  0.2205
  918MOL0     C23802   2.721   3.754   4.538 -0.9559  0.4271  0.0281
  918MOL0     O23803   2.859   3.743   4.547 -0.4860 -0.1083  0.4213
  918MOL0     C23804   2.926   3.729   4.421  0.5611 -0.5157  0.6409
  918MOL0     C23805   2.978   3.867   4.359 -0.3064  0.4586 -0.6475
  918MOL0     C23806   3.074   3.919   4.465  0.3687  0.1082 -0.6741
  918MOL0     C23807   3.209   3.857   4.488  0.0043  0.4770  0.0844
  918MOL0     C23808   3.301   3.950   4.567 -0.5201 -0.0792 -0.6827
  918MOL0     C23809   3.439   3.881   4.572 -0.1120  0.5623 -0.0984
  918MOL0     C23810   3.564   3.953   4.620  0.7359  0.0395 -0.2031
  918MOL0     C23811   3.594   4.078   4.549  0.6072  0.3769  0.0217
  918MOL0     N23812   3.695   4.152   4.622  0.1465  0.3214 -0.1049
  918MOL0     C23813   3.829   4.150   4.614  0.4180 -0.1079 -0.6587
  918MOL0     C23814   3.884   4.258   4.678  0.3829 -0.0728 -0.3851
  918MOL0     C23815   4.025   4.277   4.727 -0.3381  0.1226 -0.1953
  918MOL0     C23816   4.109   4.319   4.605 -0.6235  0.2673  0.5727
  918MOL0     C23817   4.249   4.358   4.651 -0.4290  0.4906 -0.5739
  918MOL0     C23818   4.360   4.266   4.583  0.4123 -0.9398  0.5153
  918MOL0     O23819   4.474   4.357   4.571  0.5819 -0.2212 -0.4754
  918MOL0     C23820   4.596   4.331   4.622  0.5840 -0.0633  0.4392
  918MOL0     C23821   4.669   4.448   4.645 -0.2835 -0.4504  0.0552
  918MOL0     C23822   4.795   4.436   4.698 -0.1061  0.0637 -0.4750
  918MOL0     C23823   4.866   4.317   4.708  0.1689 -0.1432 -0.5334
  918MOL0     C23824   5.006   4.318   4.758 -0.1295  0.2360  0.5035
  918MOL0     O23825   5.057   4.201   4.753 -0.1344  0.5724 -0.2722
  918MOL0     C23826   5.191   4.179   4.782  1.0361  0.7563 -0.1665
  918MOL0     C23827   5.212   4.071   4.869 -0.0723  0.6631  0.3135
  918MOL0     C23828   5.345   4.047   4.913 -0.3602 -0.3146 -0.3158
  918MOL0     C23829   5.451   4.125   4.871  0.3308 -0.9682 -0.0966
  918MOL0     O23830   5.576   4.105   4.925 -0.1211 -0.2556 -0.3144
  918MOL0     C23831   5.690   4.172   4.872 -0.3520  1.0537  0.3447
  918MOL0     C23832   5.807   4.155   4.971 -0.7725 -0.7251  0.2586
  918MOL0     C23833   5.944   4.166   4.890  0.1959  0.5390  0.0986
  918MOL0     C23834   6.069   4.192   4.964  1.0421  0.3696 -0.9010
  918MOL0     C23835   6.195   4.189   4.873 -0.5239 -0.2295  0.1335
  918MOL0     C23836   6.323   4.209   4.961  0.2541  0.1675 -0.1048
  918MOL0     C23837   6.448   4.209   4.870 -0.7841 -0.8060 -0.4905
  918MOL0     C23838   6.571   4.218   4.952  0.7464  0.2708 -0.0358
  918MOL0    Cl23839   6.706   4.208   4.843  0.0785 -0.3504  0.5109
  918MOL0     C23840   5.426   4.222   4.778  0.0833  0.2566 -0.2554
  918MOL0     C23841   5.302   4.249   4.734  0.6083  0.0782  0.0558
  918MOL0     O23842   5.059   4.426   4.789 -0.7133  0.6841 -0.4258
  918MOL0     C23843   4.797   4.201   4.680 -0.2939 -0.0401  0.8120
  918MOL0     C23844   4.661   4.208   4.648  0.5049  0.4778 -0.4320
  918MOL0     N23845   3.776   4.332   4.716  0.2540 -0.7273  0.5377
  918MOL0     N23846   3.668   4.276   4.674 -0.1955  0.0584 -0.5640
  918MOL0     C23847   2.655   3.875   4.537  0.2744 -0.5453 -0.4069
  918MOL0     C23848   2.514   3.884   4.532  0.1931 -0.2027  0.0256
  918MOL0     C23849   2.094   3.826   4.647  0.8154  0.4530 -0.7690
  918MOL0     C23850   2.051   3.906   4.545  0.2480  0.1986 -0.0384
  918MOL0     C23851   1.915   3.934   4.512  0.3604 -0.5451  0.0667
  918MOL0     C23852   1.816   3.887   4.600 -0.6474 -0.2410 -0.5608
  918MOL0     O23853   1.683   3.923   4.579  0.1079  0.2105  0.2704
  918MOL0     C23854   1.590   3.908   4.687 -0.9920  0.6459  0.2491
  918MOL0     C23855   1.450   3.949   4.647 -0.7902 -0.0781  0.9806
  918MOL0     C23856   1.354   3.901   4.753  0.0155 -0.1366 -0.3678
  918MOL0     C23857   1.212   3.971   4.727 -0.9033  0.8999 -0.0061
  918MOL0     C23858   1.151   3.884   4.621 -0.2655 -0.1999  0.0987
  918MOL0     C23859   1.092   3.830   4.528 -0.3568  0.0220  0.2905
  918MOL0     C23860   1.860   3.807   4.715  0.2909  0.0276 -0.7910
  918MOL0     C23861   1.994   3.784   4.743 -0.5370 -0.6697 -0.3347
  918MOL0     C23862   2.029   3.686   4.861  0.2925 -0.1341 -0.0062
  918MOL0     H23863   2.453   3.551   4.575  3.8078 -3.1650 -0.2140
  918MOL0     H23864   2.693   3.541   4.573  1.3320  0.1874 -1.8537
  918MOL0     H23865   3.013   3.669   4.450  0.0366  0.0092  3.6847
  918MOL0     H23866   2.871   3.670   4.347  1.6528  1.1483 -1.5902
  918MOL0     H23867   2.893   3.933   4.342 -1.2109 -0.3526  0.6084
  918MOL0     H23868   3.015   3.843   4.258 -0.3225 -1.7016 -0.1925
  918MOL0     H23869   3.023   3.917   4.562 -1.8617  1.0574 -1.7514
  918MOL0     H23870   3.089   4.026   4.450  1.5490 -0.1590 -1.4768
  918MOL0     H23871   3.195   3.758   4.533  0.2450  0.2170 -0.4082
  918MOL0     H23872   3.248   3.842   4.387  0.5055 -1.8976  0.5642
  918MOL0     H23873   3.306   4.052   4.528 -2.0326 -0.2482 -1.4107
  918MOL0     H23874   3.268   3.964   4.670 -3.5086 -0.7439 -1.4223
  918MOL0     H23875   3.416   3.799   4.641 -3.6426  0.8160 -0.7821
  918MOL0     H23876   3.462   3.840   4.473  1.4878  0.4358  0.3061
  918MOL0     H23877   3.656   3.893   4.620  1.4512  0.9475  2.9769
  918MOL0     H23878   3.553   3.985   4.724  1.7431 -1.1574  0.3019
  918MOL0     H23879   3.625   4.058   4.446 -1.7337  1.4772 -0.9677
  918MOL0     H23880   3.503   4.138   4.537 -0.7404 -1.6784 -0.4967
  918MOL0     H23881   3.882   4.077   4.553  0.7303  0.0518 -0.5757
  918MOL0     H23882   4.022   4.345   4.812 -2.7812  0.2938 -0.3704
  918MOL0     H23883   4.066   4.186   4.771  0.9479 -0.7058 -2.8562
  918MOL0     H23884   4.116   4.235   4.535  3.5177  0.8375  0.0555
  918MOL0     H23885   4.071   4.406   4.551 -1.1199  0.5552  1.3569
  918MOL0     H23886   4.255   4.361   4.760 -0.7199 -1.7973 -0.4346
  918MOL0     H23887   4.265   4.460   4.616 -0.2304 -0.1984 -2.6783
  918MOL0     H23888   4.333   4.245   4.479 -1.8269  0.8770  0.6500
  918MOL0     H23889   4.386   4.176   4.639 -0.1392 -0.5930  1.3526
  918MOL0     H23890   4.631   4.550   4.645  1.3381  0.2109  1.7278
  918MOL0     H23891   4.847   4.525   4.733  2.4884 -1.0491 -1.2519
  918MOL0     H23892   5.131   4.012   4.910  0.2127 -0.5230 -0.7820
  918MOL0     H23893   5.367   3.960   4.973 -0.0561 -0.4330 -0.5985
  918MOL0     H23894   5.720   4.129   4.776 -3.5136 -4.7086  1.4485
  918MOL0     H23895   5.671   4.277   4.848 -0.4580  0.9655  0.0443
  918MOL0     H23896   5.803   4.227   5.053  0.2759  3.6375 -3.1711
  918MOL0     H23897   5.799   4.053   5.010  0.4541 -0.4388  1.3476
  918MOL0     H23898   5.968   4.067   4.850 -0.8304  0.4807 -0.4064
  918MOL0     H23899   5.926   4.243   4.815 -0.1337  1.4217  1.0491
  918MOL0     H23900   6.082   4.123   5.048 -3.4615 -1.2879 -1.3031
  918MOL0     H23901   6.056   4.285   5.020  1.1621 -0.0294 -0.1918
  918MOL0     H23902   6.189   4.257   4.788 -1.4074 -0.4667 -0.0058
  918MOL0     H23903   6.196   4.086   4.837 -2.5583 -0.6619  1.1751
  918MOL0     H23904   6.316   4.305   5.014 -1.4514 -0.6194  1.2020
  918MOL0     H23905   6.334   4.138   5.043 -2.6364  0.4172  0.6075
  918MOL0     H23906   6.447   4.302   4.812  0.5207 -1.5878 -1.8163
  918MOL0     H23907   6.458   4.121   4.807  0.4134 -1.8755  1.1227
  918MOL0     H23908   6.575   4.311   5.010  1.1577  0.5302 -0.4712
  918MOL0     H23909   6.559   4.127   5.013 -1.8711  0.2583 -0.4465
  918MOL0     H23910   5.509   4.269   4.727  1.2729 -1.2958  0.1446
  918MOL0     H23911   5.290   4.319   4.653 -3.7374  2.0055  2.0141
  918MOL0     H23912   4.848   4.108   4.701  1.4630  1.0388  1.5486
  918MOL0     H23913   4.605   4.115   4.638 -1.9162  1.4739  2.3154
  918MOL0     H23914   2.714   3.966   4.534 -2.1879  1.3089  2.1824
  918MOL0     H23915   2.464   3.980   4.528  1.1015  0.2516 -0.9177
  918MOL0     H23916   2.130   3.934   4.477  0.1773 -3.5810 -1.9440
  918MOL0     H23917   1.880   3.985   4.423  2.0817  0.8101  0.1279
  918MOL0     H23918   1.629   3.971   4.768  0.4272  1.4174 -0.9731
  918MOL0     H23919   1.580   3.804   4.720  0.5559  0.1485 -0.7489
  918MOL0     H23920   1.426   3.907   4.548  1.6569  0.2215  0.1887
  918MOL0     H23921   1.442   4.057   4.639 -1.0791 -0.0428  1.7301
  918MOL0     H23922   1.400   3.944   4.843 -0.0352 -0.4076 -0.2108
  918MOL0     H23923   1.358   3.792   4.762  0.8586 -0.2898 -2.1641
  918MOL0     H23924   1.147   3.959   4.814 -1.4687 -1.7856 -0.7003
  918MOL0     H23925   1.211   4.079   4.709 -2.5039  0.7695 -0.8880
  918MOL0     H23926   1.049   3.770   4.452  1.9122 -2.6369  0.9414
  918MOL0     H23927   1.788   3.769   4.787  3.1324 -0.6087  1.9259
  918MOL0     H23928   2.072   3.597   4.814 -0.6747 -0.8925  0.4805
  918MOL0     H23929   2.105   3.734   4.923 -0.3578  0.3498  0.4342
  918MOL0     H23930   1.942   3.658   4.923 -1.7196  0.8512 -2.2323
  919MOL0     O23931  10.447   7.899   8.646 -0.3820 -0.5020 -0.2191
  919MOL0     C23932  10.370   7.927   8.560  0.7078 -0.1106  0.6329
  919MOL0     O23933  10.384   7.911   8.421  0.2909  0.5005  0.4857
  919MOL0     C23934  10.489   7.839   8.375  0.6518 -0.8816  0.1914
  919MOL0     C23935  10.620   7.892   8.389 -0.1290  1.2592  0.3076
  919MOL0     C23936  10.725   7.823   8.330 -0.1849  0.0567  0.5614
  919MOL0     C23937  10.712   7.704   8.259 -0.6396 -0.1941  0.2631
  919MOL0     O23938  10.826   7.636   8.214  0.1190 -0.0955 -0.4664
  919MOL0     C23939  10.835   7.500   8.184  0.2753 -0.2474  0.1446
  919MOL0     C23940  10.982   7.465   8.158  0.0642  0.4838  0.7388
  919MOL0     C23941  11.084   7.513   8.260 -0.6513  0.9692 -0.7180
  919MOL0     C23942  11.226   7.517   8.201  0.0403 -0.0324 -0.2075
  919MOL0     C23943  11.297   7.391   8.186  0.0218  0.3197  0.7108
  919MOL0     C23944  11.431   7.397   8.102  0.6004  0.1864  1.1108
  919MOL0     C23945  11.542   7.449   8.186 -0.2187  0.8788 -0.1669
  919MOL0     C23946  11.671   7.439   8.095 -0.0178  0.5177  0.2079
  919MOL0     N23947  11.791   7.453   8.186 -0.4912  0.0215  0.2580
  919MOL0     C23948  11.814   7.561   8.280  0.0182  0.3336  0.0262
  919MOL0     C23949  11.939   7.532   8.326 -0.0336 -0.1803  0.1046
  919MOL0     C23950  12.016   7.616   8.421  0.5599 -0.5175 -0.4928
  919MOL0     C23951  12.159   7.631   8.366 -0.2940 -0.2445  0.4703
  919MOL0     C23952  12.257   7.702   8.465  0.1232 -0.1288  0.1286
  919MOL0     C23953  12.381   7.752   8.382 -0.0050 -0.3544 -0.7070
  919MOL0     O23954  12.486   7.794   8.465  0.3043  0.0440  0.1987
  919MOL0     C23955  12.620   7.791   8.424 -0.1077  0.3041  0.6611
  919MOL0     C23956  12.670   7.828   8.297 -0.7269 -0.4458  0.1786
  919MOL0     C23957  12.801   7.845   8.265  0.1728  0.3661  0.0273
  919MOL0     C23958  12.893   7.795   8.352  0.1762 -0.7887 -0.0428
  919MOL0     C23959  13.040   7.825   8.329  0.4299 -0.5628  0.1785
  919MOL0     O23960  13.067   7.877   8.205 -0.1446  0.1776  0.2288
  919MOL0     C23961  13.203   7.911   8.190 -0.3731  0.4341  0.2569
  919MOL0     C23962  13.283   7.835   8.099 -0.1931 -0.7584  0.1652
  919MOL0     C23963  13.420   7.848   8.093 -0.0191  0.4322  0.2421
  919MOL0     C23964  13.488   7.937   8.173 -0.2605  0.2200 -0.0174
  919MOL0     O23965  13.623   7.937   8.166  0.5158 -0.5636 -0.6961
  919MOL0     C23966  13.679   7.809   8.187  0.7030  0.2058  0.8549
  919MOL0     C23967  13.824   7.817   8.203 -0.2744 -0.0063 -0.6905
  919MOL0     C23968  13.872   7.678   8.230  0.3428  0.1022 -0.1627
  919MOL0     C23969  14.024   7.676   8.223 -1.0003  0.2888  0.0864
  919MOL0     C23970  14.097   7.729   8.346 -0.0642 -0.1537  0.3053
  919MOL0     C23971  14.253   7.701   8.355 -0.0891  1.0921  1.0930
  919MOL0     C23972  14.291   7.553   8.325 -0.5262  0.4692 -0.0065
  919MOL0     C23973  14.445   7.542   8.345  0.7010 -0.0352  0.6373
  919MOL0    Cl23974  14.532   7.610   8.201 -0.1670 -0.2654  0.7552
  919MOL0     C23975  13.410   8.023   8.253 -0.1431 -0.2541 -0.0561
  919MOL0     C23976  13.270   8.011   8.263 -0.3552  0.2672 -0.1706
  919MOL0     O23977  13.120   7.784   8.414 -0.3187  0.5794  0.0518
  919MOL0     C23978  12.850   7.732   8.475 -0.0360  0.6025  0.1603
  919MOL0     C23979  12.714   7.741   8.515 -0.1679 -0.5707 -0.5600
  919MOL0     N23980  11.976   7.408   8.281  0.0575  0.3009  0.4546
  919MOL0     N23981  11.888   7.359   8.206  0.9412  0.3531 -0.0980
  919MOL0     C23982  10.578   7.660   8.237  0.6163  0.3788 -0.5884
  919MOL0     C23983  10.469   7.724   8.298  0.4087  0.1919  0.7524
  919MOL0     C23984  10.243   7.992   8.609 -0.0771  0.0008 -0.7960
  919MOL0     C23985  10.184   8.101   8.540 -0.1428  0.6243  0.7265
  919MOL0     C23986  10.084   8.179   8.588  0.3332 -0.3059 -0.1370
  919MOL0     C23987  10.030   8.157   8.712  0.2517  0.4509  0.0263
  919MOL0     O23988   9.929   8.228   8.765 -0.3118  0.4502 -0.5120
  919MOL0     C23989   9.880   8.342   8.695 -0.1808  0.7574 -0.2845
  919MOL0     C23990   9.776   8.421   8.774 -0.4609 -0.5128 -0.9153
  919MOL0     C23991   9.827   8.449   8.921  0.9388  0.0467  0.5062
  919MOL0     C23992   9.706   8.490   9.015 -0.2921 -0.0042 -0.6200
  919MOL0     C23993   9.662   8.633   8.987 -0.0154 -0.9219  0.0984
  919MOL0     C23994   9.627   8.752   8.966  0.0023 -0.2886 -0.0562
  919MOL0     C23995  10.084   8.054   8.783 -0.4699  0.2150 -0.2218
  919MOL0     C23996  10.186   7.976   8.733 -1.1657  0.4299  0.1038
  919MOL0     C23997  10.226   7.866   8.826  1.0487  0.9808  0.5293
  919MOL0     H23998  10.634   7.975   8.457  0.0522  1.7362 -0.3066
  919MOL0     H23999  10.828   7.853   8.348  0.5692 -0.4590 -2.4020
  919MOL0     H24000  10.793   7.441   8.265 -1.3263 -0.0571 -0.5138
  919MOL0     H24001  10.783   7.473   8.092 -2.7339 -2.5977  2.3083
  919MOL0     H24002  11.017   7.503   8.061  1.6552 -0.6163  0.8470
  919MOL0     H24003  10.986   7.356   8.149 -0.7183  0.6382 -3.0028
  919MOL0     H24004  11.076   7.458   8.355 -2.5923  2.7562  0.2538
  919MOL0     H24005  11.050   7.609   8.301  1.3488  1.1489  0.6662
  919MOL0     H24006  11.221   7.571   8.106 -1.0610 -2.9041 -1.9261
  919MOL0     H24007  11.284   7.576   8.272  1.5665 -0.7070 -0.8420
  919MOL0     H24008  11.307   7.335   8.279  0.9168 -0.2206  0.3088
  919MOL0     H24009  11.235   7.330   8.119  0.6297  1.3534 -0.8708
  919MOL0     H24010  11.456   7.297   8.066  2.6977  0.9916  0.1842
  919MOL0     H24011  11.413   7.448   8.007  1.2213 -1.8184 -0.1289
  919MOL0     H24012  11.575   7.383   8.266 -1.8084  0.7689  0.4419
  919MOL0     H24013  11.523   7.553   8.217 -0.9711 -0.2812  3.7297
  919MOL0     H24014  11.682   7.344   8.042 -0.6114  0.6454 -0.1500
  919MOL0     H24015  11.683   7.508   8.011  4.8409 -0.9996 -0.6886
  919MOL0     H24016  11.749   7.644   8.303 -2.4342 -1.8664  1.6739
  919MOL0     H24017  11.973   7.716   8.433  2.6166  0.8077 -3.1353
  919MOL0     H24018  12.022   7.554   8.511 -0.1793 -0.2775 -0.2705
  919MOL0     H24019  12.211   7.539   8.336 -1.4379 -0.3584 -1.3450
  919MOL0     H24020  12.146   7.694   8.278 -0.1388 -1.0674 -0.1578
  919MOL0     H24021  12.296   7.631   8.539 -1.5089  0.6200  1.8102
  919MOL0     H24022  12.213   7.794   8.506  3.0560  0.9937  1.0246
  919MOL0     H24023  12.370   7.845   8.325  1.7528  2.3554  2.9369
  919MOL0     H24024  12.414   7.668   8.320  1.4307  1.1380 -2.0671
  919MOL0     H24025  12.600   7.869   8.225  0.1363 -0.8343 -0.9042
  919MOL0     H24026  12.829   7.867   8.162 -0.8255 -0.3378 -0.4062
  919MOL0     H24027  13.246   7.754   8.037 -0.5431  0.6580 -1.5503
  919MOL0     H24028  13.465   7.774   8.029 -1.3525  0.5195 -0.8339
  919MOL0     H24029  13.625   7.748   8.260 -0.4662  1.1361  0.7986
  919MOL0     H24030  13.673   7.751   8.095  0.9302 -0.2915  1.1501
  919MOL0     H24031  13.880   7.862   8.121  0.0691  1.2960  0.2289
  919MOL0     H24032  13.841   7.880   8.291 -0.4721 -1.2808  0.2968
  919MOL0     H24033  13.837   7.652   8.331 -0.5246 -0.1861 -0.5224
  919MOL0     H24034  13.834   7.604   8.158  4.2431 -0.8505 -1.4672
  919MOL0     H24035  14.054   7.737   8.137 -0.1316  0.1044  0.2463
  919MOL0     H24036  14.058   7.576   8.197 -0.1256  1.1672 -2.5068
  919MOL0     H24037  14.047   7.678   8.429  0.5143 -2.0774 -0.4882
  919MOL0     H24038  14.083   7.838   8.355 -1.2000 -0.2622 -0.0271
  919MOL0     H24039  14.309   7.764   8.286 -0.2226  0.7771  0.6932
  919MOL0     H24040  14.280   7.737   8.454  4.0268 -1.2019  1.0007
  919MOL0     H24041  14.263   7.524   8.224  0.0608  1.7326 -0.5623
  919MOL0     H24042  14.229   7.488   8.388 -0.4504 -0.6451 -1.0530
  919MOL0     H24043  14.484   7.594   8.433  0.6006 -1.1930  1.3998
  919MOL0     H24044  14.471   7.435   8.353 -1.7672 -0.7650 -0.2965
  919MOL0     H24045  13.454   8.104   8.309  2.0635 -1.1085 -0.4291
  919MOL0     H24046  13.211   8.068   8.334 -0.0359 -0.4488  0.6851
  919MOL0     H24047  12.912   7.707   8.561 -0.7130 -1.5069  0.0941
  919MOL0     H24048  12.695   7.710   8.618  2.6517  1.5776  0.7505
  919MOL0     H24049  10.556   7.573   8.176  2.2010 -0.4893  0.0086
  919MOL0     H24050  10.372   7.680   8.281  0.1512 -0.8974  4.2539
  919MOL0     H24051  10.237   8.125   8.449 -0.4512  1.2998  0.7190
  919MOL0     H24052  10.052   8.259   8.521  3.2031  0.5854 -0.6068
  919MOL0     H24053   9.829   8.313   8.603 -1.0323  3.9872 -0.9226
  919MOL0     H24054   9.959   8.410   8.663  0.9761 -1.4396 -2.3783
  919MOL0     H24055   9.675   8.378   8.779 -1.1211  0.9413 -1.0509
  919MOL0     H24056   9.760   8.520   8.730 -1.2997 -0.0605  0.3791
  919MOL0     H24057   9.893   8.536   8.920  2.0455 -0.7816 -0.0763
  919MOL0     H24058   9.882   8.366   8.965  0.1044  1.2720  4.3214
  919MOL0     H24059   9.618   8.433   8.985  0.3352 -0.3389 -1.8997
  919MOL0     H24060   9.730   8.473   9.120 -1.6984 -0.4457 -0.3527
  919MOL0     H24061   9.594   8.849   8.934 -0.6495  0.0909  1.6602
  919MOL0     H24062  10.030   8.025   8.873  0.6597  1.9135  1.0675
  919MOL0     H24063  10.147   7.830   8.893  2.3979 -3.3959  0.0992
  919MOL0     H24064  10.259   7.780   8.767  1.5956  1.9722 -0.6643
  919MOL0     H24065  10.305   7.890   8.898  0.6727 -0.3946  1.4439
  920MOL0     O24066   1.153  10.084   0.860 -0.0318 -0.1294  0.3754
  920MOL0     C24067   1.155  10.094   0.983  0.3301  0.1112 -0.3649
  920MOL0     O24068   1.254  10.058   1.071 -0.3359  0.3774 -0.3194
  920MOL0     C24069   1.366  10.001   1.031  0.3959  0.6964 -0.1658
  920MOL0     C24070   1.495  10.049   1.080  0.2177 -0.2700 -0.4201
  920MOL0     C24071   1.616   9.986   1.047 -0.0101 -0.2439  0.1688
  920MOL0     C24072   1.616   9.875   0.965 -0.0845  0.6376 -0.0222
  920MOL0     O24073   1.724   9.796   0.930 -0.4273 -0.5823  0.4609
  920MOL0     C24074   1.849   9.832   0.989  0.0777 -0.0512 -0.7403
  920MOL0     C24075   1.940   9.722   0.960 -0.5164  0.6644 -0.5512
  920MOL0     C24076   2.089   9.741   0.978 -0.7586  0.2909 -0.7010
  920MOL0     C24077   2.174   9.617   0.926  0.1355 -0.6826 -0.2487
  920MOL0     C24078   2.162   9.488   1.019 -0.4705 -0.5503 -0.0012
  920MOL0     C24079   2.260   9.391   0.964  0.9155  0.2581 -0.0105
  920MOL0     C24080   2.410   9.409   1.008  0.5078  0.4371 -0.6442
  920MOL0     C24081   2.491   9.325   0.910 -0.7609 -0.6833 -0.5260
  920MOL0     N24082   2.626   9.326   0.960 -0.4309 -0.0769  0.5068
  920MOL0     C24083   2.737   9.377   0.890 -0.7803  0.4868 -0.1691
  920MOL0     C24084   2.838   9.340   0.965 -0.3715 -0.4227 -0.9137
  920MOL0     C24085   2.986   9.376   0.927 -0.4710 -0.0616  0.4524
  920MOL0     C24086   3.056   9.273   0.828  0.2657 -0.2357  0.4598
  920MOL0     C24087   3.132   9.332   0.710 -0.5258  0.2576  0.2267
  920MOL0     C24088   3.257   9.397   0.772  0.6266  0.5009  0.1256
  920MOL0     O24089   3.331   9.448   0.663 -0.2424 -0.3775 -0.5742
  920MOL0     C24090   3.448   9.517   0.684 -0.3914 -0.1815 -0.0588
  920MOL0     C24091   3.523   9.542   0.571 -0.1711 -0.7695 -0.0241
  920MOL0     C24092   3.639   9.616   0.580  0.5770  0.1828  0.8456
  920MOL0     C24093   3.680   9.674   0.701 -0.0778 -0.4956 -0.0024
  920MOL0     C24094   3.802   9.755   0.712 -0.6746 -0.1489 -0.3653
  920MOL0     O24095   3.864   9.757   0.837 -0.4079 -0.6108 -0.2576
  920MOL0     C24096   3.988   9.817   0.859  0.6661  0.3104  0.3145
  920MOL0     C24097   4.093   9.796   0.772  0.1202 -0.1722 -0.1687
  920MOL0     C24098   4.222   9.844   0.785  1.0486 -0.5549  1.0315
  920MOL0     C24099   4.253   9.914   0.900 -0.1381  0.4442 -0.1757
  920MOL0     O24100   4.388   9.933   0.911 -0.3750  0.0867 -0.1156
  920MOL0     C24101   4.459   9.903   1.034 -0.2280 -0.0860  0.0005
  920MOL0     C24102   4.605   9.937   1.012  0.2416  0.6330  1.2861
  920MOL0     C24103   4.666   9.965   1.144 -0.2370  0.7351 -0.1250
  920MOL0     C24104   4.817   9.970   1.139  1.0557  0.2131  0.2015
  920MOL0     C24105   4.867  10.067   1.236 -0.5752  0.2095 -0.5085
  920MOL0     C24106   5.019  10.084   1.213 -0.5101 -0.7839  0.8259
  920MOL0     C24107   5.081  10.160   1.339  0.0495  1.0266  0.0983
  920MOL0     C24108   5.140  10.046   1.427 -0.4052 -0.0208  0.6548
  920MOL0    Cl24109   5.146  10.106   1.596 -0.2437 -0.1866  0.2572
  920MOL0     C24110   4.149   9.931   0.997 -0.7469  0.1899  0.5531
  920MOL0     C24111   4.015   9.892   0.969  0.4275 -0.1455  0.0506
  920MOL0     O24112   3.840   9.818   0.613  0.1732 -0.5596  1.0237
  920MOL0     C24113   3.593   9.655   0.810 -0.0256 -0.5301 -0.1520
  920MOL0     C24114   3.485   9.579   0.803  0.6673  0.1437  0.1088
  920MOL0     N24115   2.787   9.268   1.074  0.6007 -0.2839  0.6361
  920MOL0     N24116   2.663   9.257   1.065  0.2751  0.2253  0.0659
  920MOL0     C24117   1.492   9.820   0.930 -0.2498  1.1436  0.6080
  920MOL0     C24118   1.367   9.884   0.954  0.2537  0.3775 -0.4400
  920MOL0     C24119   1.036  10.167   1.048 -0.1829 -0.3396  0.1730
  920MOL0     C24120   0.955  10.249   0.964 -0.2530 -0.0447  1.3505
  920MOL0     C24121   0.845  10.312   1.012  0.0955 -0.0454 -0.3461
  920MOL0     C24122   0.806  10.303   1.144  0.3283 -1.1471 -0.4772
  920MOL0     O24123   0.705  10.384   1.197 -0.2453  0.0892 -0.6428
  920MOL0     C24124   0.601  10.439   1.112  0.2652 -0.1077 -0.4624
  920MOL0     C24125   0.488  10.519   1.185 -0.1178  0.0308 -0.9059
  920MOL0     C24126   0.543  10.633   1.275  0.1612  0.0906  0.4108
  920MOL0     C24127   0.600  10.752   1.196  0.4571 -0.1936  1.2018
  920MOL0     C24128   0.721  10.790   1.267  0.7904  0.1383 -0.6137
  920MOL0     C24129   0.829  10.826   1.313 -0.4669  0.6644  0.6486
  920MOL0     C24130   0.887  10.223   1.226 -1.2822  0.1110 -0.4043
  920MOL0     C24131   1.003  10.152   1.184  0.0833 -0.4266  0.1298
  920MOL0     C24132   1.089  10.073   1.293  0.4045  0.6674  0.4446
  920MOL0     H24133   1.494  10.129   1.153 -1.4611 -1.4028  0.8914
  920MOL0     H24134   1.704  10.035   1.088  0.0544 -1.3098  1.3838
  920MOL0     H24135   1.885   9.934   0.978  2.0811 -0.4359  1.3449
  920MOL0     H24136   1.827   9.832   1.097 -1.9789  0.6047 -1.1203
  920MOL0     H24137   1.932   9.698   0.853  0.4022 -0.6467 -0.3593
  920MOL0     H24138   1.903   9.638   1.019 -0.0212 -0.3247 -1.5986
  920MOL0     H24139   2.101   9.762   1.084  0.5956  0.7726 -0.9366
  920MOL0     H24140   2.128   9.829   0.926 -1.0514  0.4680 -0.6235
  920MOL0     H24141   2.125   9.591   0.832 -2.2332 -0.0599  0.7382
  920MOL0     H24142   2.281   9.639   0.921 -0.2003  1.1611 -0.0678
  920MOL0     H24143   2.193   9.523   1.118 -1.0517  0.0326 -0.0152
  920MOL0     H24144   2.063   9.445   1.036 -1.5498  1.2156 -1.4276
  920MOL0     H24145   2.228   9.297   1.010 -2.4090  1.5736  0.6834
  920MOL0     H24146   2.244   9.379   0.857 -1.2356  1.4897  0.1054
  920MOL0     H24147   2.426   9.378   1.111  3.6964  4.1371  0.1911
  920MOL0     H24148   2.440   9.513   1.015 -1.6911  1.0193  1.5354
  920MOL0     H24149   2.452   9.223   0.899 -2.4643 -0.1245 -0.0575
  920MOL0     H24150   2.488   9.371   0.811 -0.5614  0.8199  0.1468
  920MOL0     H24151   2.729   9.440   0.803 -2.5173 -1.7069 -1.7425
  920MOL0     H24152   2.982   9.478   0.887  2.2942  0.4708  1.3735
  920MOL0     H24153   3.054   9.375   1.012 -1.4284 -0.7752  1.2300
  920MOL0     H24154   3.127   9.214   0.886 -1.0961  0.0988  2.6006
  920MOL0     H24155   2.980   9.212   0.779  0.0064  2.8670 -3.5803
  920MOL0     H24156   3.074   9.394   0.642 -1.6359 -0.7814  0.1819
  920MOL0     H24157   3.172   9.252   0.648 -2.5900 -1.0849  0.5036
  920MOL0     H24158   3.320   9.339   0.840 -1.1028 -0.4739  0.9468
  920MOL0     H24159   3.230   9.476   0.843 -2.0014 -0.7973  0.7066
  920MOL0     H24160   3.487   9.502   0.477 -1.5662 -3.6036  1.6017
  920MOL0     H24161   3.692   9.638   0.488  0.2959  1.9418  1.0678
  920MOL0     H24162   4.062   9.736   0.687  0.7374  2.0244 -2.0181
  920MOL0     H24163   4.286   9.830   0.699 -0.5572  5.7479 -1.7950
  920MOL0     H24164   4.428   9.961   1.122  2.4476  1.0596  0.2917
  920MOL0     H24165   4.458   9.796   1.058  1.7719 -1.1741 -3.9322
  920MOL0     H24166   4.653   9.852   0.963  0.6117  1.7890 -0.4493
  920MOL0     H24167   4.615  10.026   0.948 -0.1443 -0.0133  0.2937
  920MOL0     H24168   4.636  10.063   1.181  1.9830  1.7398 -0.8447
  920MOL0     H24169   4.642   9.881   1.210  2.2411  0.0222 -0.0155
  920MOL0     H24170   4.848  10.010   1.042  0.5005  0.1419 -0.0031
  920MOL0     H24171   4.854   9.869   1.157 -3.2313 -1.7845 -1.0659
  920MOL0     H24172   4.853  10.033   1.339 -2.3947  0.8232 -0.5193
  920MOL0     H24173   4.821  10.166   1.231 -0.5073  0.2457 -0.4242
  920MOL0     H24174   5.068   9.987   1.209 -2.5456 -1.8246 -0.9527
  920MOL0     H24175   5.034  10.138   1.119  1.2310 -2.0522  0.3408
  920MOL0     H24176   5.003  10.210   1.397  0.1329 -0.0498  1.1820
  920MOL0     H24177   5.164  10.226   1.314  2.8841 -2.6890 -1.3220
  920MOL0     H24178   5.074   9.959   1.428 -3.0516  1.7928 -2.0400
  920MOL0     H24179   5.241  10.017   1.398 -0.2790  1.8392 -0.9253
  920MOL0     H24180   4.188   9.989   1.081  2.9460  0.3306 -1.0669
  920MOL0     H24181   3.935   9.917   1.038 -2.0538 -0.0095 -2.6546
  920MOL0     H24182   3.615   9.699   0.907 -0.5334  0.4333 -0.4686
  920MOL0     H24183   3.424   9.571   0.893 -0.2049 -0.1774 -0.4891
  920MOL0     H24184   1.490   9.724   0.880 -0.6071  0.1780  2.3700
  920MOL0     H24185   1.280   9.830   0.919  2.1361 -1.8837 -1.8524
  920MOL0     H24186   0.975  10.272   0.860 -0.6880 -1.9162  0.8192
  920MOL0     H24187   0.783  10.370   0.944 -0.9625 -0.6771  0.0587
  920MOL0     H24188   0.555  10.357   1.056 -2.6466  1.5695 -0.7062
  920MOL0     H24189   0.652  10.509   1.046  0.6125  0.6764  0.5995
  920MOL0     H24190   0.419  10.460   1.245 -1.0963  0.5760 -1.4780
  920MOL0     H24191   0.409  10.550   1.116  0.1748  0.6772 -0.9579
  920MOL0     H24192   0.607  10.590   1.352 -0.7242 -1.1144  0.5062
  920MOL0     H24193   0.456  10.667   1.333 -0.2961  1.7316 -1.1540
  920MOL0     H24194   0.634  10.725   1.096  0.8962 -2.5378  1.9129
  920MOL0     H24195   0.520  10.824   1.179  1.7628  0.8979 -0.6814
  920MOL0     H24196   0.928  10.846   1.350  0.2527  3.1762 -2.1610
  920MOL0     H24197   0.866  10.227   1.333  0.8883  1.0105  0.0302
  920MOL0     H24198   1.037  10.053   1.387  1.9670 -1.6653  0.8887
  920MOL0     H24199   1.115   9.973   1.255 -1.2011  0.8027 -1.1943
  920MOL0     H24200   1.179  10.132   1.310  0.3657  0.3704  1.7491
  921MOL0     O24201   7.440  10.556   8.040  0.3397 -0.7701  0.0034
  921MOL0     C24202   7.417  10.555   8.159  0.0439 -0.0901 -0.0519
  921MOL0     O24203   7.503  10.514   8.254  0.1084  0.6275  0.5461
  921MOL0     C24204   7.627  10.463   8.215 -0.8953 -0.1848  0.0824
  921MOL0     C24205   7.655  10.328   8.206  0.3484  0.0190  1.4234
  921MOL0     C24206   7.764  10.280   8.135 -0.6420  0.0806 -0.2719
  921MOL0     C24207   7.860  10.366   8.077  0.2865 -0.3140 -0.4149
  921MOL0     O24208   7.970  10.316   8.017  0.7156 -0.5498  0.5274
  921MOL0     C24209   8.058  10.412   7.965  0.2154  0.3250 -1.2167
  921MOL0     C24210   8.176  10.323   7.923 -1.0850  0.1415  0.8233
  921MOL0     C24211   8.303  10.407   7.904  0.2348  0.6138  0.7128
  921MOL0     C24212   8.402  10.315   7.840 -0.9427 -0.1613 -0.9724
  921MOL0     C24213   8.547  10.376   7.842  0.1978 -0.4125 -0.2799
  921MOL0     C24214   8.653  10.286   7.775 -0.2323  0.5804  0.3194
  921MOL0     C24215   8.790  10.352   7.790  0.4564 -0.4378  0.7438
  921MOL0     C24216   8.894  10.275   7.720  0.1263  1.2538  0.6907
  921MOL0     N24217   9.026  10.338   7.744  0.6880  0.4423 -0.4218
  921MOL0     C24218   9.105  10.400   7.646 -0.2826  0.6937  0.1400
  921MOL0     C24219   9.229  10.423   7.701  1.0622 -0.5281  0.4422
  921MOL0     C24220   9.336  10.494   7.627  0.1537  0.8071  0.0519
  921MOL0     C24221   9.387  10.408   7.511 -0.2501 -0.5058 -0.4701
  921MOL0     C24222   9.457  10.492   7.412 -0.2537  0.3928 -1.2083
  921MOL0     C24223   9.587  10.559   7.463  0.7610 -0.2181 -0.2658
  921MOL0     O24224   9.671  10.463   7.531 -0.7232 -0.1570 -0.4568
  921MOL0     C24225   9.802  10.490   7.537 -0.0436 -0.2800  0.5823
  921MOL0     C24226   9.877  10.568   7.446 -0.3250  0.8191  0.0470
  921MOL0     C24227  10.012  10.581   7.458  0.5605  0.1403 -1.0022
  921MOL0     C24228  10.080  10.523   7.572 -0.1750  0.6795  0.3412
  921MOL0     C24229  10.227  10.535   7.586 -0.1850  0.2381 -0.2801
  921MOL0     O24230  10.280  10.491   7.710  0.8780  0.2177 -0.4789
  921MOL0     C24231  10.415  10.486   7.740 -0.1800 -0.2727  0.4072
  921MOL0     C24232  10.515  10.454   7.648 -0.5177 -0.3467  0.1779
  921MOL0     C24233  10.651  10.459   7.682  0.0072  0.1339  0.2570
  921MOL0     C24234  10.691  10.497   7.810  0.4458  0.0153  0.5657
  921MOL0     O24235  10.826  10.480   7.841 -0.0588  0.2684  0.2480
  921MOL0     C24236  10.872  10.551   7.951 -0.7580 -0.4881 -0.4416
  921MOL0     C24237  11.023  10.543   7.959 -0.7645  0.2373 -0.5329
  921MOL0     C24238  11.096  10.653   8.033 -0.1800  0.2668 -0.1971
  921MOL0     C24239  11.051  10.663   8.177 -0.1445  0.1380 -0.4626
  921MOL0     C24240  11.073  10.799   8.251  0.8739 -0.2345  0.0659
  921MOL0     C24241  11.211  10.864   8.218  1.1203 -0.6881 -0.1321
  921MOL0     C24242  11.327  10.776   8.250  0.9571 -0.2573 -0.1028
  921MOL0     C24243  11.460  10.858   8.259  0.1602 -0.1460  0.1338
  921MOL0    Cl24244  11.461  10.964   8.383  0.0854 -0.0003  0.0968
  921MOL0     C24245  10.594  10.528   7.907  0.5510 -0.4263  0.1381
  921MOL0     C24246  10.457  10.529   7.871 -0.1298  1.0224 -0.9657
  921MOL0     O24247  10.287  10.601   7.506  0.5340 -0.6114  0.2124
  921MOL0     C24248  10.009  10.431   7.657  0.3812 -0.0414  0.1544
  921MOL0     C24249   9.874  10.418   7.635 -0.4372 -0.2062 -0.0722
  921MOL0     N24250   9.215  10.400   7.836  0.7547  0.0927 -0.5260
  921MOL0     N24251   9.100  10.343   7.853  0.4842  0.1144 -0.0636
  921MOL0     C24252   7.830  10.506   8.094 -0.2323  0.9716  0.1110
  921MOL0     C24253   7.718  10.553   8.166 -0.0906 -0.6966  0.1530
  921MOL0     C24254   7.272  10.587   8.213 -0.7262 -0.1166  1.0133
  921MOL0     C24255   7.263  10.679   8.319 -0.0057  0.7734  0.3617
  921MOL0     C24256   7.138  10.713   8.373 -0.4707  0.1346  0.2936
  921MOL0     C24257   7.027  10.643   8.325  0.0016  0.4151 -0.5672
  921MOL0     O24258   6.899  10.655   8.375  0.5523 -0.0570 -0.0528
  921MOL0     C24259   6.872  10.703   8.510 -0.3296 -0.3266  0.1808
  921MOL0     C24260   6.781  10.825   8.484 -0.1997  0.2043 -0.9269
  921MOL0     C24261   6.646  10.769   8.451 -0.9916  0.4341 -0.1662
  921MOL0     C24262   6.549  10.884   8.420 -0.2465  0.1126  0.4595
  921MOL0     C24263   6.541  10.970   8.534 -0.7747  0.4797  1.1992
  921MOL0     C24264   6.541  11.061   8.614  0.1403  0.7252 -0.3787
  921MOL0     C24265   7.034  10.557   8.220 -0.0993  0.1888 -0.2263
  921MOL0     C24266   7.161  10.539   8.153 -0.5874 -0.2586  1.0266
  921MOL0     C24267   7.164  10.452   8.028 -0.0998  0.2828  0.2863
  921MOL0     H24268   7.591  10.253   8.251 -1.3667 -0.2465 -1.2761
  921MOL0     H24269   7.781  10.173   8.137 -2.9800 -0.3585 -1.5046
  921MOL0     H24270   8.017  10.469   7.881  0.9119 -0.4580 -2.1125
  921MOL0     H24271   8.085  10.481   8.045 -1.1459 -0.7803  0.2411
  921MOL0     H24272   8.145  10.275   7.830 -0.8260  2.0537 -0.3135
  921MOL0     H24273   8.194  10.249   8.001 -1.1937 -0.1164  0.6070
  921MOL0     H24274   8.334  10.445   8.001  0.3592 -1.2748  1.4544
  921MOL0     H24275   8.285  10.493   7.838 -1.5390  0.5532  1.0715
  921MOL0     H24276   8.406  10.218   7.892 -1.1236  1.2355  1.8307
  921MOL0     H24277   8.368  10.283   7.741 -0.3700 -0.2307 -1.1513
  921MOL0     H24278   8.531  10.464   7.779 -3.7673 -0.0628  0.9787
  921MOL0     H24279   8.586  10.412   7.938  2.9237 -0.3024 -1.3360
  921MOL0     H24280   8.652  10.188   7.824  2.2309  0.4925  0.3330
  921MOL0     H24281   8.634  10.278   7.668  1.2385 -1.1884  0.1415
  921MOL0     H24282   8.815  10.356   7.897 -4.4822 -0.4117  2.1325
  921MOL0     H24283   8.783  10.456   7.758  0.3223  0.3077  3.0143
  921MOL0     H24284   8.892  10.171   7.752 -2.9469  0.7376 -0.8581
  921MOL0     H24285   8.873  10.277   7.613 -3.0078  2.8500  1.2032
  921MOL0     H24286   9.074  10.407   7.542 -1.4160 -0.0136  0.4183
  921MOL0     H24287   9.297  10.594   7.605 -1.8525  0.9208  3.4458
  921MOL0     H24288   9.425  10.516   7.688  1.3299 -0.1215 -1.2709
  921MOL0     H24289   9.459  10.340   7.556  1.1134  0.6822 -0.7838
  921MOL0     H24290   9.312  10.348   7.459 -0.7374 -2.9240  2.7081
  921MOL0     H24291   9.388  10.574   7.388  0.5595  1.4288 -0.1128
  921MOL0     H24292   9.472  10.436   7.320 -1.4164 -0.9447 -0.6080
  921MOL0     H24293   9.559  10.631   7.540  0.4395 -3.1698  2.6250
  921MOL0     H24294   9.636  10.613   7.382  1.2547 -0.2069  0.0398
  921MOL0     H24295   9.828  10.619   7.364 -1.0437  1.9583  1.1482
  921MOL0     H24296  10.069  10.651   7.397  1.3573  1.8601  1.5753
  921MOL0     H24297  10.484  10.428   7.547  0.7707  0.2435 -0.3992
  921MOL0     H24298  10.725  10.428   7.609 -0.5805  0.8448 -0.6630
  921MOL0     H24299  10.846  10.657   7.940  1.5789  0.5447  2.5565
  921MOL0     H24300  10.832  10.515   8.045 -0.7392 -1.5896 -0.8447
  921MOL0     H24301  11.046  10.442   7.993 -2.8076  0.0416  0.4170
  921MOL0     H24302  11.062  10.560   7.858  0.4556  1.6724  0.1456
  921MOL0     H24303  11.205  10.642   8.035  0.2499  3.4555  1.2503
  921MOL0     H24304  11.076  10.744   7.975  1.5794  0.3549 -0.7187
  921MOL0     H24305  11.111  10.591   8.234  0.1928  1.1936  0.5348
  921MOL0     H24306  10.944  10.641   8.183 -0.3554  0.4491 -2.3115
  921MOL0     H24307  11.068  10.778   8.358  0.0328 -0.5234 -0.0260
  921MOL0     H24308  10.996  10.871   8.223  0.0162 -0.7421  1.0938
  921MOL0     H24309  11.224  10.899   8.115 -1.2961  2.0894  0.3709
  921MOL0     H24310  11.213  10.956   8.277 -0.2122 -0.2074 -0.7963
  921MOL0     H24311  11.349  10.696   8.180  2.0185  0.1294 -0.2256
  921MOL0     H24312  11.299  10.736   8.348 -1.6758  0.9974 -0.2500
  921MOL0     H24313  11.545  10.790   8.267 -1.5575 -2.4473 -0.0739
  921MOL0     H24314  11.470  10.898   8.158 -1.4299  0.5501  0.2305
  921MOL0     H24315  10.614  10.538   8.014 -0.7884  1.5628  0.2487
  921MOL0     H24316  10.386  10.562   7.945  1.9545  2.0211  0.7139
  921MOL0     H24317  10.054  10.378   7.740  0.5612  0.2092  0.2212
  921MOL0     H24318   9.816  10.355   7.702 -1.9233  1.3184  0.1532
  921MOL0     H24319   7.891  10.586   8.053 -0.8239  0.8373 -1.0678
  921MOL0     H24320   7.699  10.659   8.172  0.2421 -0.6366  0.1571
  921MOL0     H24321   7.356  10.724   8.352  0.9322 -1.0065  0.3166
  921MOL0     H24322   7.146  10.796   8.443  0.6565 -0.1193  0.4876
  921MOL0     H24323   6.957  10.733   8.571  0.3716 -1.6738 -0.0922
  921MOL0     H24324   6.820  10.620   8.559 -0.0074 -2.0636 -2.2257
  921MOL0     H24325   6.841  10.882   8.412  0.8558  2.0118  1.2640
  921MOL0     H24326   6.781  10.885   8.575  1.6703 -0.9533 -0.0962
  921MOL0     H24327   6.600  10.716   8.535  0.2207  0.0090  0.2490
  921MOL0     H24328   6.654  10.706   8.362  2.4793  1.0052 -0.4180
  921MOL0     H24329   6.579  10.932   8.327 -0.8063 -1.9498 -0.8804
  921MOL0     H24330   6.445  10.849   8.413 -0.0770 -0.2244 -0.5873
  921MOL0     H24331   6.558  11.136   8.689 -0.3463 -2.9045  3.7976
  921MOL0     H24332   6.940  10.514   8.186  0.1450 -0.3418 -0.2433
  921MOL0     H24333   7.072  10.393   8.024  0.6811 -1.1605  2.2480
  921MOL0     H24334   7.174  10.507   7.934  1.6478  0.7238  0.7057
  921MOL0     H24335   7.256  10.392   8.032  0.0004  0.4961  1.3763
  922MOL0     O24336   9.975   0.218  10.106 -0.0379  0.7502 -0.1204
  922MOL0     C24337   9.941   0.261  10.001  0.2591  0.2220  0.0893
  922MOL0     O24338  10.026   0.315   9.906  0.7588  0.7914 -0.2616
  922MOL0     C24339  10.159   0.349   9.947  0.0034  0.3190 -0.4418
  922MOL0     C24340  10.260   0.351   9.854 -0.0850  0.7726  0.0624
  922MOL0     C24341  10.387   0.398   9.889  0.1522 -0.2515 -0.0070
  922MOL0     C24342  10.412   0.437  10.024 -0.6639  0.2962 -0.3502
  922MOL0     O24343  10.527   0.500  10.062  0.3334 -0.3759  0.7058
  922MOL0     C24344  10.649   0.454  10.006 -0.4925 -0.7484  0.0357
  922MOL0     C24345  10.718   0.573   9.922  0.4260 -0.3458 -0.0877
  922MOL0     C24346  10.815   0.515   9.821  0.2656  0.2024 -0.2962
  922MOL0     C24347  10.867   0.626   9.722 -0.0904 -0.1631 -0.8044
  922MOL0     C24348  10.986   0.569   9.638 -0.1241 -0.1773 -0.3410
  922MOL0     C24349  11.028   0.670   9.534  0.2485  0.1794  0.5088
  922MOL0     C24350  11.138   0.610   9.433 -0.0939 -0.6146 -0.7268
  922MOL0     C24351  11.120   0.648   9.293  0.0793  0.0311 -0.2787
  922MOL0     N24352  11.226   0.582   9.212  0.7072  0.0108  0.1985
  922MOL0     C24353  11.350   0.643   9.175 -0.6480 -0.1205  0.6050
  922MOL0     C24354  11.399   0.561   9.083 -1.1878  0.4178  0.0855
  922MOL0     C24355  11.527   0.595   9.004 -0.3830 -0.1115  0.0094
  922MOL0     C24356  11.659   0.557   9.080 -0.3615 -0.1606  1.0937
  922MOL0     C24357  11.658   0.403   9.108  0.6326  0.4035 -0.2846
  922MOL0     C24358  11.765   0.368   9.209 -0.2267  0.1150  0.5584
  922MOL0     O24359  11.887   0.355   9.137 -0.8319  0.1576  0.0775
  922MOL0     C24360  12.000   0.311   9.193 -0.1540  0.4241  0.6331
  922MOL0     C24361  12.016   0.294   9.327  0.0294 -0.2988 -1.3614
  922MOL0     C24362  12.142   0.263   9.382 -0.3412  0.2783  0.6385
  922MOL0     C24363  12.251   0.236   9.305 -0.1758  0.0726  0.3709
  922MOL0     C24364  12.387   0.209   9.357 -0.2066  0.5886 -0.2000
  922MOL0     O24365  12.474   0.172   9.268 -0.2152 -0.0437 -0.1098
  922MOL0     C24366  12.607   0.149   9.309 -0.0692 -0.1143 -0.3919
  922MOL0     C24367  12.668   0.234   9.400 -0.3831 -0.0053 -0.1109
  922MOL0     C24368  12.792   0.195   9.456  0.7508  0.3056  1.5401
  922MOL0     C24369  12.861   0.087   9.411  0.3928 -0.3576 -0.0106
  922MOL0     O24370  12.989   0.070   9.454  0.4606  0.1153  0.3098
  922MOL0     C24371  13.066  -0.036   9.400  0.0275  0.0897  0.1152
  922MOL0     C24372  13.206  -0.041   9.467  0.3247 -0.9897 -0.4648
  922MOL0     C24373  13.295  -0.143   9.394  0.5720 -0.1416 -0.0105
  922MOL0     C24374  13.397  -0.189   9.505 -0.2504  0.8095 -1.1405
  922MOL0     C24375  13.484  -0.299   9.460 -0.6178  0.5652  0.5593
  922MOL0     C24376  13.579  -0.362   9.563  0.0015 -0.3808  0.1434
  922MOL0     C24377  13.723  -0.329   9.527  0.4630 -0.1117 -0.0852
  922MOL0     C24378  13.820  -0.362   9.634  0.2074 -0.4249  0.4649
  922MOL0    Cl24379  13.987  -0.326   9.601 -0.3229  0.0586 -0.4666
  922MOL0     C24380  12.799   0.002   9.321  0.7865  0.3619 -0.0050
  922MOL0     C24381  12.674   0.039   9.258  0.1353  0.2957  0.0347
  922MOL0     O24382  12.401   0.228   9.478 -0.3757 -0.3926  0.3800
  922MOL0     C24383  12.238   0.247   9.161  0.9909 -0.3722  0.2380
  922MOL0     C24384  12.106   0.271   9.111  0.3480 -0.3910 -0.1299
  922MOL0     N24385  11.316   0.455   9.071 -0.5021  0.0501  0.6771
  922MOL0     N24386  11.207   0.468   9.140 -0.4688  0.1362  0.1362
  922MOL0     C24387  10.306   0.447  10.113 -0.5629  0.3982  0.3851
  922MOL0     C24388  10.178   0.403  10.078 -0.6330  0.3718  0.5163
  922MOL0     C24389   9.792   0.252   9.969  0.2872  0.0786 -1.2008
  922MOL0     C24390   9.707   0.227  10.079  0.5005 -0.1952 -0.6902
  922MOL0     C24391   9.571   0.205  10.050 -0.3859 -0.6082 -0.4894
  922MOL0     C24392   9.515   0.229   9.927 -0.0450 -0.7298 -0.7130
  922MOL0     O24393   9.381   0.212   9.912 -0.6244  0.5511 -0.5323
  922MOL0     C24394   9.306   0.230   9.788  0.5195 -0.0335 -0.3368
  922MOL0     C24395   9.258   0.372   9.769 -0.3744  0.5198  1.0735
  922MOL0     C24396   9.161   0.375   9.648  0.1311  0.3752 -0.1528
  922MOL0     C24397   9.105   0.511   9.613  0.3796 -0.2193  0.4570
  922MOL0     C24398   9.028   0.568   9.731  0.3061  0.5008  0.1671
  922MOL0     C24399   8.966   0.616   9.824  0.0066 -0.7595 -0.6299
  922MOL0     C24400   9.600   0.268   9.830  0.2940  0.1179  0.5029
  922MOL0     C24401   9.736   0.275   9.844 -0.3534  0.2657  0.0847
  922MOL0     C24402   9.818   0.299   9.719 -0.2261 -0.4030 -0.4761
  922MOL0     H24403  10.244   0.326   9.750  1.6790  0.0481 -0.0753
  922MOL0     H24404  10.473   0.401   9.822 -0.4912 -2.5874 -1.0161
  922MOL0     H24405  10.725   0.436  10.082 -0.7919  0.1074  0.5667
  922MOL0     H24406  10.629   0.363   9.950 -2.3605  0.9611 -2.3147
  922MOL0     H24407  10.762   0.645   9.991  1.0619 -0.4350 -0.3966
  922MOL0     H24408  10.638   0.616   9.861 -0.0109 -2.7096 -1.3171
  922MOL0     H24409  10.757   0.444   9.762  1.8136 -1.8306  0.5222
  922MOL0     H24410  10.898   0.459   9.864 -0.8886 -0.0419  1.7591
  922MOL0     H24411  10.789   0.638   9.645 -1.3727  0.6994  0.5845
  922MOL0     H24412  10.893   0.718   9.775  0.3206 -0.1570 -1.0121
  922MOL0     H24413  11.070   0.545   9.704 -0.4816 -1.2986 -0.2801
  922MOL0     H24414  10.953   0.478   9.587  1.1248  0.4727 -2.4409
  922MOL0     H24415  10.939   0.691   9.474  0.1326  0.7325  0.8673
  922MOL0     H24416  11.082   0.752   9.583  0.9702 -0.2921  0.5204
  922MOL0     H24417  11.118   0.502   9.435 -0.7108 -0.5520 -2.2880
  922MOL0     H24418  11.236   0.620   9.480 -0.7395 -0.8325  0.7448
  922MOL0     H24419  11.019   0.631   9.255  0.9433 -0.2039 -2.6225
  922MOL0     H24420  11.147   0.754   9.281  1.1721  0.1838  2.6097
  922MOL0     H24421  11.403   0.732   9.209  0.0478 -0.9044  1.6594
  922MOL0     H24422  11.516   0.529   8.918  0.0376 -2.0661  1.3989
  922MOL0     H24423  11.534   0.698   8.967  4.0465 -0.8743 -1.8875
  922MOL0     H24424  11.743   0.577   9.014 -1.0478  1.8958  0.7796
  922MOL0     H24425  11.664   0.621   9.169 -0.1437  1.4702 -0.0435
  922MOL0     H24426  11.683   0.348   9.017  2.2041  0.0165  0.3525
  922MOL0     H24427  11.562   0.377   9.154  0.8235 -0.5694 -0.4269
  922MOL0     H24428  11.739   0.281   9.270 -0.5651  0.5762  1.0750
  922MOL0     H24429  11.781   0.444   9.286  5.4149 -0.2899  0.2137
  922MOL0     H24430  11.938   0.306   9.402  0.9514 -3.5423  0.2750
  922MOL0     H24431  12.159   0.264   9.489 -1.1921  0.2138  0.7821
  922MOL0     H24432  12.633   0.333   9.427 -1.4049 -1.0227  2.5334
  922MOL0     H24433  12.844   0.245   9.537 -0.2138 -0.8639  2.9315
  922MOL0     H24434  13.009  -0.126   9.423 -0.8175  0.4175 -0.6447
  922MOL0     H24435  13.075  -0.020   9.292  2.1351  0.7598  0.3363
  922MOL0     H24436  13.239   0.063   9.461 -1.2184 -0.2590  2.1285
  922MOL0     H24437  13.183  -0.048   9.573  0.8626  0.5297 -0.2124
  922MOL0     H24438  13.237  -0.229   9.358  3.0248 -1.7541 -0.3198
  922MOL0     H24439  13.346  -0.110   9.303 -0.5620 -1.4180 -1.1673
  922MOL0     H24440  13.341  -0.210   9.597  0.6614  3.4058  0.1163
  922MOL0     H24441  13.459  -0.103   9.533  0.3042  0.6797 -1.9176
  922MOL0     H24442  13.532  -0.249   9.376 -2.3111  0.5430 -0.4803
  922MOL0     H24443  13.423  -0.381   9.419  2.3152 -2.6357  2.0447
  922MOL0     H24444  13.560  -0.317   9.661 -0.5056 -0.9078  0.2944
  922MOL0     H24445  13.562  -0.470   9.573  0.9351 -0.3832  2.3429
  922MOL0     H24446  13.741  -0.222   9.536  0.2463  0.0769 -1.7431
  922MOL0     H24447  13.757  -0.377   9.435 -0.0140 -3.9424  1.5091
  922MOL0     H24448  13.785  -0.309   9.723  0.1731 -0.5111  0.5025
  922MOL0     H24449  13.813  -0.471   9.648  1.9012 -0.3986  1.8212
  922MOL0     H24450  12.856  -0.077   9.274  0.1946 -2.2370  3.2521
  922MOL0     H24451  12.640  -0.020   9.174  0.7301 -2.7404  1.7607
  922MOL0     H24452  12.308   0.230   9.080 -0.1379 -0.8809 -0.6530
  922MOL0     H24453  12.092   0.282   9.004 -3.8700  0.7416  0.3640
  922MOL0     H24454  10.327   0.500  10.206 -1.1934  0.0337  0.7482
  922MOL0     H24455  10.095   0.417  10.146 -0.0907 -0.1418  1.3013
  922MOL0     H24456   9.748   0.213  10.178 -0.9551  2.9456  0.4784
  922MOL0     H24457   9.495   0.179  10.123 -2.2876 -0.5426 -2.3285
  922MOL0     H24458   9.220   0.165   9.801  0.1699  0.2662 -1.0910
  922MOL0     H24459   9.364   0.205   9.699  2.7379  0.5031  0.8725
  922MOL0     H24460   9.337   0.440   9.737 -0.2229 -0.9561 -2.0189
  922MOL0     H24461   9.212   0.403   9.863  0.1462  1.7578  0.9380
  922MOL0     H24462   9.084   0.307   9.685  0.6642  0.9089  2.1037
  922MOL0     H24463   9.212   0.339   9.558  2.6302 -0.0934  1.3459
  922MOL0     H24464   9.196   0.567   9.586  1.2544 -1.7436  0.1540
  922MOL0     H24465   9.039   0.508   9.526  0.4945 -1.3761  0.3979
  922MOL0     H24466   8.904   0.657   9.900  2.3354  3.4784 -0.7389
  922MOL0     H24467   9.565   0.279   9.728 -0.5277 -1.6609  0.5505
  922MOL0     H24468   9.766   0.271   9.627 -1.0688  1.9305 -0.7914
  922MOL0     H24469   9.826   0.408   9.713 -0.1178  0.0221  3.7873
  922MOL0     H24470   9.916   0.250   9.716 -0.9958 -2.1657  1.0511
  923MOL0     O24471   8.483   2.715  10.018  0.3227  0.9119  0.2793
  923MOL0     C24472   8.457   2.594  10.018  0.6541 -0.3193  0.1904
  923MOL0     O24473   8.543   2.492  10.027  0.0606 -0.4442 -0.6715
  923MOL0     C24474   8.672   2.530  10.005  0.6758 -0.0836 -0.5358
  923MOL0     C24475   8.745   2.568  10.118  0.1714 -0.2492 -0.5576
  923MOL0     C24476   8.882   2.614  10.107  0.0473 -0.2320 -0.7680
  923MOL0     C24477   8.941   2.618   9.979 -0.3414  0.3576  0.3474
  923MOL0     O24478   9.071   2.654   9.947  0.1972 -0.4114 -0.5564
  923MOL0     C24479   9.136   2.746  10.044 -1.2220 -0.2466 -0.1814
  923MOL0     C24480   9.249   2.832   9.985  0.0922  0.2593 -0.1861
  923MOL0     C24481   9.367   2.740   9.941 -0.2342 -0.1326  0.2318
  923MOL0     C24482   9.491   2.746  10.047  0.2897  0.2467  0.1874
  923MOL0     C24483   9.606   2.649  10.012  0.5745 -0.5775  0.5508
  923MOL0     C24484   9.699   2.649  10.135  0.7720 -0.9905  0.1095
  923MOL0     C24485   9.803   2.537  10.113  0.3383  0.4119  0.3455
  923MOL0     C24486   9.947   2.589  10.137  0.0644  0.3098 -0.7727
  923MOL0     N24487  10.046   2.482  10.132  0.9426  0.0156  0.1977
  923MOL0     C24488  10.150   2.469  10.040 -0.0160 -0.0032 -0.1667
  923MOL0     C24489  10.201   2.344  10.056 -0.1783  0.1787 -0.6519
  923MOL0     C24490  10.331   2.288   9.993  0.0981 -0.6688 -0.3205
  923MOL0     C24491  10.422   2.393   9.919  0.0515 -0.0443 -0.9132
  923MOL0     C24492  10.498   2.471  10.027 -0.9920 -0.6081 -0.3312
  923MOL0     C24493  10.594   2.575   9.970  1.2014  0.7268  0.5937
  923MOL0     O24494  10.690   2.497   9.886  0.6347 -0.1484  0.2730
  923MOL0     C24495  10.799   2.563   9.841 -0.4296 -0.2259 -0.3979
  923MOL0     C24496  10.903   2.637   9.910  1.4607 -0.4526  0.9472
  923MOL0     C24497  11.010   2.690   9.850  0.1839  0.0307  1.3752
  923MOL0     C24498  11.031   2.666   9.716 -0.5163  0.0246 -0.2281
  923MOL0     C24499  11.161   2.723   9.659  0.7234 -0.0671 -0.0399
  923MOL0     O24500  11.193   2.669   9.542  0.1389  0.9210  0.5854
  923MOL0     C24501  11.305   2.723   9.491  0.8557  0.1389 -0.6114
  923MOL0     C24502  11.399   2.637   9.433 -0.3892 -0.3257  0.0929
  923MOL0     C24503  11.516   2.678   9.366  1.4844 -0.5950 -0.9379
  923MOL0     C24504  11.535   2.820   9.352  0.1305  0.8853  0.4786
  923MOL0     O24505  11.648   2.880   9.301  0.2710  0.2233 -0.4414
  923MOL0     C24506  11.744   2.805   9.228  0.6897  0.4338 -0.6857
  923MOL0     C24507  11.852   2.895   9.176 -0.3792 -0.4929  0.0718
  923MOL0     C24508  11.958   2.814   9.095 -0.2679  0.6652  0.2870
  923MOL0     C24509  12.035   2.895   8.986 -0.1128  0.0427  0.2270
  923MOL0     C24510  12.112   2.810   8.884 -0.4085  0.6907  0.5152
  923MOL0     C24511  12.183   2.898   8.779 -0.0834  0.0190  0.2594
  923MOL0     C24512  12.246   2.807   8.665 -0.2326 -0.9890 -0.4955
  923MOL0     C24513  12.307   2.907   8.558 -0.0310  0.1118  0.5517
  923MOL0    Cl24514  12.199   3.007   8.468 -0.2153 -0.0096  0.0964
  923MOL0     C24515  11.434   2.903   9.391 -0.1439  0.1804  0.0482
  923MOL0     C24516  11.322   2.855   9.464  0.5338 -0.0088  0.4952
  923MOL0     O24517  11.214   2.818   9.713  0.1696 -0.7565  0.1241
  923MOL0     C24518  10.930   2.602   9.645  0.0127  0.6464  0.0846
  923MOL0     C24519  10.809   2.556   9.705 -0.6651 -0.0882 -0.6762
  923MOL0     N24520  10.130   2.281  10.159 -0.5682  0.3719  0.7423
  923MOL0     N24521  10.041   2.366  10.205 -0.2760  0.4978  0.7843
  923MOL0     C24522   8.867   2.583   9.868 -0.2158 -0.3070 -0.8404
  923MOL0     C24523   8.734   2.555   9.884 -1.2130  0.1474  0.8206
  923MOL0     C24524   8.318   2.558  10.008  0.3691  0.1185  0.1824
  923MOL0     C24525   8.286   2.462   9.915 -0.5724 -0.5738  0.2919
  923MOL0     C24526   8.155   2.422   9.899  0.7531 -0.0201  0.4508
  923MOL0     C24527   8.050   2.475   9.976  0.6009 -0.9223 -0.0877
  923MOL0     O24528   7.921   2.428   9.950  0.3236 -0.4103 -0.3000
  923MOL0     C24529   7.859   2.505   9.842 -0.0857  0.5950  0.3391
  923MOL0     C24530   7.721   2.452   9.807 -0.0358 -0.9476  0.2400
  923MOL0     C24531   7.614   2.519   9.893  0.4268  0.2615  0.9929
  923MOL0     C24532   7.484   2.439   9.877 -0.6269 -0.0973  0.5329
  923MOL0     C24533   7.373   2.511   9.927 -0.3317  0.2139  0.3897
  923MOL0     C24534   7.281   2.580   9.956 -0.0293 -0.1917  0.0278
  923MOL0     C24535   8.079   2.579  10.066 -0.6011  0.3617  0.3671
  923MOL0     C24536   8.214   2.610  10.098 -0.0660  0.9956  0.4565
  923MOL0     C24537   8.253   2.693  10.221 -0.0726  0.5207  0.3817
  923MOL0     H24538   8.697   2.563  10.215 -0.3177 -2.2031 -0.8542
  923MOL0     H24539   8.937   2.633  10.199  1.7447  0.7088 -1.9391
  923MOL0     H24540   9.059   2.811  10.088 -0.0648  2.0010 -1.3312
  923MOL0     H24541   9.168   2.682  10.126 -0.0287  0.0988 -0.3657
  923MOL0     H24542   9.289   2.902  10.059  0.6924  0.3785 -0.6110
  923MOL0     H24543   9.207   2.893   9.905  0.4197 -0.2638 -0.7681
  923MOL0     H24544   9.412   2.777   9.849 -1.4272 -3.6164 -1.9183
  923MOL0     H24545   9.335   2.638   9.918  1.0277 -0.4817 -0.0534
  923MOL0     H24546   9.525   2.850  10.044 -3.3828  1.6172  0.6831
  923MOL0     H24547   9.457   2.721  10.148 -1.6530 -3.6631 -1.2387
  923MOL0     H24548   9.562   2.550   9.997  0.3981 -0.1641 -2.2707
  923MOL0     H24549   9.663   2.668   9.921 -1.3649 -0.0751 -0.6216
  923MOL0     H24550   9.750   2.744  10.152  0.3131 -0.8137  0.4925
  923MOL0     H24551   9.649   2.619  10.227 -0.7455 -0.4032 -0.4999
  923MOL0     H24552   9.791   2.502  10.011 -1.7161  0.3279  0.5752
  923MOL0     H24553   9.793   2.450  10.179 -0.5121  0.9422  0.9346
  923MOL0     H24554   9.973   2.664  10.061 -1.2471  0.0532 -1.4929
  923MOL0     H24555   9.967   2.641  10.231  2.5217 -0.6336 -0.6848
  923MOL0     H24556  10.177   2.554   9.978  0.9264  0.6461  1.0740
  923MOL0     H24557  10.383   2.237  10.075 -2.7235  0.5811  2.4434
  923MOL0     H24558  10.305   2.207   9.923 -0.6453 -0.7987  0.0938
  923MOL0     H24559  10.482   2.342   9.843  0.7922  0.1766 -0.4843
  923MOL0     H24560  10.364   2.467   9.863  0.8092  1.5052  0.3026
  923MOL0     H24561  10.561   2.401  10.083  1.8328  0.6895 -1.6839
  923MOL0     H24562  10.432   2.525  10.096 -0.3832  1.3900 -1.2332
  923MOL0     H24563  10.646   2.636  10.043  1.5490  0.9297  0.1818
  923MOL0     H24564  10.534   2.643   9.908 -1.1153 -1.8617 -0.2377
  923MOL0     H24565  10.894   2.655  10.016  2.0676  2.2184  0.6058
  923MOL0     H24566  11.077   2.753   9.908  0.0472  0.9797  0.5168
  923MOL0     H24567  11.389   2.530   9.446  0.8295 -0.4508  0.1543
  923MOL0     H24568  11.584   2.600   9.335  0.5255 -0.9737 -2.1971
  923MOL0     H24569  11.791   2.731   9.293 -1.9161 -2.5548 -1.9395
  923MOL0     H24570  11.688   2.756   9.148 -1.6281 -1.0524  1.7112
  923MOL0     H24571  11.807   2.971   9.112 -0.5524 -0.7763 -0.1501
  923MOL0     H24572  11.909   2.938   9.258 -1.1037 -2.9984  2.0273
  923MOL0     H24573  12.039   2.784   9.163  1.2555  2.7971 -0.4843
  923MOL0     H24574  11.921   2.726   9.041  0.5049  0.5431 -0.0434
  923MOL0     H24575  12.106   2.959   9.039  0.5314 -1.6246  1.4908
  923MOL0     H24576  11.970   2.961   8.928  2.9936  2.7959 -0.4605
  923MOL0     H24577  12.049   2.737   8.833 -0.8375  1.2491  0.2257
  923MOL0     H24578  12.191   2.752   8.932  0.1330  1.0931  0.1328
  923MOL0     H24579  12.107   2.965   8.738  0.1422  0.0340 -0.1413
  923MOL0     H24580  12.257   2.962   8.830 -1.3334  1.1406  0.7265
  923MOL0     H24581  12.165   2.751   8.617 -0.2445  1.2058 -3.3374
  923MOL0     H24582  12.325   2.746   8.709  0.4579  2.6680  4.1306
  923MOL0     H24583  12.381   2.971   8.605 -1.2604 -0.4403  3.4861
  923MOL0     H24584  12.362   2.848   8.484 -0.4298  0.9095 -0.3956
  923MOL0     H24585  11.445   3.011   9.385 -1.0086  0.2460 -0.5354
  923MOL0     H24586  11.243   2.921   9.497 -1.8675 -2.2338 -0.3988
  923MOL0     H24587  10.941   2.585   9.538  2.8389  0.4702  0.3215
  923MOL0     H24588  10.730   2.515   9.643  0.8827  0.5092 -3.2184
  923MOL0     H24589   8.917   2.590   9.772  1.0798  2.7183 -0.0749
  923MOL0     H24590   8.681   2.531   9.792 -0.9967  0.7941  0.5271
  923MOL0     H24591   8.365   2.412   9.859 -0.1518  0.0131  0.3541
  923MOL0     H24592   8.118   2.345   9.832 -1.0373  0.2862  1.0226
  923MOL0     H24593   7.922   2.493   9.754  0.7293  1.9784  0.7001
  923MOL0     H24594   7.852   2.611   9.870 -2.8074  1.6154 -3.4997
  923MOL0     H24595   7.722   2.348   9.841 -1.5354 -0.4230  2.0595
  923MOL0     H24596   7.695   2.459   9.701 -1.9956  1.4385  0.7981
  923MOL0     H24597   7.610   2.627   9.878  1.8900  0.1217 -0.6612
  923MOL0     H24598   7.639   2.496   9.997  0.0251 -0.3715  0.9522
  923MOL0     H24599   7.481   2.417   9.770 -0.4272  0.5389  0.3970
  923MOL0     H24600   7.492   2.340   9.924  1.3950 -0.6591 -0.8540
  923MOL0     H24601   7.193   2.638   9.978  0.0536 -0.6689  1.7561
  923MOL0     H24602   7.995   2.624  10.119 -0.5476  0.7667  0.1132
  923MOL0     H24603   8.196   2.647  10.302 -2.3857 -0.6268 -1.7769
  923MOL0     H24604   8.356   2.680  10.256 -0.1276 -2.2464 -0.2595
  923MOL0     H24605   8.228   2.798  10.203  0.9585  0.6948 -0.1285
  924MOL0     O24606   2.479   8.840   8.531  0.6081 -0.2576  1.1089
  924MOL0     C24607   2.385   8.764   8.552  0.5442 -0.8812  0.1258
  924MOL0     O24608   2.389   8.646   8.640 -0.1558 -0.2407  0.3744
  924MOL0     C24609   2.512   8.625   8.708  0.0633  0.1339  0.0238
  924MOL0     C24610   2.500   8.589   8.845 -0.0163 -0.5538 -0.3049
  924MOL0     C24611   2.624   8.553   8.911 -0.0123 -0.7964  0.2184
  924MOL0     C24612   2.743   8.532   8.844  0.2060 -0.0427  0.0792
  924MOL0     O24613   2.846   8.484   8.928  0.4379 -0.3660  0.4637
  924MOL0     C24614   2.978   8.497   8.874 -0.7256  0.0052  0.9921
  924MOL0     C24615   3.077   8.520   8.988 -0.7161  0.4435 -1.2624
  924MOL0     C24616   3.217   8.476   8.955  0.3507 -0.0707 -0.1863
  924MOL0     C24617   3.301   8.493   9.084 -0.5346  0.9981 -0.2579
  924MOL0     C24618   3.449   8.470   9.052  0.4670  0.2472  0.5969
  924MOL0     C24619   3.540   8.458   9.175  0.3856  0.3024  0.3031
  924MOL0     C24620   3.686   8.478   9.146  0.0870 -0.1370 -0.6182
  924MOL0     C24621   3.766   8.433   9.269  0.2960 -0.6787  1.0527
  924MOL0     N24622   3.905   8.408   9.223  0.0528 -0.1210 -0.7587
  924MOL0     C24623   4.008   8.383   9.307 -0.0734  0.6513  0.0237
  924MOL0     C24624   4.121   8.381   9.226 -0.3364  0.4654 -0.6026
  924MOL0     C24625   4.260   8.354   9.271  0.4493  0.0542 -0.4909
  924MOL0     C24626   4.320   8.472   9.334 -0.2686 -0.5181 -0.0786
  924MOL0     C24627   4.466   8.448   9.370  0.1146 -0.1222  0.6973
  924MOL0     C24628   4.537   8.570   9.411 -0.5927 -0.2934  0.7364
  924MOL0     O24629   4.676   8.546   9.451  0.0213  0.6037 -0.4584
  924MOL0     C24630   4.766   8.649   9.470  0.8100  0.3370 -0.1485
  924MOL0     C24631   4.723   8.776   9.517 -0.6542  0.3894  0.6957
  924MOL0     C24632   4.823   8.876   9.534 -0.6843 -0.0289 -0.3784
  924MOL0     C24633   4.959   8.858   9.502  1.2309 -0.0688  0.1674
  924MOL0     C24634   5.055   8.965   9.513  0.5301 -1.0961  0.7514
  924MOL0     O24635   5.185   8.927   9.496  0.8531 -0.2679  0.1202
  924MOL0     C24636   5.283   9.016   9.529 -0.5748 -0.0807 -1.2127
  924MOL0     C24637   5.358   9.086   9.436  0.0626 -0.1799  1.1726
  924MOL0     C24638   5.457   9.181   9.481  0.1519  0.6423 -0.1150
  924MOL0     C24639   5.495   9.195   9.614 -0.1869 -1.1254 -0.0690
  924MOL0     O24640   5.594   9.287   9.639 -0.1020  0.1162  0.5368
  924MOL0     C24641   5.637   9.303   9.770  0.2890  0.0191  0.0392
  924MOL0     C24642   5.741   9.408   9.780  0.3394  0.2988 -0.0052
  924MOL0     C24643   5.697   9.546   9.734  0.1743  0.2102 -0.4140
  924MOL0     C24644   5.649   9.563   9.588  0.3553  0.0388 -0.0766
  924MOL0     C24645   5.663   9.700   9.530  0.1247  0.5704  0.5976
  924MOL0     C24646   5.580   9.804   9.600  0.2818  0.8255 -0.2579
  924MOL0     C24647   5.426   9.774   9.605  0.0136 -0.2814  0.3653
  924MOL0     C24648   5.366   9.891   9.680 -0.5750 -0.0086  0.5790
  924MOL0    Cl24649   5.369  10.034   9.579  0.1534  0.0243 -0.0885
  924MOL0     C24650   5.427   9.110   9.702 -0.7849  0.2002  0.1802
  924MOL0     C24651   5.319   9.030   9.670 -0.4593  0.6536  0.3746
  924MOL0     O24652   5.023   9.084   9.538  1.1634  0.1428 -0.5062
  924MOL0     C24653   4.993   8.730   9.451  0.0199  0.3161  0.4879
  924MOL0     C24654   4.898   8.623   9.442 -1.0662 -1.0152  0.4347
  924MOL0     N24655   4.089   8.398   9.099 -0.0483  0.1703  0.2733
  924MOL0     N24656   3.958   8.407   9.093  1.2542 -0.4292 -0.1447
  924MOL0     C24657   2.748   8.557   8.709 -0.1114  0.3152 -0.0147
  924MOL0     C24658   2.637   8.606   8.642 -0.3696  0.7234 -1.4231
  924MOL0     C24659   2.256   8.803   8.492  0.6231 -0.5928 -0.0382
  924MOL0     C24660   2.146   8.711   8.511 -0.3744 -0.4915  0.4105
  924MOL0     C24661   2.020   8.735   8.456  0.4128 -0.4258 -0.0474
  924MOL0     C24662   1.997   8.852   8.380 -0.7460 -0.1002  0.4779
  924MOL0     O24663   1.884   8.871   8.313  0.2882 -0.2873 -0.0958
  924MOL0     C24664   1.863   8.982   8.221 -0.0724  0.1524  0.5479
  924MOL0     C24665   1.946   8.977   8.092  0.2092 -0.5667  0.2422
  924MOL0     C24666   1.893   9.072   7.991 -0.2061 -0.2027  0.1426
  924MOL0     C24667   1.927   9.216   8.026  0.0223  0.0498 -0.3202
  924MOL0     C24668   2.041   9.258   7.943 -0.2264 -0.6287 -0.0769
  924MOL0     C24669   2.137   9.324   7.896  0.6514 -0.2034  0.0027
  924MOL0     C24670   2.094   8.944   8.375 -0.3562  0.3684 -0.5050
  924MOL0     C24671   2.232   8.927   8.423  0.4902 -0.6753 -0.4505
  924MOL0     C24672   2.318   9.039   8.381  0.4444  0.2594  0.0050
  924MOL0     H24673   2.407   8.610   8.897 -0.7688  1.4820 -2.3129
  924MOL0     H24674   2.617   8.520   9.014 -3.1171 -0.9161  0.0652
  924MOL0     H24675   3.014   8.403   8.833  0.6329  0.5768  0.8160
  924MOL0     H24676   2.984   8.572   8.794 -0.4706 -2.2861 -1.2342
  924MOL0     H24677   3.042   8.469   9.078 -0.2713 -0.0917 -1.3952
  924MOL0     H24678   3.069   8.627   9.012 -2.1413 -0.1016  1.0401
  924MOL0     H24679   3.255   8.524   8.864 -1.1292  2.1450  0.2762
  924MOL0     H24680   3.218   8.370   8.928  0.5474  0.1889 -1.2545
  924MOL0     H24681   3.285   8.590   9.132  0.4734  0.9582  0.1804
  924MOL0     H24682   3.269   8.414   9.153  0.8451 -0.7015 -1.4509
  924MOL0     H24683   3.479   8.393   8.981 -3.2565 -0.2022 -0.7073
  924MOL0     H24684   3.471   8.564   9.001  0.1567  1.3006  2.3179
  924MOL0     H24685   3.509   8.527   9.254 -0.2626  0.7870 -0.3646
  924MOL0     H24686   3.546   8.355   9.212  3.8094  1.8124  4.8279
  924MOL0     H24687   3.708   8.580   9.114  1.3413 -0.5410 -1.0804
  924MOL0     H24688   3.708   8.414   9.061  0.0532  0.2225 -0.8985
  924MOL0     H24689   3.771   8.513   9.343  2.2728 -0.2505  0.5057
  924MOL0     H24690   3.720   8.350   9.324 -3.8578  2.3958  2.7574
  924MOL0     H24691   4.005   8.390   9.415 -0.5528 -0.6473  0.1211
  924MOL0     H24692   4.250   8.286   9.356  0.4644  2.6669  1.7256
  924MOL0     H24693   4.324   8.314   9.191 -0.4677 -0.2971 -1.0753
  924MOL0     H24694   4.310   8.553   9.261 -0.8519 -1.2535 -0.8423
  924MOL0     H24695   4.267   8.483   9.429  2.8912  0.0804  1.7237
  924MOL0     H24696   4.510   8.409   9.278 -0.9478 -1.5864  0.7709
  924MOL0     H24697   4.469   8.383   9.458 -2.0131  0.7797  1.4975
  924MOL0     H24698   4.483   8.613   9.497  0.5557  1.2332  0.7359
  924MOL0     H24699   4.540   8.647   9.334  2.1397  0.8443  1.8698
  924MOL0     H24700   4.625   8.797   9.559 -1.2530  0.4456 -0.6730
  924MOL0     H24701   4.786   8.967   9.581  1.6381 -1.4048  4.7295
  924MOL0     H24702   5.328   9.082   9.332  1.9716  1.2085  0.5207
  924MOL0     H24703   5.499   9.249   9.408  0.3532  2.6941  1.7859
  924MOL0     H24704   5.556   9.337   9.836  0.7976  3.3609 -0.9167
  924MOL0     H24705   5.667   9.214   9.827 -0.2258  0.3425  0.8346
  924MOL0     H24706   5.764   9.420   9.887  0.8621 -0.6667  0.0041
  924MOL0     H24707   5.833   9.379   9.728 -0.1110  0.3205 -0.8092
  924MOL0     H24708   5.626   9.587   9.806 -2.3734 -2.8640 -0.9595
  924MOL0     H24709   5.789   9.605   9.746  1.4451 -1.6238 -0.6794
  924MOL0     H24710   5.546   9.533   9.567 -0.5181  2.7930 -0.1534
  924MOL0     H24711   5.704   9.490   9.528  1.0755  1.6256 -1.4266
  924MOL0     H24712   5.626   9.702   9.427 -1.1906  0.0456  1.0497
  924MOL0     H24713   5.770   9.725   9.531  0.1257  0.5529  1.0728
  924MOL0     H24714   5.618   9.813   9.702 -1.6097  2.2603  0.3853
  924MOL0     H24715   5.590   9.898   9.544 -1.7951  1.0897 -0.2712
  924MOL0     H24716   5.416   9.675   9.651  1.9791 -1.5905 -1.8383
  924MOL0     H24717   5.398   9.770   9.499 -2.5024  3.6411  0.6652
  924MOL0     H24718   5.260   9.875   9.702 -0.7192 -0.9130 -0.6846
  924MOL0     H24719   5.416   9.907   9.776 -0.7561  4.8835  0.0957
  924MOL0     H24720   5.473   9.119   9.800  2.6793  4.7738 -1.4907
  924MOL0     H24721   5.279   8.966   9.749  4.0122 -1.5513  1.2016
  924MOL0     H24722   5.099   8.719   9.429 -0.3850  1.7676 -2.7487
  924MOL0     H24723   4.927   8.525   9.404  4.7597 -0.5219  2.6489
  924MOL0     H24724   2.838   8.549   8.649  0.2232 -2.2025  0.6962
  924MOL0     H24725   2.651   8.633   8.538  3.0245 -2.5024 -2.0238
  924MOL0     H24726   2.162   8.617   8.563 -1.3123 -1.1146 -0.3961
  924MOL0     H24727   1.946   8.656   8.467  1.5933 -1.5539 -0.0586
  924MOL0     H24728   1.875   9.078   8.272  1.1655 -0.2512  1.0671
  924MOL0     H24729   1.761   8.977   8.183  0.4977  0.1710 -1.0654
  924MOL0     H24730   1.942   8.874   8.055 -1.6256 -0.9125  1.2695
  924MOL0     H24731   2.053   8.993   8.108  0.2863 -1.4960  0.7827
  924MOL0     H24732   1.785   9.061   7.999 -0.5509 -0.3211 -3.0415
  924MOL0     H24733   1.923   9.038   7.891 -0.5921 -2.6371  0.8046
  924MOL0     H24734   1.841   9.280   8.002  0.2653  1.0499  1.2756
  924MOL0     H24735   1.947   9.236   8.132  4.2065  2.4223 -1.3340
  924MOL0     H24736   2.228   9.372   7.868  1.0093  0.3104  1.9535
  924MOL0     H24737   2.070   9.028   8.310 -0.1102 -0.6440 -1.9407
  924MOL0     H24738   2.381   9.068   8.466 -1.2619  4.1648  0.1289
  924MOL0     H24739   2.371   9.002   8.293 -1.1894 -1.2572 -0.3880
  924MOL0     H24740   2.265   9.132   8.358 -0.7262  0.2900  2.4442
  925MOL0     O24741   0.614   0.020   3.996  0.1469  0.2807  0.1915
  925MOL0     C24742   0.527   0.070   4.068  0.5650 -0.0255 -0.2933
  925MOL0     O24743   0.529   0.066   4.208 -0.8941 -0.3066  0.2074
  925MOL0     C24744   0.628  -0.005   4.275 -0.8217 -0.3010  0.2190
  925MOL0     C24745   0.593  -0.106   4.362 -0.1701 -0.1331 -0.2128
  925MOL0     C24746   0.688  -0.167   4.443  0.0507  1.1664 -0.9409
  925MOL0     C24747   0.817  -0.133   4.443  0.1246  0.3943 -0.8355
  925MOL0     O24748   0.896  -0.214   4.515 -0.5412  0.1211  0.6115
  925MOL0     C24749   1.032  -0.165   4.529 -0.2914  0.7505  0.2273
  925MOL0     C24750   1.121  -0.263   4.611  0.9671  0.2338  0.1981
  925MOL0     C24751   1.257  -0.205   4.650  0.4466 -0.7714  0.9582
  925MOL0     C24752   1.341  -0.317   4.712  0.0156 -0.1822  0.1900
  925MOL0     C24753   1.438  -0.256   4.810 -0.2860 -0.9707 -0.1890
  925MOL0     C24754   1.551  -0.166   4.759 -0.6255  0.7483 -0.1716
  925MOL0     C24755   1.631  -0.114   4.876  0.6202 -0.5664 -1.7172
  925MOL0     C24756   1.748  -0.035   4.820  0.2213  0.3276  0.2119
  925MOL0     N24757   1.834   0.041   4.914 -0.4306  0.1138  0.5172
  925MOL0     C24758   1.899  -0.012   5.021  1.0767  0.7458 -0.1152
  925MOL0     C24759   1.952   0.090   5.085  1.0362  0.0743  0.3047
  925MOL0     C24760   2.035   0.079   5.206 -0.4327 -0.3072  0.3619
  925MOL0     C24761   2.161  -0.013   5.172  0.7863 -1.0798 -0.4229
  925MOL0     C24762   2.256   0.062   5.086  0.8701  0.4562  0.0853
  925MOL0     C24763   2.350  -0.018   5.004 -0.6317 -0.1611 -0.1736
  925MOL0     O24764   2.440  -0.079   5.091  0.1625  0.3955 -0.5985
  925MOL0     C24765   2.543  -0.156   5.056 -0.4469  0.0159 -0.0759
  925MOL0     C24766   2.565  -0.198   4.929 -0.0356 -0.6073 -0.3460
  925MOL0     C24767   2.675  -0.268   4.897 -0.3296  0.0057 -0.2572
  925MOL0     C24768   2.776  -0.301   4.996  0.0815  0.8359 -0.3846
  925MOL0     C24769   2.901  -0.372   4.960 -0.7333 -0.2849 -0.3166
  925MOL0     O24770   2.938  -0.365   4.829 -0.4155 -0.0354 -0.8864
  925MOL0     C24771   3.055  -0.421   4.777 -0.2335  0.2784 -0.2380
  925MOL0     C24772   3.179  -0.374   4.813 -0.2678  0.3311  0.2440
  925MOL0     C24773   3.294  -0.443   4.759  0.6394  0.5125 -0.4226
  925MOL0     C24774   3.290  -0.558   4.678 -0.3030  0.3899  0.4823
  925MOL0     O24775   3.396  -0.632   4.632 -0.5203  0.1549 -0.2361
  925MOL0     C24776   3.517  -0.641   4.714 -0.0485  1.1098  0.2265
  925MOL0     C24777   3.627  -0.735   4.655 -0.8371 -0.2226 -0.1796
  925MOL0     C24778   3.764  -0.715   4.734 -0.9444  0.1618 -0.0313
  925MOL0     C24779   3.865  -0.831   4.727 -0.8991 -0.1706 -0.0924
  925MOL0     C24780   4.000  -0.808   4.795  0.5223 -1.0505  0.1630
  925MOL0     C24781   4.053  -0.671   4.756  0.3940  0.3945 -0.3017
  925MOL0     C24782   4.209  -0.665   4.783  0.1547  0.6980 -1.3522
  925MOL0     C24783   4.268  -0.523   4.795  0.3988  0.3833 -0.1147
  925MOL0    Cl24784   4.291  -0.431   4.642  0.0001 -0.1980 -0.6616
  925MOL0     C24785   3.164  -0.599   4.642 -0.0285  0.4789 -0.2516
  925MOL0     C24786   3.052  -0.527   4.691  0.3609  0.2990 -0.4129
  925MOL0     O24787   2.950  -0.451   5.041 -0.3829  0.1002  0.5457
  925MOL0     C24788   2.749  -0.256   5.132 -0.6243 -0.1490 -0.1025
  925MOL0     C24789   2.629  -0.183   5.157  0.3299  0.1182 -0.6491
  925MOL0     N24790   1.925   0.204   5.013  0.5999 -0.1598  0.0069
  925MOL0     N24791   1.839   0.173   4.918  0.0259 -0.1362  0.2962
  925MOL0     C24792   0.851  -0.025   4.359  0.2292 -0.1933 -0.1337
  925MOL0     C24793   0.762   0.034   4.273 -0.4487 -0.5866  0.1536
  925MOL0     C24794   0.397   0.129   4.013  0.2054  0.1990 -0.3188
  925MOL0     C24795   0.290   0.148   4.112 -0.3579 -1.2265  0.6796
  925MOL0     C24796   0.169   0.205   4.068  0.4690  1.2376 -0.2263
  925MOL0     C24797   0.135   0.230   3.931 -0.1912  0.1375  0.2968
  925MOL0     O24798   0.020   0.285   3.882 -0.1950  0.2873 -0.0568
  925MOL0     C24799  -0.099   0.275   3.953  0.2422  0.2449 -0.5385
  925MOL0     C24800  -0.194   0.351   3.860  0.4706  0.1208 -0.3802
  925MOL0     C24801  -0.328   0.390   3.917  0.7016 -0.3966  0.5554
  925MOL0     C24802  -0.416   0.445   3.802 -0.3556  1.0596 -0.0604
  925MOL0     C24803  -0.438   0.339   3.699  0.2025  0.3753  0.3069
  925MOL0     C24804  -0.443   0.245   3.613 -0.0425 -1.3730  0.4159
  925MOL0     C24805   0.240   0.199   3.843 -0.1088 -1.0535  0.6989
  925MOL0     C24806   0.367   0.153   3.882  0.5288  0.3140  0.2721
  925MOL0     C24807   0.469   0.141   3.772 -0.3441 -0.4475  0.0824
  925MOL0     H24808   0.494  -0.149   4.367 -0.2889  0.0971 -0.5560
  925MOL0     H24809   0.657  -0.250   4.507  0.5679  1.4612 -0.2948
  925MOL0     H24810   1.075  -0.166   4.429 -1.8341  1.0178 -0.4752
  925MOL0     H24811   1.022  -0.063   4.565  1.0568  1.0624 -0.2508
  925MOL0     H24812   1.146  -0.359   4.565  0.7765 -1.5115  3.4690
  925MOL0     H24813   1.073  -0.277   4.708 -0.4477  3.0145  0.0116
  925MOL0     H24814   1.246  -0.114   4.709 -1.3355 -0.3570  0.0753
  925MOL0     H24815   1.303  -0.173   4.556  0.1531 -0.7511  0.8196
  925MOL0     H24816   1.280  -0.392   4.763  0.9482 -2.3521 -1.6963
  925MOL0     H24817   1.393  -0.373   4.634 -3.0911 -3.1022 -0.0117
  925MOL0     H24818   1.380  -0.192   4.877  1.7130  0.0995  0.6123
  925MOL0     H24819   1.485  -0.337   4.867  0.7189 -0.6821 -0.5771
  925MOL0     H24820   1.622  -0.227   4.702  3.6075  2.3340  2.8562
  925MOL0     H24821   1.509  -0.086   4.698  0.2560  1.7822  0.5449
  925MOL0     H24822   1.665  -0.196   4.940 -2.8975 -0.6169  0.3379
  925MOL0     H24823   1.567  -0.043   4.929  3.4237  0.7455  0.2120
  925MOL0     H24824   1.811  -0.109   4.768 -1.0454 -1.9611  1.7636
  925MOL0     H24825   1.713   0.036   4.744  0.7957  0.7776  0.3600
  925MOL0     H24826   1.904  -0.114   5.059  0.3791  0.9597  0.5632
  925MOL0     H24827   2.058   0.178   5.247 -1.1549  0.1917 -0.4102
  925MOL0     H24828   1.966   0.028   5.274 -0.6355  0.0961  0.4568
  925MOL0     H24829   2.203  -0.043   5.268 -1.8793  1.3261  1.7141
  925MOL0     H24830   2.130  -0.105   5.122 -0.9390  1.1823 -3.9728
  925MOL0     H24831   2.314   0.127   5.154  1.2553  0.2797 -0.0741
  925MOL0     H24832   2.206   0.131   5.018 -0.3534 -1.9388 -1.5770
  925MOL0     H24833   2.398   0.052   4.935 -0.1701 -0.2838  0.0182
  925MOL0     H24834   2.286  -0.085   4.946  1.5430 -2.0034 -0.6022
  925MOL0     H24835   2.498  -0.171   4.848  0.1577  2.8747  0.5214
  925MOL0     H24836   2.696  -0.292   4.793 -0.6651  0.3942 -0.4169
  925MOL0     H24837   3.185  -0.288   4.880 -0.3672 -0.1187  0.8405
  925MOL0     H24838   3.388  -0.405   4.799  1.3600 -0.9126 -0.7259
  925MOL0     H24839   3.549  -0.537   4.727  1.9933  0.9285 -2.4041
  925MOL0     H24840   3.499  -0.688   4.811 -1.8317  0.0206 -0.5679
  925MOL0     H24841   3.595  -0.839   4.663 -0.4950 -0.3022  0.1883
  925MOL0     H24842   3.642  -0.708   4.550 -0.4337  1.5437  0.2861
  925MOL0     H24843   3.801  -0.625   4.685 -0.6217 -0.3533 -0.7499
  925MOL0     H24844   3.738  -0.694   4.838 -1.5371 -1.6366  0.2065
  925MOL0     H24845   3.897  -0.841   4.623  1.6910 -1.7686  0.7641
  925MOL0     H24846   3.825  -0.927   4.761  3.8507 -2.6117 -0.6287
  925MOL0     H24847   4.057  -0.894   4.760  0.7115 -1.3724  1.2170
  925MOL0     H24848   3.983  -0.824   4.902 -0.2527  0.5063  0.2897
  925MOL0     H24849   4.039  -0.652   4.650 -1.1049  1.6243  0.0773
  925MOL0     H24850   4.001  -0.593   4.812  0.8115  1.3117 -1.1609
  925MOL0     H24851   4.266  -0.725   4.712  0.8771 -0.3442  0.0501
  925MOL0     H24852   4.235  -0.707   4.881  1.3602  1.0704 -1.4950
  925MOL0     H24853   4.201  -0.462   4.856 -0.3241 -0.3650 -0.1382
  925MOL0     H24854   4.363  -0.526   4.850  0.6730  0.3613 -0.5858
  925MOL0     H24855   3.147  -0.692   4.589  0.0102 -1.4307  2.8636
  925MOL0     H24856   2.954  -0.569   4.673 -0.4685  2.7461 -2.0305
  925MOL0     H24857   2.823  -0.281   5.207  2.5300  0.0201 -2.9095
  925MOL0     H24858   2.600  -0.143   5.254  3.2003 -1.7096  1.0999
  925MOL0     H24859   0.956   0.003   4.352  0.6678 -2.1153 -3.2794
  925MOL0     H24860   0.787   0.108   4.197  1.8898  0.0205  1.4263
  925MOL0     H24861   0.310   0.116   4.214  2.3948 -0.4326  0.4702
  925MOL0     H24862   0.094   0.220   4.145  0.8264 -2.9818  1.1917
  925MOL0     H24863  -0.100   0.327   4.049  0.2126 -0.8918  0.0972
  925MOL0     H24864  -0.136   0.173   3.967 -0.2621  0.5595  0.6279
  925MOL0     H24865  -0.203   0.281   3.777 -0.9206 -1.7027  1.2336
  925MOL0     H24866  -0.143   0.444   3.834 -2.4510  2.2252  0.7840
  925MOL0     H24867  -0.311   0.475   3.984  3.2013  0.5446 -1.1182
  925MOL0     H24868  -0.382   0.312   3.971  2.5199 -1.4045  1.0186
  925MOL0     H24869  -0.511   0.473   3.850 -0.5495 -1.7554  1.4595
  925MOL0     H24870  -0.370   0.536   3.763 -0.1696  1.5395  1.2329
  925MOL0     H24871  -0.440   0.171   3.536 -2.0072 -1.1993  0.1177
  925MOL0     H24872   0.216   0.220   3.739 -0.4082  1.8153  1.2518
  925MOL0     H24873   0.547   0.216   3.787 -1.5132  0.5923  1.1637
  925MOL0     H24874   0.515   0.041   3.773 -1.3345 -0.9098  1.0775
  925MOL0     H24875   0.425   0.145   3.672 -1.7639 -0.0963  0.7018
  926MOL0     O24876  11.255   5.593   6.081 -0.7875 -0.9723 -0.0890
  926MOL0     C24877  11.191   5.586   5.982  0.2312  0.4231  0.1656
  926MOL0     O24878  11.241   5.526   5.875 -0.3867 -0.0395  0.5091
  926MOL0     C24879  11.378   5.507   5.874 -0.1438  0.2980 -1.1600
  926MOL0     C24880  11.432   5.383   5.907  0.3355  0.0146  0.5352
  926MOL0     C24881  11.568   5.351   5.886 -0.5732  0.0421 -0.0599
  926MOL0     C24882  11.647   5.447   5.832  0.2481 -0.9219 -0.3376
  926MOL0     O24883  11.778   5.441   5.811 -0.5518  0.3425  0.4180
  926MOL0     C24884  11.841   5.311   5.799  0.4873 -0.2162 -0.0764
  926MOL0     C24885  11.983   5.346   5.785  0.6403 -0.1281  0.2813
  926MOL0     C24886  12.069   5.225   5.730  0.8332  0.2683  0.3972
  926MOL0     C24887  12.213   5.242   5.771 -0.1784 -0.4232  0.3226
  926MOL0     C24888  12.302   5.129   5.734 -0.1217 -0.6963  0.3396
  926MOL0     C24889  12.450   5.170   5.748 -0.1051  0.3656 -0.3531
  926MOL0     C24890  12.540   5.051   5.717  0.1214  0.4864 -0.0663
  926MOL0     C24891  12.686   5.085   5.723 -0.1136 -0.4050 -0.5648
  926MOL0     N24892  12.731   5.124   5.589  0.3412  0.0516  0.0830
  926MOL0     C24893  12.735   5.259   5.549  0.2255 -0.6007  0.4587
  926MOL0     C24894  12.794   5.249   5.430 -1.0930  0.4843 -0.5694
  926MOL0     C24895  12.839   5.369   5.347  0.3551 -0.0979  0.3210
  926MOL0     C24896  12.940   5.331   5.239 -0.2588 -0.0282 -0.2785
  926MOL0     C24897  13.078   5.313   5.305 -0.8638  1.0463  0.0723
  926MOL0     C24898  13.192   5.339   5.206 -0.1300 -0.1266  0.1719
  926MOL0     O24899  13.174   5.242   5.100 -0.4484 -0.0629 -0.2009
  926MOL0     C24900  13.275   5.154   5.096  0.7561 -0.3916 -0.6700
  926MOL0     C24901  13.393   5.201   5.041  0.2716 -0.2042  0.1888
  926MOL0     C24902  13.509   5.125   5.052 -0.3714  0.3857  0.9863
  926MOL0     C24903  13.500   4.996   5.115 -0.9734 -0.9600 -0.3890
  926MOL0     C24904  13.619   4.911   5.122 -0.0096  0.4149  0.2989
  926MOL0     O24905  13.742   4.975   5.141 -0.2270  0.4862 -0.4624
  926MOL0     C24906  13.858   4.908   5.134 -0.0950  0.0855  0.7649
  926MOL0     C24907  13.947   4.945   5.233 -0.1306  0.0107 -0.3244
  926MOL0     C24908  14.071   4.885   5.236  0.0331  0.1082 -0.1045
  926MOL0     C24909  14.117   4.803   5.126  0.0397  0.6427  0.1129
  926MOL0     O24910  14.237   4.728   5.132  0.1773  0.5082 -0.4106
  926MOL0     C24911  14.347   4.788   5.064  0.2377 -0.2832 -0.0417
  926MOL0     C24912  14.354   4.741   4.920  0.2299 -0.4876  0.5111
  926MOL0     C24913  14.494   4.699   4.885 -0.2216 -0.0813  0.6695
  926MOL0     C24914  14.537   4.562   4.942  0.2856  0.6804 -0.8503
  926MOL0     C24915  14.675   4.516   4.888 -0.3535  0.7931  1.0255
  926MOL0     C24916  14.785   4.628   4.901  0.1112 -0.6791  0.1620
  926MOL0     C24917  14.930   4.577   4.872  0.0786 -0.0242 -0.1237
  926MOL0     C24918  15.027   4.674   4.947  0.1131 -0.8132 -0.0346
  926MOL0    Cl24919  15.187   4.592   4.967  0.1565 -0.2434 -0.5474
  926MOL0     C24920  14.031   4.777   5.020  0.6262  0.1996  0.4630
  926MOL0     C24921  13.898   4.823   5.026 -0.6198  0.4797  0.0499
  926MOL0     O24922  13.609   4.790   5.109 -0.2462  0.4553 -0.3797
  926MOL0     C24923  13.380   4.948   5.165  0.2471 -0.5403  0.5841
  926MOL0     C24924  13.264   5.029   5.152 -0.7974 -0.2173  0.8221
  926MOL0     N24925  12.806   5.115   5.396 -0.3777 -0.1771  0.0789
  926MOL0     N24926  12.761   5.040   5.486  1.0020  0.4615 -0.0406
  926MOL0     C24927  11.596   5.577   5.803  0.2937 -0.3541  1.0279
  926MOL0     C24928  11.462   5.607   5.819  0.1232 -0.2478 -0.6307
  926MOL0     C24929  11.052   5.636   5.986 -0.1346  0.1452 -0.2953
  926MOL0     C24930  10.993   5.679   6.114  0.7077 -0.0521 -0.1173
  926MOL0     C24931  10.861   5.725   6.119  0.3686 -0.4741  0.7238
  926MOL0     C24932  10.781   5.737   6.006  0.1048 -0.0411 -0.2249
  926MOL0     O24933  10.651   5.772   6.010  0.2008 -0.4029  0.0226
  926MOL0     C24934  10.571   5.799   6.127  0.7106  0.3006  0.6086
  926MOL0     C24935  10.424   5.805   6.090  0.2218 -0.3595  0.8397
  926MOL0     C24936  10.314   5.811   6.193 -0.3380 -0.4808  1.1539
  926MOL0     C24937  10.341   5.922   6.292 -0.1655  0.8396 -0.4086
  926MOL0     C24938  10.215   5.949   6.366  0.0415 -0.7563  0.2811
  926MOL0     C24939  10.123   5.969   6.442 -0.1581  0.7178 -0.3105
  926MOL0     C24940  10.835   5.704   5.887  0.9688 -0.1350  0.1973
  926MOL0     C24941  10.968   5.673   5.875 -0.1823  0.5545  0.3844
  926MOL0     C24942  11.019   5.638   5.733  0.5824  0.0041 -0.3985
  926MOL0     H24943  11.373   5.311   5.962  0.4823 -1.0137 -0.6206
  926MOL0     H24944  11.599   5.253   5.921  1.3878 -0.1775 -2.1220
  926MOL0     H24945  11.830   5.246   5.886  0.6885 -0.9860 -0.6124
  926MOL0     H24946  11.809   5.253   5.712 -0.3981 -0.9073  0.6939
  926MOL0     H24947  12.009   5.392   5.880 -3.0430 -1.5278  2.1613
  926MOL0     H24948  11.999   5.419   5.705  1.1503 -0.7750 -0.2290
  926MOL0     H24949  12.058   5.224   5.621 -0.5315  2.6425  0.4479
  926MOL0     H24950  12.027   5.138   5.780 -1.6638  1.9566  1.4165
  926MOL0     H24951  12.243   5.332   5.716 -2.0266 -2.6059 -4.8000
  926MOL0     H24952  12.217   5.277   5.875 -0.6887  2.9515 -0.6494
  926MOL0     H24953  12.276   5.038   5.788 -2.5960 -0.1880  0.1202
  926MOL0     H24954  12.291   5.108   5.627  3.7581  1.8827 -0.8331
  926MOL0     H24955  12.473   5.258   5.687  0.2736  1.3771  1.1638
  926MOL0     H24956  12.472   5.201   5.851 -0.3057 -0.9417  0.1041
  926MOL0     H24957  12.510   5.000   5.625 -0.2491 -1.1849  0.9306
  926MOL0     H24958  12.519   4.985   5.802 -0.3673  1.2517  0.4213
  926MOL0     H24959  12.705   5.160   5.801  0.3038  0.2630 -1.2916
  926MOL0     H24960  12.749   5.001   5.752  0.0216 -0.3454 -0.6854
  926MOL0     H24961  12.716   5.347   5.610 -1.2884 -0.2455 -0.4645
  926MOL0     H24962  12.743   5.394   5.300  1.0045 -0.4460 -1.2656
  926MOL0     H24963  12.865   5.451   5.414 -1.7151  0.6950  0.2208
  926MOL0     H24964  12.905   5.246   5.180 -0.2890  1.9777 -3.3477
  926MOL0     H24965  12.949   5.416   5.171 -2.7397  0.3875 -0.1969
  926MOL0     H24966  13.095   5.213   5.345  1.6927  1.8210  1.1163
  926MOL0     H24967  13.094   5.383   5.387  3.7195 -1.2734  1.4962
  926MOL0     H24968  13.281   5.330   5.268 -2.5086 -0.2035  3.9171
  926MOL0     H24969  13.173   5.439   5.166  2.0920  0.2963  0.0686
  926MOL0     H24970  13.391   5.302   5.002 -2.0377 -0.8650 -1.6621
  926MOL0     H24971  13.605   5.164   5.021 -1.4679  2.5165  0.1321
  926MOL0     H24972  13.911   5.009   5.313 -2.8298 -2.1571  0.3364
  926MOL0     H24973  14.135   4.914   5.319 -0.3769  1.6125 -0.2899
  926MOL0     H24974  14.346   4.897   5.064  4.4735 -0.0626  0.8996
  926MOL0     H24975  14.440   4.770   5.118 -0.8325  0.7652  2.2800
  926MOL0     H24976  14.276   4.667   4.900  1.4433 -1.1229 -2.2675
  926MOL0     H24977  14.320   4.827   4.862 -1.9626 -2.1995 -0.8909
  926MOL0     H24978  14.492   4.691   4.776 -1.8990  0.0681  0.6537
  926MOL0     H24979  14.560   4.780   4.915  1.0955 -0.0201 -2.1101
  926MOL0     H24980  14.463   4.483   4.928 -1.8861  2.6247 -0.9130
  926MOL0     H24981  14.546   4.584   5.049  1.9678  0.5155 -0.9265
  926MOL0     H24982  14.664   4.500   4.781  0.2221  1.3731  0.8749
  926MOL0     H24983  14.716   4.430   4.942 -1.7923 -0.6546 -0.0850
  926MOL0     H24984  14.768   4.708   4.828  1.1568 -0.3163  0.3051
  926MOL0     H24985  14.783   4.661   5.006  0.4563 -1.6901  0.5000
  926MOL0     H24986  14.949   4.585   4.764 -1.7532 -0.2001 -0.4855
  926MOL0     H24987  14.945   4.480   4.920 -3.0486  0.7674  2.7763
  926MOL0     H24988  15.035   4.770   4.895  0.8132 -0.7072  0.2631
  926MOL0     H24989  14.975   4.697   5.041 -0.4235 -0.2177 -0.4654
  926MOL0     H24990  14.061   4.710   4.940 -2.3647 -2.1826  1.1112
  926MOL0     H24991  13.821   4.793   4.955 -0.0324 -0.8997 -0.0406
  926MOL0     H24992  13.377   4.855   5.222  2.7293 -1.2222 -0.2837
  926MOL0     H24993  13.167   4.995   5.185 -0.5768 -1.0710  0.6304
  926MOL0     H24994  11.655   5.662   5.770  0.0311  0.9554  3.7112
  926MOL0     H24995  11.423   5.704   5.788 -0.0942 -0.4861 -1.1213
  926MOL0     H24996  11.059   5.686   6.199  1.5349  2.7864 -0.8969
  926MOL0     H24997  10.818   5.744   6.217  1.3955 -1.5285  1.4107
  926MOL0     H24998  10.583   5.898   6.171  0.1342  0.0215  1.4245
  926MOL0     H24999  10.585   5.720   6.202 -1.4039  0.4909  1.2701
  926MOL0     H25000  10.414   5.711   6.035  3.6328 -0.2915 -0.1611
  926MOL0     H25001  10.407   5.899   6.037 -2.0322  0.0870  2.2224
  926MOL0     H25002  10.300   5.715   6.244  0.0168 -0.0507  2.0810
  926MOL0     H25003  10.222   5.843   6.143 -0.4540 -0.0345  1.6521
  926MOL0     H25004  10.426   5.899   6.356 -0.2780 -1.2284 -0.9532
  926MOL0     H25005  10.368   6.013   6.236 -2.0000  1.6979  0.0184
  926MOL0     H25006  10.049   5.992   6.515 -0.4813 -3.2287  0.8600
  926MOL0     H25007  10.773   5.727   5.801 -0.3225 -0.0548  1.1164
  926MOL0     H25008  10.957   5.680   5.653 -0.4259  1.3787  1.0396
  926MOL0     H25009  11.116   5.687   5.722  0.5710  1.3792  3.8313
  926MOL0     H25010  11.024   5.529   5.729  0.2720 -0.2541  3.1204
  927MOL0     O25011   3.373   1.531   7.745  0.1662 -0.3417  0.6260
  927MOL0     C25012   3.373   1.475   7.855 -0.1675 -0.6741  0.6988
  927MOL0     O25013   3.480   1.420   7.917  0.3132 -0.0637 -0.6070
  927MOL0     C25014   3.604   1.444   7.862 -0.9196  0.1285 -0.0894
  927MOL0     C25015   3.689   1.330   7.834  0.0981  0.5433  1.4018
  927MOL0     C25016   3.801   1.342   7.754  0.6037  0.2637 -0.4987
  927MOL0     C25017   3.849   1.471   7.726 -0.0034 -0.0638  0.2255
  927MOL0     O25018   3.957   1.502   7.647 -0.1288 -0.2190 -0.8502
  927MOL0     C25019   4.073   1.550   7.716  0.3234  0.2645 -0.8660
  927MOL0     C25020   4.199   1.539   7.630 -0.2154  0.0180 -0.3546
  927MOL0     C25021   4.312   1.612   7.705  0.6219 -0.3049 -0.4217
  927MOL0     C25022   4.447   1.573   7.651 -0.1806 -0.1441  0.2311
  927MOL0     C25023   4.484   1.673   7.540  0.7957 -0.3264  0.0788
  927MOL0     C25024   4.630   1.676   7.533  0.0401 -0.3517 -0.0509
  927MOL0     C25025   4.674   1.763   7.405  0.0469 -0.3304 -0.3003
  927MOL0     C25026   4.829   1.794   7.396 -0.2399  0.3354  0.4785
  927MOL0     N25027   4.898   1.672   7.365  0.2957  0.1157  0.0883
  927MOL0     C25028   4.947   1.590   7.458 -0.3727 -0.8989 -0.0522
  927MOL0     C25029   4.993   1.488   7.388 -0.3172  0.0895  0.4253
  927MOL0     C25030   5.054   1.371   7.443  0.1357 -0.0062  0.0928
  927MOL0     C25031   4.958   1.254   7.473  0.9902 -1.2226 -0.9793
  927MOL0     C25032   4.833   1.305   7.556 -0.0264  0.9194  0.0368
  927MOL0     C25033   4.766   1.176   7.625 -0.4113 -0.1800 -0.8426
  927MOL0     O25034   4.735   1.216   7.771  0.2058  0.4607  0.3335
  927MOL0     C25035   4.602   1.194   7.817 -0.3050 -0.7165 -0.4624
  927MOL0     C25036   4.494   1.220   7.737 -0.4309 -0.6418  0.2302
  927MOL0     C25037   4.363   1.204   7.781 -1.0286  0.2790  0.0967
  927MOL0     C25038   4.331   1.178   7.915 -0.4532 -0.7628 -0.5131
  927MOL0     C25039   4.195   1.177   7.959  0.9479  0.5699 -0.2520
  927MOL0     O25040   4.170   1.165   8.093  0.5157  0.0110  0.2625
  927MOL0     C25041   4.047   1.166   8.160 -0.7830 -0.3125  0.6203
  927MOL0     C25042   3.921   1.188   8.104 -0.0358  1.1412 -0.6254
  927MOL0     C25043   3.808   1.212   8.189  0.2095  0.4729 -0.3274
  927MOL0     C25044   3.809   1.190   8.328 -0.8202  0.2903  0.7427
  927MOL0     O25045   3.694   1.197   8.403 -0.0368  0.1504 -0.0950
  927MOL0     C25046   3.628   1.068   8.392  0.1107 -0.0898  0.2433
  927MOL0     C25047   3.518   1.073   8.491 -0.4749 -0.2003 -0.5640
  927MOL0     C25048   3.409   1.187   8.470 -0.0351 -0.2824 -0.4502
  927MOL0     C25049   3.326   1.195   8.597  0.8239 -0.6608 -0.0254
  927MOL0     C25050   3.204   1.283   8.577 -0.0634  0.0294 -0.1275
  927MOL0     C25051   3.243   1.429   8.543 -0.3138  0.6447  0.5512
  927MOL0     C25052   3.134   1.524   8.596 -0.1627  0.1619  0.4234
  927MOL0     C25053   3.178   1.673   8.592 -0.2659  0.4600  0.3036
  927MOL0    Cl25054   3.220   1.740   8.426  0.4054  0.1311 -0.4140
  927MOL0     C25055   3.935   1.163   8.384 -0.4809  0.3382 -0.3630
  927MOL0     C25056   4.051   1.154   8.306  0.2047  0.0693  0.4045
  927MOL0     O25057   4.122   1.208   7.874 -0.5835  0.2585  0.0272
  927MOL0     C25058   4.441   1.160   7.998 -0.3401 -0.4612 -0.7913
  927MOL0     C25059   4.580   1.174   7.954 -0.3386  0.6192 -0.3363
  927MOL0     N25060   4.975   1.504   7.252  0.0491 -0.3590  0.1103
  927MOL0     N25061   4.917   1.618   7.241  0.1412  0.2378  0.4222
  927MOL0     C25062   3.774   1.582   7.759  0.7032  0.5946  0.0408
  927MOL0     C25063   3.653   1.572   7.832 -0.5702  0.6933  0.0761
  927MOL0     C25064   3.242   1.455   7.928  0.0551 -0.6436  0.5811
  927MOL0     C25065   3.125   1.445   7.847  0.5899 -0.3670 -0.2630
  927MOL0     C25066   3.003   1.438   7.915 -0.6063  0.1986 -0.2405
  927MOL0     C25067   2.992   1.417   8.054 -0.1157 -0.3357 -0.0716
  927MOL0     O25068   2.876   1.378   8.115 -0.2991 -0.2625 -0.1907
  927MOL0     C25069   2.757   1.347   8.036  0.1173 -0.4209  0.5213
  927MOL0     C25070   2.633   1.310   8.117  0.4954 -0.4996 -0.0464
  927MOL0     C25071   2.672   1.199   8.218  0.7238 -0.2129 -0.2427
  927MOL0     C25072   2.706   1.252   8.357  0.8455  0.2352 -0.4454
  927MOL0     C25073   2.733   1.136   8.447 -0.4748 -0.2840 -0.3273
  927MOL0     C25074   2.753   1.053   8.532 -0.3438 -0.4958  0.2475
  927MOL0     C25075   3.118   1.422   8.130 -0.0500  0.0195 -0.0242
  927MOL0     C25076   3.236   1.460   8.066 -0.6328 -0.2695 -0.5686
  927MOL0     C25077   3.349   1.488   8.165  0.9084  0.2829 -1.0063
  927MOL0     H25078   3.652   1.234   7.868 -0.2749 -0.2985 -1.1607
  927MOL0     H25079   3.855   1.252   7.725  1.3057 -0.5909  3.0306
  927MOL0     H25080   4.055   1.655   7.739  1.7781 -0.2505  3.5706
  927MOL0     H25081   4.086   1.495   7.809  0.6363 -1.4696 -1.8828
  927MOL0     H25082   4.182   1.592   7.536 -1.3558 -1.1910 -0.8493
  927MOL0     H25083   4.235   1.437   7.615  1.8810  0.5968  0.3169
  927MOL0     H25084   4.315   1.562   7.802  0.6871  0.7754  0.1437
  927MOL0     H25085   4.295   1.720   7.714  0.1637 -0.3305 -0.9057
  927MOL0     H25086   4.517   1.587   7.734 -1.4495 -1.7374  1.6651
  927MOL0     H25087   4.445   1.467   7.626 -0.3202 -0.3975  1.2694
  927MOL0     H25088   4.443   1.639   7.445  0.6910  0.6590 -0.2398
  927MOL0     H25089   4.440   1.771   7.563  0.0190 -0.5864 -0.2821
  927MOL0     H25090   4.679   1.720   7.620  0.1230  0.3691 -0.4494
  927MOL0     H25091   4.665   1.575   7.511  0.8828  0.1928 -1.3814
  927MOL0     H25092   4.627   1.861   7.411 -0.5823 -0.6479 -0.0001
  927MOL0     H25093   4.640   1.724   7.309  2.3711 -0.1065 -1.2965
  927MOL0     H25094   4.855   1.879   7.332  0.0295 -1.3175 -1.7276
  927MOL0     H25095   4.869   1.823   7.493 -1.4939  3.3134  0.2118
  927MOL0     H25096   4.947   1.606   7.565 -1.5021  0.2708 -0.2003
  927MOL0     H25097   5.122   1.337   7.364 -1.0443  0.1670 -1.0496
  927MOL0     H25098   5.112   1.408   7.527  0.5914  1.1646 -0.7095
  927MOL0     H25099   4.924   1.199   7.385 -1.9760 -2.0122  0.5211
  927MOL0     H25100   5.005   1.175   7.532 -1.1201 -0.7725  1.4866
  927MOL0     H25101   4.761   1.357   7.491 -1.0413  2.6980  2.4350
  927MOL0     H25102   4.859   1.362   7.646 -0.3563  0.8188  0.1981
  927MOL0     H25103   4.826   1.085   7.632  0.0320  0.2096  1.6274
  927MOL0     H25104   4.675   1.152   7.570 -2.1521  0.5391  1.5221
  927MOL0     H25105   4.514   1.257   7.637  1.4807 -1.0796  0.4062
  927MOL0     H25106   4.280   1.223   7.714  0.8207  1.4141 -1.9979
  927MOL0     H25107   3.904   1.176   7.998  1.7611 -1.2272 -0.7344
  927MOL0     H25108   3.710   1.219   8.143 -0.5017  0.4052  1.1112
  927MOL0     H25109   3.578   1.054   8.296 -0.5442 -2.0787  0.8198
  927MOL0     H25110   3.699   0.985   8.401  1.5134  0.6765 -2.5287
  927MOL0     H25111   3.467   0.977   8.500  0.6923 -0.7627  0.4100
  927MOL0     H25112   3.565   1.071   8.590 -0.5762 -3.1272 -0.5070
  927MOL0     H25113   3.458   1.279   8.438 -0.1631  0.9602  2.6284
  927MOL0     H25114   3.345   1.143   8.392 -0.3242 -2.0612  0.7427
  927MOL0     H25115   3.383   1.243   8.678 -1.7479 -0.6168  1.9026
  927MOL0     H25116   3.297   1.091   8.616 -2.1313 -0.2312 -1.6249
  927MOL0     H25117   3.134   1.292   8.661 -0.8223  0.9384 -0.8425
  927MOL0     H25118   3.160   1.248   8.483 -0.7139  1.6586 -0.4541
  927MOL0     H25119   3.346   1.442   8.575  0.0695 -1.8991  0.5024
  927MOL0     H25120   3.245   1.440   8.434 -1.9717  0.4245  0.4695
  927MOL0     H25121   3.112   1.501   8.701  0.3386 -0.7401  0.3446
  927MOL0     H25122   3.049   1.514   8.529  0.2247  0.7611 -0.1665
  927MOL0     H25123   3.114   1.744   8.646  1.1016 -0.1920  2.9572
  927MOL0     H25124   3.270   1.683   8.651  0.6292 -0.3239 -0.9110
  927MOL0     H25125   3.944   1.147   8.491  0.4030  1.8215 -0.1790
  927MOL0     H25126   4.146   1.135   8.355 -0.3864 -3.2114  0.5426
  927MOL0     H25127   4.422   1.134   8.101 -4.5106  0.9230 -1.0000
  927MOL0     H25128   4.668   1.154   8.015 -1.0777 -2.1749 -0.0265
  927MOL0     H25129   3.795   1.680   7.718  0.0061 -0.8484 -4.3175
  927MOL0     H25130   3.588   1.651   7.868  0.1732  0.6282  1.6841
  927MOL0     H25131   3.135   1.449   7.739 -0.0987 -0.0675 -0.3233
  927MOL0     H25132   2.916   1.444   7.849  0.0771  0.6095 -1.1263
  927MOL0     H25133   2.788   1.258   7.981  1.0071  0.7271 -0.9016
  927MOL0     H25134   2.731   1.419   7.958 -1.2689 -1.0303  0.3838
  927MOL0     H25135   2.551   1.279   8.052 -1.2030  1.2406  1.1419
  927MOL0     H25136   2.602   1.400   8.172  0.7610  2.1517 -3.8635
  927MOL0     H25137   2.751   1.132   8.181  1.0277  0.1049 -0.1717
  927MOL0     H25138   2.584   1.136   8.225  0.6669 -0.1479 -0.3626
  927MOL0     H25139   2.797   1.313   8.354  0.9176  0.1120 -0.7385
  927MOL0     H25140   2.625   1.312   8.399  0.1747  2.1650 -4.0462
  927MOL0     H25141   2.753   0.977   8.607 -0.5086  1.6757  2.5657
  927MOL0     H25142   3.108   1.402   8.236 -0.2946 -1.2115 -0.2614
  927MOL0     H25143   3.428   1.544   8.114  2.8251  0.3168  1.7912
  927MOL0     H25144   3.308   1.553   8.242  3.5231 -0.0559  0.8001
  927MOL0     H25145   3.378   1.392   8.209 -1.7868  1.0266  2.9203
  928MOL0     O25146  10.619   3.413   2.623  0.1268  0.1809  0.3240
  928MOL0     C25147  10.633   3.368   2.740 -0.7989  0.1188  0.2739
  928MOL0     O25148  10.754   3.327   2.783  0.6218  0.8045 -0.5446
  928MOL0     C25149  10.853   3.295   2.706 -0.5502 -0.2575 -0.0498
  928MOL0     C25150  10.981   3.304   2.762 -0.2503  0.0993 -0.3194
  928MOL0     C25151  11.102   3.274   2.697  0.2030  0.8038  0.4511
  928MOL0     C25152  11.090   3.235   2.564 -0.0235  0.0270 -0.4779
  928MOL0     O25153  11.207   3.206   2.500 -0.2701 -0.0658 -0.8270
  928MOL0     C25154  11.218   3.165   2.367  0.0466  0.3281 -0.5062
  928MOL0     C25155  11.367   3.182   2.337  0.0676  0.6864  0.0660
  928MOL0     C25156  11.417   3.158   2.191 -0.0894  0.1463 -0.3583
  928MOL0     C25157  11.397   3.006   2.153 -0.4561 -0.5784 -0.6470
  928MOL0     C25158  11.452   2.974   2.019 -0.0223 -0.2709 -0.0633
  928MOL0     C25159  11.603   2.999   2.008  0.7458 -0.0242 -0.2910
  928MOL0     C25160  11.652   2.962   1.871 -0.4484  0.2456  0.0705
  928MOL0     C25161  11.804   2.934   1.863  0.2232 -0.2712  0.8151
  928MOL0     N25162  11.843   2.972   1.728  0.2459  0.6543  0.4460
  928MOL0     C25163  11.792   2.914   1.609 -0.0625  0.4735  0.1742
  928MOL0     C25164  11.831   2.995   1.509  0.3986  0.1940 -0.3289
  928MOL0     C25165  11.790   2.981   1.362  0.3225 -0.2201 -0.3962
  928MOL0     C25166  11.858   3.059   1.251  0.0168  0.1305 -0.2243
  928MOL0     C25167  11.869   3.207   1.276  0.4198 -0.9572  0.0544
  928MOL0     C25168  11.739   3.275   1.312 -0.1625  0.2201 -0.3761
  928MOL0     O25169  11.637   3.238   1.215  0.2114 -0.2036 -0.7558
  928MOL0     C25170  11.505   3.251   1.237 -0.2818  0.2805  0.3317
  928MOL0     C25171  11.462   3.344   1.335  0.5824  0.3224  0.3764
  928MOL0     C25172  11.328   3.343   1.361  0.6267  1.0601 -0.3917
  928MOL0     C25173  11.231   3.262   1.305 -0.3772 -0.7275  0.4832
  928MOL0     C25174  11.086   3.271   1.335 -0.6763 -1.1073  0.1818
  928MOL0     O25175  11.053   3.375   1.423  0.3296  0.3582 -0.5241
  928MOL0     C25176  10.918   3.379   1.471 -0.5250  0.1951 -0.2932
  928MOL0     C25177  10.821   3.438   1.388  0.0288  0.3321  0.6409
  928MOL0     C25178  10.692   3.433   1.423  0.0763 -1.1501  0.0463
  928MOL0     C25179  10.646   3.388   1.550  0.2405  0.3070  0.1440
  928MOL0     O25180  10.511   3.387   1.588  0.2899 -0.1013 -0.2829
  928MOL0     C25181  10.468   3.303   1.692 -0.6924 -0.2992 -0.1389
  928MOL0     C25182  10.312   3.302   1.668  0.5225 -0.4758 -0.4247
  928MOL0     C25183  10.247   3.438   1.694 -0.2456  0.0568  0.4312
  928MOL0     C25184  10.098   3.454   1.644 -0.6704 -0.0965  0.4601
  928MOL0     C25185  10.001   3.365   1.721 -0.4564 -0.5282  0.3301
  928MOL0     C25186   9.880   3.327   1.621  0.6552 -0.1732 -0.0669
  928MOL0     C25187   9.761   3.274   1.700 -0.2749 -0.9044  0.6129
  928MOL0     C25188   9.659   3.220   1.600  0.2191  0.4855 -0.3996
  928MOL0    Cl25189   9.534   3.139   1.699 -0.6791  0.0285  0.1700
  928MOL0     C25190  10.747   3.339   1.637 -0.5472 -0.1245 -0.5280
  928MOL0     C25191  10.884   3.348   1.603  0.0876  0.1720 -0.2320
  928MOL0     O25192  11.017   3.187   1.288 -0.0765  0.3527 -0.2017
  928MOL0     C25193  11.279   3.168   1.215  0.0509  0.0452 -0.4854
  928MOL0     C25194  11.416   3.154   1.185 -0.0978 -0.6445  0.1604
  928MOL0     N25195  11.907   3.102   1.567 -0.1665 -0.5806  0.4232
  928MOL0     N25196  11.900   3.088   1.695 -0.5208 -0.3140 -0.3568
  928MOL0     C25197  10.964   3.215   2.498 -0.0756  0.2327 -0.1863
  928MOL0     C25198  10.847   3.251   2.568 -0.2558  0.3568 -0.4529
  928MOL0     C25199  10.529   3.373   2.832  0.0567 -0.4110 -0.3055
  928MOL0     C25200  10.522   3.275   2.931 -0.7163 -0.3353 -0.4691
  928MOL0     C25201  10.419   3.265   3.036 -0.2063 -0.7843  0.0794
  928MOL0     C25202  10.314   3.366   3.025  0.0607 -0.4844 -0.3868
  928MOL0     O25203  10.207   3.384   3.109  0.0146  0.5396  0.0874
  928MOL0     C25204  10.176   3.300   3.224  1.0811  0.7632  0.0421
  928MOL0     C25205  10.146   3.393   3.337  0.4042 -0.6950  0.2208
  928MOL0     C25206  10.071   3.526   3.312 -0.6971 -0.4500 -0.0433
  928MOL0     C25207   9.927   3.499   3.264  0.3898 -0.3202 -1.0440
  928MOL0     C25208   9.841   3.407   3.340  0.1051  0.3910 -0.0740
  928MOL0     C25209   9.774   3.333   3.413 -0.0125 -0.1286 -0.3124
  928MOL0     C25210  10.315   3.459   2.924 -1.0132 -0.1875 -0.1930
  928MOL0     C25211  10.423   3.471   2.836  0.3143  0.7494 -0.2958
  928MOL0     C25212  10.413   3.566   2.721 -0.1429  0.5001  0.1622
  928MOL0     H25213  10.990   3.359   2.855 -0.3315  1.9402 -1.3555
  928MOL0     H25214  11.189   3.291   2.760 -0.7092 -1.6258  2.5599
  928MOL0     H25215  11.187   3.061   2.354  1.7423 -0.3953  0.8951
  928MOL0     H25216  11.163   3.235   2.303  2.1517  0.2293 -2.5380
  928MOL0     H25217  11.424   3.113   2.400 -2.2525 -1.0160  0.4314
  928MOL0     H25218  11.393   3.287   2.353 -1.2079  1.1071 -0.4764
  928MOL0     H25219  11.518   3.199   2.183 -0.8393  1.9818 -0.8142
  928MOL0     H25220  11.364   3.219   2.117 -1.8729 -0.2103  0.5873
  928MOL0     H25221  11.445   2.945   2.230  1.1421 -1.3915 -2.2184
  928MOL0     H25222  11.294   2.971   2.162 -0.0505 -1.2293  3.3065
  928MOL0     H25223  11.440   2.869   1.992  0.8979 -0.7285  1.2416
  928MOL0     H25224  11.406   3.028   1.935  0.6475 -0.3400 -0.4783
  928MOL0     H25225  11.625   3.104   2.028  1.8908 -0.3182  0.0648
  928MOL0     H25226  11.651   2.931   2.080 -0.3854  0.3601  0.8619
  928MOL0     H25227  11.627   3.031   1.790  0.1284  1.5652  0.9917
  928MOL0     H25228  11.607   2.865   1.848 -1.0430  0.2868  1.0295
  928MOL0     H25229  11.852   2.999   1.936 -0.1333  0.4249  0.4442
  928MOL0     H25230  11.830   2.829   1.877 -2.6242 -0.7686  3.4083
  928MOL0     H25231  11.729   2.827   1.595 -0.4997  1.0329 -1.5870
  928MOL0     H25232  11.798   2.873   1.347 -1.1429 -0.1662 -1.7671
  928MOL0     H25233  11.683   3.005   1.356  0.1664 -1.2230 -2.1597
  928MOL0     H25234  11.956   3.017   1.229  0.7559  1.4739  0.4345
  928MOL0     H25235  11.782   3.042   1.174 -0.6567  0.7692  0.2775
  928MOL0     H25236  11.899   3.253   1.182  0.7456 -2.8647 -0.8323
  928MOL0     H25237  11.940   3.227   1.357 -1.2393 -0.7174  1.5064
  928MOL0     H25238  11.749   3.383   1.303  0.9358  0.1814  0.2216
  928MOL0     H25239  11.705   3.256   1.414  1.5616  1.9846  0.5908
  928MOL0     H25240  11.527   3.420   1.376  1.9601 -0.0293 -1.0735
  928MOL0     H25241  11.292   3.408   1.440  0.8762 -0.0732  0.6905
  928MOL0     H25242  10.860   3.476   1.294  4.1901 -0.8695  1.6671
  928MOL0     H25243  10.620   3.466   1.348  0.4085  2.2108  1.0791
  928MOL0     H25244  10.499   3.199   1.677 -2.2676 -0.5901 -1.8402
  928MOL0     H25245  10.496   3.336   1.792 -1.3752  0.7281 -0.2781
  928MOL0     H25246  10.292   3.274   1.564  2.8958 -1.2021 -0.7501
  928MOL0     H25247  10.266   3.219   1.722 -1.8833  0.7548 -0.4512
  928MOL0     H25248  10.255   3.470   1.798  1.0249  0.1604  0.3115
  928MOL0     H25249  10.294   3.516   1.633 -0.9862  0.6525  0.5982
  928MOL0     H25250  10.100   3.420   1.540  3.4781  1.5107 -0.1933
  928MOL0     H25251  10.073   3.560   1.644  2.4780  0.7651 -0.3547
  928MOL0     H25252   9.957   3.425   1.801 -0.4994 -0.2549  0.1046
  928MOL0     H25253  10.051   3.278   1.763  2.9910  1.7791  1.3932
  928MOL0     H25254   9.853   3.420   1.569 -2.6741 -1.5194 -0.9705
  928MOL0     H25255   9.918   3.254   1.550  0.7025  0.2989 -0.5358
  928MOL0     H25256   9.720   3.357   1.758  2.2657  0.2480  0.8890
  928MOL0     H25257   9.804   3.203   1.771  3.6249 -1.2010 -1.7360
  928MOL0     H25258   9.617   3.298   1.535 -1.2212 -1.0778 -1.4180
  928MOL0     H25259   9.697   3.138   1.539  0.3558  0.4757 -0.3020
  928MOL0     H25260  10.728   3.315   1.741  0.8840  3.2179  0.6646
  928MOL0     H25261  10.967   3.313   1.664  1.5632  0.5885 -1.9430
  928MOL0     H25262  11.203   3.105   1.172  0.8099 -0.1605 -1.5896
  928MOL0     H25263  11.463   3.079   1.122  1.1629  2.1888 -2.5061
  928MOL0     H25264  10.972   3.177   2.397  0.6184  2.5794 -1.0763
  928MOL0     H25265  10.747   3.244   2.527 -0.3369  1.1855 -0.4064
  928MOL0     H25266  10.606   3.207   2.943 -1.3444 -0.7265  2.6660
  928MOL0     H25267  10.421   3.201   3.123 -1.9078  0.8282  1.3761
  928MOL0     H25268  10.258   3.234   3.253  1.1438  1.7027  2.1516
  928MOL0     H25269  10.085   3.240   3.211  1.5905 -0.2556  0.9696
  928MOL0     H25270  10.241   3.421   3.384  1.0388 -0.5934 -1.0859
  928MOL0     H25271  10.088   3.342   3.415 -0.7580 -0.0852 -0.2207
  928MOL0     H25272  10.118   3.596   3.243  0.2815 -0.6686  0.3791
  928MOL0     H25273  10.058   3.572   3.410 -2.1100 -0.6418 -0.1273
  928MOL0     H25274   9.862   3.587   3.263 -1.0011 -1.0938  2.8475
  928MOL0     H25275   9.937   3.464   3.161  1.1559 -2.4413 -0.3012
  928MOL0     H25276   9.708   3.275   3.474  2.8111 -0.1150  3.0308
  928MOL0     H25277  10.231   3.528   2.918 -0.7689  0.0793 -0.6242
  928MOL0     H25278  10.378   3.516   2.630  2.0089 -1.4887  0.3435
  928MOL0     H25279  10.355   3.658   2.730 -1.1299  0.2108 -2.3532
  928MOL0     H25280  10.515   3.604   2.714 -0.2808  1.1567  1.4106
  929MOL0     O25281   0.194   7.157   7.562  0.2815  0.9469 -0.0774
  929MOL0     C25282   0.134   7.223   7.647 -0.3624 -0.4922 -0.2640
  929MOL0     O25283   0.198   7.310   7.738 -0.0022 -0.3156  0.0734
  929MOL0     C25284   0.335   7.321   7.748 -0.0501  0.1480 -0.1763
  929MOL0     C25285   0.379   7.453   7.761  0.6828  0.1543  1.1308
  929MOL0     C25286   0.517   7.479   7.777  0.0823 -0.7125  0.8683
  929MOL0     C25287   0.607   7.377   7.772 -0.4149  0.2449 -0.4987
  929MOL0     O25288   0.741   7.399   7.781  0.2723  0.2059  0.1344
  929MOL0     C25289   0.810   7.320   7.878 -0.4053 -1.2863  0.1764
  929MOL0     C25290   0.959   7.357   7.861 -0.3922 -0.7453 -0.4625
  929MOL0     C25291   1.018   7.268   7.751 -0.1539  0.1670  0.3095
  929MOL0     C25292   1.175   7.297   7.773  0.8796 -0.4064  0.1377
  929MOL0     C25293   1.245   7.232   7.654 -0.8169  0.2137  0.0591
  929MOL0     C25294   1.406   7.250   7.665  0.2780  0.1136 -0.2864
  929MOL0     C25295   1.470   7.189   7.794 -0.4866 -0.6973  0.1500
  929MOL0     C25296   1.621   7.163   7.769  1.3775 -0.4948  0.4710
  929MOL0     N25297   1.690   7.126   7.892  0.7568  0.1459 -0.7176
  929MOL0     C25298   1.672   7.008   7.967  1.7950 -0.7605 -0.0639
  929MOL0     C25299   1.738   7.037   8.082 -0.3392  0.7308 -0.0529
  929MOL0     C25300   1.759   6.948   8.194  0.1763  0.6665  0.7654
  929MOL0     C25301   1.788   6.807   8.152  0.0300 -0.5224 -0.0138
  929MOL0     C25302   1.810   6.714   8.278 -0.8229  0.3793  0.4561
  929MOL0     C25303   1.687   6.679   8.366 -0.2583  0.3651 -0.2202
  929MOL0     O25304   1.718   6.574   8.465  0.4169 -0.3411 -0.0992
  929MOL0     C25305   1.615   6.535   8.544 -0.3389  0.4926 -0.0255
  929MOL0     C25306   1.491   6.602   8.550  0.5153 -0.2476 -0.1967
  929MOL0     C25307   1.390   6.552   8.637 -0.4687 -0.0552 -0.3996
  929MOL0     C25308   1.422   6.437   8.721  0.4052 -0.9398 -0.3162
  929MOL0     C25309   1.320   6.390   8.825 -0.4354 -0.3663  0.1383
  929MOL0     O25310   1.218   6.478   8.843 -0.0048 -0.6437 -0.1282
  929MOL0     C25311   1.100   6.431   8.899 -0.1373 -0.3934  0.1275
  929MOL0     C25312   1.043   6.310   8.845 -0.4812  1.1971 -0.0611
  929MOL0     C25313   0.920   6.257   8.895  0.3261 -0.9053 -0.0204
  929MOL0     C25314   0.852   6.333   8.994  0.7579  0.5079  0.5536
  929MOL0     O25315   0.736   6.274   9.032 -0.0759 -0.2787  0.3185
  929MOL0     C25316   0.645   6.342   9.116 -0.3287  0.3326  0.4940
  929MOL0     C25317   0.524   6.241   9.124 -0.4458 -0.3065 -0.3193
  929MOL0     C25318   0.438   6.250   9.253  0.1065 -0.0241  0.2260
  929MOL0     C25319   0.296   6.194   9.246  0.3803  0.4549  0.5362
  929MOL0     C25320   0.211   6.225   9.375  0.3933  0.1181 -0.0367
  929MOL0     C25321   0.073   6.158   9.350 -0.4892  0.0832  0.1556
  929MOL0     C25322  -0.018   6.173   9.472  0.6409  0.6433  0.2829
  929MOL0     C25323  -0.156   6.107   9.433  0.4740  0.1208 -0.2850
  929MOL0    Cl25324  -0.275   6.159   9.554  0.1127  0.0384 -0.1423
  929MOL0     C25325   0.906   6.455   9.038  0.4591  0.8377 -0.7575
  929MOL0     C25326   1.030   6.503   8.993  1.0469 -0.4542  0.7762
  929MOL0     O25327   1.343   6.287   8.889  1.1291  0.3026 -0.2138
  929MOL0     C25328   1.547   6.371   8.705 -0.8885  0.1175 -0.0934
  929MOL0     C25329   1.635   6.421   8.618 -0.9089  1.4337  0.5872
  929MOL0     N25330   1.802   7.164   8.077  0.1489 -0.4655  0.1314
  929MOL0     N25331   1.764   7.218   7.961 -0.2596  0.0924 -0.0418
  929MOL0     C25332   0.562   7.249   7.771  0.4264  0.0535 -0.4553
  929MOL0     C25333   0.424   7.214   7.769  0.4301 -0.7909 -0.8652
  929MOL0     C25334  -0.015   7.227   7.648 -0.7340  0.1128  0.6348
  929MOL0     C25335  -0.073   7.291   7.761  0.4641 -0.0093 -0.8441
  929MOL0     C25336  -0.216   7.282   7.785  0.5258  0.3370 -0.3427
  929MOL0     C25337  -0.296   7.211   7.698  0.2030  0.8984  0.1368
  929MOL0     O25338  -0.429   7.204   7.720 -0.4506  0.1560 -0.1644
  929MOL0     C25339  -0.528   7.147   7.629 -1.1801  0.3776  0.2535
  929MOL0     C25340  -0.669   7.127   7.681 -0.0305  0.8677 -0.4998
  929MOL0     C25341  -0.770   7.120   7.572 -0.4739  0.5019  0.8731
  929MOL0     C25342  -0.908   7.092   7.617  0.2409 -0.2286  1.0962
  929MOL0     C25343  -1.010   7.075   7.514 -0.0311 -0.7149 -1.2150
  929MOL0     C25344  -1.070   7.054   7.413  0.1853  0.3231  0.5717
  929MOL0     C25345  -0.243   7.145   7.591 -0.2724 -0.9018 -0.0853
  929MOL0     C25346  -0.101   7.155   7.560 -0.1878 -0.0807 -0.1218
  929MOL0     C25347  -0.054   7.087   7.430 -0.3826 -0.3731 -0.4178
  929MOL0     H25348   0.300   7.527   7.754  1.4756  0.9363  0.0351
  929MOL0     H25349   0.551   7.582   7.779 -1.8916 -0.0159  0.9823
  929MOL0     H25350   0.769   7.352   7.975  0.7273  0.4298  0.1349
  929MOL0     H25351   0.799   7.211   7.876 -0.1162 -1.3181 -2.6070
  929MOL0     H25352   1.012   7.350   7.956 -0.5203  1.5905 -0.1669
  929MOL0     H25353   0.979   7.462   7.837 -1.2292 -0.5818 -0.4906
  929MOL0     H25354   0.979   7.300   7.654 -3.8654  0.9578  1.9113
  929MOL0     H25355   0.992   7.162   7.761 -0.3899 -0.0492 -2.0695
  929MOL0     H25356   1.207   7.401   7.784 -0.3309  0.1849 -1.4380
  929MOL0     H25357   1.203   7.248   7.866  2.0434 -1.8915 -0.9406
  929MOL0     H25358   1.220   7.126   7.661 -0.7574  0.0753 -1.5630
  929MOL0     H25359   1.204   7.273   7.561  2.5794  1.7099 -0.9320
  929MOL0     H25360   1.448   7.203   7.576 -1.2781 -1.8572 -0.0463
  929MOL0     H25361   1.428   7.357   7.658  0.8406  0.0322  0.2221
  929MOL0     H25362   1.424   7.093   7.820  0.3591 -1.5543 -1.3797
  929MOL0     H25363   1.461   7.264   7.873  2.2373  0.7179 -0.7560
  929MOL0     H25364   1.630   7.083   7.694  1.4196 -1.5858  1.6026
  929MOL0     H25365   1.667   7.253   7.727  0.9416 -0.9016 -0.9384
  929MOL0     H25366   1.618   6.924   7.925 -0.7604  1.3257 -1.2589
  929MOL0     H25367   1.836   6.992   8.258  1.8124 -2.1808  0.8715
  929MOL0     H25368   1.671   6.947   8.259 -0.7845  1.6673 -0.4672
  929MOL0     H25369   1.706   6.766   8.092  0.1263 -1.8663  0.7292
  929MOL0     H25370   1.879   6.815   8.092 -0.0744  1.6236  0.0471
  929MOL0     H25371   1.888   6.757   8.342 -2.4469  1.8054  1.5841
  929MOL0     H25372   1.849   6.625   8.228  0.2957  1.8898 -1.4587
  929MOL0     H25373   1.606   6.647   8.300 -1.1192 -0.9484  1.3912
  929MOL0     H25374   1.645   6.772   8.406 -1.2530  0.7668 -2.0783
  929MOL0     H25375   1.483   6.696   8.496  0.7441  0.2375  0.5919
  929MOL0     H25376   1.297   6.607   8.626  1.3970  3.2672 -0.9179
  929MOL0     H25377   1.100   6.251   8.774 -0.1065  1.5918 -0.0904
  929MOL0     H25378   0.903   6.155   8.862  1.9031 -0.8093 -1.3152
  929MOL0     H25379   0.698   6.353   9.211  2.5057  0.1180 -0.9395
  929MOL0     H25380   0.614   6.440   9.081  0.5590  0.1675 -0.8155
  929MOL0     H25381   0.456   6.257   9.040  0.4298  2.9567 -0.5511
  929MOL0     H25382   0.567   6.141   9.117 -3.0911 -1.4776 -0.9940
  929MOL0     H25383   0.494   6.209   9.338  1.2164  2.5465  0.8235
  929MOL0     H25384   0.432   6.357   9.274 -0.9533  0.2411 -1.2380
  929MOL0     H25385   0.301   6.088   9.219  0.3140  0.0008  2.2036
  929MOL0     H25386   0.237   6.238   9.165 -1.0307 -0.3886  1.0680
  929MOL0     H25387   0.208   6.333   9.390  0.3059  0.0142  0.7204
  929MOL0     H25388   0.266   6.186   9.461  0.4582 -1.6211 -0.8326
  929MOL0     H25389   0.028   6.198   9.259 -0.2796 -1.0367 -0.4535
  929MOL0     H25390   0.084   6.050   9.334 -0.3493  0.2859 -1.2299
  929MOL0     H25391  -0.027   6.282   9.484 -1.4508  0.5780 -0.3069
  929MOL0     H25392   0.016   6.112   9.556 -0.0919  1.2160  1.0108
  929MOL0     H25393  -0.182   6.160   9.340 -0.8381 -1.2244 -0.7353
  929MOL0     H25394  -0.141   5.999   9.426  1.7347  0.3132 -0.6661
  929MOL0     H25395   0.859   6.505   9.122 -0.7185 -1.1105 -0.1767
  929MOL0     H25396   1.073   6.592   9.040  0.7161 -1.1845  2.5592
  929MOL0     H25397   1.564   6.280   8.762  1.1806  0.1095 -0.6514
  929MOL0     H25398   1.728   6.366   8.614 -0.7045  1.8640 -1.2524
  929MOL0     H25399   0.633   7.167   7.771  0.7488  0.1982  2.5068
  929MOL0     H25400   0.388   7.111   7.771 -1.9552 -0.0162  0.9905
  929MOL0     H25401  -0.022   7.353   7.834 -1.0879  0.0816  0.2188
  929MOL0     H25402  -0.261   7.333   7.869 -0.6834  1.7717 -1.8150
  929MOL0     H25403  -0.491   7.050   7.593  2.1250  1.9915 -1.1306
  929MOL0     H25404  -0.531   7.218   7.546 -2.0248  0.8635  0.6881
  929MOL0     H25405  -0.689   7.217   7.741  0.2478  0.4723  0.2019
  929MOL0     H25406  -0.681   7.038   7.743  2.2943  0.2839 -0.7907
  929MOL0     H25407  -0.741   7.052   7.491  0.3441  3.7549 -1.8261
  929MOL0     H25408  -0.760   7.217   7.522  1.3822  1.9447  3.7272
  929MOL0     H25409  -0.907   6.998   7.673  1.2254  0.2817  1.9757
  929MOL0     H25410  -0.945   7.160   7.694 -0.0785 -0.4929  1.1781
  929MOL0     H25411  -1.130   7.031   7.328  1.3682  3.7899 -1.4119
  929MOL0     H25412  -0.305   7.085   7.526 -2.2741 -1.9806  2.6216
  929MOL0     H25413  -0.026   6.982   7.443 -1.4342 -0.5314  0.8380
  929MOL0     H25414  -0.139   7.091   7.362 -3.5292 -3.1378  2.9120
  929MOL0     H25415   0.034   7.137   7.390 -1.2465  1.0746 -0.5817
  930MOL0     O25416  10.924   7.163  10.474  0.8506 -0.0194  0.5197
  930MOL0     C25417  10.952   7.272  10.514  0.0841 -0.7347  0.9842
  930MOL0     O25418  11.073   7.320  10.529  0.3046  0.3031  0.6267
  930MOL0     C25419  11.194   7.258  10.503  0.9457  0.5497  0.0012
  930MOL0     C25420  11.307   7.301  10.572  0.0387 -0.9879 -0.0778
  930MOL0     C25421  11.436   7.252  10.535  0.8735  0.3914  0.3408
  930MOL0     C25422  11.449   7.152  10.444 -0.0345  0.2005 -0.4315
  930MOL0     O25423  11.578   7.102  10.415  0.2915  0.1144  0.0723
  930MOL0     C25424  11.576   7.003  10.305 -0.5166 -0.3167  0.1096
  930MOL0     C25425  11.717   6.963  10.287 -0.1939 -0.0977 -0.1547
  930MOL0     C25426  11.815   7.075  10.262 -0.2957 -0.6629  0.4538
  930MOL0     C25427  11.953   7.015  10.224  0.1259  0.4784 -1.0654
  930MOL0     C25428  12.042   7.123  10.181 -0.7890  0.3569 -0.2556
  930MOL0     C25429  12.183   7.074  10.136  0.1756 -0.1398 -0.1567
  930MOL0     C25430  12.271   7.194  10.120  0.7675 -0.2442  0.1629
  930MOL0     C25431  12.408   7.160  10.060  0.2216 -0.1151 -0.4760
  930MOL0     N25432  12.492   7.068  10.124  0.2726  0.3984 -0.2769
  930MOL0     C25433  12.494   6.933  10.092  0.4775 -0.3801 -0.1662
  930MOL0     C25434  12.583   6.877  10.182  0.1488  0.0030  0.0533
  930MOL0     C25435  12.619   6.727  10.204 -0.2597  0.5016  0.5879
  930MOL0     C25436  12.721   6.698  10.314  0.1837  0.7389 -0.9697
  930MOL0     C25437  12.717   6.543  10.329  0.1110  0.3380 -0.5059
  930MOL0     C25438  12.845   6.490  10.396 -0.1811  0.0019  0.2075
  930MOL0     O25439  12.945   6.481  10.285 -0.2067 -0.3815 -0.4075
  930MOL0     C25440  13.056   6.412  10.320 -0.1517  0.5925 -0.0278
  930MOL0     C25441  13.162   6.412  10.225  0.2304  0.6729  1.0886
  930MOL0     C25442  13.275   6.335  10.250  0.4262  1.0251  0.1783
  930MOL0     C25443  13.301   6.289  10.380 -0.4636 -0.1985 -0.2203
  930MOL0     C25444  13.424   6.212  10.409 -0.0657 -0.0052  0.4720
  930MOL0     O25445  13.500   6.198  10.299 -0.0929  0.1457 -0.3005
  930MOL0     C25446  13.629   6.147  10.310  0.8624  0.2961  0.2361
  930MOL0     C25447  13.663   6.029  10.375  0.2196 -0.8509 -0.9659
  930MOL0     C25448  13.796   5.990  10.382  0.0125  0.4345  0.6089
  930MOL0     C25449  13.893   6.072  10.328  0.0728 -0.1765  0.0730
  930MOL0     O25450  14.025   6.050  10.341  0.3836  0.4807  0.0287
  930MOL0     C25451  14.076   5.916  10.315 -0.5197  0.2078  0.8716
  930MOL0     C25452  14.161   5.913  10.183  0.0288 -0.0967 -0.4418
  930MOL0     C25453  14.309   5.960  10.174 -0.3652  0.5573  0.9382
  930MOL0     C25454  14.332   6.103  10.233  0.3775  0.6378 -0.2047
  930MOL0     C25455  14.479   6.150  10.253 -0.5304  0.0222  0.1718
  930MOL0     C25456  14.557   6.067  10.360 -0.5044  0.1545 -0.1323
  930MOL0     C25457  14.691   6.130  10.383 -1.3413  0.0296 -0.5763
  930MOL0     C25458  14.778   6.037  10.464 -0.6904  0.1326 -0.8304
  930MOL0    Cl25459  14.943   6.109  10.493  0.2546  0.2487  0.0194
  930MOL0     C25460  13.862   6.188  10.255 -0.3049  0.3889 -1.0619
  930MOL0     C25461  13.726   6.223  10.245 -0.5896  0.2367  0.4973
  930MOL0     O25462  13.454   6.185  10.529 -0.0342 -0.2699  0.1685
  930MOL0     C25463  13.208   6.312  10.480  0.4613  0.3600  0.1011
  930MOL0     C25464  13.084   6.353  10.445  0.4213 -0.9136 -0.2155
  930MOL0     N25465  12.631   6.985  10.258 -0.1296 -0.6240  0.1954
  930MOL0     N25466  12.572   7.095  10.225  0.7682 -0.0768  1.6388
  930MOL0     C25467  11.335   7.112  10.379  0.1481  0.6026  0.8560
  930MOL0     C25468  11.204   7.158  10.403  0.3682 -0.7095  0.0004
  930MOL0     C25469  10.844   7.369  10.553 -0.7035  0.0643  0.1077
  930MOL0     C25470  10.885   7.495  10.585  0.1667 -0.4474 -0.6899
  930MOL0     C25471  10.794   7.604  10.613  0.0303  1.0355 -0.2325
  930MOL0     C25472  10.655   7.569  10.605 -0.4454  0.2657  0.1064
  930MOL0     O25473  10.557   7.668  10.614 -0.4836 -1.1140 -0.0216
  930MOL0     C25474  10.579   7.795  10.694 -0.0094 -0.1342 -0.1075
  930MOL0     C25475  10.468   7.891  10.683 -0.6414 -0.4057 -0.2070
  930MOL0     C25476  10.414   7.924  10.543 -0.9263  0.7336 -1.3441
  930MOL0     C25477  10.519   7.963  10.434  0.4845  0.1346 -0.9685
  930MOL0     C25478  10.567   8.100  10.464 -0.7012  0.6088 -0.2846
  930MOL0     C25479  10.597   8.215  10.480 -0.0837 -0.5415  0.0979
  930MOL0     C25480  10.610   7.439  10.577  0.1633  0.3661  0.0139
  930MOL0     C25481  10.707   7.342  10.554 -0.3466  0.6549  0.1796
  930MOL0     C25482  10.651   7.206  10.526 -0.8370 -0.0949  1.0447
  930MOL0     H25483  11.291   7.378  10.647 -1.8414 -0.8553 -0.5571
  930MOL0     H25484  11.522   7.283  10.592 -0.1745  2.8160  0.7408
  930MOL0     H25485  11.518   6.912  10.323  0.9260 -1.7601 -2.0643
  930MOL0     H25486  11.543   7.057  10.216  3.5729 -0.6711 -1.8874
  930MOL0     H25487  11.712   6.901  10.197 -3.2295 -0.9091  0.4737
  930MOL0     H25488  11.763   6.915  10.374  0.3000  0.2700 -0.2088
  930MOL0     H25489  11.831   7.129  10.356 -0.5996 -0.9308  0.6621
  930MOL0     H25490  11.778   7.142  10.184 -1.4218  1.6372  2.8026
  930MOL0     H25491  11.993   6.955  10.306 -1.2958  1.9837  0.8267
  930MOL0     H25492  11.950   6.942  10.142 -0.4357 -0.1043 -0.5427
  930MOL0     H25493  11.995   7.177  10.097 -2.0214 -1.6157 -0.9140
  930MOL0     H25494  12.048   7.193  10.264  0.6651 -2.8080  2.5158
  930MOL0     H25495  12.228   7.014  10.216 -0.3136 -1.1464 -0.6180
  930MOL0     H25496  12.178   7.011  10.047  0.2535 -1.6990  0.9014
  930MOL0     H25497  12.269   7.239  10.220 -1.3916 -3.0238  1.4960
  930MOL0     H25498  12.233   7.275  10.057  0.5816 -0.8626 -0.5283
  930MOL0     H25499  12.389   7.113   9.963 -1.4984 -0.5509  0.0458
  930MOL0     H25500  12.467   7.252  10.056  0.3974 -0.2263 -0.4427
  930MOL0     H25501  12.438   6.867  10.025  1.0770 -1.2724  0.2019
  930MOL0     H25502  12.529   6.669  10.225 -1.3953  1.8507 -0.4153
  930MOL0     H25503  12.653   6.687  10.108 -2.2408 -1.2589  0.5613
  930MOL0     H25504  12.822   6.728  10.285  0.2589  1.1088 -0.3389
  930MOL0     H25505  12.697   6.756  10.404  1.0738  0.9222 -0.8445
  930MOL0     H25506  12.719   6.507  10.225  0.9574  2.0715 -1.1230
  930MOL0     H25507  12.622   6.507  10.370 -0.7428 -1.8121 -3.9193
  930MOL0     H25508  12.815   6.391  10.432  0.7796  0.0702  1.2307
  930MOL0     H25509  12.877   6.554  10.478 -0.4601 -0.4013  0.6317
  930MOL0     H25510  13.136   6.445  10.124  0.6310  1.8126  1.3395
  930MOL0     H25511  13.345   6.307  10.172  3.0901  1.2668  2.3325
  930MOL0     H25512  13.599   5.963  10.432  0.2955  0.3071  0.5129
  930MOL0     H25513  13.818   5.899  10.437 -0.9358 -0.2514 -0.1034
  930MOL0     H25514  14.153   5.885  10.386 -0.2164 -2.3851 -0.4335
  930MOL0     H25515  14.000   5.837  10.310  0.7040 -1.0152  0.9362
  930MOL0     H25516  14.168   5.805  10.164  0.8100 -0.4440  1.5513
  930MOL0     H25517  14.100   5.968  10.111  1.5483 -0.0049 -1.7037
  930MOL0     H25518  14.368   5.900  10.243  0.4707  2.9930  2.4938
  930MOL0     H25519  14.354   5.943  10.076  0.4291  0.6256  1.2827
  930MOL0     H25520  14.284   6.104  10.331  2.3655 -0.9952  0.8700
  930MOL0     H25521  14.285   6.172  10.162  1.3738 -1.0836 -2.6679
  930MOL0     H25522  14.489   6.254  10.287 -1.3881 -0.8589  3.4411
  930MOL0     H25523  14.531   6.131  10.158 -2.4322 -0.2291 -0.8567
  930MOL0     H25524  14.503   6.067  10.455 -0.4145  0.3484 -0.0823
  930MOL0     H25525  14.562   5.967  10.316 -2.5663  0.8679 -2.1986
  930MOL0     H25526  14.681   6.220  10.445 -1.5757 -0.7936  0.6335
  930MOL0     H25527  14.737   6.158  10.288  2.5752  1.8784  1.6248
  930MOL0     H25528  14.731   6.029  10.563 -0.2360 -0.2219 -0.6422
  930MOL0     H25529  14.777   5.936  10.423 -0.9833 -0.4191  0.4719
  930MOL0     H25530  13.942   6.251  10.217 -1.5130  1.3706 -2.0578
  930MOL0     H25531  13.694   6.315  10.196  1.3955 -1.4923 -4.7128
  930MOL0     H25532  13.233   6.278  10.580  2.7900  0.5159 -0.3648
  930MOL0     H25533  13.009   6.346  10.523  0.9036  0.5473  0.4303
  930MOL0     H25534  11.340   7.044  10.294 -1.4715  1.5352 -0.0364
  930MOL0     H25535  11.123   7.134  10.335  1.1681 -0.8481 -0.9217
  930MOL0     H25536  10.986   7.532  10.599 -1.0219  3.2026 -0.6758
  930MOL0     H25537  10.821   7.704  10.646  1.5216 -0.6750  4.6162
  930MOL0     H25538  10.667   7.846  10.654  0.3771  1.4036  2.4769
  930MOL0     H25539  10.589   7.755  10.795 -2.6541 -3.2583 -0.8895
  930MOL0     H25540  10.508   7.984  10.725 -0.4714 -0.7553  0.4218
  930MOL0     H25541  10.383   7.854  10.742 -0.8428  1.5606  0.8512
  930MOL0     H25542  10.332   7.997  10.544 -1.7437 -0.1069 -2.7758
  930MOL0     H25543  10.361   7.836  10.506 -0.6392 -0.2647  0.4978
  930MOL0     H25544  10.599   7.888  10.447 -1.4331 -1.9914 -0.7938
  930MOL0     H25545  10.478   7.963  10.333 -1.8769 -0.6419 -0.0706
  930MOL0     H25546  10.626   8.318  10.489  0.9234 -0.6137 -1.8438
  930MOL0     H25547  10.503   7.423  10.579  0.4641 -2.1777 -0.6682
  930MOL0     H25548  10.668   7.141  10.612  1.6562  2.6605  2.8426
  930MOL0     H25549  10.542   7.218  10.518 -0.8059 -0.3198  0.1946
  930MOL0     H25550  10.683   7.154  10.435  1.4224  1.1132  1.0814
  931MOL0     O25551   0.670   2.509   3.953 -0.1768  0.3807 -0.3819
  931MOL0     C25552   0.621   2.609   3.905  0.7777 -0.4890 -0.0688
  931MOL0     O25553   0.688   2.717   3.853  0.1424 -0.1351  0.2372
  931MOL0     C25554   0.829   2.711   3.848  0.3244 -0.8153 -0.4622
  931MOL0     C25555   0.898   2.601   3.793 -0.5655  0.7281  0.7725
  931MOL0     C25556   1.035   2.608   3.776 -0.1879 -0.9381 -0.3529
  931MOL0     C25557   1.111   2.719   3.821  0.8273  0.4230  0.2882
  931MOL0     O25558   1.245   2.712   3.821 -0.8011  0.2220 -0.1648
  931MOL0     C25559   1.336   2.771   3.925  0.1979 -0.0358  0.1378
  931MOL0     C25560   1.461   2.803   3.851  0.3131  1.1941 -0.0339
  931MOL0     C25561   1.532   2.666   3.815  0.0195  0.0433 -0.0478
  931MOL0     C25562   1.670   2.689   3.757  0.4996 -0.2902 -0.5490
  931MOL0     C25563   1.765   2.565   3.729 -0.0452 -0.6676 -0.7709
  931MOL0     C25564   1.908   2.618   3.692 -0.2481  0.7884 -0.6354
  931MOL0     C25565   2.000   2.506   3.630 -0.2013  0.5017  0.2448
  931MOL0     C25566   2.135   2.572   3.598 -0.6778  0.1668  0.3871
  931MOL0     N25567   2.229   2.471   3.537  0.6237 -0.6754 -0.6414
  931MOL0     C25568   2.293   2.372   3.609 -0.1645  0.7937  1.3854
  931MOL0     C25569   2.394   2.328   3.533 -0.3374 -0.6585 -1.1222
  931MOL0     C25570   2.502   2.232   3.571  0.7533  0.6857 -0.4556
  931MOL0     C25571   2.650   2.286   3.563  0.5918  0.3999 -0.2789
  931MOL0     C25572   2.695   2.272   3.416 -0.7313 -0.0709  0.3804
  931MOL0     C25573   2.852   2.286   3.415 -0.0746 -0.7448 -0.3594
  931MOL0     O25574   2.906   2.400   3.484 -0.1637 -1.0396  0.1322
  931MOL0     C25575   3.042   2.408   3.479 -0.2514  0.1679  0.2506
  931MOL0     C25576   3.088   2.519   3.539 -0.8869 -0.5892  0.0105
  931MOL0     C25577   3.219   2.555   3.540 -0.4025 -0.2568  0.4031
  931MOL0     C25578   3.314   2.465   3.486  0.7001 -0.5446  0.0296
  931MOL0     C25579   3.454   2.501   3.483  0.3505 -0.0304  0.5165
  931MOL0     O25580   3.489   2.634   3.495 -0.5998  0.1966  0.0143
  931MOL0     C25581   3.622   2.657   3.494 -0.2337  0.5119 -0.2937
  931MOL0     C25582   3.726   2.606   3.580  0.3831 -0.6773 -0.1716
  931MOL0     C25583   3.859   2.632   3.572  1.3258 -0.2097  0.3713
  931MOL0     C25584   3.897   2.725   3.474  0.0937 -0.0586 -0.2668
  931MOL0     O25585   4.029   2.771   3.459 -0.2923 -0.6214 -0.7047
  931MOL0     C25586   4.134   2.706   3.523  0.0869 -0.4763 -0.3315
  931MOL0     C25587   4.263   2.790   3.509 -0.6072  0.3829  0.5969
  931MOL0     C25588   4.294   2.865   3.636 -0.1252  0.5915 -0.3136
  931MOL0     C25589   4.411   2.972   3.617 -0.0434 -0.3299 -0.5632
  931MOL0     C25590   4.546   2.915   3.563  0.2178 -0.9376  1.0216
  931MOL0     C25591   4.662   3.006   3.586 -0.4360  0.2038  0.2592
  931MOL0     C25592   4.792   2.929   3.543  0.7187  0.3296  0.2452
  931MOL0     C25593   4.903   3.020   3.588 -0.4831 -0.0700  0.5262
  931MOL0    Cl25594   5.019   3.006   3.456 -0.1838 -0.3243 -0.4478
  931MOL0     C25595   3.807   2.786   3.390  0.2364  0.0202  0.9219
  931MOL0     C25596   3.673   2.749   3.398  0.0042  0.9793  0.9527
  931MOL0     O25597   3.537   2.409   3.456 -1.1276 -0.0241 -0.4164
  931MOL0     C25598   3.268   2.346   3.419 -0.3707  0.7202 -0.5820
  931MOL0     C25599   3.132   2.311   3.424  0.4053 -0.7994 -0.1887
  931MOL0     N25600   2.384   2.397   3.412  0.5812 -0.6809 -0.4421
  931MOL0     N25601   2.284   2.484   3.412 -0.3095 -0.3986  0.1400
  931MOL0     C25602   1.038   2.827   3.875 -0.5063 -0.1677 -0.1943
  931MOL0     C25603   0.901   2.817   3.897 -0.6044  0.1717  1.0236
  931MOL0     C25604   0.477   2.632   3.910  0.5195  0.2994  0.3514
  931MOL0     C25605   0.428   2.757   3.861  0.2664  1.4309 -0.5709
  931MOL0     C25606   0.285   2.780   3.871 -0.5391 -0.1158 -0.2326
  931MOL0     C25607   0.191   2.692   3.923  0.1575  0.4626  0.3848
  931MOL0     O25608   0.060   2.727   3.945  0.1192  0.0087 -0.2693
  931MOL0     C25609   0.004   2.837   3.875  0.4220 -0.2289  0.9471
  931MOL0     C25610  -0.012   2.811   3.725  0.0824 -0.9611 -0.8113
  931MOL0     C25611  -0.125   2.708   3.705 -0.4646 -0.1212 -0.2806
  931MOL0     C25612  -0.181   2.716   3.556 -0.6443  0.4789 -0.0705
  931MOL0     C25613  -0.276   2.823   3.551  0.6534  0.4841 -0.1181
  931MOL0     C25614  -0.356   2.912   3.537 -0.4864 -0.0385 -0.1035
  931MOL0     C25615   0.237   2.565   3.961  0.3816 -0.0170  0.6752
  931MOL0     C25616   0.383   2.539   3.966  0.0376  0.5903  0.6409
  931MOL0     C25617   0.414   2.402   4.015  0.4164  0.5631  0.4910
  931MOL0     H25618   0.837   2.517   3.762 -0.5507  0.5810  1.1333
  931MOL0     H25619   1.085   2.527   3.724 -0.9796 -0.5975 -1.6963
  931MOL0     H25620   1.294   2.863   3.967 -0.3648  0.5550 -1.6297
  931MOL0     H25621   1.347   2.696   4.004 -1.4690 -0.9534 -0.4576
  931MOL0     H25622   1.526   2.856   3.922  4.4322 -1.0257 -1.8288
  931MOL0     H25623   1.448   2.864   3.762 -2.4929 -0.2709 -0.7574
  931MOL0     H25624   1.473   2.599   3.751 -0.8608  2.1334 -1.5450
  931MOL0     H25625   1.533   2.601   3.903  1.1045 -1.2685 -0.9907
  931MOL0     H25626   1.650   2.760   3.676 -2.3677  0.9698  1.1301
  931MOL0     H25627   1.718   2.759   3.826 -2.3720  0.4210  0.8413
  931MOL0     H25628   1.757   2.495   3.813 -1.3629 -0.0376 -0.3356
  931MOL0     H25629   1.729   2.508   3.643 -1.7235 -0.7584 -0.0535
  931MOL0     H25630   1.895   2.704   3.625 -1.7711 -0.4455 -1.9959
  931MOL0     H25631   1.961   2.667   3.775  0.8634 -1.7780  0.2889
  931MOL0     H25632   1.960   2.458   3.540 -0.8866  2.2062 -0.4022
  931MOL0     H25633   2.012   2.428   3.705  1.0655 -2.2006 -2.5962
  931MOL0     H25634   2.115   2.640   3.515 -2.5374  0.4085  1.0003
  931MOL0     H25635   2.183   2.630   3.677  0.3751 -1.0184  0.6509
  931MOL0     H25636   2.265   2.362   3.714 -1.0897  3.9376  1.5421
  931MOL0     H25637   2.486   2.213   3.677 -1.6425  5.0676  0.2295
  931MOL0     H25638   2.488   2.139   3.515 -0.0720  0.5166  0.0167
  931MOL0     H25639   2.657   2.393   3.585  1.2316  0.6004 -1.3752
  931MOL0     H25640   2.711   2.230   3.634 -1.2484 -2.4029 -0.7848
  931MOL0     H25641   2.645   2.349   3.356  0.5799  1.0807  0.6936
  931MOL0     H25642   2.671   2.178   3.367  0.2425 -0.2406  0.2073
  931MOL0     H25643   2.882   2.298   3.310 -1.0116 -0.6520 -0.6205
  931MOL0     H25644   2.896   2.194   3.455 -0.2493 -0.4813  0.4598
  931MOL0     H25645   3.023   2.589   3.591  2.0908  1.7283  0.9381
  931MOL0     H25646   3.251   2.639   3.602 -1.1751 -1.3550  2.3454
  931MOL0     H25647   3.689   2.536   3.654 -0.3667  1.2888  1.3840
  931MOL0     H25648   3.929   2.576   3.633  3.5917 -2.1456 -3.5771
  931MOL0     H25649   4.115   2.690   3.630 -0.3036 -0.0735 -0.3381
  931MOL0     H25650   4.151   2.608   3.477  0.5195 -1.3207  1.5189
  931MOL0     H25651   4.349   2.724   3.497 -0.0192  1.0364  1.0898
  931MOL0     H25652   4.258   2.861   3.426  2.3370  0.5349  0.4489
  931MOL0     H25653   4.205   2.908   3.684  0.7798  0.4315  1.6295
  931MOL0     H25654   4.328   2.791   3.709 -0.0531  0.5658 -0.3730
  931MOL0     H25655   4.436   3.008   3.717 -4.0220  0.4448  0.3397
  931MOL0     H25656   4.376   3.054   3.554  0.7261 -0.7883 -1.6074
  931MOL0     H25657   4.546   2.899   3.454  0.7810  0.3171  0.8166
  931MOL0     H25658   4.564   2.821   3.616  1.0274 -1.3014  0.1314
  931MOL0     H25659   4.646   3.100   3.533 -1.5720  1.6800  3.0033
  931MOL0     H25660   4.662   3.022   3.694 -1.4361 -5.6124  1.4275
  931MOL0     H25661   4.790   2.912   3.435 -1.4737 -1.5709  0.5081
  931MOL0     H25662   4.796   2.831   3.592  0.1995 -0.0437 -0.4433
  931MOL0     H25663   4.870   3.122   3.609 -0.8978  0.3032 -1.7589
  931MOL0     H25664   4.959   2.989   3.677  0.6205  2.9316  0.9883
  931MOL0     H25665   3.835   2.882   3.346 -1.2811  0.9809  1.9661
  931MOL0     H25666   3.603   2.787   3.324 -1.5054  0.5405  2.1007
  931MOL0     H25667   3.342   2.276   3.381 -1.6309 -1.2684  0.4016
  931MOL0     H25668   3.107   2.215   3.380  3.1288 -2.0459  0.7066
  931MOL0     H25669   1.101   2.912   3.898  1.9950 -2.3226  1.4762
  931MOL0     H25670   0.853   2.905   3.938  0.1732  1.7350 -1.2061
  931MOL0     H25671   0.496   2.834   3.825 -0.4935  1.9895 -0.8523
  931MOL0     H25672   0.249   2.878   3.841 -0.6924 -0.3176 -0.7288
  931MOL0     H25673   0.067   2.925   3.890 -0.7251  0.7172  0.3221
  931MOL0     H25674  -0.097   2.861   3.911 -0.9818 -0.3798 -2.5338
  931MOL0     H25675   0.078   2.778   3.671 -1.3341  0.1886 -4.1713
  931MOL0     H25676  -0.034   2.909   3.682  0.4168  0.2536  1.6484
  931MOL0     H25677  -0.202   2.716   3.782  2.8134  2.7314  3.1547
  931MOL0     H25678  -0.089   2.605   3.712 -0.7585 -0.2144 -0.1167
  931MOL0     H25679  -0.094   2.717   3.489  0.6055 -3.7737  1.1675
  931MOL0     H25680  -0.235   2.622   3.542 -2.0332  1.2713 -0.2063
  931MOL0     H25681  -0.411   2.987   3.484  3.0045  1.8994 -1.3334
  931MOL0     H25682   0.165   2.486   3.978 -0.4044  0.3426 -0.8623
  931MOL0     H25683   0.449   2.339   3.933  0.0390  2.1096 -0.9308
  931MOL0     H25684   0.492   2.404   4.092  0.0219 -1.1295  0.9781
  931MOL0     H25685   0.327   2.347   4.051  0.8085  0.1236  0.7657
  932MOL0     O25686   9.820   9.889   8.558 -0.1737  0.1997  0.5964
  932MOL0     C25687   9.758   9.932   8.650  0.7156 -0.2257  0.2167
  932MOL0     O25688   9.797   9.933   8.786 -0.7194  0.0620  0.3366
  932MOL0     C25689   9.885   9.840   8.846  0.0977  0.1442 -0.4892
  932MOL0     C25690   9.868   9.790   8.971  0.1431  0.3949 -1.0664
  932MOL0     C25691   9.963   9.701   9.037 -0.2096 -0.1961 -0.0160
  932MOL0     C25692  10.079   9.661   8.961  0.1296 -0.5575 -0.0478
  932MOL0     O25693  10.184   9.599   9.013 -0.0824 -0.2834  0.3014
  932MOL0     C25694  10.200   9.631   9.151 -0.0933 -0.0394  0.3258
  932MOL0     C25695  10.342   9.588   9.190  0.4067  0.0036 -0.2409
  932MOL0     C25696  10.442   9.684   9.127  0.0615  0.2760  0.0112
  932MOL0     C25697  10.583   9.651   9.183 -0.2329 -0.2662  0.4029
  932MOL0     C25698  10.703   9.719   9.105  0.5608 -0.4172  0.2533
  932MOL0     C25699  10.844   9.684   9.165  0.2314 -0.1766 -0.3614
  932MOL0     C25700  10.947   9.763   9.082 -1.1107 -0.3360 -0.6237
  932MOL0     C25701  10.976   9.691   8.945 -0.0206 -0.1979  0.5664
  932MOL0     N25702  11.107   9.627   8.949  0.4486 -0.5451  0.0089
  932MOL0     C25703  11.228   9.689   8.963 -0.0592  0.1445  0.4732
  932MOL0     C25704  11.307   9.584   8.999 -0.4397 -0.4598 -0.2497
  932MOL0     C25705  11.447   9.585   9.061  0.1296  0.0152  1.2185
  932MOL0     C25706  11.537   9.477   9.014 -0.1438  0.1727 -0.5147
  932MOL0     C25707  11.672   9.483   9.087  0.8517  0.0717 -0.2080
  932MOL0     C25708  11.758   9.362   9.044 -0.4795  1.0049 -0.5883
  932MOL0     O25709  11.875   9.377   9.121 -0.3062 -0.2842  0.1874
  932MOL0     C25710  11.990   9.316   9.086 -0.5588 -0.1508 -0.0896
  932MOL0     C25711  12.098   9.357   9.162  0.2410 -0.5902 -0.5097
  932MOL0     C25712  12.223   9.314   9.130  0.4157  1.2732 -0.3337
  932MOL0     C25713  12.243   9.219   9.027 -0.9061  0.1987  0.0610
  932MOL0     C25714  12.374   9.170   8.992 -0.8622  0.6952 -0.0177
  932MOL0     O25715  12.474   9.257   9.019 -0.6542  0.1003 -0.4161
  932MOL0     C25716  12.601   9.236   8.983  0.4917 -0.3126 -0.3734
  932MOL0     C25717  12.659   9.322   8.892 -0.6447  0.0188  0.0011
  932MOL0     C25718  12.780   9.269   8.838  0.3640  0.1444  0.0629
  932MOL0     C25719  12.837   9.149   8.863  0.5574  0.4764 -0.1946
  932MOL0     O25720  12.961   9.104   8.822  0.2711 -0.2732  0.5007
  932MOL0     C25721  12.987   8.968   8.787  0.3880  0.2216 -0.5857
  932MOL0     C25722  13.067   8.877   8.877  0.4081  0.7349  0.5325
  932MOL0     C25723  13.222   8.913   8.887 -0.3605  0.2797  0.3015
  932MOL0     C25724  13.288   8.843   9.004 -0.2924 -0.5481  0.3071
  932MOL0     C25725  13.436   8.890   9.029 -0.1336 -0.3887 -0.0015
  932MOL0     C25726  13.520   8.809   9.124  0.1324  0.8972  0.0287
  932MOL0     C25727  13.673   8.839   9.123  0.3101 -0.3808 -0.4945
  932MOL0     C25728  13.743   8.809   9.258 -0.2169  0.4592  0.1623
  932MOL0    Cl25729  13.744   8.622   9.257  0.3421 -0.2315 -0.4876
  932MOL0     C25730  12.774   9.070   8.962  0.4438 -0.1715 -0.2392
  932MOL0     C25731  12.654   9.113   9.021 -0.7118 -0.0646  0.5365
  932MOL0     O25732  12.387   9.071   8.920  0.5833 -0.5366 -0.3111
  932MOL0     C25733  12.137   9.174   8.950  0.0113 -0.5225  0.1231
  932MOL0     C25734  12.007   9.221   8.985  0.4242  0.4776 -0.3153
  932MOL0     N25735  11.235   9.468   9.001 -0.4960  0.0512 -0.2150
  932MOL0     N25736  11.118   9.495   8.965  0.0927 -0.0133 -0.4192
  932MOL0     C25737  10.098   9.721   8.841  0.5232  0.4271  0.2978
  932MOL0     C25738  10.012   9.815   8.778  1.0217 -0.2926 -0.1000
  932MOL0     C25739   9.628   9.982   8.614  1.4824 -0.2913 -1.2607
  932MOL0     C25740   9.537   9.983   8.719 -0.3612 -0.0397  0.6506
  932MOL0     C25741   9.405  10.019   8.695 -0.1918  0.0542  0.5488
  932MOL0     C25742   9.364  10.070   8.577  0.1488 -0.7537  0.5428
  932MOL0     O25743   9.231  10.106   8.551  1.0079  0.6915 -1.2549
  932MOL0     C25744   9.119  10.072   8.635 -0.5515  0.4263  0.4122
  932MOL0     C25745   8.995  10.130   8.566  0.5961 -0.5201  0.2499
  932MOL0     C25746   8.874  10.077   8.646 -0.2546  0.5554 -0.1318
  932MOL0     C25747   8.729  10.122   8.620 -0.6394 -0.2396 -0.1435
  932MOL0     C25748   8.638  10.071   8.720 -0.1921  0.5688 -0.5165
  932MOL0     C25749   8.555  10.019   8.789 -0.4280  0.4448 -0.1552
  932MOL0     C25750   9.459  10.106   8.482 -0.2684  1.0254 -0.4828
  932MOL0     C25751   9.593  10.051   8.497  0.1840  0.5649  0.8115
  932MOL0     C25752   9.687  10.074   8.383  0.1912 -0.3404 -0.5430
  932MOL0     H25753   9.775   9.815   9.021  0.0407 -0.3845 -0.8559
  932MOL0     H25754   9.941   9.670   9.138 -1.2703 -1.9757 -0.7647
  932MOL0     H25755  10.192   9.737   9.177 -0.2090  0.5865 -1.9957
  932MOL0     H25756  10.133   9.565   9.207  3.1422 -1.8839  2.3811
  932MOL0     H25757  10.359   9.490   9.144  1.5429 -1.5419  3.1819
  932MOL0     H25758  10.362   9.585   9.297  1.1241 -1.9492 -0.3874
  932MOL0     H25759  10.412   9.783   9.162 -0.0924  0.3101 -0.2163
  932MOL0     H25760  10.434   9.669   9.019  1.9817 -2.3554  0.1232
  932MOL0     H25761  10.578   9.679   9.289  0.4490  0.5961  0.2175
  932MOL0     H25762  10.602   9.544   9.171  0.7937 -0.0059 -0.4474
  932MOL0     H25763  10.687   9.711   8.997  0.5347 -2.2790  0.3709
  932MOL0     H25764  10.692   9.827   9.121  0.4797 -0.1058 -1.7198
  932MOL0     H25765  10.848   9.709   9.271  2.7716  0.0227 -0.4279
  932MOL0     H25766  10.865   9.577   9.152 -0.6364 -0.2824 -1.0110
  932MOL0     H25767  11.033   9.793   9.142 -1.9618  2.2938 -0.5818
  932MOL0     H25768  10.909   9.861   9.051  0.0382  0.2157 -0.3267
  932MOL0     H25769  10.895   9.620   8.926 -2.7757  2.4551  1.5648
  932MOL0     H25770  10.974   9.767   8.867  1.4687  1.1628  1.7849
  932MOL0     H25771  11.250   9.795   8.968 -0.1449  0.2111 -0.5039
  932MOL0     H25772  11.501   9.680   9.050 -0.3386  0.1902  0.2701
  932MOL0     H25773  11.434   9.565   9.167  1.7619 -0.8036  1.2902
  932MOL0     H25774  11.479   9.387   9.038  0.1024 -0.4515 -2.1023
  932MOL0     H25775  11.545   9.476   8.905 -1.1250 -2.1477 -0.6345
  932MOL0     H25776  11.641   9.474   9.191  0.3422  0.9915 -0.2715
  932MOL0     H25777  11.728   9.576   9.073  0.6556  0.3924  1.0669
  932MOL0     H25778  11.762   9.367   8.934 -0.0735  1.9829 -0.5425
  932MOL0     H25779  11.712   9.268   9.075 -3.6506  2.4982 -0.3653
  932MOL0     H25780  12.074   9.425   9.243  1.4097  1.4729 -1.7901
  932MOL0     H25781  12.300   9.363   9.190  0.0109  2.6699 -0.9149
  932MOL0     H25782  12.613   9.410   8.847 -0.8155  2.0348  3.6960
  932MOL0     H25783  12.830   9.335   8.768 -1.2830  0.4269 -0.8966
  932MOL0     H25784  12.894   8.913   8.767  0.2960  0.1518  0.0139
  932MOL0     H25785  13.040   8.966   8.691 -0.9159 -0.3083 -1.3179
  932MOL0     H25786  13.020   8.871   8.975 -1.7646 -1.3853 -0.5240
  932MOL0     H25787  13.066   8.775   8.838  0.6895  0.4040  1.3827
  932MOL0     H25788  13.270   8.882   8.793 -1.7895  0.4125 -0.5039
  932MOL0     H25789  13.231   9.022   8.892  0.1121  0.2249  0.7461
  932MOL0     H25790  13.292   8.734   8.996  1.6338 -0.4361 -0.8447
  932MOL0     H25791  13.244   8.865   9.102 -0.0044  2.6455 -0.1604
  932MOL0     H25792  13.441   8.989   9.073  1.4151 -0.5724  0.2788
  932MOL0     H25793  13.479   8.893   8.928 -2.4113  1.0914 -1.0038
  932MOL0     H25794  13.485   8.828   9.226 -0.2040 -0.9442  0.2932
  932MOL0     H25795  13.509   8.701   9.109  1.3282  0.4694  1.8524
  932MOL0     H25796  13.692   8.945   9.104 -3.2368  0.2986 -1.0585
  932MOL0     H25797  13.705   8.786   9.033 -2.4777 -0.4220 -1.5705
  932MOL0     H25798  13.843   8.852   9.271 -1.3687  3.2713  0.4067
  932MOL0     H25799  13.689   8.855   9.341  0.6506 -0.3987  1.2381
  932MOL0     H25800  12.813   8.978   9.003  2.2840  0.7193  0.1055
  932MOL0     H25801  12.612   9.048   9.097  0.5420  0.3992  1.6720
  932MOL0     H25802  12.153   9.085   8.890  0.5022 -2.4693  2.9419
  932MOL0     H25803  11.914   9.180   8.950  0.4732 -0.9361  1.1087
  932MOL0     H25804  10.193   9.706   8.791 -0.6268 -0.7661 -1.6203
  932MOL0     H25805  10.036   9.859   8.682 -1.1068 -1.4106 -1.2193
  932MOL0     H25806   9.547   9.953   8.823 -2.1574  1.2441  1.2560
  932MOL0     H25807   9.331  10.015   8.775 -1.8920 -2.4139 -1.0043
  932MOL0     H25808   9.135  10.114   8.734  1.1941 -3.5810  2.0712
  932MOL0     H25809   9.119   9.965   8.655  0.9309 -0.1171 -1.9898
  932MOL0     H25810   8.990  10.093   8.463 -0.3357 -2.4164  0.9328
  932MOL0     H25811   8.988  10.239   8.576 -3.9352 -0.5496 -0.1944
  932MOL0     H25812   8.889  10.107   8.749  0.2983  0.8806 -0.3055
  932MOL0     H25813   8.869   9.968   8.640  0.5887  0.5121 -0.1178
  932MOL0     H25814   8.743  10.231   8.616 -1.1191 -0.1361  0.7737
  932MOL0     H25815   8.700  10.099   8.517 -0.5046 -0.1423 -0.2042
  932MOL0     H25816   8.475   9.966   8.837 -0.1309 -0.0981 -0.2530
  932MOL0     H25817   9.427  10.153   8.390 -0.5850 -0.6014 -1.2475
  932MOL0     H25818   9.712   9.986   8.323 -1.0964 -0.4902 -0.8848
  932MOL0     H25819   9.645  10.148   8.314 -0.6608 -0.0340  0.2804
  932MOL0     H25820   9.785  10.107   8.419  1.0415 -0.7698 -2.3568
  933MOL0     O25821   8.665  11.207  10.058 -0.7526  0.0252 -0.1004
  933MOL0     C25822   8.598  11.174  10.153  0.3248 -0.5741 -0.0285
  933MOL0     O25823   8.643  11.163  10.279 -0.7736 -0.4395 -0.3178
  933MOL0     C25824   8.777  11.195  10.311 -0.4636 -0.1825  0.5741
  933MOL0     C25825   8.877  11.096  10.302 -0.7727 -0.1502 -0.8486
  933MOL0     C25826   8.999  11.123  10.357 -0.1744  0.4448 -0.0034
  933MOL0     C25827   9.028  11.240  10.429  0.2861  0.1843  0.1857
  933MOL0     O25828   9.146  11.242  10.494  0.2093  0.1118  0.5052
  933MOL0     C25829   9.161  11.351  10.584 -0.1263 -0.8927 -0.6221
  933MOL0     C25830   9.291  11.315  10.662 -0.5275  0.1622  0.4183
  933MOL0     C25831   9.326  11.433  10.755 -0.0462  0.3307 -0.0473
  933MOL0     C25832   9.455  11.409  10.833 -0.4767  0.4377  0.4387
  933MOL0     C25833   9.429  11.290  10.929 -0.4298 -0.3821  0.4379
  933MOL0     C25834   9.528  11.298  11.043  0.0100  0.0633  0.4899
  933MOL0     C25835   9.540  11.170  11.112  1.1071 -0.3389  0.4145
  933MOL0     C25836   9.639  11.184  11.229 -0.0303  0.6085  0.5002
  933MOL0     N25837   9.778  11.208  11.172 -0.0930  0.7073 -0.3516
  933MOL0     C25838   9.869  11.104  11.155 -0.3369 -0.2013  0.1012
  933MOL0     C25839   9.990  11.162  11.126  0.5862 -0.8354  0.4485
  933MOL0     C25840  10.124  11.104  11.103 -0.1856 -0.3802  0.0164
  933MOL0     C25841  10.142  10.955  11.086  0.2296 -0.1819 -0.3593
  933MOL0     C25842  10.271  10.910  11.155  0.1450 -0.9218  0.8933
  933MOL0     C25843  10.285  10.767  11.143 -0.8866 -0.4026  0.8340
  933MOL0     O25844  10.388  10.717  11.232  1.2475 -0.5013 -0.4391
  933MOL0     C25845  10.520  10.728  11.193  0.1446  0.0038  0.3354
  933MOL0     C25846  10.564  10.783  11.071  0.2700 -0.6481 -0.3678
  933MOL0     C25847  10.696  10.792  11.037 -0.6912  0.4053  0.9216
  933MOL0     C25848  10.798  10.742  11.126 -0.3026 -0.9408 -0.2290
  933MOL0     C25849  10.937  10.758  11.094 -0.0272 -0.6399  0.1535
  933MOL0     O25850  10.974  10.805  10.970 -0.1030  0.3084 -0.0539
  933MOL0     C25851  11.106  10.794  10.945  0.0506 -0.3066  0.0493
  933MOL0     C25852  11.151  10.677  10.874 -0.3605  0.7848 -0.1150
  933MOL0     C25853  11.293  10.648  10.861  0.7334  0.4047  0.3953
  933MOL0     C25854  11.386  10.760  10.897  0.1591 -0.2851  1.0276
  933MOL0     O25855  11.510  10.746  10.852 -0.1779  0.0427  0.3309
  933MOL0     C25856  11.617  10.844  10.888 -0.0693 -0.2590  0.3391
  933MOL0     C25857  11.753  10.772  10.874 -0.0833 -0.7165  0.4848
  933MOL0     C25858  11.862  10.884  10.909  0.0311 -0.5934  0.3191
  933MOL0     C25859  12.003  10.822  10.916 -0.9734  0.8088  0.5142
  933MOL0     C25860  12.096  10.925  10.989  0.1902 -0.3117  0.4878
  933MOL0     C25861  12.248  10.868  11.017  0.2179  0.4693  0.2771
  933MOL0     C25862  12.330  10.844  10.891 -0.4329  0.2512 -0.6355
  933MOL0     C25863  12.467  10.791  10.928  0.0521 -0.4824 -0.1617
  933MOL0    Cl25864  12.477  10.649  11.037  0.4439 -0.0385 -0.0307
  933MOL0     C25865  11.326  10.874  10.965  0.4529 -0.5641  0.1819
  933MOL0     C25866  11.188  10.894  10.995 -0.0227  0.4911  0.4327
  933MOL0     O25867  11.011  10.728  11.188 -0.4292  0.0636 -0.2287
  933MOL0     C25868  10.756  10.682  11.252  0.3454  0.0403 -0.3127
  933MOL0     C25869  10.618  10.672  11.280  0.4636 -0.2499  0.6026
  933MOL0     N25870   9.962  11.300  11.104  0.5352  0.0765 -0.4874
  933MOL0     N25871   9.833  11.323  11.138 -0.7395 -0.1429  0.3753
  933MOL0     C25872   8.928  11.336  10.430  0.0312 -0.7050  0.5345
  933MOL0     C25873   8.798  11.306  10.381 -0.0765 -0.2225 -0.0124
  933MOL0     C25874   8.456  11.137  10.135 -0.5575 -1.2170  0.6115
  933MOL0     C25875   8.406  11.038  10.225 -0.1959 -0.7656  0.5042
  933MOL0     C25876   8.272  11.010  10.215 -0.0363 -0.5177  0.2035
  933MOL0     C25877   8.187  11.059  10.116 -0.3013 -0.0439  0.3794
  933MOL0     O25878   8.057  11.002  10.097 -0.0200 -0.0050 -0.1598
  933MOL0     C25879   8.041  10.862  10.121 -0.4367 -0.6699  0.1217
  933MOL0     C25880   8.104  10.772  10.017  0.0155 -0.4402  0.9935
  933MOL0     C25881   8.049  10.627  10.032  0.5922  0.2713 -0.6112
  933MOL0     C25882   8.117  10.527   9.944 -1.0263 -0.1161 -0.0007
  933MOL0     C25883   8.260  10.500   9.970  0.0793 -0.1162  0.1834
  933MOL0     C25884   8.376  10.473   9.989  0.7255 -0.0113  0.0014
  933MOL0     C25885   8.239  11.149  10.021  0.9140 -0.7832  0.5675
  933MOL0     C25886   8.371  11.197  10.033 -0.0187  0.0430  0.4767
  933MOL0     C25887   8.414  11.310   9.939 -0.2144 -0.3982  0.1103
  933MOL0     H25888   8.859  11.002  10.250 -0.7342 -1.3784  1.2481
  933MOL0     H25889   9.081  11.051  10.356 -0.0521  0.5837 -0.8144
  933MOL0     H25890   9.179  11.443  10.529  0.6405  0.6375  1.9717
  933MOL0     H25891   9.077  11.365  10.653  1.6730  1.3494  1.2867
  933MOL0     H25892   9.365  11.295  10.584 -2.3399 -0.8910 -1.1143
  933MOL0     H25893   9.263  11.224  10.715  0.4141 -0.6691 -0.4635
  933MOL0     H25894   9.242  11.457  10.821 -0.5753 -2.5510  0.4411
  933MOL0     H25895   9.342  11.525  10.698  1.2721  0.8615  1.1322
  933MOL0     H25896   9.546  11.395  10.775  0.1694  0.6057  1.3833
  933MOL0     H25897   9.464  11.505  10.885 -0.8238  1.7835 -1.8664
  933MOL0     H25898   9.330  11.284  10.975 -1.2519 -0.9965 -1.3396
  933MOL0     H25899   9.440  11.199  10.870  0.6305  0.8535 -1.3889
  933MOL0     H25900   9.624  11.329  11.001  0.1400 -0.9102  0.0350
  933MOL0     H25901   9.497  11.380  11.109  1.2891  1.6108 -0.7750
  933MOL0     H25902   9.575  11.096  11.040  0.2564  0.6804 -1.0875
  933MOL0     H25903   9.442  11.143  11.154  0.0377  0.1982 -1.6139
  933MOL0     H25904   9.611  11.265  11.298  0.8219  0.9037  0.5130
  933MOL0     H25905   9.630  11.091  11.285 -1.2951  0.9869  0.9786
  933MOL0     H25906   9.847  11.001  11.180 -0.8774  0.1869  1.3121
  933MOL0     H25907  10.159  11.156  11.013  0.3202 -2.6783 -1.1879
  933MOL0     H25908  10.183  11.138  11.189  0.0827 -2.1916  0.5978
  933MOL0     H25909  10.057  10.910  11.138  1.3257  0.9598  2.6723
  933MOL0     H25910  10.134  10.930  10.980  1.3090  0.4979 -0.6203
  933MOL0     H25911  10.265  10.937  11.260  2.7009  1.3839  0.5761
  933MOL0     H25912  10.362  10.963  11.125  0.3472 -0.6172  2.0096
  933MOL0     H25913  10.301  10.729  11.042  0.4016  0.8832  0.5183
  933MOL0     H25914  10.189  10.726  11.175  0.3299 -2.1639  2.5451
  933MOL0     H25915  10.483  10.813  11.005  0.5931  1.4127  0.1192
  933MOL0     H25916  10.711  10.845  10.943 -2.5409 -1.7556 -0.7035
  933MOL0     H25917  11.085  10.598  10.840 -1.6182  1.0689  1.5568
  933MOL0     H25918  11.320  10.555  10.811  0.4794  1.1554 -1.2195
  933MOL0     H25919  11.620  10.919  10.808 -0.6963 -0.2661  0.3110
  933MOL0     H25920  11.609  10.874  10.993 -0.8330 -0.9104  0.4758
  933MOL0     H25921  11.756  10.691  10.948  0.1433 -2.8206 -1.7019
  933MOL0     H25922  11.768  10.739  10.771  1.0834 -0.3652  0.5240
  933MOL0     H25923  11.867  10.956  10.827 -3.8173 -0.7683 -0.2516
  933MOL0     H25924  11.832  10.928  11.005 -0.6117 -0.9125  0.2754
  933MOL0     H25925  12.032  10.806  10.811 -0.8111 -0.3982  0.7264
  933MOL0     H25926  11.996  10.725  10.966  0.6796  0.3614 -0.0324
  933MOL0     H25927  12.046  10.943  11.084 -0.2758  0.3951  0.1108
  933MOL0     H25928  12.097  11.018  10.931 -2.0124  0.1289  1.0823
  933MOL0     H25929  12.296  10.929  11.094 -1.9763 -1.2575  3.2133
  933MOL0     H25930  12.236  10.771  11.066 -0.3970  1.7096  2.7355
  933MOL0     H25931  12.341  10.940  10.839  1.6911 -0.4631 -1.6117
  933MOL0     H25932  12.282  10.771  10.826 -0.4616  0.2051 -0.5635
  933MOL0     H25933  12.518  10.762  10.835 -0.2807 -2.4275  0.2213
  933MOL0     H25934  12.519  10.870  10.984 -0.6383 -0.7199  0.8453
  933MOL0     H25935  11.391  10.949  11.009 -0.7426 -0.6631  2.2403
  933MOL0     H25936  11.164  10.987  11.045 -0.9210  2.9180 -4.0415
  933MOL0     H25937  10.828  10.641  11.322  0.0218 -0.8800 -0.4977
  933MOL0     H25938  10.583  10.628  11.373 -1.2202  1.2656  0.7327
  933MOL0     H25939   8.934  11.431  10.482  0.5236  1.2260 -2.7744
  933MOL0     H25940   8.715  11.373  10.397 -0.7549 -0.7816 -1.0443
  933MOL0     H25941   8.464  11.002  10.310 -1.0344 -3.0055  0.1857
  933MOL0     H25942   8.232  10.954  10.299  0.1684 -0.8905  0.0540
  933MOL0     H25943   7.934  10.840  10.132 -0.3500 -0.7122  0.9202
  933MOL0     H25944   8.085  10.832  10.217  0.9875 -0.1775 -0.3554
  933MOL0     H25945   8.210  10.774  10.042  0.2846  1.4281 -0.1436
  933MOL0     H25946   8.085  10.811   9.917  1.1097 -2.4005 -0.0493
  933MOL0     H25947   7.941  10.632  10.012  0.9801  0.6951 -2.9265
  933MOL0     H25948   8.060  10.595  10.136  1.8798  0.3602 -0.7091
  933MOL0     H25949   8.066  10.430   9.942 -0.3131 -0.4856 -0.7459
  933MOL0     H25950   8.107  10.554   9.839 -0.3792  1.9353  0.4267
  933MOL0     H25951   8.479  10.446  10.003  0.5927 -1.3693 -1.4017
  933MOL0     H25952   8.168  11.179   9.945  0.7293 -1.1988  0.5765
  933MOL0     H25953   8.472  11.374  10.006  0.2530 -2.0897  1.3743
  933MOL0     H25954   8.476  11.284   9.853 -0.0641  1.7994 -0.5027
  933MOL0     H25955   8.326  11.366   9.906 -1.6227 -2.1713  0.6850
  934MOL0     O25956   9.184   4.448   6.284  0.0159  0.1764 -0.2964
  934MOL0     C25957   9.167   4.551   6.223  0.3551  0.0290 -0.1430
  934MOL0     O25958   9.255   4.655   6.207 -0.1220 -0.0028 -0.2088
  934MOL0     C25959   9.344   4.669   6.310  0.1850 -0.4072  0.7567
  934MOL0     C25960   9.307   4.688   6.435 -0.2814 -0.6122 -0.0873
  934MOL0     C25961   9.403   4.699   6.537  0.0070 -0.5239  0.5728
  934MOL0     C25962   9.543   4.704   6.511  0.1562 -0.0209  0.5546
  934MOL0     O25963   9.633   4.714   6.618  0.4160  1.4094  0.4051
  934MOL0     C25964   9.774   4.701   6.585 -0.4113  0.1693 -0.7668
  934MOL0     C25965   9.864   4.753   6.694 -0.0109 -0.2711  0.3225
  934MOL0     C25966   9.853   4.670   6.818 -0.0365  0.0059  0.6883
  934MOL0     C25967   9.949   4.727   6.920 -0.3460  0.6234  0.2187
  934MOL0     C25968   9.950   4.671   7.049  0.4928  0.9607  0.2660
  934MOL0     C25969  10.045   4.553   7.057  0.2316  0.0602  0.1433
  934MOL0     C25970  10.071   4.501   7.205 -0.5022 -0.8646  0.4832
  934MOL0     C25971  10.162   4.605   7.295  0.6791  1.0731  0.5230
  934MOL0     N25972  10.249   4.538   7.400  0.8433 -1.0605 -0.3455
  934MOL0     C25973  10.347   4.448   7.368 -0.6578 -0.3034  0.1135
  934MOL0     C25974  10.384   4.402   7.496  0.1747 -0.2346  0.4147
  934MOL0     C25975  10.496   4.306   7.522 -0.0812 -0.1489 -0.6203
  934MOL0     C25976  10.630   4.385   7.535  0.5265 -0.6345 -0.5009
  934MOL0     C25977  10.746   4.295   7.514  0.5389 -0.3492  0.4601
  934MOL0     C25978  10.880   4.369   7.536  0.2716 -0.0084 -0.3497
  934MOL0     O25979  10.892   4.411   7.666 -0.3263 -0.0343  0.5703
  934MOL0     C25980  11.008   4.471   7.697 -0.2951 -0.4961  0.2778
  934MOL0     C25981  11.095   4.417   7.788  0.2705 -0.2108 -0.3652
  934MOL0     C25982  11.222   4.468   7.826 -0.1580 -0.2309  0.3740
  934MOL0     C25983  11.267   4.590   7.765 -0.6593  0.3051 -0.3227
  934MOL0     C25984  11.403   4.639   7.775  0.6407  0.0119 -0.6498
  934MOL0     O25985  11.433   4.735   7.687 -0.7851  0.1236 -0.2119
  934MOL0     C25986  11.556   4.796   7.694  0.2260  0.2357  0.4396
  934MOL0     C25987  11.561   4.932   7.661  0.2708  0.0526  0.0569
  934MOL0     C25988  11.687   4.987   7.629  0.1863  0.3611  0.0335
  934MOL0     C25989  11.809   4.926   7.651  0.5795 -0.3719  0.2528
  934MOL0     O25990  11.918   5.005   7.625  0.3107 -0.2311 -0.1027
  934MOL0     C25991  12.044   4.939   7.629 -0.5859  0.2419  0.0573
  934MOL0     C25992  12.145   5.019   7.567 -0.0817 -0.2373 -0.4774
  934MOL0     C25993  12.285   4.969   7.527 -0.3938  0.2173 -0.9282
  934MOL0     C25994  12.329   5.047   7.396  0.6882  0.7863 -0.2624
  934MOL0     C25995  12.473   5.044   7.354  0.2293 -0.2731  0.2070
  934MOL0     C25996  12.535   4.904   7.355 -0.1655 -0.0764  0.0505
  934MOL0     C25997  12.687   4.917   7.335 -0.1558  0.1607  0.3252
  934MOL0     C25998  12.757   4.776   7.297  0.2792  0.0623 -0.5083
  934MOL0    Cl25999  12.928   4.803   7.333  0.1612 -0.0377  0.3271
  934MOL0     C26000  11.803   4.793   7.688 -0.6735  1.2585  1.3935
  934MOL0     C26001  11.679   4.727   7.708 -0.3313 -0.2737  0.5343
  934MOL0     O26002  11.481   4.580   7.849 -0.1970 -0.4057 -0.2112
  934MOL0     C26003  11.181   4.647   7.674 -0.0381  0.6543 -0.4262
  934MOL0     C26004  11.054   4.595   7.646 -0.6651  0.6725  0.8367
  934MOL0     N26005  10.307   4.459   7.591 -0.1096 -0.6852  0.4662
  934MOL0     N26006  10.233   4.549   7.535 -0.2801  0.7063  0.5581
  934MOL0     C26007   9.578   4.678   6.377  0.2409  0.1659 -0.3842
  934MOL0     C26008   9.477   4.670   6.273 -0.5241  0.7015 -1.1376
  934MOL0     C26009   9.041   4.583   6.145  0.8321 -0.2337  0.3978
  934MOL0     C26010   9.046   4.688   6.051 -0.3696 -0.6509  0.3240
  934MOL0     C26011   8.933   4.735   5.980 -0.0319 -0.1898 -0.2420
  934MOL0     C26012   8.802   4.688   6.012 -0.2828  0.5421  0.0906
  934MOL0     O26013   8.691   4.721   5.942  1.0485 -0.3786 -0.6650
  934MOL0     C26014   8.690   4.821   5.841  0.2354  0.8682 -0.3442
  934MOL0     C26015   8.540   4.835   5.796  0.5068  0.0718  0.9876
  934MOL0     C26016   8.448   4.897   5.899  1.1956 -0.1627  0.4178
  934MOL0     C26017   8.338   4.810   5.962 -0.1290 -0.2101 -0.3708
  934MOL0     C26018   8.385   4.688   6.022  0.1219  0.4667 -0.6368
  934MOL0     C26019   8.410   4.588   6.084 -0.6640 -0.4122 -0.1920
  934MOL0     C26020   8.798   4.588   6.109 -0.3238  0.7215  0.2460
  934MOL0     C26021   8.915   4.536   6.171 -0.4480  0.9854 -0.2899
  934MOL0     C26022   8.899   4.429   6.270 -0.1623  0.5783  0.1402
  934MOL0     H26023   9.204   4.705   6.464  0.2711  0.5196  1.3434
  934MOL0     H26024   9.362   4.719   6.635  0.0054  0.6550  0.3436
  934MOL0     H26025   9.791   4.595   6.565 -1.0159 -0.3968  1.3852
  934MOL0     H26026   9.791   4.760   6.495 -2.3984 -0.5434 -1.6677
  934MOL0     H26027   9.842   4.858   6.715  2.3033  0.4454 -0.5675
  934MOL0     H26028   9.964   4.734   6.655 -0.4161  0.3405 -1.0481
  934MOL0     H26029   9.872   4.565   6.791 -2.0823  0.4308 -3.1076
  934MOL0     H26030   9.751   4.677   6.857 -0.0048  0.3265  0.7141
  934MOL0     H26031  10.044   4.698   6.874 -0.8144 -0.5460 -0.0471
  934MOL0     H26032   9.935   4.836   6.920 -1.6236  0.4968 -1.6047
  934MOL0     H26033   9.983   4.746   7.122  0.9008 -1.6831  3.0096
  934MOL0     H26034   9.852   4.634   7.081  0.8467  1.5838  2.2142
  934MOL0     H26035   9.989   4.471   7.010 -1.5686  0.0805  2.0685
  934MOL0     H26036  10.139   4.583   7.009  0.4215 -0.8768 -0.0883
  934MOL0     H26037  10.122   4.405   7.200  0.0370 -0.5436 -0.6147
  934MOL0     H26038   9.974   4.486   7.253 -0.7102  0.3697  0.4820
  934MOL0     H26039  10.231   4.655   7.226  1.3867 -0.5431  0.0032
  934MOL0     H26040  10.092   4.669   7.349 -1.2250 -1.3225  1.0472
  934MOL0     H26041  10.400   4.412   7.280  1.8174  1.1128  0.9213
  934MOL0     H26042  10.478   4.259   7.619 -0.6367  3.4392  1.2063
  934MOL0     H26043  10.508   4.234   7.441 -0.5688 -1.9026  0.8245
  934MOL0     H26044  10.622   4.471   7.469  1.1348 -0.0525  0.1680
  934MOL0     H26045  10.639   4.422   7.637  2.1094  0.8752 -1.1508
  934MOL0     H26046  10.731   4.262   7.411 -2.5087  1.7384  0.1161
  934MOL0     H26047  10.726   4.214   7.585 -2.0918  0.0217  0.2207
  934MOL0     H26048  10.875   4.453   7.467 -1.3852  0.2747  0.0877
  934MOL0     H26049  10.970   4.319   7.498  1.3974  1.5633  0.1303
  934MOL0     H26050  11.058   4.322   7.827 -3.1481  0.4890 -1.6096
  934MOL0     H26051  11.283   4.412   7.897 -2.3120 -0.7547  1.9218
  934MOL0     H26052  11.465   4.981   7.649 -0.1733 -0.7138  0.3528
  934MOL0     H26053  11.680   5.085   7.583 -1.9984  0.8340  1.2605
  934MOL0     H26054  12.060   4.916   7.735 -0.5260  1.7577  0.4013
  934MOL0     H26055  12.045   4.850   7.566 -0.3251  0.9521 -0.9674
  934MOL0     H26056  12.095   5.072   7.486  0.5600 -0.5970 -1.1270
  934MOL0     H26057  12.168   5.100   7.637 -2.8678  1.4192 -1.3663
  934MOL0     H26058  12.364   4.965   7.602 -0.4823 -2.4336 -0.9038
  934MOL0     H26059  12.276   4.863   7.502  2.8124 -0.5223  0.5185
  934MOL0     H26060  12.298   5.152   7.405 -1.3016  0.1964  0.3456
  934MOL0     H26061  12.271   5.003   7.314  2.6837 -2.6511 -0.0362
  934MOL0     H26062  12.527   5.089   7.437  0.6354 -1.8434  0.8261
  934MOL0     H26063  12.481   5.093   7.256  2.0210  0.2261  0.5682
  934MOL0     H26064  12.519   4.849   7.448 -0.5191  1.8698  1.1872
  934MOL0     H26065  12.492   4.851   7.269 -2.7514  0.6957  0.7840
  934MOL0     H26066  12.729   4.967   7.422 -2.4860  3.2514 -0.1562
  934MOL0     H26067  12.702   4.974   7.243 -0.6866 -0.5371 -0.2115
  934MOL0     H26068  12.718   4.696   7.361  0.3351  0.4329 -0.0129
  934MOL0     H26069  12.747   4.740   7.194 -0.0132 -1.1446 -0.0817
  934MOL0     H26070  11.892   4.731   7.696 -1.1067 -0.0187 -2.0412
  934MOL0     H26071  11.687   4.619   7.717  0.8586 -0.1703  0.9749
  934MOL0     H26072  11.198   4.738   7.618 -0.5138 -1.0670 -3.5539
  934MOL0     H26073  10.980   4.632   7.576  0.3320 -0.0016 -0.6352
  934MOL0     H26074   9.685   4.673   6.356  1.2350  0.4374  3.7818
  934MOL0     H26075   9.517   4.637   6.178  1.0524 -0.2127 -0.1968
  934MOL0     H26076   9.146   4.726   6.030  0.5719 -0.1818  4.6578
  934MOL0     H26077   8.949   4.811   5.904  1.5258  1.0421  1.2332
  934MOL0     H26078   8.753   4.781   5.761  0.3035 -0.6604  0.4405
  934MOL0     H26079   8.744   4.913   5.865  0.9253  0.0887  1.2532
  934MOL0     H26080   8.499   4.740   5.761  3.1825  0.6227 -4.7364
  934MOL0     H26081   8.552   4.904   5.712  1.8136 -1.0094  0.2362
  934MOL0     H26082   8.399   4.982   5.852  0.0473 -0.6128  0.7681
  934MOL0     H26083   8.514   4.938   5.976  0.3216  0.0356  1.0692
  934MOL0     H26084   8.283   4.870   6.036  1.3028  1.1389 -0.3543
  934MOL0     H26085   8.266   4.796   5.880 -0.7403 -0.5293  0.2094
  934MOL0     H26086   8.419   4.495   6.136 -0.8170 -0.3367 -0.0315
  934MOL0     H26087   8.696   4.557   6.128 -0.9096  0.9387 -2.2332
  934MOL0     H26088   8.942   4.455   6.367  2.0668  0.3133 -0.7290
  934MOL0     H26089   8.797   4.391   6.273 -0.0859  0.3881  0.3731
  934MOL0     H26090   8.959   4.341   6.245 -2.4695 -1.0667  0.0604
  935MOL0     O26091   9.793   0.345   8.585  0.0948 -0.1739 -0.0459
  935MOL0     C26092   9.761   0.354   8.468 -0.3431  0.0054  0.0971
  935MOL0     O26093   9.841   0.381   8.361 -0.7118  0.0675 -0.5398
  935MOL0     C26094   9.975   0.420   8.372  0.2279 -0.3789 -0.7096
  935MOL0     C26095  10.037   0.446   8.255  0.3147 -0.0026  0.0704
  935MOL0     C26096  10.166   0.499   8.251 -0.7454 -0.5120 -0.3532
  935MOL0     C26097  10.240   0.518   8.370 -0.2746 -0.5314 -0.0316
  935MOL0     O26098  10.368   0.570   8.359 -0.2771  0.4128 -0.0947
  935MOL0     C26099  10.394   0.698   8.308 -0.5996  0.2767  0.9057
  935MOL0     C26100  10.482   0.698   8.180 -0.0757 -0.1382 -0.0291
  935MOL0     C26101  10.623   0.653   8.202 -0.5246  0.1830  0.2847
  935MOL0     C26102  10.688   0.607   8.069 -0.6716 -0.3082 -0.4089
  935MOL0     C26103  10.834   0.585   8.098 -0.7629 -0.3020  0.4930
  935MOL0     C26104  10.903   0.537   7.963  0.0670  0.7466 -0.2492
  935MOL0     C26105  11.060   0.522   7.989  0.1826  0.3564 -0.5790
  935MOL0     C26106  11.127   0.422   7.900  0.5729  0.9474  0.1737
  935MOL0     N26107  11.263   0.452   7.863 -0.2559  0.2355  0.0729
  935MOL0     C26108  11.380   0.379   7.883 -0.0766  0.1771  0.2486
  935MOL0     C26109  11.473   0.437   7.811 -0.1220 -0.0134  0.3736
  935MOL0     C26110  11.627   0.404   7.812  0.6562 -0.1684  0.7293
  935MOL0     C26111  11.723   0.444   7.691 -0.0364  0.0129  0.0292
  935MOL0     C26112  11.837   0.345   7.684 -0.3877  0.6410  0.2019
  935MOL0     C26113  11.952   0.405   7.596  0.0467  0.3376 -0.0741
  935MOL0     O26114  11.998   0.539   7.627  0.4805 -0.5321 -0.0316
  935MOL0     C26115  12.098   0.567   7.717 -0.0772 -0.2276 -0.2834
  935MOL0     C26116  12.133   0.698   7.725 -1.8021 -0.4103  0.7896
  935MOL0     C26117  12.234   0.740   7.812  0.3052 -0.1087  0.1938
  935MOL0     C26118  12.292   0.647   7.897  0.0894 -0.9404 -0.7297
  935MOL0     C26119  12.398   0.691   7.995  0.5166  0.3296  0.8642
  935MOL0     O26120  12.491   0.593   8.022  0.3030  0.8368  0.4178
  935MOL0     C26121  12.618   0.628   8.058  0.5253 -0.4528  0.3556
  935MOL0     C26122  12.685   0.760   8.052  0.3790 -0.8375  0.0658
  935MOL0     C26123  12.813   0.787   8.092 -0.8051 -0.0193 -0.5877
  935MOL0     C26124  12.883   0.672   8.147  0.4516 -1.1869  0.5520
  935MOL0     O26125  13.010   0.675   8.195 -0.2970 -0.1211 -0.0074
  935MOL0     C26126  13.096   0.748   8.111 -0.2101  0.2499 -0.2907
  935MOL0     C26127  13.238   0.721   8.159 -0.2886  0.0770  1.0125
  935MOL0     C26128  13.275   0.575   8.156 -0.2852 -0.2511 -0.6258
  935MOL0     C26129  13.240   0.490   8.036  0.4955 -0.3783 -0.0629
  935MOL0     C26130  13.329   0.541   7.922  0.0653 -0.1563  0.4379
  935MOL0     C26131  13.346   0.439   7.806  0.0284 -0.7426  0.2115
  935MOL0     C26132  13.442   0.485   7.688 -0.0314  0.3690 -0.1690
  935MOL0     C26133  13.559   0.379   7.686  0.0880  0.1553 -0.6922
  935MOL0    Cl26134  13.687   0.417   7.578 -0.2793  0.1625 -0.1252
  935MOL0     C26135  12.827   0.548   8.149 -1.3584  0.3616  0.0877
  935MOL0     C26136  12.702   0.523   8.102  0.6417 -0.7632  0.0439
  935MOL0     O26137  12.389   0.809   8.039 -0.1561 -0.5186 -0.6348
  935MOL0     C26138  12.259   0.510   7.896 -0.1003  0.5081  0.9264
  935MOL0     C26139  12.159   0.473   7.807  1.1010 -0.4266  1.0505
  935MOL0     N26140  11.415   0.535   7.739 -0.8392 -0.3802  0.2193
  935MOL0     N26141  11.293   0.551   7.772 -0.0033  0.4507 -0.2086
  935MOL0     C26142  10.184   0.489   8.487  0.3545  0.3431 -0.3274
  935MOL0     C26143  10.045   0.450   8.490  0.3901  0.3724 -0.4069
  935MOL0     C26144   9.621   0.327   8.434  0.3208  0.8262  0.1822
  935MOL0     C26145   9.602   0.248   8.319 -0.6461 -0.0239 -0.1881
  935MOL0     C26146   9.476   0.202   8.278 -0.5430  0.4780 -0.7471
  935MOL0     C26147   9.363   0.228   8.359 -0.1525 -0.1909 -0.0714
  935MOL0     O26148   9.243   0.166   8.319  0.1373 -0.1994 -0.0412
  935MOL0     C26149   9.123   0.241   8.348 -0.3909  0.4954  0.7215
  935MOL0     C26150   9.038   0.187   8.460  0.3685 -0.4453 -0.1581
  935MOL0     C26151   8.928   0.079   8.432  0.5911 -0.2447 -0.5209
  935MOL0     C26152   8.856   0.031   8.549  0.2943  0.2391  0.4310
  935MOL0     C26153   8.945  -0.032   8.646  0.1228 -0.3933 -0.1797
  935MOL0     C26154   9.006  -0.080   8.737 -0.9495  0.6453 -0.5044
  935MOL0     C26155   9.386   0.304   8.483 -0.7890  0.2746 -0.1165
  935MOL0     C26156   9.516   0.361   8.514  0.1373 -0.3533  0.8029
  935MOL0     C26157   9.526   0.454   8.636 -0.6446  0.1047  0.1546
  935MOL0     H26158   9.988   0.424   8.161  1.7311  0.3754 -0.7815
  935MOL0     H26159  10.217   0.523   8.159  3.3072 -0.2278  1.7398
  935MOL0     H26160  10.295   0.732   8.277 -1.6521 -2.8107  0.5502
  935MOL0     H26161  10.433   0.761   8.389 -2.2900  0.1551  1.8720
  935MOL0     H26162  10.495   0.798   8.138 -0.4994 -0.8721 -2.0764
  935MOL0     H26163  10.426   0.640   8.105  0.0265 -1.5876  0.9728
  935MOL0     H26164  10.622   0.566   8.269 -2.9180  0.3737  0.5993
  935MOL0     H26165  10.674   0.744   8.235  0.4915 -0.8954  1.8252
  935MOL0     H26166  10.635   0.515   8.047  0.8592 -2.9703  5.1149
  935MOL0     H26167  10.676   0.683   7.991 -0.5978 -0.2133 -0.3281
  935MOL0     H26168  10.874   0.677   8.142 -1.1415 -0.3984  1.0506
  935MOL0     H26169  10.846   0.511   8.177 -0.1260 -0.8650 -0.1168
  935MOL0     H26170  10.869   0.438   7.930  0.9911 -0.2372  1.6302
  935MOL0     H26171  10.869   0.606   7.885 -2.6658 -0.9506 -0.6801
  935MOL0     H26172  11.073   0.472   8.085  1.3108  0.8987 -0.4271
  935MOL0     H26173  11.104   0.622   7.981 -2.5617  1.8406  1.2382
  935MOL0     H26174  11.127   0.323   7.945 -1.9457  0.1327 -1.4096
  935MOL0     H26175  11.067   0.414   7.809  2.8406  3.0225 -1.6738
  935MOL0     H26176  11.404   0.290   7.940 -1.8646  0.8626  2.1732
  935MOL0     H26177  11.681   0.451   7.895  1.5675 -0.7448  0.4824
  935MOL0     H26178  11.638   0.297   7.832  1.4560 -0.0524  0.9783
  935MOL0     H26179  11.664   0.440   7.599 -2.5944 -2.8136  1.5878
  935MOL0     H26180  11.767   0.541   7.716  0.0960  0.2202 -0.9740
  935MOL0     H26181  11.806   0.245   7.652 -2.1391  1.4157 -0.6292
  935MOL0     H26182  11.886   0.336   7.781  0.7836  1.8186 -0.2485
  935MOL0     H26183  11.910   0.401   7.495 -0.2594 -1.5921  0.0982
  935MOL0     H26184  12.035   0.334   7.593 -0.1324  0.1289 -0.0461
  935MOL0     H26185  12.095   0.765   7.648 -2.0901 -1.4788 -0.0198
  935MOL0     H26186  12.256   0.845   7.825 -0.8761  0.1304  0.3448
  935MOL0     H26187  12.623   0.841   8.015 -3.5900 -3.0948  1.1164
  935MOL0     H26188  12.855   0.887   8.098 -1.5341  0.2699 -0.1330
  935MOL0     H26189  13.078   0.727   8.005  1.3917 -2.3421 -0.1313
  935MOL0     H26190  13.074   0.853   8.132  0.0686  0.7706 -2.4064
  935MOL0     H26191  13.302   0.771   8.086  2.1356 -0.7205  2.4723
  935MOL0     H26192  13.248   0.761   8.260  0.9737 -1.0136  1.3541
  935MOL0     H26193  13.382   0.560   8.171 -0.6132 -5.2629 -1.4257
  935MOL0     H26194  13.236   0.528   8.246  0.4333  0.7801  0.2536
  935MOL0     H26195  13.137   0.496   7.999  0.5817  0.2664 -0.2160
  935MOL0     H26196  13.259   0.385   8.056 -3.3845 -0.9679  1.3777
  935MOL0     H26197  13.430   0.562   7.961 -0.0237  0.1912  0.4780
  935MOL0     H26198  13.277   0.627   7.880  1.0335 -0.0431 -0.5807
  935MOL0     H26199  13.378   0.342   7.847 -1.5344 -1.1194  0.6189
  935MOL0     H26200  13.244   0.422   7.771 -1.2691  2.6571  1.9085
  935MOL0     H26201  13.490   0.578   7.720  1.9144 -1.1793  1.7369
  935MOL0     H26202  13.384   0.498   7.597 -2.4631  4.3182  1.6992
  935MOL0     H26203  13.607   0.387   7.784 -3.3434 -1.2934  1.2745
  935MOL0     H26204  13.524   0.275   7.682 -0.1583  0.0019  2.6341
  935MOL0     H26205  12.895   0.478   8.196  0.2805  1.1515 -1.0223
  935MOL0     H26206  12.663   0.424   8.120  0.6405 -0.7034  0.3791
  935MOL0     H26207  12.306   0.429   7.950  1.1525  1.5563  1.4791
  935MOL0     H26208  12.136   0.367   7.812  2.5466 -0.7274  1.9595
  935MOL0     H26209  10.242   0.510   8.576 -1.1119 -0.2405  0.8131
  935MOL0     H26210   9.989   0.460   8.582 -1.3482 -1.9021 -1.1269
  935MOL0     H26211   9.688   0.229   8.255 -1.0558  0.9198 -1.0428
  935MOL0     H26212   9.464   0.128   8.199  1.2924  1.9728 -2.5373
  935MOL0     H26213   9.057   0.233   8.261 -1.2027 -1.4645  1.4460
  935MOL0     H26214   9.151   0.343   8.374 -3.3694  1.6461 -0.1173
  935MOL0     H26215   8.973   0.266   8.498  0.2025  0.8828 -2.9650
  935MOL0     H26216   9.107   0.153   8.539 -0.9581 -3.2039 -0.0804
  935MOL0     H26217   8.975  -0.011   8.391 -1.4520 -1.3479 -0.5662
  935MOL0     H26218   8.866   0.123   8.353 -3.5428 -2.9643  0.8872
  935MOL0     H26219   8.796   0.107   8.600 -2.8845 -2.4781  1.1419
  935MOL0     H26220   8.779  -0.040   8.517 -0.8020  2.4438 -2.2685
  935MOL0     H26221   9.056  -0.126   8.820 -2.0997 -4.8113 -2.4174
  935MOL0     H26222   9.304   0.333   8.547 -0.9682  1.1687 -0.7216
  935MOL0     H26223   9.434   0.493   8.680  0.1003 -0.1827  2.0351
  935MOL0     H26224   9.579   0.399   8.713  0.5210 -0.0315 -0.7215
  935MOL0     H26225   9.585   0.542   8.606  1.0579 -1.4605 -1.3199
  936MOL0     O26226   4.772   0.099   6.090 -0.1492 -0.2692 -0.0284
  936MOL0     C26227   4.686   0.090   6.179  0.4285 -1.2639  0.6457
  936MOL0     O26228   4.697   0.020   6.298  0.0201  0.1595  0.8032
  936MOL0     C26229   4.811   0.006   6.366 -0.4689 -0.2602 -0.0308
  936MOL0     C26230   4.837   0.104   6.464 -0.6669  0.3583 -0.4460
  936MOL0     C26231   4.961   0.106   6.533  0.0681  0.3691  0.3581
  936MOL0     C26232   5.058   0.013   6.494 -0.1137 -0.0633 -0.9344
  936MOL0     O26233   5.180   0.013   6.552 -0.3723  0.3970  0.4593
  936MOL0     C26234   5.223   0.124   6.634  0.6468 -0.1317 -0.3621
  936MOL0     C26235   5.378   0.104   6.658 -1.0521  1.4020 -0.8930
  936MOL0     C26236   5.429   0.198   6.763 -0.0270 -1.2116  0.4987
  936MOL0     C26237   5.583   0.172   6.773 -0.0075  0.2112  0.5017
  936MOL0     C26238   5.646   0.265   6.868  0.5479  0.7528 -0.3501
  936MOL0     C26239   5.796   0.231   6.869 -0.7750 -0.5022  0.3012
  936MOL0     C26240   5.877   0.317   6.963  0.0550 -0.4926 -0.4947
  936MOL0     C26241   6.012   0.257   6.973  0.0524 -0.0691  0.3189
  936MOL0     N26242   6.102   0.335   7.054 -0.5261  0.4782 -0.0392
  936MOL0     C26243   6.190   0.435   7.019  1.2644 -0.2884  0.5299
  936MOL0     C26244   6.258   0.461   7.131  0.7297 -0.4055 -0.8683
  936MOL0     C26245   6.375   0.552   7.151 -1.0340 -0.6924  0.1134
  936MOL0     C26246   6.511   0.466   7.153  0.0680  0.4231 -0.9495
  936MOL0     C26247   6.538   0.409   7.293  0.2229  0.0074  0.2620
  936MOL0     C26248   6.682   0.375   7.332 -0.8737 -1.0901  0.0068
  936MOL0     O26249   6.761   0.494   7.329  0.1623  0.4737  0.0545
  936MOL0     C26250   6.895   0.487   7.358  0.4619 -1.2813 -0.0295
  936MOL0     C26251   6.965   0.376   7.390 -0.5884 -0.5273 -0.3272
  936MOL0     C26252   7.104   0.374   7.416  0.3643 -1.1283  0.1830
  936MOL0     C26253   7.177   0.498   7.412  0.2037  0.7286  0.1728
  936MOL0     C26254   7.324   0.513   7.438  0.2359 -0.8188 -0.1854
  936MOL0     O26255   7.379   0.638   7.426 -0.0198  0.0407  0.4890
  936MOL0     C26256   7.507   0.660   7.468 -0.1184  0.3626  0.1980
  936MOL0     C26257   7.533   0.652   7.609  0.1948  0.2518  0.0132
  936MOL0     C26258   7.656   0.704   7.653  0.8307  0.0688  0.1521
  936MOL0     C26259   7.753   0.767   7.565 -0.9251  0.5698 -0.0929
  936MOL0     O26260   7.875   0.815   7.614  0.5044 -0.4380 -0.3214
  936MOL0     C26261   7.929   0.934   7.567  0.1539  0.4458  0.2513
  936MOL0     C26262   8.066   0.968   7.640  0.8388  0.9036  0.9240
  936MOL0     C26263   8.084   1.119   7.636  0.1940  0.6085 -0.6069
  936MOL0     C26264   8.226   1.154   7.697  0.2120 -0.1894 -0.8158
  936MOL0     C26265   8.239   1.312   7.701  0.3911  0.0208  0.8440
  936MOL0     C26266   8.347   1.360   7.794  0.1084  0.1920 -0.4034
  936MOL0     C26267   8.369   1.507   7.798  0.0615 -0.5607 -0.0921
  936MOL0     C26268   8.498   1.559   7.858  0.0191 -0.6059 -0.2188
  936MOL0    Cl26269   8.633   1.526   7.753 -0.4751  0.1069  0.2173
  936MOL0     C26270   7.726   0.764   7.429  0.7951  0.2164  0.4433
  936MOL0     C26271   7.601   0.710   7.378  0.1650 -0.3324 -0.2022
  936MOL0     O26272   7.378   0.416   7.481  0.1734 -0.1589  0.1272
  936MOL0     C26273   7.111   0.616   7.377  0.5621  0.5123  0.2026
  936MOL0     C26274   6.972   0.611   7.352 -0.2520  0.5776  0.1010
  936MOL0     N26275   6.209   0.382   7.229  0.1498  0.1555  0.7927
  936MOL0     N26276   6.117   0.308   7.184 -0.1455  0.0208  0.9274
  936MOL0     C26277   5.026  -0.081   6.406  0.3892 -0.6477 -0.1204
  936MOL0     C26278   4.906  -0.091   6.338  1.1299 -0.5658  0.2404
  936MOL0     C26279   4.539   0.133   6.143 -0.0751  1.0085  0.9311
  936MOL0     C26280   4.430   0.097   6.222  0.1144  0.2422  0.1075
  936MOL0     C26281   4.306   0.134   6.193  0.0107  0.5083  0.6397
  936MOL0     C26282   4.284   0.230   6.096  0.1549 -1.0173  0.4039
  936MOL0     O26283   4.159   0.285   6.070  0.0168  0.4999 -0.1042
  936MOL0     C26284   4.087   0.327   6.191 -0.4945  0.3093  0.8080
  936MOL0     C26285   3.968   0.234   6.227 -0.9793 -0.4454  0.1667
  936MOL0     C26286   3.829   0.294   6.174  0.6308  0.1420 -0.3840
  936MOL0     C26287   3.778   0.403   6.260 -0.1451  1.3175  0.1979
  936MOL0     C26288   3.662   0.469   6.204 -0.2332 -0.2420 -0.2882
  936MOL0     C26289   3.567   0.534   6.163  0.3402  0.2674  0.7294
  936MOL0     C26290   4.384   0.263   6.005 -0.9183 -0.3083 -0.8466
  936MOL0     C26291   4.517   0.218   6.029 -0.2273  0.7572  0.2120
  936MOL0     C26292   4.625   0.266   5.929 -0.8038 -0.1123  0.0968
  936MOL0     H26293   4.774   0.190   6.486  0.1911  1.0919 -0.7817
  936MOL0     H26294   4.965   0.190   6.602 -2.1958  0.7064  0.1826
  936MOL0     H26295   5.210   0.226   6.596  1.1852 -0.7769 -2.3978
  936MOL0     H26296   5.164   0.127   6.726 -0.9605  0.7041 -1.3750
  936MOL0     H26297   5.432   0.123   6.565 -3.2388  4.0492 -1.7326
  936MOL0     H26298   5.403   0.001   6.687  0.5475  2.3927  1.5461
  936MOL0     H26299   5.375   0.198   6.858 -3.0762  2.4198 -0.9645
  936MOL0     H26300   5.411   0.298   6.722 -2.1783 -1.9493 -0.5094
  936MOL0     H26301   5.597   0.070   6.811 -1.2415  0.0638  0.5943
  936MOL0     H26302   5.618   0.185   6.670 -1.0417 -0.4588  0.0428
  936MOL0     H26303   5.636   0.371   6.846 -0.7816  0.8829  0.7353
  936MOL0     H26304   5.598   0.256   6.966 -0.5114 -0.2917 -0.9431
  936MOL0     H26305   5.814   0.127   6.895 -0.8192 -0.3046  1.1592
  936MOL0     H26306   5.833   0.240   6.767 -1.2736 -1.7456 -0.0033
  936MOL0     H26307   5.839   0.319   7.065 -0.3362  3.1812 -0.5591
  936MOL0     H26308   5.900   0.417   6.925 -1.4575 -1.1945 -3.5735
  936MOL0     H26309   6.016   0.156   7.013  2.4479  0.0095  0.4110
  936MOL0     H26310   6.062   0.250   6.875  3.7485  0.6542  1.9861
  936MOL0     H26311   6.197   0.475   6.919 -0.6252 -1.7527 -0.2478
  936MOL0     H26312   6.394   0.622   7.069  3.6194 -2.1320 -0.3018
  936MOL0     H26313   6.367   0.604   7.246 -0.6007 -3.1904  1.6134
  936MOL0     H26314   6.510   0.374   7.095 -1.2595  0.1528 -0.5295
  936MOL0     H26315   6.603   0.517   7.123  3.0872 -3.9995 -0.2448
  936MOL0     H26316   6.485   0.314   7.293  2.7169 -1.4623  0.1278
  936MOL0     H26317   6.496   0.479   7.367  0.5634 -0.5534  1.0048
  936MOL0     H26318   6.725   0.300   7.265 -0.4149 -0.9947  0.1942
  936MOL0     H26319   6.684   0.330   7.431 -2.5494  1.0639  1.1205
  936MOL0     H26320   6.906   0.285   7.403 -0.7107 -1.4389 -5.2460
  936MOL0     H26321   7.151   0.280   7.443  1.8052 -0.7922 -1.0247
  936MOL0     H26322   7.461   0.611   7.679 -1.2742 -0.9392 -2.0709
  936MOL0     H26323   7.660   0.694   7.761 -2.1655 -1.4315  0.2437
  936MOL0     H26324   7.955   0.926   7.461  1.2035 -2.4096  0.6469
  936MOL0     H26325   7.854   1.009   7.595 -0.0133  1.0776 -1.6898
  936MOL0     H26326   8.067   0.928   7.742  1.2409  0.2854  0.6790
  936MOL0     H26327   8.156   0.923   7.597 -0.7680  0.6697 -2.5373
  936MOL0     H26328   8.080   1.146   7.530  3.5730 -0.5300 -1.1652
  936MOL0     H26329   8.004   1.158   7.699 -0.5350 -1.6528 -0.0370
  936MOL0     H26330   8.296   1.102   7.632 -2.2704 -2.9408 -1.4799
  936MOL0     H26331   8.236   1.113   7.798  0.5204  0.9338 -0.3642
  936MOL0     H26332   8.145   1.347   7.746 -2.2448 -3.6433 -1.2191
  936MOL0     H26333   8.260   1.349   7.600 -0.6415 -2.6498 -0.4617
  936MOL0     H26334   8.343   1.312   7.892  2.4193  0.2537 -0.2255
  936MOL0     H26335   8.439   1.314   7.755 -0.1824 -0.6905 -0.0640
  936MOL0     H26336   8.289   1.561   7.848 -1.0980 -1.6783 -0.6639
  936MOL0     H26337   8.372   1.538   7.693  1.4863 -0.4684 -0.0520
  936MOL0     H26338   8.482   1.665   7.881  0.3309 -0.7599  0.7055
  936MOL0     H26339   8.518   1.513   7.955 -0.5073  1.3824  0.8863
  936MOL0     H26340   7.788   0.821   7.360 -0.1098  0.4475 -0.2076
  936MOL0     H26341   7.570   0.741   7.279 -0.4121  1.0799  0.3925
  936MOL0     H26342   7.160   0.711   7.358 -0.7344  0.7250 -2.6182
  936MOL0     H26343   6.918   0.700   7.323  1.4924  0.6904 -3.3185
  936MOL0     H26344   5.093  -0.163   6.379  1.9463  0.7845 -0.7587
  936MOL0     H26345   4.880  -0.164   6.262 -0.6978 -0.0197  0.2845
  936MOL0     H26346   4.436   0.034   6.311 -1.7545  2.1352  1.6720
  936MOL0     H26347   4.225   0.085   6.246  0.1368 -0.7130 -0.2567
  936MOL0     H26348   4.054   0.429   6.168  1.1055  0.3924 -1.5633
  936MOL0     H26349   4.157   0.349   6.272 -1.0123  1.4992  0.9536
  936MOL0     H26350   3.955   0.222   6.335 -1.2872  1.5595  0.3864
  936MOL0     H26351   3.999   0.139   6.183  2.4613 -0.7541  2.7961
  936MOL0     H26352   3.762   0.208   6.163  2.8871 -1.6219 -1.2437
  936MOL0     H26353   3.846   0.338   6.075  2.1215 -0.6645 -0.5297
  936MOL0     H26354   3.753   0.366   6.360 -1.1753  0.5569 -0.3270
  936MOL0     H26355   3.862   0.472   6.274  0.0622  1.2278 -0.5642
  936MOL0     H26356   3.488   0.597   6.126  0.1657 -0.1823  0.3343
  936MOL0     H26357   4.350   0.307   5.912 -3.1714  0.6512  0.3448
  936MOL0     H26358   4.704   0.326   5.974 -1.0207  0.6021 -0.4500
  936MOL0     H26359   4.673   0.176   5.889 -0.3012 -0.4732  1.4757
  936MOL0     H26360   4.580   0.305   5.837  0.3181 -2.8521 -1.7611
  937MOL0     O26361   7.312   6.310   4.733  0.0446 -0.6634  0.4915
  937MOL0     C26362   7.204   6.357   4.702 -0.1293 -0.3898  0.2321
  937MOL0     O26363   7.180   6.485   4.664 -0.0393 -0.5331  0.6928
  937MOL0     C26364   7.287   6.579   4.683  0.1783 -0.2066 -0.0735
  937MOL0     C26365   7.398   6.567   4.605  0.1334  0.4062 -0.4407
  937MOL0     C26366   7.510   6.645   4.613  0.7984  0.2922 -0.3390
  937MOL0     C26367   7.508   6.758   4.696 -0.3039 -0.2338  0.0531
  937MOL0     O26368   7.607   6.850   4.706 -0.1860  0.0660 -0.1659
  937MOL0     C26369   7.744   6.804   4.678  0.2524  0.5141  0.2815
  937MOL0     C26370   7.837   6.889   4.761  0.8128 -0.0407 -0.0790
  937MOL0     C26371   7.849   7.036   4.716 -0.0513  0.7022 -0.1470
  937MOL0     C26372   7.981   7.101   4.747 -0.2031  0.3627 -0.0494
  937MOL0     C26373   7.968   7.246   4.720  0.0357 -0.0009  0.5015
  937MOL0     C26374   8.094   7.325   4.738 -0.4015 -0.5760 -0.5678
  937MOL0     C26375   8.099   7.459   4.672  0.4427 -1.0553 -0.2652
  937MOL0     C26376   8.006   7.564   4.734 -0.4842 -1.2595 -0.2996
  937MOL0     N26377   7.864   7.538   4.715 -0.3177 -0.1016  0.3306
  937MOL0     C26378   7.812   7.528   4.586 -0.2770  0.0976  0.1148
  937MOL0     C26379   7.676   7.532   4.611  0.6056 -0.3850 -0.4404
  937MOL0     C26380   7.569   7.510   4.509  0.0602 -0.9676  0.7857
  937MOL0     C26381   7.466   7.617   4.516 -0.5716 -0.6059 -0.4540
  937MOL0     C26382   7.369   7.627   4.399  0.6088 -0.6295  0.0474
  937MOL0     C26383   7.282   7.506   4.371 -0.1488  0.0485  0.4419
  937MOL0     O26384   7.211   7.469   4.489 -0.1319  0.1634 -0.1583
  937MOL0     C26385   7.099   7.393   4.456  0.2108  0.1406 -0.1637
  937MOL0     C26386   7.078   7.301   4.355 -0.8518  0.4324  0.2271
  937MOL0     C26387   6.967   7.214   4.353  0.0072 -0.9765 -0.4865
  937MOL0     C26388   6.862   7.234   4.449 -0.3202  0.1212 -0.1990
  937MOL0     C26389   6.746   7.145   4.445  0.1546 -0.0764 -0.1537
  937MOL0     O26390   6.647   7.160   4.538  1.4563  0.8600  0.0022
  937MOL0     C26391   6.538   7.073   4.520  0.0278 -0.2436  0.5616
  937MOL0     C26392   6.530   6.977   4.620 -0.5009 -0.3553  0.1304
  937MOL0     C26393   6.411   6.908   4.619  0.2591  0.6270 -0.1833
  937MOL0     C26394   6.314   6.926   4.523 -0.5311  0.0188  0.8069
  937MOL0     O26395   6.207   6.837   4.521 -0.1146  0.1029 -0.1991
  937MOL0     C26396   6.072   6.881   4.501 -0.3889 -0.5648 -0.3749
  937MOL0     C26397   5.968   6.769   4.516 -0.0229  0.0991 -0.1041
  937MOL0     C26398   5.838   6.852   4.502 -0.8982 -0.0329 -0.1616
  937MOL0     C26399   5.717   6.768   4.497  0.7167 -0.3180 -1.0015
  937MOL0     C26400   5.586   6.842   4.478  0.7964  0.5655 -0.5346
  937MOL0     C26401   5.474   6.729   4.472  0.3124 -0.7188 -0.2826
  937MOL0     C26402   5.351   6.783   4.412 -0.2061 -0.1142  0.5012
  937MOL0     C26403   5.276   6.892   4.495  1.1214  0.1511  0.7625
  937MOL0    Cl26404   5.132   6.924   4.394 -0.3417 -0.0807  0.2239
  937MOL0     C26405   6.327   7.027   4.425 -0.2919 -0.2196 -0.1513
  937MOL0     C26406   6.440   7.106   4.421  0.4768 -0.1305  0.0653
  937MOL0     O26407   6.737   7.066   4.341 -0.3844 -0.7138 -0.7334
  937MOL0     C26408   6.880   7.341   4.536  0.0967 -0.3085 -0.6911
  937MOL0     C26409   6.994   7.412   4.545  0.3458 -0.4221  0.4395
  937MOL0     N26410   7.659   7.544   4.747  0.1973  0.0202 -0.2602
  937MOL0     N26411   7.775   7.556   4.808 -0.1571  0.1170  0.4399
  937MOL0     C26412   7.401   6.775   4.776  0.0583 -0.7600  0.2294
  937MOL0     C26413   7.293   6.687   4.767  0.5335  0.6088 -0.1912
  937MOL0     C26414   7.090   6.265   4.732 -0.0192  0.1746  0.0992
  937MOL0     C26415   6.974   6.328   4.783 -0.5186  0.3355  0.1825
  937MOL0     C26416   6.870   6.254   4.835 -0.1939 -0.6415 -0.2887
  937MOL0     C26417   6.870   6.113   4.834  0.7441 -0.0917  0.1695
  937MOL0     O26418   6.773   6.036   4.894 -0.2132  0.6125 -0.0171
  937MOL0     C26419   6.651   6.091   4.921 -0.1177  0.0473  0.1525
  937MOL0     C26420   6.570   6.009   5.018  0.3434 -0.2172 -0.0038
  937MOL0     C26421   6.458   5.915   4.949  0.0072 -0.4152  0.3180
  937MOL0     C26422   6.422   5.794   5.037  0.0450 -1.0628  0.5695
  937MOL0     C26423   6.527   5.687   5.055  0.3503 -0.1948  0.5060
  937MOL0     C26424   6.605   5.602   5.098  0.5698 -0.4024  0.1892
  937MOL0     C26425   6.984   6.047   4.787 -1.0582  0.5535  0.8040
  937MOL0     C26426   7.088   6.118   4.725  0.0963 -0.8155 -0.0170
  937MOL0     C26427   7.205   6.045   4.658 -0.2191  0.2176 -0.3339
  937MOL0     H26428   7.397   6.488   4.530 -0.4973 -2.0479  1.9848
  937MOL0     H26429   7.592   6.621   4.547 -0.6951 -1.4898 -1.6569
  937MOL0     H26430   7.763   6.702   4.714 -0.3853  0.1610 -0.3682
  937MOL0     H26431   7.769   6.808   4.572  0.2900  1.5109  0.3177
  937MOL0     H26432   7.932   6.834   4.766  1.4071  1.0777  2.5250
  937MOL0     H26433   7.804   6.902   4.865  2.1070  1.2540  0.2105
  937MOL0     H26434   7.771   7.092   4.769 -0.5273 -1.7127  1.9018
  937MOL0     H26435   7.836   7.043   4.608  1.2379  1.2046 -0.2898
  937MOL0     H26436   8.004   7.085   4.853 -0.2303  2.5489  0.3504
  937MOL0     H26437   8.063   7.054   4.692  1.8497  1.9097  1.4881
  937MOL0     H26438   7.936   7.256   4.616  0.5458 -5.1940 -0.4495
  937MOL0     H26439   7.897   7.297   4.786  0.8356  0.5458  0.9601
  937MOL0     H26440   8.110   7.349   4.844 -0.3137  0.0673 -0.7203
  937MOL0     H26441   8.180   7.267   4.702  0.2429  1.5739 -2.6973
  937MOL0     H26442   8.080   7.447   4.565 -0.2779  2.4417 -0.6468
  937MOL0     H26443   8.199   7.502   4.685  0.7167 -2.2249  1.8823
  937MOL0     H26444   8.024   7.574   4.842 -0.3797 -1.0458 -0.3353
  937MOL0     H26445   8.034   7.661   4.692 -0.8310 -0.4740  1.2007
  937MOL0     H26446   7.865   7.517   4.492 -1.1642 -1.4096 -0.2539
  937MOL0     H26447   7.620   7.516   4.412 -0.2584 -3.7205  0.3723
  937MOL0     H26448   7.524   7.411   4.521 -0.6543 -0.6573  0.7050
  937MOL0     H26449   7.416   7.608   4.613 -1.2637 -1.9689 -0.9208
  937MOL0     H26450   7.513   7.716   4.512 -2.4847  0.4291  0.8748
  937MOL0     H26451   7.423   7.648   4.307 -1.0747 -1.3266 -1.1555
  937MOL0     H26452   7.315   7.718   4.425  3.0213  1.7084 -2.4783
  937MOL0     H26453   7.339   7.419   4.337  0.1739 -0.0035  1.1014
  937MOL0     H26454   7.214   7.534   4.289 -1.1023 -0.7783  0.9356
  937MOL0     H26455   7.151   7.273   4.280 -0.4663  0.6677  0.5160
  937MOL0     H26456   6.956   7.130   4.285 -0.0250 -0.8116 -0.6889
  937MOL0     H26457   6.614   6.954   4.685 -0.4560  0.2657  0.2990
  937MOL0     H26458   6.396   6.814   4.671 -0.9836 -0.6492 -2.6448
  937MOL0     H26459   6.042   6.964   4.565  0.3550  0.6442 -1.5320
  937MOL0     H26460   6.053   6.928   4.403 -0.3865  1.1523  0.4095
  937MOL0     H26461   5.980   6.697   4.435  1.0120 -2.8054  2.4632
  937MOL0     H26462   5.967   6.717   4.612  0.7964  2.0985  1.0506
  937MOL0     H26463   5.821   6.919   4.586 -0.9455 -0.0727 -0.1391
  937MOL0     H26464   5.848   6.898   4.403  1.0194 -1.1195 -0.5154
  937MOL0     H26465   5.707   6.699   4.581  0.4444 -0.3629 -1.0698
  937MOL0     H26466   5.720   6.706   4.407  0.6262 -1.8495  0.0086
  937MOL0     H26467   5.608   6.901   4.389  1.4918  0.5267 -0.3988
  937MOL0     H26468   5.574   6.911   4.562 -1.7495  0.3186 -0.6248
  937MOL0     H26469   5.513   6.642   4.417  1.1294  0.8755 -2.4070
  937MOL0     H26470   5.456   6.703   4.576 -2.2505  1.1958 -0.1428
  937MOL0     H26471   5.284   6.699   4.389  3.7159 -3.0050 -1.5303
  937MOL0     H26472   5.379   6.830   4.318 -0.4666 -0.2091  0.3753
  937MOL0     H26473   5.252   6.841   4.589  3.7459 -1.6635  0.5446
  937MOL0     H26474   5.339   6.977   4.522 -1.1158  1.2876  2.7799
  937MOL0     H26475   6.246   7.033   4.353  1.1505  2.0832 -1.7317
  937MOL0     H26476   6.458   7.182   4.346 -0.6636 -1.2112 -1.3677
  937MOL0     H26477   6.801   7.359   4.608 -1.8595 -1.3679 -2.4416
  937MOL0     H26478   7.017   7.472   4.632 -0.5979 -1.6241  1.5372
  937MOL0     H26479   7.392   6.858   4.845 -0.5655 -1.9316  1.6137
  937MOL0     H26480   7.205   6.691   4.830  0.3528 -0.1439 -0.3907
  937MOL0     H26481   6.964   6.436   4.779  0.0716  0.3769 -2.9670
  937MOL0     H26482   6.788   6.320   4.858  1.1575  1.3714 -1.0308
  937MOL0     H26483   6.601   6.122   4.829 -0.2225  1.2394  0.6019
  937MOL0     H26484   6.659   6.183   4.979  0.0225 -0.2772  0.6555
  937MOL0     H26485   6.516   6.053   5.102 -0.3169  0.3019 -0.6819
  937MOL0     H26486   6.644   5.951   5.074  1.5773  2.0189  0.8210
  937MOL0     H26487   6.507   5.894   4.853 -2.4408  0.3299 -1.2023
  937MOL0     H26488   6.367   5.972   4.928 -0.5382 -1.5843 -0.5956
  937MOL0     H26489   6.400   5.837   5.135  1.6524  0.7858  0.1893
  937MOL0     H26490   6.329   5.747   5.004  0.2928 -1.8375  0.9631
  937MOL0     H26491   6.651   5.518   5.146 -1.1154 -2.5127 -1.6480
  937MOL0     H26492   6.996   5.939   4.791 -0.1050  0.6777  1.7623
  937MOL0     H26493   7.248   6.119   4.589  1.7889 -0.3983  0.1833
  937MOL0     H26494   7.276   6.023   4.737 -0.5383  0.9264  0.1581
  937MOL0     H26495   7.179   5.955   4.600 -1.6527  0.9920 -0.9431
  938MOL0     O26496   9.567   7.441   5.085 -0.2518 -0.0014 -0.4544
  938MOL0     C26497   9.468   7.495   5.136  0.1144  0.4915 -0.3161
  938MOL0     O26498   9.470   7.603   5.221 -0.5196  0.6537 -0.0101
  938MOL0     C26499   9.599   7.625   5.272  0.4127 -0.1375 -0.2434
  938MOL0     C26500   9.687   7.681   5.191 -0.7692 -0.3909 -0.6568
  938MOL0     C26501   9.819   7.719   5.240  0.4444 -0.2383 -0.1656
  938MOL0     C26502   9.841   7.713   5.375 -0.3599 -0.1942 -0.0460
  938MOL0     O26503   9.968   7.755   5.413 -0.4413 -0.5982  0.1357
  938MOL0     C26504  10.035   7.708   5.536  0.6835 -0.1880 -0.0363
  938MOL0     C26505  10.061   7.555   5.536  0.2025 -0.2737  0.7136
  938MOL0     C26506  10.118   7.511   5.401  0.8717  0.4044  0.1904
  938MOL0     C26507  10.244   7.591   5.352 -0.2539  0.5298 -0.7543
  938MOL0     C26508  10.370   7.572   5.441  0.4248  0.2099  0.7506
  938MOL0     C26509  10.504   7.612   5.380  0.7655  0.3378  0.0115
  938MOL0     C26510  10.615   7.598   5.482 -0.5566  0.4502  0.7738
  938MOL0     C26511  10.754   7.644   5.422 -0.4327  0.5630  0.1422
  938MOL0     N26512  10.819   7.535   5.346  0.2616  0.7516  0.0192
  938MOL0     C26513  10.860   7.413   5.395 -0.2106  0.0299 -0.1170
  938MOL0     C26514  10.926   7.358   5.294  0.0654  0.3440  0.0747
  938MOL0     C26515  10.974   7.214   5.283  0.3614 -0.6243 -0.5070
  938MOL0     C26516  11.125   7.213   5.262  0.2753 -0.2861 -0.5372
  938MOL0     C26517  11.183   7.076   5.228 -0.3785  0.0582  0.0955
  938MOL0     C26518  11.319   7.079   5.162  0.3041 -0.7766  0.4228
  938MOL0     O26519  11.417   7.142   5.244 -0.0182 -0.3467 -0.3629
  938MOL0     C26520  11.547   7.143   5.209 -0.1190 -0.2050 -0.1503
  938MOL0     C26521  11.635   7.179   5.319  1.2111 -0.6432  0.0775
  938MOL0     C26522  11.772   7.188   5.294 -0.3225 -0.1126 -0.6767
  938MOL0     C26523  11.833   7.169   5.169  0.0243 -0.2542  0.8314
  938MOL0     C26524  11.978   7.208   5.152  0.6076 -0.0483  0.2043
  938MOL0     O26525  12.016   7.236   5.027  0.2118  0.0369  0.5472
  938MOL0     C26526  12.141   7.288   4.986  0.1968 -0.0024  0.0697
  938MOL0     C26527  12.147   7.382   4.881 -0.0163  0.5611  0.1514
  938MOL0     C26528  12.275   7.420   4.826 -0.2685  0.2911  0.6783
  938MOL0     C26529  12.393   7.355   4.864 -0.4081  0.5255 -0.0580
  938MOL0     O26530  12.507   7.392   4.800  0.6449  0.1995  0.7175
  938MOL0     C26531  12.616   7.289   4.780  0.6542 -1.0108 -0.6527
  938MOL0     C26532  12.737   7.348   4.704  0.5301  0.4818 -0.2176
  938MOL0     C26533  12.690   7.365   4.558  0.0481  0.1476 -0.0185
  938MOL0     C26534  12.807   7.435   4.480  0.7689  0.3383 -0.6477
  938MOL0     C26535  12.874   7.341   4.377 -0.0323  0.1284 -0.4180
  938MOL0     C26536  12.941   7.220   4.424  0.7408  0.8529 -0.3609
  938MOL0     C26537  13.036   7.149   4.326  0.0615  0.5451 -0.4315
  938MOL0     C26538  13.057   7.004   4.370  0.4918 -0.1342 -0.7368
  938MOL0    Cl26539  13.180   6.921   4.264 -0.0134 -0.1146 -0.0327
  938MOL0     C26540  12.383   7.257   4.963  0.8427 -0.3405  0.6675
  938MOL0     C26541  12.262   7.221   5.019  0.6316 -0.3417 -0.7072
  938MOL0     O26542  12.047   7.212   5.257 -0.7528 -0.3567 -0.1071
  938MOL0     C26543  11.743   7.129   5.066 -0.4102 -0.0455  0.0934
  938MOL0     C26544  11.603   7.123   5.086  0.0565  0.0858 -0.4809
  938MOL0     N26545  10.908   7.441   5.178  0.0148 -0.8323  0.0011
  938MOL0     N26546  10.852   7.550   5.212 -0.1499  0.3598 -0.0404
  938MOL0     C26547   9.745   7.652   5.461 -0.3796 -0.1566 -1.1213
  938MOL0     C26548   9.623   7.610   5.407 -0.4296 -0.3646 -0.6741
  938MOL0     C26549   9.328   7.463   5.081 -0.0559 -0.7458 -0.2512
  938MOL0     C26550   9.220   7.531   5.139 -0.7336 -0.3176  0.5799
  938MOL0     C26551   9.088   7.490   5.117 -0.3988  0.0819 -0.3362
  938MOL0     C26552   9.054   7.386   5.027 -0.8584  0.1510  0.0795
  938MOL0     O26553   8.930   7.334   4.999  0.1664 -0.6202  0.3677
  938MOL0     C26554   8.812   7.401   5.045  0.1022  0.2964  0.7093
  938MOL0     C26555   8.697   7.313   5.004  0.2381  0.0837  0.0144
  938MOL0     C26556   8.572   7.404   5.014 -0.0349  0.0475 -1.2767
  938MOL0     C26557   8.467   7.351   4.917  0.2903 -0.2701  0.1235
  938MOL0     C26558   8.393   7.246   4.990  0.1618  0.0854 -0.1376
  938MOL0     C26559   8.329   7.155   5.045  0.8774  0.2360 -0.1266
  938MOL0     C26560   9.169   7.330   4.966  0.4991  0.6067 -0.9147
  938MOL0     C26561   9.298   7.363   4.995 -0.3747 -0.2096  1.1616
  938MOL0     C26562   9.401   7.271   4.938  0.0906 -0.1028 -0.2913
  938MOL0     H26563   9.655   7.687   5.087 -1.9856  2.2551 -0.2390
  938MOL0     H26564   9.897   7.764   5.178  1.4624  1.4778  2.2253
  938MOL0     H26565  10.134   7.755   5.545  1.2403 -1.5714  1.4933
  938MOL0     H26566   9.983   7.741   5.626 -0.0076 -0.4373 -0.3434
  938MOL0     H26567   9.966   7.502   5.541  0.2220 -0.4202 -0.2339
  938MOL0     H26568  10.116   7.512   5.621 -1.1602 -2.6480  0.4874
  938MOL0     H26569  10.040   7.532   5.327  0.8585  0.1727  0.1382
  938MOL0     H26570  10.143   7.405   5.411 -0.3631  0.1590  1.0204
  938MOL0     H26571  10.277   7.558   5.253  0.0423 -1.3866 -0.0567
  938MOL0     H26572  10.210   7.693   5.332 -1.8156 -0.4726 -3.9550
  938MOL0     H26573  10.351   7.623   5.536 -0.5224  0.0822  0.6452
  938MOL0     H26574  10.369   7.469   5.479  0.6391 -0.0950 -0.0397
  938MOL0     H26575  10.517   7.555   5.287  0.5387 -0.5673  0.5283
  938MOL0     H26576  10.491   7.714   5.342 -0.0964  0.6236  1.0377
  938MOL0     H26577  10.619   7.493   5.511  0.0254 -0.1227 -1.1916
  938MOL0     H26578  10.589   7.656   5.571  1.9701  0.6194  1.4746
  938MOL0     H26579  10.748   7.729   5.353  0.2438  0.3103 -0.2397
  938MOL0     H26580  10.826   7.670   5.500  1.3786 -0.9934 -0.9358
  938MOL0     H26581  10.840   7.361   5.488  0.2168 -4.0216 -2.0464
  938MOL0     H26582  10.951   7.159   5.375 -0.8773 -2.9839 -2.1128
  938MOL0     H26583  10.920   7.166   5.201  0.9079  2.1759 -2.6402
  938MOL0     H26584  11.152   7.284   5.183 -1.1344  2.4724  1.3130
  938MOL0     H26585  11.172   7.241   5.356  2.3526  0.3624 -1.7085
  938MOL0     H26586  11.118   7.025   5.156 -0.9998  0.3636  0.4360
  938MOL0     H26587  11.181   7.019   5.321 -1.0528  2.2704  1.5097
  938MOL0     H26588  11.321   7.126   5.063  1.0919  0.2088  0.8953
  938MOL0     H26589  11.349   6.980   5.128  1.0276 -0.9110  1.4135
  938MOL0     H26590  11.596   7.202   5.417 -0.7429  0.5866 -0.9175
  938MOL0     H26591  11.831   7.218   5.381  1.9583 -0.1797 -2.1006
  938MOL0     H26592  12.051   7.418   4.847  0.2727  2.0846  0.8748
  938MOL0     H26593  12.287   7.499   4.753 -1.5553 -0.3825 -0.2866
  938MOL0     H26594  12.662   7.261   4.876  2.3547 -4.5883 -2.3031
  938MOL0     H26595  12.589   7.193   4.735 -0.2330 -0.9809 -0.1994
  938MOL0     H26596  12.774   7.440   4.751  2.5667  0.0555 -0.8792
  938MOL0     H26597  12.824   7.283   4.712 -1.0150 -1.8412 -1.0966
  938MOL0     H26598  12.654   7.277   4.504 -0.5926 -1.2578  2.5462
  938MOL0     H26599  12.600   7.428   4.552 -0.0671 -0.1498 -1.9594
  938MOL0     H26600  12.879   7.470   4.555 -1.5169  0.3265  1.6872
  938MOL0     H26601  12.752   7.522   4.444 -1.9021 -1.9762 -2.5935
  938MOL0     H26602  12.954   7.395   4.326  2.1244 -2.4384  0.0112
  938MOL0     H26603  12.799   7.328   4.298 -2.3403  3.0921  1.0930
  938MOL0     H26604  12.984   7.246   4.522  0.2774 -0.6404  0.2778
  938MOL0     H26605  12.856   7.158   4.455 -0.6964  3.4412  1.1886
  938MOL0     H26606  13.130   7.204   4.336  1.0508 -1.1410  0.0516
  938MOL0     H26607  13.005   7.148   4.222 -2.9007 -3.3640  0.2528
  938MOL0     H26608  13.091   6.998   4.474 -3.2312  0.3624  0.6560
  938MOL0     H26609  12.961   6.951   4.371 -0.5118  1.6172  0.3548
  938MOL0     H26610  12.464   7.197   5.004 -0.5510 -3.9189 -1.3698
  938MOL0     H26611  12.254   7.146   5.096  1.3071  1.9614  1.7627
  938MOL0     H26612  11.773   7.116   4.963  0.8120  3.1824 -0.0778
  938MOL0     H26613  11.534   7.097   5.006  0.9964 -2.1311 -0.6519
  938MOL0     H26614   9.766   7.635   5.566  1.8792  1.7604 -1.1698
  938MOL0     H26615   9.543   7.566   5.466  0.4503 -1.4825 -0.2661
  938MOL0     H26616   9.238   7.611   5.211  1.4208  0.6547 -0.9569
  938MOL0     H26617   9.000   7.531   5.167 -0.9317  0.1073 -1.2727
  938MOL0     H26618   8.809   7.502   5.004  0.5225 -0.1121 -0.4008
  938MOL0     H26619   8.807   7.416   5.153 -1.2553 -3.4268  1.3123
  938MOL0     H26620   8.690   7.230   5.075 -1.9041 -0.5805 -0.9176
  938MOL0     H26621   8.712   7.272   4.904 -2.3329 -1.3051  0.1135
  938MOL0     H26622   8.602   7.506   4.986 -3.6549  1.4796 -0.4956
  938MOL0     H26623   8.535   7.405   5.117  2.7904  3.3807 -0.0893
  938MOL0     H26624   8.398   7.429   4.885 -1.5599 -1.5442  0.8809
  938MOL0     H26625   8.513   7.316   4.824  1.1662  3.1477 -0.9055
  938MOL0     H26626   8.270   7.086   5.101  2.1164 -0.4017  0.4388
  938MOL0     H26627   9.138   7.257   4.892 -0.3541  0.9050 -0.8595
  938MOL0     H26628   9.489   7.317   4.894 -0.2577  0.6671 -0.1953
  938MOL0     H26629   9.429   7.210   5.025 -0.8992 -1.4852 -0.8994
  938MOL0     H26630   9.361   7.201   4.864  2.5036 -0.4927 -1.3004
  939MOL0     O26631   2.923   5.170   7.182 -0.4975  0.1100  0.1199
  939MOL0     C26632   2.806   5.203   7.205  0.4764  1.1515 -0.7731
  939MOL0     O26633   2.691   5.129   7.182 -0.2728  0.0271  0.0856
  939MOL0     C26634   2.714   5.007   7.120 -0.1708  0.2109  0.0066
  939MOL0     C26635   2.778   4.907   7.192  0.4326  0.2248  0.3119
  939MOL0     C26636   2.825   4.786   7.130  0.2601  0.5478 -0.6535
  939MOL0     C26637   2.778   4.755   6.998  0.1153  0.4159 -0.4240
  939MOL0     O26638   2.816   4.645   6.926 -0.0042 -0.0274  0.4816
  939MOL0     C26639   2.953   4.611   6.942 -0.4802 -0.0254 -0.1005
  939MOL0     C26640   3.041   4.734   6.895  0.0287 -0.5688  0.0396
  939MOL0     C26641   3.191   4.702   6.902 -0.5857 -0.1320 -0.0861
  939MOL0     C26642   3.262   4.779   7.015 -0.6446 -0.0472 -0.2105
  939MOL0     C26643   3.408   4.732   7.010 -0.6043  0.1695 -0.2358
  939MOL0     C26644   3.482   4.789   7.128 -0.5923  0.3220 -0.3634
  939MOL0     C26645   3.625   4.729   7.134  0.1366 -0.5031  0.3998
  939MOL0     C26646   3.689   4.768   7.272  0.4883  0.2913 -0.2203
  939MOL0     N26647   3.824   4.715   7.282 -0.0685  0.5054 -0.4724
  939MOL0     C26648   3.935   4.785   7.235  0.1271  0.4699 -2.0512
  939MOL0     C26649   4.039   4.696   7.264  0.1322  0.3489 -0.3929
  939MOL0     C26650   4.176   4.752   7.241 -0.7112  0.5581 -0.0233
  939MOL0     C26651   4.206   4.755   7.088  0.6372 -0.0098 -0.0694
  939MOL0     C26652   4.359   4.761   7.065 -0.6320 -0.0370 -0.0830
  939MOL0     C26653   4.389   4.782   6.914 -0.0119  0.2500 -0.6252
  939MOL0     O26654   4.520   4.753   6.905  0.3407  0.5097  0.0736
  939MOL0     C26655   4.588   4.738   6.786  1.2497  0.6019 -0.1635
  939MOL0     C26656   4.706   4.671   6.782  0.2905  0.2996 -0.1400
  939MOL0     C26657   4.769   4.633   6.667 -0.7731  0.4142 -0.1873
  939MOL0     C26658   4.716   4.680   6.543  0.9168 -0.0789 -0.1639
  939MOL0     C26659   4.792   4.641   6.425 -0.3311  0.0637 -0.5422
  939MOL0     O26660   4.877   4.535   6.431 -0.2390 -0.6019  0.4450
  939MOL0     C26661   4.953   4.515   6.323  0.5065  0.5011  0.8199
  939MOL0     C26662   4.944   4.389   6.271  0.1652  0.7766  1.6186
  939MOL0     C26663   5.019   4.345   6.152  0.0873 -0.0933 -0.2090
  939MOL0     C26664   5.110   4.433   6.095  0.2226 -1.1416 -0.7841
  939MOL0     O26665   5.192   4.404   5.995 -0.3129  0.1271  0.9385
  939MOL0     C26666   5.231   4.267   5.981  1.1870  0.3874  0.1936
  939MOL0     C26667   5.345   4.220   5.888 -0.0276  0.0818 -0.0937
  939MOL0     C26668   5.490   4.253   5.939  0.4286 -0.9566  0.1016
  939MOL0     C26669   5.529   4.174   6.069  0.0840  0.2104 -0.4172
  939MOL0     C26670   5.670   4.217   6.122 -0.3460  0.4683  0.1718
  939MOL0     C26671   5.711   4.120   6.233 -0.3331 -0.3070 -0.0200
  939MOL0     C26672   5.850   4.143   6.281 -0.4622  0.3023 -0.0735
  939MOL0     C26673   5.870   4.247   6.392  0.9839  0.2057  0.2360
  939MOL0    Cl26674   6.029   4.199   6.446  0.0502  0.1916 -0.5822
  939MOL0     C26675   5.132   4.554   6.165  0.2522 -0.1910  0.8800
  939MOL0     C26676   5.047   4.604   6.267  0.3592 -0.1587  0.1051
  939MOL0     O26677   4.773   4.710   6.324 -0.8836  0.1622 -0.6809
  939MOL0     C26678   4.596   4.751   6.544  0.4015  0.3845 -0.3715
  939MOL0     C26679   4.534   4.782   6.665  0.3940  0.4762  0.3962
  939MOL0     N26680   3.982   4.570   7.306  0.1371 -0.1873  0.2433
  939MOL0     N26681   3.851   4.587   7.316  0.0891 -0.1128  0.1222
  939MOL0     C26682   2.699   4.847   6.932 -0.5791 -0.5860  0.5400
  939MOL0     C26683   2.678   4.980   6.991  0.4128 -0.1003  0.1501
  939MOL0     C26684   2.787   5.345   7.246  0.4085 -0.0546 -0.2053
  939MOL0     C26685   2.656   5.400   7.237  1.2029 -0.5711  0.0146
  939MOL0     C26686   2.621   5.522   7.298  0.0778 -1.3763 -0.2636
  939MOL0     C26687   2.717   5.606   7.348  0.7178 -0.4511  0.1273
  939MOL0     O26688   2.678   5.737   7.375  0.0422  0.6354  0.2057
  939MOL0     C26689   2.712   5.780   7.512  0.2849 -0.1368  0.1283
  939MOL0     C26690   2.603   5.877   7.562 -0.5710  0.0638 -0.6343
  939MOL0     C26691   2.609   6.003   7.475  0.1770 -0.7205 -0.1844
  939MOL0     C26692   2.489   6.101   7.497  0.4225  0.7937  0.5216
  939MOL0     C26693   2.481   6.123   7.641  1.0308  0.0292  0.4643
  939MOL0     C26694   2.486   6.161   7.755 -0.1169  1.3709  0.6507
  939MOL0     C26695   2.841   5.557   7.349 -0.2765 -0.5153 -0.3604
  939MOL0     C26696   2.887   5.433   7.300  0.4488 -0.4440 -0.2940
  939MOL0     C26697   3.034   5.418   7.308  0.1414 -0.8298 -0.2815
  939MOL0     H26698   2.800   4.916   7.298  0.4567  2.6513  0.1539
  939MOL0     H26699   2.881   4.716   7.192 -0.7443 -2.1646 -2.6285
  939MOL0     H26700   2.980   4.578   7.043 -1.2513  0.6830  0.3482
  939MOL0     H26701   2.980   4.527   6.878  0.5154  1.1757 -1.3229
  939MOL0     H26702   3.023   4.832   6.941  2.4123 -0.2933  0.5036
  939MOL0     H26703   3.013   4.754   6.791 -3.9974 -0.7430  0.9285
  939MOL0     H26704   3.243   4.732   6.811  0.7452 -1.9982  0.0087
  939MOL0     H26705   3.197   4.593   6.907  0.2890 -0.0698  0.4801
  939MOL0     H26706   3.270   4.887   7.002 -1.2077  0.2651  1.6221
  939MOL0     H26707   3.207   4.781   7.110  0.2286  0.5105  0.3021
  939MOL0     H26708   3.421   4.624   7.025 -2.1697 -0.1912 -1.2917
  939MOL0     H26709   3.464   4.762   6.921  2.9854  1.1627  2.1601
  939MOL0     H26710   3.486   4.899   7.123  2.1799  0.4355  1.7113
  939MOL0     H26711   3.432   4.757   7.220 -0.7995  2.2366  0.2532
  939MOL0     H26712   3.690   4.761   7.053  1.5216 -1.1348  1.2325
  939MOL0     H26713   3.610   4.621   7.126 -3.5288  0.0382 -2.7981
  939MOL0     H26714   3.688   4.877   7.283 -1.7394  0.2524  0.4629
  939MOL0     H26715   3.624   4.731   7.352 -1.3358  2.9502 -0.3215
  939MOL0     H26716   3.931   4.888   7.200 -0.2001  2.0437  2.0233
  939MOL0     H26717   4.175   4.854   7.279 -0.4089  0.6669 -0.2941
  939MOL0     H26718   4.254   4.694   7.293 -0.1145  1.2438 -0.1325
  939MOL0     H26719   4.163   4.669   7.036 -0.9746  0.4856  0.4060
  939MOL0     H26720   4.154   4.843   7.050  0.1195 -0.4433 -0.3687
  939MOL0     H26721   4.407   4.671   7.104 -1.7677 -1.4523 -1.7416
  939MOL0     H26722   4.395   4.844   7.126 -2.4497 -0.6594  1.9727
  939MOL0     H26723   4.368   4.888   6.896  0.8291  0.3751 -0.8745
  939MOL0     H26724   4.324   4.713   6.860 -0.7990  0.7725 -0.3752
  939MOL0     H26725   4.755   4.637   6.873 -0.0676  1.7242  0.6090
  939MOL0     H26726   4.852   4.565   6.675  0.9960  2.6116  1.9877
  939MOL0     H26727   4.850   4.343   6.300 -1.0798  1.2769 -1.2888
  939MOL0     H26728   5.007   4.240   6.128  0.4245 -0.1319 -0.2050
  939MOL0     H26729   5.249   4.217   6.076  0.9735  0.0252  0.0465
  939MOL0     H26730   5.142   4.217   5.942  1.0087 -0.4899  1.6470
  939MOL0     H26731   5.339   4.111   5.889 -0.8097  0.0895  2.1650
  939MOL0     H26732   5.317   4.266   5.793  1.4446  1.7320  0.2223
  939MOL0     H26733   5.559   4.226   5.859  1.3397  2.5651 -0.4661
  939MOL0     H26734   5.500   4.361   5.957  1.9803 -0.7492 -1.6918
  939MOL0     H26735   5.547   4.071   6.039  3.0202  0.5330 -0.0275
  939MOL0     H26736   5.462   4.185   6.156  0.4238  0.3145 -0.1665
  939MOL0     H26737   5.668   4.325   6.143  0.2949  0.2567  1.3707
  939MOL0     H26738   5.734   4.198   6.035 -1.4798 -0.7528 -0.4433
  939MOL0     H26739   5.633   4.116   6.309 -0.3886 -1.9174 -0.1284
  939MOL0     H26740   5.715   4.021   6.186  2.0896  0.2531 -1.1616
  939MOL0     H26741   5.915   4.169   6.197  0.0647  3.0720  1.0704
  939MOL0     H26742   5.885   4.046   6.317  1.0314  0.6468 -0.5116
  939MOL0     H26743   5.863   4.352   6.363  1.1457  0.1195 -0.1230
  939MOL0     H26744   5.792   4.240   6.468 -1.2860  4.1545 -1.4385
  939MOL0     H26745   5.211   4.617   6.126 -0.8614  0.5985 -0.1694
  939MOL0     H26746   5.057   4.706   6.303  0.4218 -0.3969  0.7823
  939MOL0     H26747   4.558   4.781   6.447 -0.4274  0.0717 -0.1539
  939MOL0     H26748   4.439   4.835   6.658 -0.7256 -1.4925 -0.3843
  939MOL0     H26749   2.656   4.829   6.834 -1.5074  0.3077  0.7697
  939MOL0     H26750   2.637   5.063   6.934  2.2136  2.7499  2.6855
  939MOL0     H26751   2.570   5.349   7.195  1.3945  1.4292 -3.0632
  939MOL0     H26752   2.516   5.548   7.303 -0.3786 -3.0570  4.8762
  939MOL0     H26753   2.810   5.828   7.505  0.1919 -0.0545 -0.6965
  939MOL0     H26754   2.714   5.693   7.578 -0.5361 -0.6316 -0.4757
  939MOL0     H26755   2.623   5.895   7.668 -1.1750  3.5135 -1.0105
  939MOL0     H26756   2.506   5.830   7.544 -0.6598  0.6748 -1.7967
  939MOL0     H26757   2.606   5.976   7.369 -2.8290 -2.1723  0.1500
  939MOL0     H26758   2.699   6.060   7.501  0.2588 -0.8094 -0.2713
  939MOL0     H26759   2.517   6.186   7.434  2.1080  0.0926  0.2578
  939MOL0     H26760   2.396   6.054   7.463  0.7071 -1.3100  2.4199
  939MOL0     H26761   2.499   6.188   7.858 -1.4280  0.4969  1.0741
  939MOL0     H26762   2.912   5.631   7.386 -2.2990  0.9497  0.7677
  939MOL0     H26763   3.075   5.483   7.386 -0.3372 -2.0078  0.9919
  939MOL0     H26764   3.052   5.317   7.345  0.8429 -1.2338 -1.6558
  939MOL0     H26765   3.079   5.438   7.210  0.1374 -0.7090 -0.2590
  940MOL0     O26766   4.287   5.645   2.002  0.3407  0.0364 -0.0937
  940MOL0     C26767   4.279   5.736   2.082  0.8435  0.3127  0.2911
  940MOL0     O26768   4.375   5.767   2.167 -0.7046 -0.2659  0.7409
  940MOL0     C26769   4.505   5.728   2.139  0.6508  0.9101  0.7263
  940MOL0     C26770   4.584   5.791   2.040  0.3166  0.9615 -0.1462
  940MOL0     C26771   4.716   5.746   2.029 -0.2026 -0.8198  0.2065
  940MOL0     C26772   4.768   5.644   2.094  0.0397  0.5099 -0.4111
  940MOL0     O26773   4.899   5.604   2.067 -0.2306  0.4173  0.2586
  940MOL0     C26774   4.975   5.578   2.193  0.1659 -0.3706  0.3348
  940MOL0     C26775   5.119   5.544   2.170 -0.4465 -0.2796  0.3171
  940MOL0     C26776   5.146   5.424   2.079 -0.4266  0.5336 -0.7115
  940MOL0     C26777   5.296   5.405   2.037 -0.0176 -0.0972 -0.0887
  940MOL0     C26778   5.294   5.284   1.931 -0.1158  0.5676 -0.0561
  940MOL0     C26779   5.439   5.234   1.896  0.1737  0.0994 -0.1108
  940MOL0     C26780   5.445   5.161   1.767 -0.3750  0.5093 -0.2582
  940MOL0     C26781   5.585   5.098   1.739  0.4552  0.4372  0.6971
  940MOL0     N26782   5.682   5.211   1.730 -0.7114 -0.6930  0.0731
  940MOL0     C26783   5.670   5.330   1.661  0.1609  0.4778 -0.5159
  940MOL0     C26784   5.799   5.377   1.655  1.5586  0.5980  0.3712
  940MOL0     C26785   5.829   5.507   1.592 -0.1299 -1.5802  0.4946
  940MOL0     C26786   5.971   5.550   1.616 -0.8540  0.9372  1.0476
  940MOL0     C26787   6.076   5.462   1.531 -1.4680 -0.6959  0.4286
  940MOL0     C26788   6.219   5.481   1.598  0.5209  0.0118 -0.8718
  940MOL0     O26789   6.252   5.615   1.617  0.0739 -0.5236 -0.0866
  940MOL0     C26790   6.380   5.646   1.657 -0.4979 -0.1502  0.4747
  940MOL0     C26791   6.405   5.687   1.787 -0.1470  0.1471 -0.3585
  940MOL0     C26792   6.535   5.703   1.826  1.1341 -0.5768  0.3506
  940MOL0     C26793   6.639   5.672   1.743 -0.9936  0.5461  0.3585
  940MOL0     C26794   6.780   5.685   1.787  0.0636 -0.0438  0.8707
  940MOL0     O26795   6.790   5.728   1.910 -0.3541 -0.9625 -0.1732
  940MOL0     C26796   6.916   5.725   1.969 -0.1460 -0.5964 -0.0166
  940MOL0     C26797   7.042   5.743   1.911  0.3335  0.6030 -0.0388
  940MOL0     C26798   7.158   5.732   1.994 -0.7731 -0.7660  0.8110
  940MOL0     C26799   7.146   5.692   2.122 -0.7927 -0.7416 -0.1076
  940MOL0     O26800   7.272   5.659   2.183  0.0443 -0.0380  0.0752
  940MOL0     C26801   7.272   5.604   2.309 -0.4518 -0.3591 -0.9211
  940MOL0     C26802   7.411   5.545   2.332 -0.4151 -0.2959  0.3673
  940MOL0     C26803   7.523   5.653   2.353  0.1838 -0.4414  0.5421
  940MOL0     C26804   7.662   5.586   2.323  0.3966 -0.4929 -0.3156
  940MOL0     C26805   7.770   5.688   2.373  0.9373 -0.4646  1.5919
  940MOL0     C26806   7.789   5.811   2.292  0.1540  0.4016  0.9491
  940MOL0     C26807   7.900   5.898   2.349 -0.2087 -0.0615  0.7852
  940MOL0     C26808   8.040   5.826   2.338  0.9622  0.2378 -0.3880
  940MOL0    Cl26809   8.103   5.837   2.172 -0.1897 -0.7184 -0.1209
  940MOL0     C26810   7.023   5.657   2.175  0.2304 -0.0894  0.2110
  940MOL0     C26811   6.909   5.678   2.094  0.2889 -0.8420 -1.3787
  940MOL0     O26812   6.865   5.623   1.719  0.5527 -0.0028 -0.7349
  940MOL0     C26813   6.618   5.626   1.613 -0.6736  0.0200 -0.5632
  940MOL0     C26814   6.489   5.620   1.564  0.4596  0.0213 -0.2270
  940MOL0     N26815   5.889   5.295   1.729  0.7546  0.2960 -0.3108
  940MOL0     N26816   5.815   5.190   1.768  0.1595 -0.5561 -0.9861
  940MOL0     C26817   4.685   5.571   2.179 -0.3839 -0.1991 -0.3211
  940MOL0     C26818   4.552   5.614   2.196  0.0994  0.0026 -0.4376
  940MOL0     C26819   4.139   5.797   2.092 -1.0341  0.1505  0.2795
  940MOL0     C26820   4.100   5.851   2.213 -0.3306  0.7698 -0.2670
  940MOL0     C26821   3.973   5.892   2.229  0.1698 -0.1627  0.0611
  940MOL0     C26822   3.891   5.905   2.124  0.7827  0.6981 -0.3903
  940MOL0     O26823   3.763   5.925   2.158  0.2272 -0.7701 -0.4915
  940MOL0     C26824   3.654   5.938   2.070 -0.3628 -0.3386 -0.1414
  940MOL0     C26825   3.530   5.918   2.155 -0.1075 -0.5378  1.2224
  940MOL0     C26826   3.497   6.026   2.265 -0.4272  0.6240  0.2311
  940MOL0     C26827   3.354   6.029   2.301 -0.4744  0.2660  0.0856
  940MOL0     C26828   3.265   6.044   2.187  0.4806 -0.0696  0.2916
  940MOL0     C26829   3.184   6.046   2.094 -0.0890  0.4853 -0.0997
  940MOL0     C26830   3.934   5.877   1.993 -0.2976 -0.8339 -0.5225
  940MOL0     C26831   4.060   5.822   1.972  0.8684  0.2787 -0.2293
  940MOL0     C26832   4.087   5.768   1.836 -0.0051 -0.2465  0.4662
  940MOL0     H26833   4.556   5.885   1.993  0.4673  2.0938  1.9270
  940MOL0     H26834   4.784   5.800   1.964  0.4110 -1.9430 -0.1073
  940MOL0     H26835   4.974   5.667   2.257  1.8973 -0.1310  0.0974
  940MOL0     H26836   4.932   5.489   2.240 -0.2354 -0.9313 -1.0300
  940MOL0     H26837   5.172   5.532   2.265  3.5071  0.9959 -1.4993
  940MOL0     H26838   5.175   5.627   2.125  1.5814 -2.3326 -1.1631
  940MOL0     H26839   5.082   5.428   1.990  0.8593 -1.3824 -1.7754
  940MOL0     H26840   5.110   5.345   2.145  1.1021  0.3971 -0.0010
  940MOL0     H26841   5.333   5.499   1.996  0.2640  0.9997  2.5273
  940MOL0     H26842   5.355   5.381   2.125 -1.3814 -4.2365 -0.0645
  940MOL0     H26843   5.253   5.192   1.974 -0.7097  1.5020  1.4502
  940MOL0     H26844   5.226   5.301   1.847 -0.8806 -2.0098 -0.0448
  940MOL0     H26845   5.509   5.318   1.887 -1.2684  1.2294 -1.3534
  940MOL0     H26846   5.476   5.166   1.973  0.4620 -1.4979 -1.5846
  940MOL0     H26847   5.421   5.230   1.686  0.9558 -0.0873 -1.2019
  940MOL0     H26848   5.366   5.084   1.771 -1.1191  1.2446 -0.5503
  940MOL0     H26849   5.621   5.034   1.820 -1.7101  0.5146  1.7850
  940MOL0     H26850   5.570   5.037   1.650 -1.2759  1.9830 -0.1222
  940MOL0     H26851   5.577   5.366   1.618  0.3782 -0.9769 -2.3021
  940MOL0     H26852   5.801   5.502   1.487 -1.1861 -0.4489  0.6871
  940MOL0     H26853   5.768   5.588   1.634 -0.9486  0.5346 -4.1397
  940MOL0     H26854   5.987   5.653   1.583  0.9321  0.8944  1.6934
  940MOL0     H26855   6.001   5.537   1.720  0.0976 -0.6952  0.6130
  940MOL0     H26856   6.080   5.499   1.429 -3.7232  1.2956  0.9794
  940MOL0     H26857   6.049   5.356   1.520  0.1544 -0.9662 -1.5181
  940MOL0     H26858   6.290   5.444   1.524 -0.2666 -1.2812 -1.0219
  940MOL0     H26859   6.242   5.422   1.687  3.2446  1.8764 -0.2121
  940MOL0     H26860   6.325   5.714   1.856  1.5587  0.4286  1.5992
  940MOL0     H26861   6.563   5.730   1.927  0.8067  1.1527  0.0053
  940MOL0     H26862   7.064   5.774   1.810  1.0326 -0.4462 -0.2307
  940MOL0     H26863   7.258   5.751   1.956 -1.5727  2.2050 -0.0338
  940MOL0     H26864   7.268   5.683   2.384  1.2965 -2.9833  2.2026
  940MOL0     H26865   7.201   5.524   2.329  0.0347 -0.4397  0.6127
  940MOL0     H26866   7.409   5.492   2.428 -2.3704 -2.8568 -0.9731
  940MOL0     H26867   7.437   5.479   2.250  1.0037 -0.4156  0.8814
  940MOL0     H26868   7.508   5.742   2.292  0.7697  0.3320  1.4984
  940MOL0     H26869   7.514   5.689   2.456 -2.5185 -0.9567  0.5692
  940MOL0     H26870   7.678   5.557   2.218 -1.8550  0.0309 -0.8595
  940MOL0     H26871   7.670   5.499   2.389  1.5541  0.7982  1.3144
  940MOL0     H26872   7.867   5.637   2.366  1.1437  0.1121 -0.9728
  940MOL0     H26873   7.750   5.720   2.475  0.3464 -0.4993  1.4930
  940MOL0     H26874   7.795   5.784   2.186  1.3311 -1.5157  1.4510
  940MOL0     H26875   7.699   5.872   2.305  0.0790  0.4682  0.2057
  940MOL0     H26876   7.871   5.928   2.450 -0.3905  0.3213  0.6190
  940MOL0     H26877   7.903   5.990   2.291  1.4536 -0.1432  0.6805
  940MOL0     H26878   8.112   5.869   2.408  3.2031 -1.6797 -1.3582
  940MOL0     H26879   8.037   5.723   2.375  0.2180 -0.4792 -2.2935
  940MOL0     H26880   7.005   5.605   2.268 -1.8443  1.6468  0.8573
  940MOL0     H26881   6.811   5.643   2.125  0.9645 -1.9597 -0.4526
  940MOL0     H26882   6.698   5.619   1.540 -0.3098  1.8637 -0.3729
  940MOL0     H26883   6.470   5.577   1.466 -1.0589  2.6944 -1.2288
  940MOL0     H26884   4.722   5.484   2.231 -1.3130  0.5368  1.6924
  940MOL0     H26885   4.482   5.565   2.262  0.4470 -0.8721 -0.6950
  940MOL0     H26886   4.156   5.841   2.306  1.2882  1.6835 -1.0878
  940MOL0     H26887   3.931   5.914   2.326  1.7482  0.0307  0.7354
  940MOL0     H26888   3.647   5.858   1.996  3.2317 -1.4616  0.5405
  940MOL0     H26889   3.654   6.030   2.011 -0.1565  0.6122  1.3003
  940MOL0     H26890   3.548   5.825   2.210  1.9199 -0.7762  0.2335
  940MOL0     H26891   3.448   5.903   2.084  2.5850 -1.6271 -1.9205
  940MOL0     H26892   3.535   6.121   2.226  1.0018 -0.2692 -0.6599
  940MOL0     H26893   3.548   5.997   2.357  0.6906  1.0787 -0.2149
  940MOL0     H26894   3.335   5.935   2.354 -3.7262  0.5193 -0.3861
  940MOL0     H26895   3.335   6.118   2.362 -0.4965 -0.6477  1.4570
  940MOL0     H26896   3.121   6.054   2.008  1.2744  3.1492 -0.9532
  940MOL0     H26897   3.857   5.874   1.917 -3.1493 -0.5920  2.1133
  940MOL0     H26898   4.192   5.770   1.804 -0.7060  0.9097 -1.9672
  940MOL0     H26899   4.053   5.664   1.836  0.0410 -0.2660 -0.5105
  940MOL0     H26900   4.024   5.820   1.764  1.7576  0.4318 -0.6492
  941MOL0     O26901  10.774   7.423   1.532 -0.5494  0.0676  0.1367
  941MOL0     C26902  10.756   7.464   1.649 -0.1517  0.6558 -0.5142
  941MOL0     O26903  10.851   7.461   1.748 -0.4703  0.2739 -0.7759
  941MOL0     C26904  10.976   7.413   1.715  0.1893  0.2581  0.0155
  941MOL0     C26905  10.996   7.281   1.686 -0.3762 -0.9463 -0.3032
  941MOL0     C26906  11.124   7.223   1.651  0.3907  0.0326 -0.3540
  941MOL0     C26907  11.240   7.304   1.635 -0.0292 -0.0387 -0.3936
  941MOL0     O26908  11.360   7.243   1.614 -0.0207  0.5504 -0.0625
  941MOL0     C26909  11.458   7.320   1.539 -0.9590 -0.3404  0.3939
  941MOL0     C26910  11.582   7.236   1.503 -0.1792  0.4086  0.0829
  941MOL0     C26911  11.712   7.328   1.525  1.0046  1.0156 -0.8012
  941MOL0     C26912  11.726   7.463   1.450 -0.2941  0.5919  0.2209
  941MOL0     C26913  11.857   7.535   1.495  0.6320  0.2141  0.6997
  941MOL0     C26914  11.844   7.689   1.459  0.8975  0.1891  0.3755
  941MOL0     C26915  11.974   7.761   1.465  0.5084  0.4225  1.1368
  941MOL0     C26916  12.068   7.731   1.586 -0.1280 -0.2389  0.2803
  941MOL0     N26917  12.188   7.814   1.555 -1.0496  0.5465 -0.0013
  941MOL0     C26918  12.197   7.940   1.504  0.9458 -0.0608 -0.3623
  941MOL0     C26919  12.316   7.992   1.529 -0.1378 -0.3194  0.4752
  941MOL0     C26920  12.378   8.127   1.497 -0.0486 -0.9657 -0.2606
  941MOL0     C26921  12.446   8.132   1.356  0.9103 -0.7694 -0.7255
  941MOL0     C26922  12.566   8.038   1.337  0.8960 -0.0622 -0.6380
  941MOL0     C26923  12.670   8.092   1.231  0.3603 -0.4386 -0.2301
  941MOL0     O26924  12.758   7.988   1.191  0.0079  0.2564 -0.1437
  941MOL0     C26925  12.892   8.018   1.166 -0.3040  0.4638 -0.6686
  941MOL0     C26926  12.929   8.139   1.111 -0.0457 -0.4261  0.3340
  941MOL0     C26927  13.059   8.174   1.098 -0.3326 -0.5842 -0.0526
  941MOL0     C26928  13.159   8.087   1.153 -0.5230 -0.8263  0.5238
  941MOL0     C26929  13.301   8.136   1.126 -0.3586  0.4114 -0.7874
  941MOL0     O26930  13.331   8.254   1.064  0.4040 -0.0858 -0.5824
  941MOL0     C26931  13.454   8.297   1.025 -0.5090 -0.7817  0.4489
  941MOL0     C26932  13.545   8.220   0.959  0.0262 -0.0269  0.1474
  941MOL0     C26933  13.662   8.281   0.903  0.2329  0.3676 -0.1944
  941MOL0     C26934  13.696   8.416   0.922 -0.3614  1.5421 -0.3319
  941MOL0     O26935  13.805   8.473   0.871  0.1705 -0.3537 -0.0420
  941MOL0     C26936  13.882   8.434   0.760 -0.9415  0.4697  0.1064
  941MOL0     C26937  14.006   8.521   0.754  0.1329  0.4047  0.6468
  941MOL0     C26938  14.103   8.477   0.640 -0.2339  0.2996  0.4925
  941MOL0     C26939  14.201   8.365   0.676  0.3252 -0.2816 -0.5197
  941MOL0     C26940  14.301   8.340   0.564  0.9503 -0.1345 -0.5506
  941MOL0     C26941  14.385   8.206   0.574  0.5093 -1.3212 -0.4959
  941MOL0     C26942  14.474   8.188   0.700 -0.3276 -0.4465  0.0357
  941MOL0     C26943  14.579   8.299   0.727 -0.8017 -0.0118 -0.0208
  941MOL0    Cl26944  14.671   8.318   0.579  0.1575 -0.2360 -0.4138
  941MOL0     C26945  13.602   8.494   0.992  0.2143  0.0301  0.5681
  941MOL0     C26946  13.485   8.433   1.040 -0.3636  0.7501 -0.4897
  941MOL0     O26947  13.394   8.065   1.168  0.2247  0.5313  0.0179
  941MOL0     C26948  13.125   7.968   1.208  0.3825 -0.7720 -0.2024
  941MOL0     C26949  12.991   7.928   1.210 -0.8099  0.2017  0.5462
  941MOL0     N26950  12.390   7.884   1.583 -0.2395  0.0174  0.7928
  941MOL0     N26951  12.308   7.784   1.600 -0.3547  0.6116 -0.5816
  941MOL0     C26952  11.221   7.439   1.661 -0.9037 -0.3662  0.1094
  941MOL0     C26953  11.089   7.490   1.705  0.4795 -0.9309 -0.0566
  941MOL0     C26954  10.614   7.504   1.696 -0.9641 -0.6348 -0.2190
  941MOL0     C26955  10.598   7.543   1.835 -0.0011  0.1374 -0.3439
  941MOL0     C26956  10.474   7.586   1.887 -0.7558 -0.2613 -0.2145
  941MOL0     C26957  10.371   7.613   1.807  0.1038 -0.0199 -0.4809
  941MOL0     O26958  10.270   7.679   1.872 -1.1506  0.0989  0.5437
  941MOL0     C26959  10.172   7.744   1.780  0.3126 -0.7276 -0.3767
  941MOL0     C26960  10.119   7.864   1.867 -0.2632  0.5473 -0.1868
  941MOL0     C26961   9.993   7.927   1.799  1.0196  0.9713  0.6777
  941MOL0     C26962   9.956   8.068   1.838  0.0153  0.0438  0.4989
  941MOL0     C26963  10.062   8.160   1.798  0.2718  0.5774  0.1209
  941MOL0     C26964  10.153   8.233   1.765 -0.2194  0.4881 -0.1739
  941MOL0     C26965  10.377   7.568   1.678  0.3638 -0.0784 -0.0495
  941MOL0     C26966  10.491   7.513   1.622 -0.3152  0.2475  0.5665
  941MOL0     C26967  10.478   7.464   1.487  0.0040  0.0043  0.3144
  941MOL0     H26968  10.910   7.214   1.683 -0.2085 -1.1398 -2.3787
  941MOL0     H26969  11.143   7.116   1.643 -1.5459 -0.4503  0.8369
  941MOL0     H26970  11.430   7.372   1.447  2.3597 -1.6952 -1.5697
  941MOL0     H26971  11.492   7.402   1.602  0.7650 -0.5686 -0.1676
  941MOL0     H26972  11.575   7.199   1.401  0.5018 -0.5018  0.3596
  941MOL0     H26973  11.584   7.148   1.569  3.0765 -0.1394 -0.5674
  941MOL0     H26974  11.797   7.266   1.494  1.4465  0.2091  1.7560
  941MOL0     H26975  11.734   7.348   1.630  3.1121  1.1722 -1.2401
  941MOL0     H26976  11.739   7.434   1.345  2.5026 -1.4972  1.0320
  941MOL0     H26977  11.641   7.530   1.469 -2.1909 -1.5030 -0.3879
  941MOL0     H26978  11.871   7.516   1.602 -2.2487  1.4718  1.3801
  941MOL0     H26979  11.942   7.493   1.439 -0.2366  1.0207 -1.3263
  941MOL0     H26980  11.796   7.691   1.361  2.8820 -2.9241 -0.8115
  941MOL0     H26981  11.775   7.730   1.533  1.0836 -0.7093  1.0631
  941MOL0     H26982  11.950   7.868   1.462 -3.1543 -0.1092  3.9055
  941MOL0     H26983  12.031   7.729   1.377  1.0522  0.4952  1.4554
  941MOL0     H26984  12.031   7.768   1.682  2.4086 -1.7520  1.9695
  941MOL0     H26985  12.085   7.623   1.589 -0.0974 -0.2541 -0.3751
  941MOL0     H26986  12.114   7.999   1.465  1.1239  1.5726  1.5779
  941MOL0     H26987  12.299   8.202   1.508  3.8686  3.5977  0.1596
  941MOL0     H26988  12.449   8.162   1.573  1.1773 -0.2731 -1.6707
  941MOL0     H26989  12.370   8.116   1.279 -1.6886 -2.0672  1.9142
  941MOL0     H26990  12.486   8.234   1.344  2.3045 -1.0663  1.0275
  941MOL0     H26991  12.524   7.944   1.301 -0.8770  0.3861  0.1649
  941MOL0     H26992  12.613   8.010   1.431 -0.9671  0.0235  0.3603
  941MOL0     H26993  12.731   8.173   1.273 -0.2051 -0.9904  1.7471
  941MOL0     H26994  12.614   8.122   1.142  0.0686 -0.8938 -0.2018
  941MOL0     H26995  12.848   8.196   1.067 -0.0675 -1.1631 -0.6105
  941MOL0     H26996  13.090   8.262   1.043  1.4933 -1.1390 -0.0108
  941MOL0     H26997  13.539   8.112   0.955  1.3125 -0.0750 -1.7875
  941MOL0     H26998  13.736   8.218   0.853  3.1649  3.5434 -0.2204
  941MOL0     H26999  13.917   8.331   0.768 -1.0572  0.5298  1.5524
  941MOL0     H27000  13.835   8.447   0.661 -2.2811 -0.1925  0.6230
  941MOL0     H27001  13.971   8.623   0.740 -1.4305 -0.1091  0.6781
  941MOL0     H27002  14.061   8.533   0.848  0.1233 -0.1753  0.7351
  941MOL0     H27003  14.046   8.450   0.551 -1.5479  0.2639  1.3047
  941MOL0     H27004  14.170   8.559   0.612 -0.8025  0.5917 -0.0290
  941MOL0     H27005  14.154   8.270   0.700  3.7554 -1.7392  1.1417
  941MOL0     H27006  14.243   8.398   0.772 -2.4047  2.8576 -0.2107
  941MOL0     H27007  14.372   8.423   0.569 -0.0871  0.7125  0.6747
  941MOL0     H27008  14.250   8.348   0.467  0.7225 -0.4806 -0.4624
  941MOL0     H27009  14.316   8.121   0.586  1.2338 -1.8549 -0.0765
  941MOL0     H27010  14.441   8.184   0.483  1.1932 -3.0127  0.2920
  941MOL0     H27011  14.526   8.093   0.685  0.3094 -0.0601 -0.2943
  941MOL0     H27012  14.418   8.190   0.793  0.4985 -0.0187  0.5399
  941MOL0     H27013  14.524   8.392   0.747 -1.2080 -0.2974  0.1895
  941MOL0     H27014  14.654   8.279   0.803 -1.6182  0.7290  1.0194
  941MOL0     H27015  13.619   8.600   1.008  2.1826 -0.0858 -0.4867
  941MOL0     H27016  13.405   8.493   1.082 -0.8153 -0.3151  0.2179
  941MOL0     H27017  13.202   7.906   1.253 -0.3158 -1.6519 -0.1758
  941MOL0     H27018  12.962   7.834   1.254 -1.1170 -1.3911 -2.7546
  941MOL0     H27019  11.307   7.506   1.668 -0.7196 -0.5911  0.0106
  941MOL0     H27020  11.082   7.596   1.728 -1.4691 -0.8186 -0.9963
  941MOL0     H27021  10.680   7.552   1.905  0.0197 -0.8442 -0.2294
  941MOL0     H27022  10.463   7.620   1.989 -2.2038  1.9506 -1.0188
  941MOL0     H27023  10.101   7.665   1.754 -0.8017  0.8688 -2.3829
  941MOL0     H27024  10.217   7.786   1.690  0.9501 -1.7331 -0.5506
  941MOL0     H27025  10.198   7.940   1.871 -1.5525  2.1621 -2.6471
  941MOL0     H27026  10.093   7.826   1.966 -2.7265 -0.1039 -1.0162
  941MOL0     H27027   9.905   7.867   1.826  1.3077  0.5285  0.6443
  941MOL0     H27028   9.999   7.921   1.690 -0.0715 -1.7092  0.6958
  941MOL0     H27029   9.866   8.103   1.787 -1.2477 -1.5316  1.5731
  941MOL0     H27030   9.950   8.099   1.943  0.0264  0.9787  0.2394
  941MOL0     H27031  10.228   8.300   1.727  2.2842 -1.3284  1.2494
  941MOL0     H27032  10.292   7.581   1.612  0.1502  0.9349  0.4101
  941MOL0     H27033  10.528   7.366   1.482  0.5776  0.3482 -1.4669
  941MOL0     H27034  10.377   7.467   1.445  0.4993  2.2470 -0.8913
  941MOL0     H27035  10.532   7.531   1.420 -1.1190  0.6212  0.0151
  942MOL0     O27036   7.121  10.245  10.233 -0.2063 -0.6068 -0.8758
  942MOL0     C27037   7.084  10.129  10.243 -0.3430 -0.8234 -0.8082
  942MOL0     O27038   7.113  10.052  10.353  0.4104  0.2531  0.6477
  942MOL0     C27039   7.202  10.094  10.445 -0.7458  1.0090 -0.8003
  942MOL0     C27040   7.334  10.144  10.412  0.6486  0.4045  0.0583
  942MOL0     C27041   7.423  10.174  10.513 -0.4366 -0.3558 -0.1744
  942MOL0     C27042   7.398  10.141  10.645  0.7832 -0.1724 -0.1719
  942MOL0     O27043   7.484  10.167  10.750 -0.2851  0.4141  0.8026
  942MOL0     C27044   7.619  10.199  10.707  0.2620 -0.5333 -0.1896
  942MOL0     C27045   7.704  10.208  10.831  0.8663 -0.0151 -0.1156
  942MOL0     C27046   7.853  10.207  10.801 -0.0849 -0.0707  0.2043
  942MOL0     C27047   7.936  10.158  10.918  0.3010  0.3368  0.3650
  942MOL0     C27048   8.078  10.178  10.890  0.0067  0.3542  0.0711
  942MOL0     C27049   8.133  10.089  10.782 -0.5735 -0.0133  0.5260
  942MOL0     C27050   8.285  10.087  10.781  0.2674  0.1878  0.2398
  942MOL0     C27051   8.353  10.032  10.908 -0.4729 -0.0008 -0.2015
  942MOL0     N27052   8.499  10.039  10.886 -0.2104  0.3312  0.7089
  942MOL0     C27053   8.595  10.142  10.906  0.2430  0.2981  0.8384
  942MOL0     C27054   8.711  10.091  10.851 -0.0241 -0.3418  0.5633
  942MOL0     C27055   8.834  10.178  10.860  0.0018 -0.7164  1.3705
  942MOL0     C27056   8.971  10.106  10.868 -0.3779  0.1941 -0.8306
  942MOL0     C27057   9.025  10.043  10.738  0.1747 -0.0875 -0.6089
  942MOL0     C27058   9.042  10.146  10.625 -1.2359 -0.6545 -0.1038
  942MOL0     O27059   9.143  10.240  10.658  0.2372 -0.0197 -0.4794
  942MOL0     C27060   9.261  10.236  10.589  0.8382  0.4683  0.4190
  942MOL0     C27061   9.331  10.354  10.577  0.8562  0.4307  0.4642
  942MOL0     C27062   9.449  10.359  10.497  0.3836 -0.5567 -0.4180
  942MOL0     C27063   9.508  10.243  10.451  0.3960  0.4289  0.4193
  942MOL0     C27064   9.637  10.244  10.386 -0.0535  0.6874  1.1660
  942MOL0     O27065   9.681  10.363  10.342  0.0168 -0.3922 -0.4161
  942MOL0     C27066   9.814  10.386  10.312  0.4417  0.7379 -0.7837
  942MOL0     C27067   9.911  10.378  10.408  0.5686 -1.1419 -0.5002
  942MOL0     C27068  10.046  10.406  10.378 -0.2428  1.4380 -0.3413
  942MOL0     C27069  10.084  10.439  10.246 -0.4719 -0.3707  0.5770
  942MOL0     O27070  10.218  10.463  10.200  0.3970  0.2260 -0.7580
  942MOL0     C27071  10.245  10.610  10.186 -0.4332 -0.2562 -0.0179
  942MOL0     C27072  10.308  10.668  10.311 -0.9804  0.1353  0.2670
  942MOL0     C27073  10.444  10.611  10.351 -0.3786 -0.3143 -0.5069
  942MOL0     C27074  10.554  10.617  10.231 -0.4556 -0.2516 -0.6468
  942MOL0     C27075  10.584  10.766  10.190 -0.7084  0.2404  0.3127
  942MOL0     C27076  10.680  10.832  10.286  1.0440 -0.5500  0.0055
  942MOL0     C27077  10.734  10.954  10.207  0.1225 -0.1825 -0.0627
  942MOL0     C27078  10.845  11.029  10.277  0.9158 -0.2735  0.0157
  942MOL0    Cl27079  10.906  11.156  10.167  0.2853  0.5832 -0.2868
  942MOL0     C27080   9.988  10.426  10.142  0.3758  0.3732  0.5291
  942MOL0     C27081   9.856  10.389  10.174  0.2496 -0.2353 -0.1529
  942MOL0     O27082   9.691  10.133  10.365  0.3942  0.2766 -0.2163
  942MOL0     C27083   9.442  10.124  10.468 -0.1213  0.8046  0.3711
  942MOL0     C27084   9.322  10.117  10.538  0.3858 -1.0891  0.7296
  942MOL0     N27085   8.685   9.965  10.820 -0.3145  0.2452  0.8047
  942MOL0     N27086   8.573   9.926  10.834  1.3114 -0.4013 -0.3449
  942MOL0     C27087   7.276  10.093  10.675  1.3467 -0.3862 -0.8796
  942MOL0     C27088   7.171  10.084  10.585 -0.3422 -0.4760  0.6051
  942MOL0     C27089   7.014  10.066  10.130 -0.0915  0.7800 -0.0013
  942MOL0     C27090   7.011   9.922  10.132  0.3489  0.2393  0.5316
  942MOL0     C27091   6.933   9.854  10.042 -1.0179 -0.1837 -0.2005
  942MOL0     C27092   6.875   9.916   9.934 -0.2563  0.5853 -0.4265
  942MOL0     O27093   6.813   9.840   9.842 -0.4258 -0.1050  0.0703
  942MOL0     C27094   6.762   9.891   9.716  1.0184 -0.6274  0.3538
  942MOL0     C27095   6.693   9.791   9.624  0.2616  0.4186 -0.4253
  942MOL0     C27096   6.587   9.710   9.703 -0.5685 -0.1647 -0.1263
  942MOL0     C27097   6.456   9.781   9.724  0.0979 -0.9637  0.5346
  942MOL0     C27098   6.367   9.669   9.748  0.1656 -0.1463 -0.8394
  942MOL0     C27099   6.299   9.578   9.777  0.5285 -0.0046 -0.1086
  942MOL0     C27100   6.874  10.053   9.933  0.0615 -0.9943  0.5585
  942MOL0     C27101   6.944  10.128  10.028 -0.0505  0.4214  0.2728
  942MOL0     C27102   6.917  10.279  10.026 -0.1050 -0.7747 -0.3078
  942MOL0     H27103   7.351  10.171  10.309 -0.5931 -2.1580 -0.9152
  942MOL0     H27104   7.525  10.206  10.490  0.8780 -2.8322  1.7242
  942MOL0     H27105   7.653  10.122  10.638  1.6557  0.3027 -0.4697
  942MOL0     H27106   7.620  10.300  10.665 -2.7007 -1.0764 -1.8564
  942MOL0     H27107   7.683  10.119  10.892  1.7832  0.5661  1.1102
  942MOL0     H27108   7.677  10.289  10.899 -2.1583 -2.6956  2.2347
  942MOL0     H27109   7.887  10.298  10.751 -0.2031 -0.6229 -0.9181
  942MOL0     H27110   7.862  10.136  10.718 -0.6803 -0.7486  0.6969
  942MOL0     H27111   7.900  10.216  11.003  2.6458  3.1921 -0.4165
  942MOL0     H27112   7.912  10.051  10.925 -0.8182  0.5227 -0.3328
  942MOL0     H27113   8.093  10.277  10.848  0.0828  1.7436  3.0753
  942MOL0     H27114   8.130  10.152  10.983  0.6693 -0.8543 -0.6101
  942MOL0     H27115   8.097   9.986  10.795  1.0266 -0.6789  0.0107
  942MOL0     H27116   8.115  10.111  10.677  0.4603 -5.4009 -1.1126
  942MOL0     H27117   8.324  10.187  10.762 -1.8541  1.2122  1.0263
  942MOL0     H27118   8.305  10.031  10.689  0.9011 -0.0177  0.4994
  942MOL0     H27119   8.341  10.082  11.004  0.0943 -1.6225  0.7416
  942MOL0     H27120   8.320   9.929  10.922 -1.0638  0.2724  0.4996
  942MOL0     H27121   8.589  10.241  10.950  0.3964  1.1196 -0.8993
  942MOL0     H27122   8.829  10.251  10.779  0.9662 -1.6548  0.4188
  942MOL0     H27123   8.835  10.248  10.943  4.3978  0.7789  0.3326
  942MOL0     H27124   9.051  10.168  10.910 -1.7745  0.5003  1.5238
  942MOL0     H27125   8.956  10.027  10.942 -4.2560 -0.3948 -2.0132
  942MOL0     H27126   8.959   9.958  10.715  0.4345 -1.1512  2.2077
  942MOL0     H27127   9.115  10.002  10.785 -0.1320 -0.2406 -0.1525
  942MOL0     H27128   8.950  10.197  10.598  1.1008  2.6812 -2.5827
  942MOL0     H27129   9.068  10.099  10.529  2.9092  3.3342 -1.2877
  942MOL0     H27130   9.299  10.450  10.616 -0.8999  1.9798 -4.1786
  942MOL0     H27131   9.504  10.451  10.482  3.9267 -2.6558 -1.4740
  942MOL0     H27132   9.867  10.365  10.506 -0.2811  1.1811 -0.5235
  942MOL0     H27133  10.123  10.408  10.454  0.2015 -2.9969 -0.4475
  942MOL0     H27134  10.309  10.625  10.098  1.4347  1.5522  1.5488
  942MOL0     H27135  10.151  10.662  10.165 -0.5969  0.8042  2.9425
  942MOL0     H27136  10.317  10.777  10.312  4.1136  0.0085  2.9364
  942MOL0     H27137  10.230  10.649  10.386 -0.4806  1.2535  1.1129
  942MOL0     H27138  10.472  10.683  10.429 -2.9475  0.7171 -0.4127
  942MOL0     H27139  10.436  10.507  10.382  0.7236 -1.3967 -3.5686
  942MOL0     H27140  10.511  10.573  10.141 -0.5996  0.5840 -0.9994
  942MOL0     H27141  10.643  10.556  10.250  0.1765  0.3512 -1.5410
  942MOL0     H27142  10.493  10.825  10.185  0.1251  1.4310 -1.6301
  942MOL0     H27143  10.623  10.768  10.088  0.6274 -1.7219  0.7036
  942MOL0     H27144  10.616  10.863  10.369 -2.2782 -1.3484 -2.0589
  942MOL0     H27145  10.756  10.763  10.323  2.1406 -0.4329 -1.9043
  942MOL0     H27146  10.652  11.021  10.180  0.1702  0.1194  0.5209
  942MOL0     H27147  10.776  10.911  10.116 -1.2280 -0.4268 -0.5924
  942MOL0     H27148  10.782  11.079  10.351 -3.3960 -1.0986 -2.7099
  942MOL0     H27149  10.919  10.960  10.318  0.2628 -1.0467 -0.0604
  942MOL0     H27150  10.021  10.443  10.040 -0.4364  0.2832  0.2445
  942MOL0     H27151   9.781  10.368  10.098 -0.0557 -1.2734  0.4153
  942MOL0     H27152   9.481  10.029  10.432 -2.8337 -0.4905  0.5782
  942MOL0     H27153   9.268  10.024  10.554 -1.5062 -0.0242  0.8426
  942MOL0     H27154   7.259  10.062  10.778  1.2251 -2.7228 -1.5570
  942MOL0     H27155   7.071  10.052  10.614 -1.6286  2.2077 -0.4327
  942MOL0     H27156   7.057   9.857  10.207  0.5402  1.1611  1.2303
  942MOL0     H27157   6.946   9.746  10.039  1.6788  0.0786 -1.0694
  942MOL0     H27158   6.838   9.948   9.662  0.6824 -1.7353 -1.3392
  942MOL0     H27159   6.685   9.964   9.742  1.1472 -0.3447 -0.0552
  942MOL0     H27160   6.761   9.717   9.581  1.6281  1.4638 -0.1672
  942MOL0     H27161   6.647   9.842   9.539 -2.9781 -1.5360 -0.0191
  942MOL0     H27162   6.622   9.695   9.805 -1.3716  0.0797  0.1891
  942MOL0     H27163   6.578   9.615   9.649  1.0047 -0.8859  0.7916
  942MOL0     H27164   6.479   9.847   9.808  1.6118 -0.2185 -0.4233
  942MOL0     H27165   6.441   9.839   9.632 -0.5051 -0.6875  0.7995
  942MOL0     H27166   6.243   9.489   9.797  1.1145 -0.6232 -1.1415
  942MOL0     H27167   6.811  10.105   9.862  1.7782 -0.3668 -0.5783
  942MOL0     H27168   7.003  10.340   9.998 -0.6191  0.1690  0.1091
  942MOL0     H27169   6.845  10.296   9.946  1.2406  0.4648 -1.2803
  942MOL0     H27170   6.882  10.313  10.125 -2.4916 -1.6827 -0.7526
  943MOL0     O27171   7.045  10.682   5.274 -0.8298  0.5547  0.1186
  943MOL0     C27172   6.949  10.750   5.312  0.2333 -0.5630  0.5000
  943MOL0     O27173   6.955  10.856   5.395 -0.0846 -1.1324  0.0554
  943MOL0     C27174   7.062  10.890   5.474 -0.9473  0.6379 -0.6895
  943MOL0     C27175   7.116  10.792   5.564 -0.0093 -0.4032  0.7226
  943MOL0     C27176   7.219  10.820   5.651  0.3567  0.1336 -0.0642
  943MOL0     C27177   7.264  10.947   5.667  0.1559  0.6560  0.2046
  943MOL0     O27178   7.356  10.984   5.761  0.1955 -0.0250 -0.3909
  943MOL0     C27179   7.394  10.893   5.875 -0.3408 -0.5972 -0.3668
  943MOL0     C27180   7.499  10.788   5.828 -0.4888  0.0027  0.3479
  943MOL0     C27181   7.623  10.870   5.790  0.0074  0.0237  0.2746
  943MOL0     C27182   7.737  10.784   5.764 -0.7691  0.6864  0.7227
  943MOL0     C27183   7.834  10.852   5.668  0.1194 -1.2090 -0.0977
  943MOL0     C27184   7.884  10.980   5.731  0.0167  0.0150  0.1456
  943MOL0     C27185   7.987  11.062   5.649  0.8191 -0.8592 -0.4124
  943MOL0     C27186   8.131  11.001   5.663  0.2349  0.7815 -0.1764
  943MOL0     N27187   8.219  11.066   5.567 -0.2343 -0.7072  0.4752
  943MOL0     C27188   8.272  11.012   5.449  0.1466 -0.2132 -0.2159
  943MOL0     C27189   8.343  11.113   5.397  0.7013  0.3374 -0.0256
  943MOL0     C27190   8.427  11.107   5.269  1.0745  0.8161 -1.2729
  943MOL0     C27191   8.573  11.094   5.303  0.0208 -0.3096  0.0064
  943MOL0     C27192   8.606  10.991   5.408 -0.2265 -0.4413  0.2168
  943MOL0     C27193   8.757  10.990   5.421 -0.1226  0.4110 -0.1915
  943MOL0     O27194   8.830  10.946   5.301  0.0470  0.1944  1.1476
  943MOL0     C27195   8.967  10.947   5.306  0.6267  0.3172  0.0483
  943MOL0     C27196   9.028  10.928   5.180 -0.0438  0.2565 -0.3114
  943MOL0     C27197   9.164  10.893   5.177  0.4647  0.4477  0.2804
  943MOL0     C27198   9.248  10.911   5.285  1.1890 -0.1607 -0.0586
  943MOL0     C27199   9.397  10.889   5.278  0.0427 -0.7639  0.0054
  943MOL0     O27200   9.449  10.901   5.158 -0.2223 -0.1078 -0.3163
  943MOL0     C27201   9.588  10.881   5.141  0.2114 -0.1064 -0.2725
  943MOL0     C27202   9.649  10.972   5.058  0.4582 -0.1763 -0.0497
  943MOL0     C27203   9.788  10.959   5.037 -0.1058  0.0697  0.6381
  943MOL0     C27204   9.860  10.844   5.076  0.8562 -0.9741 -0.7388
  943MOL0     O27205   9.989  10.836   5.050 -0.1489 -0.6664  0.3654
  943MOL0     C27206  10.078  10.889   5.156  0.1273  0.6095  0.3976
  943MOL0     C27207  10.224  10.886   5.107 -0.0581  0.1821  0.1824
  943MOL0     C27208  10.313  10.946   5.217  0.1588  0.5215  0.1104
  943MOL0     C27209  10.453  10.972   5.173 -0.5044  1.2882  0.1093
  943MOL0     C27210  10.540  11.030   5.279  0.4149 -0.2814 -0.5624
  943MOL0     C27211  10.497  11.180   5.311 -0.0332  0.2898 -0.3364
  943MOL0     C27212  10.628  11.261   5.311 -0.0907 -0.8554 -0.5162
  943MOL0     C27213  10.653  11.321   5.174  0.9609  0.4406 -0.3138
  943MOL0    Cl27214  10.745  11.177   5.084  0.0782  0.0291 -0.2016
  943MOL0     C27215   9.794  10.736   5.131 -0.1189  0.0689  0.8570
  943MOL0     C27216   9.655  10.757   5.170 -0.0467  0.0586 -0.2927
  943MOL0     O27217   9.459  10.857   5.374  0.8273 -0.0406 -0.6203
  943MOL0     C27218   9.193  10.956   5.409  0.7316 -0.5678  0.0942
  943MOL0     C27219   9.052  10.972   5.416  0.4687 -0.7178 -0.5223
  943MOL0     N27220   8.331  11.223   5.480 -0.6246 -0.0891  0.1082
  943MOL0     N27221   8.248  11.196   5.577  0.3063  0.2187 -0.0331
  943MOL0     C27222   7.211  11.053   5.585  0.5340  0.7518 -0.3382
  943MOL0     C27223   7.110  11.026   5.490 -0.1838 -0.2602  0.4751
  943MOL0     C27224   6.812  10.722   5.254  0.0856  0.4127  0.2217
  943MOL0     C27225   6.806  10.638   5.140  0.0257  0.3159 -0.0826
  943MOL0     C27226   6.685  10.588   5.085 -0.9514 -0.6011  1.0832
  943MOL0     C27227   6.565  10.633   5.140 -0.0773  0.1458 -0.2537
  943MOL0     O27228   6.460  10.575   5.073 -0.0885 -0.4039 -0.1348
  943MOL0     C27229   6.322  10.590   5.131  0.0275  0.1314 -0.1761
  943MOL0     C27230   6.250  10.725   5.098  0.5432  0.1371  0.4222
  943MOL0     C27231   6.099  10.705   5.110 -0.4006 -0.0828 -0.7563
  943MOL0     C27232   6.038  10.679   5.244 -0.0309 -0.4391 -0.2957
  943MOL0     C27233   5.892  10.686   5.231 -0.7282 -0.4138 -0.7488
  943MOL0     C27234   5.771  10.696   5.228  0.7308 -0.3164  0.4859
  943MOL0     C27235   6.564  10.714   5.255  0.1104 -0.6172 -0.1871
  943MOL0     C27236   6.685  10.748   5.314  1.0452  0.6712 -1.0268
  943MOL0     C27237   6.659  10.843   5.434  0.4904 -0.6035 -0.5089
  943MOL0     H27238   7.083  10.691   5.540 -0.2211 -0.3335  0.7189
  943MOL0     H27239   7.249  10.734   5.711 -2.0520 -1.4638 -0.9772
  943MOL0     H27240   7.434  10.966   5.946  0.1529  0.7415 -1.9508
  943MOL0     H27241   7.306  10.852   5.925 -2.7937  4.2151 -0.1977
  943MOL0     H27242   7.463  10.734   5.741 -0.9609 -0.6945  0.9686
  943MOL0     H27243   7.517  10.708   5.901 -4.0301 -2.5353 -1.2767
  943MOL0     H27244   7.649  10.925   5.881 -1.8766 -1.7679  1.9836
  943MOL0     H27245   7.613  10.936   5.704  1.9898  0.1250  0.0885
  943MOL0     H27246   7.784  10.761   5.861  0.6730 -2.2411 -0.5388
  943MOL0     H27247   7.712  10.687   5.720  0.0667  1.4072 -1.4293
  943MOL0     H27248   7.925  10.791   5.668 -0.6889 -2.5279 -2.1661
  943MOL0     H27249   7.794  10.863   5.566 -0.7885 -0.0956  0.3598
  943MOL0     H27250   7.805  11.054   5.748 -2.0017 -2.0152  0.1038
  943MOL0     H27251   7.929  10.945   5.824  1.0578  2.6608  0.7136
  943MOL0     H27252   7.995  11.166   5.682 -0.2549 -0.8674 -0.0962
  943MOL0     H27253   7.956  11.061   5.544 -0.4454  0.5333 -0.0851
  943MOL0     H27254   8.172  11.021   5.763 -1.2247 -2.7913  1.2932
  943MOL0     H27255   8.129  10.895   5.640 -0.8313  0.6883  0.2832
  943MOL0     H27256   8.279  10.911   5.411  1.2077 -0.3482  0.2956
  943MOL0     H27257   8.402  11.028   5.199 -0.7854 -0.8164  1.0609
  943MOL0     H27258   8.408  11.201   5.217 -3.6809  0.8208 -0.0062
  943MOL0     H27259   8.629  11.082   5.210 -2.0834 -1.3968 -1.2134
  943MOL0     H27260   8.603  11.191   5.345  0.5628 -0.2564 -0.5032
  943MOL0     H27261   8.559  10.894   5.386 -0.2425 -0.6864  1.2910
  943MOL0     H27262   8.567  11.017   5.506  1.4945 -1.8367  1.3442
  943MOL0     H27263   8.788  10.921   5.500 -1.1845  0.3419  0.1782
  943MOL0     H27264   8.789  11.088   5.456  2.0182 -0.9156  1.9287
  943MOL0     H27265   8.972  10.929   5.087  4.2983 -0.3856 -3.2412
  943MOL0     H27266   9.215  10.859   5.088  0.4164  1.0576  0.0180
  943MOL0     H27267   9.597  11.059   5.022 -1.3037 -0.7337  1.0158
  943MOL0     H27268   9.854  11.033   4.994  0.4885 -1.8339 -2.0335
  943MOL0     H27269  10.063  10.993   5.186 -0.2988  0.4955  0.5947
  943MOL0     H27270  10.072  10.822   5.242 -4.2460  1.0769  0.6850
  943MOL0     H27271  10.260  10.787   5.079  0.4866 -0.2014  2.0548
  943MOL0     H27272  10.226  10.949   5.017  2.7805  1.3336  0.9541
  943MOL0     H27273  10.260  11.039   5.243 -1.8633  0.3645 -2.8686
  943MOL0     H27274  10.329  10.880   5.302  0.8826  1.4664  0.7243
  943MOL0     H27275  10.461  11.040   5.089  1.6134 -1.7507 -2.4149
  943MOL0     H27276  10.484  10.872   5.141  0.6638  1.2657  1.2004
  943MOL0     H27277  10.646  11.025   5.252  0.3010 -3.3451 -0.7019
  943MOL0     H27278  10.531  10.970   5.370 -1.5744  0.3083 -0.3149
  943MOL0     H27279  10.429  11.215   5.233  1.9573  0.6204 -1.9998
  943MOL0     H27280  10.452  11.188   5.411  2.7191  2.4301  0.8562
  943MOL0     H27281  10.719  11.214   5.352  1.3746  1.4051 -0.9971
  943MOL0     H27282  10.612  11.342   5.383  0.5418 -0.7189 -0.5189
  943MOL0     H27283  10.567  11.343   5.110  2.1942 -0.4802 -2.4109
  943MOL0     H27284  10.710  11.414   5.182 -0.9522  1.5008  2.9448
  943MOL0     H27285   9.850  10.643   5.142 -1.2235 -0.6415  0.6289
  943MOL0     H27286   9.610  10.673   5.223  3.3024 -2.8401 -1.6604
  943MOL0     H27287   9.256  10.964   5.497  0.7616 -2.9288  0.3338
  943MOL0     H27288   9.005  11.007   5.507  1.0079  0.0436 -0.5219
  943MOL0     H27289   7.251  11.153   5.599 -0.3647  1.6822 -3.5854
  943MOL0     H27290   7.077  11.104   5.422 -1.0991 -1.8661 -0.9915
  943MOL0     H27291   6.900  10.609   5.094 -0.9518 -0.4118 -1.7157
  943MOL0     H27292   6.678  10.506   5.015 -1.4170 -2.2846  3.0222
  943MOL0     H27293   6.324  10.548   5.232  1.0890 -0.2103 -0.3234
  943MOL0     H27294   6.253  10.521   5.081 -1.0558 -1.2168  2.9145
  943MOL0     H27295   6.269  10.748   4.993 -0.9500  0.7269  0.2562
  943MOL0     H27296   6.289  10.812   5.151 -2.0574  3.1586 -2.2720
  943MOL0     H27297   6.073  10.618   5.049  1.6573 -4.0991  3.4357
  943MOL0     H27298   6.053  10.793   5.063 -0.8585  0.1616  0.1217
  943MOL0     H27299   6.055  10.577   5.279 -3.6645 -1.2279 -0.4421
  943MOL0     H27300   6.067  10.753   5.320 -1.4776 -1.0567  0.8980
  943MOL0     H27301   5.665  10.709   5.221  0.6409 -1.0002  0.4257
  943MOL0     H27302   6.471  10.746   5.301  0.2900 -0.8071  0.3142
  943MOL0     H27303   6.564  10.896   5.426 -1.0208 -3.0952 -0.1096
  943MOL0     H27304   6.649  10.781   5.524 -0.9997  0.0687 -0.1738
  943MOL0     H27305   6.745  10.911   5.442  2.0352 -2.6597  2.0320
  944MOL0     O27306   6.434   9.584  11.247 -0.2091  0.3540  0.2054
  944MOL0     C27307   6.368   9.679  11.286  0.2660 -0.0667 -0.2340
  944MOL0     O27308   6.410   9.763  11.391  0.1672 -0.2967  0.4973
  944MOL0     C27309   6.538   9.759  11.438 -0.4163 -0.1679 -0.5778
  944MOL0     C27310   6.599   9.885  11.466  0.9175  0.2430 -0.0287
  944MOL0     C27311   6.734   9.891  11.506  0.0788 -0.2565 -0.2944
  944MOL0     C27312   6.805   9.774  11.537 -0.3896 -0.0887 -0.0121
  944MOL0     O27313   6.936   9.781  11.583  0.5832  0.2792  0.5335
  944MOL0     C27314   6.933   9.730  11.714 -0.3678  0.1866  0.0870
  944MOL0     C27315   7.072   9.720  11.767 -0.2798  0.2780  0.0346
  944MOL0     C27316   7.148   9.858  11.786 -0.4087  0.1607  0.4998
  944MOL0     C27317   7.285   9.827  11.855  0.7576  0.3026  0.2130
  944MOL0     C27318   7.361   9.949  11.913  0.2009  0.0569  0.1781
  944MOL0     C27319   7.472   9.906  12.004 -1.3926 -0.2251 -0.6731
  944MOL0     C27320   7.590   9.849  11.926  0.2051 -0.3199  0.1917
  944MOL0     C27321   7.716   9.839  12.007  0.5599  0.5283 -0.0336
  944MOL0     N27322   7.809   9.761  11.932  0.1807 -0.2056 -0.3959
  944MOL0     C27323   7.889   9.811  11.832 -0.1579 -0.5742  0.9167
  944MOL0     C27324   7.973   9.709  11.793  0.3623 -0.4373 -1.5803
  944MOL0     C27325   8.091   9.723  11.699 -0.8588 -0.1291 -0.6463
  944MOL0     C27326   8.210   9.762  11.780  0.0646 -0.2978 -0.1398
  944MOL0     C27327   8.334   9.760  11.694 -0.1557 -0.1333 -0.1067
  944MOL0     C27328   8.452   9.829  11.770 -0.4828 -0.3735  0.4742
  944MOL0     O27329   8.540   9.910  11.681  0.2826  0.6822  0.3826
  944MOL0     C27330   8.675   9.877  11.676  0.3748 -0.2581  0.0692
  944MOL0     C27331   8.774   9.972  11.714 -0.6602 -0.2688 -0.1539
  944MOL0     C27332   8.907   9.932  11.729 -0.0734  0.6251 -0.5780
  944MOL0     C27333   8.952   9.795  11.701  0.5087  0.3897 -0.4687
  944MOL0     C27334   9.094   9.766  11.718 -0.0241 -0.1164  0.2458
  944MOL0     O27335   9.175   9.863  11.750 -0.1853 -0.0065 -0.3967
  944MOL0     C27336   9.310   9.842  11.745 -0.1949  0.1378 -0.4377
  944MOL0     C27337   9.374   9.813  11.631 -0.9666 -0.1479 -0.0445
  944MOL0     C27338   9.518   9.833  11.628 -0.8107  0.6751 -0.3140
  944MOL0     C27339   9.590   9.874  11.739 -0.2109 -0.6141  0.4773
  944MOL0     O27340   9.714   9.920  11.720 -0.0445  0.2886  0.6721
  944MOL0     C27341   9.802   9.941  11.830  0.0750  0.0800 -0.5535
  944MOL0     C27342   9.935   9.869  11.806 -0.1119 -0.6353 -0.2952
  944MOL0     C27343  10.022   9.892  11.933  0.9149 -0.3261 -0.1295
  944MOL0     C27344  10.171   9.839  11.920 -1.2395 -0.1829  0.8557
  944MOL0     C27345  10.242   9.943  11.823 -0.1266 -0.1236  0.0736
  944MOL0     C27346  10.394   9.917  11.814  0.3155 -0.3071 -0.0017
  944MOL0     C27347  10.449  10.009  11.712  0.1158 -0.4945  0.3458
  944MOL0     C27348  10.607  10.032  11.720 -0.2659  0.2313 -0.4251
  944MOL0    Cl27349  10.643  10.131  11.868 -0.1336 -0.3706 -0.1226
  944MOL0     C27350   9.519   9.889  11.861  0.7551 -0.3111  0.2542
  944MOL0     C27351   9.377   9.882  11.864 -0.6512  0.0811  0.4084
  944MOL0     O27352   9.130   9.649  11.692 -0.0590 -0.3799  0.0611
  944MOL0     C27353   8.858   9.706  11.662  0.4225 -0.0245 -0.1057
  944MOL0     C27354   8.717   9.750  11.652  0.4404  0.5332 -0.4393
  944MOL0     N27355   7.935   9.600  11.869 -0.4307 -0.2925  0.5302
  944MOL0     N27356   7.829   9.630  11.941 -0.5181  0.5337 -0.2147
  944MOL0     C27357   6.750   9.652  11.508  0.1246  0.0529 -0.7888
  944MOL0     C27358   6.619   9.638  11.458  0.8066 -0.8930  0.0384
  944MOL0     C27359   6.232   9.702  11.233  0.0514  0.6217 -0.3354
  944MOL0     C27360   6.171   9.589  11.180  0.1489 -0.1505 -0.4334
  944MOL0     C27361   6.042   9.585  11.130  0.2922  0.1649  0.7991
  944MOL0     C27362   5.967   9.703  11.128  0.1736  0.0913  0.6437
  944MOL0     O27363   5.844   9.705  11.067 -0.4514 -0.7968 -0.6248
  944MOL0     C27364   5.751   9.818  11.095  0.6977 -0.6522  0.6343
  944MOL0     C27365   5.607   9.778  11.048 -0.0774  0.7256 -0.1419
  944MOL0     C27366   5.502   9.886  11.064 -0.0699 -0.1425 -0.2841
  944MOL0     C27367   5.504   9.979  10.940  0.1966 -0.0056  0.0554
  944MOL0     C27368   5.388   9.947  10.863 -0.3593 -0.2074 -0.4178
  944MOL0     C27369   5.283   9.914  10.810 -0.4145  0.4438 -0.7330
  944MOL0     C27370   6.027   9.816  11.188 -0.3975 -0.4235  0.1613
  944MOL0     C27371   6.155   9.821  11.238 -0.0699  0.3707 -0.0101
  944MOL0     C27372   6.203   9.949  11.300  0.4680  0.2683 -0.1913
  944MOL0     H27373   6.544   9.978  11.459  1.1317  0.2955 -1.1602
  944MOL0     H27374   6.784   9.985  11.527  0.2656 -0.4576  0.1870
  944MOL0     H27375   6.871   9.789  11.783  0.4271  0.4274  0.6066
  944MOL0     H27376   6.896   9.627  11.722  1.7064 -0.5438  0.9346
  944MOL0     H27377   7.136   9.655  11.708  2.1486  1.1876  1.4968
  944MOL0     H27378   7.059   9.672  11.865  0.9107  0.0390  0.0924
  944MOL0     H27379   7.086   9.924  11.848  0.0363  1.7610 -0.7021
  944MOL0     H27380   7.166   9.907  11.690 -1.6096 -0.1015  0.1207
  944MOL0     H27381   7.256   9.759  11.936  1.1440 -0.4328 -0.2524
  944MOL0     H27382   7.359   9.783  11.788  0.7394 -0.4469  0.6716
  944MOL0     H27383   7.403  10.018  11.840 -1.7316  0.2549 -0.7982
  944MOL0     H27384   7.288  10.012  11.964 -0.0013 -0.2229  0.2386
  944MOL0     H27385   7.499   9.993  12.065  1.0881 -1.9373  0.8545
  944MOL0     H27386   7.456   9.833  12.083  1.4989  0.8399  1.0670
  944MOL0     H27387   7.610   9.911  11.838  1.7020 -0.2082  0.5742
  944MOL0     H27388   7.564   9.751  11.884 -2.3929 -0.7282  2.4746
  944MOL0     H27389   7.753   9.936  12.038 -1.9166  1.7606 -0.6471
  944MOL0     H27390   7.689   9.792  12.102 -0.2621 -0.7815 -0.8720
  944MOL0     H27391   7.886   9.909  11.786 -0.2415 -1.8824 -2.1402
  944MOL0     H27392   8.103   9.632  11.639 -0.4133  0.1676 -1.0083
  944MOL0     H27393   8.069   9.801  11.625 -0.9575  1.1621  0.6902
  944MOL0     H27394   8.194   9.866  11.811  0.4644 -0.4136  0.4674
  944MOL0     H27395   8.227   9.691  11.861 -2.4732 -0.9158 -0.0806
  944MOL0     H27396   8.306   9.830  11.614  0.9031  2.4385  1.6253
  944MOL0     H27397   8.362   9.663  11.652 -0.1948  0.4356 -1.5193
  944MOL0     H27398   8.504   9.765  11.841  2.2743 -0.6489 -1.6375
  944MOL0     H27399   8.415   9.905  11.840  0.5513 -0.5718  1.2517
  944MOL0     H27400   8.731  10.067  11.745 -1.3118  0.1202 -2.0984
  944MOL0     H27401   8.972  10.003  11.779  1.8549 -1.9429  0.7564
  944MOL0     H27402   9.314   9.787  11.544 -1.4992  1.6659 -0.2499
  944MOL0     H27403   9.583   9.815  11.543  2.1697  1.2671  1.6715
  944MOL0     H27404   9.831  10.047  11.828  2.2491 -0.4259  1.0513
  944MOL0     H27405   9.773   9.925  11.934  2.5626  0.2764  0.2232
  944MOL0     H27406   9.916   9.762  11.794 -3.8323 -0.0030 -1.4389
  944MOL0     H27407   9.982   9.915  11.718  0.4505  1.3341  0.9763
  944MOL0     H27408  10.019   9.998  11.963 -1.8562 -0.4478  0.2840
  944MOL0     H27409   9.973   9.850  12.022  0.5519  1.5626  0.6092
  944MOL0     H27410  10.168   9.743  11.866 -2.0347 -0.7071  1.8100
  944MOL0     H27411  10.228   9.825  12.012  1.5631  2.3124 -0.3609
  944MOL0     H27412  10.235  10.044  11.863  1.7444 -0.1217  0.4682
  944MOL0     H27413  10.211   9.936  11.718  1.6442  1.5414 -0.6143
  944MOL0     H27414  10.438   9.936  11.913  0.2294  1.7397 -0.3052
  944MOL0     H27415  10.407   9.812  11.786 -0.9227 -0.5227  0.1593
  944MOL0     H27416  10.386  10.098  11.710 -0.1617 -0.5775  2.7739
  944MOL0     H27417  10.427   9.971  11.612  1.4369  1.1446 -0.6202
  944MOL0     H27418  10.662   9.938  11.716 -0.0598  0.2847  0.8897
  944MOL0     H27419  10.636  10.089  11.631 -1.4307  0.1040 -0.9128
  944MOL0     H27420   9.564   9.934  11.949  1.5847 -2.4212  0.9698
  944MOL0     H27421   9.323   9.928  11.946  1.1341 -1.0796  2.3483
  944MOL0     H27422   8.892   9.603  11.652 -0.6326 -0.6448  2.0344
  944MOL0     H27423   8.642   9.677  11.622 -1.8907  2.8739 -0.6328
  944MOL0     H27424   6.810   9.562  11.520  1.0336  0.7062 -0.2428
  944MOL0     H27425   6.574   9.542  11.434  1.5376 -1.1547 -0.3082
  944MOL0     H27426   6.221   9.493  11.193  1.1441  0.7560  4.3728
  944MOL0     H27427   6.010   9.486  11.099 -0.1078  0.2210  1.0269
  944MOL0     H27428   5.774   9.906  11.034  0.7646 -1.8122 -1.0521
  944MOL0     H27429   5.760   9.845  11.201  1.3155  1.3331  0.1286
  944MOL0     H27430   5.579   9.690  11.106 -0.6361  0.0898 -1.3454
  944MOL0     H27431   5.612   9.742  10.945 -0.7851 -0.4830  0.2286
  944MOL0     H27432   5.533   9.948  11.148  1.4101 -1.0641 -0.1007
  944MOL0     H27433   5.402   9.848  11.086  0.8066 -1.1128  2.4532
  944MOL0     H27434   5.496  10.079  10.984 -1.0239 -1.2589  2.9280
  944MOL0     H27435   5.595   9.964  10.881  1.2169  2.3133  0.9290
  944MOL0     H27436   5.194   9.881  10.760  1.4315 -1.1833 -3.2682
  944MOL0     H27437   5.965   9.905  11.188  0.6775  0.4482 -3.1942
  944MOL0     H27438   6.311   9.956  11.286  0.2700  1.6066 -1.3290
  944MOL0     H27439   6.155  10.037  11.255  0.3940  0.0838 -0.4719
  944MOL0     H27440   6.204   9.949  11.410  5.4777 -1.6168 -0.0005
  945MOL0     O27441  10.242   7.039  10.247  0.2872 -0.0606  0.2574
  945MOL0     C27442  10.214   7.120  10.332 -0.3316  0.3274  0.0589
  945MOL0     O27443  10.281   7.235  10.362 -0.2333 -0.5191  0.2909
  945MOL0     C27444  10.391   7.279  10.297  0.1054  0.3287  0.1526
  945MOL0     C27445  10.472   7.208  10.207 -0.2064 -0.3789  0.4076
  945MOL0     C27446  10.579   7.266  10.148 -0.5887  0.1813 -0.7403
  945MOL0     C27447  10.622   7.393  10.181  0.3832 -0.6721  0.2842
  945MOL0     O27448  10.732   7.453  10.130  0.0483 -0.6048 -0.1980
  945MOL0     C27449  10.852   7.398  10.178  0.8487 -0.4610  0.0323
  945MOL0     C27450  10.976   7.449  10.106  0.5702  0.5439  0.0999
  945MOL0     C27451  11.110   7.400  10.166 -0.2141 -0.1886  0.3328
  945MOL0     C27452  11.233   7.489  10.109  0.1443 -0.5756  0.6449
  945MOL0     C27453  11.363   7.424  10.156 -0.3614  0.8130  1.2732
  945MOL0     C27454  11.485   7.498  10.089  0.4616 -0.3035 -0.3230
  945MOL0     C27455  11.625   7.465  10.150 -0.3991  0.2258  0.3001
  945MOL0     C27456  11.728   7.564  10.100  0.7592  0.5848 -0.0035
  945MOL0     N27457  11.856   7.536  10.173 -0.0427 -0.3374 -0.2389
  945MOL0     C27458  11.899   7.587  10.291  0.0897  0.0394  0.5137
  945MOL0     C27459  12.021   7.533  10.313  0.2242 -0.2446 -0.0383
  945MOL0     C27460  12.106   7.583  10.434 -0.0363  0.4590 -0.1048
  945MOL0     C27461  12.182   7.469  10.505  0.7860 -0.2295  0.9382
  945MOL0     C27462  12.265   7.539  10.624  0.2358 -0.6517  0.5948
  945MOL0     C27463  12.332   7.422  10.705 -0.6301  0.1774  0.1359
  945MOL0     O27464  12.388   7.324  10.620  0.1483  0.1972  0.0349
  945MOL0     C27465  12.491   7.244  10.674 -0.5280 -0.4835 -0.7179
  945MOL0     C27466  12.554   7.246  10.802  0.1601  0.0307  0.1767
  945MOL0     C27467  12.664   7.159  10.830 -0.0575  0.2202  1.1567
  945MOL0     C27468  12.705   7.065  10.732 -0.5555  0.6892 -0.0544
  945MOL0     C27469  12.810   6.965  10.770 -0.0259 -0.5514 -0.4561
  945MOL0     O27470  12.888   6.913  10.677  0.4995 -0.3055  0.2454
  945MOL0     C27471  12.983   6.824  10.725  0.5734 -0.3689  0.3293
  945MOL0     C27472  12.967   6.689  10.705  0.0953 -0.3576  0.2101
  945MOL0     C27473  13.067   6.607  10.744 -0.0862  0.2353 -0.3348
  945MOL0     C27474  13.187   6.643  10.805  0.5815 -0.1122 -0.2049
  945MOL0     O27475  13.282   6.542  10.843 -0.4419  0.6143 -0.4270
  945MOL0     C27476  13.347   6.526  10.974  0.8108  0.3522 -0.0949
  945MOL0     C27477  13.407   6.388  10.973  0.0779  0.0452  0.4396
  945MOL0     C27478  13.512   6.360  11.080 -0.2491 -0.8631 -0.3028
  945MOL0     C27479  13.557   6.215  11.100  0.5105 -0.4625  0.2672
  945MOL0     C27480  13.672   6.212  11.200  0.6709  0.1666  0.4019
  945MOL0     C27481  13.697   6.064  11.243 -0.0965  0.1232 -0.0576
  945MOL0     C27482  13.628   6.031  11.381 -0.5214 -0.3187  0.1048
  945MOL0     C27483  13.678   5.902  11.447  0.1825  0.0677 -0.5817
  945MOL0    Cl27484  13.681   5.764  11.330 -0.0587 -0.2695 -0.1476
  945MOL0     C27485  13.204   6.782  10.822 -0.6882  0.4755 -0.2704
  945MOL0     C27486  13.105   6.874  10.772  0.3730  0.8065 -0.0607
  945MOL0     O27487  12.814   6.932  10.883 -0.5083 -0.3350 -0.0191
  945MOL0     C27488  12.649   7.073  10.605  0.8572  0.7673 -0.6385
  945MOL0     C27489  12.542   7.158  10.582  0.3368  0.4026  0.4345
  945MOL0     N27490  12.058   7.457  10.201  0.7275 -0.3993 -0.5529
  945MOL0     N27491  11.957   7.460  10.121  0.0676 -0.6772  0.4196
  945MOL0     C27492  10.547   7.462  10.267 -0.4379  0.0384  0.3567
  945MOL0     C27493  10.427   7.407  10.320 -0.3371 -0.0749 -1.2929
  945MOL0     C27494  10.092   7.093  10.414 -0.0237 -0.4755  0.4170
  945MOL0     C27495  10.035   7.207  10.481 -0.2671 -0.2886 -0.1977
  945MOL0     C27496   9.925   7.200  10.569  0.9414  0.5358  0.3354
  945MOL0     C27497   9.854   7.077  10.573  0.5134 -0.7923  1.0141
  945MOL0     O27498   9.739   7.051  10.650 -0.3672  0.3576 -0.1327
  945MOL0     C27499   9.649   7.157  10.679  0.6171 -0.3729  0.6411
  945MOL0     C27500   9.540   7.188  10.575  0.1623  0.0357  0.0706
  945MOL0     C27501   9.439   7.074  10.559 -0.4429  1.0907 -0.0615
  945MOL0     C27502   9.305   7.125  10.492 -0.2226 -0.2008 -0.3558
  945MOL0     C27503   9.320   7.109  10.346  0.2539 -0.3792  0.2581
  945MOL0     C27504   9.345   7.070  10.236 -0.1783  0.1077  0.4751
  945MOL0     C27505   9.909   6.964  10.511 -0.2102 -0.1089 -1.0395
  945MOL0     C27506  10.023   6.972  10.426  0.6918 -0.3129 -0.5451
  945MOL0     C27507  10.065   6.837  10.368 -0.3374  0.1505  0.8657
  945MOL0     H27508  10.442   7.109  10.176  1.3793 -0.2275 -1.8739
  945MOL0     H27509  10.642   7.209  10.082 -0.3989 -3.5082  2.2900
  945MOL0     H27510  10.872   7.429  10.281  2.1419  0.0589 -0.3573
  945MOL0     H27511  10.854   7.290  10.160 -0.5378 -0.0974 -2.9811
  945MOL0     H27512  10.977   7.558  10.118 -0.9330  0.4473  1.4388
  945MOL0     H27513  10.971   7.428   9.999 -1.5906  0.0502  0.2501
  945MOL0     H27514  11.128   7.299  10.129  0.3992  0.2374 -0.5552
  945MOL0     H27515  11.103   7.404  10.275 -3.7283  0.3480  0.2248
  945MOL0     H27516  11.221   7.490  10.001  1.7582  3.1039  0.3347
  945MOL0     H27517  11.223   7.591  10.149 -1.2071 -0.6401  0.5083
  945MOL0     H27518  11.364   7.430  10.266 -0.2924  0.4039  1.2989
  945MOL0     H27519  11.366   7.318  10.126 -0.1676  0.1561  3.4247
  945MOL0     H27520  11.483   7.473   9.983 -0.7416 -0.0396 -0.3750
  945MOL0     H27521  11.464   7.604  10.101 -0.9311 -0.3946 -1.5879
  945MOL0     H27522  11.650   7.367  10.110  0.8859  1.6711 -2.7050
  945MOL0     H27523  11.627   7.452  10.259  1.2094 -3.7103 -0.0376
  945MOL0     H27524  11.740   7.556   9.992 -1.1458  1.4861 -0.3184
  945MOL0     H27525  11.703   7.667  10.126 -2.4714 -0.7017  2.5664
  945MOL0     H27526  11.848   7.656  10.358 -1.1370  1.3329 -1.6572
  945MOL0     H27527  12.178   7.658  10.400 -0.3188 -0.0048 -1.8575
  945MOL0     H27528  12.038   7.633  10.504  0.8465  2.0187 -0.3024
  945MOL0     H27529  12.110   7.397  10.545 -0.7319  1.3415  1.1228
  945MOL0     H27530  12.248   7.418  10.434  1.5742  1.1750  0.6393
  945MOL0     H27531  12.217   7.614  10.687  2.3751  3.3538 -2.0673
  945MOL0     H27532  12.349   7.591  10.577  2.1771  0.0895  4.4877
  945MOL0     H27533  12.266   7.366  10.772  0.0313 -0.1471  0.5219
  945MOL0     H27534  12.414   7.468  10.761  1.8743 -1.4834 -1.9421
  945MOL0     H27535  12.526   7.314  10.882  3.9284  1.6195  0.3378
  945MOL0     H27536  12.720   7.168  10.922  2.6987  1.4188 -0.4953
  945MOL0     H27537  12.878   6.656  10.652  1.4120 -2.3089 -0.9037
  945MOL0     H27538  13.042   6.503  10.725  1.0789  0.0233 -0.7805
  945MOL0     H27539  13.424   6.603  10.990  0.3919  1.1905 -1.8584
  945MOL0     H27540  13.275   6.525  11.056  0.9714 -2.8517  0.1325
  945MOL0     H27541  13.321   6.321  10.962 -0.9413  1.5509 -1.3183
  945MOL0     H27542  13.449   6.366  10.875  0.4677  0.4239  0.5210
  945MOL0     H27543  13.603   6.415  11.057 -1.1581  0.1193 -1.7220
  945MOL0     H27544  13.470   6.394  11.175 -0.8914 -1.5526 -0.3236
  945MOL0     H27545  13.591   6.163  11.010 -1.1892 -1.9951  0.4310
  945MOL0     H27546  13.475   6.151  11.136 -1.1048  1.1605 -0.3539
  945MOL0     H27547  13.639   6.260  11.293 -2.7300 -2.2340  0.6357
  945MOL0     H27548  13.758   6.262  11.155  1.6145  0.0179  1.9753
  945MOL0     H27549  13.669   5.990  11.167 -0.5455 -3.4294  3.2230
  945MOL0     H27550  13.806   6.061  11.245 -0.0606  1.2552  2.1649
  945MOL0     H27551  13.523   6.004  11.367 -0.7947 -0.6375  2.3659
  945MOL0     H27552  13.628   6.111  11.456 -0.1519 -1.0779  0.9311
  945MOL0     H27553  13.782   5.916  11.478 -0.0863 -0.1866  0.4975
  945MOL0     H27554  13.623   5.872  11.537  3.2136 -0.6723  1.1811
  945MOL0     H27555  13.292   6.823  10.871  0.0783 -1.8407  0.4397
  945MOL0     H27556  13.128   6.980  10.773  0.7106  0.7559 -0.9924
  945MOL0     H27557  12.669   7.002  10.525 -1.9587 -0.3323 -0.4761
  945MOL0     H27558  12.504   7.158  10.481 -0.7103  3.6371  0.7217
  945MOL0     H27559  10.579   7.562  10.295 -2.6885  1.8927 -2.9733
  945MOL0     H27560  10.364   7.448  10.398 -0.6692 -2.8881  0.0279
  945MOL0     H27561  10.082   7.303  10.463 -0.3537 -0.3977 -1.0052
  945MOL0     H27562   9.891   7.279  10.635 -1.4166 -0.3128  0.2552
  945MOL0     H27563   9.697   7.251  10.709  0.5839 -0.6334  1.5484
  945MOL0     H27564   9.605   7.137  10.777 -1.0098  2.0528  0.5138
  945MOL0     H27565   9.588   7.199  10.478 -0.0631 -1.8294 -0.2875
  945MOL0     H27566   9.493   7.281  10.607  2.2266  1.0850  0.1918
  945MOL0     H27567   9.428   7.025  10.656  3.9226 -0.8441 -0.3164
  945MOL0     H27568   9.484   6.996  10.497 -2.2084  0.0663 -0.1164
  945MOL0     H27569   9.225   7.068  10.539 -1.0813  1.0922 -0.1967
  945MOL0     H27570   9.288   7.229  10.520  0.5082 -1.0614  3.9881
  945MOL0     H27571   9.372   7.049  10.134 -0.5035  1.7632  0.0267
  945MOL0     H27572   9.870   6.863  10.509 -0.1197 -0.1787 -0.0019
  945MOL0     H27573  10.165   6.820  10.408  0.2998 -1.7827 -1.3022
  945MOL0     H27574   9.995   6.754  10.381 -1.9107  0.9445 -1.7427
  945MOL0     H27575  10.078   6.854  10.261 -0.0028  2.2296  1.2058
  946MOL0     O27576   3.471  11.242   4.447  0.2272 -0.0341  0.1097
  946MOL0     C27577   3.390  11.302   4.374  0.1539 -0.2333  0.0430
  946MOL0     O27578   3.419  11.388   4.277 -0.0850 -0.0025 -0.0572
  946MOL0     C27579   3.546  11.370   4.219 -0.6514  0.2123 -0.0302
  946MOL0     C27580   3.562  11.288   4.108  0.4788 -0.1639 -0.8051
  946MOL0     C27581   3.682  11.268   4.044 -0.1457  0.0556 -0.1557
  946MOL0     C27582   3.797  11.329   4.087 -0.4058  0.1374 -0.2000
  946MOL0     O27583   3.916  11.324   4.016 -0.2739 -0.4786  0.7862
  946MOL0     C27584   4.038  11.366   4.076  0.7732 -0.2687  0.3700
  946MOL0     C27585   4.155  11.297   4.013  0.0124  0.2615  0.7964
  946MOL0     C27586   4.283  11.330   4.079 -0.3724  0.1150  0.4462
  946MOL0     C27587   4.408  11.287   3.991  0.0843  0.8036  0.1002
  946MOL0     C27588   4.544  11.335   4.044 -0.7819 -0.1670  0.8617
  946MOL0     C27589   4.608  11.440   3.941  0.9246 -0.3251 -0.0991
  946MOL0     C27590   4.642  11.379   3.803  0.4038 -0.0675  0.1745
  946MOL0     C27591   4.787  11.400   3.770 -0.0299 -0.4728 -0.1113
  946MOL0     N27592   4.889  11.348   3.863  0.4540 -0.0413  0.2051
  946MOL0     C27593   4.990  11.426   3.911 -0.1212  0.3351 -1.0524
  946MOL0     C27594   5.059  11.340   3.993 -0.1424 -0.3545 -0.3745
  946MOL0     C27595   5.186  11.368   4.067  0.2278  0.3025 -0.1899
  946MOL0     C27596   5.315  11.335   3.991 -0.3234 -0.6905  0.7560
  946MOL0     C27597   5.367  11.456   3.911 -0.6979  0.3892 -0.3722
  946MOL0     C27598   5.517  11.437   3.873 -0.0370 -0.2000 -0.5449
  946MOL0     O27599   5.596  11.447   4.001 -0.4973 -0.4711  0.2349
  946MOL0     C27600   5.737  11.435   4.001  0.8758  0.4500  0.9511
  946MOL0     C27601   5.814  11.401   3.888 -1.0254 -0.0410  0.9234
  946MOL0     C27602   5.953  11.400   3.880 -0.6060 -0.4776 -0.2630
  946MOL0     C27603   6.027  11.433   3.996  0.1549  0.2875  0.3990
  946MOL0     C27604   6.179  11.423   4.006 -0.3257  0.2614  0.5212
  946MOL0     O27605   6.243  11.456   4.117 -0.2356  0.7100 -0.4598
  946MOL0     C27606   6.367  11.410   4.167  0.0327 -0.8575  0.1237
  946MOL0     C27607   6.485  11.390   4.093 -0.5625 -0.0993 -0.6997
  946MOL0     C27608   6.603  11.346   4.162  0.2862 -0.1659 -0.1673
  946MOL0     C27609   6.598  11.305   4.295 -0.4976  0.0439  0.3438
  946MOL0     O27610   6.698  11.243   4.363 -0.4759  0.1489  0.2519
  946MOL0     C27611   6.821  11.206   4.307  0.3891  0.7588 -0.2363
  946MOL0     C27612   6.910  11.126   4.406  0.3459 -0.3794 -0.5740
  946MOL0     C27613   7.048  11.091   4.352 -0.3980  0.5345  0.2708
  946MOL0     C27614   7.129  10.999   4.445 -0.1332 -0.0729  0.8612
  946MOL0     C27615   7.182  11.075   4.564 -0.0419  1.0651  0.8536
  946MOL0     C27616   7.294  11.000   4.642 -0.1821  0.1918 -0.0466
  946MOL0     C27617   7.346  11.081   4.755 -0.0228  0.1204 -0.1081
  946MOL0     C27618   7.442  10.995   4.845  0.7416 -0.6938  1.0324
  946MOL0    Cl27619   7.592  10.949   4.769 -0.1336  0.1857  0.4549
  946MOL0     C27620   6.478  11.325   4.366  0.1304  0.0485 -0.2786
  946MOL0     C27621   6.368  11.371   4.305  0.3597  0.8361  0.7469
  946MOL0     O27622   6.240  11.363   3.910  0.7493  0.4884  0.1221
  946MOL0     C27623   5.953  11.459   4.119 -0.0175 -0.4573  0.1353
  946MOL0     C27624   5.811  11.467   4.119 -0.2640 -0.1745 -0.4276
  946MOL0     N27625   4.993  11.221   4.014  0.2384 -0.0617  0.1897
  946MOL0     N27626   4.890  11.228   3.933 -0.0370 -0.4248  0.2385
  946MOL0     C27627   3.785  11.416   4.199  0.5791  0.5348 -0.5734
  946MOL0     C27628   3.662  11.429   4.268 -0.7469  0.3274  0.4936
  946MOL0     C27629   3.248  11.307   4.414  0.7079  0.8759  0.4014
  946MOL0     C27630   3.176  11.433   4.406  0.2637 -0.4872  0.5269
  946MOL0     C27631   3.043  11.440   4.455  0.5328  0.4083 -0.6583
  946MOL0     C27632   2.983  11.325   4.510 -0.6356 -0.2625 -0.3307
  946MOL0     O27633   2.853  11.322   4.557  0.5275  0.3279 -0.5335
  946MOL0     C27634   2.759  11.421   4.507  0.4659 -0.5007 -0.1253
  946MOL0     C27635   2.629  11.402   4.587  0.7370  0.0626 -1.0497
  946MOL0     C27636   2.576  11.257   4.559 -0.6441 -0.8958 -0.0009
  946MOL0     C27637   2.424  11.264   4.578 -0.3140  0.4086 -0.0268
  946MOL0     C27638   2.369  11.124   4.587 -0.2886  0.4449  0.3366
  946MOL0     C27639   2.306  11.028   4.606 -0.8213  0.3975  0.0051
  946MOL0     C27640   3.047  11.203   4.511  0.3690  0.3974 -0.3866
  946MOL0     C27641   3.181  11.194   4.473  0.6477  0.6175 -0.0118
  946MOL0     C27642   3.239  11.049   4.463  0.3073 -1.3590 -0.5705
  946MOL0     H27643   3.465  11.241   4.093  1.1456 -2.5502  1.6640
  946MOL0     H27644   3.697  11.213   3.952  0.5787 -1.5981  0.8910
  946MOL0     H27645   4.059  11.473   4.071 -0.3220  0.0643  2.0477
  946MOL0     H27646   4.024  11.330   4.179 -2.2998 -1.3207 -0.3113
  946MOL0     H27647   4.157  11.330   3.909  0.2478 -3.6275 -0.5816
  946MOL0     H27648   4.134  11.190   4.010 -0.8670  0.3539  2.4178
  946MOL0     H27649   4.291  11.282   4.177  0.1852  3.0662  1.9861
  946MOL0     H27650   4.285  11.438   4.099 -0.5580  0.8076 -2.7462
  946MOL0     H27651   4.422  11.179   3.998  0.7318  0.8473 -0.4806
  946MOL0     H27652   4.399  11.312   3.885  1.5853 -1.4438 -0.6477
  946MOL0     H27653   4.523  11.388   4.137 -0.8265 -1.2340  1.4745
  946MOL0     H27654   4.616  11.253   4.053 -1.0953 -0.4858  0.5231
  946MOL0     H27655   4.533  11.518   3.925 -0.8248 -2.1317 -1.2668
  946MOL0     H27656   4.695  11.486   3.989  0.2539  1.3686 -0.4593
  946MOL0     H27657   4.571  11.426   3.734  0.2825  0.3942  0.6023
  946MOL0     H27658   4.625  11.271   3.810  3.5935 -0.6564 -0.0032
  946MOL0     H27659   4.805  11.346   3.676 -1.2359 -1.7872  0.3703
  946MOL0     H27660   4.791  11.509   3.764 -0.5070 -0.4457  0.0231
  946MOL0     H27661   5.028  11.523   3.878 -0.2656 -0.0346 -2.3514
  946MOL0     H27662   5.191  11.468   4.112  3.1121  1.4837 -2.7943
  946MOL0     H27663   5.164  11.305   4.154 -4.2922  1.8381  0.0527
  946MOL0     H27664   5.395  11.312   4.062  0.1022 -1.8131 -0.0584
  946MOL0     H27665   5.300  11.248   3.927 -1.4570  0.7730 -1.0598
  946MOL0     H27666   5.347  11.552   3.959  1.5889  1.0891 -0.7085
  946MOL0     H27667   5.321  11.462   3.812  2.2618  0.2782 -1.8599
  946MOL0     H27668   5.540  11.509   3.795  1.5154  0.9779  0.9282
  946MOL0     H27669   5.533  11.342   3.821  2.7272  0.3442 -0.8330
  946MOL0     H27670   5.767  11.384   3.792 -0.6726  0.6323  0.6262
  946MOL0     H27671   6.001  11.375   3.786 -1.2676 -1.9778 -0.2326
  946MOL0     H27672   6.484  11.425   3.990 -1.3048  1.2367 -0.2647
  946MOL0     H27673   6.697  11.336   4.108  0.4093  2.0097 -0.4598
  946MOL0     H27674   6.810  11.142   4.219 -1.4155  1.7578 -0.7767
  946MOL0     H27675   6.878  11.297   4.286  3.3743 -1.1826 -1.2446
  946MOL0     H27676   6.917  11.187   4.496  2.8646 -2.5085  0.8005
  946MOL0     H27677   6.862  11.032   4.434  0.0539 -0.5798 -1.6987
  946MOL0     H27678   7.044  11.033   4.259  3.0120 -3.7144  2.4271
  946MOL0     H27679   7.092  11.187   4.325  1.7955  0.0881  1.9437
  946MOL0     H27680   7.213  10.957   4.388  1.8013  2.5246  1.5985
  946MOL0     H27681   7.074  10.909   4.472  1.3871 -1.8196 -1.5009
  946MOL0     H27682   7.100  11.109   4.628  1.0505  1.1580  2.2472
  946MOL0     H27683   7.224  11.168   4.524  2.4403 -0.2522  0.1343
  946MOL0     H27684   7.244  10.918   4.695 -2.3203  1.9253  0.7723
  946MOL0     H27685   7.370  10.972   4.568 -1.7384 -2.0604 -0.8886
  946MOL0     H27686   7.264  11.123   4.813 -0.8996  0.1796 -1.3479
  946MOL0     H27687   7.403  11.164   4.712  0.6062  0.7114  1.7738
  946MOL0     H27688   7.461  11.062   4.929  1.2479 -1.0007  1.1737
  946MOL0     H27689   7.391  10.903   4.875  0.0497 -0.7657 -0.2798
  946MOL0     H27690   6.481  11.288   4.468 -0.9941  0.4246 -0.0980
  946MOL0     H27691   6.272  11.385   4.352 -1.4979 -0.2737 -2.4020
  946MOL0     H27692   6.003  11.482   4.212  0.4414 -1.1292  0.0572
  946MOL0     H27693   5.762  11.491   4.212 -1.5197 -1.7474 -0.6521
  946MOL0     H27694   3.868  11.463   4.249  0.0053  0.6031  0.3496
  946MOL0     H27695   3.662  11.491   4.357  0.9170 -2.2599  2.4430
  946MOL0     H27696   3.220  11.518   4.356 -2.3203 -1.6324 -4.4804
  946MOL0     H27697   2.997  11.534   4.426  0.3141  0.6297  0.3715
  946MOL0     H27698   2.743  11.414   4.399  0.4832  2.3100 -0.3869
  946MOL0     H27699   2.783  11.528   4.510  0.4306 -0.4636 -0.8820
  946MOL0     H27700   2.548  11.466   4.550  0.7549 -0.3728 -1.8611
  946MOL0     H27701   2.643  11.420   4.694  3.3549  1.3743 -1.5352
  946MOL0     H27702   2.623  11.187   4.628 -1.3605  0.1273  1.5920
  946MOL0     H27703   2.603  11.222   4.459 -2.0514  0.2873 -0.8336
  946MOL0     H27704   2.398  11.320   4.668 -0.2209 -0.5347  0.6092
  946MOL0     H27705   2.386  11.302   4.483 -1.7059 -0.3421  0.1849
  946MOL0     H27706   2.244  10.942   4.622  0.0103 -0.3883 -0.8595
  946MOL0     H27707   2.996  11.120   4.558 -0.0625  1.4882  1.1509
  946MOL0     H27708   3.333  11.043   4.519  0.5811 -2.4063 -1.1167
  946MOL0     H27709   3.176  10.973   4.508  0.0212 -2.7851 -3.1955
  946MOL0     H27710   3.257  11.019   4.360 -1.1161  1.6582 -1.8361
  947MOL0     O27711   8.899  11.134   0.737  0.0838 -0.0243  0.0767
  947MOL0     C27712   8.985  11.222   0.721 -0.3861  0.5578  0.3992
  947MOL0     O27713   9.097  11.200   0.648  0.0138  0.2721 -0.5582
  947MOL0     C27714   9.149  11.068   0.663  0.3911  0.0632  0.1713
  947MOL0     C27715   9.081  10.950   0.618  0.1016  0.3078  1.2506
  947MOL0     C27716   9.136  10.826   0.622  0.2245 -1.1327  0.1512
  947MOL0     C27717   9.261  10.810   0.679  0.3357 -0.1678  0.6007
  947MOL0     O27718   9.290  10.674   0.675 -0.7967 -0.1215 -0.4985
  947MOL0     C27719   9.427  10.637   0.708 -0.0132 -0.0428 -0.0885
  947MOL0     C27720   9.511  10.681   0.591 -0.5372  0.4490 -0.2741
  947MOL0     C27721   9.656  10.639   0.600 -0.3369  0.3472  0.3642
  947MOL0     C27722   9.722  10.706   0.713  0.0917 -0.3589  0.1621
  947MOL0     C27723   9.877  10.706   0.712  0.1271  0.1634 -0.3616
  947MOL0     C27724   9.923  10.777   0.836  0.1949 -0.6146  0.2068
  947MOL0     C27725  10.075  10.763   0.859  0.2498 -0.4241 -0.2231
  947MOL0     C27726  10.161  10.877   0.793  0.4713 -0.8916 -0.7671
  947MOL0     N27727  10.300  10.858   0.820  0.1158  0.2729 -0.8985
  947MOL0     C27728  10.393  10.940   0.889  0.4147  0.3065  0.6163
  947MOL0     C27729  10.511  10.877   0.859 -0.3690 -0.0572  0.1531
  947MOL0     C27730  10.649  10.910   0.901  0.4307  0.1342 -0.0641
  947MOL0     C27731  10.756  10.898   0.796 -1.1970  0.4444  1.2851
  947MOL0     C27732  10.900  10.894   0.860 -0.4767  0.4404  0.6809
  947MOL0     C27733  11.001  10.870   0.756  0.1583 -0.6254 -0.1343
  947MOL0     O27734  11.035  11.003   0.707 -0.4621  0.0372 -0.2455
  947MOL0     C27735  11.161  11.008   0.660  0.0699  0.2927  0.6425
  947MOL0     C27736  11.229  11.128   0.670  0.2911 -0.6041 -0.3678
  947MOL0     C27737  11.360  11.147   0.616 -0.0167 -0.4624  0.6502
  947MOL0     C27738  11.426  11.046   0.551 -0.5296  0.7570 -0.1015
  947MOL0     C27739  11.563  11.065   0.491 -0.3542 -0.5668  0.0664
  947MOL0     O27740  11.609  11.193   0.477 -0.0461 -0.9039  0.1233
  947MOL0     C27741  11.738  11.232   0.442 -0.3355  0.3556 -0.2170
  947MOL0     C27742  11.749  11.366   0.411  0.7912  0.8675 -0.3247
  947MOL0     C27743  11.872  11.426   0.395 -0.0367 -0.4976  0.2141
  947MOL0     C27744  11.997  11.349   0.395  1.0074 -0.0245  0.1455
  947MOL0     O27745  12.120  11.401   0.375  0.1281 -0.2108  0.2595
  947MOL0     C27746  12.130  11.542   0.353 -0.6362  0.4220 -0.2330
  947MOL0     C27747  12.272  11.558   0.295  0.4034 -0.6629  0.3027
  947MOL0     C27748  12.379  11.531   0.403  0.2642  0.3535  0.2244
  947MOL0     C27749  12.518  11.529   0.339 -0.3498 -0.3576  0.2147
  947MOL0     C27750  12.630  11.525   0.443  0.4631 -0.4109  0.4368
  947MOL0     C27751  12.758  11.475   0.381 -0.9370 -0.2934  0.5035
  947MOL0     C27752  12.877  11.471   0.476 -0.5374  0.3828 -0.0571
  947MOL0     C27753  13.003  11.420   0.396  1.0648  0.1654  0.0711
  947MOL0    Cl27754  13.143  11.431   0.505 -0.2696  0.0986  0.2596
  947MOL0     C27755  11.991  11.208   0.417  0.5519  0.3509  0.4780
  947MOL0     C27756  11.859  11.159   0.450 -0.2442  0.3425 -0.4996
  947MOL0     O27757  11.622  10.961   0.462  0.1551  0.2688  0.5859
  947MOL0     C27758  11.360  10.920   0.546  0.6588  0.0970  0.1155
  947MOL0     C27759  11.225  10.899   0.596  0.3153 -0.7203 -0.2036
  947MOL0     N27760  10.487  10.764   0.775 -0.5967 -0.0101  0.1323
  947MOL0     N27761  10.359  10.755   0.761  0.3640 -0.3441  0.4760
  947MOL0     C27762   9.336  10.916   0.722  0.6909  0.4706 -0.0638
  947MOL0     C27763   9.280  11.045   0.714 -0.5039  0.4505  0.0054
  947MOL0     C27764   8.955  11.361   0.766  0.2297 -0.0570 -0.2682
  947MOL0     C27765   9.029  11.469   0.722  0.7555  0.4372  0.8624
  947MOL0     C27766   9.002  11.599   0.768 -0.4446 -0.0832  0.3188
  947MOL0     C27767   8.916  11.618   0.869 -0.3827 -0.2935  0.6076
  947MOL0     O27768   8.897  11.744   0.923 -0.0183  0.2230  0.6484
  947MOL0     C27769   9.008  11.829   0.961  0.2053  0.2310 -0.0377
  947MOL0     C27770   9.037  11.940   0.858 -0.4190  0.0033  0.0602
  947MOL0     C27771   8.910  12.000   0.806  0.4966 -0.2298  0.0633
  947MOL0     C27772   8.817  12.055   0.921 -0.0482  0.1396  0.1425
  947MOL0     C27773   8.750  12.182   0.878 -0.5575  0.0260 -0.1177
  947MOL0     C27774   8.702  12.279   0.824  0.6990 -0.9042 -0.3468
  947MOL0     C27775   8.838  11.516   0.910  0.1762 -0.1003 -0.7009
  947MOL0     C27776   8.855  11.386   0.865  0.2461 -0.1985 -0.4230
  947MOL0     C27777   8.758  11.285   0.922 -0.4008  0.3932 -0.2300
  947MOL0     H27778   8.980  10.959   0.579  1.0506  1.6036 -1.0848
  947MOL0     H27779   9.073  10.747   0.583 -1.3484  0.8164 -1.4735
  947MOL0     H27780   9.465  10.684   0.799  1.3280  0.1589 -0.7381
  947MOL0     H27781   9.420  10.528   0.721  1.2230 -0.0532  0.7011
  947MOL0     H27782   9.508  10.789   0.577 -4.5002  0.8868  2.4409
  947MOL0     H27783   9.467  10.644   0.497 -3.3686 -0.2573  1.2091
  947MOL0     H27784   9.706  10.676   0.510  1.1771 -1.4030  0.4304
  947MOL0     H27785   9.672  10.532   0.609  2.3004  0.4549 -1.8219
  947MOL0     H27786   9.683  10.806   0.729 -1.2690 -0.8694  0.1550
  947MOL0     H27787   9.699  10.650   0.804 -3.3364 -0.8878 -0.9143
  947MOL0     H27788   9.925  10.607   0.714  2.2810  1.1593  0.3788
  947MOL0     H27789   9.911  10.754   0.620  3.1963  0.9913  1.0746
  947MOL0     H27790   9.898  10.883   0.837  1.9953 -0.0763 -2.2567
  947MOL0     H27791   9.882  10.722   0.921  0.1503  2.9637  2.7017
  947MOL0     H27792  10.107  10.663   0.828  1.5571 -0.3335  0.7897
  947MOL0     H27793  10.085  10.775   0.967 -1.4434 -0.6543 -0.0045
  947MOL0     H27794  10.152  10.882   0.684  2.2431  1.9409 -0.8745
  947MOL0     H27795  10.129  10.976   0.826 -0.5188 -1.1133 -1.0231
  947MOL0     H27796  10.366  11.015   0.962  0.6118  0.9126  0.0775
  947MOL0     H27797  10.658  11.010   0.943 -0.0592  1.2116 -2.3695
  947MOL0     H27798  10.661  10.834   0.979 -3.8088 -0.5253  0.1791
  947MOL0     H27799  10.734  10.801   0.750  0.8033 -0.2145  1.6034
  947MOL0     H27800  10.731  10.973   0.720 -4.2587  0.5113  2.2169
  947MOL0     H27801  10.905  10.816   0.936 -1.2590  4.4527  5.2977
  947MOL0     H27802  10.915  10.991   0.906  1.3176  0.4518  0.1330
  947MOL0     H27803  10.965  10.803   0.678 -1.4428  0.0089  0.0097
  947MOL0     H27804  11.083  10.819   0.808  2.1018  0.8414 -1.6193
  947MOL0     H27805  11.185  11.217   0.712  0.7224  0.7884 -2.6794
  947MOL0     H27806  11.405  11.246   0.623  2.1053 -1.1359 -1.9419
  947MOL0     H27807  11.659  11.426   0.401  1.1887  1.6686  0.6752
  947MOL0     H27808  11.869  11.532   0.368 -0.2731 -0.5866 -0.1204
  947MOL0     H27809  12.056  11.576   0.280 -1.3584 -0.5873  0.0080
  947MOL0     H27810  12.128  11.594   0.449 -0.8622 -1.9819  1.1546
  947MOL0     H27811  12.282  11.497   0.205  2.7297  0.5793 -0.3709
  947MOL0     H27812  12.290  11.663   0.270  1.2134  0.2497  4.0299
  947MOL0     H27813  12.365  11.583   0.498 -1.3828 -0.1992  0.3252
  947MOL0     H27814  12.348  11.430   0.431 -0.8151 -0.0527 -2.2226
  947MOL0     H27815  12.522  11.625   0.287 -0.3204  0.3509  1.4737
  947MOL0     H27816  12.530  11.449   0.266 -1.6688  1.5167 -2.1887
  947MOL0     H27817  12.606  11.467   0.532 -2.5040 -0.4357 -0.2759
  947MOL0     H27818  12.649  11.625   0.484 -0.6479 -1.1560  2.9963
  947MOL0     H27819  12.747  11.374   0.339  0.3536  0.2287 -1.2129
  947MOL0     H27820  12.792  11.530   0.293 -1.2820 -0.8162  0.0328
  947MOL0     H27821  12.857  11.410   0.565 -2.3022  1.0360  0.0385
  947MOL0     H27822  12.903  11.572   0.509 -0.1314 -0.3599  2.0481
  947MOL0     H27823  12.987  11.318   0.361 -1.8914  1.5937 -3.3354
  947MOL0     H27824  13.026  11.493   0.317  1.6391 -0.4730 -0.3696
  947MOL0     H27825  12.081  11.147   0.411  0.2703  0.0625 -1.1775
  947MOL0     H27826  11.853  11.054   0.477  2.1771  0.0163 -0.9271
  947MOL0     H27827  11.393  10.832   0.491 -0.5405  0.0286 -0.5298
  947MOL0     H27828  11.164  10.809   0.588 -0.4302 -0.3131  0.6663
  947MOL0     H27829   9.430  10.904   0.775  0.5943 -2.0654 -0.3467
  947MOL0     H27830   9.351  11.124   0.737  1.2275 -0.7749 -0.8579
  947MOL0     H27831   9.116  11.454   0.658  0.8931 -0.1204  1.1725
  947MOL0     H27832   9.072  11.676   0.736 -1.4795  0.4114 -0.8267
  947MOL0     H27833   9.097  11.774   0.992 -0.3674  0.4320  2.1089
  947MOL0     H27834   8.986  11.880   1.055  1.4433  0.0099  0.3807
  947MOL0     H27835   9.101  11.905   0.776  1.1129  2.7962 -0.0587
  947MOL0     H27836   9.095  12.020   0.905  1.4555 -0.8208 -0.7358
  947MOL0     H27837   8.844  11.931   0.753  1.6025 -0.0147 -1.6847
  947MOL0     H27838   8.939  12.076   0.733  1.3579 -2.3254 -1.9044
  947MOL0     H27839   8.742  11.980   0.947 -2.2366  0.9857 -3.1216
  947MOL0     H27840   8.880  12.071   1.009  0.0437 -1.7035  0.4564
  947MOL0     H27841   8.671  12.372   0.781 -1.2612 -0.4039  1.8945
  947MOL0     H27842   8.766  11.530   0.990  0.0571  0.4905 -0.9017
  947MOL0     H27843   8.713  11.324   1.014 -0.8977  1.6544 -0.9815
  947MOL0     H27844   8.686  11.257   0.844 -1.1310 -1.4321  1.0327
  947MOL0     H27845   8.802  11.187   0.947 -0.1625  0.4189 -0.5407
  948MOL0     O27846   7.966   0.013   0.874 -0.2616 -0.7788 -0.2368
  948MOL0     C27847   7.904  -0.085   0.916 -0.1328  0.8588 -0.3892
  948MOL0     O27848   7.963  -0.190   0.991  0.8141 -1.0202 -0.1361
  948MOL0     C27849   8.101  -0.204   1.014  0.9343 -0.2626  0.7523
  948MOL0     C27850   8.128  -0.288   1.118  0.0984  0.0933 -0.5462
  948MOL0     C27851   8.263  -0.327   1.142 -0.0259 -0.0230 -0.6869
  948MOL0     C27852   8.365  -0.272   1.072  0.1181 -0.4576  0.1560
  948MOL0     O27853   8.501  -0.298   1.099  1.4201  0.0949  0.1459
  948MOL0     C27854   8.537  -0.429   1.142 -0.3871  0.3895  0.6586
  948MOL0     C27855   8.681  -0.465   1.106 -0.3108 -0.6167  0.3985
  948MOL0     C27856   8.737  -0.575   1.192 -0.7879 -0.0743  0.2360
  948MOL0     C27857   8.884  -0.591   1.159 -0.4907  0.3285  0.2058
  948MOL0     C27858   8.940  -0.702   1.250  0.1559  0.2596  0.7041
  948MOL0     C27859   9.051  -0.782   1.184 -0.8955 -0.0811 -0.2761
  948MOL0     C27860   9.177  -0.704   1.156  0.1054 -0.2611  0.6827
  948MOL0     C27861   9.254  -0.657   1.285  0.2021  0.3700  1.0666
  948MOL0     N27862   9.385  -0.594   1.238  0.6300  0.0413  0.3505
  948MOL0     C27863   9.424  -0.460   1.216  0.4090  0.2292  0.3000
  948MOL0     C27864   9.532  -0.470   1.130  0.6918 -0.2025  0.0920
  948MOL0     C27865   9.605  -0.362   1.059  0.9910 -0.1571  0.0978
  948MOL0     C27866   9.727  -0.321   1.139  0.4548 -0.3920 -0.2758
  948MOL0     C27867   9.787  -0.191   1.090 -0.2541  0.8007  0.5103
  948MOL0     C27868   9.937  -0.178   1.137  0.5639 -0.5597 -0.3135
  948MOL0     O27869   9.980  -0.042   1.114 -0.2157 -0.6373 -0.4709
  948MOL0     C27870  10.117  -0.029   1.121 -0.6464  0.0349  0.9023
  948MOL0     C27871  10.171   0.068   1.040 -0.2428 -0.2990 -0.7908
  948MOL0     C27872  10.310   0.072   1.032  0.4672  0.6978  0.4356
  948MOL0     C27873  10.399  -0.010   1.102  0.5021  0.0293 -0.2558
  948MOL0     C27874  10.546  -0.006   1.083  1.0626  0.1931  0.7191
  948MOL0     O27875  10.598   0.098   1.009 -0.8665  0.2609 -0.3682
  948MOL0     C27876  10.740   0.095   0.998  0.2756  0.8983 -0.9549
  948MOL0     C27877  10.803  -0.009   0.930 -0.4228 -0.7360  0.6393
  948MOL0     C27878  10.944  -0.010   0.923  0.0526  0.0159 -0.0137
  948MOL0     C27879  11.024   0.087   0.982 -0.1746  0.0525  0.1160
  948MOL0     O27880  11.162   0.085   0.954  0.6594 -1.3553  0.6930
  948MOL0     C27881  11.240   0.210   0.967  0.1354 -0.5928 -0.2691
  948MOL0     C27882  11.372   0.183   0.901 -0.9029  1.1818  0.3757
  948MOL0     C27883  11.462   0.107   1.002  0.3320 -0.3306 -0.0915
  948MOL0     C27884  11.594   0.046   0.933 -0.3418 -0.0523 -0.3769
  948MOL0     C27885  11.699   0.158   0.921 -0.1941  0.2663  0.0450
  948MOL0     C27886  11.807   0.102   0.824 -0.6742 -0.1165  0.0040
  948MOL0     C27887  11.953   0.132   0.850 -0.1562 -0.2500 -0.9219
  948MOL0     C27888  12.052   0.065   0.760  0.4828  0.1640  0.0967
  948MOL0    Cl27889  12.229   0.097   0.822  0.0358  0.3590 -0.0483
  948MOL0     C27890  10.956   0.189   1.054 -0.8342 -0.2398  0.0128
  948MOL0     C27891  10.817   0.194   1.063 -0.1885 -0.6232  0.0820
  948MOL0     O27892  10.609  -0.093   1.135 -0.0682 -0.6996 -0.2443
  948MOL0     C27893  10.332  -0.106   1.184 -0.7017 -0.7698  0.9288
  948MOL0     C27894  10.195  -0.109   1.203  0.1717  0.2808 -0.0975
  948MOL0     N27895   9.571  -0.604   1.129  0.1863  0.0513  0.3738
  948MOL0     N27896   9.485  -0.672   1.195  0.2872 -1.0239 -0.2060
  948MOL0     C27897   8.337  -0.179   0.964 -0.3923 -0.5439  0.2369
  948MOL0     C27898   8.204  -0.148   0.934 -0.2561  0.3017 -0.4213
  948MOL0     C27899   7.761  -0.095   0.887  0.5641 -0.3849 -0.0787
  948MOL0     C27900   7.687  -0.180   0.969 -0.5842 -0.6481 -0.2451
  948MOL0     C27901   7.549  -0.176   0.962 -0.2626  0.2039  0.7176
  948MOL0     C27902   7.490  -0.110   0.856  0.9682 -0.5083 -0.2000
  948MOL0     O27903   7.352  -0.118   0.848 -0.0935  0.1513  0.1334
  948MOL0     C27904   7.278  -0.042   0.749 -0.2118 -0.4087 -0.2672
  948MOL0     C27905   7.140  -0.110   0.720 -0.2634  0.1406  0.1032
  948MOL0     C27906   7.060  -0.131   0.849  0.0798  0.4306 -0.4388
  948MOL0     C27907   6.929  -0.204   0.828  0.1597  0.0611  0.2485
  948MOL0     C27908   6.882  -0.272   0.957 -0.8771  0.6031  1.0871
  948MOL0     C27909   6.830  -0.332   1.048  0.4189 -0.1603  0.6225
  948MOL0     C27910   7.561  -0.018   0.779 -0.4813 -0.0343 -1.0150
  948MOL0     C27911   7.700  -0.008   0.790 -0.2761 -0.3738  0.0001
  948MOL0     C27912   7.762   0.093   0.703  0.3349  0.6859 -0.1056
  948MOL0     H27913   8.048  -0.327   1.180  0.2874  0.0823 -0.3117
  948MOL0     H27914   8.285  -0.392   1.227  2.3975  2.7365  0.9811
  948MOL0     H27915   8.529  -0.446   1.249  0.9153 -0.6184  0.6231
  948MOL0     H27916   8.475  -0.507   1.095  0.4122  0.4593 -0.5675
  948MOL0     H27917   8.749  -0.382   1.127 -1.2301  0.3474 -0.3364
  948MOL0     H27918   8.686  -0.493   1.001  1.2577  1.5101 -0.1636
  948MOL0     H27919   8.692  -0.670   1.162 -1.2825  0.0952  0.4163
  948MOL0     H27920   8.723  -0.560   1.300 -1.2139 -0.1471  0.1942
  948MOL0     H27921   8.891  -0.610   1.051  0.4677  0.0569  0.3086
  948MOL0     H27922   8.944  -0.502   1.180 -0.7874  0.3269  1.1156
  948MOL0     H27923   8.968  -0.663   1.349  0.2705  0.3128  0.6513
  948MOL0     H27924   8.863  -0.778   1.260  3.2615 -3.1052  1.2677
  948MOL0     H27925   9.068  -0.875   1.240 -2.0816 -0.2753 -0.2126
  948MOL0     H27926   9.015  -0.828   1.092  0.7374 -0.0507 -0.9631
  948MOL0     H27927   9.142  -0.623   1.090  0.1398 -1.3354 -0.6920
  948MOL0     H27928   9.252  -0.758   1.097 -0.5540  2.1385 -2.6698
  948MOL0     H27929   9.195  -0.585   1.342 -2.6197 -1.5963  0.7948
  948MOL0     H27930   9.274  -0.743   1.350  0.1566 -0.9454 -0.5919
  948MOL0     H27931   9.370  -0.371   1.247 -2.3708 -1.4630  0.6345
  948MOL0     H27932   9.642  -0.404   0.964  1.0041 -0.8339  0.3924
  948MOL0     H27933   9.542  -0.276   1.038 -0.0275 -0.3087  2.3120
  948MOL0     H27934   9.703  -0.300   1.243 -2.3224  1.7553 -1.2273
  948MOL0     H27935   9.788  -0.411   1.155 -1.4300 -1.1727  3.5273
  948MOL0     H27936   9.727  -0.105   1.122 -2.1808  0.4805 -1.9348
  948MOL0     H27937   9.786  -0.186   0.980  0.6166  0.9723  0.4974
  948MOL0     H27938   9.998  -0.254   1.088  0.7533 -0.2427 -0.5687
  948MOL0     H27939   9.933  -0.196   1.245  0.3020  2.8497  0.3543
  948MOL0     H27940  10.101   0.131   0.987  1.3952  1.9900 -0.3595
  948MOL0     H27941  10.345   0.146   0.960 -0.0974 -0.0942 -0.6806
  948MOL0     H27942  10.753  -0.082   0.868 -2.7517  1.9764 -0.9628
  948MOL0     H27943  10.998  -0.084   0.866  0.5012  0.3794 -0.0698
  948MOL0     H27944  11.183   0.291   0.922 -0.7543 -0.7149  0.5964
  948MOL0     H27945  11.251   0.240   1.072 -3.8502  2.4046 -0.4653
  948MOL0     H27946  11.350   0.123   0.813  1.2255  0.0174  0.5503
  948MOL0     H27947  11.430   0.270   0.868  0.2120 -1.0293 -4.2264
  948MOL0     H27948  11.493   0.177   1.080 -1.3648 -0.9288  1.1800
  948MOL0     H27949  11.406   0.023   1.044  0.4020 -0.0920  0.4853
  948MOL0     H27950  11.563   0.029   0.830 -4.3651  4.6270 -0.3409
  948MOL0     H27951  11.632  -0.038   0.991  0.1189  1.8298  2.2701
  948MOL0     H27952  11.740   0.177   1.021  2.2822 -0.5550 -0.7337
  948MOL0     H27953  11.661   0.247   0.870  1.9495  0.5346 -1.2011
  948MOL0     H27954  11.806  -0.008   0.826 -2.7658 -0.1405  2.0930
  948MOL0     H27955  11.774   0.133   0.725  0.2037 -1.0060 -0.5833
  948MOL0     H27956  11.977   0.094   0.949  0.9802 -1.2079 -1.5428
  948MOL0     H27957  11.980   0.238   0.855 -0.0482 -0.2684 -1.0902
  948MOL0     H27958  12.029  -0.041   0.752 -1.8789  0.5891  0.5146
  948MOL0     H27959  12.044   0.107   0.659 -1.8176 -1.6809 -0.5668
  948MOL0     H27960  11.007   0.264   1.113  1.4952 -1.5707 -0.1758
  948MOL0     H27961  10.765   0.270   1.121 -0.5519 -2.0309  1.7145
  948MOL0     H27962  10.406  -0.163   1.239 -2.9012 -2.6529  2.1377
  948MOL0     H27963  10.152  -0.176   1.277  0.0217 -0.3878 -0.7736
  948MOL0     H27964   8.417  -0.155   0.894 -1.9657 -1.7448 -2.0962
  948MOL0     H27965   8.183  -0.113   0.833 -2.8972  1.6783  0.5109
  948MOL0     H27966   7.733  -0.242   1.046  0.8143  1.8645  1.0753
  948MOL0     H27967   7.488  -0.242   1.024 -1.4149 -0.7802 -1.3558
  948MOL0     H27968   7.320  -0.050   0.649 -0.5306  0.8507 -0.5214
  948MOL0     H27969   7.260   0.062   0.777 -1.1497 -0.4417 -0.7191
  948MOL0     H27970   7.166  -0.200   0.663 -2.5476 -0.1665 -0.5729
  948MOL0     H27971   7.081  -0.054   0.647  1.3455  1.4066 -0.2935
  948MOL0     H27972   7.055  -0.035   0.899  4.8181  1.0703 -0.7772
  948MOL0     H27973   7.124  -0.200   0.905  1.4338  3.0892  1.4546
  948MOL0     H27974   6.850  -0.134   0.799  0.7263  1.7762  2.5337
  948MOL0     H27975   6.943  -0.279   0.750 -1.8519  1.2945 -1.4131
  948MOL0     H27976   6.792  -0.371   1.141 -0.9256  0.7313  0.4718
  948MOL0     H27977   7.507   0.037   0.703 -0.3985  1.1010 -0.2726
  948MOL0     H27978   7.690   0.142   0.637  0.0966  1.2630  0.5715
  948MOL0     H27979   7.805   0.164   0.774 -0.2437  0.6197  0.3195
  948MOL0     H27980   7.842   0.046   0.645 -0.4176 -1.9103  0.7946
  949MOL0     O27981   8.204   4.933   8.822  0.6716 -0.3109 -0.7050
  949MOL0     C27982   8.105   4.968   8.893  0.0460  0.0702  0.3824
  949MOL0     O27983   8.104   4.986   9.029 -0.4191  0.0680  0.7789
  949MOL0     C27984   8.227   4.980   9.087  0.0528  0.8066 -0.5850
  949MOL0     C27985   8.331   5.074   9.074  0.6271  0.3347 -0.1358
  949MOL0     C27986   8.449   5.059   9.146 -0.3302  0.1243 -0.6376
  949MOL0     C27987   8.462   4.949   9.236 -0.0638  0.2303 -0.8403
  949MOL0     O27988   8.580   4.950   9.301 -0.5442  0.7993  0.3445
  949MOL0     C27989   8.586   4.888   9.437  0.4480 -0.0013  0.1451
  949MOL0     C27990   8.732   4.901   9.476  0.0242  0.8318  0.6832
  949MOL0     C27991   8.741   4.867   9.624  0.3675  0.4763  0.2052
  949MOL0     C27992   8.878   4.836   9.673 -0.8207  0.2743 -0.0084
  949MOL0     C27993   8.903   4.800   9.818 -0.0944 -0.0540 -1.0515
  949MOL0     C27994   9.051   4.767   9.843  0.0561  0.3730 -0.1768
  949MOL0     C27995   9.090   4.750   9.987  0.0464 -0.0191  0.2032
  949MOL0     C27996   9.222   4.681  10.008 -0.0969  0.4140 -1.1645
  949MOL0     N27997   9.256   4.699  10.158 -0.5188  0.4301 -0.4852
  949MOL0     C27998   9.368   4.641  10.212 -0.2856 -0.0159 -0.4308
  949MOL0     C27999   9.352   4.682  10.342  0.4445  0.7443 -0.9141
  949MOL0     C28000   9.430   4.634  10.454  0.1669  0.1541  0.2839
  949MOL0     C28001   9.566   4.581  10.418 -0.3857  0.3253 -0.3782
  949MOL0     C28002   9.640   4.530  10.544 -0.0754 -0.1720  0.4343
  949MOL0     C28003   9.792   4.555  10.535  0.0894  0.1480 -0.7206
  949MOL0     O28004   9.846   4.456  10.458  0.6368  0.0808 -0.2794
  949MOL0     C28005   9.986   4.438  10.471  0.2213 -0.1932  0.2950
  949MOL0     C28006  10.050   4.331  10.405  0.3301 -0.5639  0.5382
  949MOL0     C28007  10.191   4.322  10.392  1.0574  0.2728 -0.1034
  949MOL0     C28008  10.277   4.413  10.460  0.3002 -0.8512 -0.6877
  949MOL0     C28009  10.419   4.410  10.459 -0.0720 -0.0054 -0.4376
  949MOL0     O28010  10.485   4.501  10.532 -0.3499 -0.5355  0.5277
  949MOL0     C28011  10.621   4.487  10.556 -0.0154  0.0595  0.2023
  949MOL0     C28012  10.682   4.367  10.594  0.8627 -0.7780  1.1951
  949MOL0     C28013  10.817   4.368  10.622 -0.0261  0.8573 -0.3276
  949MOL0     C28014  10.893   4.479  10.617 -0.5938 -1.2217 -0.1622
  949MOL0     O28015  11.018   4.481  10.664 -0.1421  0.4535  0.0527
  949MOL0     C28016  11.118   4.544  10.590 -1.0440  0.1895 -0.2710
  949MOL0     C28017  11.256   4.544  10.657  0.0999 -0.9855 -0.0253
  949MOL0     C28018  11.290   4.409  10.699 -0.0742 -0.3105 -0.5250
  949MOL0     C28019  11.424   4.394  10.757 -0.5581 -0.3373 -0.0371
  949MOL0     C28020  11.527   4.386  10.646 -0.5606 -0.1528 -0.2190
  949MOL0     C28021  11.676   4.365  10.696  0.0965 -0.1248 -0.5710
  949MOL0     C28022  11.735   4.496  10.745 -0.3066 -0.3739  0.5414
  949MOL0     C28023  11.862   4.478  10.825  0.4196 -0.4664 -0.3703
  949MOL0    Cl28024  11.980   4.434  10.695 -0.0585 -0.1951 -0.7922
  949MOL0     C28025  10.824   4.597  10.572 -0.7253 -0.3975 -0.6810
  949MOL0     C28026  10.688   4.605  10.544 -0.2064  0.1117 -0.6225
  949MOL0     O28027  10.468   4.319  10.385 -0.4756  0.2799 -0.0656
  949MOL0     C28028  10.211   4.515  10.530  1.3397 -0.2145  1.1475
  949MOL0     C28029  10.071   4.532  10.525  0.3246 -0.3126 -0.0249
  949MOL0     N28030   9.241   4.761  10.364 -0.2408 -0.4954  0.4117
  949MOL0     N28031   9.189   4.780  10.248  0.2423  0.0124 -0.1149
  949MOL0     C28032   8.364   4.850   9.241  0.0266 -0.2576 -0.2342
  949MOL0     C28033   8.241   4.865   9.175  0.0023 -1.0056 -1.4811
  949MOL0     C28034   7.971   4.989   8.833 -0.0569 -0.0871  0.5303
  949MOL0     C28035   7.936   5.123   8.830  0.1301  0.6394 -0.1154
  949MOL0     C28036   7.814   5.168   8.783  0.7016  0.3580  0.4829
  949MOL0     C28037   7.721   5.075   8.730 -0.0396  0.4609 -0.9019
  949MOL0     O28038   7.609   5.126   8.669  0.3528 -0.0911  0.0761
  949MOL0     C28039   7.531   5.039   8.589  0.0341  0.8754 -0.4350
  949MOL0     C28040   7.410   5.111   8.528  0.6719  0.0740  0.4397
  949MOL0     C28041   7.285   5.138   8.615  0.2340 -0.8152  0.0755
  949MOL0     C28042   7.166   5.169   8.526  0.1687 -0.2310 -0.8798
  949MOL0     C28043   7.192   5.276   8.429  0.7656 -0.5008 -0.4463
  949MOL0     C28044   7.225   5.369   8.352  0.0012 -0.1997  0.0711
  949MOL0     C28045   7.755   4.936   8.735  0.8086 -0.6015  0.3961
  949MOL0     C28046   7.880   4.891   8.780 -1.0895 -0.7333  1.1840
  949MOL0     C28047   7.916   4.748   8.760 -0.4796  0.1022  0.5185
  949MOL0     H28048   8.321   5.162   9.011  0.7710  0.4402 -0.0120
  949MOL0     H28049   8.519   5.141   9.135 -0.2710  0.0236 -1.0141
  949MOL0     H28050   8.533   4.948   9.511  1.1597 -1.7962  2.2052
  949MOL0     H28051   8.551   4.784   9.438 -0.3260  0.1871  3.4646
  949MOL0     H28052   8.782   4.993   9.446  0.1754  0.2793 -0.8998
  949MOL0     H28053   8.782   4.823   9.417 -5.8055 -0.2892 -3.7363
  949MOL0     H28054   8.684   4.778   9.649  2.1432 -0.6057  0.5514
  949MOL0     H28055   8.703   4.957   9.673 -1.9434 -1.0512  1.4216
  949MOL0     H28056   8.917   4.742   9.635  1.2216  0.8830  0.4838
  949MOL0     H28057   8.952   4.911   9.643 -0.1140  1.2056  3.6648
  949MOL0     H28058   8.863   4.879   9.884  3.5227 -0.1482  1.5787
  949MOL0     H28059   8.845   4.711   9.842 -0.6329  0.6864  0.5396
  949MOL0     H28060   9.067   4.666   9.803  1.0408  0.1562  0.7091
  949MOL0     H28061   9.117   4.839   9.795  1.4520  0.0431  1.1614
  949MOL0     H28062   9.010   4.699  10.041  1.3265  0.3387  2.5684
  949MOL0     H28063   9.093   4.850  10.033 -1.4193  0.3134 -0.3608
  949MOL0     H28064   9.215   4.573   9.992 -2.7459  0.3162  0.0185
  949MOL0     H28065   9.302   4.722   9.946  2.2698 -1.4632  0.5024
  949MOL0     H28066   9.449   4.588  10.162 -1.2746 -2.4319  0.4015
  949MOL0     H28067   9.437   4.718  10.524 -0.3343  0.6489 -0.2414
  949MOL0     H28068   9.369   4.561  10.508 -1.3050 -0.4676 -2.0781
  949MOL0     H28069   9.561   4.502  10.342 -1.7146 -0.9712  1.0007
  949MOL0     H28070   9.627   4.666  10.386  1.3658 -1.2177 -1.3451
  949MOL0     H28071   9.624   4.424  10.562 -0.9294  0.1302  1.6067
  949MOL0     H28072   9.605   4.594  10.626 -0.4427 -1.0180  0.9450
  949MOL0     H28073   9.838   4.554  10.634  1.1949 -0.9463 -1.2320
  949MOL0     H28074   9.818   4.655  10.497  2.7925  0.6392  2.0241
  949MOL0     H28075   9.979   4.273  10.347 -0.6510  1.3840 -0.3035
  949MOL0     H28076  10.227   4.243  10.327 -0.4654  0.2564 -0.9800
  949MOL0     H28077  10.616   4.284  10.616 -1.0989  1.2941  3.9196
  949MOL0     H28078  10.867   4.276  10.652 -0.2358  1.1068  0.8502
  949MOL0     H28079  11.116   4.495  10.492 -0.1872 -1.5674  0.5508
  949MOL0     H28080  11.099   4.652  10.579  2.7918  1.4536  3.2313
  949MOL0     H28081  11.317   4.579  10.573 -1.4237  0.5151 -0.5698
  949MOL0     H28082  11.262   4.622  10.734 -2.3660 -0.3854 -0.3395
  949MOL0     H28083  11.224   4.367  10.775  2.5647 -2.4431  0.7601
  949MOL0     H28084  11.276   4.350  10.608 -0.2680  0.0565 -0.7392
  949MOL0     H28085  11.415   4.296  10.806 -3.4047  0.1615  0.6355
  949MOL0     H28086  11.448   4.481  10.819  1.6404  0.2271 -1.5729
  949MOL0     H28087  11.530   4.480  10.590  1.2350  0.8609  1.4379
  949MOL0     H28088  11.498   4.304  10.581  0.2507 -2.6062  2.3140
  949MOL0     H28089  11.663   4.293  10.777 -0.1807 -0.1669 -0.6510
  949MOL0     H28090  11.738   4.330  10.613  2.4226 -1.0906  1.4798
  949MOL0     H28091  11.667   4.555  10.808  0.8015  2.1654 -0.5461
  949MOL0     H28092  11.756   4.554  10.655 -0.8986  0.1033  0.7049
  949MOL0     H28093  11.875   4.572  10.880 -3.1909 -0.6515  1.1291
  949MOL0     H28094  11.846   4.398  10.898 -0.5603 -1.3152 -1.4740
  949MOL0     H28095  10.866   4.697  10.558 -3.0872  0.5290 -1.6659
  949MOL0     H28096  10.646   4.702  10.520  1.2200  0.4499 -1.9491
  949MOL0     H28097  10.275   4.586  10.582  2.9655 -1.4978  1.0169
  949MOL0     H28098  10.027   4.621  10.570  1.2407  0.4372 -0.5748
  949MOL0     H28099   8.384   4.760   9.298  0.2765  0.6212  1.1188
  949MOL0     H28100   8.167   4.786   9.180  0.4782 -1.3700  2.3340
  949MOL0     H28101   8.000   5.190   8.885  1.5800 -1.4066  0.8199
  949MOL0     H28102   7.786   5.272   8.772  0.4055  0.0965 -2.0531
  949MOL0     H28103   7.509   4.953   8.652  0.8586  0.4511 -0.7155
  949MOL0     H28104   7.595   5.016   8.503 -0.0778  4.9099 -1.8283
  949MOL0     H28105   7.363   5.045   8.454  0.5713 -0.9749  1.4032
  949MOL0     H28106   7.440   5.208   8.488  4.3856 -1.2639 -0.3983
  949MOL0     H28107   7.314   5.216   8.686  1.2381 -0.4389 -0.7304
  949MOL0     H28108   7.266   5.041   8.662  3.7865 -1.6091  0.1461
  949MOL0     H28109   7.139   5.078   8.472  0.6802 -1.1968  0.4282
  949MOL0     H28110   7.078   5.200   8.584  2.4015  1.6378  1.7295
  949MOL0     H28111   7.243   5.449   8.284  0.0886 -0.4734 -0.2271
  949MOL0     H28112   7.681   4.868   8.694  0.4932  0.4908 -0.9265
  949MOL0     H28113   7.834   4.677   8.742  0.7697 -1.5173  0.9234
  949MOL0     H28114   7.987   4.739   8.677 -0.5889  0.6731  0.3617
  949MOL0     H28115   7.964   4.708   8.850 -2.1276  1.0263  1.8618
  950MOL0     O28116   2.818   4.399   9.877 -0.0966 -0.0684  0.0295
  950MOL0     C28117   2.710   4.455   9.851  0.5167  0.3981 -1.0690
  950MOL0     O28118   2.687   4.559   9.766  0.8524 -0.3976  0.0677
  950MOL0     C28119   2.794   4.644   9.742  0.1022 -0.7201  0.4175
  950MOL0     C28120   2.784   4.706   9.612 -0.0951 -0.0696 -0.6677
  950MOL0     C28121   2.884   4.787   9.558  0.5588 -0.5152 -0.2091
  950MOL0     C28122   2.997   4.810   9.637 -0.0587 -0.9922  0.6956
  950MOL0     O28123   3.113   4.877   9.595  0.2389  0.1222  0.2659
  950MOL0     C28124   3.121   4.976   9.495 -0.9290 -0.4001  0.7828
  950MOL0     C28125   3.193   5.098   9.538  0.2713  0.1436  0.6515
  950MOL0     C28126   3.349   5.075   9.561  0.2345 -0.5445  0.5006
  950MOL0     C28127   3.370   5.172   9.682  0.2012  0.8544  0.0808
  950MOL0     C28128   3.518   5.177   9.709  0.7517  1.0062  0.0341
  950MOL0     C28129   3.536   5.250   9.842 -0.5406  0.2558  0.4246
  950MOL0     C28130   3.686   5.278   9.880  0.0334 -0.1070  0.1207
  950MOL0     C28131   3.686   5.307  10.027 -0.0222  0.8032 -0.3677
  950MOL0     N28132   3.819   5.352  10.073 -0.5761 -0.5827 -0.3843
  950MOL0     C28133   3.866   5.358  10.206  0.4142  0.0925  0.2348
  950MOL0     C28134   3.984   5.423  10.195 -0.1919  0.4821  0.4371
  950MOL0     C28135   4.074   5.462  10.319  0.0921 -0.3692  0.7961
  950MOL0     C28136   4.205   5.383  10.322  0.1302 -0.0916 -0.0097
  950MOL0     C28137   4.299   5.415  10.449  0.0036 -0.0784 -0.1230
  950MOL0     C28138   4.450   5.423  10.423 -0.3464  0.9618  0.4348
  950MOL0     O28139   4.519   5.461  10.542 -0.5757  0.5394 -0.2205
  950MOL0     C28140   4.653   5.496  10.530 -0.5611  0.4798 -0.2359
  950MOL0     C28141   4.709   5.553  10.647  0.8409 -0.4302  0.6446
  950MOL0     C28142   4.841   5.584  10.665  0.1238 -0.8971  0.3334
  950MOL0     C28143   4.925   5.561  10.557  0.0664 -0.2731  0.2716
  950MOL0     C28144   5.070   5.574  10.575  0.1495 -0.0010  1.2406
  950MOL0     O28145   5.104   5.586  10.704 -0.2246 -0.5471  0.2217
  950MOL0     C28146   5.234   5.618  10.745 -0.0549 -0.3648 -0.3732
  950MOL0     C28147   5.355   5.599  10.673  0.0851 -0.0787 -0.4234
  950MOL0     C28148   5.478   5.650  10.730  0.1642 -0.3649 -0.1016
  950MOL0     C28149   5.475   5.724  10.850  0.0111  0.1664 -0.8449
  950MOL0     O28150   5.597   5.768  10.901 -0.4875  0.1420  1.0739
  950MOL0     C28151   5.611   5.796  11.040 -0.1786 -0.3174 -0.4512
  950MOL0     C28152   5.757   5.818  11.060 -0.6316  0.0778 -0.4023
  950MOL0     C28153   5.787   5.811  11.213  0.2644  0.4861  1.0890
  950MOL0     C28154   5.921   5.879  11.245  0.0756 -0.6123 -0.3026
  950MOL0     C28155   5.955   5.854  11.387  0.1178 -0.5294 -0.4707
  950MOL0     C28156   6.099   5.904  11.422  0.3488 -0.5608 -0.1772
  950MOL0     C28157   6.131   5.870  11.564 -0.4809 -0.5942 -0.2163
  950MOL0     C28158   6.285   5.900  11.592 -0.0407  0.5257 -0.2878
  950MOL0    Cl28159   6.343   5.839  11.756  0.0798 -0.0974  0.5697
  950MOL0     C28160   5.349   5.749  10.907 -0.4432 -0.1670  0.4172
  950MOL0     C28161   5.236   5.699  10.848  0.4172  0.8004  0.2062
  950MOL0     O28162   5.149   5.594  10.481  0.1720  0.6978  0.1173
  950MOL0     C28163   4.874   5.521  10.435 -0.3758  0.2586 -0.1348
  950MOL0     C28164   4.738   5.483  10.421 -0.1369  0.2019  0.2256
  950MOL0     N28165   4.002   5.454  10.064 -0.0005 -0.5110 -0.5383
  950MOL0     N28166   3.907   5.414   9.994  0.5093 -0.0969 -0.3952
  950MOL0     C28167   3.018   4.747   9.759  0.4890  0.2323  0.9305
  950MOL0     C28168   2.917   4.665   9.813  0.3183 -1.0943  0.1206
  950MOL0     C28169   2.581   4.395   9.904  0.0071  0.1954  0.6106
  950MOL0     C28170   2.471   4.398   9.819 -0.5299  0.9110 -0.5962
  950MOL0     C28171   2.344   4.345   9.847 -0.2375  0.1771 -0.3013
  950MOL0     C28172   2.328   4.277   9.972 -0.8672  1.6772 -0.6013
  950MOL0     O28173   2.220   4.207  10.029  0.2900 -0.5964  1.1864
  950MOL0     C28174   2.104   4.217   9.942 -0.3925 -0.2564  0.4822
  950MOL0     C28175   1.980   4.197  10.030  0.7523  0.4965 -0.6418
  950MOL0     C28176   1.986   4.061  10.097 -0.4835 -0.2558 -0.5137
  950MOL0     C28177   1.868   4.017  10.180 -0.3489 -0.2969  0.0144
  950MOL0     C28178   1.882   4.070  10.315 -0.5865 -0.2544  0.0464
  950MOL0     C28179   1.872   4.100  10.429 -0.4001  0.5185 -0.0385
  950MOL0     C28180   2.446   4.263  10.055 -0.0682 -0.1436 -0.8579
  950MOL0     C28181   2.563   4.333  10.029 -0.4580 -0.8632  1.1506
  950MOL0     C28182   2.670   4.332  10.126 -0.4229  0.1233 -0.3830
  950MOL0     H28183   2.697   4.682   9.551 -1.3378  0.9531  0.6287
  950MOL0     H28184   2.882   4.826   9.456  0.1664  0.7411  0.2526
  950MOL0     H28185   3.167   4.933   9.405  0.4478  0.4507  1.0585
  950MOL0     H28186   3.026   5.001   9.447  0.7716  2.3373 -1.5050
  950MOL0     H28187   3.133   5.140   9.619 -0.1577  0.8617 -0.0149
  950MOL0     H28188   3.180   5.181   9.468  1.0837  0.6517  1.0820
  950MOL0     H28189   3.405   5.115   9.476 -0.3718 -0.5688  0.0874
  950MOL0     H28190   3.378   4.972   9.586  1.2606 -0.8905 -1.8171
  950MOL0     H28191   3.328   5.271   9.658  0.0090  1.4419  2.5103
  950MOL0     H28192   3.320   5.128   9.769 -0.2791  0.8338 -0.2049
  950MOL0     H28193   3.564   5.078   9.720 -0.8506  0.0447 -1.4527
  950MOL0     H28194   3.575   5.232   9.634  1.1246  0.5570 -0.0190
  950MOL0     H28195   3.483   5.346   9.849 -0.1427  0.5025  0.1246
  950MOL0     H28196   3.499   5.181   9.918 -0.8415 -0.1765 -0.1062
  950MOL0     H28197   3.713   5.360   9.813  0.5927 -1.4838 -1.3908
  950MOL0     H28198   3.754   5.198   9.850 -0.2156 -0.1645 -0.2977
  950MOL0     H28199   3.608   5.376  10.061  0.9908  1.2192  1.1727
  950MOL0     H28200   3.663   5.214  10.080 -4.4164  2.2974  0.8241
  950MOL0     H28201   3.834   5.310  10.297  1.1963 -1.0392 -0.0586
  950MOL0     H28202   4.106   5.567  10.312  2.2425 -0.9736  0.7563
  950MOL0     H28203   4.014   5.442  10.408  0.9319  0.0525  1.4733
  950MOL0     H28204   4.178   5.277  10.311 -0.7468  0.3577 -3.0358
  950MOL0     H28205   4.268   5.398  10.234  1.4702 -1.2299  0.7078
  950MOL0     H28206   4.294   5.337  10.526  3.3085  1.5082  1.9443
  950MOL0     H28207   4.260   5.504  10.499 -0.8728 -0.8229  0.5621
  950MOL0     H28208   4.476   5.501  10.352 -1.2209  0.9405  0.0759
  950MOL0     H28209   4.494   5.333  10.379  0.3247  1.7648 -0.5541
  950MOL0     H28210   4.641   5.573  10.728 -0.3389  1.5083 -0.7505
  950MOL0     H28211   4.875   5.625  10.760  1.4974 -0.1534 -0.4440
  950MOL0     H28212   5.357   5.529  10.590 -2.5045 -1.6867  0.7730
  950MOL0     H28213   5.564   5.620  10.671 -1.7685 -1.0502 -2.7908
  950MOL0     H28214   5.552   5.885  11.065 -1.2383 -0.8545 -0.9462
  950MOL0     H28215   5.575   5.721  11.111 -3.0295  2.1770  0.9912
  950MOL0     H28216   5.822   5.742  11.015  3.5592  2.0430  1.7494
  950MOL0     H28217   5.778   5.920  11.026  1.1405  0.3649  1.3212
  950MOL0     H28218   5.707   5.851  11.275 -1.1565  0.2581 -0.5266
  950MOL0     H28219   5.801   5.706  11.242  1.7713 -0.0687 -1.3336
  950MOL0     H28220   5.921   5.987  11.224  0.1073 -0.8907 -1.8886
  950MOL0     H28221   5.996   5.837  11.177 -0.8391 -1.1679 -0.9925
  950MOL0     H28222   5.953   5.745  11.395 -0.9708 -0.6908 -2.2235
  950MOL0     H28223   5.875   5.894  11.450  1.5290  0.1384  0.9642
  950MOL0     H28224   6.176   5.872  11.350  0.1906  0.0529 -0.6240
  950MOL0     H28225   6.092   6.013  11.415 -3.3772 -0.6450  0.2990
  950MOL0     H28226   6.116   5.764  11.584 -0.9666 -0.1005  2.3850
  950MOL0     H28227   6.082   5.930  11.642  2.9939  3.7168 -0.9248
  950MOL0     H28228   6.351   5.862  11.514 -0.6480 -0.5877 -0.2926
  950MOL0     H28229   6.301   6.008  11.590  1.0495  0.3804 -0.2310
  950MOL0     H28230   5.335   5.798  11.003  0.7927 -2.0261  1.6299
  950MOL0     H28231   5.141   5.717  10.897 -0.2331 -0.1423 -0.6889
  950MOL0     H28232   4.945   5.493  10.358  1.0501  0.9510  0.8694
  950MOL0     H28233   4.694   5.454  10.326  1.2365  1.0669 -0.7041
  950MOL0     H28234   3.116   4.742   9.805 -0.3676 -2.6711  2.6904
  950MOL0     H28235   2.943   4.629   9.912  0.9081  1.3671  0.9418
  950MOL0     H28236   2.476   4.452   9.725  0.9514  0.4036 -0.8435
  950MOL0     H28237   2.255   4.351   9.785  0.8289 -2.6439 -2.3123
  950MOL0     H28238   2.117   4.151   9.855 -3.0340  0.4764 -0.5614
  950MOL0     H28239   2.083   4.314   9.897 -0.5155  0.0490  1.1969
  950MOL0     H28240   1.887   4.199   9.972 -0.8668  1.1091  1.8247
  950MOL0     H28241   1.982   4.282  10.098  2.1220  0.1565 -0.2321
  950MOL0     H28242   2.077   4.039  10.153 -1.7044 -2.4190  0.7499
  950MOL0     H28243   1.988   3.990  10.013 -1.1844  1.1044 -1.7251
  950MOL0     H28244   1.773   4.055  10.140  0.0734  1.2437  0.3985
  950MOL0     H28245   1.867   3.908  10.187  3.6263 -0.5873 -1.4093
  950MOL0     H28246   1.878   4.125  10.533  1.9405  1.0047 -0.2367
  950MOL0     H28247   2.439   4.214  10.152 -2.0860 -0.6726 -1.2229
  950MOL0     H28248   2.626   4.369  10.219 -0.1349 -1.1645  0.3027
  950MOL0     H28249   2.715   4.233  10.141 -0.7074 -0.0978 -0.9568
  950MOL0     H28250   2.752   4.402  10.107 -0.7151  0.1973 -1.4092
  951MOL0     O28251   0.195   3.017   4.521  1.0084 -0.1288 -1.0747
  951MOL0     C28252   0.194   2.894   4.534  0.9256  0.4842  0.2431
  951MOL0     O28253   0.283   2.817   4.606 -0.5039 -0.2035 -0.3109
  951MOL0     C28254   0.393   2.891   4.659 -0.1498  0.0379 -0.2547
  951MOL0     C28255   0.381   2.948   4.786  0.6099  0.2727  0.1987
  951MOL0     C28256   0.490   3.020   4.840  0.8348 -0.4178 -0.3994
  951MOL0     C28257   0.608   3.030   4.775 -1.2705 -0.3902 -0.3164
  951MOL0     O28258   0.720   3.097   4.823 -0.2047 -0.2241  0.2574
  951MOL0     C28259   0.718   3.139   4.959  0.2754 -0.3433 -0.4969
  951MOL0     C28260   0.850   3.204   4.980 -0.2143 -0.2064 -0.1921
  951MOL0     C28261   0.854   3.257   5.126  0.1190 -0.8961 -0.2528
  951MOL0     C28262   0.977   3.341   5.162  0.4075  0.1765  0.2548
  951MOL0     C28263   0.990   3.365   5.313 -0.7966 -0.9537 -0.1981
  951MOL0     C28264   1.133   3.414   5.337 -0.1734  0.9746  0.2459
  951MOL0     C28265   1.175   3.440   5.480 -0.9352 -0.0583  0.5381
  951MOL0     C28266   1.125   3.567   5.548  0.1217 -0.4041 -0.0918
  951MOL0     N28267   0.978   3.572   5.577  0.0363 -0.4351  0.3671
  951MOL0     C28268   0.917   3.469   5.636  0.0853 -0.3414  0.5796
  951MOL0     C28269   0.792   3.514   5.672  0.2649 -0.9543  0.3476
  951MOL0     C28270   0.671   3.446   5.739 -0.5879  0.5190  0.0743
  951MOL0     C28271   0.550   3.413   5.651 -0.2990  0.6986  0.0355
  951MOL0     C28272   0.543   3.264   5.611 -0.4410  0.3106  0.2543
  951MOL0     C28273   0.669   3.212   5.535  0.0680  0.3612 -0.0986
  951MOL0     O28274   0.647   3.082   5.476 -0.2795 -0.0138  0.8633
  951MOL0     C28275   0.547   3.067   5.375  0.1200 -0.6041 -0.4797
  951MOL0     C28276   0.494   3.173   5.292  0.5052  0.0027  0.2898
  951MOL0     C28277   0.369   3.156   5.216 -0.2678 -0.7522 -0.1567
  951MOL0     C28278   0.310   3.026   5.208 -0.2968  0.2137 -0.0865
  951MOL0     C28279   0.190   3.015   5.115  0.1150 -0.0654 -0.1894
  951MOL0     O28280   0.129   3.127   5.067 -0.4514  0.5615  0.6063
  951MOL0     C28281   0.036   3.104   4.968  0.3848 -0.3937  0.3321
  951MOL0     C28282   0.069   3.148   4.834  0.2347 -0.0783  0.6302
  951MOL0     C28283  -0.019   3.144   4.728 -0.4779 -0.2628 -1.0591
  951MOL0     C28284  -0.151   3.090   4.753 -0.5749 -0.4420  0.5774
  951MOL0     O28285  -0.251   3.098   4.659 -0.1506  0.0706 -0.1003
  951MOL0     C28286  -0.217   3.094   4.524  0.7673  0.7235  0.6791
  951MOL0     C28287  -0.343   3.078   4.440 -0.6022  0.4861 -0.5741
  951MOL0     C28288  -0.442   2.970   4.491  0.7339  1.1385 -0.0479
  951MOL0     C28289  -0.400   2.817   4.466  0.0820 -0.6201  0.2044
  951MOL0     C28290  -0.513   2.719   4.461 -0.1123 -0.2431  0.0770
  951MOL0     C28291  -0.610   2.717   4.583 -0.2044  0.3537 -0.2261
  951MOL0     C28292  -0.548   2.659   4.712  1.0662 -0.4853 -0.4680
  951MOL0     C28293  -0.619   2.717   4.831 -0.2737  0.5817  0.1598
  951MOL0    Cl28294  -0.790   2.665   4.812  0.0355  0.4444 -0.0509
  951MOL0     C28295  -0.181   3.049   4.883  0.1296  0.0374  0.7118
  951MOL0     C28296  -0.090   3.054   4.992 -0.1552 -0.2006  0.2902
  951MOL0     O28297   0.153   2.896   5.092 -0.3485 -0.0646 -0.1621
  951MOL0     C28298   0.378   2.921   5.272  0.6742  0.4257  0.0358
  951MOL0     C28299   0.496   2.940   5.352  0.3275 -0.2762  0.1965
  951MOL0     N28300   0.778   3.644   5.618 -0.3091 -0.4151  0.4051
  951MOL0     N28301   0.888   3.678   5.558 -0.0004  0.8006 -0.2908
  951MOL0     C28302   0.617   2.974   4.647  0.3118 -0.8836  0.2141
  951MOL0     C28303   0.505   2.907   4.587 -0.3109 -0.2654 -0.2326
  951MOL0     C28304   0.083   2.819   4.465 -0.4492  1.1658 -0.7341
  951MOL0     C28305   0.024   2.711   4.538 -0.4200 -0.8032 -0.3527
  951MOL0     C28306  -0.061   2.615   4.478  0.1305  0.7767  0.0264
  951MOL0     C28307  -0.090   2.637   4.349  0.1101  0.4069  0.8033
  951MOL0     O28308  -0.167   2.532   4.293 -0.1517 -1.0042 -0.5502
  951MOL0     C28309  -0.207   2.563   4.160  0.4112  0.0251 -0.4788
  951MOL0     C28310  -0.296   2.454   4.106 -0.0460  0.1411 -0.7672
  951MOL0     C28311  -0.427   2.444   4.183 -0.0640 -0.3992  0.4328
  951MOL0     C28312  -0.538   2.380   4.099  0.9158  0.1980  0.4054
  951MOL0     C28313  -0.518   2.246   4.067 -0.1822 -0.3157 -0.2349
  951MOL0     C28314  -0.495   2.134   4.025  0.0456  0.6196 -0.1726
  951MOL0     C28315  -0.035   2.742   4.273 -0.3875 -0.1772  0.0792
  951MOL0     C28316   0.047   2.835   4.333  0.0550 -1.0343 -0.0005
  951MOL0     C28317   0.095   2.942   4.245 -0.3325 -0.3545 -0.2257
  951MOL0     H28318   0.288   2.951   4.841  0.9647  0.7317  0.7875
  951MOL0     H28319   0.478   3.056   4.942  3.1041  0.2471 -0.2998
  951MOL0     H28320   0.643   3.216   4.973  0.8563 -0.0470  1.2490
  951MOL0     H28321   0.701   3.052   5.024  1.1850 -2.2990 -2.7067
  951MOL0     H28322   0.866   3.282   4.905 -0.9088 -0.0406 -0.1767
  951MOL0     H28323   0.933   3.133   4.970  3.0896  3.0726  1.3294
  951MOL0     H28324   0.835   3.178   5.199 -0.3863 -0.3770  0.1813
  951MOL0     H28325   0.761   3.311   5.147 -0.2680 -2.1839  1.5804
  951MOL0     H28326   1.065   3.284   5.133  0.4717  0.2839  0.2374
  951MOL0     H28327   0.960   3.433   5.105 -0.3919  0.1135  0.3730
  951MOL0     H28328   0.920   3.440   5.351 -0.5433 -0.3981 -0.7923
  951MOL0     H28329   0.977   3.273   5.370 -1.4075 -0.5288  0.3620
  951MOL0     H28330   1.192   3.329   5.301 -2.3312 -1.9750  3.0451
  951MOL0     H28331   1.157   3.502   5.276 -1.0285 -0.5306 -2.4527
  951MOL0     H28332   1.285   3.441   5.484 -0.9613  0.2486  1.2069
  951MOL0     H28333   1.143   3.360   5.546  0.2801  0.1467  1.4081
  951MOL0     H28334   1.177   3.562   5.644  0.1786  1.8215  0.0460
  951MOL0     H28335   1.167   3.656   5.502  2.2230  0.6722  3.5056
  951MOL0     H28336   0.960   3.373   5.661  3.6618  1.6612  3.0865
  951MOL0     H28337   0.700   3.357   5.796 -0.0627  1.5638  1.4752
  951MOL0     H28338   0.638   3.512   5.819 -1.2781 -2.0279  2.0057
  951MOL0     H28339   0.459   3.443   5.703 -0.6473  1.2240 -0.8626
  951MOL0     H28340   0.552   3.474   5.561 -1.5109  0.4263 -0.1790
  951MOL0     H28341   0.456   3.260   5.544 -0.2728  0.9644 -0.0114
  951MOL0     H28342   0.517   3.209   5.701  3.8669 -0.0289  1.5020
  951MOL0     H28343   0.754   3.206   5.603  1.7123  0.1757 -2.0511
  951MOL0     H28344   0.700   3.275   5.451  2.0486 -0.9597 -0.4426
  951MOL0     H28345   0.531   3.275   5.294 -0.3655  0.3270  0.0482
  951MOL0     H28346   0.334   3.232   5.147 -0.4848 -2.1629 -1.6404
  951MOL0     H28347   0.168   3.189   4.815 -0.8385  0.8019 -4.3160
  951MOL0     H28348   0.024   3.180   4.635  1.6494  0.1913  0.0405
  951MOL0     H28349  -0.164   3.187   4.503 -0.3511  1.2776  0.2904
  951MOL0     H28350  -0.159   3.003   4.506 -1.4955 -0.8119  0.6998
  951MOL0     H28351  -0.396   3.173   4.442 -1.0155  0.2816 -1.4001
  951MOL0     H28352  -0.309   3.056   4.339 -3.4936 -1.1551 -1.3028
  951MOL0     H28353  -0.447   2.970   4.600 -1.9566 -1.1256 -0.0675
  951MOL0     H28354  -0.542   2.981   4.448 -0.0397 -0.6662  1.1676
  951MOL0     H28355  -0.331   2.793   4.547  0.3854 -0.3563  0.0276
  951MOL0     H28356  -0.342   2.816   4.374  0.5354  0.6817  0.4552
  951MOL0     H28357  -0.476   2.616   4.456 -1.5575 -0.7659 -3.4395
  951MOL0     H28358  -0.576   2.739   4.373 -1.6918 -2.0332  0.7529
  951MOL0     H28359  -0.650   2.818   4.593 -0.1840  0.3985 -0.5883
  951MOL0     H28360  -0.691   2.653   4.549  0.7329 -0.6115 -0.7308
  951MOL0     H28361  -0.440   2.677   4.719  0.7094  1.6706  0.3619
  951MOL0     H28362  -0.552   2.550   4.715  2.3804 -0.5436 -0.0987
  951MOL0     H28363  -0.587   2.681   4.930 -4.4557 -2.4381  0.6931
  951MOL0     H28364  -0.619   2.826   4.830  1.9234  0.6362 -0.6878
  951MOL0     H28365  -0.285   3.022   4.899  0.4953 -1.4054  0.7872
  951MOL0     H28366  -0.115   3.029   5.095 -2.7268  1.7634  0.2291
  951MOL0     H28367   0.342   2.821   5.249 -2.3706  1.0719  1.4168
  951MOL0     H28368   0.557   2.859   5.392  2.9039  1.5685  0.2672
  951MOL0     H28369   0.706   2.979   4.585 -0.5331  2.4116 -0.9051
  951MOL0     H28370   0.510   2.879   4.482  2.0332 -1.8236  0.2211
  951MOL0     H28371   0.046   2.700   4.644 -0.7271  0.7858 -0.1104
  951MOL0     H28372  -0.110   2.530   4.526  1.4485 -1.7984 -2.8461
  951MOL0     H28373  -0.121   2.570   4.092  0.0582  1.4239 -0.8121
  951MOL0     H28374  -0.258   2.660   4.163  0.6876  0.1565  2.3146
  951MOL0     H28375  -0.236   2.363   4.106  0.1105  0.2253  1.0352
  951MOL0     H28376  -0.323   2.484   4.004 -0.5692  1.2767 -0.3047
  951MOL0     H28377  -0.455   2.543   4.219 -2.9195 -1.3068  1.0162
  951MOL0     H28378  -0.415   2.389   4.277 -0.5533  2.3162  2.1780
  951MOL0     H28379  -0.631   2.379   4.155 -0.6552  4.2746 -1.7040
  951MOL0     H28380  -0.560   2.443   4.012 -1.2699  0.9453  1.4353
  951MOL0     H28381  -0.480   2.039   3.977  0.2898  1.3882 -1.6950
  951MOL0     H28382  -0.068   2.750   4.170 -2.0344 -0.4014  0.5604
  951MOL0     H28383   0.008   3.003   4.218  0.0634  0.1415 -0.3911
  951MOL0     H28384   0.177   3.000   4.290 -1.7173  0.5471  1.2554
  951MOL0     H28385   0.135   2.899   4.153 -0.6288 -1.1151 -0.0041
  952MOL0     O28386   1.365   2.027  10.275 -0.4594  0.5394  0.4460
  952MOL0     C28387   1.281   2.103  10.224  0.2663  0.3916 -0.2360
  952MOL0     O28388   1.305   2.198  10.136 -0.1486  0.0955  0.8027
  952MOL0     C28389   1.431   2.240  10.100 -0.4606 -0.4028  0.6368
  952MOL0     C28390   1.435   2.320   9.978 -0.0884 -0.1296  0.0633
  952MOL0     C28391   1.551   2.371   9.932 -0.7590 -0.3039  0.1265
  952MOL0     C28392   1.672   2.345   9.997 -0.6857 -0.5467  0.8302
  952MOL0     O28393   1.793   2.401   9.946  1.0636 -0.1951  0.0427
  952MOL0     C28394   1.792   2.416   9.807 -0.3437  0.2408 -0.8441
  952MOL0     C28395   1.932   2.421   9.760 -0.4612 -0.2800  0.1481
  952MOL0     C28396   2.030   2.536   9.809 -0.8240 -0.0633 -0.0318
  952MOL0     C28397   2.178   2.495   9.774  0.5852 -0.0172 -0.1700
  952MOL0     C28398   2.276   2.580   9.850 -0.2253  0.8804  0.6671
  952MOL0     C28399   2.421   2.550   9.801 -0.5771 -0.1280  0.4052
  952MOL0     C28400   2.502   2.664   9.861  0.5072  0.4254 -0.7446
  952MOL0     C28401   2.652   2.640   9.841 -0.4655  0.2957  0.4346
  952MOL0     N28402   2.733   2.750   9.889  0.4628  0.2834  0.5833
  952MOL0     C28403   2.827   2.819   9.814 -0.4003 -0.0595  0.4857
  952MOL0     C28404   2.899   2.903   9.896 -0.1770 -0.3479  0.4899
  952MOL0     C28405   3.012   2.991   9.863 -0.4725 -0.0602  0.0350
  952MOL0     C28406   3.143   2.920   9.877  0.3967 -0.0440  0.7217
  952MOL0     C28407   3.172   2.851   9.739 -0.0170  0.1690  0.6406
  952MOL0     C28408   3.312   2.792   9.724 -0.3297  0.0936  0.2853
  952MOL0     O28409   3.423   2.888   9.749 -0.4047  0.2361 -0.2550
  952MOL0     C28410   3.553   2.851   9.742 -0.8795 -0.3305 -0.5255
  952MOL0     C28411   3.649   2.952   9.732  0.1547  0.1458 -0.0457
  952MOL0     C28412   3.787   2.915   9.714 -0.6784  0.4098 -0.0448
  952MOL0     C28413   3.828   2.780   9.689  0.3651 -0.1903 -0.1022
  952MOL0     C28414   3.968   2.732   9.666 -0.9560  0.5787  0.5849
  952MOL0     O28415   3.986   2.592   9.667 -0.3047 -0.5384 -0.0026
  952MOL0     C28416   4.110   2.530   9.653 -0.6568  0.2451 -0.6041
  952MOL0     C28417   4.204   2.559   9.556  0.7803  0.5462  0.6955
  952MOL0     C28418   4.316   2.479   9.539  0.1604  0.2888 -0.2975
  952MOL0     C28419   4.347   2.369   9.622 -0.3686 -0.3559 -0.2583
  952MOL0     O28420   4.460   2.289   9.619  0.4270 -0.0070 -1.0353
  952MOL0     C28421   4.534   2.276   9.498 -0.1324  0.0795  0.0942
  952MOL0     C28422   4.652   2.373   9.502  0.3488 -0.0937 -0.2720
  952MOL0     C28423   4.718   2.377   9.360  0.0899 -0.2148  0.4409
  952MOL0     C28424   4.831   2.473   9.339 -0.1653  0.4240  0.2010
  952MOL0     C28425   4.921   2.422   9.220  0.1594 -0.3392 -0.4072
  952MOL0     C28426   5.032   2.525   9.198 -0.2157  0.0949 -0.0117
  952MOL0     C28427   5.130   2.549   9.311  0.3623  0.2089  0.3831
  952MOL0     C28428   5.201   2.428   9.369 -0.5773 -0.7368  0.1110
  952MOL0    Cl28429   5.258   2.313   9.238 -0.3032  0.4216 -0.0543
  952MOL0     C28430   4.256   2.341   9.727 -0.0585  0.0490 -0.3225
  952MOL0     C28431   4.131   2.411   9.731  0.1109 -0.1984 -0.2461
  952MOL0     O28432   4.061   2.815   9.663  0.0759 -0.4769 -0.2636
  952MOL0     C28433   3.729   2.687   9.689  0.4479  0.5920  0.0434
  952MOL0     C28434   3.590   2.728   9.714 -0.3065  0.0093  0.3809
  952MOL0     N28435   2.846   2.889  10.022  0.3462  0.1795 -0.5801
  952MOL0     N28436   2.757   2.788  10.021 -0.1007 -0.4766  0.2762
  952MOL0     C28437   1.673   2.267  10.113 -0.1126  0.0153 -0.1140
  952MOL0     C28438   1.557   2.217  10.167  0.0723 -0.0224  0.6460
  952MOL0     C28439   1.141   2.083  10.278 -0.2441 -0.6232 -0.0079
  952MOL0     C28440   1.047   2.084  10.180  0.1949 -0.0174 -0.0629
  952MOL0     C28441   0.911   2.063  10.211 -0.3574 -0.6214 -0.6981
  952MOL0     C28442   0.875   2.028  10.335  0.6362  0.1591  0.3643
  952MOL0     O28443   0.740   2.019  10.346 -0.0834  0.7706 -0.1824
  952MOL0     C28444   0.683   1.970  10.469  0.6341  0.6685  1.2241
  952MOL0     C28445   0.533   1.930  10.475 -0.3962 -0.5249  0.1524
  952MOL0     C28446   0.484   1.913  10.626 -0.5875 -0.1557  0.2135
  952MOL0     C28447   0.337   1.933  10.612 -0.0214 -0.4044  1.0975
  952MOL0     C28448   0.286   1.936  10.759  1.2891 -0.1571  0.4476
  952MOL0     C28449   0.248   1.951  10.872  0.3944 -0.2740  0.3474
  952MOL0     C28450   0.968   2.021  10.440 -0.9858 -0.6654  0.9941
  952MOL0     C28451   1.104   2.050  10.411 -0.5804 -0.5795  0.0599
  952MOL0     C28452   1.200   2.051  10.530 -0.2234 -0.2018  0.4653
  952MOL0     H28453   1.340   2.331   9.926 -0.5350 -0.4874  0.7778
  952MOL0     H28454   1.550   2.428   9.840 -0.3119  1.2456  1.0581
  952MOL0     H28455   1.735   2.338   9.756 -2.7969  1.3726 -0.0238
  952MOL0     H28456   1.748   2.513   9.783 -1.2937  0.2068  0.6178
  952MOL0     H28457   1.934   2.423   9.650  3.3946 -2.8548 -0.0386
  952MOL0     H28458   1.985   2.328   9.783  1.8890  0.9864  0.1900
  952MOL0     H28459   2.034   2.544   9.918 -0.1141 -0.9578  0.0153
  952MOL0     H28460   1.996   2.629   9.762  1.1395 -0.6592 -2.8429
  952MOL0     H28461   2.191   2.388   9.792  0.9571 -0.0024 -0.3270
  952MOL0     H28462   2.186   2.515   9.667 -0.1351 -0.0601 -0.2344
  952MOL0     H28463   2.249   2.685   9.835 -2.2910  0.6861  2.6146
  952MOL0     H28464   2.261   2.548   9.953  1.1069  3.3737  1.7050
  952MOL0     H28465   2.466   2.457   9.836  1.2774  0.5234 -0.1333
  952MOL0     H28466   2.425   2.554   9.691 -0.5993 -0.8264  0.3775
  952MOL0     H28467   2.488   2.683   9.968 -1.2078 -0.2662 -0.8186
  952MOL0     H28468   2.470   2.759   9.818 -3.3934  0.0919  1.0479
  952MOL0     H28469   2.685   2.541   9.873  2.4524  1.1345  0.2768
  952MOL0     H28470   2.671   2.626   9.734 -0.1429 -1.2494  0.6755
  952MOL0     H28471   2.843   2.801   9.709 -1.5241 -0.2356  0.3364
  952MOL0     H28472   2.981   3.021   9.763 -1.7015 -2.4053 -0.3574
  952MOL0     H28473   3.022   3.069   9.939  0.5475 -0.4168  0.2758
  952MOL0     H28474   3.219   2.997   9.893 -0.4394  0.5477  2.0065
  952MOL0     H28475   3.150   2.841   9.953  1.5917 -1.6609 -0.9724
  952MOL0     H28476   3.176   2.930   9.664 -1.4355  2.5785  2.9247
  952MOL0     H28477   3.106   2.768   9.712  0.0514  0.4529 -0.4308
  952MOL0     H28478   3.324   2.773   9.617  1.5464  0.6960  0.3527
  952MOL0     H28479   3.320   2.695   9.772  1.8466 -0.4092 -0.9655
  952MOL0     H28480   3.608   3.051   9.748 -0.5135 -0.0913 -0.2352
  952MOL0     H28481   3.873   2.983   9.712 -0.7559  0.5163 -2.5258
  952MOL0     H28482   4.188   2.644   9.491 -0.6721  0.2122  0.5721
  952MOL0     H28483   4.386   2.501   9.459  0.8480 -0.7222 -0.0011
  952MOL0     H28484   4.566   2.172   9.485 -0.4134 -0.2079  1.4844
  952MOL0     H28485   4.469   2.297   9.412 -2.3426  0.5896  1.8039
  952MOL0     H28486   4.620   2.477   9.520 -0.4311 -0.3152 -0.3197
  952MOL0     H28487   4.728   2.341   9.573  0.6440  5.3100  2.4044
  952MOL0     H28488   4.752   2.274   9.345  2.6418  0.6398 -0.1665
  952MOL0     H28489   4.643   2.380   9.281 -1.0010 -3.9241  1.1418
  952MOL0     H28490   4.894   2.462   9.428 -3.0073 -1.9457  2.1485
  952MOL0     H28491   4.794   2.576   9.338 -0.0554  0.4997  1.5317
  952MOL0     H28492   4.855   2.423   9.133 -0.8367  0.3356  0.3360
  952MOL0     H28493   4.954   2.318   9.225  3.7174  0.6695  0.5650
  952MOL0     H28494   5.084   2.507   9.104  1.9924 -0.0221  1.1770
  952MOL0     H28495   4.976   2.619   9.193  0.9401  1.0607  3.2311
  952MOL0     H28496   5.069   2.602   9.384 -1.5826 -1.2078 -0.1598
  952MOL0     H28497   5.199   2.618   9.261 -0.8701 -0.3185 -2.1788
  952MOL0     H28498   5.289   2.473   9.417 -0.0833 -1.1246 -0.4221
  952MOL0     H28499   5.131   2.377   9.435 -3.0029  2.6478  0.3877
  952MOL0     H28500   4.265   2.260   9.798 -1.1759 -0.1507 -0.3981
  952MOL0     H28501   4.049   2.396   9.800  1.5424  1.4547  1.9658
  952MOL0     H28502   3.750   2.581   9.680  0.7548  0.4751  1.8319
  952MOL0     H28503   3.523   2.643   9.703  1.4532 -1.2758 -1.1400
  952MOL0     H28504   1.768   2.268  10.165 -0.0293  1.7656 -0.2385
  952MOL0     H28505   1.571   2.164  10.260  2.8525  1.4359  1.1790
  952MOL0     H28506   1.060   2.102  10.074  0.6705  1.9076  0.2786
  952MOL0     H28507   0.829   2.098  10.150 -0.6541  3.3887  1.6918
  952MOL0     H28508   0.707   2.048  10.541 -0.7743  1.0934  1.2489
  952MOL0     H28509   0.744   1.880  10.484 -0.0903  0.1718  1.2455
  952MOL0     H28510   0.511   1.840  10.417 -0.6145  0.3574 -1.1618
  952MOL0     H28511   0.471   2.009  10.432  0.3279  1.9739  3.2830
  952MOL0     H28512   0.534   1.987  10.688  0.1822 -1.1969  0.8579
  952MOL0     H28513   0.504   1.811  10.658 -0.0031  0.3490  1.5246
  952MOL0     H28514   0.309   2.032  10.576  1.6007 -0.4198 -0.3115
  952MOL0     H28515   0.297   1.851  10.550 -0.0781  0.6354 -0.2737
  952MOL0     H28516   0.220   1.994  10.966 -0.7606  3.0857 -1.3333
  952MOL0     H28517   0.935   1.994  10.540 -1.2461 -2.4606  0.4564
  952MOL0     H28518   1.250   1.955  10.549  2.9312  1.1770 -0.2824
  952MOL0     H28519   1.277   2.126  10.508 -0.8915 -0.4554 -3.4120
  952MOL0     H28520   1.153   2.078  10.625 -1.0729 -0.8657  0.2474
  953MOL0     O28521  10.659   6.502   5.991 -0.2191  0.4076 -0.4846
  953MOL0     C28522  10.658   6.626   5.978  0.2875 -0.1829 -0.2590
  953MOL0     O28523  10.762   6.706   5.956  0.4526 -0.5882 -0.1771
  953MOL0     C28524  10.888   6.676   5.888 -0.4896  0.6201  0.7910
  953MOL0     C28525  10.983   6.780   5.872 -0.0249  0.2689 -0.1369
  953MOL0     C28526  11.113   6.755   5.832  0.0171 -0.1434 -0.5730
  953MOL0     C28527  11.153   6.622   5.816  0.5041  0.0609  0.5611
  953MOL0     O28528  11.283   6.608   5.792  0.0592  0.7473 -0.5334
  953MOL0     C28529  11.339   6.505   5.703  0.0135 -0.6626  0.0593
  953MOL0     C28530  11.487   6.533   5.684  0.3702  0.7372 -1.0413
  953MOL0     C28531  11.522   6.413   5.588  0.4086  0.6371 -0.0203
  953MOL0     C28532  11.668   6.418   5.540 -0.6869  0.6904  0.0603
  953MOL0     C28533  11.694   6.331   5.418  0.5595 -0.0072  0.4771
  953MOL0     C28534  11.839   6.314   5.370 -0.3226 -0.7297 -0.6758
  953MOL0     C28535  11.872   6.247   5.232  0.0322  0.5157 -0.6703
  953MOL0     C28536  11.791   6.127   5.225 -0.6569  1.0850  0.4235
  953MOL0     N28537  11.844   6.024   5.133 -0.5570  0.5728 -0.2134
  953MOL0     C28538  11.813   6.009   5.003  0.0398 -0.6788  0.2740
  953MOL0     C28539  11.887   5.903   4.965 -0.0035  0.3415 -0.4923
  953MOL0     C28540  11.911   5.848   4.817 -0.0755  0.1106  0.1387
  953MOL0     C28541  12.053   5.889   4.769  0.4210  0.2598  0.7283
  953MOL0     C28542  12.048   6.011   4.672  0.5594  0.4040 -0.1087
  953MOL0     C28543  12.192   6.063   4.651  0.4456 -0.3166 -0.2939
  953MOL0     O28544  12.267   5.963   4.582  0.1467  0.0895  0.1200
  953MOL0     C28545  12.406   5.984   4.569  0.5800 -0.1516  0.2107
  953MOL0     C28546  12.473   5.912   4.468  0.0945  0.3777  0.5508
  953MOL0     C28547  12.607   5.928   4.442  0.1679  0.2880  1.0636
  953MOL0     C28548  12.679   6.019   4.515  0.2662  0.6079 -0.2906
  953MOL0     C28549  12.824   6.014   4.504 -0.7288 -0.6902 -0.1312
  953MOL0     O28550  12.882   5.971   4.391  0.0702  0.5889 -0.3651
  953MOL0     C28551  13.012   5.947   4.391 -0.4974  0.7453 -0.1960
  953MOL0     C28552  13.058   5.829   4.450 -0.0046 -0.0454  0.2593
  953MOL0     C28553  13.196   5.793   4.447 -0.0311 -0.1484 -0.1334
  953MOL0     C28554  13.281   5.881   4.376  0.1582  0.3497 -0.4027
  953MOL0     O28555  13.416   5.872   4.356  0.7552 -0.1498 -0.9031
  953MOL0     C28556  13.485   5.783   4.442  0.9746  1.2146 -0.6040
  953MOL0     C28557  13.626   5.796   4.404  0.7184  0.1416  0.1075
  953MOL0     C28558  13.720   5.682   4.450 -0.1336  0.1890  0.0014
  953MOL0     C28559  13.874   5.705   4.415  0.4627 -0.6032  0.4898
  953MOL0     C28560  13.925   5.848   4.461  0.9514 -0.7725 -0.1384
  953MOL0     C28561  14.070   5.860   4.467 -1.1724  1.0242  0.6825
  953MOL0     C28562  14.134   5.876   4.333 -0.2379 -0.6231 -0.2088
  953MOL0     C28563  14.224   5.767   4.279  0.2881 -0.5488 -0.2170
  953MOL0    Cl28564  14.291   5.827   4.126  0.1100  0.4907  0.2112
  953MOL0     C28565  13.232   5.989   4.307  0.4297 -0.3449  1.0676
  953MOL0     C28566  13.095   6.028   4.317 -0.3498  0.7257  0.1031
  953MOL0     O28567  12.884   6.037   4.609 -0.0562  0.3098  0.0708
  953MOL0     C28568  12.616   6.105   4.603  0.1409 -0.1670  0.4869
  953MOL0     C28569  12.475   6.094   4.624 -1.0750 -0.8096 -0.2385
  953MOL0     N28570  11.946   5.849   5.072  0.1101  0.7453  0.5107
  953MOL0     N28571  11.923   5.922   5.174 -0.0983  0.1581 -0.3452
  953MOL0     C28572  11.059   6.519   5.823  0.3031  1.2162 -0.1021
  953MOL0     C28573  10.926   6.541   5.856 -0.8680 -0.0389  0.5216
  953MOL0     C28574  10.528   6.692   5.995  0.2733  0.2556  0.4307
  953MOL0     C28575  10.409   6.633   5.950 -0.6867  0.1679  0.7724
  953MOL0     C28576  10.292   6.695   5.968  0.1868 -0.4900 -0.4245
  953MOL0     C28577  10.288   6.826   6.021 -0.4490 -0.5151  0.3158
  953MOL0     O28578  10.172   6.894   6.043 -0.0850  0.0124 -0.4226
  953MOL0     C28579  10.049   6.841   5.996  0.6029 -0.4738 -0.5847
  953MOL0     C28580   9.927   6.938   6.009  0.7258 -0.1026  0.9334
  953MOL0     C28581   9.908   6.965   6.156 -1.0656  0.2631 -0.3249
  953MOL0     C28582   9.791   7.046   6.191 -0.0142 -0.7124  0.1882
  953MOL0     C28583   9.664   6.993   6.141  0.1091 -0.4960 -1.1630
  953MOL0     C28584   9.550   6.953   6.108  0.1045  0.1582 -0.4464
  953MOL0     C28585  10.395   6.893   6.059  0.0535 -0.5041  0.4185
  953MOL0     C28586  10.522   6.828   6.042  0.8289  0.4762 -0.5780
  953MOL0     C28587  10.643   6.915   6.090 -0.0118  0.1340  0.5029
  953MOL0     H28588  10.963   6.883   5.898  2.4469  0.8119 -0.1443
  953MOL0     H28589  11.192   6.829   5.833 -0.0750 -0.0457  0.9770
  953MOL0     H28590  11.319   6.402   5.733 -1.4479 -0.5757 -0.5540
  953MOL0     H28591  11.295   6.520   5.604  2.6392  2.1772 -0.8430
  953MOL0     H28592  11.532   6.520   5.783  0.4470 -1.3364 -1.3002
  953MOL0     H28593  11.507   6.631   5.640  1.0597 -0.0298 -2.5109
  953MOL0     H28594  11.452   6.404   5.504  1.6034  0.2552 -0.9984
  953MOL0     H28595  11.508   6.321   5.647  0.1667  0.6919  0.0096
  953MOL0     H28596  11.686   6.518   5.499 -0.8995  0.7804  0.1848
  953MOL0     H28597  11.743   6.389   5.614 -0.8037 -0.6292 -0.3209
  953MOL0     H28598  11.660   6.229   5.442  0.7473 -1.1810 -3.5400
  953MOL0     H28599  11.626   6.365   5.339  2.2010 -0.7707 -1.3459
  953MOL0     H28600  11.891   6.410   5.369 -2.8873  0.7752 -1.8710
  953MOL0     H28601  11.887   6.247   5.442 -0.2787 -0.6138 -0.5965
  953MOL0     H28602  11.979   6.223   5.225  0.0765 -0.1762  1.6646
  953MOL0     H28603  11.848   6.307   5.144  1.4702  0.0620 -1.4104
  953MOL0     H28604  11.793   6.071   5.319  1.2900 -0.8996 -0.7067
  953MOL0     H28605  11.690   6.152   5.189 -1.3910 -3.0494 -0.9157
  953MOL0     H28606  11.762   6.086   4.947  2.8436  1.0157 -0.1431
  953MOL0     H28607  11.917   5.739   4.830 -0.4471 -0.0317 -0.7971
  953MOL0     H28608  11.837   5.877   4.742 -1.3113  0.3765  1.4220
  953MOL0     H28609  12.105   5.920   4.860  0.7169  2.4099 -0.1209
  953MOL0     H28610  12.104   5.806   4.719  0.2091 -0.1301  1.1471
  953MOL0     H28611  11.982   6.090   4.710 -2.2571 -1.5553 -0.6488
  953MOL0     H28612  12.009   5.984   4.573 -1.5479  0.9232  0.5159
  953MOL0     H28613  12.237   6.101   4.743 -0.8805  0.4160  0.0795
  953MOL0     H28614  12.194   6.145   4.579 -0.4644 -0.0781 -0.0533
  953MOL0     H28615  12.412   5.829   4.433  0.7039  0.7219 -1.4531
  953MOL0     H28616  12.659   5.864   4.372 -1.7633 -1.2511  0.9305
  953MOL0     H28617  12.997   5.751   4.494 -1.2503 -1.0751 -3.0227
  953MOL0     H28618  13.221   5.701   4.499  3.5442 -0.8874 -2.7657
  953MOL0     H28619  13.455   5.805   4.544 -0.2602  1.8476 -1.0806
  953MOL0     H28620  13.453   5.679   4.425  1.2022  0.6384  2.0826
  953MOL0     H28621  13.629   5.802   4.295  0.3138  0.5381  0.1181
  953MOL0     H28622  13.664   5.891   4.443 -0.0900  1.8281 -2.8627
  953MOL0     H28623  13.703   5.678   4.558 -2.2655  0.3865 -0.2734
  953MOL0     H28624  13.690   5.591   4.397  0.5062 -0.3495  0.5609
  953MOL0     H28625  13.883   5.687   4.307 -4.3146 -2.5980  0.1972
  953MOL0     H28626  13.925   5.635   4.481  0.9319 -1.6749 -0.9670
  953MOL0     H28627  13.891   5.865   4.563 -3.3243 -1.1326 -1.3097
  953MOL0     H28628  13.888   5.935   4.406  0.8502  2.2657  4.2132
  953MOL0     H28629  14.101   5.945   4.530  1.2245  1.7125 -1.2368
  953MOL0     H28630  14.117   5.771   4.509 -0.8089  1.8443  2.0987
  953MOL0     H28631  14.197   5.966   4.331 -0.3858 -0.3494  2.7956
  953MOL0     H28632  14.055   5.902   4.262  0.9944 -0.8100 -1.6969
  953MOL0     H28633  14.306   5.758   4.351  0.1520  3.4763  0.6454
  953MOL0     H28634  14.169   5.673   4.267  1.0828 -1.0402 -0.0584
  953MOL0     H28635  13.290   6.065   4.256 -1.7182  0.0413 -0.9756
  953MOL0     H28636  13.050   6.111   4.263  3.9401  1.4328 -2.9159
  953MOL0     H28637  12.662   6.180   4.666  0.4044 -1.1683  1.5216
  953MOL0     H28638  12.431   6.166   4.692  0.7387  2.2477 -2.0684
  953MOL0     H28639  11.101   6.419   5.823  3.0444  2.2212  2.7083
  953MOL0     H28640  10.863   6.453   5.863 -1.4521  0.3190 -0.0366
  953MOL0     H28641  10.407   6.536   5.902 -1.7494  0.5891 -0.0786
  953MOL0     H28642  10.201   6.638   5.951  0.4485 -1.6373  1.6836
  953MOL0     H28643  10.029   6.744   6.043 -2.5670  0.0720 -0.6196
  953MOL0     H28644  10.062   6.825   5.889  2.6590 -1.1244 -0.2834
  953MOL0     H28645   9.839   6.888   5.968  1.2589  0.3345 -0.8401
  953MOL0     H28646   9.938   7.036   5.963 -0.9351 -0.4044 -0.1972
  953MOL0     H28647  10.000   7.011   6.195 -0.3817 -3.4408  3.1918
  953MOL0     H28648   9.907   6.869   6.208 -4.5721 -1.0214 -2.3925
  953MOL0     H28649   9.786   7.048   6.300  1.3210 -0.7485  0.2656
  953MOL0     H28650   9.814   7.146   6.153  1.8224  0.1311  3.2225
  953MOL0     H28651   9.448   6.930   6.081 -0.1746  1.0396 -0.1521
  953MOL0     H28652  10.394   6.992   6.103 -1.1572 -0.9745  1.5037
  953MOL0     H28653  10.692   6.853   6.166 -0.4486 -1.5668 -0.5461
  953MOL0     H28654  10.710   6.934   6.006 -0.7664 -2.7317 -0.8603
  953MOL0     H28655  10.610   7.012   6.130 -0.1915 -0.4783  1.8972
  954MOL0     O28656   2.672   8.749   1.134  0.4750  0.2187 -1.2410
  954MOL0     C28657   2.764   8.763   1.217  0.8919 -0.1761 -0.1883
  954MOL0     O28658   2.751   8.851   1.318 -0.9452 -0.4081  0.2996
  954MOL0     C28659   2.640   8.858   1.400 -0.6415  0.0743 -0.3884
  954MOL0     C28660   2.516   8.791   1.383 -0.3627  0.0943 -0.5888
  954MOL0     C28661   2.404   8.819   1.462 -0.5481 -0.0816  0.5691
  954MOL0     C28662   2.418   8.894   1.576  0.1666 -0.2426  1.0576
  954MOL0     O28663   2.317   8.916   1.663  0.2992 -0.0426  0.2425
  954MOL0     C28664   2.197   8.830   1.656 -0.6732 -0.1162  0.9416
  954MOL0     C28665   2.097   8.840   1.779  0.0144 -0.1302  0.4538
  954MOL0     C28666   2.003   8.714   1.756  0.5691 -0.3371  0.0542
  954MOL0     C28667   1.894   8.712   1.864 -0.5989  0.0025  0.0168
  954MOL0     C28668   1.801   8.591   1.861 -0.9944 -0.3070 -0.3268
  954MOL0     C28669   1.876   8.460   1.900  0.4062  0.4297 -0.6381
  954MOL0     C28670   1.912   8.449   2.053  0.2098 -0.5351  0.0458
  954MOL0     C28671   2.027   8.354   2.080  0.0669  0.4269 -0.4867
  954MOL0     N28672   2.152   8.389   2.011  0.3834  0.7374 -0.6136
  954MOL0     C28673   2.207   8.514   2.010 -0.7982 -0.8376 -0.7424
  954MOL0     C28674   2.311   8.521   1.924  0.6319 -0.3493  0.2048
  954MOL0     C28675   2.397   8.637   1.892 -0.5994  0.3755  0.7703
  954MOL0     C28676   2.537   8.600   1.913 -0.2093 -0.0624  1.2689
  954MOL0     C28677   2.611   8.729   1.873 -1.0673 -0.6058  0.0603
  954MOL0     C28678   2.764   8.725   1.862 -0.0240  0.2972 -0.0557
  954MOL0     O28679   2.820   8.629   1.769  0.0701 -0.1930  0.2374
  954MOL0     C28680   2.942   8.652   1.710 -0.0797  0.2470  0.7138
  954MOL0     C28681   2.976   8.592   1.585  0.3097 -0.1740  0.4205
  954MOL0     C28682   3.100   8.618   1.524 -0.3413  0.0823 -0.5209
  954MOL0     C28683   3.193   8.699   1.588  0.1413 -0.8621 -0.3137
  954MOL0     C28684   3.338   8.722   1.546  0.3614 -0.4018 -0.0943
  954MOL0     O28685   3.384   8.693   1.419  0.3502  0.1150 -1.1260
  954MOL0     C28686   3.513   8.732   1.388  0.6074  0.5988  0.6470
  954MOL0     C28687   3.542   8.867   1.367 -0.2313  0.2726  0.7621
  954MOL0     C28688   3.669   8.901   1.314 -0.3189 -0.1388 -0.0694
  954MOL0     C28689   3.781   8.808   1.301 -0.0143  0.2258  0.0446
  954MOL0     O28690   3.914   8.835   1.272  0.2221 -0.4577 -0.1303
  954MOL0     C28691   3.965   8.943   1.189 -0.0396  0.2504  0.5868
  954MOL0     C28692   4.023   9.059   1.271  0.2093  0.7742  0.2838
  954MOL0     C28693   4.138   9.012   1.362  0.7463 -0.3495  0.0868
  954MOL0     C28694   4.181   9.114   1.474  1.1453  0.1440 -0.4026
  954MOL0     C28695   4.312   9.082   1.536  0.2249  0.4690  0.1684
  954MOL0     C28696   4.399   9.200   1.601 -0.2823 -0.5544 -0.0488
  954MOL0     C28697   4.460   9.290   1.501 -0.5330 -0.1020 -0.4848
  954MOL0     C28698   4.555   9.223   1.404 -0.4943  0.2784  0.7755
  954MOL0    Cl28699   4.698   9.160   1.480 -0.2384  0.0114  0.2626
  954MOL0     C28700   3.748   8.677   1.348 -0.4618  0.4017  0.2247
  954MOL0     C28701   3.616   8.642   1.374 -0.0047  0.4500 -0.5698
  954MOL0     O28702   3.411   8.755   1.640  0.3647  0.0945 -0.0536
  954MOL0     C28703   3.157   8.757   1.714  0.3606  0.0843  0.8415
  954MOL0     C28704   3.034   8.732   1.767  0.6521 -0.2610  0.2843
  954MOL0     N28705   2.314   8.392   1.867  0.5255  0.2857  0.0275
  954MOL0     N28706   2.225   8.314   1.921  0.6505  0.2133  0.1213
  954MOL0     C28707   2.539   8.960   1.602  0.9461 -0.3764  0.2740
  954MOL0     C28708   2.647   8.946   1.510  0.0396  0.3410  0.1007
  954MOL0     C28709   2.897   8.699   1.187 -0.6613  0.3777  0.7075
  954MOL0     C28710   3.014   8.777   1.198 -0.9397  0.0464  0.2439
  954MOL0     C28711   3.141   8.733   1.153  0.5771  0.4678 -0.2541
  954MOL0     C28712   3.142   8.605   1.098  0.6432  0.3228  0.1230
  954MOL0     O28713   3.247   8.550   1.030 -0.1407  0.1249 -0.2139
  954MOL0     C28714   3.376   8.599   1.054  0.3669 -0.1044  0.1103
  954MOL0     C28715   3.484   8.491   1.001  0.7963 -0.1381 -0.1327
  954MOL0     C28716   3.613   8.574   0.992 -0.3236 -0.0677  0.8140
  954MOL0     C28717   3.726   8.497   0.929  0.5879  0.5030  0.2052
  954MOL0     C28718   3.850   8.564   0.961 -0.6428 -0.3798  0.8367
  954MOL0     C28719   3.954   8.622   0.986  0.3419  1.0895  0.2018
  954MOL0     C28720   3.036   8.513   1.102 -0.2058 -0.0499  0.4730
  954MOL0     C28721   2.910   8.562   1.143  0.4081 -0.6549  0.0831
  954MOL0     C28722   2.784   8.472   1.129  0.4533  1.0863  0.5111
  954MOL0     H28723   2.511   8.714   1.307 -2.2150  0.1148 -0.5155
  954MOL0     H28724   2.304   8.787   1.435 -1.1421  2.5669 -0.6899
  954MOL0     H28725   2.133   8.849   1.569 -1.8345 -3.4771  0.9032
  954MOL0     H28726   2.223   8.725   1.639  0.3766 -0.2220  2.9293
  954MOL0     H28727   2.041   8.934   1.774  2.0929  1.1966  0.8491
  954MOL0     H28728   2.159   8.840   1.869 -0.7287 -0.3617  0.9677
  954MOL0     H28729   2.068   8.626   1.760  1.2454 -0.0644 -2.7463
  954MOL0     H28730   1.947   8.713   1.662 -0.7314 -0.0588  0.8025
  954MOL0     H28731   1.944   8.715   1.962 -0.8918 -1.1590  0.2184
  954MOL0     H28732   1.839   8.807   1.854  2.3161  1.9505  1.0873
  954MOL0     H28733   1.723   8.616   1.933 -1.0960  0.5472 -0.7312
  954MOL0     H28734   1.775   8.587   1.755  0.4503  2.0767 -0.8352
  954MOL0     H28735   1.802   8.383   1.875  2.3294 -1.5222 -0.6916
  954MOL0     H28736   1.968   8.447   1.841  0.0662 -0.0645 -1.0701
  954MOL0     H28737   1.818   8.419   2.100 -1.3770  3.0084 -0.4874
  954MOL0     H28738   1.933   8.546   2.100  1.3505 -1.5716  1.7767
  954MOL0     H28739   2.052   8.356   2.187  1.8213 -0.7691 -0.8413
  954MOL0     H28740   1.994   8.253   2.055  0.5717  1.1379 -4.8260
  954MOL0     H28741   2.163   8.581   2.083  1.3058 -1.4012  1.1582
  954MOL0     H28742   2.392   8.670   1.788  0.9057 -2.9008 -0.4928
  954MOL0     H28743   2.357   8.714   1.959 -2.4807 -0.3454  0.5200
  954MOL0     H28744   2.556   8.565   2.014 -0.0731 -4.9217 -0.1592
  954MOL0     H28745   2.572   8.516   1.852 -0.3399 -0.5535  1.8682
  954MOL0     H28746   2.579   8.802   1.948 -0.8872 -1.4967  1.0293
  954MOL0     H28747   2.577   8.767   1.776 -2.1145 -1.5327  0.0472
  954MOL0     H28748   2.805   8.703   1.961 -0.0930  1.0408  0.1437
  954MOL0     H28749   2.789   8.822   1.819 -2.0017 -0.0093 -2.0622
  954MOL0     H28750   2.904   8.528   1.536 -0.2272 -0.1286  1.1294
  954MOL0     H28751   3.124   8.571   1.430 -3.2658 -0.8852 -0.8931
  954MOL0     H28752   3.457   8.934   1.374 -1.3308 -0.7736 -1.5219
  954MOL0     H28753   3.706   9.002   1.300  2.7698 -1.4029 -1.8325
  954MOL0     H28754   4.037   8.895   1.122 -0.7233  2.0977 -1.5963
  954MOL0     H28755   3.901   8.981   1.109  1.5972  0.0604 -0.8765
  954MOL0     H28756   4.072   9.123   1.197 -0.1425  1.0882  0.3151
  954MOL0     H28757   3.945   9.109   1.330  1.0799 -0.1312  2.2854
  954MOL0     H28758   4.108   8.924   1.419  1.1310 -0.9336 -0.5912
  954MOL0     H28759   4.221   8.977   1.300  0.9080  0.2995 -0.0705
  954MOL0     H28760   4.108   9.120   1.555  2.4138  2.0440  0.6726
  954MOL0     H28761   4.198   9.214   1.435 -0.2578 -0.0766 -1.6711
  954MOL0     H28762   4.373   9.025   1.466  1.6323  1.4297  0.5637
  954MOL0     H28763   4.300   9.008   1.616  0.2757  1.6099  1.2775
  954MOL0     H28764   4.336   9.263   1.665 -2.3588  0.5727 -3.0006
  954MOL0     H28765   4.483   9.162   1.660  1.9175  1.8657 -1.3762
  954MOL0     H28766   4.515   9.366   1.556 -0.3242 -0.4157 -0.2544
  954MOL0     H28767   4.380   9.340   1.446 -1.5979 -0.9759  0.2303
  954MOL0     H28768   4.509   9.142   1.346  0.4077  1.8365 -2.2896
  954MOL0     H28769   4.579   9.297   1.327  1.6620  0.9831  2.0173
  954MOL0     H28770   3.831   8.607   1.354 -0.5485  0.4067  2.3394
  954MOL0     H28771   3.601   8.536   1.390  0.7357  0.3979 -0.1862
  954MOL0     H28772   3.221   8.816   1.778  1.2162 -1.6051  1.6170
  954MOL0     H28773   3.010   8.768   1.866  1.4364 -0.7685  0.6664
  954MOL0     H28774   2.545   9.015   1.695  0.8593  2.9684 -1.5582
  954MOL0     H28775   2.746   8.986   1.527  0.6550 -1.7265  1.8728
  954MOL0     H28776   2.990   8.877   1.233  0.5664  0.0525  1.3745
  954MOL0     H28777   3.224   8.803   1.140  0.5569  0.5860  0.2410
  954MOL0     H28778   3.384   8.608   1.163 -0.1623  0.3902  0.1148
  954MOL0     H28779   3.381   8.695   1.002  2.9959 -0.3549 -0.2067
  954MOL0     H28780   3.457   8.456   0.901 -0.0693 -1.3833  0.5153
  954MOL0     H28781   3.492   8.407   1.070 -0.3896 -0.6451 -0.5808
  954MOL0     H28782   3.640   8.596   1.096 -0.3391  0.3938  0.7239
  954MOL0     H28783   3.605   8.671   0.942  0.6541 -0.0563  0.6740
  954MOL0     H28784   3.716   8.395   0.968 -1.8454  0.4530 -0.4209
  954MOL0     H28785   3.720   8.490   0.820 -1.4664 -1.4834  0.3708
  954MOL0     H28786   4.039   8.684   1.004  0.7708  0.1678  1.4983
  954MOL0     H28787   3.037   8.411   1.066  3.5401 -1.8170  4.5869
  954MOL0     H28788   2.798   8.378   1.075 -3.5878  1.4948 -1.6552
  954MOL0     H28789   2.735   8.446   1.223 -3.6864 -0.7610 -1.9005
  954MOL0     H28790   2.706   8.506   1.061  2.4531  1.1124 -1.9491
  955MOL0     O28791   7.565   0.938   3.923 -0.1534 -0.1934 -0.1730
  955MOL0     C28792   7.610   1.048   3.908 -0.2352  0.3678 -0.1940
  955MOL0     O28793   7.747   1.071   3.905 -0.2112 -0.1161 -0.8153
  955MOL0     C28794   7.845   0.987   3.892 -0.8881  0.4599  0.2809
  955MOL0     C28795   7.843   0.848   3.909  0.4531 -1.0822 -0.2076
  955MOL0     C28796   7.961   0.782   3.901  0.4801  0.3226 -0.1840
  955MOL0     C28797   8.083   0.838   3.876 -0.7667  0.6616  0.1030
  955MOL0     O28798   8.206   0.778   3.889  0.0450 -0.3382  0.2724
  955MOL0     C28799   8.201   0.636   3.842  0.8047 -0.0926 -0.9319
  955MOL0     C28800   8.351   0.585   3.843  0.5594  0.4444 -0.1679
  955MOL0     C28801   8.438   0.676   3.759  0.5333  0.3039 -0.2892
  955MOL0     C28802   8.590   0.630   3.748  1.3480 -0.8290  0.2038
  955MOL0     C28803   8.678   0.742   3.681 -0.0015 -0.9597 -0.2000
  955MOL0     C28804   8.641   0.774   3.532  0.0935 -1.0180 -0.6616
  955MOL0     C28805   8.731   0.872   3.458 -0.4245  0.0122  0.0380
  955MOL0     C28806   8.672   0.903   3.317 -0.3331  0.0845  0.3341
  955MOL0     N28807   8.747   0.833   3.211  0.9254  1.1182  0.8565
  955MOL0     C28808   8.849   0.887   3.129 -0.4080  0.7308 -0.7962
  955MOL0     C28809   8.890   0.780   3.058 -0.2118 -0.2133 -0.7607
  955MOL0     C28810   9.009   0.783   2.964  0.2334  0.0315  1.0575
  955MOL0     C28811   9.130   0.735   3.047 -0.4969 -0.3133 -0.8900
  955MOL0     C28812   9.254   0.716   2.956 -0.1933 -0.4095 -0.7831
  955MOL0     C28813   9.385   0.753   3.022 -0.0955  0.3607  0.4835
  955MOL0     O28814   9.490   0.735   2.934 -0.9578 -0.3458  0.5094
  955MOL0     C28815   9.617   0.702   2.980  0.2508  0.4426 -0.5102
  955MOL0     C28816   9.713   0.704   2.876  0.3165 -0.1986  0.9334
  955MOL0     C28817   9.841   0.680   2.911  0.4042 -1.1730 -0.0060
  955MOL0     C28818   9.878   0.666   3.048  0.1935  0.1470  0.4805
  955MOL0     C28819  10.020   0.661   3.073  0.5218 -0.3085  0.4546
  955MOL0     O28820  10.059   0.704   3.199  0.6895  0.0547 -0.0286
  955MOL0     C28821  10.188   0.714   3.236 -0.0654 -0.4487  0.1344
  955MOL0     C28822  10.220   0.656   3.362  0.0523  0.3310  0.4541
  955MOL0     C28823  10.353   0.648   3.406 -0.8602  0.2038  0.3010
  955MOL0     C28824  10.456   0.705   3.327 -0.0139  0.1956 -0.6031
  955MOL0     O28825  10.591   0.680   3.348  0.0705  0.0888  0.4610
  955MOL0     C28826  10.633   0.625   3.475  0.2465 -0.4490 -0.4801
  955MOL0     C28827  10.772   0.661   3.507 -0.1816 -0.1466 -0.7094
  955MOL0     C28828  10.860   0.606   3.397  0.6835 -0.2722  0.1959
  955MOL0     C28829  11.011   0.634   3.408  0.5757 -0.1878 -0.4193
  955MOL0     C28830  11.054   0.779   3.422  0.7069 -0.2985 -0.8037
  955MOL0     C28831  11.038   0.860   3.297 -0.5643 -0.3869  0.3730
  955MOL0     C28832  11.086   1.005   3.329 -0.0254  0.1533  0.1533
  955MOL0     C28833  11.043   1.106   3.222  0.4393  0.6251  0.3747
  955MOL0    Cl28834  11.125   1.248   3.251  0.4442 -0.0770 -0.2998
  955MOL0     C28835  10.427   0.771   3.210  0.6782  0.1945  0.9361
  955MOL0     C28836  10.291   0.790   3.168 -0.6375 -0.4845 -0.0056
  955MOL0     O28837  10.091   0.600   2.986  0.4104 -0.2134 -0.2420
  955MOL0     C28838   9.784   0.666   3.151 -0.0472 -0.7828  0.3317
  955MOL0     C28839   9.649   0.680   3.116 -0.7268  0.1655 -0.0076
  955MOL0     N28840   8.811   0.669   3.085  0.4144 -0.3437 -0.3207
  955MOL0     N28841   8.725   0.700   3.178 -1.3811 -0.2418 -0.0582
  955MOL0     C28842   8.088   0.976   3.861 -0.0459  0.9921  0.7252
  955MOL0     C28843   7.968   1.043   3.861 -0.3920  0.3122  0.1166
  955MOL0     C28844   7.522   1.161   3.872 -0.3463  0.3270 -1.1906
  955MOL0     C28845   7.564   1.260   3.778  0.1789  0.0139  0.3129
  955MOL0     C28846   7.482   1.368   3.739  0.1235 -0.0833 -0.1904
  955MOL0     C28847   7.362   1.388   3.802  0.5011 -0.4572  0.3521
  955MOL0     O28848   7.289   1.495   3.762  0.0065 -0.7599 -0.4265
  955MOL0     C28849   7.160   1.506   3.827 -0.0305 -0.0945  0.1515
  955MOL0     C28850   7.103   1.634   3.778 -0.2738  0.5976 -0.2347
  955MOL0     C28851   6.957   1.636   3.809 -0.2028  0.3065  0.6641
  955MOL0     C28852   6.884   1.768   3.782 -0.3092  1.0715 -0.0389
  955MOL0     C28853   6.739   1.754   3.798  0.1764  0.2005 -0.1655
  955MOL0     C28854   6.617   1.747   3.827  0.3028 -0.1450  0.8596
  955MOL0     C28855   7.319   1.299   3.905 -0.1443  0.2363 -0.0702
  955MOL0     C28856   7.388   1.177   3.927 -1.1280  0.1752 -0.6263
  955MOL0     C28857   7.326   1.090   4.041  0.2798 -0.3544 -0.4297
  955MOL0     H28858   7.747   0.799   3.923 -0.8727  1.2945 -0.4768
  955MOL0     H28859   7.953   0.676   3.921 -1.8436  0.2437 -1.1681
  955MOL0     H28860   8.139   0.574   3.908  0.6858  0.6095 -0.3731
  955MOL0     H28861   8.165   0.631   3.739  2.8889 -1.2789 -1.6762
  955MOL0     H28862   8.360   0.485   3.798 -0.3063  0.3089 -0.0451
  955MOL0     H28863   8.387   0.570   3.945 -0.6352 -2.9109 -0.1214
  955MOL0     H28864   8.433   0.783   3.782 -1.6633  0.2951 -0.5226
  955MOL0     H28865   8.393   0.671   3.659 -1.2885  0.2645  0.4908
  955MOL0     H28866   8.632   0.613   3.847  2.2656  0.5245  0.0712
  955MOL0     H28867   8.603   0.536   3.694  0.1138 -1.0650  0.2792
  955MOL0     H28868   8.671   0.839   3.731  0.5985 -0.6155 -0.7674
  955MOL0     H28869   8.781   0.707   3.675  0.1416 -0.6426  0.3267
  955MOL0     H28870   8.627   0.683   3.472 -0.1512 -2.0241  0.8787
  955MOL0     H28871   8.544   0.824   3.538  0.1412 -0.9663 -0.3458
  955MOL0     H28872   8.834   0.836   3.453  0.1208  1.5636 -0.6855
  955MOL0     H28873   8.737   0.966   3.513 -0.9630  1.0725 -1.6111
  955MOL0     H28874   8.567   0.871   3.317 -0.0696 -0.8111  0.1138
  955MOL0     H28875   8.684   1.009   3.291  0.6203  0.3121  1.5983
  955MOL0     H28876   8.895   0.984   3.138 -1.4540  1.0297  2.6978
  955MOL0     H28877   8.986   0.716   2.881 -3.1795 -0.6461  2.4020
  955MOL0     H28878   9.027   0.883   2.923 -0.2038 -0.8832 -1.5093
  955MOL0     H28879   9.148   0.807   3.127  1.3441 -1.4746 -0.1974
  955MOL0     H28880   9.108   0.639   3.094  3.0251 -2.0056 -2.3630
  955MOL0     H28881   9.242   0.776   2.865 -1.7869  0.1306 -0.2420
  955MOL0     H28882   9.269   0.612   2.926  0.4349  0.3826 -3.5046
  955MOL0     H28883   9.396   0.703   3.119  0.5538  1.2827  0.9101
  955MOL0     H28884   9.377   0.861   3.039  0.9945  0.1839  2.5242
  955MOL0     H28885   9.688   0.715   2.771  0.7741 -0.9327  0.7382
  955MOL0     H28886   9.910   0.666   2.829 -0.8004  0.1856 -1.3019
  955MOL0     H28887  10.165   0.586   3.424  3.9905 -2.2477  1.4186
  955MOL0     H28888  10.374   0.585   3.492 -1.2121  0.5009  0.6075
  955MOL0     H28889  10.580   0.671   3.559 -1.3416 -0.5650 -1.3928
  955MOL0     H28890  10.602   0.520   3.483 -0.9641 -0.3054 -2.6744
  955MOL0     H28891  10.775   0.770   3.513 -0.0102 -0.1683 -0.3713
  955MOL0     H28892  10.809   0.619   3.601 -1.1173  2.7626  1.0882
  955MOL0     H28893  10.859   0.497   3.392  4.2030 -0.4122 -0.5283
  955MOL0     H28894  10.829   0.637   3.297 -1.2681 -3.1550 -0.2089
  955MOL0     H28895  11.063   0.587   3.324  0.1090  1.3079 -1.5846
  955MOL0     H28896  11.039   0.580   3.499  0.0598 -0.1644 -0.2405
  955MOL0     H28897  11.159   0.786   3.451  0.4448 -0.6243  0.2618
  955MOL0     H28898  11.003   0.836   3.500 -1.3265  1.0068 -2.9216
  955MOL0     H28899  11.089   0.808   3.215 -1.2577 -1.2177  0.4441
  955MOL0     H28900  10.930   0.874   3.281 -1.1039 -2.6147  1.5477
  955MOL0     H28901  11.195   1.000   3.320  0.0797 -2.5189  1.7915
  955MOL0     H28902  11.057   1.034   3.430 -3.3728  0.6714 -0.8076
  955MOL0     H28903  11.070   1.070   3.122  2.4983 -0.0670  1.1442
  955MOL0     H28904  10.935   1.118   3.234  0.6948  0.5262  3.8079
  955MOL0     H28905  10.500   0.813   3.141  0.8658  0.7515  1.4669
  955MOL0     H28906  10.272   0.849   3.079 -1.4268 -2.0348 -0.9120
  955MOL0     H28907   9.813   0.652   3.255 -0.2032 -0.9801  0.3503
  955MOL0     H28908   9.580   0.673   3.200 -1.8269 -1.3548 -0.9707
  955MOL0     H28909   8.182   1.028   3.845 -1.3780  3.1857 -0.5155
  955MOL0     H28910   7.973   1.151   3.851  0.7281  0.3551  0.9082
  955MOL0     H28911   7.658   1.253   3.725  0.5052  4.5455 -0.1221
  955MOL0     H28912   7.521   1.442   3.670  3.0541  0.9465  2.3603
  955MOL0     H28913   7.157   1.511   3.936 -4.5611 -0.8528  0.2354
  955MOL0     H28914   7.095   1.422   3.799 -1.7132  0.8393  1.1011
  955MOL0     H28915   7.114   1.633   3.670 -1.5803 -3.4591 -0.5133
  955MOL0     H28916   7.142   1.721   3.831  0.0950  0.9278 -1.0467
  955MOL0     H28917   6.948   1.616   3.916  0.1573 -3.1011  0.1645
  955MOL0     H28918   6.907   1.551   3.761 -1.6210  0.2213  2.1804
  955MOL0     H28919   6.928   1.852   3.836  1.6277 -0.8607  1.5570
  955MOL0     H28920   6.903   1.771   3.674  1.2108 -3.8012 -0.1513
  955MOL0     H28921   6.516   1.723   3.853  0.3712 -0.7691  0.5791
  955MOL0     H28922   7.225   1.316   3.956 -0.4641 -0.5513 -0.3825
  955MOL0     H28923   7.370   0.990   4.047 -2.0719 -1.3583  1.4372
  955MOL0     H28924   7.351   1.141   4.134 -1.4596  0.2236 -0.2516
  955MOL0     H28925   7.217   1.084   4.033  0.2276 -1.1699  0.6285
  956MOL0     O28926   3.687  10.007   3.527  0.4530 -0.8587  0.3287
  956MOL0     C28927   3.680  10.084   3.623  0.1897 -0.5084 -0.1913
  956MOL0     O28928   3.788  10.111   3.703 -0.5274 -0.1862 -1.1456
  956MOL0     C28929   3.907  10.079   3.651  0.3666  0.4739  0.1433
  956MOL0     C28930   3.978   9.989   3.719  0.2012  0.9143 -0.4294
  956MOL0     C28931   4.101   9.942   3.673 -0.4321  0.0560 -0.1526
  956MOL0     C28932   4.161  10.003   3.564 -0.1354 -0.3395  0.1813
  956MOL0     O28933   4.287   9.967   3.525  0.2568  0.0849  0.1481
  956MOL0     C28934   4.370  10.063   3.447 -0.3247 -0.0851  0.2168
  956MOL0     C28935   4.513  10.009   3.455 -0.6285  0.0287 -0.7229
  956MOL0     C28936   4.620  10.102   3.398  0.2641 -0.2345 -0.6926
  956MOL0     C28937   4.747  10.041   3.435  0.1264 -1.1582 -0.7749
  956MOL0     C28938   4.863  10.140   3.401 -0.9334 -0.3001  0.3436
  956MOL0     C28939   5.000  10.065   3.439 -0.9467 -0.6558 -0.2126
  956MOL0     C28940   5.113  10.158   3.401  0.0512  0.0070 -0.5458
  956MOL0     C28941   5.142  10.148   3.251  0.5654 -0.0421  0.0652
  956MOL0     N28942   5.191  10.283   3.207  0.8915 -0.1926 -0.2914
  956MOL0     C28943   5.312  10.340   3.226  0.5520 -0.0781 -0.3891
  956MOL0     C28944   5.314  10.450   3.155  0.3702 -0.1923  0.4773
  956MOL0     C28945   5.434  10.548   3.148  0.3967 -0.5029  0.5142
  956MOL0     C28946   5.535  10.517   3.038  0.4423  0.3198 -0.7518
  956MOL0     C28947   5.576  10.371   3.040  0.1867  0.4256  0.9645
  956MOL0     C28948   5.675  10.343   2.924 -0.0120 -0.9608  1.1157
  956MOL0     O28949   5.811  10.394   2.929 -0.2209  0.2518 -0.3657
  956MOL0     C28950   5.914  10.339   2.851  0.0198  0.2624 -0.7733
  956MOL0     C28951   6.044  10.394   2.864  0.9208  0.0171  0.0174
  956MOL0     C28952   6.154  10.344   2.789 -0.1027  0.3663 -0.3972
  956MOL0     C28953   6.135  10.243   2.691 -0.3407 -0.8328  0.2706
  956MOL0     C28954   6.247  10.192   2.610 -0.4044  0.6662  0.5499
  956MOL0     O28955   6.369  10.247   2.634 -0.1326 -0.8391 -0.0755
  956MOL0     C28956   6.487  10.187   2.603  0.2987  0.1414 -0.6551
  956MOL0     C28957   6.497  10.042   2.598 -0.4227 -0.2937 -0.8088
  956MOL0     C28958   6.627   9.986   2.574  0.0748  0.6345 -0.9136
  956MOL0     C28959   6.737  10.076   2.548  0.2763 -0.3597  0.1214
  956MOL0     O28960   6.859  10.025   2.509  0.1726  0.1648  0.5054
  956MOL0     C28961   6.973  10.103   2.483  0.6246 -0.8887 -0.9915
  956MOL0     C28962   7.089  10.013   2.494 -0.3937  0.3082 -0.2594
  956MOL0     C28963   7.220  10.092   2.460 -0.4942  0.2362  0.2544
  956MOL0     C28964   7.329   9.984   2.449 -0.1949  0.1707 -0.4354
  956MOL0     C28965   7.462  10.057   2.460  0.1919 -0.4420  0.5513
  956MOL0     C28966   7.584   9.961   2.471  0.4237 -0.1179 -0.8724
  956MOL0     C28967   7.719  10.021   2.438 -0.1080  0.0497  0.5641
  956MOL0     C28968   7.725  10.122   2.324 -0.1080  0.9162 -0.5434
  956MOL0    Cl28969   7.890  10.173   2.314  0.5357 -0.1488 -0.3888
  956MOL0     C28970   6.716  10.213   2.539 -0.2437 -0.4448 -0.7664
  956MOL0     C28971   6.591  10.271   2.569 -0.0077  0.3847  0.0861
  956MOL0     O28972   6.220  10.094   2.536 -0.5097 -1.1466 -0.3820
  956MOL0     C28973   6.007  10.190   2.673  0.0905  0.3681 -0.4224
  956MOL0     C28974   5.902  10.241   2.752  0.4542  0.5015  0.1980
  956MOL0     N28975   5.196  10.459   3.094  0.4698 -0.4481  0.1625
  956MOL0     N28976   5.116  10.364   3.135  0.2606 -0.0342  0.5123
  956MOL0     C28977   4.095  10.102   3.491  1.0696 -0.0437  0.5125
  956MOL0     C28978   3.967  10.134   3.535 -0.0260 -0.5384  0.2125
  956MOL0     C28979   3.548  10.122   3.675  0.4112  0.5063 -0.1333
  956MOL0     C28980   3.543  10.146   3.812  0.4155 -0.1961 -0.0712
  956MOL0     C28981   3.422  10.186   3.865  0.2337 -1.4215  0.2176
  956MOL0     C28982   3.305  10.207   3.782  0.2229  0.1553  0.4073
  956MOL0     O28983   3.175  10.244   3.817  0.7779  0.2453  0.0353
  956MOL0     C28984   3.173  10.332   3.929  0.9388  0.5580  0.1768
  956MOL0     C28985   3.031  10.361   3.988 -0.4681 -0.4120  0.4143
  956MOL0     C28986   2.940  10.438   3.889 -0.4955 -0.4456  0.3907
  956MOL0     C28987   2.793  10.473   3.939 -0.2594 -0.0907  0.3592
  956MOL0     C28988   2.716  10.354   3.968 -0.5034  0.2052 -0.5445
  956MOL0     C28989   2.647  10.259   3.976 -0.6142  0.8520 -0.2181
  956MOL0     C28990   3.312  10.183   3.651  0.1265 -0.6054  0.6109
  956MOL0     C28991   3.432  10.146   3.594  0.5410  0.0019  0.2854
  956MOL0     C28992   3.445  10.137   3.443  0.4184  0.1380  0.3902
  956MOL0     H28993   3.942   9.937   3.806  1.3325  0.3171 -0.3031
  956MOL0     H28994   4.145   9.857   3.725 -0.7092  0.5289  0.8763
  956MOL0     H28995   4.328  10.065   3.346 -0.4842  0.4156  0.2908
  956MOL0     H28996   4.369  10.164   3.489  0.0947  0.0019  0.0241
  956MOL0     H28997   4.520   9.912   3.405  0.9713 -0.3775  0.2347
  956MOL0     H28998   4.537   9.978   3.557  2.2405  0.6946 -1.1107
  956MOL0     H28999   4.615  10.205   3.434 -0.5084 -1.2641  2.4009
  956MOL0     H29000   4.622  10.100   3.288 -0.7099  0.0426 -0.7241
  956MOL0     H29001   4.748  10.026   3.543  0.1493 -1.5967 -0.8313
  956MOL0     H29002   4.761   9.945   3.384 -2.2357 -2.3310  0.5894
  956MOL0     H29003   4.861  10.179   3.299 -0.2769  2.6334  1.3465
  956MOL0     H29004   4.858  10.230   3.463  0.6166  0.8591 -1.0984
  956MOL0     H29005   5.017  10.041   3.544  0.5972 -0.7222 -0.4624
  956MOL0     H29006   5.001   9.976   3.376 -0.3323 -1.0972  0.4053
  956MOL0     H29007   5.205  10.128   3.451  0.3334  2.3096  0.4679
  956MOL0     H29008   5.097  10.261   3.433  1.2403  0.0959 -0.1834
  956MOL0     H29009   5.204  10.060   3.230 -1.3296 -0.7505 -3.3418
  956MOL0     H29010   5.048  10.127   3.199  0.0533  4.2552 -1.0640
  956MOL0     H29011   5.398  10.316   3.288  1.2172  1.6497 -0.5887
  956MOL0     H29012   5.390  10.647   3.132  0.4360 -0.8375 -1.9693
  956MOL0     H29013   5.488  10.541   3.243  2.9659  1.0165 -0.7417
  956MOL0     H29014   5.478  10.539   2.947 -1.0135  0.5220  0.1761
  956MOL0     H29015   5.621  10.585   3.040 -0.5463  1.6310 -1.0543
  956MOL0     H29016   5.484  10.314   3.019 -0.1038  0.6918  1.4864
  956MOL0     H29017   5.618  10.334   3.134 -1.8864 -0.3510  1.6637
  956MOL0     H29018   5.654  10.395   2.830  2.5455 -1.8777 -0.0601
  956MOL0     H29019   5.673  10.234   2.918 -0.3243 -0.9164  0.2319
  956MOL0     H29020   6.070  10.475   2.931  4.1763 -0.0182 -1.0203
  956MOL0     H29021   6.251  10.388   2.811  0.0236  0.8040 -1.7634
  956MOL0     H29022   6.410   9.980   2.618 -0.5627  0.0483 -0.3348
  956MOL0     H29023   6.634   9.878   2.569  0.6312  0.5009  1.5493
  956MOL0     H29024   6.969  10.162   2.391  0.2094 -2.3061 -1.9197
  956MOL0     H29025   6.988  10.170   2.568 -0.5286 -2.0284  0.1615
  956MOL0     H29026   7.098   9.974   2.596 -0.8780 -0.0050 -0.3363
  956MOL0     H29027   7.062   9.934   2.424 -4.8785  0.5631  0.9114
  956MOL0     H29028   7.216  10.151   2.367  0.1422 -0.9348 -0.5369
  956MOL0     H29029   7.251  10.158   2.541  1.6776 -0.2380 -0.1245
  956MOL0     H29030   7.314   9.938   2.351 -3.6146 -0.1907  0.1266
  956MOL0     H29031   7.319   9.918   2.536  0.8640  2.0770  1.2245
  956MOL0     H29032   7.469  10.128   2.542  1.9121  0.8953 -0.6968
  956MOL0     H29033   7.468  10.114   2.367  2.2025 -2.3417 -0.5678
  956MOL0     H29034   7.580   9.904   2.564 -0.6011 -0.4052 -1.0804
  956MOL0     H29035   7.559   9.883   2.399 -2.2434 -0.1490 -0.0276
  956MOL0     H29036   7.799   9.949   2.417 -2.0312 -1.9648 -0.2186
  956MOL0     H29037   7.749  10.070   2.532  3.4189  1.1285 -0.9327
  956MOL0     H29038   7.693  10.072   2.232  2.5267  0.4945 -1.2983
  956MOL0     H29039   7.663  10.211   2.343 -1.4827  0.4850 -2.6116
  956MOL0     H29040   6.791  10.284   2.506 -0.5144  0.2166  0.0116
  956MOL0     H29041   6.569  10.376   2.556 -3.2503 -0.1060  0.6165
  956MOL0     H29042   5.979  10.102   2.615  1.3457 -3.1933  3.7777
  956MOL0     H29043   5.801  10.200   2.750  0.7283 -0.1521 -0.5609
  956MOL0     H29044   4.129  10.140   3.395 -0.3624  2.3200  0.8538
  956MOL0     H29045   3.906  10.206   3.481  0.7037  0.8523  1.1925
  956MOL0     H29046   3.624  10.118   3.879  1.3122  0.2988 -0.9150
  956MOL0     H29047   3.417  10.208   3.971 -1.0139 -0.7933  0.0487
  956MOL0     H29048   3.218  10.428   3.900  3.6363  0.0223  2.1963
  956MOL0     H29049   3.230  10.297   4.015  1.6911  0.6773 -0.2565
  956MOL0     H29050   3.038  10.405   4.088  0.1132  0.7688 -0.1139
  956MOL0     H29051   2.994  10.260   4.003  1.0726 -0.7978  1.9048
  956MOL0     H29052   2.929  10.375   3.800  0.1255 -0.5529  0.3822
  956MOL0     H29053   2.992  10.528   3.856 -0.1510  0.7732  3.8198
  956MOL0     H29054   2.802  10.541   4.024  0.3323  1.4928 -0.9213
  956MOL0     H29055   2.740  10.531   3.863 -0.7691  0.7779  1.3563
  956MOL0     H29056   2.580  10.177   3.991 -1.0107  1.2633  0.3314
  956MOL0     H29057   3.238  10.199   3.574  0.0254 -3.3538  0.0344
  956MOL0     H29058   3.362  10.179   3.386  2.4827  2.0927 -1.3557
  956MOL0     H29059   3.533  10.195   3.413  0.0471  0.7163  0.4019
  956MOL0     H29060   3.462  10.034   3.411 -1.2206 -0.8931  2.5438
  957MOL0     O29061   0.555   3.869   6.795  0.1537  0.2903  0.1923
  957MOL0     C29062   0.513   3.823   6.688  0.1297 -0.0359  0.1055
  957MOL0     O29063   0.594   3.792   6.576 -0.2658 -0.1686 -0.4345
  957MOL0     C29064   0.730   3.792   6.592 -0.6447 -0.0740  0.4779
  957MOL0     C29065   0.806   3.893   6.661 -0.2251 -0.2292  0.2459
  957MOL0     C29066   0.937   3.878   6.695  0.4216  0.7313 -1.9417
  957MOL0     C29067   1.008   3.767   6.650 -0.0372 -0.2697  0.2465
  957MOL0     O29068   1.137   3.750   6.670 -0.4760  0.0465  0.1142
  957MOL0     C29069   1.210   3.845   6.758  1.0926  0.7545  0.4825
  957MOL0     C29070   1.354   3.803   6.789  0.2718 -0.8018  0.6880
  957MOL0     C29071   1.450   3.807   6.663  1.0708  0.0420  0.2180
  957MOL0     C29072   1.542   3.686   6.684 -0.5694 -0.1924  0.4849
  957MOL0     C29073   1.664   3.701   6.591 -0.2319  0.5737 -0.3163
  957MOL0     C29074   1.761   3.580   6.608  0.5632 -0.4693 -0.0477
  957MOL0     C29075   1.894   3.603   6.538 -0.5868 -0.3603  0.5575
  957MOL0     C29076   1.967   3.471   6.513 -0.2530 -0.3716 -0.0840
  957MOL0     N29077   2.091   3.493   6.444 -0.9984  0.1555 -0.6971
  957MOL0     C29078   2.206   3.478   6.516 -0.8774  0.7006  0.5843
  957MOL0     C29079   2.302   3.469   6.422 -0.5468 -0.5555 -0.6605
  957MOL0     C29080   2.452   3.463   6.446 -0.0533  0.0559 -1.1758
  957MOL0     C29081   2.494   3.535   6.577  0.6655  0.3994 -0.0309
  957MOL0     C29082   2.644   3.519   6.621  0.1200 -0.5804  0.4393
  957MOL0     C29083   2.759   3.542   6.519  0.4313  0.6458 -0.2276
  957MOL0     O29084   2.884   3.495   6.565  0.2216  1.2008 -0.4483
  957MOL0     C29085   2.993   3.507   6.476 -0.9298  0.3110 -0.2807
  957MOL0     C29086   3.114   3.453   6.525  0.4303  0.0777  0.6185
  957MOL0     C29087   3.230   3.464   6.446  0.0158 -0.6429 -0.3839
  957MOL0     C29088   3.237   3.530   6.324  0.5826  0.3047 -0.5421
  957MOL0     C29089   3.368   3.545   6.257  0.4487 -0.4009  0.4275
  957MOL0     O29090   3.478   3.482   6.304  0.3851 -0.1678 -0.0072
  957MOL0     C29091   3.606   3.523   6.259 -0.6814 -0.7012 -0.0344
  957MOL0     C29092   3.679   3.435   6.176 -0.2281  0.2901  0.1158
  957MOL0     C29093   3.811   3.478   6.136  0.3849  0.3769 -0.8718
  957MOL0     C29094   3.881   3.584   6.194  0.7806  0.5770  0.5410
  957MOL0     O29095   3.992   3.634   6.132 -0.4740  0.3086  0.3605
  957MOL0     C29096   4.043   3.762   6.176  0.4921 -0.1978 -0.6165
  957MOL0     C29097   4.162   3.790   6.092 -0.9786 -0.3783 -0.5461
  957MOL0     C29098   4.286   3.728   6.169 -0.5390 -0.1735  0.1519
  957MOL0     C29099   4.333   3.818   6.278  0.2999  0.5129 -0.1911
  957MOL0     C29100   4.446   3.746   6.348  1.0180  0.8268  0.3439
  957MOL0     C29101   4.508   3.825   6.464 -0.5318  0.0749 -0.4844
  957MOL0     C29102   4.587   3.726   6.565 -0.2720 -0.8164 -0.7523
  957MOL0     C29103   4.730   3.682   6.531  0.4522  0.6487 -0.0776
  957MOL0    Cl29104   4.717   3.569   6.390 -0.2476  0.3449 -0.2237
  957MOL0     C29105   3.805   3.660   6.292 -0.8497  0.4038 -0.1546
  957MOL0     C29106   3.671   3.635   6.325 -0.8102 -0.0620 -1.1194
  957MOL0     O29107   3.366   3.626   6.164  0.3101 -0.6798  0.2706
  957MOL0     C29108   3.110   3.564   6.277 -0.2494 -0.7279  0.5694
  957MOL0     C29109   2.990   3.562   6.350 -0.3258  0.2752 -0.2495
  957MOL0     N29110   2.241   3.473   6.294 -0.1157 -0.0165  0.4147
  957MOL0     N29111   2.115   3.478   6.314 -0.2479  0.2041  0.2156
  957MOL0     C29112   0.941   3.680   6.556  0.2552  0.1034 -0.0374
  957MOL0     C29113   0.804   3.689   6.530  0.1441 -0.0951 -0.9406
  957MOL0     C29114   0.366   3.835   6.660  0.6440 -0.3270 -0.5768
  957MOL0     C29115   0.323   3.830   6.523  0.4572  0.6016 -0.1905
  957MOL0     C29116   0.184   3.811   6.493 -0.8141  0.2086  0.3227
  957MOL0     C29117   0.084   3.808   6.597 -0.5198  0.4889  1.3021
  957MOL0     O29118  -0.051   3.803   6.563 -0.1255  0.4082 -0.0305
  957MOL0     C29119  -0.146   3.828   6.670  1.0547 -0.8774  0.0347
  957MOL0     C29120  -0.280   3.831   6.600 -0.4483 -0.8869 -0.0596
  957MOL0     C29121  -0.392   3.824   6.711 -0.7513 -0.5710  0.1904
  957MOL0     C29122  -0.509   3.919   6.672 -0.0654 -0.3156 -0.5857
  957MOL0     C29123  -0.561   3.880   6.541  0.3185 -0.0738 -0.8208
  957MOL0     C29124  -0.586   3.863   6.428  0.2522 -1.0343 -0.2185
  957MOL0     C29125   0.138   3.809   6.724  0.7182 -0.5312 -0.5727
  957MOL0     C29126   0.267   3.830   6.763 -1.0994 -0.0014  0.6429
  957MOL0     C29127   0.297   3.846   6.907  0.1160  0.3395  0.1162
  957MOL0     H29128   0.748   3.979   6.693 -0.5899 -0.6907  0.8484
  957MOL0     H29129   0.976   3.947   6.769  0.2293 -2.0074  0.9274
  957MOL0     H29130   1.212   3.944   6.710 -0.7591 -0.0826 -1.4720
  957MOL0     H29131   1.162   3.837   6.856  1.2849 -3.0327  0.4133
  957MOL0     H29132   1.340   3.703   6.832  3.5708  0.0395  4.3483
  957MOL0     H29133   1.393   3.867   6.870  2.2027 -0.1617 -0.6721
  957MOL0     H29134   1.505   3.901   6.667  1.3916 -0.1298 -0.1442
  957MOL0     H29135   1.393   3.792   6.571 -0.6323  2.0699  0.8671
  957MOL0     H29136   1.581   3.688   6.786  1.0894 -2.7222  0.0201
  957MOL0     H29137   1.495   3.589   6.663 -0.1741 -0.2321 -0.2563
  957MOL0     H29138   1.634   3.703   6.486  1.0146  1.4442 -0.6781
  957MOL0     H29139   1.706   3.799   6.612  1.6382 -0.3481  0.5280
  957MOL0     H29140   1.775   3.558   6.714 -0.8022 -0.2828  0.1923
  957MOL0     H29141   1.720   3.488   6.565  2.4254 -1.1830 -0.3567
  957MOL0     H29142   1.965   3.662   6.596  2.6164 -1.6437 -1.7776
  957MOL0     H29143   1.887   3.658   6.444 -0.3348  0.0135  0.7552
  957MOL0     H29144   1.986   3.411   6.603 -0.8369 -1.4876 -0.6803
  957MOL0     H29145   1.918   3.415   6.433 -0.4219  1.6711 -1.4678
  957MOL0     H29146   2.228   3.459   6.620 -0.3650 -2.0233  0.0535
  957MOL0     H29147   2.477   3.357   6.454 -1.4565 -0.3187 -1.5038
  957MOL0     H29148   2.510   3.500   6.361  0.2262 -1.4276 -1.6538
  957MOL0     H29149   2.479   3.642   6.562 -0.2852  0.0925 -1.5259
  957MOL0     H29150   2.433   3.504   6.663  0.8837  2.7650  1.0552
  957MOL0     H29151   2.649   3.414   6.649 -1.5926 -0.9809 -0.6538
  957MOL0     H29152   2.663   3.591   6.701  1.1261 -0.1622 -0.1488
  957MOL0     H29153   2.769   3.648   6.494 -0.8549  1.0701  0.9532
  957MOL0     H29154   2.733   3.495   6.423  0.1015  1.5248 -0.5754
  957MOL0     H29155   3.129   3.407   6.622  3.3648  1.5536  0.9717
  957MOL0     H29156   3.317   3.415   6.488 -1.3217 -1.7782  1.2019
  957MOL0     H29157   3.623   3.358   6.123 -0.6697  1.0229 -0.5109
  957MOL0     H29158   3.864   3.435   6.051  1.5825 -0.7424  0.3882
  957MOL0     H29159   3.966   3.834   6.146  2.6378  2.4965 -0.0964
  957MOL0     H29160   4.050   3.762   6.285 -1.2063 -0.2714 -0.4784
  957MOL0     H29161   4.152   3.748   5.992 -1.8728  0.4505 -0.8153
  957MOL0     H29162   4.181   3.896   6.071  0.8797 -0.3949  0.8077
  957MOL0     H29163   4.267   3.624   6.194 -2.8775 -0.3794 -2.1082
  957MOL0     H29164   4.365   3.721   6.093 -0.9923  2.0834 -0.6017
  957MOL0     H29165   4.257   3.829   6.355 -0.5395 -1.8831 -0.5915
  957MOL0     H29166   4.375   3.912   6.242 -1.1239  0.5013 -2.0107
  957MOL0     H29167   4.529   3.708   6.289  0.4100 -2.7077  1.4728
  957MOL0     H29168   4.400   3.656   6.392  2.4061 -0.4934 -0.7899
  957MOL0     H29169   4.570   3.907   6.427 -1.0667  0.3580 -0.7621
  957MOL0     H29170   4.430   3.879   6.518  0.7748 -1.2580  3.0587
  957MOL0     H29171   4.532   3.634   6.586  2.3534 -1.8269  2.7037
  957MOL0     H29172   4.595   3.784   6.657 -3.8621 -2.4216  0.7484
  957MOL0     H29173   4.796   3.766   6.510 -3.0278  3.8661  0.6281
  957MOL0     H29174   4.770   3.628   6.618  2.1547  1.6327 -0.2091
  957MOL0     H29175   3.850   3.738   6.353  0.6121  0.4234 -1.2116
  957MOL0     H29176   3.613   3.697   6.393  1.3724  1.2614 -0.3735
  957MOL0     H29177   3.114   3.603   6.176  3.4171  0.4884  1.0576
  957MOL0     H29178   2.894   3.605   6.324 -1.1897 -1.4302 -0.0748
  957MOL0     H29179   0.997   3.601   6.509 -2.2422 -1.0669 -1.2458
  957MOL0     H29180   0.749   3.631   6.456 -1.3733  1.5369 -1.1407
  957MOL0     H29181   0.393   3.831   6.441  2.1706  1.5481  1.2067
  957MOL0     H29182   0.159   3.822   6.388  1.4529  0.0512 -0.2858
  957MOL0     H29183  -0.122   3.926   6.710 -0.3643 -0.2711 -0.5364
  957MOL0     H29184  -0.131   3.744   6.738  3.1244 -0.4132  0.2048
  957MOL0     H29185  -0.287   3.745   6.533 -3.4688 -0.9142  0.1350
  957MOL0     H29186  -0.281   3.926   6.545 -1.0401 -0.8146  0.0624
  957MOL0     H29187  -0.354   3.857   6.808 -0.1602  1.0681 -0.5613
  957MOL0     H29188  -0.416   3.721   6.737  0.0292 -0.6527  0.6239
  957MOL0     H29189  -0.583   3.905   6.751 -1.0010  2.0050 -0.9744
  957MOL0     H29190  -0.466   4.020   6.673  1.1275 -0.7878 -1.1308
  957MOL0     H29191  -0.610   3.858   6.324 -0.2923  2.5278 -0.4062
  957MOL0     H29192   0.068   3.802   6.807  1.8052 -1.1648  0.3197
  957MOL0     H29193   0.209   3.829   6.970 -0.5743 -0.3019 -0.9736
  957MOL0     H29194   0.378   3.782   6.942 -1.9783 -1.6225  1.7345
  957MOL0     H29195   0.325   3.951   6.915 -0.7913  0.8651 -2.4353
  958MOL0     O29196   4.104   4.474   9.640 -0.0703 -0.0326 -0.6898
  958MOL0     C29197   4.138   4.357   9.633 -0.3445 -0.0996 -1.0285
  958MOL0     O29198   4.246   4.310   9.556 -0.4354 -0.1670  0.5605
  958MOL0     C29199   4.324   4.400   9.481  0.1107  0.6412  0.2162
  958MOL0     C29200   4.467   4.383   9.490 -0.1481 -0.4594  0.3129
  958MOL0     C29201   4.550   4.471   9.425 -0.1162 -0.0965 -0.0615
  958MOL0     C29202   4.500   4.561   9.326 -0.8746 -0.9976 -0.0184
  958MOL0     O29203   4.573   4.649   9.244 -0.1937  0.5372 -0.3239
  958MOL0     C29204   4.713   4.655   9.271 -0.5776  0.3954  0.1702
  958MOL0     C29205   4.775   4.766   9.189  0.3078  0.0736  0.1911
  958MOL0     C29206   4.925   4.800   9.229  0.3194 -0.0587  0.0455
  958MOL0     C29207   4.945   4.840   9.376 -0.5286 -0.0883  0.8575
  958MOL0     C29208   5.095   4.854   9.413 -0.2606 -0.8493 -0.2105
  958MOL0     C29209   5.155   4.990   9.383 -0.6406 -0.7220 -0.6529
  958MOL0     C29210   5.290   5.041   9.448 -0.0997  0.3327 -0.7024
  958MOL0     C29211   5.415   4.968   9.395  0.1290  0.4484  0.2317
  958MOL0     N29212   5.540   5.008   9.462  0.1505 -0.8656  0.5531
  958MOL0     C29213   5.615   5.122   9.439  0.0563 -0.2682 -0.6407
  958MOL0     C29214   5.719   5.119   9.530 -0.5464  0.0683  0.8516
  958MOL0     C29215   5.836   5.219   9.538  0.9823  0.0342 -0.0986
  958MOL0     C29216   5.902   5.213   9.401 -0.1712 -0.1092  0.1770
  958MOL0     C29217   5.932   5.077   9.342  0.3540  0.3208  0.1669
  958MOL0     C29218   6.058   5.005   9.398 -0.4376 -0.3387 -0.3653
  958MOL0     O29219   6.175   5.071   9.349  0.7328  0.3014 -0.1661
  958MOL0     C29220   6.295   5.020   9.378 -0.4051 -0.0002 -0.0104
  958MOL0     C29221   6.331   4.879   9.389  0.8271  0.2060 -0.7199
  958MOL0     C29222   6.461   4.845   9.420  0.6592 -0.6541  1.1418
  958MOL0     C29223   6.564   4.948   9.432 -0.1386  0.7272 -0.4995
  958MOL0     C29224   6.709   4.927   9.460  0.9807  0.5054  0.0419
  958MOL0     O29225   6.796   5.029   9.443  0.3230  0.6183  0.3572
  958MOL0     C29226   6.925   5.018   9.491  0.8346 -1.5046 -0.5809
  958MOL0     C29227   7.016   4.926   9.442 -0.3998 -0.2739 -0.5550
  958MOL0     C29228   7.150   4.951   9.488 -0.4157  0.5698  0.0909
  958MOL0     C29229   7.178   5.055   9.580 -0.8826  0.5260  0.1452
  958MOL0     O29230   7.304   5.083   9.629  0.4993  0.6808 -0.1707
  958MOL0     C29231   7.382   4.985   9.697  0.3075 -0.5902  0.1126
  958MOL0     C29232   7.448   5.047   9.819 -0.6299 -0.6489 -0.0332
  958MOL0     C29233   7.540   4.944   9.894  0.3155 -0.5815 -0.1796
  958MOL0     C29234   7.681   4.932   9.831  0.0598  0.1246  0.0365
  958MOL0     C29235   7.785   5.031   9.880 -0.1172  0.5772 -0.2564
  958MOL0     C29236   7.932   4.994   9.855 -0.2315 -0.2119  0.5756
  958MOL0     C29237   7.967   4.855   9.903  0.5618  1.0845  0.4360
  958MOL0     C29238   8.107   4.862   9.960 -0.0679 -0.8457 -0.8890
  958MOL0    Cl29239   8.159   4.700  10.017  0.7265  0.0018  0.1733
  958MOL0     C29240   7.078   5.145   9.627 -0.0285  0.1117  0.4081
  958MOL0     C29241   6.953   5.120   9.584 -0.6457  0.4899  0.1821
  958MOL0     O29242   6.730   4.819   9.510  0.2450 -0.0261 -0.1870
  958MOL0     C29243   6.520   5.082   9.413  0.6174 -0.0273  0.2560
  958MOL0     C29244   6.390   5.121   9.401  0.0645  0.7091 -1.3211
  958MOL0     N29245   5.703   5.004   9.604 -0.3196  0.7211 -0.2298
  958MOL0     N29246   5.607   4.938   9.551  0.1275  0.7907 -0.3787
  958MOL0     C29247   4.359   4.550   9.304 -0.6128 -1.0974 -0.1024
  958MOL0     C29248   4.276   4.479   9.383  0.4401  0.4158  0.2944
  958MOL0     C29249   4.070   4.253   9.715  0.1710  0.3224 -0.0990
  958MOL0     C29250   4.142   4.137   9.747 -0.0590  0.0898  0.0501
  958MOL0     C29251   4.091   4.039   9.826 -0.8548  0.0511  0.0549
  958MOL0     C29252   3.956   4.040   9.867 -0.6784 -0.4494 -0.3881
  958MOL0     O29253   3.905   3.932   9.932  0.1217 -0.3577  0.3099
  958MOL0     C29254   3.924   3.813   9.871 -0.2779 -0.1610 -0.2225
  958MOL0     C29255   3.829   3.703   9.928 -0.1810  0.1897  0.6860
  958MOL0     C29256   3.674   3.723   9.885  0.0396  0.3223 -0.2028
  958MOL0     C29257   3.642   3.683   9.740  0.4794 -0.1530  0.3084
  958MOL0     C29258   3.690   3.789   9.646 -1.0061  0.2525 -0.2646
  958MOL0     C29259   3.733   3.868   9.575  0.6658 -0.3625 -0.3634
  958MOL0     C29260   3.873   4.150   9.827 -0.2435 -0.3218  0.2343
  958MOL0     C29261   3.933   4.255   9.753 -0.0552  0.9518 -0.4310
  958MOL0     C29262   3.855   4.378   9.724  0.2722  1.0459 -0.4470
  958MOL0     H29263   4.504   4.305   9.556  0.6448 -0.7284 -0.4345
  958MOL0     H29264   4.651   4.463   9.462 -0.6723 -1.3005  1.2816
  958MOL0     H29265   4.734   4.676   9.376  0.7699  0.3576 -0.0816
  958MOL0     H29266   4.754   4.560   9.235  0.8441  0.9388  0.3046
  958MOL0     H29267   4.714   4.857   9.199 -0.3166 -0.4821  1.6583
  958MOL0     H29268   4.767   4.737   9.084 -0.8559  2.3069 -0.3920
  958MOL0     H29269   4.963   4.878   9.163 -1.7255  0.0769 -1.0514
  958MOL0     H29270   4.980   4.706   9.217  1.2851 -0.0973  3.5334
  958MOL0     H29271   4.891   4.930   9.406  1.1896  1.0557  0.6318
  958MOL0     H29272   4.902   4.771   9.450  1.6237  0.7947  3.0510
  958MOL0     H29273   5.102   4.847   9.522 -0.4835 -1.0913 -0.2108
  958MOL0     H29274   5.152   4.771   9.369  2.2133  0.0624  1.0899
  958MOL0     H29275   5.165   4.995   9.274  0.9019 -1.2628 -0.5474
  958MOL0     H29276   5.079   5.063   9.413  2.2734  1.6741  1.4888
  958MOL0     H29277   5.288   5.021   9.555 -1.2008 -1.2175 -0.9847
  958MOL0     H29278   5.308   5.148   9.433  3.2308 -0.2346 -1.6043
  958MOL0     H29279   5.403   4.860   9.406  1.7810  0.2482  0.2812
  958MOL0     H29280   5.430   4.983   9.287 -1.9866 -1.2651 -0.3850
  958MOL0     H29281   5.595   5.203   9.369 -1.3558 -0.2515 -0.2558
  958MOL0     H29282   5.810   5.318   9.574  1.9409  0.4885 -0.6071
  958MOL0     H29283   5.913   5.183   9.607  1.2453 -2.4465 -1.5464
  958MOL0     H29284   5.834   5.265   9.333  1.8181  1.8424 -0.4416
  958MOL0     H29285   6.002   5.258   9.398  0.5544 -1.7127 -1.6093
  958MOL0     H29286   5.945   5.080   9.233  4.3421 -0.0697  0.4923
  958MOL0     H29287   5.854   5.000   9.346 -0.4115  0.8874 -2.1421
  958MOL0     H29288   6.043   4.902   9.363 -0.7026  0.0610 -1.5014
  958MOL0     H29289   6.056   5.009   9.507 -0.5314 -1.1791 -0.3305
  958MOL0     H29290   6.251   4.805   9.384  0.4464  0.6626 -1.5220
  958MOL0     H29291   6.492   4.743   9.441 -0.3427 -1.0427  0.7991
  958MOL0     H29292   6.984   4.862   9.361  0.3815 -0.6798 -0.5528
  958MOL0     H29293   7.223   4.884   9.444 -0.4496  0.5645  0.0408
  958MOL0     H29294   7.321   4.902   9.734  1.8143 -2.8510 -2.1040
  958MOL0     H29295   7.463   4.945   9.635  2.2409  2.2553  0.5996
  958MOL0     H29296   7.520   5.125   9.792  0.3274 -1.2911  0.6050
  958MOL0     H29297   7.372   5.095   9.883 -1.8837 -0.9586 -1.2525
  958MOL0     H29298   7.545   4.974   9.999 -1.3119 -1.6938  0.2540
  958MOL0     H29299   7.487   4.849   9.883  1.2453 -0.9728 -1.6744
  958MOL0     H29300   7.666   4.949   9.724  3.3717  1.7213 -0.2954
  958MOL0     H29301   7.709   4.827   9.845 -0.0667  0.2598  1.4439
  958MOL0     H29302   7.777   5.035   9.989  1.3578  1.6772 -0.1552
  958MOL0     H29303   7.748   5.127   9.843 -1.8621  0.0077 -0.0837
  958MOL0     H29304   7.952   5.000   9.748  1.2705  0.3825  0.8709
  958MOL0     H29305   8.000   5.065   9.902 -2.1757  0.8269  1.9755
  958MOL0     H29306   7.964   4.797   9.811  2.0246  0.0799  0.9703
  958MOL0     H29307   7.889   4.826   9.974 -0.8650  2.0674 -0.6724
  958MOL0     H29308   8.179   4.906   9.891  0.0075 -1.8599 -1.4799
  958MOL0     H29309   8.105   4.934  10.043 -0.2111 -0.1700 -1.4720
  958MOL0     H29310   7.092   5.241   9.676 -0.4383  0.2871  0.1827
  958MOL0     H29311   6.887   5.202   9.609 -0.6359  1.9472 -3.8663
  958MOL0     H29312   6.581   5.172   9.420 -2.8800  2.6993 -1.3967
  958MOL0     H29313   6.356   5.224   9.395 -0.2490  0.6856 -0.1772
  958MOL0     H29314   4.327   4.617   9.225  2.6706  0.6109 -0.1554
  958MOL0     H29315   4.170   4.488   9.361  0.9868  0.6906 -2.5776
  958MOL0     H29316   4.245   4.124   9.714 -0.4436  0.4397 -1.3474
  958MOL0     H29317   4.148   3.953   9.857  0.1857  0.8026  0.2686
  958MOL0     H29318   4.028   3.780   9.879  0.2702  1.6471  1.0170
  958MOL0     H29319   3.901   3.821   9.765 -2.0400  1.1447  0.2110
  958MOL0     H29320   3.848   3.696  10.035 -0.1906  1.2549  0.7669
  958MOL0     H29321   3.863   3.610   9.881 -1.3050  1.2163 -2.4642
  958MOL0     H29322   3.652   3.830   9.894 -0.1908  0.1484  1.7336
  958MOL0     H29323   3.606   3.666   9.948 -1.1435  2.3048  0.3930
  958MOL0     H29324   3.677   3.581   9.722 -0.8553 -0.4892 -0.5778
  958MOL0     H29325   3.533   3.676   9.728  0.2218  0.3940  2.0878
  958MOL0     H29326   3.767   3.931   9.496 -0.9868  1.0487  0.0146
  958MOL0     H29327   3.769   4.147   9.856 -0.9724 -2.0306 -2.2738
  958MOL0     H29328   3.746   4.366   9.730  0.3760 -0.9302 -1.4189
  958MOL0     H29329   3.889   4.458   9.790 -1.5388  2.3654 -1.0255
  958MOL0     H29330   3.861   4.412   9.620 -1.5632 -0.2471 -1.0445
  959MOL0     O29331   5.808   0.004   4.407  0.0517  0.2271  0.1809
  959MOL0     C29332   5.725   0.025   4.494  0.3248 -0.5192 -0.3386
  959MOL0     O29333   5.743   0.104   4.604 -0.2790  0.6307 -0.2482
  959MOL0     C29334   5.876   0.123   4.638 -0.2339 -0.3098 -0.6931
  959MOL0     C29335   5.939   0.045   4.735  0.5300 -0.0821 -0.2260
  959MOL0     C29336   6.071   0.053   4.774 -0.8413 -0.4792 -0.2828
  959MOL0     C29337   6.145   0.155   4.720  0.0292  0.2563  0.3347
  959MOL0     O29338   6.276   0.138   4.747 -0.3086 -0.0410  0.7652
  959MOL0     C29339   6.378   0.234   4.699 -0.7180 -0.2432 -0.9624
  959MOL0     C29340   6.490   0.242   4.812 -0.3302 -0.2972 -0.5278
  959MOL0     C29341   6.631   0.179   4.795  0.4119  0.1559 -0.4879
  959MOL0     C29342   6.720   0.246   4.686 -0.3923  0.3562  0.3768
  959MOL0     C29343   6.834   0.153   4.648 -1.0239  0.8614 -0.3501
  959MOL0     C29344   6.926   0.106   4.761 -0.1870  0.2145 -0.7508
  959MOL0     C29345   6.988   0.217   4.841 -0.5457 -0.7618 -1.1859
  959MOL0     C29346   7.089   0.307   4.770  0.9038  0.1770 -0.6092
  959MOL0     N29347   7.225   0.251   4.766 -0.0494 -0.0534  0.1150
  959MOL0     C29348   7.311   0.242   4.879  1.1264 -0.8227  0.9767
  959MOL0     C29349   7.405   0.153   4.844 -0.1466 -0.0456 -0.1232
  959MOL0     C29350   7.520   0.104   4.924 -0.8475  0.2073 -0.3395
  959MOL0     C29351   7.631   0.109   4.821  0.5471  0.0440  0.0719
  959MOL0     C29352   7.698   0.245   4.806  0.3267  0.1914  1.1411
  959MOL0     C29353   7.811   0.248   4.703  0.6716  0.4938 -0.1168
  959MOL0     O29354   7.932   0.221   4.770 -0.9899  0.3801  0.5471
  959MOL0     C29355   8.053   0.253   4.709 -0.3780 -0.6552 -0.0266
  959MOL0     C29356   8.081   0.248   4.569  0.0860 -0.0598  0.2213
  959MOL0     C29357   8.214   0.273   4.520  0.1050  0.1876 -0.2793
  959MOL0     C29358   8.317   0.307   4.608  0.8809 -0.0033 -0.4142
  959MOL0     C29359   8.445   0.355   4.563  0.0035 -0.7723  0.3981
  959MOL0     O29360   8.524   0.409   4.656 -1.0365  0.4356 -0.0250
  959MOL0     C29361   8.657   0.425   4.631 -0.6046  0.1415 -0.4536
  959MOL0     C29362   8.739   0.347   4.543 -0.0096 -0.3150  0.1258
  959MOL0     C29363   8.878   0.388   4.516  0.1376  0.3105 -0.3338
  959MOL0     C29364   8.944   0.498   4.589  0.6918  0.8389 -0.8726
  959MOL0     O29365   9.072   0.535   4.582  0.4422  0.3053  0.4558
  959MOL0     C29366   9.166   0.453   4.496 -0.0020  1.0898  0.2388
  959MOL0     C29367   9.310   0.510   4.514 -1.1889  0.2892  0.1867
  959MOL0     C29368   9.369   0.499   4.658  0.0578 -0.7031 -0.9101
  959MOL0     C29369   9.523   0.520   4.664 -0.0231 -0.2454 -0.0568
  959MOL0     C29370   9.606   0.406   4.611  0.5564  0.0890  0.5612
  959MOL0     C29371   9.752   0.446   4.593 -0.1562  0.3478  0.0868
  959MOL0     C29372   9.827   0.311   4.553 -0.0619 -0.0749  0.0640
  959MOL0     C29373   9.869   0.320   4.408  0.4872 -0.1624 -0.3164
  959MOL0    Cl29374   9.966   0.173   4.362 -0.1717  0.0909  0.0602
  959MOL0     C29375   8.857   0.570   4.679 -0.4824 -0.2921  0.0560
  959MOL0     C29376   8.724   0.534   4.693  0.4501 -0.4042  0.2116
  959MOL0     O29377   8.462   0.353   4.437 -0.1486  0.6199 -0.0677
  959MOL0     C29378   8.288   0.303   4.743  0.0138 -0.1121 -0.1037
  959MOL0     C29379   8.162   0.284   4.797 -0.0205  0.0198  0.9453
  959MOL0     N29380   7.379   0.115   4.715  0.0163  0.1735 -0.3127
  959MOL0     N29381   7.278   0.174   4.668  0.9165 -0.0127  0.0017
  959MOL0     C29382   6.097   0.242   4.613  0.2379 -1.3455  0.2858
  959MOL0     C29383   5.959   0.233   4.586  0.3368  0.2810 -0.2401
  959MOL0     C29384   5.590  -0.029   4.477  0.3569  0.1632  0.2968
  959MOL0     C29385   5.563  -0.091   4.353  0.2277  0.0837 -0.0918
  959MOL0     C29386   5.439  -0.157   4.324 -0.1696 -0.0806 -0.4008
  959MOL0     C29387   5.335  -0.154   4.422  0.2633  0.2771 -0.7150
  959MOL0     O29388   5.204  -0.200   4.401 -0.2664  0.0847  0.2141
  959MOL0     C29389   5.176  -0.304   4.292  0.5261 -0.8911  0.1235
  959MOL0     C29390   5.205  -0.443   4.353  0.9719 -0.0193 -0.1721
  959MOL0     C29391   5.085  -0.520   4.400  0.1525 -0.7568 -0.6122
  959MOL0     C29392   5.127  -0.643   4.470  0.1255 -0.7030 -0.2756
  959MOL0     C29393   5.153  -0.619   4.616  0.1654  0.4363  0.7723
  959MOL0     C29394   5.179  -0.608   4.735  0.5923 -0.1688 -0.5105
  959MOL0     C29395   5.362  -0.086   4.541 -0.4511  0.3727 -0.1430
  959MOL0     C29396   5.491  -0.038   4.578  0.4601 -0.5405 -0.2767
  959MOL0     C29397   5.496   0.041   4.714 -0.0529 -0.7784  0.0247
  959MOL0     H29398   5.875  -0.026   4.787  1.7113 -0.3951  0.8403
  959MOL0     H29399   6.125  -0.008   4.846  1.6037  2.6067  0.7446
  959MOL0     H29400   6.426   0.196   4.608 -0.5945 -1.3182 -0.4644
  959MOL0     H29401   6.343   0.337   4.689  1.0712  0.5772  0.6055
  959MOL0     H29402   6.456   0.216   4.912  0.5243 -0.3745 -0.2552
  959MOL0     H29403   6.508   0.346   4.840 -1.0764 -0.8174  2.1723
  959MOL0     H29404   6.621   0.077   4.759  0.4421  0.4562 -1.3728
  959MOL0     H29405   6.682   0.172   4.892 -2.1151 -0.6424  0.8600
  959MOL0     H29406   6.664   0.262   4.593 -0.2070 -0.5191  0.1060
  959MOL0     H29407   6.769   0.338   4.719  1.2477  0.0918 -1.1505
  959MOL0     H29408   6.796   0.056   4.615  0.8800 -0.1589  0.3147
  959MOL0     H29409   6.892   0.198   4.567  1.2645  1.0941  1.3231
  959MOL0     H29410   6.878   0.037   4.831 -1.6822  0.9345 -1.0443
  959MOL0     H29411   7.012   0.050   4.723  0.5451 -0.2764  1.4445
  959MOL0     H29412   7.041   0.160   4.918  2.4373 -0.3098 -2.7750
  959MOL0     H29413   6.907   0.274   4.888  0.0314 -0.8958  0.0263
  959MOL0     H29414   7.047   0.333   4.673 -1.3482  2.6458  0.8971
  959MOL0     H29415   7.085   0.407   4.815 -2.0566  1.0857 -2.6131
  959MOL0     H29416   7.301   0.290   4.976 -0.3657 -1.9002  1.4052
  959MOL0     H29417   7.549   0.173   5.003  1.2550  0.2249 -1.0611
  959MOL0     H29418   7.505   0.002   4.959  0.6188 -0.9894 -2.9218
  959MOL0     H29419   7.706   0.034   4.845  1.0794  0.0996 -1.3247
  959MOL0     H29420   7.607   0.077   4.719  0.1095  0.7517 -0.0536
  959MOL0     H29421   7.739   0.268   4.905  0.1410  0.1964  1.2169
  959MOL0     H29422   7.632   0.329   4.785  0.2461 -0.2605 -0.5430
  959MOL0     H29423   7.803   0.350   4.664 -0.4410  0.4947  0.0876
  959MOL0     H29424   7.791   0.174   4.624 -1.8122 -1.6812  2.3299
  959MOL0     H29425   8.008   0.245   4.489  2.8117 -1.2563 -2.4355
  959MOL0     H29426   8.220   0.276   4.412 -1.1150 -0.3310 -0.3861
  959MOL0     H29427   8.699   0.255   4.503 -1.7103  0.5429 -0.2530
  959MOL0     H29428   8.940   0.317   4.461 -0.5147 -2.5873  2.3554
  959MOL0     H29429   9.156   0.348   4.525  0.3729  0.9115 -0.2719
  959MOL0     H29430   9.131   0.459   4.393 -0.3147  1.4163  0.3625
  959MOL0     H29431   9.372   0.458   4.440 -1.2185  2.0329 -1.1288
  959MOL0     H29432   9.302   0.614   4.481  0.5982  0.4186  0.0766
  959MOL0     H29433   9.320   0.575   4.719 -0.7112 -1.1147 -0.9932
  959MOL0     H29434   9.332   0.409   4.708 -0.6010  1.0291  1.9534
  959MOL0     H29435   9.541   0.540   4.770 -2.1389  0.0713  0.3057
  959MOL0     H29436   9.547   0.617   4.618  0.7378  0.5904  1.9828
  959MOL0     H29437   9.558   0.384   4.515  1.0148  1.5775 -0.0416
  959MOL0     H29438   9.609   0.323   4.682 -0.2627 -0.8656 -0.4912
  959MOL0     H29439   9.774   0.524   4.519  1.8493  1.1942  1.4843
  959MOL0     H29440   9.777   0.479   4.694  1.4340 -0.3298 -0.0476
  959MOL0     H29441   9.767   0.220   4.561  1.6358 -1.7075 -3.4884
  959MOL0     H29442   9.918   0.289   4.610  0.9512  2.2499 -0.5277
  959MOL0     H29443   9.777   0.314   4.349 -0.7906 -0.1514  1.5698
  959MOL0     H29444   9.925   0.411   4.386 -0.5507  0.3684 -0.8599
  959MOL0     H29445   8.903   0.657   4.725  2.1479 -0.5306 -1.8708
  959MOL0     H29446   8.650   0.586   4.752  2.1671  1.0279  1.2126
  959MOL0     H29447   8.374   0.324   4.807  0.9322  0.9609 -1.6198
  959MOL0     H29448   8.156   0.298   4.905 -1.8185  0.1882  0.8484
  959MOL0     H29449   6.164   0.307   4.558  0.3126 -1.7034 -0.0455
  959MOL0     H29450   5.890   0.297   4.531  0.0688 -1.9647 -2.7287
  959MOL0     H29451   5.631  -0.099   4.269  1.1676 -0.4372  0.6942
  959MOL0     H29452   5.422  -0.193   4.223 -1.4818 -1.9991  0.4470
  959MOL0     H29453   5.215  -0.289   4.191 -2.6685  0.3094 -1.0687
  959MOL0     H29454   5.068  -0.297   4.273  0.6128 -2.1113 -0.8688
  959MOL0     H29455   5.277  -0.434   4.435 -1.1767 -1.8937  2.0623
  959MOL0     H29456   5.246  -0.500   4.270  0.6645  1.2530 -1.2354
  959MOL0     H29457   5.023  -0.546   4.314  2.1046 -1.3279 -1.9091
  959MOL0     H29458   5.029  -0.454   4.467  0.4112  1.0975 -2.1309
  959MOL0     H29459   5.052  -0.721   4.458 -2.4418  1.6321 -0.4343
  959MOL0     H29460   5.212  -0.682   4.414  0.7044  0.6649 -0.3780
  959MOL0     H29461   5.202  -0.588   4.837 -1.5585  1.2186 -0.2414
  959MOL0     H29462   5.283  -0.063   4.612 -0.0853 -1.0647  0.7682
  959MOL0     H29463   5.429  -0.001   4.790  2.9000 -1.4458  2.4372
  959MOL0     H29464   5.596   0.029   4.755 -0.5282 -1.2677  1.0845
  959MOL0     H29465   5.478   0.148   4.701  0.9187 -0.2967  2.1360
  960MOL0     O29466   4.263   4.365   5.921  0.6498 -0.4623 -0.3445
  960MOL0     C29467   4.217   4.254   5.957 -0.5639  0.2894  0.3189
  960MOL0     O29468   4.276   4.180   6.053 -0.6582  0.6551  0.1926
  960MOL0     C29469   4.373   4.220   6.140 -0.2597  0.2202  0.3404
  960MOL0     C29470   4.496   4.162   6.137 -0.0764  0.0366  0.1922
  960MOL0     C29471   4.592   4.193   6.236  0.0411 -0.5138 -0.3979
  960MOL0     C29472   4.561   4.285   6.338 -0.1021  0.9256  0.2550
  960MOL0     O29473   4.659   4.315   6.424  0.0000  0.1824  0.3597
  960MOL0     C29474   4.619   4.332   6.560  0.5979  0.0317 -0.6816
  960MOL0     C29475   4.725   4.253   6.651  0.1730 -0.0966 -0.0857
  960MOL0     C29476   4.722   4.109   6.607  0.3549 -0.6726 -0.3536
  960MOL0     C29477   4.835   4.019   6.669 -0.4269 -0.8688 -0.1546
  960MOL0     C29478   4.978   4.062   6.642 -0.2474 -0.9171 -0.3683
  960MOL0     C29479   5.011   4.096   6.496  0.1049  0.2525  0.8236
  960MOL0     C29480   5.148   4.143   6.464  0.7595 -1.3026 -0.2640
  960MOL0     C29481   5.206   4.256   6.560 -0.0754  1.1058 -0.1615
  960MOL0     N29482   5.323   4.316   6.498  0.1434 -0.0560 -0.0757
  960MOL0     C29483   5.313   4.447   6.458 -0.0733  0.7822  0.8543
  960MOL0     C29484   5.435   4.470   6.401 -0.2863 -0.2492  0.1717
  960MOL0     C29485   5.465   4.592   6.316  1.0421  0.2871 -0.4075
  960MOL0     C29486   5.605   4.658   6.352 -0.9056  0.4047 -0.4134
  960MOL0     C29487   5.673   4.708   6.228  0.6903  1.0572  0.1805
  960MOL0     C29488   5.821   4.768   6.258 -0.5118  0.7981  0.2796
  960MOL0     O29489   5.897   4.770   6.136  0.0198 -0.1403 -0.2341
  960MOL0     C29490   6.033   4.782   6.145  0.5754  0.2107  0.4341
  960MOL0     C29491   6.110   4.760   6.034  0.0300 -0.1329 -0.1526
  960MOL0     C29492   6.253   4.759   6.029  0.4469  0.0824 -0.0792
  960MOL0     C29493   6.314   4.797   6.154 -0.3717  0.1421  0.5088
  960MOL0     C29494   6.464   4.822   6.159  0.3431  0.2208  0.9621
  960MOL0     O29495   6.527   4.822   6.279  0.1248  0.5492 -0.6089
  960MOL0     C29496   6.658   4.834   6.291 -0.2545  0.3201  0.1085
  960MOL0     C29497   6.732   4.943   6.236  0.2482 -0.1110  0.8393
  960MOL0     C29498   6.867   4.951   6.237 -0.2459 -0.5760 -0.7865
  960MOL0     C29499   6.942   4.848   6.287  0.4779  1.1608  0.8006
  960MOL0     O29500   7.085   4.867   6.295  0.9318 -0.0287 -0.4463
  960MOL0     C29501   7.179   4.763   6.326  0.1260  0.0434  0.3554
  960MOL0     C29502   7.237   4.700   6.196  0.7010 -0.1236 -0.9649
  960MOL0     C29503   7.353   4.615   6.224  0.6512  0.0509 -0.2481
  960MOL0     C29504   7.488   4.686   6.213  0.5111 -0.6358 -0.5616
  960MOL0     C29505   7.611   4.600   6.196  0.5223 -0.9394  0.1542
  960MOL0     C29506   7.620   4.484   6.298 -0.3391  0.6192 -0.1444
  960MOL0     C29507   7.764   4.426   6.309 -0.0076 -0.0630  0.6149
  960MOL0     C29508   7.862   4.513   6.387  0.4341 -0.2999  0.8325
  960MOL0    Cl29509   8.013   4.428   6.399  0.3409 -0.0177  0.3276
  960MOL0     C29510   6.871   4.737   6.338  0.0429  0.4433 -0.9871
  960MOL0     C29511   6.727   4.730   6.351 -1.0058  0.5731  0.0523
  960MOL0     O29512   6.520   4.833   6.048  0.5820  0.2195  0.0202
  960MOL0     C29513   6.240   4.839   6.260  0.0441  0.7311 -0.5092
  960MOL0     C29514   6.097   4.826   6.258  0.3280 -0.7395  0.1710
  960MOL0     N29515   5.512   4.351   6.401  0.2404  0.2676 -0.4227
  960MOL0     N29516   5.448   4.261   6.475 -1.5328 -0.1748  0.7883
  960MOL0     C29517   4.434   4.349   6.339 -0.6404 -0.1544  0.3035
  960MOL0     C29518   4.338   4.316   6.243  0.1774  0.6084  1.2146
  960MOL0     C29519   4.125   4.183   5.879  1.1344 -0.8923 -0.0267
  960MOL0     C29520   4.144   4.177   5.739 -0.6116 -0.3252  0.2883
  960MOL0     C29521   4.045   4.112   5.660 -0.3048 -0.2865  0.0046
  960MOL0     C29522   3.935   4.046   5.710 -0.8049 -1.1462 -0.4600
  960MOL0     O29523   3.853   3.985   5.621 -1.0726 -1.3007 -0.1746
  960MOL0     C29524   3.715   3.954   5.647 -0.2553 -0.7600 -0.3924
  960MOL0     C29525   3.671   3.816   5.598 -0.1507  0.1069 -0.4792
  960MOL0     C29526   3.520   3.782   5.600 -0.4839  0.1787 -0.0586
  960MOL0     C29527   3.449   3.832   5.727 -0.4375 -0.6221  0.3265
  960MOL0     C29528   3.519   3.804   5.854  0.2254  0.3245  0.7862
  960MOL0     C29529   3.589   3.756   5.933  0.3995 -0.5193  0.5511
  960MOL0     C29530   3.929   4.045   5.850  0.3627  0.4752 -0.5437
  960MOL0     C29531   4.016   4.110   5.937 -0.3462 -0.5789 -0.0735
  960MOL0     C29532   3.976   4.122   6.085 -0.2404  0.6083  0.9577
  960MOL0     H29533   4.520   4.084   6.066  1.9701  0.7467  0.0213
  960MOL0     H29534   4.691   4.150   6.233 -0.1746 -1.0083 -4.1164
  960MOL0     H29535   4.619   4.441   6.574  6.0410  0.9799 -4.5495
  960MOL0     H29536   4.521   4.286   6.577  0.3106  0.9923  0.4027
  960MOL0     H29537   4.715   4.255   6.760  1.0499 -0.1013  0.0075
  960MOL0     H29538   4.820   4.303   6.629 -1.5888  1.9998 -3.8507
  960MOL0     H29539   4.710   4.091   6.500 -3.0748 -1.2300  0.0136
  960MOL0     H29540   4.626   4.077   6.649 -0.3497  1.4171 -0.2792
  960MOL0     H29541   4.826   4.021   6.778 -0.1318 -0.6751 -0.1326
  960MOL0     H29542   4.834   3.915   6.635 -2.8254 -0.2359 -2.3414
  960MOL0     H29543   5.008   4.149   6.702 -0.7616 -0.2248 -1.0897
  960MOL0     H29544   5.039   3.977   6.673 -0.7289 -0.6933  1.3087
  960MOL0     H29545   4.989   4.011   6.432  0.9751  1.0296 -0.5455
  960MOL0     H29546   4.948   4.178   6.460  0.6285 -0.4485 -1.8999
  960MOL0     H29547   5.140   4.182   6.362 -2.0556 -1.4457 -0.1715
  960MOL0     H29548   5.221   4.064   6.480 -2.2415 -3.6977  3.4396
  960MOL0     H29549   5.133   4.335   6.580  2.1569  2.9449  1.1910
  960MOL0     H29550   5.235   4.223   6.660  1.7650 -0.5414 -1.1749
  960MOL0     H29551   5.237   4.524   6.460 -0.4368  0.4653  3.7164
  960MOL0     H29552   5.454   4.563   6.211 -3.7804  0.1686 -0.0988
  960MOL0     H29553   5.396   4.676   6.333  1.4229  0.0848  2.8477
  960MOL0     H29554   5.585   4.744   6.416  1.2602  0.4312  0.3249
  960MOL0     H29555   5.672   4.590   6.405  0.8468  2.8498  0.7346
  960MOL0     H29556   5.607   4.784   6.187 -1.0253  0.7961  2.2321
  960MOL0     H29557   5.678   4.627   6.155  0.0810  0.6918  0.5242
  960MOL0     H29558   5.879   4.705   6.326  0.3487  0.7569 -0.4702
  960MOL0     H29559   5.815   4.865   6.307  4.3754  2.3087 -1.5251
  960MOL0     H29560   6.059   4.729   5.943 -0.4070  2.9965 -1.1127
  960MOL0     H29561   6.316   4.732   5.945  0.2646 -0.6066 -0.0032
  960MOL0     H29562   6.680   5.029   6.194 -0.7123 -1.4809 -0.8853
  960MOL0     H29563   6.926   5.037   6.206 -1.1195 -0.3419 -1.8688
  960MOL0     H29564   7.269   4.805   6.371  0.1824 -0.8522  1.1152
  960MOL0     H29565   7.137   4.690   6.397  1.5716  1.0372  2.3353
  960MOL0     H29566   7.160   4.641   6.145  0.1074 -2.3031  2.0978
  960MOL0     H29567   7.266   4.778   6.126 -0.0691  0.0882 -1.0550
  960MOL0     H29568   7.348   4.563   6.320 -0.4063  2.0914  0.8775
  960MOL0     H29569   7.353   4.543   6.142  2.1062 -0.0916 -0.1390
  960MOL0     H29570   7.499   4.758   6.295 -0.4736  0.7332 -1.5724
  960MOL0     H29571   7.480   4.752   6.125  0.7711 -0.7382 -0.6638
  960MOL0     H29572   7.702   4.659   6.211 -1.5325  2.5206 -0.0592
  960MOL0     H29573   7.602   4.561   6.094 -0.1396  2.3834 -1.1955
  960MOL0     H29574   7.588   4.517   6.397 -1.9408 -1.3814  0.0597
  960MOL0     H29575   7.553   4.404   6.266  0.5243  0.7125 -2.4319
  960MOL0     H29576   7.809   4.425   6.209 -2.8823  1.6361 -0.8194
  960MOL0     H29577   7.756   4.325   6.350 -1.0266 -0.5055 -0.6029
  960MOL0     H29578   7.871   4.601   6.323 -1.6555 -1.6020 -1.4445
  960MOL0     H29579   7.823   4.552   6.481 -0.0026 -0.1501  0.5938
  960MOL0     H29580   6.934   4.655   6.371 -0.2292  0.0981 -1.3062
  960MOL0     H29581   6.668   4.652   6.396 -2.7044  3.0156  2.3814
  960MOL0     H29582   6.288   4.870   6.352  1.8517 -2.5280 -0.1958
  960MOL0     H29583   6.048   4.863   6.347 -0.9479  2.0353 -1.5510
  960MOL0     H29584   4.395   4.415   6.416 -0.3924  0.5785 -0.1903
  960MOL0     H29585   4.235   4.349   6.237  0.4613  1.5926  1.5652
  960MOL0     H29586   4.226   4.222   5.684 -0.6253  0.2354  0.7083
  960MOL0     H29587   4.081   4.124   5.558 -1.7739 -0.1831 -0.5240
  960MOL0     H29588   3.647   4.026   5.602 -2.6868 -1.2897  2.1761
  960MOL0     H29589   3.698   3.970   5.754 -3.5025  1.1927 -1.0834
  960MOL0     H29590   3.724   3.734   5.648 -0.7719 -0.9748 -1.5563
  960MOL0     H29591   3.706   3.805   5.495  0.1065  1.4493 -0.5524
  960MOL0     H29592   3.517   3.673   5.595  0.7949  0.1143  0.2282
  960MOL0     H29593   3.465   3.825   5.516 -1.7541  1.1079  1.2002
  960MOL0     H29594   3.432   3.939   5.707 -1.2482 -0.8366 -0.1953
  960MOL0     H29595   3.344   3.802   5.730  0.2363 -3.5604 -1.7767
  960MOL0     H29596   3.655   3.714   6.006  3.3020  2.0262 -0.3765
  960MOL0     H29597   3.846   3.989   5.891  1.0213  1.2439  2.0037
  960MOL0     H29598   3.872   4.090   6.099 -0.7517  1.2521 -1.0860
  960MOL0     H29599   4.036   4.050   6.142 -2.2462 -1.3412  0.7552
  960MOL0     H29600   3.974   4.228   6.112 -2.5050  0.3676  1.9820
  961MOL0     O29601   0.960   8.801   6.233 -0.0231  0.2230 -0.6610
  961MOL0     C29602   1.026   8.811   6.132  0.2549 -0.6780  0.4186
  961MOL0     O29603   0.987   8.874   6.017 -0.3366  0.2382  0.1811
  961MOL0     C29604   0.848   8.881   5.995  0.0200  0.3187  0.3443
  961MOL0     C29605   0.780   9.000   5.971 -0.1539 -0.0997  0.2138
  961MOL0     C29606   0.643   9.006   5.949  0.1124  0.1814 -0.8315
  961MOL0     C29607   0.562   8.890   5.945  0.4526 -0.5861 -0.4089
  961MOL0     O29608   0.430   8.884   5.912  0.6074 -1.0422 -0.8225
  961MOL0     C29609   0.376   8.973   5.815 -1.3322  0.1684  0.5150
  961MOL0     C29610   0.223   8.971   5.808  0.1068 -0.0609  0.4984
  961MOL0     C29611   0.170   8.842   5.757  0.5281  0.5750  0.4150
  961MOL0     C29612   0.023   8.851   5.733  0.7501  0.2930  0.2109
  961MOL0     C29613  -0.040   8.710   5.697  0.3869 -0.3348  0.0877
  961MOL0     C29614  -0.189   8.724   5.667  0.1810 -1.0374  0.6431
  961MOL0     C29615  -0.209   8.761   5.515 -0.1358  0.0144 -0.0593
  961MOL0     C29616  -0.340   8.722   5.458 -0.3551 -0.2019  0.3825
  961MOL0     N29617  -0.340   8.755   5.308 -0.0663 -0.2575 -0.0227
  961MOL0     C29618  -0.362   8.880   5.265  0.5515  0.6603 -0.4521
  961MOL0     C29619  -0.370   8.871   5.129  0.5478  0.8348  0.4480
  961MOL0     C29620  -0.404   8.983   5.034  0.1020  0.8101 -0.4196
  961MOL0     C29621  -0.291   9.074   5.008  0.3145  0.1085  0.7788
  961MOL0     C29622  -0.334   9.201   4.937 -0.4434 -0.2783  0.1883
  961MOL0     C29623  -0.211   9.274   4.887 -0.5879  0.4034  0.8247
  961MOL0     O29624  -0.125   9.297   4.995 -0.3708 -0.0399  0.2732
  961MOL0     C29625   0.009   9.318   4.976 -0.3831 -0.0681 -0.0157
  961MOL0     C29626   0.104   9.264   5.072  0.2231 -0.6911 -0.5994
  961MOL0     C29627   0.239   9.294   5.073  0.0101 -0.2806 -0.2160
  961MOL0     C29628   0.289   9.358   4.957  0.2466 -0.3161  0.2582
  961MOL0     C29629   0.428   9.371   4.929 -1.2315  0.4141 -0.7582
  961MOL0     O29630   0.472   9.420   4.809 -0.4650 -0.1289 -0.3470
  961MOL0     C29631   0.601   9.433   4.787 -0.1754 -0.5594 -0.5397
  961MOL0     C29632   0.672   9.534   4.852  0.7576  0.5581  0.4764
  961MOL0     C29633   0.803   9.547   4.834 -0.0427  0.1243 -0.3005
  961MOL0     C29634   0.879   9.456   4.754 -0.4330 -0.7575 -0.1511
  961MOL0     O29635   1.012   9.465   4.726  0.4190 -0.6117  0.4625
  961MOL0     C29636   1.097   9.549   4.806  0.0424 -0.0567  0.3331
  961MOL0     C29637   1.239   9.487   4.788  0.4474  0.3947 -0.1604
  961MOL0     C29638   1.337   9.574   4.861  0.3512 -0.7854  0.2354
  961MOL0     C29639   1.321   9.553   5.012  0.2887 -0.6273  0.1203
  961MOL0     C29640   1.443   9.603   5.090  0.1979  0.1551  0.3681
  961MOL0     C29641   1.474   9.752   5.097  0.1251 -0.1788  0.3228
  961MOL0     C29642   1.616   9.761   5.154  0.1176 -0.3778  0.0915
  961MOL0     C29643   1.660   9.903   5.168 -0.8468  0.2841 -0.1315
  961MOL0    Cl29644   1.708   9.977   5.011 -0.1523  0.4176 -0.1965
  961MOL0     C29645   0.803   9.356   4.686  0.5868  1.0261  0.0607
  961MOL0     C29646   0.663   9.354   4.698 -0.4648  0.0652 -0.4119
  961MOL0     O29647   0.501   9.316   5.012  0.1602 -0.2175 -0.5752
  961MOL0     C29648   0.199   9.404   4.861  0.0274 -1.0586  0.3682
  961MOL0     C29649   0.068   9.386   4.868 -0.1415  0.4354 -0.8759
  961MOL0     N29650  -0.360   8.736   5.094 -0.1827  0.1593  0.5377
  961MOL0     N29651  -0.347   8.673   5.209 -0.0840 -0.3460  0.2771
  961MOL0     C29652   0.633   8.767   5.971 -0.2784 -0.3504 -0.4435
  961MOL0     C29653   0.773   8.762   5.993 -0.0907  0.4363  0.1096
  961MOL0     C29654   1.170   8.766   6.133 -0.6745  0.4069  0.7552
  961MOL0     C29655   1.215   8.689   6.240 -0.1338 -1.2884  0.0933
  961MOL0     C29656   1.346   8.634   6.242  0.3006 -0.1880 -0.3118
  961MOL0     C29657   1.443   8.663   6.140  0.0046 -0.1403 -0.5670
  961MOL0     O29658   1.567   8.608   6.139 -0.0104  0.6032 -0.0410
  961MOL0     C29659   1.631   8.551   6.256  0.2282  0.0541 -0.1384
  961MOL0     C29660   1.618   8.393   6.241 -0.0120 -0.5668 -0.7609
  961MOL0     C29661   1.640   8.316   6.120  0.9758  0.9464  0.2216
  961MOL0     C29662   1.764   8.364   6.053  0.1362  0.1172 -0.1356
  961MOL0     C29663   1.879   8.337   6.144  1.0289 -0.6048 -0.6764
  961MOL0     C29664   1.976   8.307   6.219  0.0986 -0.2199  0.1788
  961MOL0     C29665   1.400   8.744   6.034 -0.3770 -0.1254 -0.3439
  961MOL0     C29666   1.267   8.791   6.027 -1.1524 -0.7710 -0.0833
  961MOL0     C29667   1.246   8.880   5.902  0.3847  0.2357  0.4012
  961MOL0     H29668   0.831   9.095   5.973 -1.8076  0.8630  3.3211
  961MOL0     H29669   0.606   9.106   5.933 -1.2969 -0.1818 -0.0391
  961MOL0     H29670   0.404   9.075   5.842 -1.3359  0.9554 -2.1474
  961MOL0     H29671   0.415   8.944   5.716 -1.5435  0.2042  0.4196
  961MOL0     H29672   0.196   9.059   5.748 -1.1510  0.6746  2.0790
  961MOL0     H29673   0.177   9.011   5.899 -2.0692  0.1870 -0.6414
  961MOL0     H29674   0.188   8.764   5.832 -1.7315 -1.1326 -0.6979
  961MOL0     H29675   0.223   8.808   5.668  2.6223  0.2375  1.7203
  961MOL0     H29676  -0.027   8.895   5.820  0.0819 -1.3055  0.6765
  961MOL0     H29677   0.006   8.923   5.652  0.3132 -0.7627 -0.6718
  961MOL0     H29678   0.018   8.664   5.616  3.0720  2.0363  0.4890
  961MOL0     H29679  -0.018   8.645   5.782  0.6392 -1.3050 -0.6966
  961MOL0     H29680  -0.244   8.631   5.681  0.9352 -1.9719 -1.9080
  961MOL0     H29681  -0.234   8.805   5.725  1.7476  0.6850 -0.4166
  961MOL0     H29682  -0.143   8.713   5.443 -0.9688  1.7095 -2.0695
  961MOL0     H29683  -0.198   8.870   5.509 -1.1670  0.2356  1.4485
  961MOL0     H29684  -0.366   8.617   5.473  0.4102 -0.6931 -1.3480
  961MOL0     H29685  -0.413   8.790   5.503  1.7852  0.8092  2.5078
  961MOL0     H29686  -0.363   8.974   5.319 -1.0992  0.1141  0.5332
  961MOL0     H29687  -0.452   8.947   4.943  3.3169  0.9634 -2.3399
  961MOL0     H29688  -0.490   9.028   5.084 -1.7505 -0.2116 -2.5566
  961MOL0     H29689  -0.243   9.092   5.105  0.2113  0.8365  0.7008
  961MOL0     H29690  -0.212   9.021   4.954 -0.5580 -0.0536 -0.3699
  961MOL0     H29691  -0.395   9.257   5.008  0.0275 -0.1690  0.5130
  961MOL0     H29692  -0.389   9.180   4.844 -2.5341  0.4895  1.1948
  961MOL0     H29693  -0.237   9.369   4.841  0.4974 -0.5810 -2.0623
  961MOL0     H29694  -0.152   9.221   4.812 -0.3069 -1.6559  2.3994
  961MOL0     H29695   0.059   9.213   5.156 -0.8014  2.8496  1.1858
  961MOL0     H29696   0.302   9.244   5.145  0.7986 -1.3412 -1.6030
  961MOL0     H29697   0.620   9.605   4.916  2.7992  1.9260  0.7410
  961MOL0     H29698   0.845   9.635   4.881  1.9426  1.0093 -3.4067
  961MOL0     H29699   1.092   9.648   4.760 -1.1251 -1.0108 -1.7827
  961MOL0     H29700   1.066   9.555   4.910 -0.6965 -0.1536  0.1283
  961MOL0     H29701   1.241   9.387   4.833  2.2223  1.5754  2.7294
  961MOL0     H29702   1.261   9.478   4.681 -0.7024  0.5439 -0.4220
  961MOL0     H29703   1.439   9.560   4.825  0.6486 -0.6766  1.0158
  961MOL0     H29704   1.311   9.677   4.834  0.5980 -1.2859 -2.1586
  961MOL0     H29705   1.303   9.449   5.040 -1.3521 -0.5835 -0.5921
  961MOL0     H29706   1.232   9.605   5.050  0.4188  1.6506 -2.4168
  961MOL0     H29707   1.531   9.545   5.060  0.7924  1.5043 -0.5897
  961MOL0     H29708   1.429   9.565   5.192  1.7667 -0.6648  0.3051
  961MOL0     H29709   1.477   9.794   4.996 -3.0042 -0.8432 -0.1376
  961MOL0     H29710   1.402   9.810   5.154 -0.9063 -0.1568 -0.9671
  961MOL0     H29711   1.681   9.699   5.092 -1.6740 -0.9379 -1.3397
  961MOL0     H29712   1.616   9.729   5.258 -1.3314  0.0327  0.2428
  961MOL0     H29713   1.584   9.958   5.224 -0.9934 -1.5673  1.6038
  961MOL0     H29714   1.749   9.906   5.232  0.0831  2.6871 -1.3971
  961MOL0     H29715   0.847   9.300   4.604  1.0241  3.6272 -1.5834
  961MOL0     H29716   0.603   9.286   4.637  0.1881  0.2304 -1.2517
  961MOL0     H29717   0.230   9.472   4.782  1.4078 -1.0683  0.8818
  961MOL0     H29718  -0.010   9.433   4.808 -1.8860  0.4784  1.2896
  961MOL0     H29719   0.581   8.672   5.964 -0.3346 -0.2456 -1.5130
  961MOL0     H29720   0.829   8.670   6.002  1.1384  1.3212  2.6001
  961MOL0     H29721   1.149   8.660   6.321  0.6015 -1.7427  0.5505
  961MOL0     H29722   1.384   8.574   6.324 -2.2258 -2.7844 -0.9087
  961MOL0     H29723   1.596   8.592   6.352 -0.8326 -2.3082  0.5596
  961MOL0     H29724   1.738   8.573   6.259  0.3688 -0.6534  1.8512
  961MOL0     H29725   1.517   8.363   6.271 -0.7664  2.4183  0.0450
  961MOL0     H29726   1.686   8.348   6.314  2.9547 -0.3645 -3.1901
  961MOL0     H29727   1.562   8.324   6.044  1.8969  0.4557 -0.8076
  961MOL0     H29728   1.653   8.213   6.154 -1.8291  0.5230  0.2675
  961MOL0     H29729   1.770   8.310   5.958  1.7601 -0.7809  0.4298
  961MOL0     H29730   1.760   8.471   6.030 -0.1321 -0.3035 -2.2169
  961MOL0     H29731   2.055   8.266   6.278 -1.7639 -1.3751  2.0092
  961MOL0     H29732   1.473   8.759   5.955  1.9182 -0.3711  1.6168
  961MOL0     H29733   1.256   8.984   5.931  1.8532  0.1811  0.1868
  961MOL0     H29734   1.327   8.875   5.828  0.3513 -0.6035  0.4080
  961MOL0     H29735   1.159   8.851   5.843 -0.3734 -1.5068  2.2516
  962MOL0     O29736   1.584   0.899   6.428  0.1523 -0.3307 -0.0849
  962MOL0     C29737   1.513   0.915   6.327 -0.7410  0.0542 -0.8117
  962MOL0     O29738   1.557   0.966   6.209 -0.2018 -0.3439  0.0813
  962MOL0     C29739   1.670   1.043   6.210 -0.1174 -0.2033 -0.3619
  962MOL0     C29740   1.763   1.023   6.116  0.2512 -0.6525  0.1347
  962MOL0     C29741   1.870   1.108   6.103  0.1482 -0.4247 -0.2340
  962MOL0     C29742   1.893   1.207   6.196 -0.6939  0.3445 -0.0757
  962MOL0     O29743   2.008   1.282   6.192 -0.1901  0.2508 -0.6600
  962MOL0     C29744   2.125   1.239   6.128 -0.6772 -0.4999  0.1818
  962MOL0     C29745   2.204   1.142   6.215  0.4377 -0.3109  0.3940
  962MOL0     C29746   2.317   1.073   6.146  0.2892 -0.8388 -0.5633
  962MOL0     C29747   2.414   1.179   6.087 -0.5955 -0.2089  0.0283
  962MOL0     C29748   2.534   1.093   6.050 -0.3260 -0.3868  0.8247
  962MOL0     C29749   2.513   1.053   5.895  0.9899 -0.7163  0.6134
  962MOL0     C29750   2.619   0.950   5.846  0.6515  0.6914 -0.7675
  962MOL0     C29751   2.753   1.010   5.801 -0.5526 -0.8398 -0.0958
  962MOL0     N29752   2.848   0.905   5.753  0.7898 -0.5047 -0.7151
  962MOL0     C29753   2.815   0.797   5.675  1.3610  0.1202 -0.1075
  962MOL0     C29754   2.907   0.699   5.696 -0.7171 -0.0564 -0.2295
  962MOL0     C29755   2.922   0.561   5.625 -0.2850  0.0557  0.1207
  962MOL0     C29756   3.047   0.482   5.661 -0.3312 -0.5509  0.1730
  962MOL0     C29757   3.048   0.332   5.594  0.6462 -0.8374  0.1271
  962MOL0     C29758   3.041   0.344   5.443  0.1367 -0.0588  0.6728
  962MOL0     O29759   3.161   0.408   5.394 -0.3886 -0.4414  0.3841
  962MOL0     C29760   3.270   0.331   5.373 -0.2439 -0.5590 -0.1340
  962MOL0     C29761   3.384   0.404   5.332 -0.9977  0.2480 -0.1414
  962MOL0     C29762   3.498   0.323   5.314 -0.5079 -0.3698  0.1039
  962MOL0     C29763   3.502   0.187   5.341  0.0264 -0.5206 -0.1228
  962MOL0     C29764   3.623   0.115   5.315 -0.0500  0.4454  0.0190
  962MOL0     O29765   3.718   0.168   5.236  0.4424 -0.1384  0.0420
  962MOL0     C29766   3.821   0.092   5.198 -0.6294  0.4020 -0.5739
  962MOL0     C29767   3.950   0.132   5.250 -0.3230 -0.1299 -0.3853
  962MOL0     C29768   4.061   0.054   5.220  0.2552 -0.0001  1.3602
  962MOL0     C29769   4.049  -0.055   5.143 -0.2175  0.0124 -0.2885
  962MOL0     O29770   4.159  -0.128   5.112  0.1462  0.7891  0.2939
  962MOL0     C29771   4.261  -0.055   5.035  0.9175 -0.4422  0.5390
  962MOL0     C29772   4.349  -0.155   4.965 -0.2168  0.8813 -0.2478
  962MOL0     C29773   4.456  -0.214   5.065 -0.5451 -0.8765 -0.3261
  962MOL0     C29774   4.575  -0.279   4.988  0.2807 -0.2249  0.5330
  962MOL0     C29775   4.660  -0.369   5.066 -0.8778 -0.2926 -0.0750
  962MOL0     C29776   4.599  -0.501   5.102  0.3611  0.4088  0.6825
  962MOL0     C29777   4.702  -0.583   5.182  0.2689  0.3549 -0.0403
  962MOL0     C29778   4.655  -0.719   5.227  0.2438  0.0592 -0.1954
  962MOL0    Cl29779   4.499  -0.694   5.310  0.1475 -0.5012 -0.4141
  962MOL0     C29780   3.922  -0.115   5.112 -0.2355 -0.1135 -0.3664
  962MOL0     C29781   3.811  -0.037   5.136  0.3954 -0.0860 -0.6271
  962MOL0     O29782   3.637   0.005   5.365  0.4583  0.2174  0.2343
  962MOL0     C29783   3.396   0.120   5.382 -0.1835  0.1978 -0.1263
  962MOL0     C29784   3.276   0.190   5.392  0.7291  0.2346  0.3553
  962MOL0     N29785   2.994   0.756   5.791  0.6817  0.1702 -0.2322
  962MOL0     N29786   2.958   0.878   5.820 -0.5816 -0.1825  0.5348
  962MOL0     C29787   1.811   1.213   6.310  0.0979 -0.4074 -0.4350
  962MOL0     C29788   1.692   1.140   6.313 -0.3721 -0.0317 -0.7854
  962MOL0     C29789   1.373   0.846   6.324  0.0232  1.1919  0.3079
  962MOL0     C29790   1.288   0.863   6.209  0.1576  0.1272 -0.9449
  962MOL0     C29791   1.157   0.825   6.209  0.5584  0.7042 -0.0614
  962MOL0     C29792   1.100   0.750   6.315  0.1563 -0.4073  0.0576
  962MOL0     O29793   0.978   0.691   6.319  0.0579  0.2365  0.0510
  962MOL0     C29794   0.912   0.652   6.196 -0.6380  0.3981 -0.1131
  962MOL0     C29795   0.827   0.763   6.147  0.2113 -1.1212  0.7546
  962MOL0     C29796   0.731   0.719   6.031 -0.0623 -0.3955 -0.5302
  962MOL0     C29797   0.806   0.727   5.893 -0.5548 -0.1587 -0.0002
  962MOL0     C29798   0.714   0.679   5.789  0.0386 -0.4462  0.1622
  962MOL0     C29799   0.632   0.664   5.695 -0.9258  0.4332 -0.2017
  962MOL0     C29800   1.177   0.727   6.426 -0.3268 -0.4228  1.2188
  962MOL0     C29801   1.308   0.774   6.423  0.2948  0.4164 -0.4270
  962MOL0     C29802   1.377   0.754   6.564  1.2096 -1.1990  1.0198
  962MOL0     H29803   1.737   0.947   6.044 -0.2851 -3.5935  3.2090
  962MOL0     H29804   1.930   1.091   6.014 -1.9242 -1.8602 -1.4401
  962MOL0     H29805   2.112   1.196   6.028  4.7058  1.3550 -1.6642
  962MOL0     H29806   2.191   1.326   6.114  0.7187 -1.5747 -0.0944
  962MOL0     H29807   2.131   1.062   6.235 -0.9220  0.5782 -0.7734
  962MOL0     H29808   2.250   1.197   6.298  1.2724 -0.3867 -0.0084
  962MOL0     H29809   2.280   1.010   6.065 -1.2319 -0.0104 -0.5455
  962MOL0     H29810   2.369   1.007   6.216 -0.4723 -1.2793 -0.4019
  962MOL0     H29811   2.378   1.228   5.996 -0.8378 -1.9069 -0.8375
  962MOL0     H29812   2.447   1.263   6.148 -0.5207  2.3547 -3.2735
  962MOL0     H29813   2.628   1.149   6.058 -0.1641 -0.8076  2.1479
  962MOL0     H29814   2.539   1.003   6.112 -0.9032  0.7577  2.6054
  962MOL0     H29815   2.418   0.999   5.886  0.1574  0.6049  1.1102
  962MOL0     H29816   2.509   1.142   5.831  2.1190 -1.8218 -1.0564
  962MOL0     H29817   2.573   0.894   5.764  0.6765  0.1595 -0.4236
  962MOL0     H29818   2.624   0.877   5.926 -3.3447  1.8988  0.8130
  962MOL0     H29819   2.740   1.085   5.723 -1.9639  0.7908  1.5910
  962MOL0     H29820   2.812   1.066   5.875 -1.3382  1.3992 -1.0733
  962MOL0     H29821   2.740   0.798   5.596  0.5250 -0.4197  0.6643
  962MOL0     H29822   2.831   0.503   5.644 -1.3442  2.1335  1.9309
  962MOL0     H29823   2.933   0.581   5.518 -1.3724 -1.6942 -0.3632
  962MOL0     H29824   3.134   0.543   5.637 -0.3062 -0.3063  0.8736
  962MOL0     H29825   3.047   0.480   5.770 -1.1568 -0.8354  0.1784
  962MOL0     H29826   2.958   0.280   5.626  0.7105 -0.9683  0.0958
  962MOL0     H29827   3.135   0.273   5.626  0.2113 -2.0428 -0.8274
  962MOL0     H29828   2.954   0.399   5.407 -0.0728 -0.1518  1.0321
  962MOL0     H29829   3.029   0.245   5.398 -3.6992  1.4323 -2.0515
  962MOL0     H29830   3.386   0.511   5.317  1.5172  0.9513  3.8999
  962MOL0     H29831   3.592   0.369   5.283 -0.9933 -0.2318 -1.2213
  962MOL0     H29832   3.968   0.214   5.319  0.0828  0.3450 -1.0309
  962MOL0     H29833   4.160   0.079   5.255  0.3815  2.9751 -0.7830
  962MOL0     H29834   4.220   0.017   4.963  1.4202  2.1768  2.6769
  962MOL0     H29835   4.326   0.006   5.099 -0.3661  0.3738  1.1047
  962MOL0     H29836   4.281  -0.231   4.926 -0.3130  0.2559  1.0751
  962MOL0     H29837   4.404  -0.100   4.888 -0.8698  1.8854 -0.0119
  962MOL0     H29838   4.489  -0.139   5.138 -4.3723  0.5770  0.1417
  962MOL0     H29839   4.404  -0.289   5.126 -1.1677  0.3382  0.6769
  962MOL0     H29840   4.630  -0.200   4.936 -2.6136  1.6554  0.0816
  962MOL0     H29841   4.531  -0.336   4.905  2.7971  0.2129 -1.2155
  962MOL0     H29842   4.705  -0.311   5.148  0.6343 -0.7659 -0.5256
  962MOL0     H29843   4.742  -0.391   4.997 -0.9207 -0.8000  0.0351
  962MOL0     H29844   4.506  -0.490   5.158  0.2679  1.0092  0.4115
  962MOL0     H29845   4.585  -0.568   5.016  2.1108 -2.3325  2.3534
  962MOL0     H29846   4.727  -0.520   5.268  0.3455 -1.9956  1.7507
  962MOL0     H29847   4.784  -0.595   5.110 -1.3753  0.3408 -2.0073
  962MOL0     H29848   4.641  -0.788   5.143 -0.9574 -1.1742  0.9716
  962MOL0     H29849   4.736  -0.765   5.285 -1.3084 -1.3862  0.9011
  962MOL0     H29850   3.911  -0.210   5.061 -1.7356  0.7199 -1.6536
  962MOL0     H29851   3.712  -0.075   5.113 -0.9524  1.7286  1.7384
  962MOL0     H29852   3.389   0.013   5.396  0.9712  0.3299  1.8287
  962MOL0     H29853   3.189   0.131   5.417  0.0276  0.3062 -1.7202
  962MOL0     H29854   1.814   1.283   6.393 -5.7299 -0.0527 -0.0505
  962MOL0     H29855   1.617   1.144   6.391  0.6973 -0.0217  0.2574
  962MOL0     H29856   1.317   0.916   6.119  1.2282  0.2942 -0.5200
  962MOL0     H29857   1.096   0.844   6.121  1.8537  2.6087 -0.5940
  962MOL0     H29858   0.848   0.564   6.206 -0.5048 -0.1201 -2.9089
  962MOL0     H29859   0.992   0.619   6.129  0.3029  0.0102  1.1702
  962MOL0     H29860   0.884   0.850   6.111 -1.2707  1.2890  3.7689
  962MOL0     H29861   0.752   0.791   6.221 -0.5403  0.2862 -0.4898
  962MOL0     H29862   0.646   0.787   6.032 -0.4515 -0.8483  1.0883
  962MOL0     H29863   0.691   0.620   6.054  0.7866 -0.7213 -0.4082
  962MOL0     H29864   0.835   0.831   5.874  0.2177 -0.0299  1.7052
  962MOL0     H29865   0.894   0.662   5.887  0.2715  0.8055  1.2101
  962MOL0     H29866   0.556   0.647   5.621 -1.4399 -0.5175  0.5154
  962MOL0     H29867   1.135   0.669   6.507 -1.4495  0.6053  1.4000
  962MOL0     H29868   1.347   0.654   6.599 -1.1673 -0.5885  0.9377
  962MOL0     H29869   1.486   0.752   6.563  1.2830 -0.7939 -2.1693
  962MOL0     H29870   1.346   0.833   6.633 -0.2688 -1.3138  0.5417
  963MOL0     O29871  10.237   0.019   9.376  0.1098 -0.6804 -0.1950
  963MOL0     C29872  10.204   0.007   9.497  0.2943 -0.9826 -0.3245
  963MOL0     O29873  10.291   0.027   9.599  0.4285  0.9697  0.2674
  963MOL0     C29874  10.425   0.040   9.563 -0.6787  0.2144  0.7126
  963MOL0     C29875  10.487  -0.062   9.485  0.7784  0.5110  0.5049
  963MOL0     C29876  10.621  -0.052   9.451 -0.2455 -0.1905 -0.3513
  963MOL0     C29877  10.700   0.064   9.484 -0.2860  0.3722 -0.1309
  963MOL0     O29878  10.832   0.084   9.442 -0.2157 -0.1051  0.0132
  963MOL0     C29879  10.916  -0.020   9.385  0.3082  0.1399 -0.4289
  963MOL0     C29880  11.039   0.043   9.338 -0.8745 -0.7731  0.2824
  963MOL0     C29881  11.106   0.146   9.442 -0.3205 -0.1995 -0.6836
  963MOL0     C29882  11.247   0.184   9.398  0.5944 -0.4482  0.5213
  963MOL0     C29883  11.313   0.272   9.498 -0.2523  0.5183 -0.4121
  963MOL0     C29884  11.448   0.337   9.428  0.5781 -0.3520  0.3520
  963MOL0     C29885  11.525   0.404   9.536  0.5239  0.4908 -0.3079
  963MOL0     C29886  11.602   0.301   9.619  0.0175  0.2483  0.0173
  963MOL0     N29887  11.717   0.358   9.700 -0.2929 -0.6392 -0.2300
  963MOL0     C29888  11.702   0.421   9.821  0.3204 -0.0184  0.0026
  963MOL0     C29889  11.823   0.450   9.860 -0.1781 -0.1387  0.0499
  963MOL0     C29890  11.848   0.515   9.991  0.1481 -0.0747 -0.0892
  963MOL0     C29891  11.994   0.554  10.005 -0.4176 -0.5872 -0.2557
  963MOL0     C29892  12.014   0.640  10.132  0.5857  0.0517  0.0571
  963MOL0     C29893  12.145   0.719  10.125  0.0917  0.1135 -0.0606
  963MOL0     O29894  12.152   0.800  10.241 -0.1037  0.8304 -0.4514
  963MOL0     C29895  12.277   0.821  10.298 -0.5010 -0.0507  0.4837
  963MOL0     C29896  12.402   0.801  10.235 -0.1269 -0.5880  0.1652
  963MOL0     C29897  12.522   0.840  10.296 -0.6126 -0.1705 -0.1031
  963MOL0     C29898  12.528   0.887  10.432 -0.5634  0.2830  0.6282
  963MOL0     C29899  12.657   0.913  10.500  0.4529 -0.0418  0.4158
  963MOL0     O29900  12.762   0.863  10.430  0.7570  0.2781  0.2327
  963MOL0     C29901  12.891   0.881  10.477  0.5384 -0.1960 -0.0335
  963MOL0     C29902  12.947   0.786  10.571  0.0952 -0.2014  0.2039
  963MOL0     C29903  13.079   0.803  10.608 -0.2008  0.1595  0.2174
  963MOL0     C29904  13.155   0.901  10.554 -0.0464 -0.6135 -0.9525
  963MOL0     O29905  13.286   0.887  10.591 -0.2071 -0.0390 -0.1982
  963MOL0     C29906  13.388   0.942  10.514 -0.4420 -0.3595 -0.4599
  963MOL0     C29907  13.507   0.960  10.607 -0.3721 -0.5016  0.0527
  963MOL0     C29908  13.635   0.909  10.552  0.0623  0.6276  0.0455
  963MOL0     C29909  13.741   0.937  10.657  0.1402 -0.4461 -0.0990
  963MOL0     C29910  13.879   0.901  10.607  0.1880  0.1774  0.7635
  963MOL0     C29911  13.988   0.919  10.714 -0.3489  0.1603  0.2097
  963MOL0     C29912  13.988   0.809  10.829  0.0218 -0.3544 -0.3468
  963MOL0     C29913  14.133   0.759  10.859  0.0052 -0.2361  0.2195
  963MOL0    Cl29914  14.226   0.886  10.936  0.6134  0.1525 -0.2431
  963MOL0     C29915  13.106   0.990  10.463  1.1850 -0.9620  0.2870
  963MOL0     C29916  12.968   0.988  10.429 -0.4122 -0.4512 -0.3263
  963MOL0     O29917  12.667   0.975  10.608  0.3874 -0.0834  0.0709
  963MOL0     C29918  12.399   0.901  10.493 -0.0497 -0.6478  0.4061
  963MOL0     C29919  12.277   0.867  10.429  0.3084 -0.9372 -0.2759
  963MOL0     N29920  11.906   0.414   9.756 -0.1393 -0.0055 -0.1151
  963MOL0     N29921  11.838   0.369   9.656 -0.0093  0.5935 -0.4135
  963MOL0     C29922  10.633   0.168   9.558 -0.3627 -0.4430 -0.0855
  963MOL0     C29923  10.500   0.153   9.596 -0.0486 -0.5776 -0.1094
  963MOL0     C29924  10.059  -0.009   9.536  0.1971  0.4207  0.0274
  963MOL0     C29925  10.033  -0.061   9.668 -0.4955  1.0491 -0.2045
  963MOL0     C29926   9.905  -0.089   9.712  0.0697  1.3559 -0.0742
  963MOL0     C29927   9.798  -0.057   9.635 -0.2840  0.3208  0.4016
  963MOL0     O29928   9.673  -0.079   9.691 -0.9425  0.7384  0.4364
  963MOL0     C29929   9.553  -0.110   9.616  0.1519 -0.7560  0.3656
  963MOL0     C29930   9.568  -0.234   9.527 -0.1918 -1.0196 -0.1517
  963MOL0     C29931   9.560  -0.362   9.619 -0.5790 -0.2607 -0.0266
  963MOL0     C29932   9.522  -0.488   9.537  0.4672  0.0877 -0.3491
  963MOL0     C29933   9.518  -0.599   9.627 -0.3078 -0.1100  0.0854
  963MOL0     C29934   9.528  -0.691   9.697  0.2633  0.4181 -0.0631
  963MOL0     C29935   9.820  -0.000   9.507  0.3305  0.9787  0.0769
  963MOL0     C29936   9.944   0.024   9.466 -0.6599  0.3229  0.5448
  963MOL0     C29937   9.945   0.120   9.349 -0.2816  0.2970 -0.5834
  963MOL0     H29938  10.422  -0.148   9.468 -1.1921  1.2785  3.3662
  963MOL0     H29939  10.669  -0.124   9.386  2.4142  2.0384 -1.0974
  963MOL0     H29940  10.936  -0.095   9.463 -1.2288  0.6133  0.4737
  963MOL0     H29941  10.865  -0.073   9.305 -0.1050  0.6240 -0.4927
  963MOL0     H29942  11.013   0.091   9.243 -2.6069 -1.2574  0.4700
  963MOL0     H29943  11.108  -0.037   9.308 -1.4534 -1.2685  0.2534
  963MOL0     H29944  11.099   0.112   9.546 -2.3645  1.9817 -0.0122
  963MOL0     H29945  11.050   0.240   9.446  0.6702  0.3953 -0.3427
  963MOL0     H29946  11.308   0.095   9.378  0.3993 -0.3123 -0.7186
  963MOL0     H29947  11.238   0.240   9.305  1.6007 -0.5220  0.3689
  963MOL0     H29948  11.238   0.345   9.532 -1.4536 -1.6215  1.8427
  963MOL0     H29949  11.341   0.212   9.585 -1.3824 -2.3131 -1.8888
  963MOL0     H29950  11.504   0.263   9.370 -1.1105 -1.4355  0.0218
  963MOL0     H29951  11.409   0.413   9.360  2.7825 -0.1080 -0.7444
  963MOL0     H29952  11.457   0.461   9.599 -0.7361 -2.0970  0.8290
  963MOL0     H29953  11.592   0.465   9.475 -0.3528 -0.8613 -2.7919
  963MOL0     H29954  11.531   0.266   9.695  1.7915 -2.9201  0.3941
  963MOL0     H29955  11.642   0.224   9.552  2.5955 -0.3795  2.1268
  963MOL0     H29956  11.608   0.433   9.875 -0.3566  1.8877 -1.4597
  963MOL0     H29957  11.779   0.599  10.003  0.8829  0.4529  0.5149
  963MOL0     H29958  11.841   0.441  10.070  0.6606  1.1866  1.1846
  963MOL0     H29959  12.052   0.462  10.015 -2.5039 -1.8695  0.6773
  963MOL0     H29960  12.025   0.615   9.919  0.6839 -1.7233 -0.7043
  963MOL0     H29961  12.011   0.575  10.220 -0.0525 -2.4718 -1.7111
  963MOL0     H29962  11.933   0.710  10.152  1.1768  0.7382  0.1044
  963MOL0     H29963  12.138   0.781  10.036 -1.1864 -1.7075 -1.2935
  963MOL0     H29964  12.229   0.650  10.109 -0.4314 -0.2052 -1.5945
  963MOL0     H29965  12.412   0.757  10.136 -1.7137 -2.2995  0.6934
  963MOL0     H29966  12.613   0.817  10.242 -1.6758 -1.4393 -1.4291
  963MOL0     H29967  12.891   0.703  10.611 -0.0210 -0.1116  0.2274
  963MOL0     H29968  13.116   0.739  10.687 -1.4756 -1.7025 -0.6245
  963MOL0     H29969  13.412   0.868  10.436 -2.7923 -0.8301 -0.8273
  963MOL0     H29970  13.357   1.038  10.472  0.4564 -0.4527 -1.3745
  963MOL0     H29971  13.525   1.066  10.628  1.2697 -0.7681  0.1078
  963MOL0     H29972  13.489   0.914  10.705  1.4797  0.9212  1.1316
  963MOL0     H29973  13.637   0.804  10.524 -0.4779  0.3811  0.8958
  963MOL0     H29974  13.650   0.966  10.459 -2.4947 -1.4305 -1.7854
  963MOL0     H29975  13.710   0.885  10.748 -1.2809  1.7419  0.7437
  963MOL0     H29976  13.740   1.043  10.683 -0.3824 -0.5424  0.2966
  963MOL0     H29977  13.904   0.968  10.523 -0.2492 -0.3563  0.1984
  963MOL0     H29978  13.876   0.800  10.565 -1.8110  0.6176 -0.2972
  963MOL0     H29979  14.076   0.903  10.652 -1.3628 -1.5714 -0.8602
  963MOL0     H29980  13.994   1.023  10.746  0.1718  0.8700 -2.0249
  963MOL0     H29981  13.928   0.722  10.802 -1.2415  0.6585 -0.8946
  963MOL0     H29982  13.949   0.843  10.926 -0.3367 -4.9829  1.3935
  963MOL0     H29983  14.125   0.676  10.930  1.0925 -2.0668 -1.6922
  963MOL0     H29984  14.181   0.716  10.771  0.3368 -0.9463  0.7394
  963MOL0     H29985  13.173   1.056  10.407 -0.3684 -0.5925 -1.2253
  963MOL0     H29986  12.934   1.058  10.353  0.6777  2.6152  1.8041
  963MOL0     H29987  12.387   0.932  10.596 -2.4314 -0.2712  0.0600
  963MOL0     H29988  12.180   0.870  10.477  0.7524 -2.4092  0.7805
  963MOL0     H29989  10.689   0.258   9.581  2.3377 -1.2245 -2.8930
  963MOL0     H29990  10.449   0.231   9.653 -0.8868  0.6211 -2.3804
  963MOL0     H29991  10.112  -0.081   9.740 -1.6875  0.1855  0.9146
  963MOL0     H29992   9.885  -0.142   9.804 -0.4276  0.5294 -0.6378
  963MOL0     H29993   9.534  -0.022   9.555 -0.1733 -0.5704  0.7312
  963MOL0     H29994   9.474  -0.115   9.692 -0.6745  1.5012 -0.2804
  963MOL0     H29995   9.657  -0.218   9.466  0.7478  0.3530  1.4838
  963MOL0     H29996   9.489  -0.254   9.454  0.5815 -0.4552 -1.1473
  963MOL0     H29997   9.487  -0.344   9.699 -1.3854  0.7544 -0.9678
  963MOL0     H29998   9.661  -0.376   9.659 -0.4510  0.4350 -0.1100
  963MOL0     H29999   9.421  -0.479   9.496  0.6925 -0.0311 -0.9443
  963MOL0     H30000   9.590  -0.498   9.452 -1.1990  2.0390 -2.0021
  963MOL0     H30001   9.546  -0.772   9.764  0.3557 -2.1146 -2.9182
  963MOL0     H30002   9.735   0.034   9.448  0.8521  2.0896 -0.0628
  963MOL0     H30003   9.913   0.075   9.254 -1.4076  0.8852 -0.5074
  963MOL0     H30004   9.880   0.205   9.373  0.0309  0.3470  0.0951
  963MOL0     H30005  10.042   0.164   9.325 -0.1714 -0.4311 -1.5674
  964MOL0     O30006   8.503   4.042   8.836 -0.1658 -0.4819  0.3321
  964MOL0     C30007   8.489   4.147   8.899 -0.1201  0.5863 -0.0181
  964MOL0     O30008   8.580   4.200   8.990 -0.6212 -0.2807  0.3716
  964MOL0     C30009   8.713   4.162   8.980  0.1050  0.3095  0.0138
  964MOL0     C30010   8.771   4.034   8.944 -0.0498 -0.3625 -0.8952
  964MOL0     C30011   8.907   4.026   8.940 -0.4075 -0.3966 -0.5251
  964MOL0     C30012   8.984   4.134   8.992 -0.0591 -0.5758 -0.3580
  964MOL0     O30013   9.114   4.115   8.999 -0.6734  0.9042 -0.2173
  964MOL0     C30014   9.202   4.208   9.070  0.2900 -0.2765  0.6440
  964MOL0     C30015   9.330   4.128   9.081  0.3318  0.3923  0.5473
  964MOL0     C30016   9.328   4.000   9.165  0.2037 -0.3345  0.5132
  964MOL0     C30017   9.461   3.925   9.138  0.1004 -0.2595 -0.7991
  964MOL0     C30018   9.563   3.975   9.239  0.6052 -0.3032  0.2461
  964MOL0     C30019   9.702   3.934   9.193  0.4154 -0.0663  0.3565
  964MOL0     C30020   9.827   3.990   9.265  0.2789 -0.1133  0.0614
  964MOL0     C30021   9.950   3.945   9.178  0.0823  0.3524  0.0169
  964MOL0     N30022  10.057   4.038   9.211  0.3869  0.6135 -0.3682
  964MOL0     C30023  10.072   4.154   9.138  0.3947 -0.1946 -0.7762
  964MOL0     C30024  10.193   4.209   9.163  0.2581  0.3613  0.2863
  964MOL0     C30025  10.254   4.336   9.107 -0.4113  0.2879 -0.5281
  964MOL0     C30026  10.405   4.315   9.076  0.5791  0.3697 -0.1739
  964MOL0     C30027  10.494   4.439   9.086 -0.1024 -0.0635  0.6870
  964MOL0     C30028  10.649   4.420   9.083 -0.7760 -0.7073 -0.4971
  964MOL0     O30029  10.694   4.519   9.180 -0.3161  0.8585  0.2228
  964MOL0     C30030  10.830   4.517   9.212  0.0389  0.8493  0.5056
  964MOL0     C30031  10.879   4.429   9.311  1.0499  0.2348  0.4965
  964MOL0     C30032  11.013   4.426   9.330 -0.6708  0.6805 -0.0721
  964MOL0     C30033  11.103   4.512   9.264 -1.7548  0.0875  0.1825
  964MOL0     C30034  11.244   4.512   9.304 -0.0623  0.2972  0.3398
  964MOL0     O30035  11.335   4.551   9.209 -0.7543  0.5890  0.6749
  964MOL0     C30036  11.473   4.545   9.229 -0.0163  0.4011  0.3750
  964MOL0     C30037  11.545   4.455   9.316  0.0857  0.3816 -0.1591
  964MOL0     C30038  11.691   4.467   9.335  1.1663  0.5366 -0.1580
  964MOL0     C30039  11.763   4.555   9.257 -0.2710 -0.2895 -0.2983
  964MOL0     O30040  11.902   4.574   9.268 -0.0581 -0.0786 -0.2197
  964MOL0     C30041  11.981   4.482   9.348  0.2023 -0.4005 -0.0237
  964MOL0     C30042  12.127   4.512   9.338  0.1094 -0.0028 -0.8749
  964MOL0     C30043  12.165   4.643   9.413 -0.8788  0.5235 -0.0968
  964MOL0     C30044  12.277   4.734   9.350 -0.0841  0.4263  0.7416
  964MOL0     C30045  12.302   4.851   9.441 -0.4383  0.2552 -0.5462
  964MOL0     C30046  12.416   4.938   9.391 -0.2883 -0.4113  0.5221
  964MOL0     C30047  12.551   4.864   9.385 -0.4294 -0.3503  0.1175
  964MOL0     C30048  12.669   4.957   9.396  0.3748 -0.0513  0.7559
  964MOL0    Cl30049  12.819   4.875   9.364 -0.0623 -0.1396 -0.0239
  964MOL0     C30050  11.698   4.639   9.159  1.1368  0.0084 -0.3767
  964MOL0     C30051  11.552   4.633   9.145 -0.3993  0.0963 -0.7522
  964MOL0     O30052  11.274   4.489   9.422  0.3344  0.6638 -0.0088
  964MOL0     C30053  11.049   4.595   9.165  0.1046 -0.8434  0.4682
  964MOL0     C30054  10.912   4.604   9.137  0.1318  0.7320 -0.4359
  964MOL0     N30055  10.244   4.118   9.248 -0.9596 -1.0076  0.2141
  964MOL0     N30056  10.174   4.009   9.270  0.5755 -0.2569 -0.7953
  964MOL0     C30057   8.927   4.256   9.037  0.4662 -0.7950 -0.2008
  964MOL0     C30058   8.793   4.268   9.029 -0.3940 -0.4442  0.0183
  964MOL0     C30059   8.356   4.214   8.879 -0.0828 -0.8863 -0.2853
  964MOL0     C30060   8.247   4.145   8.843  0.0990 -0.8252 -0.0485
  964MOL0     C30061   8.113   4.187   8.839 -0.0112 -0.1849  0.3539
  964MOL0     C30062   8.091   4.322   8.848 -0.0624 -0.6422 -0.4934
  964MOL0     O30063   7.969   4.386   8.843 -0.0194  0.2131  0.3630
  964MOL0     C30064   7.848   4.305   8.810 -0.2347 -0.6255  0.6760
  964MOL0     C30065   7.726   4.389   8.790 -0.4875  0.4785  0.7607
  964MOL0     C30066   7.616   4.302   8.744  0.2377  0.2229  0.5235
  964MOL0     C30067   7.512   4.388   8.673  0.7334 -0.1391  0.8327
  964MOL0     C30068   7.479   4.515   8.727 -0.0989 -0.3456  0.1441
  964MOL0     C30069   7.463   4.620   8.773  0.8842 -0.1062 -0.4296
  964MOL0     C30070   8.200   4.407   8.895 -0.5592  0.4767  0.0187
  964MOL0     C30071   8.329   4.352   8.912 -0.6651 -0.3583 -0.2420
  964MOL0     C30072   8.434   4.453   8.966  0.1196 -0.0800 -0.8323
  964MOL0     H30073   8.708   3.956   8.904 -1.0582  0.6243 -1.2625
  964MOL0     H30074   8.967   3.939   8.917  1.7645  1.2888 -1.6267
  964MOL0     H30075   9.218   4.294   9.004  0.5539  0.1015  1.2005
  964MOL0     H30076   9.164   4.225   9.170 -2.0660 -0.2419 -0.2072
  964MOL0     H30077   9.401   4.200   9.124  0.6162 -0.7507  2.0741
  964MOL0     H30078   9.351   4.093   8.980  0.4214 -1.0545  1.0351
  964MOL0     H30079   9.242   3.932   9.166 -1.5157  1.6827 -0.8265
  964MOL0     H30080   9.319   4.043   9.265 -3.3504  1.3893 -0.3753
  964MOL0     H30081   9.446   3.819   9.160  0.8154 -0.0603  0.8475
  964MOL0     H30082   9.489   3.935   9.033  2.0749 -0.1056 -0.3084
  964MOL0     H30083   9.554   4.083   9.255 -4.6610 -0.0378 -2.3909
  964MOL0     H30084   9.536   3.933   9.336  0.7999  2.0696  1.3759
  964MOL0     H30085   9.703   3.828   9.222 -3.2056  0.0695  1.4799
  964MOL0     H30086   9.711   3.941   9.084 -2.3600 -1.3312 -0.0552
  964MOL0     H30087   9.833   3.954   9.368 -1.4687  2.4240  1.1466
  964MOL0     H30088   9.823   4.098   9.250 -1.0666  0.2261  2.4020
  964MOL0     H30089   9.979   3.843   9.208 -1.3108 -0.2888 -0.7316
  964MOL0     H30090   9.928   3.946   9.071 -0.8671  2.2509  0.1863
  964MOL0     H30091  10.000   4.201   9.072  1.4461  1.6747 -0.6726
  964MOL0     H30092  10.205   4.361   9.013  0.9801 -0.3207 -1.4505
  964MOL0     H30093  10.235   4.415   9.180 -3.1969  1.0611 -1.9496
  964MOL0     H30094  10.442   4.237   9.142 -0.5851 -0.0565  0.0034
  964MOL0     H30095  10.418   4.285   8.972 -1.2757  0.5340 -0.4805
  964MOL0     H30096  10.459   4.492   9.175 -2.0379 -0.3897  0.1564
  964MOL0     H30097  10.472   4.513   9.008 -1.6668  2.0398  2.9739
  964MOL0     H30098  10.694   4.453   8.989 -2.0861  0.1263 -0.8505
  964MOL0     H30099  10.681   4.320   9.113 -2.3034 -1.0991 -0.0987
  964MOL0     H30100  10.817   4.367   9.375  0.1686  2.5296  2.0076
  964MOL0     H30101  11.047   4.358   9.407  2.3573 -0.3093 -2.1117
  964MOL0     H30102  11.503   4.386   9.388  0.1332 -0.6379 -1.1015
  964MOL0     H30103  11.746   4.403   9.403 -0.3317  0.6399  1.1933
  964MOL0     H30104  11.959   4.495   9.455  0.6247  1.6509 -0.1407
  964MOL0     H30105  11.965   4.377   9.320 -2.0956 -0.7036  2.0020
  964MOL0     H30106  12.179   4.421   9.368 -0.2063  0.7294  2.1570
  964MOL0     H30107  12.153   4.541   9.235  1.2651  0.2813 -0.5204
  964MOL0     H30108  12.081   4.709   9.435  0.5091  1.7749  1.8179
  964MOL0     H30109  12.210   4.607   9.506 -3.1381 -0.2242  0.7693
  964MOL0     H30110  12.238   4.778   9.258  0.8119  0.0152  0.1483
  964MOL0     H30111  12.364   4.671   9.331  0.4953  0.8503  1.9084
  964MOL0     H30112  12.344   4.810   9.533  0.9447 -2.7759 -2.3715
  964MOL0     H30113  12.207   4.902   9.463 -2.1173 -3.4733  1.8096
  964MOL0     H30114  12.376   4.978   9.297 -2.0079 -1.3720  0.8014
  964MOL0     H30115  12.425   5.020   9.462  1.9506 -0.8487  0.8048
  964MOL0     H30116  12.560   4.803   9.295 -1.0333 -0.7710  0.3307
  964MOL0     H30117  12.561   4.795   9.470  1.7872 -1.7639 -1.1938
  964MOL0     H30118  12.659   5.032   9.316 -4.1206  0.2865  1.3486
  964MOL0     H30119  12.674   5.010   9.491  0.7301  1.0978  0.1176
  964MOL0     H30120  11.763   4.700   9.098  2.3697  1.9768  2.6729
  964MOL0     H30121  11.497   4.691   9.072 -1.2365  2.1988  1.4298
  964MOL0     H30122  11.121   4.649   9.104  1.0980 -1.9024  0.6488
  964MOL0     H30123  10.874   4.672   9.061 -1.8705  1.2099  0.9388
  964MOL0     H30124   8.980   4.343   9.077 -0.7949  2.1176 -4.1650
  964MOL0     H30125   8.749   4.358   9.070  1.3827 -0.8657  3.1684
  964MOL0     H30126   8.273   4.043   8.815  1.3945  0.2248 -3.0513
  964MOL0     H30127   8.026   4.124   8.822 -0.2125  0.7281 -2.6302
  964MOL0     H30128   7.825   4.226   8.882  0.3119 -0.9505  0.4970
  964MOL0     H30129   7.875   4.247   8.721  0.6071 -0.4339  0.7992
  964MOL0     H30130   7.751   4.460   8.709 -4.7201  1.7896  0.3562
  964MOL0     H30131   7.700   4.443   8.881 -2.4247 -0.0218  0.5419
  964MOL0     H30132   7.578   4.242   8.826 -2.7725  0.9548 -0.2246
  964MOL0     H30133   7.649   4.229   8.669 -1.1463  0.0695  0.0409
  964MOL0     H30134   7.526   4.404   8.566  0.0789  1.6581  0.9905
  964MOL0     H30135   7.422   4.329   8.690 -0.6011  1.2261 -1.1395
  964MOL0     H30136   7.437   4.715   8.816 -1.7529 -0.5791 -0.7973
  964MOL0     H30137   8.174   4.504   8.934 -0.7884  0.8310 -0.9918
  964MOL0     H30138   8.498   4.409   9.044  1.2308 -0.4238 -1.9105
  964MOL0     H30139   8.487   4.498   8.882 -1.8783  2.7842 -0.6804
  964MOL0     H30140   8.369   4.534   8.999 -0.6804 -0.1264 -2.2532
  965MOL0     O30141   8.478   2.421   4.307 -0.4501 -0.0642  0.7544
  965MOL0     C30142   8.462   2.463   4.416 -0.2254 -0.3892 -0.6954
  965MOL0     O30143   8.563   2.498   4.499  0.4047 -0.2003  0.1183
  965MOL0     C30144   8.695   2.480   4.464  0.6112  0.2620  0.5820
  965MOL0     C30145   8.746   2.371   4.400  0.9935 -0.6805 -0.2841
  965MOL0     C30146   8.881   2.352   4.386 -0.4883 -0.5287 -0.7014
  965MOL0     C30147   8.973   2.455   4.419  0.6540 -0.4682 -0.9976
  965MOL0     O30148   9.107   2.449   4.386 -0.5364 -0.0053  0.6420
  965MOL0     C30149   9.181   2.342   4.438 -0.1174  0.2068  0.0014
  965MOL0     C30150   9.296   2.395   4.511 -0.1932  0.7354 -0.3189
  965MOL0     C30151   9.375   2.499   4.426 -0.3754 -0.3295 -0.0400
  965MOL0     C30152   9.493   2.558   4.491  0.2199  0.0099 -0.0821
  965MOL0     C30153   9.569   2.632   4.387 -0.4448 -0.1938  0.8416
  965MOL0     C30154   9.693   2.696   4.441 -0.5332 -0.2231 -0.0111
  965MOL0     C30155   9.794   2.736   4.331 -0.2429  0.0071 -0.1759
  965MOL0     C30156   9.924   2.791   4.397 -0.1105 -0.3117  0.2872
  965MOL0     N30157   9.893   2.925   4.459  0.1140  1.1348  0.1738
  965MOL0     C30158   9.843   2.942   4.586  0.2351 -0.2214 -0.1677
  965MOL0     C30159   9.809   3.074   4.588  0.4004  0.2781 -0.2758
  965MOL0     C30160   9.774   3.149   4.710  0.5190 -0.3721 -0.5723
  965MOL0     C30161   9.902   3.240   4.752 -0.4496  0.4869  0.3956
  965MOL0     C30162   9.869   3.324   4.875  0.2656 -0.3686  0.4370
  965MOL0     C30163   9.999   3.378   4.946  0.8276 -0.7145  0.2535
  965MOL0     O30164  10.082   3.453   4.852  0.9693  0.1166  0.1124
  965MOL0     C30165  10.196   3.520   4.891  0.2460  0.0539  0.8699
  965MOL0     C30166  10.269   3.485   5.004  0.3903  0.1915 -0.0314
  965MOL0     C30167  10.388   3.546   5.037  0.3223  0.6227 -0.8022
  965MOL0     C30168  10.444   3.634   4.944 -0.1793 -0.2167 -0.8473
  965MOL0     C30169  10.584   3.684   4.958  0.1440 -0.5955 -0.1849
  965MOL0     O30170  10.649   3.742   4.857  0.0983  0.0875 -0.6208
  965MOL0     C30171  10.792   3.738   4.854  0.2304 -0.8358 -0.2327
  965MOL0     C30172  10.856   3.621   4.865  0.0533 -0.2591 -0.3304
  965MOL0     C30173  10.993   3.612   4.871 -0.0256 -0.6745 -1.0692
  965MOL0     C30174  11.075   3.727   4.877 -0.0842  0.4671 -0.3905
  965MOL0     O30175  11.214   3.734   4.874  0.6462  0.2353  1.0059
  965MOL0     C30176  11.285   3.612   4.875  0.3919 -0.1574  0.5588
  965MOL0     C30177  11.434   3.636   4.857 -0.8036 -1.0689 -0.4811
  965MOL0     C30178  11.525   3.513   4.849 -0.2450  0.1090 -0.4706
  965MOL0     C30179  11.669   3.568   4.860  1.0590  0.0711  0.4195
  965MOL0     C30180  11.765   3.447   4.843  1.0399 -0.2933 -0.2323
  965MOL0     C30181  11.895   3.482   4.778  0.3657 -0.2664 -0.3231
  965MOL0     C30182  11.986   3.569   4.874 -1.0216  0.1317  0.2780
  965MOL0     C30183  12.123   3.575   4.803 -0.6970  0.5833 -0.2638
  965MOL0    Cl30184  12.126   3.674   4.655  0.1408  0.0433  0.0244
  965MOL0     C30185  11.004   3.851   4.878 -0.3487  0.9423  0.1678
  965MOL0     C30186  10.868   3.855   4.853  0.3094 -0.4827  0.3596
  965MOL0     O30187  10.633   3.659   5.061 -0.2792  0.4001  0.4922
  965MOL0     C30188  10.375   3.676   4.834  0.0984 -1.2997  0.1760
  965MOL0     C30189  10.249   3.619   4.802 -0.5090  0.3705  0.0745
  965MOL0     N30190   9.844   3.129   4.466 -0.1408 -0.0710  0.8674
  965MOL0     N30191   9.885   3.036   4.386  0.5926 -0.6698  0.0378
  965MOL0     C30192   8.921   2.567   4.487 -0.3457 -0.6470 -0.1362
  965MOL0     C30193   8.780   2.575   4.515 -0.3199 -0.3555 -0.5208
  965MOL0     C30194   8.329   2.497   4.460  0.0414 -0.2772 -0.2205
  965MOL0     C30195   8.329   2.581   4.578  0.5812 -0.2928  0.0377
  965MOL0     C30196   8.206   2.624   4.625  0.4102  0.1816  0.6044
  965MOL0     C30197   8.085   2.599   4.558 -0.2244  0.4276  0.7258
  965MOL0     O30198   7.961   2.646   4.607 -0.5226 -0.4676  0.0959
  965MOL0     C30199   7.949   2.627   4.753  0.3034 -0.0915  1.0887
  965MOL0     C30200   7.807   2.629   4.789 -0.4390 -0.3063 -0.6615
  965MOL0     C30201   7.736   2.498   4.759  0.3838  0.6003  0.5792
  965MOL0     C30202   7.582   2.503   4.763  0.3367  0.2114 -0.4826
  965MOL0     C30203   7.539   2.535   4.903  0.0982 -0.1967  0.3678
  965MOL0     C30204   7.508   2.580   5.011  0.5641  0.4362  0.4857
  965MOL0     C30205   8.087   2.534   4.430  0.2774  0.0744 -0.3213
  965MOL0     C30206   8.209   2.483   4.387 -0.0577 -0.1125  0.9307
  965MOL0     C30207   8.207   2.413   4.254  0.2683 -0.0180 -0.4157
  965MOL0     H30208   8.674   2.293   4.376 -0.4931  0.4862  0.2328
  965MOL0     H30209   8.921   2.259   4.346  0.3587 -0.2352 -0.5606
  965MOL0     H30210   9.120   2.268   4.490 -2.9173 -0.0673 -3.2902
  965MOL0     H30211   9.225   2.291   4.352 -1.4257 -0.7860 -0.1183
  965MOL0     H30212   9.375   2.320   4.527  0.7809  1.6127 -0.8955
  965MOL0     H30213   9.268   2.436   4.609 -0.9421 -1.1556  0.3004
  965MOL0     H30214   9.306   2.578   4.396  1.0875  0.3367 -1.7464
  965MOL0     H30215   9.402   2.445   4.335 -1.6901  1.9047 -1.8388
  965MOL0     H30216   9.465   2.626   4.573  0.8378 -1.0207  1.0187
  965MOL0     H30217   9.557   2.474   4.522  1.3088  0.4832 -0.9671
  965MOL0     H30218   9.593   2.567   4.302 -0.9499 -0.8390  1.1804
  965MOL0     H30219   9.506   2.714   4.352  0.0743 -1.0294 -2.3522
  965MOL0     H30220   9.664   2.775   4.511 -1.2394 -0.2897 -0.2214
  965MOL0     H30221   9.742   2.618   4.500  1.8390  0.9410 -0.3364
  965MOL0     H30222   9.749   2.813   4.268  2.9652  1.2228 -1.1794
  965MOL0     H30223   9.813   2.649   4.268 -0.8456 -0.1381 -0.1641
  965MOL0     H30224   9.949   2.718   4.475 -2.9524 -1.0889  0.5734
  965MOL0     H30225  10.003   2.803   4.322  1.4107  0.1027  1.8944
  965MOL0     H30226   9.829   2.875   4.670  5.5711 -1.1643  0.3044
  965MOL0     H30227   9.680   3.198   4.686 -0.1766 -2.3624 -2.1003
  965MOL0     H30228   9.749   3.087   4.797  1.0663  2.5025  1.8240
  965MOL0     H30229   9.984   3.174   4.781 -0.7276 -0.4707 -0.9040
  965MOL0     H30230   9.930   3.293   4.661  1.2682  0.9167  1.1465
  965MOL0     H30231   9.815   3.265   4.950 -0.1170 -1.3365 -0.5735
  965MOL0     H30232   9.812   3.410   4.839  2.1288  0.3206 -1.0348
  965MOL0     H30233  10.057   3.298   4.991  0.7476 -0.6224  0.5215
  965MOL0     H30234   9.970   3.443   5.029 -0.2980 -0.7648 -0.0823
  965MOL0     H30235  10.236   3.405   5.070 -2.9545  0.2924 -1.4096
  965MOL0     H30236  10.438   3.521   5.130 -2.2521  0.4228  0.6401
  965MOL0     H30237  10.787   3.537   4.875 -1.1441  0.8889  1.9651
  965MOL0     H30238  11.044   3.516   4.871 -0.4686 -0.9694  1.4585
  965MOL0     H30239  11.262   3.557   4.967  0.4330  1.9606  1.8994
  965MOL0     H30240  11.258   3.556   4.785  1.4718  1.5871 -0.9282
  965MOL0     H30241  11.445   3.701   4.770 -0.6583  1.7018  1.4680
  965MOL0     H30242  11.454   3.703   4.941 -1.8674 -0.3250 -0.7933
  965MOL0     H30243  11.516   3.460   4.945  0.0437  2.2810  0.8318
  965MOL0     H30244  11.502   3.450   4.763  0.7128  3.0230 -3.0517
  965MOL0     H30245  11.682   3.628   4.952  1.2344 -0.5902  0.8320
  965MOL0     H30246  11.694   3.635   4.777 -1.9093 -1.1899 -1.6745
  965MOL0     H30247  11.715   3.373   4.782  1.9048 -0.0715 -1.2447
  965MOL0     H30248  11.777   3.407   4.944 -0.1600 -0.3359 -0.0941
  965MOL0     H30249  11.934   3.381   4.765  0.3419 -0.2723 -0.3467
  965MOL0     H30250  11.877   3.517   4.676  0.3665 -0.8711 -0.5360
  965MOL0     H30251  12.004   3.528   4.973  1.4625 -1.2332 -0.6667
  965MOL0     H30252  11.948   3.672   4.881  0.2154  0.6687 -0.5240
  965MOL0     H30253  12.192   3.605   4.883 -0.1429 -1.2712 -0.0141
  965MOL0     H30254  12.151   3.476   4.766  1.3688  0.8821  0.3428
  965MOL0     H30255  11.063   3.942   4.887 -0.3239  0.8891  0.5571
  965MOL0     H30256  10.815   3.949   4.863  0.7644  0.1341 -2.2025
  965MOL0     H30257  10.414   3.744   4.759 -0.6029  0.2053  1.1339
  965MOL0     H30258  10.202   3.652   4.711  0.7643  1.1317 -0.3314
  965MOL0     H30259   8.982   2.647   4.527 -0.4583 -2.6506  4.7900
  965MOL0     H30260   8.734   2.655   4.571 -1.6231  0.5098 -2.7105
  965MOL0     H30261   8.414   2.609   4.639  0.2332 -1.1314  0.9283
  965MOL0     H30262   8.200   2.680   4.717  0.2169 -0.9459  1.2871
  965MOL0     H30263   7.997   2.715   4.796  1.1916 -0.1624  0.2643
  965MOL0     H30264   7.994   2.532   4.783  1.8347 -0.3438 -1.7031
  965MOL0     H30265   7.750   2.713   4.750  1.7995  1.3405 -0.5493
  965MOL0     H30266   7.799   2.643   4.898  1.6842 -0.3213 -0.4630
  965MOL0     H30267   7.766   2.419   4.829  0.1251 -0.4224 -0.4322
  965MOL0     H30268   7.765   2.468   4.658 -1.4669  0.8340 -0.0584
  965MOL0     H30269   7.555   2.583   4.694 -1.6514  0.3775  0.4165
  965MOL0     H30270   7.525   2.411   4.747 -1.7528  1.3130  0.2392
  965MOL0     H30271   7.463   2.617   5.101 -0.1367 -1.5292  0.9881
  965MOL0     H30272   8.001   2.541   4.364 -0.5163  0.8680  0.7639
  965MOL0     H30273   8.253   2.476   4.177  0.8710  0.1064  0.0406
  965MOL0     H30274   8.266   2.320   4.252 -0.4937 -0.5086 -0.5614
  965MOL0     H30275   8.109   2.375   4.225  0.9183 -2.2313  0.0610
  966MOL0     O30276   4.677   7.298   8.534  0.1804  0.4547 -0.1398
  966MOL0     C30277   4.653   7.182   8.574  0.4804  0.0953  0.5153
  966MOL0     O30278   4.531   7.123   8.572 -0.0980  0.3616  0.6475
  966MOL0     C30279   4.425   7.211   8.558  0.8010 -0.0732  0.4530
  966MOL0     C30280   4.387   7.285   8.442 -0.8786  0.7288  0.4518
  966MOL0     C30281   4.274   7.360   8.441  0.2395 -0.0027 -0.3009
  966MOL0     C30282   4.194   7.385   8.559  0.1247 -0.0665  0.1777
  966MOL0     O30283   4.087   7.466   8.549  0.4686 -0.5898 -0.1111
  966MOL0     C30284   4.008   7.483   8.666 -0.1973  0.0496  0.7796
  966MOL0     C30285   3.905   7.583   8.651 -0.5251 -0.1400  0.1574
  966MOL0     C30286   3.947   7.726   8.643  0.5300  0.5498 -0.3821
  966MOL0     C30287   3.990   7.755   8.506 -0.8242 -1.2412  0.5490
  966MOL0     C30288   3.939   7.909   8.472 -0.5595  0.8574 -0.4100
  966MOL0     C30289   3.980   7.949   8.334  0.1696  0.2135 -0.8391
  966MOL0     C30290   3.964   8.093   8.321  0.2719 -0.4862 -0.2588
  966MOL0     C30291   3.997   8.149   8.185 -0.3575 -0.3103 -0.3302
  966MOL0     N30292   4.141   8.134   8.152 -0.5462  0.0290  0.7293
  966MOL0     C30293   4.243   8.218   8.187  1.0587  0.5011 -0.2999
  966MOL0     C30294   4.348   8.178   8.110  0.8605 -0.6742 -0.8426
  966MOL0     C30295   4.489   8.230   8.105  0.7663  0.3095  0.2331
  966MOL0     C30296   4.531   8.301   8.233 -0.5518  0.6828 -0.8149
  966MOL0     C30297   4.650   8.382   8.196  0.3443  0.5025  0.7118
  966MOL0     C30298   4.708   8.461   8.312  0.2002  0.1602 -0.2925
  966MOL0     O30299   4.770   8.376   8.407 -0.4010 -0.2435  0.1492
  966MOL0     C30300   4.884   8.427   8.465 -0.7772  0.5568  1.2444
  966MOL0     C30301   4.881   8.554   8.522  0.5511  0.1643 -0.2211
  966MOL0     C30302   4.993   8.609   8.585  0.3514 -1.3749  0.1494
  966MOL0     C30303   5.101   8.532   8.594 -0.2828  0.2780 -0.2022
  966MOL0     C30304   5.219   8.581   8.670  0.4249  0.2598  0.0390
  966MOL0     O30305   5.221   8.712   8.714  0.3929 -0.0501  0.0848
  966MOL0     C30306   5.333   8.762   8.778 -0.6029  1.1182  0.4639
  966MOL0     C30307   5.421   8.691   8.860 -0.0278 -0.1722  0.9477
  966MOL0     C30308   5.515   8.751   8.937 -0.2021 -0.2466 -0.7383
  966MOL0     C30309   5.536   8.894   8.920 -0.6669  0.2635 -0.7398
  966MOL0     O30310   5.632   8.962   8.995  0.3058 -0.1582  0.0776
  966MOL0     C30311   5.737   8.894   9.056  0.3591 -0.5187  0.0515
  966MOL0     C30312   5.853   8.989   9.096  0.6348 -0.1427 -0.3769
  966MOL0     C30313   5.831   9.086   9.210  0.0486 -0.4276  0.2938
  966MOL0     C30314   5.949   9.185   9.237  0.5296  0.7798 -0.0384
  966MOL0     C30315   5.914   9.299   9.330 -0.2394 -0.1634 -0.0419
  966MOL0     C30316   6.026   9.403   9.367 -0.2432  1.0700  0.2129
  966MOL0     C30317   6.134   9.334   9.450 -0.3428 -0.0422 -0.4316
  966MOL0     C30318   6.259   9.424   9.446  0.2172 -0.2154  0.8067
  966MOL0    Cl30319   6.386   9.340   9.541 -0.0633 -0.0780  0.2283
  966MOL0     C30320   5.448   8.961   8.835 -0.1215 -1.0247 -0.5587
  966MOL0     C30321   5.351   8.895   8.768 -0.6787 -0.5282 -0.1345
  966MOL0     O30322   5.306   8.506   8.695 -0.1176 -0.4490  0.3599
  966MOL0     C30323   5.106   8.398   8.555 -0.0258 -0.4051  0.1616
  966MOL0     C30324   4.994   8.347   8.487  0.8623 -0.7118 -0.6551
  966MOL0     N30325   4.313   8.069   8.034  0.4036 -0.5140 -0.7252
  966MOL0     N30326   4.188   8.039   8.066  0.4259 -0.9933 -0.1547
  966MOL0     C30327   4.224   7.298   8.660  1.3385 -0.4245  0.0327
  966MOL0     C30328   4.336   7.218   8.666 -0.1348  0.2156 -0.1150
  966MOL0     C30329   4.767   7.105   8.612 -0.0695  1.0916  0.2544
  966MOL0     C30330   4.751   6.961   8.616 -0.0452 -0.5297 -0.1900
  966MOL0     C30331   4.851   6.878   8.673  0.3714  0.1108 -0.0253
  966MOL0     C30332   4.965   6.942   8.726  0.2043 -0.0348  0.7544
  966MOL0     O30333   5.045   6.850   8.792 -0.0599 -0.0281  0.3306
  966MOL0     C30334   5.165   6.817   8.720  0.0996 -0.8057 -0.3592
  966MOL0     C30335   5.248   6.724   8.811  0.2282  0.0708 -0.1330
  966MOL0     C30336   5.170   6.610   8.869  0.6281  0.7951 -0.3582
  966MOL0     C30337   5.232   6.571   9.001  0.2733 -0.3855 -0.0074
  966MOL0     C30338   5.161   6.455   9.069 -0.1188 -0.1582 -0.3655
  966MOL0     C30339   5.102   6.354   9.103  0.4301 -0.7562 -0.1904
  966MOL0     C30340   4.979   7.075   8.722 -1.0803  0.1123 -0.1714
  966MOL0     C30341   4.888   7.163   8.664 -0.2389  0.1665 -0.7917
  966MOL0     C30342   4.916   7.316   8.670 -0.0619 -0.1402 -0.6214
  966MOL0     H30343   4.457   7.287   8.359 -0.4382  1.9443  0.8230
  966MOL0     H30344   4.241   7.423   8.359 -1.7156 -1.4866 -0.7177
  966MOL0     H30345   3.963   7.386   8.688 -2.0235  0.6698 -0.1059
  966MOL0     H30346   4.079   7.512   8.744  3.0310 -1.2489 -1.4566
  966MOL0     H30347   3.834   7.571   8.733 -0.7266  0.2380  0.0384
  966MOL0     H30348   3.835   7.555   8.572  0.0609  0.0950 -0.4506
  966MOL0     H30349   4.033   7.735   8.711 -0.0729 -0.2101  0.5208
  966MOL0     H30350   3.860   7.787   8.668 -0.4990 -0.5288 -1.2470
  966MOL0     H30351   4.099   7.750   8.501 -0.5094  2.9025  0.1132
  966MOL0     H30352   3.947   7.687   8.432 -0.2838 -1.2397  0.2341
  966MOL0     H30353   3.830   7.912   8.480 -0.6587 -0.6229 -0.9551
  966MOL0     H30354   3.988   7.976   8.544  0.6202  0.6013 -0.9422
  966MOL0     H30355   4.086   7.925   8.318  0.9777  2.9764 -0.2748
  966MOL0     H30356   3.917   7.897   8.261  1.1510 -3.2392  0.5698
  966MOL0     H30357   4.028   8.149   8.390 -2.7784  2.4397  0.5065
  966MOL0     H30358   3.860   8.125   8.334  0.5314  0.1365  0.3385
  966MOL0     H30359   3.933   8.096   8.114  0.3948 -0.2493 -1.0799
  966MOL0     H30360   3.960   8.250   8.168  0.3385  0.3957  1.9411
  966MOL0     H30361   4.239   8.285   8.273 -0.1291  0.2160 -0.1163
  966MOL0     H30362   4.562   8.150   8.089  2.9566  2.0182  1.1384
  966MOL0     H30363   4.504   8.295   8.018 -1.9275  0.1715 -0.4447
  966MOL0     H30364   4.454   8.365   8.278 -1.0607  0.7148 -1.7242
  966MOL0     H30365   4.568   8.225   8.303 -2.1256 -1.8207 -2.5498
  966MOL0     H30366   4.616   8.459   8.126  2.4779  0.1067 -0.8776
  966MOL0     H30367   4.722   8.321   8.141 -0.4708 -0.4453  0.6681
  966MOL0     H30368   4.635   8.521   8.367  2.0866  1.4086  0.9887
  966MOL0     H30369   4.786   8.531   8.277  1.7324  1.2418  4.5465
  966MOL0     H30370   4.788   8.610   8.519  1.0980  1.0883 -0.2331
  966MOL0     H30371   5.003   8.711   8.621  1.2762 -0.8548 -1.4986
  966MOL0     H30372   5.410   8.584   8.876  1.7548 -0.1571  2.7239
  966MOL0     H30373   5.567   8.685   9.006 -0.5556  0.1158 -0.1104
  966MOL0     H30374   5.695   8.843   9.143 -0.6594 -1.8107 -1.1381
  966MOL0     H30375   5.777   8.816   8.991 -1.9218 -3.8581  2.3003
  966MOL0     H30376   5.936   8.920   9.112 -0.4840 -1.0986  1.8268
  966MOL0     H30377   5.889   9.051   9.014 -0.7780  1.4534  0.1341
  966MOL0     H30378   5.734   9.136   9.207 -0.4042 -1.1232  2.0639
  966MOL0     H30379   5.825   9.014   9.292  0.6918 -0.5282  0.2578
  966MOL0     H30380   5.987   9.222   9.141 -1.0384 -3.6432 -2.6786
  966MOL0     H30381   6.036   9.130   9.275  0.3652  0.2690 -0.4003
  966MOL0     H30382   5.876   9.256   9.423 -0.3360 -0.4365 -0.2064
  966MOL0     H30383   5.827   9.354   9.292 -0.4972  0.4535  1.4079
  966MOL0     H30384   6.073   9.439   9.275  1.1143  0.0468  0.4723
  966MOL0     H30385   5.992   9.483   9.434  2.5130  1.9785  0.6762
  966MOL0     H30386   6.157   9.234   9.413  0.9949 -0.3092  1.0301
  966MOL0     H30387   6.089   9.336   9.549 -1.2410 -0.3239 -0.8167
  966MOL0     H30388   6.304   9.441   9.348  0.9401 -1.8676  0.8139
  966MOL0     H30389   6.238   9.519   9.495 -2.2038 -0.6044  0.6276
  966MOL0     H30390   5.445   9.069   8.824  0.3076 -1.0255 -0.7116
  966MOL0     H30391   5.287   8.957   8.707 -2.2635  0.2316  2.1710
  966MOL0     H30392   5.197   8.340   8.567 -0.0159 -1.0504 -2.3939
  966MOL0     H30393   4.976   8.242   8.463 -0.8238 -1.1914  2.2094
  966MOL0     H30394   4.155   7.296   8.743 -1.1416 -1.0459 -1.8992
  966MOL0     H30395   4.343   7.150   8.751 -0.5166 -1.5651 -1.4584
  966MOL0     H30396   4.660   6.919   8.572 -0.7934  0.6201  0.2269
  966MOL0     H30397   4.828   6.772   8.680  1.0032  0.0658  1.8692
  966MOL0     H30398   5.224   6.907   8.698  0.3120 -0.3635  1.8307
  966MOL0     H30399   5.134   6.785   8.620 -0.7764  1.6115 -0.9338
  966MOL0     H30400   5.281   6.789   8.893  4.5950 -1.5695 -0.3690
  966MOL0     H30401   5.336   6.695   8.753 -0.9669  1.0332 -2.5970
  966MOL0     H30402   5.166   6.521   8.805  2.2480 -0.7402  1.5140
  966MOL0     H30403   5.066   6.635   8.891  0.7723 -0.4350  2.0638
  966MOL0     H30404   5.338   6.542   8.997  1.2047  2.7649 -1.6364
  966MOL0     H30405   5.216   6.651   9.074  2.1409 -0.3252  0.3900
  966MOL0     H30406   5.044   6.272   9.140  2.2304 -1.6050  0.9030
  966MOL0     H30407   5.075   7.105   8.763  0.3423 -2.4850 -1.3450
  966MOL0     H30408   4.941   7.355   8.571  0.2007  1.7014  0.1289
  966MOL0     H30409   4.837   7.369   8.724  1.6664  1.3225  0.6170
  966MOL0     H30410   5.009   7.338   8.724 -1.4664 -0.0160  1.8764
  967MOL0     O30411   2.751   7.490   1.389 -0.3958  0.0546  0.1644
  967MOL0     C30412   2.772   7.613   1.400  0.5045  0.7729  0.7468
  967MOL0     O30413   2.875   7.675   1.335 -0.8719 -0.5614 -0.1454
  967MOL0     C30414   2.960   7.589   1.265 -0.1422 -0.3677  0.0543
  967MOL0     C30415   2.952   7.567   1.128 -0.2532  0.3972  0.1744
  967MOL0     C30416   3.035   7.474   1.056 -0.0917  0.0477  0.0959
  967MOL0     C30417   3.140   7.414   1.123 -0.0495  0.4027 -0.2521
  967MOL0     O30418   3.244   7.341   1.068  0.8833  0.6835 -0.0305
  967MOL0     C30419   3.362   7.421   1.037  0.2832  0.2918 -0.2579
  967MOL0     C30420   3.482   7.331   1.014  0.2651 -1.2064 -0.0002
  967MOL0     C30421   3.518   7.244   1.126  0.1766  0.3031  0.0173
  967MOL0     C30422   3.572   7.315   1.257 -0.2736 -0.0924 -0.6912
  967MOL0     C30423   3.680   7.424   1.243 -0.0019  0.5751 -0.5241
  967MOL0     C30424   3.806   7.373   1.171 -0.2300  0.0983 -0.6203
  967MOL0     C30425   3.934   7.444   1.191 -0.0835  0.1877 -0.2462
  967MOL0     C30426   4.028   7.425   1.070  0.9452  0.6611 -0.2940
  967MOL0     N30427   4.149   7.503   1.079  0.1323  0.2020  0.0796
  967MOL0     C30428   4.220   7.543   1.190 -0.2265 -0.6076  0.8105
  967MOL0     C30429   4.329   7.613   1.147  0.4953  0.7028  0.4336
  967MOL0     C30430   4.428   7.668   1.234  0.3049  0.1710 -0.9041
  967MOL0     C30431   4.565   7.620   1.183 -0.6610  0.2388  0.4220
  967MOL0     C30432   4.678   7.692   1.266  0.6202  0.9239  0.1031
  967MOL0     C30433   4.814   7.631   1.235  0.5169 -0.2521  0.5507
  967MOL0     O30434   4.858   7.514   1.302  0.0162 -0.3105 -0.4384
  967MOL0     C30435   4.988   7.471   1.291  0.5452 -0.3576 -0.0611
  967MOL0     C30436   5.085   7.529   1.208 -0.2842  0.2373  0.0966
  967MOL0     C30437   5.212   7.480   1.201  0.7486 -0.1861 -0.1905
  967MOL0     C30438   5.251   7.374   1.285  0.0328  0.7465 -0.2689
  967MOL0     C30439   5.391   7.328   1.279 -0.4906  0.4081  0.5932
  967MOL0     O30440   5.422   7.195   1.310  0.1886  0.2643 -0.3107
  967MOL0     C30441   5.550   7.153   1.295  0.7833 -0.6104 -0.7088
  967MOL0     C30442   5.617   7.104   1.414  0.2662 -0.8698 -0.5901
  967MOL0     C30443   5.752   7.077   1.409 -0.2066  0.3714 -0.5870
  967MOL0     C30444   5.826   7.107   1.295  0.1927  0.5131 -1.1795
  967MOL0     O30445   5.963   7.082   1.314  0.2863  0.7856 -0.0925
  967MOL0     C30446   6.024   7.022   1.200  0.0663  0.4735  0.5294
  967MOL0     C30447   6.150   6.940   1.237  0.0306  0.2473  0.0303
  967MOL0     C30448   6.261   7.037   1.270 -0.0021  0.1636 -0.7452
  967MOL0     C30449   6.245   7.126   1.398  0.1409  0.4803 -0.1067
  967MOL0     C30450   6.378   7.207   1.413  0.0860  0.7934 -1.5277
  967MOL0     C30451   6.375   7.291   1.530 -0.5400 -0.4808 -0.6404
  967MOL0     C30452   6.492   7.385   1.530  0.2525  0.1108  0.2222
  967MOL0     C30453   6.615   7.304   1.579  0.1918 -0.1021  0.0159
  967MOL0    Cl30454   6.585   7.261   1.759 -0.0407  0.0742 -0.0599
  967MOL0     C30455   5.769   7.166   1.182  0.3410 -0.2293 -0.8108
  967MOL0     C30456   5.628   7.175   1.178 -1.0618 -0.7141  0.1277
  967MOL0     O30457   5.474   7.411   1.231 -0.3892  0.4916  0.1720
  967MOL0     C30458   5.151   7.323   1.370  0.6361  0.3570  0.2774
  967MOL0     C30459   5.021   7.365   1.373  0.7074  0.5572 -0.6262
  967MOL0     N30460   4.316   7.631   1.005 -0.2712  0.1874 -0.3071
  967MOL0     N30461   4.204   7.570   0.968  0.8349  0.2051 -0.7059
  967MOL0     C30462   3.135   7.426   1.266  0.0744  0.5653  0.1255
  967MOL0     C30463   3.057   7.520   1.338  0.6449  0.3585  0.8623
  967MOL0     C30464   2.661   7.687   1.468 -0.2837 -1.1354  0.2864
  967MOL0     C30465   2.545   7.615   1.509 -0.1094 -0.9812 -0.2161
  967MOL0     C30466   2.432   7.689   1.559 -1.5750  0.6166 -0.0125
  967MOL0     C30467   2.430   7.825   1.569 -0.2830  0.1921  0.2226
  967MOL0     O30468   2.313   7.882   1.607 -0.4414 -0.4302  0.5042
  967MOL0     C30469   2.312   8.023   1.618  0.7248 -0.5233  0.0508
  967MOL0     C30470   2.178   8.064   1.670 -0.2788  0.4797  0.0643
  967MOL0     C30471   2.072   8.059   1.565  0.3792 -1.1519  0.1008
  967MOL0     C30472   1.938   8.104   1.630 -0.6424 -0.9021 -0.7854
  967MOL0     C30473   1.851   8.158   1.528 -0.4248  0.1986 -0.7906
  967MOL0     C30474   1.773   8.208   1.450 -0.0261 -0.1770  0.3297
  967MOL0     C30475   2.554   7.884   1.539  0.0881 -0.3853 -0.3901
  967MOL0     C30476   2.661   7.824   1.477  0.3849  0.3867  1.1975
  967MOL0     C30477   2.782   7.917   1.438 -0.0249  0.1308  0.4590
  967MOL0     H30478   2.876   7.621   1.073  2.1328  0.5812 -3.2360
  967MOL0     H30479   3.040   7.464   0.948  1.5868  0.1605  0.1322
  967MOL0     H30480   3.339   7.474   0.944 -1.6036 -0.0172 -0.0030
  967MOL0     H30481   3.390   7.502   1.104 -1.4783  2.3859 -1.9190
  967MOL0     H30482   3.568   7.391   0.981  0.1293 -0.9973  0.0210
  967MOL0     H30483   3.455   7.277   0.923  2.2061 -1.6588 -0.3592
  967MOL0     H30484   3.590   7.176   1.080 -0.6099  0.8506 -2.1473
  967MOL0     H30485   3.433   7.184   1.163  0.0166  1.2210  1.1907
  967MOL0     H30486   3.487   7.361   1.309  0.4234  0.6287 -0.1626
  967MOL0     H30487   3.618   7.242   1.325 -0.7783  1.9765  2.0827
  967MOL0     H30488   3.648   7.503   1.175  0.9966 -0.2852 -2.0681
  967MOL0     H30489   3.703   7.467   1.340  0.2569 -2.2365  0.7598
  967MOL0     H30490   3.820   7.272   1.210 -0.4933  0.9653  1.9675
  967MOL0     H30491   3.778   7.363   1.066 -2.7900 -2.0028  0.1409
  967MOL0     H30492   3.985   7.408   1.280 -0.6576 -1.9350 -0.7358
  967MOL0     H30493   3.913   7.551   1.204 -1.8566  0.0362 -1.5077
  967MOL0     H30494   4.049   7.318   1.064 -3.7259 -0.5232  0.2136
  967MOL0     H30495   3.962   7.449   0.986 -1.0342 -0.3506  0.9030
  967MOL0     H30496   4.204   7.513   1.293 -3.7283  1.2975  0.9812
  967MOL0     H30497   4.421   7.776   1.222 -0.0564  0.3722  0.8815
  967MOL0     H30498   4.418   7.642   1.340 -1.0550 -0.3525 -1.1408
  967MOL0     H30499   4.572   7.511   1.189 -0.8911  0.2120  0.2430
  967MOL0     H30500   4.573   7.637   1.075 -4.6226 -4.2240 -0.9321
  967MOL0     H30501   4.656   7.682   1.373 -0.7141 -1.3056 -0.3239
  967MOL0     H30502   4.684   7.797   1.234  1.5379  0.3674 -1.6591
  967MOL0     H30503   4.885   7.713   1.252 -1.4100  1.5070  0.6339
  967MOL0     H30504   4.809   7.616   1.126 -0.6344  0.8896  0.4227
  967MOL0     H30505   5.055   7.617   1.151  1.8506  2.4552  2.1885
  967MOL0     H30506   5.278   7.534   1.134 -1.1059  2.2432 -0.2398
  967MOL0     H30507   5.558   7.092   1.504  0.2431  2.5028 -0.0484
  967MOL0     H30508   5.804   7.028   1.492  1.7828  0.1700 -1.8704
  967MOL0     H30509   5.946   6.961   1.154 -0.0083  0.9487  0.0180
  967MOL0     H30510   6.057   7.099   1.130 -0.2258  0.5621  0.4881
  967MOL0     H30511   6.142   6.879   1.327  0.0834 -1.6880 -1.2377
  967MOL0     H30512   6.178   6.880   1.150  2.5722  2.4954 -0.8707
  967MOL0     H30513   6.342   6.964   1.279 -0.9066 -0.9515 -1.4166
  967MOL0     H30514   6.292   7.089   1.179 -1.6043 -0.1010 -1.4742
  967MOL0     H30515   6.227   7.079   1.495 -1.4048  3.9618  1.5005
  967MOL0     H30516   6.158   7.192   1.388 -0.3421  0.2583  2.1921
  967MOL0     H30517   6.387   7.272   1.325  0.7969  5.1267  1.4242
  967MOL0     H30518   6.459   7.136   1.400 -0.8439 -0.3700 -1.1816
  967MOL0     H30519   6.280   7.345   1.532 -0.0674  0.3765 -0.9172
  967MOL0     H30520   6.362   7.230   1.620 -2.3737 -1.9601 -1.8423
  967MOL0     H30521   6.476   7.469   1.597 -0.6165 -0.3905  0.6639
  967MOL0     H30522   6.509   7.428   1.431 -0.7102  1.4608  0.6192
  967MOL0     H30523   6.627   7.211   1.522 -0.8014 -0.5417  0.5022
  967MOL0     H30524   6.704   7.367   1.565 -0.6322  0.3910 -4.7148
  967MOL0     H30525   5.828   7.209   1.101  0.2932  2.6936  0.5635
  967MOL0     H30526   5.580   7.227   1.095  0.5835 -0.4948 -0.7216
  967MOL0     H30527   5.173   7.239   1.436  1.0081 -0.5223 -0.9377
  967MOL0     H30528   4.941   7.321   1.432  1.4864 -1.2617 -0.8595
  967MOL0     H30529   3.207   7.363   1.317 -1.0384 -1.1041 -0.2764
  967MOL0     H30530   3.078   7.518   1.444 -0.9665 -3.0080  1.2402
  967MOL0     H30531   2.540   7.507   1.512 -0.5661 -0.9420  1.5173
  967MOL0     H30532   2.337   7.639   1.574 -2.5409  2.2883 -0.3187
  967MOL0     H30533   2.317   8.067   1.517 -3.3243  0.2518  0.0192
  967MOL0     H30534   2.387   8.061   1.689 -0.7968 -1.1076  2.0411
  967MOL0     H30535   2.190   8.160   1.721  6.2089 -0.0271  0.3663
  967MOL0     H30536   2.158   7.991   1.749 -0.6088  1.2275  0.6788
  967MOL0     H30537   2.063   7.958   1.523  0.2528 -1.3275  0.5527
  967MOL0     H30538   2.099   8.114   1.474 -0.0911 -2.6328 -0.9833
  967MOL0     H30539   1.900   8.012   1.676 -1.7331 -0.6921 -1.2492
  967MOL0     H30540   1.955   8.187   1.700  1.8835 -1.5647 -0.5072
  967MOL0     H30541   1.708   8.237   1.370  4.3848  0.6546 -3.3910
  967MOL0     H30542   2.549   7.993   1.538 -2.3436 -0.3224  2.3815
  967MOL0     H30543   2.767   8.021   1.469  2.5653  0.1404  1.9497
  967MOL0     H30544   2.873   7.892   1.494  0.7207  0.9861 -0.3288
  967MOL0     H30545   2.813   7.909   1.334 -0.4359 -5.1569  0.4866
  968MOL0     O30546   5.328   7.415   7.810  0.3114 -0.6146 -0.0952
  968MOL0     C30547   5.262   7.520   7.807  0.7729  0.0487  0.0929
  968MOL0     O30548   5.307   7.648   7.820 -0.1130 -0.2611  0.4201
  968MOL0     C30549   5.438   7.667   7.857 -0.2942  0.5672 -1.1834
  968MOL0     C30550   5.544   7.597   7.787  0.0613 -0.0478 -1.2942
  968MOL0     C30551   5.674   7.600   7.843  0.1408  0.0834 -0.2503
  968MOL0     C30552   5.703   7.681   7.954 -0.9334  0.6051  0.3988
  968MOL0     O30553   5.835   7.674   7.987  0.3656  0.1143  0.1446
  968MOL0     C30554   5.878   7.778   8.069 -0.4122 -0.8425 -0.6701
  968MOL0     C30555   6.029   7.780   8.079  0.3570 -0.0751 -0.4303
  968MOL0     C30556   6.087   7.652   8.123 -0.4828 -0.1784  0.2011
  968MOL0     C30557   6.235   7.639   8.175 -0.4124  0.4831  0.1057
  968MOL0     C30558   6.282   7.488   8.185  0.1268  0.1897  0.5992
  968MOL0     C30559   6.411   7.468   8.265 -0.8883  0.5026  0.4860
  968MOL0     C30560   6.439   7.322   8.263 -0.1890  0.3875 -0.2498
  968MOL0     C30561   6.595   7.280   8.270  0.3644 -0.3042 -0.0358
  968MOL0     N30562   6.608   7.136   8.309 -0.3283  0.1116 -0.4247
  968MOL0     C30563   6.716   7.091   8.388 -0.9404 -0.5350 -0.3559
  968MOL0     C30564   6.714   6.961   8.363 -0.6140  0.5365 -1.1026
  968MOL0     C30565   6.803   6.847   8.413 -0.1292 -0.6819 -0.3638
  968MOL0     C30566   6.928   6.812   8.330 -0.2893 -0.4690 -0.0437
  968MOL0     C30567   6.997   6.948   8.290  0.7832  0.0525 -0.3326
  968MOL0     C30568   7.141   6.926   8.233  0.3668  0.5489 -0.3883
  968MOL0     O30569   7.227   6.862   8.328 -0.2367  0.8587 -0.3537
  968MOL0     C30570   7.341   6.798   8.279  1.0274  0.0074 -0.7156
  968MOL0     C30571   7.393   6.805   8.147  0.1104 -0.7462  0.7500
  968MOL0     C30572   7.516   6.745   8.110 -0.4518 -0.0725 -0.4030
  968MOL0     C30573   7.588   6.669   8.210  0.4302 -0.1274 -0.5086
  968MOL0     C30574   7.704   6.585   8.174 -0.3035  0.4524  0.9958
  968MOL0     O30575   7.781   6.533   8.274  0.8438 -0.3886 -0.7654
  968MOL0     C30576   7.860   6.429   8.238  0.2738 -0.4265  0.1662
  968MOL0     C30577   7.983   6.438   8.173 -0.1523  0.2643 -0.7081
  968MOL0     C30578   8.055   6.324   8.141 -0.7207 -0.1405 -0.1877
  968MOL0     C30579   7.989   6.205   8.143 -0.4509 -0.3470 -0.5418
  968MOL0     O30580   8.067   6.093   8.114 -0.4965 -0.4576 -0.4812
  968MOL0     C30581   8.040   6.003   8.005  0.3144  0.5421 -0.2917
  968MOL0     C30582   8.157   6.011   7.898  0.0180 -0.6851 -0.6846
  968MOL0     C30583   8.281   5.947   7.941  0.6006 -0.6287 -0.4883
  968MOL0     C30584   8.368   5.921   7.820  0.6551 -0.2855 -0.2225
  968MOL0     C30585   8.509   5.874   7.859  0.7074  0.1522 -0.6967
  968MOL0     C30586   8.582   5.842   7.728 -0.5013 -0.6515  0.1624
  968MOL0     C30587   8.732   5.852   7.737  0.6043  0.2839  0.3859
  968MOL0     C30588   8.803   5.768   7.625 -0.1774  0.0600  0.5141
  968MOL0    Cl30589   8.977   5.769   7.663  0.1978 -0.1174  0.2616
  968MOL0     C30590   7.859   6.194   8.188  0.7356 -0.4197 -0.8758
  968MOL0     C30591   7.789   6.304   8.229 -1.3824 -0.7680 -0.6529
  968MOL0     O30592   7.719   6.562   8.053 -0.7282 -0.1022  0.4872
  968MOL0     C30593   7.534   6.664   8.344  0.3351  0.3251  0.5789
  968MOL0     C30594   7.418   6.731   8.374  0.1394 -0.1364  0.8075
  968MOL0     N30595   6.606   6.922   8.291  0.1964 -0.3263  0.4516
  968MOL0     N30596   6.550   7.029   8.250 -0.2962 -0.1308  0.1676
  968MOL0     C30597   5.602   7.763   8.004  0.2581 -0.0528  0.0381
  968MOL0     C30598   5.467   7.754   7.962  0.2335  0.0089  0.2924
  968MOL0     C30599   5.117   7.489   7.796  0.1674 -0.4257  0.2965
  968MOL0     C30600   5.026   7.579   7.856 -1.0779  0.0298 -0.0658
  968MOL0     C30601   4.889   7.549   7.855 -1.1477  0.0109  0.2151
  968MOL0     C30602   4.835   7.431   7.799  0.1539  0.1373  0.2697
  968MOL0     O30603   4.708   7.391   7.799  0.5725  0.5143  0.1348
  968MOL0     C30604   4.616   7.466   7.884 -0.5567 -0.0708  0.0168
  968MOL0     C30605   4.470   7.409   7.883 -0.1518  0.3402 -0.3675
  968MOL0     C30606   4.469   7.287   7.971 -0.3773 -0.2288 -0.1150
  968MOL0     C30607   4.454   7.155   7.890 -0.4000  0.1168  0.0292
  968MOL0     C30608   4.333   7.152   7.806 -1.0240  0.1117  0.0524
  968MOL0     C30609   4.225   7.130   7.746 -0.7920 -0.1976 -0.4241
  968MOL0     C30610   4.924   7.350   7.729  0.0664 -0.6475 -0.6521
  968MOL0     C30611   5.064   7.371   7.725 -0.0502 -0.2610 -0.4700
  968MOL0     C30612   5.144   7.263   7.652  0.0784  0.2421 -0.6071
  968MOL0     H30613   5.525   7.532   7.702 -1.2106 -2.4543  0.7137
  968MOL0     H30614   5.756   7.551   7.790 -0.0841 -1.2416  0.5833
  968MOL0     H30615   5.848   7.878   8.037  1.1629 -0.3933 -0.8478
  968MOL0     H30616   5.841   7.760   8.171  2.4997 -0.4034  0.5704
  968MOL0     H30617   6.046   7.858   8.154  1.0751 -1.3962  0.8226
  968MOL0     H30618   6.064   7.812   7.980 -0.4986  1.1764 -0.3519
  968MOL0     H30619   6.075   7.582   8.040  2.1760 -1.3483  0.7099
  968MOL0     H30620   6.038   7.611   8.212  0.9406 -1.1578  0.5623
  968MOL0     H30621   6.308   7.686   8.108 -0.4943  0.4224 -0.0256
  968MOL0     H30622   6.224   7.693   8.270 -0.1453 -2.1559  1.7182
  968MOL0     H30623   6.202   7.429   8.232  0.7001  0.0223  1.3959
  968MOL0     H30624   6.295   7.446   8.085 -1.2896 -5.2859  2.3150
  968MOL0     H30625   6.495   7.518   8.215 -1.7228  2.3655  0.8692
  968MOL0     H30626   6.405   7.512   8.366  0.8111 -0.0356  0.8635
  968MOL0     H30627   6.391   7.272   8.179  1.0364 -0.8300 -0.2543
  968MOL0     H30628   6.387   7.281   8.350  1.0631 -2.2224 -0.6297
  968MOL0     H30629   6.640   7.298   8.172  0.4243 -2.4649 -0.4653
  968MOL0     H30630   6.654   7.343   8.337  2.8888  0.1866 -2.5516
  968MOL0     H30631   6.793   7.143   8.442  0.3746 -0.4380 -2.2231
  968MOL0     H30632   6.834   6.873   8.514 -0.2676 -1.0378 -0.2278
  968MOL0     H30633   6.743   6.757   8.429 -2.7059  1.1085  0.7844
  968MOL0     H30634   6.991   6.747   8.391 -1.2037 -2.0840 -0.7618
  968MOL0     H30635   6.910   6.758   8.237 -0.1780  0.9087 -0.8976
  968MOL0     H30636   6.990   7.012   8.379 -1.5371 -1.9734  1.0956
  968MOL0     H30637   6.941   6.986   8.204 -0.7290 -0.6798  0.2869
  968MOL0     H30638   7.176   7.030   8.230 -0.8682  1.0595  1.3600
  968MOL0     H30639   7.141   6.874   8.137  2.3491 -0.2825  0.0207
  968MOL0     H30640   7.344   6.863   8.068  1.2838  0.9117  1.1970
  968MOL0     H30641   7.542   6.758   8.005 -2.6077  3.4386 -0.6735
  968MOL0     H30642   8.035   6.533   8.175 -0.8483  0.7004  2.2877
  968MOL0     H30643   8.159   6.326   8.111 -1.0880  1.4855 -1.5121
  968MOL0     H30644   8.022   5.901   8.039 -0.9469  0.4933 -1.0400
  968MOL0     H30645   7.946   6.038   7.960 -0.5921  1.8386  2.3713
  968MOL0     H30646   8.122   5.971   7.803 -0.0764  0.3338 -1.0874
  968MOL0     H30647   8.176   6.117   7.879 -1.8711 -0.0789  0.5102
  968MOL0     H30648   8.336   6.017   8.005  4.1567 -1.5623 -2.2110
  968MOL0     H30649   8.263   5.852   7.992 -1.2355 -0.4673 -0.7675
  968MOL0     H30650   8.382   6.015   7.765  0.6949  0.7509  1.4961
  968MOL0     H30651   8.329   5.848   7.748  0.4661  0.2762 -0.7041
  968MOL0     H30652   8.507   5.792   7.931 -2.0938  0.7242  0.0053
  968MOL0     H30653   8.546   5.961   7.913 -1.4285 -0.1444  1.3952
  968MOL0     H30654   8.560   5.738   7.702  2.4115 -1.0846 -0.9492
  968MOL0     H30655   8.556   5.910   7.646 -0.8387 -0.7699  0.1696
  968MOL0     H30656   8.765   5.802   7.829  1.9673 -4.7820 -2.4690
  968MOL0     H30657   8.767   5.956   7.739  2.3266 -0.2656  0.6827
  968MOL0     H30658   8.772   5.664   7.637  1.9691 -1.2725 -3.5244
  968MOL0     H30659   8.771   5.786   7.522 -4.0852  0.5420  1.6445
  968MOL0     H30660   7.800   6.103   8.197 -0.6299  0.6225  1.7361
  968MOL0     H30661   7.690   6.292   8.272 -0.7219  0.8734  1.4780
  968MOL0     H30662   7.585   6.605   8.419 -0.3443 -0.0808  0.7214
  968MOL0     H30663   7.383   6.729   8.477 -0.7839  1.8307  0.5878
  968MOL0     H30664   5.634   7.837   8.076 -3.3708  1.1285  0.6245
  968MOL0     H30665   5.391   7.812   8.013  1.6100 -0.9778  3.7150
  968MOL0     H30666   5.061   7.667   7.907 -0.7324 -1.3654  2.2256
  968MOL0     H30667   4.827   7.623   7.904  0.6680  1.2451  0.7609
  968MOL0     H30668   4.604   7.569   7.850 -0.9013 -0.7979 -2.2567
  968MOL0     H30669   4.641   7.482   7.989  0.9677  1.1972 -0.5030
  968MOL0     H30670   4.436   7.396   7.780 -1.9101  0.5352  0.1489
  968MOL0     H30671   4.410   7.489   7.927  0.0780  0.3126 -0.0013
  968MOL0     H30672   4.394   7.285   8.051  2.1372 -0.5512  2.3893
  968MOL0     H30673   4.560   7.271   8.030  0.4871  1.7113 -0.8231
  968MOL0     H30674   4.537   7.151   7.819 -0.7218 -2.6775 -0.2828
  968MOL0     H30675   4.451   7.073   7.962  1.3138  0.2103  0.2462
  968MOL0     H30676   4.127   7.119   7.704  0.0093  1.9815 -3.1820
  968MOL0     H30677   4.883   7.264   7.679 -2.2808  0.8466 -1.4557
  968MOL0     H30678   5.200   7.200   7.720  1.3807  2.8591  0.8838
  968MOL0     H30679   5.084   7.201   7.585  1.9276 -0.7186 -1.4366
  968MOL0     H30680   5.215   7.315   7.587 -0.8748  2.8029  0.2553
  969MOL0     O30681   0.561   4.656   8.685  0.1780  0.4896  0.5614
  969MOL0     C30682   0.500   4.724   8.768  0.2239  0.4685 -0.1783
  969MOL0     O30683   0.555   4.802   8.864 -0.5846 -0.1722 -0.6600
  969MOL0     C30684   0.687   4.791   8.865 -0.9215  0.4693 -0.3398
  969MOL0     C30685   0.754   4.702   8.957  0.2659  0.1022  0.5852
  969MOL0     C30686   0.891   4.701   8.959  0.7919 -0.4575  0.8068
  969MOL0     C30687   0.970   4.777   8.871  0.1426 -0.7296 -0.1221
  969MOL0     O30688   1.105   4.768   8.868 -1.0329 -0.2026 -0.1822
  969MOL0     C30689   1.178   4.736   8.749  0.0832 -0.4601 -0.2809
  969MOL0     C30690   1.321   4.709   8.786  0.4363 -0.7801  0.0131
  969MOL0     C30691   1.402   4.831   8.832 -0.0637 -0.2305  0.1728
  969MOL0     C30692   1.545   4.795   8.866  0.2149 -1.9340  0.1476
  969MOL0     C30693   1.598   4.916   8.939 -0.6937  0.6504 -0.9992
  969MOL0     C30694   1.752   4.914   8.953  0.2614  0.5745 -0.1205
  969MOL0     C30695   1.797   4.811   9.060  0.1027 -0.5141  0.2817
  969MOL0     C30696   1.946   4.784   9.056  0.0534  0.7501 -0.2378
  969MOL0     N30697   2.025   4.912   9.086  0.1242 -0.1737 -0.4395
  969MOL0     C30698   2.047   4.962   9.212  0.6085 -0.9185  0.4844
  969MOL0     C30699   2.161   5.032   9.204 -0.3185 -0.6890  0.5610
  969MOL0     C30700   2.219   5.099   9.317  0.3725 -0.4312  0.4696
  969MOL0     C30701   2.292   5.003   9.403  0.2446  0.3414 -0.7361
  969MOL0     C30702   2.369   5.069   9.525  0.5973 -0.6096  0.4835
  969MOL0     C30703   2.481   4.972   9.569 -0.4807 -0.1749  0.3655
  969MOL0     O30704   2.594   4.961   9.477  0.2200  0.1945  0.3748
  969MOL0     C30705   2.662   5.077   9.446 -0.2450 -1.0509  0.7040
  969MOL0     C30706   2.758   5.130   9.532  0.5678 -0.1379  0.9463
  969MOL0     C30707   2.822   5.251   9.504 -0.0687  0.1790  0.5927
  969MOL0     C30708   2.792   5.319   9.381  0.2191  0.6477  0.3811
  969MOL0     C30709   2.860   5.448   9.344  0.0033  0.5380  0.7600
  969MOL0     O30710   2.794   5.540   9.266  0.0336 -0.2669 -0.2474
  969MOL0     C30711   2.868   5.647   9.235 -0.5737  0.1157  0.0429
  969MOL0     C30712   2.822   5.778   9.229  0.7152  0.1716  0.8572
  969MOL0     C30713   2.903   5.889   9.194 -0.6079  0.1489 -0.0723
  969MOL0     C30714   3.040   5.870   9.161  0.7732 -0.8095 -0.1100
  969MOL0     O30715   3.127   5.970   9.124 -0.6822  0.5517  0.0136
  969MOL0     C30716   3.140   6.077   9.216  0.1011 -1.1104  0.1581
  969MOL0     C30717   3.266   6.178   9.190  0.6869  0.5042  0.3797
  969MOL0     C30718   3.403   6.111   9.192  0.0846  0.2562  0.4108
  969MOL0     C30719   3.515   6.208   9.192  0.3937 -0.1566 -0.5316
  969MOL0     C30720   3.651   6.133   9.219 -0.5190  0.1711 -0.6015
  969MOL0     C30721   3.773   6.218   9.172  1.1897  0.5693  0.7003
  969MOL0     C30722   3.906   6.144   9.204 -0.0726  0.2793  0.1740
  969MOL0     C30723   4.016   6.243   9.181  0.0108 -0.4019  0.0200
  969MOL0    Cl30724   4.033   6.377   9.298 -0.2788  0.1189 -0.1746
  969MOL0     C30725   3.086   5.739   9.164 -0.0267 -0.6641  0.4178
  969MOL0     C30726   3.004   5.632   9.199  0.1054  0.3221  0.8758
  969MOL0     O30727   2.953   5.469   9.420  0.1356  0.1675 -0.2143
  969MOL0     C30728   2.706   5.262   9.283 -0.5613  0.3399 -0.8513
  969MOL0     C30729   2.643   5.143   9.319 -0.0464  0.4021 -0.2191
  969MOL0     N30730   2.210   5.028   9.070  0.2243 -0.9201 -0.6149
  969MOL0     N30731   2.119   4.960   9.002  0.1652  0.3252  0.2454
  969MOL0     C30732   0.900   4.859   8.782  0.6084 -0.4333 -0.4780
  969MOL0     C30733   0.763   4.872   8.780  0.1143  0.1701 -0.8412
  969MOL0     C30734   0.348   4.719   8.775 -0.3763  0.1518 -0.4758
  969MOL0     C30735   0.287   4.820   8.845  0.0602  0.9314  0.1991
  969MOL0     C30736   0.146   4.835   8.831  0.0813 -0.2051 -1.3210
  969MOL0     C30737   0.061   4.746   8.764  0.0410 -0.5583 -0.6015
  969MOL0     O30738  -0.074   4.778   8.760 -0.4722 -0.8242  0.3687
  969MOL0     C30739  -0.140   4.761   8.635 -0.6123 -0.0027  0.8066
  969MOL0     C30740  -0.288   4.776   8.639  0.1225  0.0804 -0.5419
  969MOL0     C30741  -0.351   4.736   8.504  0.0255  0.3266 -0.2711
  969MOL0     C30742  -0.496   4.751   8.487  0.1594 -0.2990 -0.0024
  969MOL0     C30743  -0.569   4.656   8.568 -0.0540  0.3921 -0.6074
  969MOL0     C30744  -0.613   4.556   8.627  0.3365 -0.5812  0.3576
  969MOL0     C30745   0.131   4.639   8.699 -0.1694  0.0821 -0.7964
  969MOL0     C30746   0.272   4.625   8.704 -0.3356 -0.4789 -0.6581
  969MOL0     C30747   0.331   4.506   8.643 -1.0365  0.1809  0.1940
  969MOL0     H30748   0.689   4.645   9.022 -0.3378  1.8916  1.6329
  969MOL0     H30749   0.942   4.638   9.031 -1.2199 -2.3712  0.6341
  969MOL0     H30750   1.127   4.651   8.702 -0.9741 -0.0092  0.0110
  969MOL0     H30751   1.179   4.822   8.681  0.4827 -1.3013 -1.3681
  969MOL0     H30752   1.376   4.668   8.700 -0.5004  2.4188 -2.2875
  969MOL0     H30753   1.327   4.631   8.863 -0.1906 -1.8586 -0.9889
  969MOL0     H30754   1.356   4.886   8.915 -1.0795  0.4627 -0.8172
  969MOL0     H30755   1.400   4.904   8.750 -2.6583 -0.8391 -0.3926
  969MOL0     H30756   1.550   4.702   8.924 -0.6058 -1.7014  0.5955
  969MOL0     H30757   1.599   4.774   8.773 -0.1237 -1.1651 -0.2305
  969MOL0     H30758   1.575   5.009   8.887 -0.0578  1.2382 -0.2510
  969MOL0     H30759   1.542   4.917   9.033 -2.1747  0.0589 -1.8409
  969MOL0     H30760   1.803   4.889   8.860 -0.4506  0.0240 -0.3733
  969MOL0     H30761   1.793   5.012   8.978 -0.1379  0.9128 -0.7653
  969MOL0     H30762   1.741   4.720   9.038  1.0913 -0.4189 -3.0676
  969MOL0     H30763   1.779   4.862   9.156  2.8934 -0.4027  0.8227
  969MOL0     H30764   1.978   4.712   9.132  4.0413  2.6926  0.1956
  969MOL0     H30765   1.973   4.749   8.956 -0.3427 -2.8523  0.8018
  969MOL0     H30766   1.982   4.956   9.300  0.8245  1.0732  0.8297
  969MOL0     H30767   2.291   5.176   9.291 -2.4103  1.5192 -2.1202
  969MOL0     H30768   2.137   5.127   9.385  2.3431  0.5659  2.5780
  969MOL0     H30769   2.221   4.929   9.441  0.7287 -0.2824 -1.0316
  969MOL0     H30770   2.369   4.954   9.344  1.7927 -0.3291  1.6915
  969MOL0     H30771   2.297   5.099   9.601 -0.1812  0.0280 -0.4884
  969MOL0     H30772   2.421   5.161   9.494  0.8240 -1.3011 -1.3168
  969MOL0     H30773   2.439   4.874   9.592  4.2403 -2.7400 -0.7129
  969MOL0     H30774   2.510   5.024   9.661 -2.4385 -2.5164  2.4325
  969MOL0     H30775   2.773   5.080   9.627 -0.5341 -1.5902  0.3876
  969MOL0     H30776   2.878   5.308   9.578  1.6317  0.2019 -0.6388
  969MOL0     H30777   2.719   5.800   9.256  0.3191 -0.2561 -0.2727
  969MOL0     H30778   2.852   5.985   9.190 -1.2292 -0.0862  1.4429
  969MOL0     H30779   3.051   6.140   9.208 -0.2051 -1.3421  1.4872
  969MOL0     H30780   3.138   6.036   9.317 -1.9799 -0.8366  0.2786
  969MOL0     H30781   3.273   6.216   9.088 -2.2402 -0.9450 -0.4691
  969MOL0     H30782   3.254   6.270   9.248 -0.7101  0.5982 -0.0357
  969MOL0     H30783   3.416   6.051   9.283  0.5860 -1.0912 -0.5308
  969MOL0     H30784   3.411   6.045   9.106 -1.8748  1.9101 -1.1501
  969MOL0     H30785   3.516   6.276   9.277  2.4065 -1.7667  0.8063
  969MOL0     H30786   3.516   6.261   9.096  0.2644  0.0641 -0.4106
  969MOL0     H30787   3.641   6.036   9.169  1.9156 -0.7506  0.5321
  969MOL0     H30788   3.667   6.107   9.324  0.9961  2.5555 -0.1614
  969MOL0     H30789   3.756   6.245   9.067  0.6047  1.6923  1.0664
  969MOL0     H30790   3.773   6.316   9.219 -0.0436  0.6879  0.4909
  969MOL0     H30791   3.916   6.053   9.144  0.4458 -0.3795  1.2312
  969MOL0     H30792   3.909   6.123   9.312  0.6916  0.7465  0.2494
  969MOL0     H30793   4.111   6.189   9.169  0.2572 -0.3999  1.7340
  969MOL0     H30794   3.994   6.298   9.089 -1.9711 -1.2828 -0.0853
  969MOL0     H30795   3.187   5.733   9.125 -0.4446  0.8105 -1.0421
  969MOL0     H30796   3.043   5.533   9.184 -0.6753  0.0985  0.2590
  969MOL0     H30797   2.696   5.301   9.182 -1.3728 -2.3304 -1.9156
  969MOL0     H30798   2.574   5.112   9.240  0.5946  3.6205 -2.2447
  969MOL0     H30799   0.945   4.918   8.703  0.4104  1.3978  0.7302
  969MOL0     H30800   0.708   4.934   8.710 -2.9273  0.6416  1.7152
  969MOL0     H30801   0.343   4.890   8.906  0.5378 -2.0687  3.5062
  969MOL0     H30802   0.097   4.909   8.893 -1.6106 -3.6027  1.7679
  969MOL0     H30803  -0.115   4.658   8.607  2.7691  0.5331  1.3842
  969MOL0     H30804  -0.100   4.833   8.564  1.1216  0.5724  2.2875
  969MOL0     H30805  -0.304   4.883   8.653 -1.3713 -0.0249 -1.2832
  969MOL0     H30806  -0.328   4.717   8.722 -0.9324  2.6515  0.8992
  969MOL0     H30807  -0.318   4.632   8.496  3.0923  1.1203  0.8889
  969MOL0     H30808  -0.311   4.782   8.413  1.2301 -0.5835 -0.2334
  969MOL0     H30809  -0.529   4.850   8.519  0.1251  0.2757 -1.7242
  969MOL0     H30810  -0.525   4.730   8.383 -1.7092  2.6492 -0.2140
  969MOL0     H30811  -0.650   4.464   8.666  1.5097 -0.7677  1.0818
  969MOL0     H30812   0.077   4.571   8.634  1.3225 -1.2559 -0.6981
  969MOL0     H30813   0.247   4.438   8.625 -2.9439  2.3018  0.6619
  969MOL0     H30814   0.383   4.515   8.547  1.1461 -0.3963  1.2575
  969MOL0     H30815   0.396   4.460   8.718 -1.1167  2.8382  2.0178
  970MOL0     O30816   1.626   1.017   2.771  0.2037 -0.0332  0.2281
  970MOL0     C30817   1.635   1.102   2.688  0.2503  0.6625  0.5109
  970MOL0     O30818   1.711   1.208   2.704  0.6203 -0.2180  0.1497
  970MOL0     C30819   1.792   1.214   2.813  0.1457 -0.7979 -0.8435
  970MOL0     C30820   1.805   1.349   2.855 -0.2866  0.1778 -0.4526
  970MOL0     C30821   1.894   1.373   2.965 -0.0272 -0.3136 -0.4658
  970MOL0     C30822   1.970   1.269   3.028 -0.1344  0.4268  0.1383
  970MOL0     O30823   2.050   1.278   3.139  0.4584 -0.6587 -0.4044
  970MOL0     C30824   1.998   1.367   3.242 -0.1781  0.0691 -0.9325
  970MOL0     C30825   2.089   1.375   3.354 -0.6881 -0.7325  0.0554
  970MOL0     C30826   2.235   1.413   3.322  0.6008  0.2356 -1.3687
  970MOL0     C30827   2.305   1.440   3.458  0.6780  0.5926  0.2092
  970MOL0     C30828   2.451   1.487   3.439  0.7138  0.5037 -0.8697
  970MOL0     C30829   2.522   1.536   3.567 -0.2167 -0.3163 -1.0669
  970MOL0     C30830   2.659   1.588   3.540 -0.1549 -0.0524 -0.2305
  970MOL0     C30831   2.739   1.596   3.670  0.2963 -0.3503 -0.1527
  970MOL0     N30832   2.888   1.610   3.647  0.0942  0.5567 -0.4493
  970MOL0     C30833   2.983   1.516   3.611  0.6897 -0.6345  0.0972
  970MOL0     C30834   3.103   1.580   3.625  0.2213 -0.1185  0.4038
  970MOL0     C30835   3.227   1.519   3.566 -0.1792 -0.2566 -0.0013
  970MOL0     C30836   3.361   1.590   3.581  0.0182 -0.6406 -0.0496
  970MOL0     C30837   3.411   1.579   3.727 -0.3701 -0.2153  0.1059
  970MOL0     C30838   3.531   1.671   3.765 -0.2921 -0.2090 -0.4859
  970MOL0     O30839   3.646   1.634   3.682  0.0767 -0.0570  0.0313
  970MOL0     C30840   3.761   1.712   3.684  0.8208  0.7035  0.3332
  970MOL0     C30841   3.775   1.827   3.760 -0.4178 -0.3862 -0.8132
  970MOL0     C30842   3.898   1.889   3.769  0.6962 -0.0962  0.5887
  970MOL0     C30843   4.019   1.842   3.701  0.5407 -1.1143 -0.8018
  970MOL0     C30844   4.145   1.918   3.716 -0.2993 -0.1688  0.0363
  970MOL0     O30845   4.260   1.870   3.653  0.1549 -0.1937  0.0575
  970MOL0     C30846   4.371   1.939   3.662 -0.8665  0.7026 -0.4117
  970MOL0     C30847   4.421   2.009   3.551 -0.5220 -0.3232 -0.3876
  970MOL0     C30848   4.545   2.081   3.556 -0.3683  0.6830 -0.6083
  970MOL0     C30849   4.621   2.068   3.671  0.0344 -0.3436 -0.1693
  970MOL0     O30850   4.749   2.112   3.664  0.2207  0.3831 -0.4428
  970MOL0     C30851   4.841   2.082   3.770  0.1974  0.2891  0.8893
  970MOL0     C30852   4.974   2.153   3.739  0.4782  0.6499  0.3719
  970MOL0     C30853   5.084   2.129   3.844  0.1613  0.1990 -0.6924
  970MOL0     C30854   5.210   2.205   3.797 -0.0467 -0.0497  0.2122
  970MOL0     C30855   5.339   2.156   3.868  0.0405  0.0739  0.0287
  970MOL0     C30856   5.454   2.261   3.891  0.4482 -0.0009 -0.1585
  970MOL0     C30857   5.410   2.377   3.987 -0.6879  0.1572 -0.2724
  970MOL0     C30858   5.360   2.347   4.126 -0.7197  0.0156 -0.0135
  970MOL0    Cl30859   5.308   2.510   4.189  0.2333  0.1217 -0.0237
  970MOL0     C30860   4.564   1.998   3.786 -0.2745 -0.4258  0.0775
  970MOL0     C30861   4.443   1.933   3.783 -0.3319 -0.8379  0.1388
  970MOL0     O30862   4.137   2.003   3.808 -0.0685 -0.2977  0.3668
  970MOL0     C30863   3.997   1.722   3.633  0.4718 -0.8784 -0.3818
  970MOL0     C30864   3.873   1.660   3.618 -0.4308  0.5013 -0.5272
  970MOL0     N30865   3.070   1.714   3.668  0.6227  0.9052 -0.5613
  970MOL0     N30866   2.947   1.726   3.691 -0.1757 -0.6702  0.6193
  970MOL0     C30867   1.960   1.141   2.975 -0.2359  0.4817 -0.5522
  970MOL0     C30868   1.867   1.107   2.874  0.2465 -0.5510  0.6168
  970MOL0     C30869   1.539   1.104   2.572  0.1589 -0.3990  0.2259
  970MOL0     C30870   1.518   1.232   2.511 -0.4357  0.1337 -0.4115
  970MOL0     C30871   1.415   1.258   2.424 -0.0522 -0.7105  0.5724
  970MOL0     C30872   1.324   1.156   2.386  0.2532  1.1969 -0.1823
  970MOL0     O30873   1.231   1.190   2.294  0.0366 -0.1035 -0.3743
  970MOL0     C30874   1.133   1.089   2.259 -0.3067 -0.1722  0.3888
  970MOL0     C30875   1.045   1.173   2.167 -0.3894  1.2213 -0.9615
  970MOL0     C30876   0.984   1.295   2.244  1.0527  0.5272 -0.4538
  970MOL0     C30877   0.896   1.374   2.144 -0.4346 -0.0604 -0.3532
  970MOL0     C30878   0.832   1.495   2.199  0.3219 -0.0429  0.9754
  970MOL0     C30879   0.793   1.599   2.240  0.4490 -0.2041 -0.8049
  970MOL0     C30880   1.340   1.032   2.454  0.1263  0.7251  0.6814
  970MOL0     C30881   1.450   1.003   2.537  0.0247  0.0539  0.3940
  970MOL0     C30882   1.461   0.861   2.583  0.3388 -0.6155  0.0423
  970MOL0     H30883   1.753   1.438   2.823  0.4259  0.0922 -1.9428
  970MOL0     H30884   1.913   1.477   2.991 -1.5358 -0.0608 -0.2920
  970MOL0     H30885   1.985   1.467   3.198 -1.0513  0.6992  0.6745
  970MOL0     H30886   1.900   1.329   3.272 -0.0434 -0.3118 -0.9788
  970MOL0     H30887   2.109   1.283   3.409  1.1280  0.2584  1.1824
  970MOL0     H30888   2.047   1.455   3.416  1.6675  2.4770 -2.1073
  970MOL0     H30889   2.228   1.500   3.255 -1.0200 -0.0069 -1.5556
  970MOL0     H30890   2.280   1.328   3.270 -0.8802 -0.5405 -1.4327
  970MOL0     H30891   2.253   1.522   3.509 -1.9108 -0.2972 -0.8703
  970MOL0     H30892   2.299   1.349   3.518 -1.0921 -0.8923 -2.0719
  970MOL0     H30893   2.515   1.409   3.396  1.6779  1.8744 -2.0656
  970MOL0     H30894   2.450   1.562   3.358 -1.0907  0.5112 -0.8677
  970MOL0     H30895   2.467   1.618   3.615  0.8068  0.5000 -1.2590
  970MOL0     H30896   2.530   1.452   3.637 -1.3401 -1.3990 -2.1954
  970MOL0     H30897   2.652   1.690   3.501  0.5837 -0.6889 -2.1792
  970MOL0     H30898   2.715   1.527   3.469 -0.6684  0.8442 -1.4461
  970MOL0     H30899   2.710   1.680   3.733 -0.0636  0.1560 -0.9781
  970MOL0     H30900   2.724   1.501   3.723  2.6708 -1.1732 -0.7926
  970MOL0     H30901   2.967   1.415   3.575 -3.0203  0.2931 -1.3226
  970MOL0     H30902   3.225   1.415   3.600 -0.6098  0.1056  1.1443
  970MOL0     H30903   3.208   1.513   3.458 -1.0217  1.2443  0.0343
  970MOL0     H30904   3.433   1.554   3.507  1.4545  1.3231  0.3111
  970MOL0     H30905   3.339   1.696   3.569 -2.5778 -0.7882  2.3268
  970MOL0     H30906   3.439   1.475   3.744 -0.6852 -0.1446  1.0838
  970MOL0     H30907   3.337   1.612   3.799 -0.7217  0.2418 -0.4539
  970MOL0     H30908   3.554   1.652   3.870 -3.4913 -3.7771 -0.2280
  970MOL0     H30909   3.503   1.773   3.740  0.3888 -0.0595 -0.6658
  970MOL0     H30910   3.697   1.875   3.819 -0.0760 -0.6884 -0.1068
  970MOL0     H30911   3.904   1.972   3.839 -0.4941  0.9563 -0.5051
  970MOL0     H30912   4.367   1.990   3.459 -0.3346 -1.6151 -0.2508
  970MOL0     H30913   4.584   2.130   3.467 -0.2511  0.3356 -0.7535
  970MOL0     H30914   4.808   2.107   3.871 -0.2209  0.3123  0.7486
  970MOL0     H30915   4.849   1.973   3.769 -1.7528  0.1131 -0.2736
  970MOL0     H30916   5.015   2.114   3.646  1.5945 -0.4719  1.2978
  970MOL0     H30917   4.951   2.259   3.722  1.7360  0.8690 -0.0674
  970MOL0     H30918   5.053   2.164   3.943  3.1344  0.1474  0.3722
  970MOL0     H30919   5.112   2.023   3.848  4.4311  1.0404 -2.2004
  970MOL0     H30920   5.204   2.313   3.814  0.7793 -0.1285  1.0938
  970MOL0     H30921   5.227   2.197   3.689 -0.9449 -1.4454  0.1475
  970MOL0     H30922   5.384   2.084   3.799  0.7065  0.2396  0.2803
  970MOL0     H30923   5.313   2.100   3.958  2.4040 -1.3300 -0.0907
  970MOL0     H30924   5.539   2.206   3.932  0.2343  0.5707  1.0993
  970MOL0     H30925   5.479   2.304   3.794  0.9789  1.0785  0.4452
  970MOL0     H30926   5.334   2.434   3.932  1.7909  3.2130 -0.8321
  970MOL0     H30927   5.495   2.445   3.999 -0.9762  0.1337  2.4207
  970MOL0     H30928   5.297   2.258   4.129  0.7588 -1.1791 -1.8043
  970MOL0     H30929   5.455   2.324   4.177  0.2999  0.5379 -1.6136
  970MOL0     H30930   4.613   1.984   3.882 -0.9199 -2.3185  0.1851
  970MOL0     H30931   4.415   1.875   3.870  2.0241 -3.3524 -0.6259
  970MOL0     H30932   4.070   1.689   3.559 -1.4181 -0.2548 -2.6748
  970MOL0     H30933   3.855   1.575   3.553 -1.9889  0.8567 -0.6037
  970MOL0     H30934   2.023   1.059   3.007 -0.1820  0.0882 -1.6189
  970MOL0     H30935   1.869   1.003   2.844  0.1021 -0.6365  0.8994
  970MOL0     H30936   1.580   1.317   2.538  0.0228  0.1628 -1.5202
  970MOL0     H30937   1.408   1.356   2.378 -1.9538 -1.6417 -1.2987
  970MOL0     H30938   1.072   1.038   2.335 -1.0007  0.0792  0.0072
  970MOL0     H30939   1.184   1.009   2.204 -0.3966  0.9637 -1.4072
  970MOL0     H30940   0.960   1.119   2.126  0.1050 -3.4013  3.2185
  970MOL0     H30941   1.102   1.221   2.086 -0.1347 -0.0439 -1.5502
  970MOL0     H30942   1.061   1.366   2.275  0.2931  1.6373 -1.0625
  970MOL0     H30943   0.922   1.270   2.330 -0.6364  0.9326 -1.4972
  970MOL0     H30944   0.950   1.398   2.052  0.5346  2.1617  0.7223
  970MOL0     H30945   0.809   1.320   2.105 -1.7388  0.8377  1.2537
  970MOL0     H30946   0.765   1.695   2.280  1.0141  1.3875 -3.8939
  970MOL0     H30947   1.268   0.952   2.440 -0.6725  0.9633  3.0394
  970MOL0     H30948   1.567   0.838   2.593  1.2720  2.6593 -1.0665
  970MOL0     H30949   1.411   0.869   2.680  0.0914  2.5248 -0.2572
  970MOL0     H30950   1.402   0.790   2.523  0.4050 -0.6928  0.0683
  971MOL0     O30951   9.651   1.733   3.927  0.1261 -0.1393  0.0830
  971MOL0     C30952   9.620   1.849   3.905 -0.0292  0.1374 -0.2483
  971MOL0     O30953   9.703   1.954   3.878  0.6918  0.7159 -0.1787
  971MOL0     C30954   9.837   1.943   3.911  0.4611 -0.6533 -0.1035
  971MOL0     C30955   9.920   1.974   3.807 -0.4932 -0.2220 -0.7588
  971MOL0     C30956  10.058   1.971   3.832 -0.6878  0.1583 -0.3542
  971MOL0     C30957  10.120   1.940   3.960  0.0233  0.1197 -0.0668
  971MOL0     O30958  10.253   1.924   3.972 -0.2389 -0.0597 -0.5033
  971MOL0     C30959  10.329   1.871   3.858 -0.4949 -0.4568 -0.0688
  971MOL0     C30960  10.469   1.850   3.905  0.0390  0.1704 -0.0818
  971MOL0     C30961  10.545   1.743   3.823 -0.4594 -0.0547 -0.1840
  971MOL0     C30962  10.693   1.742   3.864 -0.5655 -0.5187  0.4627
  971MOL0     C30963  10.773   1.631   3.800  0.2465  0.2415  0.5322
  971MOL0     C30964  10.795   1.639   3.651  0.1305 -0.1949 -0.2078
  971MOL0     C30965  10.901   1.535   3.600 -0.5942 -0.2569  0.1749
  971MOL0     C30966  11.040   1.581   3.641  0.0139  0.8895  0.5774
  971MOL0     N30967  11.145   1.478   3.640 -0.2212  0.2876  0.0531
  971MOL0     C30968  11.186   1.400   3.536  1.0578 -0.1705  0.5599
  971MOL0     C30969  11.287   1.321   3.579 -0.3269  0.5648 -0.4628
  971MOL0     C30970  11.362   1.226   3.495 -0.8043 -0.2907 -0.2565
  971MOL0     C30971  11.504   1.210   3.543 -0.0722  0.7598  0.2518
  971MOL0     C30972  11.532   1.101   3.641  0.3700  0.0470 -0.2488
  971MOL0     C30973  11.682   1.066   3.648 -0.2837  0.0973 -0.2035
  971MOL0     O30974  11.729   1.008   3.522 -0.1104  0.3288  0.6074
  971MOL0     C30975  11.856   0.936   3.526  0.3145  0.7431  1.1870
  971MOL0     C30976  11.936   0.896   3.635  0.3379 -0.2508 -0.2607
  971MOL0     C30977  12.056   0.827   3.615  0.0122  0.4043  0.1118
  971MOL0     C30978  12.102   0.799   3.482  0.8330  0.1449  0.6211
  971MOL0     C30979  12.229   0.731   3.448 -0.4261  0.2308 -0.1694
  971MOL0     O30980  12.329   0.763   3.531 -0.0415  0.3791 -0.4558
  971MOL0     C30981  12.449   0.696   3.516  0.0519  0.4112  0.2254
  971MOL0     C30982  12.539   0.751   3.608 -0.1393  0.6681  0.5624
  971MOL0     C30983  12.661   0.681   3.637 -0.1902  0.2391  0.8526
  971MOL0     C30984  12.682   0.559   3.574  0.5685  0.2528  0.0732
  971MOL0     O30985  12.818   0.518   3.583  0.3320 -0.6642 -0.2589
  971MOL0     C30986  12.862   0.393   3.526  0.5746 -0.6969 -0.2972
  971MOL0     C30987  13.016   0.380   3.544 -0.4349  0.0884 -0.1104
  971MOL0     C30988  13.059   0.240   3.496 -0.0103  0.2481  0.1158
  971MOL0     C30989  13.194   0.207   3.558  0.1344  0.1167 -0.0984
  971MOL0     C30990  13.255   0.093   3.474 -0.4788  0.1979 -0.2081
  971MOL0     C30991  13.388   0.036   3.535  0.1433  0.4187 -0.3981
  971MOL0     C30992  13.513   0.117   3.504  1.5813  0.2688 -0.0920
  971MOL0     C30993  13.626   0.062   3.594 -0.8080  0.2902  0.6686
  971MOL0    Cl30994  13.781   0.160   3.606  0.2617  0.0337  0.0757
  971MOL0     C30995  12.590   0.502   3.479  0.8730 -0.0410 -0.0386
  971MOL0     C30996  12.471   0.569   3.460  0.2653 -0.3359 -0.5195
  971MOL0     O30997  12.228   0.653   3.349  0.0757 -0.2203 -0.2788
  971MOL0     C30998  12.024   0.839   3.367  0.2314 -0.2305 -0.4391
  971MOL0     C30999  11.907   0.906   3.392 -0.3608  0.3887 -0.2486
  971MOL0     N31000  11.307   1.352   3.713  0.1759 -0.5951 -0.2820
  971MOL0     N31001  11.219   1.443   3.742  0.3348  0.4607 -0.3409
  971MOL0     C31002  10.030   1.936   4.063 -0.0435 -0.2335  0.4991
  971MOL0     C31003   9.893   1.932   4.038  0.4252  0.5299 -0.4389
  971MOL0     C31004   9.483   1.879   3.874  0.5984  0.6287  0.0719
  971MOL0     C31005   9.383   1.826   3.962 -0.4653  0.3981 -0.2943
  971MOL0     C31006   9.246   1.860   3.954 -0.2762 -0.4268  0.5059
  971MOL0     C31007   9.198   1.939   3.845  0.3674 -0.1336 -0.3207
  971MOL0     O31008   9.054   1.942   3.834  0.0651 -0.0751  0.1560
  971MOL0     C31009   8.997   2.035   3.744 -0.0566  0.8987 -0.5800
  971MOL0     C31010   8.848   1.991   3.725  0.2397 -0.0429 -0.0115
  971MOL0     C31011   8.755   2.055   3.838 -0.5909  0.7001  0.1710
  971MOL0     C31012   8.632   1.965   3.831 -0.5370 -0.3163 -0.3982
  971MOL0     C31013   8.516   2.045   3.886 -0.1989  0.2249  0.2231
  971MOL0     C31014   8.429   2.121   3.918 -0.7233 -0.3286 -0.3194
  971MOL0     C31015   9.300   1.994   3.760  0.1166  0.5716  0.0893
  971MOL0     C31016   9.437   1.967   3.770 -0.1088  0.9388  0.2846
  971MOL0     C31017   9.529   2.004   3.662  0.5673 -0.3826  0.3159
  971MOL0     H31018   9.881   1.992   3.708 -0.9691  0.3207 -0.4812
  971MOL0     H31019  10.113   1.982   3.739 -0.7711  0.9006 -0.3199
  971MOL0     H31020  10.282   1.774   3.838 -0.4048 -0.2803 -1.1584
  971MOL0     H31021  10.336   1.938   3.772 -0.2708  3.8645  2.9285
  971MOL0     H31022  10.468   1.811   4.007 -2.5017 -0.5339 -0.2870
  971MOL0     H31023  10.520   1.946   3.907  0.9452 -0.2674 -0.9726
  971MOL0     H31024  10.543   1.783   3.722  3.6448  1.0183 -0.0163
  971MOL0     H31025  10.493   1.647   3.833 -1.3846  0.3866 -0.5634
  971MOL0     H31026  10.732   1.839   3.830 -0.9283 -0.8806 -1.0331
  971MOL0     H31027  10.700   1.728   3.972  0.6054  1.8031  0.7623
  971MOL0     H31028  10.868   1.623   3.853 -0.2136 -2.0686  1.1043
  971MOL0     H31029  10.726   1.537   3.830  1.7185  0.2457  3.0779
  971MOL0     H31030  10.699   1.612   3.607 -0.1661 -2.9321  1.8936
  971MOL0     H31031  10.836   1.731   3.608  3.4308 -0.6721  1.5401
  971MOL0     H31032  10.890   1.525   3.492 -1.7452  0.7680  0.1778
  971MOL0     H31033  10.880   1.435   3.641  0.4777 -1.5012 -2.1301
  971MOL0     H31034  11.070   1.660   3.571  3.6516  0.6613  1.6208
  971MOL0     H31035  11.043   1.619   3.744 -0.9641 -0.2130  1.0291
  971MOL0     H31036  11.149   1.412   3.435 -0.5024  0.1441  1.1372
  971MOL0     H31037  11.319   1.125   3.503  0.6863 -0.9908 -0.6765
  971MOL0     H31038  11.367   1.253   3.390  2.4652 -1.2068 -0.4456
  971MOL0     H31039  11.558   1.171   3.456 -1.9608 -0.5656 -0.3753
  971MOL0     H31040  11.556   1.304   3.564  0.9351  0.2722  0.0093
  971MOL0     H31041  11.477   1.012   3.608 -0.9069  0.1160  1.5303
  971MOL0     H31042  11.498   1.146   3.735  1.9562  0.2427  0.2502
  971MOL0     H31043  11.699   0.996   3.731  0.1990  2.8105  2.1605
  971MOL0     H31044  11.740   1.155   3.676 -1.9885  1.5997 -1.2579
  971MOL0     H31045  11.893   0.915   3.733  1.7623  2.0118  0.0146
  971MOL0     H31046  12.105   0.769   3.694 -1.2507 -1.3771 -0.3587
  971MOL0     H31047  12.526   0.846   3.659 -0.3358 -0.9653  3.8489
  971MOL0     H31048  12.728   0.720   3.713  0.6993 -0.8427  0.6608
  971MOL0     H31049  12.813   0.309   3.575 -1.9601  2.8321  4.0216
  971MOL0     H31050  12.842   0.398   3.418  0.4823  1.6801 -0.2436
  971MOL0     H31051  13.069   0.456   3.486 -0.5643  0.8210  0.7226
  971MOL0     H31052  13.034   0.399   3.650 -1.1768 -1.0228  0.2335
  971MOL0     H31053  12.984   0.177   3.544 -1.6046  1.6191 -0.4529
  971MOL0     H31054  13.059   0.210   3.391 -1.4160 -2.5420  0.8244
  971MOL0     H31055  13.181   0.174   3.662  2.6048  1.1333  0.6032
  971MOL0     H31056  13.256   0.297   3.553 -0.7129  0.8014  1.0813
  971MOL0     H31057  13.287   0.127   3.375  0.6541 -1.4302 -0.4494
  971MOL0     H31058  13.176   0.021   3.451 -0.5208  0.5071 -1.0838
  971MOL0     H31059  13.376   0.014   3.641 -0.5956 -1.2389 -0.7966
  971MOL0     H31060  13.405  -0.065   3.496 -1.4072 -1.4957  3.4093
  971MOL0     H31061  13.495   0.224   3.522 -0.9949 -0.1279  0.0195
  971MOL0     H31062  13.534   0.118   3.396 -1.4695  1.0405 -0.7910
  971MOL0     H31063  13.591   0.061   3.698 -1.4539 -0.0141  0.4535
  971MOL0     H31064  13.638  -0.041   3.560 -0.5829  0.1697  1.1094
  971MOL0     H31065  12.612   0.406   3.433  2.2304 -1.6192  3.5378
  971MOL0     H31066  12.402   0.525   3.389 -1.1991  1.8411 -0.5423
  971MOL0     H31067  12.053   0.810   3.267  2.0599 -0.3193  0.0791
  971MOL0     H31068  11.837   0.926   3.311 -0.1688 -2.7848 -1.3413
  971MOL0     H31069  10.093   1.916   4.148  1.3519 -2.2539 -0.8995
  971MOL0     H31070   9.823   1.903   4.115 -1.9023 -0.5689 -2.8309
  971MOL0     H31071   9.418   1.770   4.048 -1.1639 -0.4057 -0.5135
  971MOL0     H31072   9.171   1.804   4.009  2.0162 -1.8190  2.4205
  971MOL0     H31073   9.049   2.030   3.648  0.1627  2.3367 -0.5604
  971MOL0     H31074   8.997   2.141   3.772  5.0217  1.0604 -0.2400
  971MOL0     H31075   8.835   1.883   3.730 -1.2539  0.1522  0.9061
  971MOL0     H31076   8.818   2.031   3.627 -0.2151 -2.0876 -0.7480
  971MOL0     H31077   8.721   2.158   3.832  0.0390  0.8747 -0.6458
  971MOL0     H31078   8.816   2.046   3.928 -0.9618 -1.1882  0.2810
  971MOL0     H31079   8.622   1.928   3.728 -4.9446 -0.6914  0.0024
  971MOL0     H31080   8.655   1.882   3.898  3.4336  0.4088 -0.6196
  971MOL0     H31081   8.364   2.200   3.950  2.3082  1.1503  2.7674
  971MOL0     H31082   9.272   2.055   3.675  1.0282 -1.6510 -1.9340
  971MOL0     H31083   9.596   1.922   3.633  1.3171  1.1696 -2.7598
  971MOL0     H31084   9.465   2.016   3.574  0.9596 -2.5140 -0.3254
  971MOL0     H31085   9.568   2.103   3.687 -2.4770  1.3754 -1.3292
  972MOL0     O31086   9.773   8.347   1.953 -0.0978 -0.4071  0.4287
  972MOL0     C31087   9.710   8.392   1.858  0.0243  0.1203  0.3799
  972MOL0     O31088   9.760   8.460   1.750  0.0017 -0.0735  0.3927
  972MOL0     C31089   9.889   8.507   1.754 -0.0043 -0.6028 -0.6165
  972MOL0     C31090   9.969   8.506   1.644  0.1341  0.2151  0.1704
  972MOL0     C31091  10.105   8.542   1.645 -0.2805 -0.1547 -0.0989
  972MOL0     C31092  10.167   8.569   1.767  0.1404 -0.9265  0.3657
  972MOL0     O31093  10.299   8.610   1.751 -0.4760 -0.0339 -0.9024
  972MOL0     C31094  10.365   8.654   1.873 -0.6431  1.0197 -0.4668
  972MOL0     C31095  10.471   8.752   1.829 -0.5394  0.1825  0.2554
  972MOL0     C31096  10.559   8.798   1.948  0.2887 -0.0751  0.1782
  972MOL0     C31097  10.663   8.899   1.904  0.7463 -0.1302  0.5860
  972MOL0     C31098  10.781   8.832   1.841 -0.0104  0.1367 -0.3882
  972MOL0     C31099  10.888   8.936   1.800  0.1465 -0.9069 -0.0283
  972MOL0     C31100  11.023   8.863   1.791  0.0238  0.2640  0.5782
  972MOL0     C31101  11.130   8.937   1.719  0.4624 -0.4240 -0.2753
  972MOL0     N31102  11.236   8.840   1.695  0.5229  0.1945  0.0524
  972MOL0     C31103  11.239   8.734   1.605  0.4536 -0.0253 -0.8511
  972MOL0     C31104  11.353   8.668   1.635  0.3588 -0.2135 -0.8939
  972MOL0     C31105  11.393   8.546   1.558  0.8985 -0.3982  0.4153
  972MOL0     C31106  11.536   8.560   1.519 -0.7814 -0.4452  0.3354
  972MOL0     C31107  11.575   8.460   1.414 -0.6721 -0.1012  0.4821
  972MOL0     C31108  11.692   8.515   1.333  0.0875  0.5420 -0.1322
  972MOL0     O31109  11.797   8.557   1.419  0.3241  0.4127 -0.5675
  972MOL0     C31110  11.921   8.575   1.369 -0.9782  0.2500 -0.6180
  972MOL0     C31111  12.027   8.548   1.447  0.0016 -0.3166 -0.3048
  972MOL0     C31112  12.152   8.562   1.400 -0.3680  0.9132  0.3864
  972MOL0     C31113  12.176   8.603   1.264  0.9465 -0.1276 -0.0650
  972MOL0     C31114  12.313   8.601   1.212  0.1087 -0.2318  0.4738
  972MOL0     O31115  12.405   8.608   1.303  0.2826 -0.3371 -0.2772
  972MOL0     C31116  12.542   8.609   1.284  0.8896 -0.3977 -0.0343
  972MOL0     C31117  12.605   8.512   1.200  0.1110  0.1333  0.5223
  972MOL0     C31118  12.741   8.510   1.183  0.0434  0.8392  0.4826
  972MOL0     C31119  12.826   8.596   1.252  0.1970  0.3627 -0.5839
  972MOL0     O31120  12.964   8.578   1.230 -0.0069 -0.8027  0.6057
  972MOL0     C31121  13.067   8.635   1.312 -0.1095 -0.7308 -0.4596
  972MOL0     C31122  13.192   8.555   1.293 -0.5776  0.1255  0.2256
  972MOL0     C31123  13.281   8.548   1.410 -0.0447 -0.1689  0.0128
  972MOL0     C31124  13.410   8.457   1.381 -0.1032 -0.1411  1.2780
  972MOL0     C31125  13.468   8.420   1.520  0.2482  0.0075 -0.7820
  972MOL0     C31126  13.607   8.357   1.506 -0.1468 -0.0970  0.1599
  972MOL0     C31127  13.724   8.454   1.459 -0.1094 -0.1687  0.4753
  972MOL0     C31128  13.853   8.416   1.532 -0.1996 -0.3261  0.6130
  972MOL0    Cl31129  13.904   8.264   1.463  0.0116 -0.2047  0.1830
  972MOL0     C31130  12.769   8.686   1.344  0.2873 -0.5511 -0.0186
  972MOL0     C31131  12.630   8.700   1.354  0.0352 -0.2542 -0.2581
  972MOL0     O31132  12.331   8.598   1.089 -0.2163 -0.8336 -0.2492
  972MOL0     C31133  12.068   8.624   1.184  0.1644 -0.5493 -0.7812
  972MOL0     C31134  11.943   8.612   1.235 -0.7362  0.5735 -0.3723
  972MOL0     N31135  11.419   8.735   1.736 -0.0519 -0.0505  0.2031
  972MOL0     N31136  11.353   8.837   1.771 -0.3329  0.5788  0.3505
  972MOL0     C31137  10.089   8.576   1.882  0.3100 -0.3479  0.4198
  972MOL0     C31138   9.949   8.548   1.880 -0.2041 -0.7895  0.0743
  972MOL0     C31139   9.566   8.370   1.860  0.7775  0.1304  0.2319
  972MOL0     C31140   9.490   8.460   1.795  0.2685 -0.6856  0.1620
  972MOL0     C31141   9.350   8.454   1.797 -0.7515  0.2962 -0.0345
  972MOL0     C31142   9.288   8.338   1.844  0.4946 -0.0747  0.6013
  972MOL0     O31143   9.154   8.323   1.833  0.0203 -0.8882 -0.4180
  972MOL0     C31144   9.089   8.212   1.900 -0.3337  0.2117  0.8224
  972MOL0     C31145   8.945   8.236   1.884 -0.2977 -0.1171 -0.4635
  972MOL0     C31146   8.894   8.225   1.741  0.5084  0.1219 -0.7925
  972MOL0     C31147   8.741   8.253   1.735  0.5772  0.3069  0.2069
  972MOL0     C31148   8.715   8.400   1.745  0.1080  0.4691 -0.5709
  972MOL0     C31149   8.661   8.513   1.757  0.0356  0.4476  0.4127
  972MOL0     C31150   9.369   8.242   1.906 -0.2387  0.1115 -0.7050
  972MOL0     C31151   9.506   8.248   1.915  0.0625 -0.5326  0.5390
  972MOL0     C31152   9.582   8.143   2.000 -0.9016  0.3293 -0.1686
  972MOL0     H31153   9.919   8.462   1.558  2.0948 -0.7597 -0.5418
  972MOL0     H31154  10.160   8.541   1.551 -0.6449 -2.7107 -0.3540
  972MOL0     H31155  10.293   8.704   1.938 -0.3902  1.5530 -0.5895
  972MOL0     H31156  10.413   8.569   1.921 -1.0868  0.4155 -1.0831
  972MOL0     H31157  10.412   8.832   1.784 -0.0290  1.3827  1.6451
  972MOL0     H31158  10.533   8.698   1.757 -1.0149 -2.4746  1.6854
  972MOL0     H31159  10.612   8.716   1.998  1.1469 -0.4381 -1.2653
  972MOL0     H31160  10.488   8.847   2.016 -1.6189  0.5202 -2.1178
  972MOL0     H31161  10.610   8.960   1.830 -0.1598 -1.6795 -0.0924
  972MOL0     H31162  10.697   8.961   1.988 -0.7925 -0.2414  1.3425
  972MOL0     H31163  10.829   8.755   1.903 -0.1429 -0.2054 -0.7139
  972MOL0     H31164  10.753   8.777   1.751  0.6218  0.3165 -0.6990
  972MOL0     H31165  10.857   8.990   1.710 -2.6539  0.3360  1.5572
  972MOL0     H31166  10.894   9.009   1.881 -0.2051 -1.6710  0.7058
  972MOL0     H31167  11.001   8.768   1.740  0.5581 -0.1701  1.1400
  972MOL0     H31168  11.064   8.823   1.884  0.2611 -0.3720  0.2116
  972MOL0     H31169  11.089   8.982   1.628  1.2836 -1.1957 -1.0472
  972MOL0     H31170  11.165   9.030   1.765  0.7122 -2.0276  3.1014
  972MOL0     H31171  11.174   8.720   1.519  1.4915 -1.5439 -1.4436
  972MOL0     H31172  11.368   8.462   1.623  0.3963  1.8602  3.4035
  972MOL0     H31173  11.328   8.544   1.470 -0.0465  1.9723  0.9517
  972MOL0     H31174  11.552   8.661   1.479  0.4469 -1.3404 -1.5728
  972MOL0     H31175  11.590   8.541   1.612 -0.0079 -0.1802 -0.0514
  972MOL0     H31176  11.493   8.435   1.347 -0.7336  2.4344 -0.4962
  972MOL0     H31177  11.590   8.364   1.464 -3.1947 -1.1137 -0.5367
  972MOL0     H31178  11.671   8.605   1.274 -1.8437  0.7359  0.7616
  972MOL0     H31179  11.725   8.435   1.266  0.9043 -1.0100  2.0150
  972MOL0     H31180  12.029   8.507   1.547  1.7980 -0.9151 -0.5478
  972MOL0     H31181  12.235   8.531   1.463  1.0516  0.0422 -1.7936
  972MOL0     H31182  12.543   8.441   1.146 -0.4230  0.6328  0.4622
  972MOL0     H31183  12.779   8.436   1.114 -0.6283  1.8710 -1.0619
  972MOL0     H31184  13.088   8.739   1.285  1.5647 -0.4626  1.6568
  972MOL0     H31185  13.033   8.635   1.416  0.3806  1.1438 -0.2615
  972MOL0     H31186  13.158   8.453   1.273  0.5136 -0.4048  0.9978
  972MOL0     H31187  13.246   8.591   1.205 -2.3731  1.7739 -0.2464
  972MOL0     H31188  13.310   8.649   1.440  0.1388 -0.3575  0.4880
  972MOL0     H31189  13.222   8.517   1.496 -0.4606  2.6077  0.8299
  972MOL0     H31190  13.482   8.512   1.319 -2.4966  2.6963  0.7950
  972MOL0     H31191  13.392   8.361   1.332  2.2373  0.4383 -0.9810
  972MOL0     H31192  13.405   8.346   1.570  0.0516 -0.2886 -1.4551
  972MOL0     H31193  13.470   8.507   1.586 -2.1721 -0.4802  0.0463
  972MOL0     H31194  13.635   8.310   1.601 -0.0207  1.8645  1.1380
  972MOL0     H31195  13.606   8.270   1.440 -1.1321 -2.2101  2.7855
  972MOL0     H31196  13.704   8.556   1.493 -0.6616  0.4071 -1.4582
  972MOL0     H31197  13.742   8.455   1.352  1.3995 -0.3079  0.7104
  972MOL0     H31198  13.933   8.489   1.517 -1.1857  0.5675 -0.5687
  972MOL0     H31199  13.831   8.407   1.638  0.6320 -1.6607  0.6988
  972MOL0     H31200  12.833   8.751   1.403  1.9753 -0.4764 -1.7883
  972MOL0     H31201  12.599   8.768   1.433  0.6961 -0.5367  0.2430
  972MOL0     H31202  12.078   8.660   1.082  1.1290  3.6658  0.5846
  972MOL0     H31203  11.855   8.634   1.176 -0.4118  0.1802 -1.0198
  972MOL0     H31204  10.125   8.593   1.983  1.3947 -1.4389  0.2413
  972MOL0     H31205   9.895   8.575   1.970  2.4179  3.5236  0.6443
  972MOL0     H31206   9.533   8.549   1.752  0.3146 -1.3602 -1.2353
  972MOL0     H31207   9.281   8.530   1.761  0.5309  1.6004  0.1417
  972MOL0     H31208   9.113   8.210   2.006  2.0566 -0.5978  0.3213
  972MOL0     H31209   9.121   8.118   1.853 -2.2445  0.4595 -1.1440
  972MOL0     H31210   8.914   8.330   1.930  2.8509  0.4863  0.7163
  972MOL0     H31211   8.893   8.154   1.933 -1.9680  1.0644 -0.1845
  972MOL0     H31212   8.908   8.122   1.707 -1.8413 -0.6291  0.2767
  972MOL0     H31213   8.936   8.292   1.665 -0.1402  1.7389  0.2156
  972MOL0     H31214   8.700   8.221   1.639 -1.5664  0.2919  1.0617
  972MOL0     H31215   8.684   8.193   1.807  0.4895  1.5535  1.2157
  972MOL0     H31216   8.620   8.612   1.764 -0.5121  0.4461 -1.9630
  972MOL0     H31217   9.331   8.148   1.942  0.6647  0.1183  0.3277
  972MOL0     H31218   9.667   8.103   1.944  1.0123  4.1366 -0.2878
  972MOL0     H31219   9.615   8.198   2.088  0.5653  0.7624 -0.9558
  972MOL0     H31220   9.515   8.058   2.017 -0.4513 -0.1861 -0.8823
  973MOL0     O31221   4.867   3.943   1.156  0.2277 -0.2661 -0.1541
  973MOL0     C31222   4.840   4.054   1.115 -0.1835 -0.0076 -0.2231
  973MOL0     O31223   4.926   4.149   1.066  0.3949 -0.0820  0.0880
  973MOL0     C31224   5.053   4.095   1.048 -0.2216 -0.1246  0.7470
  973MOL0     C31225   5.089   4.049   0.924 -0.3555 -0.3993  0.2515
  973MOL0     C31226   5.221   3.994   0.901  0.4469 -0.5873  0.3058
  973MOL0     C31227   5.317   3.987   1.009 -0.1197 -0.2670 -1.0767
  973MOL0     O31228   5.439   3.930   0.982  0.1008 -0.8200 -0.5015
  973MOL0     C31229   5.548   3.961   1.078 -0.0917  0.4070  0.1233
  973MOL0     C31230   5.691   3.945   1.022 -0.6001 -0.1780  0.1125
  973MOL0     C31231   5.716   3.803   1.001  0.0583  0.2803  0.7883
  973MOL0     C31232   5.857   3.787   0.943  0.0795  0.5762  0.3961
  973MOL0     C31233   5.973   3.823   1.039  0.7349 -0.4304 -0.4705
  973MOL0     C31234   6.107   3.774   0.983  0.1533  0.0435 -0.0942
  973MOL0     C31235   6.222   3.830   1.058 -0.6133  0.4222 -0.0158
  973MOL0     C31236   6.244   3.740   1.175 -0.3169  0.2438  0.0965
  973MOL0     N31237   6.366   3.781   1.250 -0.5990  0.2305  0.5253
  973MOL0     C31238   6.417   3.907   1.266  0.8255 -0.1313  0.5979
  973MOL0     C31239   6.502   3.885   1.365 -0.2498  0.4640 -0.2160
  973MOL0     C31240   6.582   4.004   1.410  0.4697  0.1004 -0.8193
  973MOL0     C31241   6.522   4.049   1.548  0.0864  0.8116  0.3750
  973MOL0     C31242   6.567   4.176   1.605 -0.2725  0.7231 -0.3961
  973MOL0     C31243   6.725   4.171   1.610 -0.3937  0.0481 -0.6872
  973MOL0     O31244   6.773   4.298   1.667 -0.0430  0.5072  0.7029
  973MOL0     C31245   6.898   4.322   1.720 -0.1877 -0.1263 -0.2272
  973MOL0     C31246   6.993   4.219   1.738 -0.0758 -0.0756 -0.2488
  973MOL0     C31247   7.122   4.239   1.789 -1.0680 -0.5321  0.3803
  973MOL0     C31248   7.153   4.366   1.831  0.0710 -0.4691  0.2039
  973MOL0     C31249   7.290   4.391   1.893 -0.9710  0.0015 -0.4648
  973MOL0     O31250   7.351   4.276   1.942  0.2365  0.0169  0.2291
  973MOL0     C31251   7.481   4.265   1.983 -0.2332 -0.0173 -0.3241
  973MOL0     C31252   7.522   4.134   2.000  0.8433 -0.2497  0.1576
  973MOL0     C31253   7.650   4.108   2.047 -0.4962  0.4120 -0.0354
  973MOL0     C31254   7.746   4.205   2.059  0.7547  0.0027 -0.1382
  973MOL0     O31255   7.874   4.167   2.091 -0.1164 -0.3961 -0.1246
  973MOL0     C31256   7.956   4.148   1.971  0.8322  0.0800 -1.1021
  973MOL0     C31257   8.102   4.156   2.009 -0.7103 -0.9332 -0.0831
  973MOL0     C31258   8.196   4.172   1.886  0.5074  0.3806 -0.1834
  973MOL0     C31259   8.340   4.158   1.936  0.3756  0.5166  0.0135
  973MOL0     C31260   8.455   4.177   1.827  0.5783 -0.5498  0.8378
  973MOL0     C31261   8.586   4.121   1.885  0.3138 -0.4719  0.5098
  973MOL0     C31262   8.687   4.113   1.782 -1.1800  0.9384  0.3724
  973MOL0     C31263   8.823   4.049   1.829  0.0097 -0.0912 -0.9340
  973MOL0    Cl31264   8.884   4.125   1.983  0.4348 -0.1181 -0.2381
  973MOL0     C31265   7.709   4.332   2.029 -0.3944 -1.0604  0.2797
  973MOL0     C31266   7.578   4.370   1.993 -0.9016  0.0581  0.5882
  973MOL0     O31267   7.342   4.508   1.893  0.8449  0.1670  0.1792
  973MOL0     C31268   7.066   4.467   1.786 -0.3673 -0.8561 -0.1930
  973MOL0     C31269   6.939   4.452   1.749 -0.9482 -0.3064  0.0398
  973MOL0     N31270   6.504   3.752   1.410 -0.5010 -1.2636  0.2409
  973MOL0     N31271   6.432   3.692   1.330  0.1580 -0.2306  0.4792
  973MOL0     C31272   5.271   4.025   1.136  0.1998 -0.2167  0.1334
  973MOL0     C31273   5.142   4.081   1.155 -0.6765  0.0626  0.3624
  973MOL0     C31274   4.712   4.101   1.156  0.2422  0.3000 -0.3466
  973MOL0     C31275   4.709   4.227   1.211 -0.0157  0.3709 -0.1738
  973MOL0     C31276   4.583   4.280   1.253 -0.6901  0.2648 -0.5817
  973MOL0     C31277   4.463   4.202   1.247 -0.1371 -0.3386 -0.2520
  973MOL0     O31278   4.343   4.264   1.274  0.0148 -1.3591 -0.8694
  973MOL0     C31279   4.225   4.219   1.220  0.3443 -0.0447  0.3252
  973MOL0     C31280   4.148   4.147   1.339 -0.1404 -0.1375 -0.1249
  973MOL0     C31281   4.036   4.048   1.296 -1.0276  0.0617 -0.8458
  973MOL0     C31282   4.080   3.903   1.276 -0.6659  0.0856  0.3652
  973MOL0     C31283   4.158   3.884   1.152  0.4656  0.4062  0.6547
  973MOL0     C31284   4.222   3.863   1.049 -0.9280  1.0596  0.1065
  973MOL0     C31285   4.478   4.070   1.206  0.1083 -0.4960 -0.5543
  973MOL0     C31286   4.592   4.022   1.151 -0.9723 -0.3524  0.7465
  973MOL0     C31287   4.603   3.873   1.122  0.0620 -0.8285  0.5350
  973MOL0     H31288   5.024   4.057   0.838  0.1780  1.7481  0.0090
  973MOL0     H31289   5.260   3.972   0.802  3.8439  4.0504  0.2791
  973MOL0     H31290   5.541   4.063   1.115  0.5625 -0.6501  3.4978
  973MOL0     H31291   5.539   3.901   1.169 -0.0573  1.4890  0.8478
  973MOL0     H31292   5.750   3.976   1.108 -0.3516 -0.4204  0.0305
  973MOL0     H31293   5.715   4.004   0.933  0.2936 -2.7537 -1.4784
  973MOL0     H31294   5.636   3.761   0.939 -1.5725 -0.8720  3.4707
  973MOL0     H31295   5.711   3.750   1.097 -1.4238 -0.3319  0.3943
  973MOL0     H31296   5.875   3.684   0.911 -1.2342  0.7046 -0.8289
  973MOL0     H31297   5.876   3.852   0.857  0.5406  1.4997  1.1776
  973MOL0     H31298   5.966   3.930   1.056  0.4548 -0.0593 -2.7082
  973MOL0     H31299   5.965   3.768   1.134  0.1684 -1.3682 -1.0415
  973MOL0     H31300   6.109   3.664   0.982  0.1847  0.0343  0.5422
  973MOL0     H31301   6.121   3.808   0.880  2.5063  0.3725  0.2615
  973MOL0     H31302   6.199   3.933   1.085  0.2860  0.5281  0.3601
  973MOL0     H31303   6.304   3.831   0.986 -1.2761  0.8410 -0.7821
  973MOL0     H31304   6.156   3.746   1.239 -0.1670  2.1865  0.1781
  973MOL0     H31305   6.261   3.638   1.139  2.6288  0.1674  1.3465
  973MOL0     H31306   6.394   3.999   1.213 -1.2867 -0.9229  0.0264
  973MOL0     H31307   6.687   3.974   1.416  0.8277  1.5351  1.1598
  973MOL0     H31308   6.577   4.091   1.343  1.7454  0.1242 -0.9123
  973MOL0     H31309   6.413   4.055   1.544 -0.0076  1.3471  2.4717
  973MOL0     H31310   6.548   3.966   1.614 -1.0407  1.2262  1.3698
  973MOL0     H31311   6.536   4.189   1.709  0.3107 -1.2160  0.0660
  973MOL0     H31312   6.531   4.264   1.550  3.2540  2.2658 -0.5339
  973MOL0     H31313   6.776   4.147   1.517  1.9132  2.3636 -0.1272
  973MOL0     H31314   6.747   4.100   1.691 -2.6169  1.0842  0.9636
  973MOL0     H31315   6.974   4.119   1.699 -0.1074 -0.1479 -0.0500
  973MOL0     H31316   7.188   4.154   1.792 -0.2215 -0.1816 -3.3016
  973MOL0     H31317   7.453   4.053   1.977  0.4154  0.2141 -0.2041
  973MOL0     H31318   7.677   4.005   2.070  0.4813  0.2341 -1.7517
  973MOL0     H31319   7.929   4.048   1.937 -2.6543  1.0673 -1.7203
  973MOL0     H31320   7.945   4.221   1.890 -0.6630 -2.4642 -3.3558
  973MOL0     H31321   8.112   4.237   2.082 -0.4619  0.7365 -1.9120
  973MOL0     H31322   8.125   4.060   2.057  2.5470 -0.1129  0.2021
  973MOL0     H31323   8.173   4.108   1.800  0.5029 -1.6428  1.2610
  973MOL0     H31324   8.175   4.275   1.855  0.1246  1.0747  2.2199
  973MOL0     H31325   8.352   4.059   1.982 -2.9136  0.6666  1.5098
  973MOL0     H31326   8.357   4.233   2.014  1.6711  0.5434 -0.2802
  973MOL0     H31327   8.466   4.284   1.807 -2.5933 -0.1233  0.9606
  973MOL0     H31328   8.424   4.131   1.733  0.1305  0.6946  0.3644
  973MOL0     H31329   8.614   4.196   1.960 -0.1530 -0.6663  0.8794
  973MOL0     H31330   8.561   4.026   1.933  0.5967  0.9681  3.7374
  973MOL0     H31331   8.717   4.214   1.752  1.5698  0.6540  1.8164
  973MOL0     H31332   8.654   4.067   1.689 -1.4773  1.0736  0.4070
  973MOL0     H31333   8.805   3.942   1.846  1.9427 -0.6737 -2.1520
  973MOL0     H31334   8.899   4.066   1.752 -0.4249  0.3593 -1.2703
  973MOL0     H31335   7.785   4.410   2.035 -3.0076  1.6410  0.5403
  973MOL0     H31336   7.549   4.473   1.976  0.0602  0.0289 -1.5637
  973MOL0     H31337   7.097   4.571   1.795  1.0767 -1.0451 -2.1472
  973MOL0     H31338   6.881   4.536   1.711  0.0365 -0.0949 -1.0536
  973MOL0     H31339   5.332   4.009   1.225  2.1621 -0.5062 -1.1977
  973MOL0     H31340   5.123   4.118   1.255 -2.1994  0.7323 -0.1462
  973MOL0     H31341   4.805   4.277   1.209  1.2416 -1.8853 -2.0652
  973MOL0     H31342   4.580   4.373   1.310  1.7008  0.5627 -0.8395
  973MOL0     H31343   4.241   4.151   1.136  2.9319  0.8811 -0.0072
  973MOL0     H31344   4.168   4.301   1.175  1.9647 -1.5125 -5.1226
  973MOL0     H31345   4.095   4.230   1.387  1.8016  1.8721 -1.2602
  973MOL0     H31346   4.207   4.099   1.417  0.7193 -2.5039 -2.0672
  973MOL0     H31347   3.995   4.079   1.200 -1.7804  0.6233 -0.3537
  973MOL0     H31348   3.962   4.046   1.377 -1.1769 -3.7711 -0.8600
  973MOL0     H31349   4.138   3.853   1.355  3.6225  0.6364 -2.1453
  973MOL0     H31350   3.996   3.838   1.252 -0.3952 -0.9793  2.0566
  973MOL0     H31351   4.265   3.838   0.954 -2.4434  0.7528 -0.5280
  973MOL0     H31352   4.399   3.996   1.214  0.5372 -0.8893  0.1947
  973MOL0     H31353   4.501   3.834   1.119 -0.4101  0.4436 -1.6773
  973MOL0     H31354   4.655   3.857   1.028  1.5907  2.4497  0.6885
  973MOL0     H31355   4.669   3.830   1.199  1.5020  3.5306  2.0499
  974MOL0     O31356   0.680   2.290   5.252 -0.3147 -0.2035 -0.3850
  974MOL0     C31357   0.657   2.281   5.135 -0.1421 -0.0392  0.2842
  974MOL0     O31358   0.751   2.304   5.038 -0.1460 -0.0910  0.2331
  974MOL0     C31359   0.885   2.330   5.089  0.9286  0.4049  0.0205
  974MOL0     C31360   0.909   2.460   5.124 -0.4975 -0.8967 -1.7551
  974MOL0     C31361   1.024   2.497   5.188  0.4230 -0.6112 -0.6986
  974MOL0     C31362   1.120   2.394   5.210  0.5051 -0.2517 -0.3612
  974MOL0     O31363   1.246   2.409   5.265  0.3125 -1.2865 -0.0534
  974MOL0     C31364   1.261   2.546   5.317  0.4844  0.3040  1.9658
  974MOL0     C31365   1.389   2.550   5.396 -0.7313 -0.0563 -0.1885
  974MOL0     C31366   1.503   2.548   5.299  0.1462  0.2509  0.5754
  974MOL0     C31367   1.631   2.603   5.376  0.6857 -0.1091  0.7984
  974MOL0     C31368   1.764   2.574   5.301  0.4911  0.4943  0.3467
  974MOL0     C31369   1.784   2.679   5.192  1.1131 -0.0808  0.3770
  974MOL0     C31370   1.921   2.663   5.131  0.2854  0.7009  0.4452
  974MOL0     C31371   1.943   2.750   5.004 -0.1026  0.0616 -0.3104
  974MOL0     N31372   2.097   2.768   4.984 -0.3079 -0.5096 -1.4529
  974MOL0     C31373   2.172   2.664   4.939  0.4685 -0.3170 -0.1943
  974MOL0     C31374   2.300   2.709   4.956  0.4744  0.0818  0.3093
  974MOL0     C31375   2.430   2.639   4.929  0.6757  0.4314  0.6168
  974MOL0     C31376   2.415   2.541   4.806 -0.3906  0.0912  0.1058
  974MOL0     C31377   2.543   2.449   4.815  0.3173 -0.0968 -0.1712
  974MOL0     C31378   2.679   2.531   4.823 -0.2185  0.5268  0.0868
  974MOL0     O31379   2.783   2.445   4.769 -0.3455 -0.6538 -0.1055
  974MOL0     C31380   2.913   2.497   4.760 -0.0523 -0.3040 -0.2526
  974MOL0     C31381   2.951   2.621   4.816 -0.5210  0.1532 -0.3642
  974MOL0     C31382   3.086   2.661   4.825  0.4987  0.3253  0.6784
  974MOL0     C31383   3.187   2.577   4.775 -0.0998 -0.1746  0.0120
  974MOL0     C31384   3.324   2.626   4.762  0.3956 -0.3851  0.7741
  974MOL0     O31385   3.404   2.558   4.672 -0.0528 -0.3164  0.2448
  974MOL0     C31386   3.544   2.574   4.670  0.0459  0.7386  0.0634
  974MOL0     C31387   3.606   2.540   4.545 -0.0655  0.2758 -0.3711
  974MOL0     C31388   3.744   2.545   4.526  0.6319  0.2833 -0.1246
  974MOL0     C31389   3.826   2.612   4.613  0.2869 -0.2367  0.0833
  974MOL0     O31390   3.963   2.639   4.592  0.0861  0.1526  0.2350
  974MOL0     C31391   4.031   2.576   4.482 -0.0816  0.3178 -0.1189
  974MOL0     C31392   4.173   2.620   4.486 -0.1220 -0.2235 -0.4789
  974MOL0     C31393   4.275   2.545   4.400  0.6729 -0.1929 -0.7386
  974MOL0     C31394   4.407   2.607   4.424  0.5786 -0.3593  0.3870
  974MOL0     C31395   4.516   2.514   4.354 -0.0824 -0.5846  0.1498
  974MOL0     C31396   4.661   2.547   4.396 -0.6638  0.0517 -0.5921
  974MOL0     C31397   4.752   2.482   4.288 -0.4030  0.8613 -1.0526
  974MOL0     C31398   4.902   2.506   4.324  0.0461 -0.1412  0.0933
  974MOL0    Cl31399   4.929   2.684   4.312 -0.5008 -0.5409  0.0163
  974MOL0     C31400   3.771   2.646   4.738  0.3069 -0.4586 -0.3136
  974MOL0     C31401   3.634   2.627   4.761  0.0009  0.6036 -0.1148
  974MOL0     O31402   3.363   2.714   4.838  0.2246  0.4876 -0.1224
  974MOL0     C31403   3.141   2.460   4.713 -0.9760  0.3126  0.5544
  974MOL0     C31404   3.012   2.415   4.725 -0.6432 -0.1098  0.5662
  974MOL0     N31405   2.300   2.837   5.005 -1.0681  0.2134  0.1070
  974MOL0     N31406   2.177   2.876   5.013  0.3749  0.7592 -0.3177
  974MOL0     C31407   1.090   2.264   5.172 -1.2119 -0.2063  0.3374
  974MOL0     C31408   0.980   2.231   5.096 -0.1162 -0.5991  0.2851
  974MOL0     C31409   0.517   2.236   5.103 -0.0799  0.6228  0.3102
  974MOL0     C31410   0.417   2.227   5.205  0.1125 -0.5810  0.0979
  974MOL0     C31411   0.286   2.194   5.173  0.3827  0.0511 -0.3365
  974MOL0     C31412   0.244   2.173   5.038 -0.0960  0.0005 -0.3215
  974MOL0     O31413   0.123   2.122   4.997  0.6225 -0.0684 -0.1575
  974MOL0     C31414   0.004   2.132   5.072 -0.8679 -0.4623  0.0101
  974MOL0     C31415  -0.115   2.091   4.988  1.0193  0.1622 -0.4601
  974MOL0     C31416  -0.166   2.202   4.893 -0.2477 -0.5055 -0.0966
  974MOL0     C31417  -0.263   2.134   4.781  0.0125  0.0606 -0.3058
  974MOL0     C31418  -0.283   2.234   4.686  0.4254 -0.5639 -0.5801
  974MOL0     C31419  -0.300   2.315   4.597  0.0528 -0.3067  0.9771
  974MOL0     C31420   0.348   2.164   4.945 -0.5998  0.4511  0.3722
  974MOL0     C31421   0.484   2.195   4.972 -0.4309  0.2380 -1.0227
  974MOL0     C31422   0.584   2.166   4.864  0.0485 -0.0283  0.4091
  974MOL0     H31423   0.836   2.539   5.111 -0.7045  0.3892  4.1731
  974MOL0     H31424   1.034   2.601   5.216 -2.1210 -0.5156  0.1703
  974MOL0     H31425   1.266   2.624   5.241  3.1988  0.5443  2.2885
  974MOL0     H31426   1.179   2.570   5.385 -0.5348  2.2192  0.1852
  974MOL0     H31427   1.403   2.464   5.462 -0.7054  0.9519  1.1566
  974MOL0     H31428   1.387   2.645   5.451 -5.5611 -0.2612  0.4151
  974MOL0     H31429   1.488   2.616   5.215  0.9790  0.4290  0.5607
  974MOL0     H31430   1.514   2.444   5.268  5.1166  0.4719  0.8381
  974MOL0     H31431   1.618   2.709   5.399 -0.2044  0.1909 -0.8996
  974MOL0     H31432   1.641   2.549   5.470 -1.9654  3.0994  3.1484
  974MOL0     H31433   1.846   2.568   5.373 -1.8211  0.7641  3.1994
  974MOL0     H31434   1.756   2.479   5.248 -0.4151  0.5252  0.4175
  974MOL0     H31435   1.706   2.660   5.117  1.7172 -3.2514  0.4239
  974MOL0     H31436   1.769   2.781   5.230 -1.9399 -0.7337  1.2341
  974MOL0     H31437   1.938   2.557   5.111  0.1191  0.9077 -0.8977
  974MOL0     H31438   1.994   2.689   5.208 -0.1060 -0.3636  1.1950
  974MOL0     H31439   1.895   2.695   4.922 -0.4749  1.6320 -1.1959
  974MOL0     H31440   1.898   2.849   4.999 -2.6114 -1.0650 -1.8974
  974MOL0     H31441   2.148   2.570   4.890  3.7970 -0.6729 -1.4166
  974MOL0     H31442   2.503   2.716   4.902 -0.1167  1.5557  1.5857
  974MOL0     H31443   2.452   2.594   5.026 -2.1809  0.3715  1.3351
  974MOL0     H31444   2.327   2.475   4.809 -0.0108 -0.4038  0.5982
  974MOL0     H31445   2.417   2.600   4.714 -0.1859  2.0426  1.3070
  974MOL0     H31446   2.542   2.397   4.718 -0.9175  1.6080 -1.1280
  974MOL0     H31447   2.531   2.372   4.892  2.0428  0.0691  0.3165
  974MOL0     H31448   2.701   2.550   4.928  0.3510  0.5177 -0.0255
  974MOL0     H31449   2.676   2.628   4.773  1.0318  0.9981  0.9030
  974MOL0     H31450   2.893   2.685   4.881 -1.1760 -3.9498  3.5563
  974MOL0     H31451   3.119   2.755   4.870  2.3273 -0.0489  0.2025
  974MOL0     H31452   3.536   2.498   4.474  0.9994 -0.2594 -1.1173
  974MOL0     H31453   3.771   2.513   4.426  1.3856 -0.6352  0.3672
  974MOL0     H31454   4.028   2.466   4.486 -0.4567  0.2665 -1.4327
  974MOL0     H31455   3.969   2.594   4.394 -1.9699 -1.4690  0.7655
  974MOL0     H31456   4.181   2.726   4.458 -2.0798 -0.8429 -3.9440
  974MOL0     H31457   4.212   2.610   4.588  0.4631  3.6404 -0.1699
  974MOL0     H31458   4.264   2.441   4.431 -1.8848  0.0303 -0.7060
  974MOL0     H31459   4.248   2.552   4.295 -0.0428 -2.7331 -0.7976
  974MOL0     H31460   4.430   2.607   4.531 -1.2280 -1.6496  0.8252
  974MOL0     H31461   4.402   2.711   4.390  1.2574 -0.6959 -0.8253
  974MOL0     H31462   4.512   2.527   4.245 -1.5764  0.8724  0.3300
  974MOL0     H31463   4.499   2.407   4.372  1.8998 -1.4950 -2.6110
  974MOL0     H31464   4.676   2.656   4.398  1.9235 -0.2620 -0.3622
  974MOL0     H31465   4.672   2.515   4.500  3.2005  3.3909  0.2915
  974MOL0     H31466   4.732   2.512   4.185 -0.6843 -0.5026 -1.4144
  974MOL0     H31467   4.738   2.373   4.290  2.9678  0.2823 -2.0479
  974MOL0     H31468   4.926   2.481   4.427  1.8199  3.3951  0.6880
  974MOL0     H31469   4.970   2.443   4.266 -1.9255 -2.8274  0.5078
  974MOL0     H31470   3.829   2.711   4.802  2.2718 -1.2744 -1.1775
  974MOL0     H31471   3.595   2.662   4.855 -1.2441 -1.4627  0.2058
  974MOL0     H31472   3.219   2.392   4.680 -2.0856 -0.2208 -1.0478
  974MOL0     H31473   2.977   2.318   4.691  1.1810 -0.7786  0.4696
  974MOL0     H31474   1.162   2.187   5.200 -0.8038  0.1726  0.3422
  974MOL0     H31475   0.966   2.130   5.058 -0.3731 -1.2524  2.0305
  974MOL0     H31476   0.448   2.258   5.304  1.1223  1.5008 -0.8088
  974MOL0     H31477   0.209   2.193   5.249  0.0038 -2.2501 -0.6838
  974MOL0     H31478  -0.010   2.231   5.117 -0.8907 -0.6809  0.4853
  974MOL0     H31479   0.029   2.070   5.158  2.4652 -0.5128 -0.8682
  974MOL0     H31480  -0.201   2.075   5.055 -1.5672  2.0299 -3.0757
  974MOL0     H31481  -0.095   1.997   4.936 -0.4131 -0.8511  0.7126
  974MOL0     H31482  -0.081   2.242   4.837  0.0134  1.6603  1.6933
  974MOL0     H31483  -0.211   2.287   4.945  1.1539  0.8132 -0.9489
  974MOL0     H31484  -0.220   2.040   4.747 -0.4158 -0.6369  1.0057
  974MOL0     H31485  -0.362   2.110   4.822 -0.0818  1.9515  0.7242
  974MOL0     H31486  -0.310   2.372   4.507  2.8229 -1.3891 -0.1267
  974MOL0     H31487   0.326   2.120   4.848 -2.4483 -0.2227  1.0611
  974MOL0     H31488   0.540   2.095   4.794 -0.2488  2.2320 -1.8186
  974MOL0     H31489   0.608   2.249   4.798  2.7114 -1.5282 -0.6853
  974MOL0     H31490   0.678   2.126   4.902  1.1476 -0.1352 -2.2153
  975MOL0     O31491   6.427   5.073  11.199  0.0994 -0.8286 -0.7993
  975MOL0     C31492   6.440   5.184  11.145 -1.0994  0.3955 -0.5659
  975MOL0     O31493   6.479   5.297  11.203  0.4905 -0.4211 -0.5205
  975MOL0     C31494   6.541   5.285  11.321 -0.1679  0.2196 -0.6344
  975MOL0     C31495   6.454   5.271  11.433  0.1139 -0.3236 -0.1448
  975MOL0     C31496   6.501   5.238  11.560 -0.6262  0.0472 -0.0803
  975MOL0     C31497   6.637   5.192  11.564  0.2650 -0.0847 -0.7199
  975MOL0     O31498   6.703   5.150  11.675 -0.0999  0.3298  0.0588
  975MOL0     C31499   6.629   5.110  11.788 -0.0416  0.2671  0.5019
  975MOL0     C31500   6.718   5.039  11.894  0.9305 -0.2819 -0.4693
  975MOL0     C31501   6.772   5.134  12.003 -0.2356 -0.0519  0.2232
  975MOL0     C31502   6.893   5.216  11.948 -0.3074 -0.2730 -0.0584
  975MOL0     C31503   6.964   5.315  12.053  0.5113  0.8614  0.3585
  975MOL0     C31504   7.048   5.232  12.139 -0.4650  0.7547 -0.2422
  975MOL0     C31505   7.104   5.300  12.254 -0.2477  0.9336  0.1890
  975MOL0     C31506   7.188   5.413  12.212  0.3534  0.2680  0.2391
  975MOL0     N31507   7.236   5.484  12.330 -0.3602  0.8651  0.0625
  975MOL0     C31508   7.374   5.510  12.358 -0.1695  0.0884  0.7099
  975MOL0     C31509   7.368   5.592  12.455 -0.9882 -0.3190 -0.3703
  975MOL0     C31510   7.476   5.658  12.544 -0.0294 -0.6000  0.3956
  975MOL0     C31511   7.557   5.775  12.482 -0.0896 -0.0355 -0.3198
  975MOL0     C31512   7.682   5.803  12.553  0.6581 -0.0736 -0.0492
  975MOL0     C31513   7.769   5.904  12.474  0.7402 -0.4261 -0.2113
  975MOL0     O31514   7.836   5.855  12.360 -0.0809 -0.3839 -0.3080
  975MOL0     C31515   7.888   5.942  12.266  0.6576 -0.3242 -0.0624
  975MOL0     C31516   7.905   5.898  12.138  1.4828  0.0156  0.4343
  975MOL0     C31517   7.956   5.973  12.031  0.9206 -0.0451  0.3260
  975MOL0     C31518   7.989   6.106  12.059  1.3096 -0.3043 -0.2298
  975MOL0     C31519   8.059   6.191  11.959 -0.5112  0.2410  0.3898
  975MOL0     O31520   8.107   6.301  12.008 -0.4688 -0.4793  0.0872
  975MOL0     C31521   8.183   6.379  11.924  0.1624 -0.0461  0.5437
  975MOL0     C31522   8.119   6.489  11.866 -0.4294  0.6512  0.1782
  975MOL0     C31523   8.194   6.573  11.783 -0.1879 -0.6210 -0.6498
  975MOL0     C31524   8.338   6.564  11.776  0.3724 -0.3746  0.2011
  975MOL0     O31525   8.413   6.656  11.713  0.4394 -0.1662 -0.4245
  975MOL0     C31526   8.381   6.674  11.578  0.0343  0.7055 -0.3476
  975MOL0     C31527   8.453   6.797  11.528  0.2163  0.0081 -0.1659
  975MOL0     C31528   8.431   6.800  11.378 -0.0880  0.9170 -0.1411
  975MOL0     C31529   8.511   6.920  11.322  0.5091 -0.0260  0.7251
  975MOL0     C31530   8.455   7.051  11.366 -0.4194 -0.1667  0.6827
  975MOL0     C31531   8.542   7.171  11.316  0.2799 -0.8173 -0.6981
  975MOL0     C31532   8.508   7.302  11.387 -0.3481 -0.0420 -0.0217
  975MOL0     C31533   8.449   7.396  11.285  0.1643 -0.0101  0.3215
  975MOL0    Cl31534   8.368   7.515  11.379 -0.7572 -0.1123 -0.3207
  975MOL0     C31535   8.396   6.451  11.830 -0.1776 -1.1308 -0.0162
  975MOL0     C31536   8.318   6.357  11.910 -0.0577  0.1537 -0.0167
  975MOL0     O31537   8.082   6.145  11.842  0.1242  0.5731 -0.4040
  975MOL0     C31538   7.984   6.152  12.193 -0.1246 -0.2805  0.2553
  975MOL0     C31539   7.933   6.065  12.296  1.0716  1.4432 -0.2271
  975MOL0     N31540   7.241   5.623  12.487  0.0907 -0.3177 -0.1458
  975MOL0     N31541   7.158   5.562  12.403 -0.6933 -0.4206  0.3323
  975MOL0     C31542   6.717   5.216  11.452 -0.1825  0.2798 -0.0814
  975MOL0     C31543   6.671   5.266  11.336  0.1017 -0.0914 -0.7445
  975MOL0     C31544   6.415   5.193  10.993  0.1733  0.8719 -0.6614
  975MOL0     C31545   6.390   5.316  10.939  0.5063 -0.3355 -0.3682
  975MOL0     C31546   6.372   5.337  10.803  0.1844  0.0756 -0.2408
  975MOL0     C31547   6.377   5.228  10.716 -0.2429 -0.2042 -0.9176
  975MOL0     O31548   6.361   5.223  10.579 -0.5539 -0.2783 -0.6115
  975MOL0     C31549   6.288   5.328  10.514  0.4007 -0.8303  0.5852
  975MOL0     C31550   6.139   5.332  10.553  0.0329  0.7647  1.1103
  975MOL0     C31551   6.079   5.456  10.480  0.4543  0.4340 -0.0547
  975MOL0     C31552   5.923   5.473  10.508 -0.4750  0.2310 -0.1958
  975MOL0     C31553   5.888   5.509  10.648  0.0166  0.3840 -0.4371
  975MOL0     C31554   5.837   5.518  10.756  0.3637  0.6596  0.5030
  975MOL0     C31555   6.401   5.094  10.770  0.5858  0.9517 -0.2888
  975MOL0     C31556   6.420   5.075  10.911 -0.4424 -0.3712 -0.3517
  975MOL0     C31557   6.460   4.940  10.959  0.1846  0.3869 -0.4270
  975MOL0     H31558   6.349   5.293  11.419  0.3691  1.2252  0.1769
  975MOL0     H31559   6.428   5.232  11.640  0.6363  2.0734  1.2930
  975MOL0     H31560   6.592   5.206  11.826 -0.6107  0.3104 -0.1465
  975MOL0     H31561   6.541   5.052  11.762  0.1411 -0.7360  1.9870
  975MOL0     H31562   6.800   4.982  11.849 -1.5476 -3.7449 -1.0297
  975MOL0     H31563   6.661   4.964  11.950  1.0382 -0.4059 -0.5259
  975MOL0     H31564   6.811   5.072  12.084 -0.9572 -3.7368 -2.0366
  975MOL0     H31565   6.697   5.208  12.029  0.0414 -0.3071  1.8524
  975MOL0     H31566   6.967   5.154  11.896 -2.0561  0.3080 -3.5633
  975MOL0     H31567   6.845   5.275  11.869  0.7937  0.5722 -0.1254
  975MOL0     H31568   7.025   5.383  11.994  1.7225  0.3419  0.9728
  975MOL0     H31569   6.879   5.352  12.112  0.4568  0.8104  0.3127
  975MOL0     H31570   6.986   5.151  12.179 -1.5237  0.8374 -1.6237
  975MOL0     H31571   7.133   5.193  12.083 -1.3763 -0.8208 -0.6061
  975MOL0     H31572   7.159   5.225  12.312 -0.8172 -0.3836 -0.9090
  975MOL0     H31573   7.021   5.332  12.317  0.9531 -0.7081  2.7754
  975MOL0     H31574   7.276   5.366  12.167  0.7110 -2.1650  3.1086
  975MOL0     H31575   7.134   5.479  12.144 -0.0797  0.5725  0.8643
  975MOL0     H31576   7.465   5.468  12.318  0.8893  1.2251  1.8062
  975MOL0     H31577   7.432   5.699  12.635 -0.9261  2.1741 -1.1598
  975MOL0     H31578   7.540   5.580  12.587 -0.6012 -0.6547  1.1622
  975MOL0     H31579   7.591   5.754  12.381  2.2075  1.2619  0.1237
  975MOL0     H31580   7.486   5.859  12.479 -1.7801 -1.3056  1.3467
  975MOL0     H31581   7.746   5.716  12.566  0.5621 -0.0437  0.6643
  975MOL0     H31582   7.660   5.844  12.652 -1.9450  4.6023 -2.2026
  975MOL0     H31583   7.840   5.949  12.544 -1.8507  0.9280  1.7095
  975MOL0     H31584   7.696   5.980  12.445 -0.2291  0.0291  3.0834
  975MOL0     H31585   7.881   5.795  12.114  1.9162 -0.3188  1.3874
  975MOL0     H31586   7.955   5.930  11.931  0.0272 -1.4145  0.8925
  975MOL0     H31587   8.012   6.506  11.866 -0.5304  0.5113 -2.5209
  975MOL0     H31588   8.139   6.654  11.738 -1.4714 -0.5325  0.9810
  975MOL0     H31589   8.405   6.583  11.524  0.9533 -0.1436  1.4244
  975MOL0     H31590   8.272   6.684  11.565  0.0379 -1.5506 -2.9176
  975MOL0     H31591   8.414   6.885  11.578 -1.7260 -0.6548 -0.4186
  975MOL0     H31592   8.559   6.793  11.557  0.1471 -1.8516 -0.0262
  975MOL0     H31593   8.487   6.713  11.341 -1.6419 -0.0016 -0.4448
  975MOL0     H31594   8.326   6.791  11.348  0.3229 -0.5831 -1.2547
  975MOL0     H31595   8.508   6.913  11.213 -0.3678  1.1045  0.6602
  975MOL0     H31596   8.615   6.920  11.357 -0.5910 -1.6428  4.6749
  975MOL0     H31597   8.437   7.060  11.474  0.1642 -1.5048  0.9102
  975MOL0     H31598   8.358   7.060  11.315 -0.3457 -1.4773  0.2853
  975MOL0     H31599   8.651   7.157  11.324  0.3419  0.3612  1.3739
  975MOL0     H31600   8.539   7.188  11.208  0.9105  2.0536 -0.3482
  975MOL0     H31601   8.599   7.343  11.432 -0.8756  1.7002 -0.4533
  975MOL0     H31602   8.446   7.276  11.473  2.4225 -0.5644  1.9409
  975MOL0     H31603   8.525   7.443  11.222 -2.1379  1.5082 -1.4696
  975MOL0     H31604   8.371   7.346  11.227  0.0295  1.2909 -0.6712
  975MOL0     H31605   8.503   6.439  11.811 -0.2659 -3.3866  0.6435
  975MOL0     H31606   8.355   6.262  11.946 -0.1478 -0.3571 -1.2386
  975MOL0     H31607   8.024   6.251  12.211  2.8848 -0.9166 -2.0964
  975MOL0     H31608   7.926   6.089  12.401 -0.3259 -1.6762  0.5170
  975MOL0     H31609   6.815   5.175  11.471 -0.2634  0.1576  0.0717
  975MOL0     H31610   6.736   5.276  11.249  1.3646 -1.4216 -0.0006
  975MOL0     H31611   6.380   5.405  11.000  0.8831  0.6593 -1.6951
  975MOL0     H31612   6.346   5.437  10.772  2.5019  0.1394 -2.2497
  975MOL0     H31613   6.306   5.327  10.407 -2.0581  2.8820 -0.0414
  975MOL0     H31614   6.318   5.425  10.555  1.1232 -0.2706 -1.2167
  975MOL0     H31615   6.127   5.324  10.661  1.5444 -1.0669  1.1932
  975MOL0     H31616   6.087   5.247  10.508  3.0633 -0.4283 -0.4262
  975MOL0     H31617   6.091   5.443  10.372  2.4227  1.6533 -0.0369
  975MOL0     H31618   6.124   5.553  10.504 -0.9614  1.0388  0.2327
  975MOL0     H31619   5.882   5.544  10.436  0.7100  0.6894 -0.4513
  975MOL0     H31620   5.882   5.373  10.491  1.9173 -1.4394  2.8985
  975MOL0     H31621   5.787   5.532  10.850 -1.7007  2.5708 -0.7760
  975MOL0     H31622   6.404   5.009  10.703 -1.6029  0.9582 -0.4703
  975MOL0     H31623   6.438   4.864  10.884 -0.1802 -0.8675  0.9000
  975MOL0     H31624   6.567   4.938  10.982  0.0546 -0.4650  0.1482
  975MOL0     H31625   6.403   4.904  11.045 -0.2185  2.3683  0.1939
  976MOL0     O31626   9.562   5.200   0.048  0.5293  0.1358  0.9527
  976MOL0     C31627   9.620   5.308   0.057  0.3898 -0.3342  0.4144
  976MOL0     O31628   9.551   5.422   0.077 -0.1254 -0.2918  0.1466
  976MOL0     C31629   9.411   5.435   0.095  0.4956 -0.4343 -0.0969
  976MOL0     C31630   9.345   5.554   0.049  0.6405 -0.3779  0.3270
  976MOL0     C31631   9.207   5.571   0.058  0.2990  0.3861  0.2685
  976MOL0     C31632   9.117   5.469   0.109  0.7504 -0.0355 -0.0664
  976MOL0     O31633   8.977   5.471   0.127  0.7508  0.5214  0.2571
  976MOL0     C31634   8.916   5.605   0.108  0.4486 -0.1162  0.5327
  976MOL0     C31635   8.776   5.590   0.133  0.6150  0.3317  0.1749
  976MOL0     C31636   8.700   5.718   0.137  0.0741 -0.2911  0.1127
  976MOL0     C31637   8.559   5.701   0.203 -0.2677  0.1680  0.8011
  976MOL0     C31638   8.492   5.837   0.222 -0.1257  0.6849  0.1513
  976MOL0     C31639   8.355   5.820   0.276  0.3681  0.3067  0.5571
  976MOL0     C31640   8.344   5.776   0.421 -0.5577 -0.6517  0.1201
  976MOL0     C31641   8.324   5.904   0.501 -0.0221  0.4033  0.6906
  976MOL0     N31642   8.290   5.880   0.648 -0.1572  0.2001 -0.2246
  976MOL0     C31643   8.347   5.952   0.755 -1.0523  0.0909  0.6552
  976MOL0     C31644   8.318   5.883   0.864 -0.0392  1.0043 -0.2466
  976MOL0     C31645   8.354   5.916   1.003 -0.6212  0.7520  0.0671
  976MOL0     C31646   8.257   5.990   1.079  0.2412  0.2545 -0.0990
  976MOL0     C31647   8.298   6.023   1.220 -0.8056 -0.6854 -0.5990
  976MOL0     C31648   8.253   5.917   1.327 -1.2214  0.5480 -0.6873
  976MOL0     O31649   8.313   5.929   1.454  0.0449 -0.3885 -0.8811
  976MOL0     C31650   8.439   5.880   1.478 -0.4813 -0.8197 -0.5997
  976MOL0     C31651   8.478   5.881   1.612  0.0901  0.4154 -0.3868
  976MOL0     C31652   8.592   5.820   1.653 -0.5069 -0.1693  0.2761
  976MOL0     C31653   8.687   5.775   1.560  0.5184  0.0388  0.3281
  976MOL0     C31654   8.812   5.711   1.612  0.1528  0.5111 -0.3756
  976MOL0     O31655   8.847   5.747   1.743 -0.5189  0.0995  1.2063
  976MOL0     C31656   8.965   5.690   1.792  0.3219  0.8627 -0.2533
  976MOL0     C31657   9.075   5.764   1.784  0.3078 -0.0864 -0.1629
  976MOL0     C31658   9.199   5.718   1.832 -0.3373 -1.0402  0.3267
  976MOL0     C31659   9.204   5.599   1.902 -0.5011  0.1971 -0.0386
  976MOL0     O31660   9.320   5.542   1.955  0.0614 -0.0919  0.2087
  976MOL0     C31661   9.442   5.612   1.931 -0.2900 -0.1214  1.3198
  976MOL0     C31662   9.544   5.507   1.988 -0.1332  0.4350  1.3307
  976MOL0     C31663   9.592   5.546   2.125 -0.3493 -0.0135  0.0707
  976MOL0     C31664   9.703   5.460   2.181  0.1775 -0.2458 -0.0561
  976MOL0     C31665   9.762   5.515   2.306 -0.8545  0.4368 -0.4007
  976MOL0     C31666   9.855   5.645   2.290 -0.2859  0.1149  0.5571
  976MOL0     C31667   9.862   5.720   2.420 -0.1597 -0.2780 -0.5776
  976MOL0     C31668   9.951   5.848   2.396  1.2175 -1.0033  0.5136
  976MOL0    Cl31669   9.887   5.958   2.267 -0.0264  0.1409 -0.4621
  976MOL0     C31670   9.088   5.519   1.922  0.0545  0.1970  0.2306
  976MOL0     C31671   8.975   5.566   1.857  0.5153 -0.1779 -0.1654
  976MOL0     O31672   8.884   5.646   1.534 -0.5719 -0.6053  0.2061
  976MOL0     C31673   8.661   5.788   1.419 -0.0573 -0.6233 -0.1174
  976MOL0     C31674   8.531   5.830   1.377  0.4380 -0.2978 -0.6662
  976MOL0     N31675   8.224   5.786   0.828 -0.6354  0.8515  0.5349
  976MOL0     N31676   8.209   5.790   0.699  0.6340  0.0287 -0.9601
  976MOL0     C31677   9.186   5.352   0.159 -0.5291 -0.0078  0.1950
  976MOL0     C31678   9.325   5.345   0.161 -0.9779 -0.3188  0.4406
  976MOL0     C31679   9.765   5.317   0.052 -0.2180 -0.2190  0.5599
  976MOL0     C31680   9.829   5.445   0.050  1.1433 -0.3113  0.0800
  976MOL0     C31681   9.967   5.455   0.064  0.5714  0.0217  0.0067
  976MOL0     C31682  10.041   5.340   0.078  0.4599  1.1898 -0.1121
  976MOL0     O31683  10.174   5.346   0.078 -0.9334 -0.8709 -0.0293
  976MOL0     C31684  10.239   5.421  -0.031 -0.1441  0.2852  0.0443
  976MOL0     C31685  10.384   5.437   0.007  0.4601  0.8107  0.9144
  976MOL0     C31686  10.444   5.532   0.117 -0.5476 -0.7832 -1.2234
  976MOL0     C31687  10.344   5.591   0.216  0.2581 -0.6653 -0.8478
  976MOL0     C31688  10.269   5.713   0.173  0.7674 -0.0481  0.5131
  976MOL0     C31689  10.199   5.801   0.129  0.4044  0.3875 -0.5590
  976MOL0     C31690   9.987   5.221   0.060  0.2326  0.3264 -0.7577
  976MOL0     C31691   9.847   5.201   0.057  0.3087  0.9945  0.3037
  976MOL0     C31692   9.797   5.060   0.058 -0.0119  0.4903 -0.1297
  976MOL0     H31693   9.405   5.639   0.017  0.8799 -0.7364 -0.1918
  976MOL0     H31694   9.168   5.671   0.045  0.7072  0.8330  2.1002
  976MOL0     H31695   8.959   5.682   0.174 -0.7925  0.7444  0.3778
  976MOL0     H31696   8.925   5.642   0.006  1.4684 -0.5210  0.4703
  976MOL0     H31697   8.777   5.542   0.231  1.4256  2.6520  1.3898
  976MOL0     H31698   8.740   5.525   0.053 -0.4330 -3.7993  3.6626
  976MOL0     H31699   8.691   5.769   0.041  1.1997  4.1249  2.1080
  976MOL0     H31700   8.755   5.798   0.188  0.5818  0.8973 -2.1922
  976MOL0     H31701   8.502   5.623   0.152  1.7683 -1.4925  0.9235
  976MOL0     H31702   8.592   5.653   0.296 -1.3772  0.1706  1.2021
  976MOL0     H31703   8.550   5.896   0.294  0.2474  0.0474  0.3759
  976MOL0     H31704   8.508   5.896   0.131  0.0483 -1.3453 -1.2000
  976MOL0     H31705   8.312   5.918   0.258  1.1526  0.4891 -0.4204
  976MOL0     H31706   8.300   5.750   0.212 -1.3124  0.1401  2.1168
  976MOL0     H31707   8.434   5.723   0.453 -1.0811 -1.6460 -0.0413
  976MOL0     H31708   8.264   5.705   0.439  1.0308 -2.1166  1.7057
  976MOL0     H31709   8.411   5.970   0.498  1.9990 -2.0961 -0.6778
  976MOL0     H31710   8.240   5.947   0.446  1.2361 -2.0703 -3.6656
  976MOL0     H31711   8.405   6.041   0.736 -2.7683  0.4945 -3.8937
  976MOL0     H31712   8.381   5.829   1.063 -0.2836  0.4706 -0.4851
  976MOL0     H31713   8.446   5.975   0.998 -0.3647  0.2807 -1.4138
  976MOL0     H31714   8.226   6.084   1.032 -3.1039  0.0166  1.3738
  976MOL0     H31715   8.163   5.934   1.082  0.7243 -0.5530  0.3920
  976MOL0     H31716   8.265   6.125   1.242  0.4207 -0.5258  0.6880
  976MOL0     H31717   8.407   6.037   1.222 -0.9855  0.9127 -0.6748
  976MOL0     H31718   8.262   5.817   1.282 -2.6253  1.6768 -3.7547
  976MOL0     H31719   8.145   5.932   1.338 -1.5111 -1.3776 -0.5979
  976MOL0     H31720   8.412   5.914   1.692 -0.2738 -1.4782  0.1274
  976MOL0     H31721   8.608   5.804   1.760 -2.9256  0.7665  0.8360
  976MOL0     H31722   9.075   5.863   1.739  3.1589 -0.7264 -1.8317
  976MOL0     H31723   9.289   5.778   1.819  0.4698 -2.1479  0.6634
  976MOL0     H31724   9.450   5.619   1.822 -0.2808  0.5066  1.3543
  976MOL0     H31725   9.441   5.709   1.981 -0.2606  0.4142  0.2959
  976MOL0     H31726   9.509   5.403   1.982  0.4928  0.2813 -3.1894
  976MOL0     H31727   9.625   5.519   1.916 -0.5410  2.0499  1.1012
  976MOL0     H31728   9.632   5.648   2.120  1.9278 -0.7704  1.3350
  976MOL0     H31729   9.512   5.538   2.199 -0.5333  2.9972  0.3123
  976MOL0     H31730   9.778   5.461   2.102  0.9437 -0.7285  0.6428
  976MOL0     H31731   9.675   5.356   2.204  3.7009 -0.7042  3.0807
  976MOL0     H31732   9.822   5.432   2.346 -0.5559  0.8312 -0.0214
  976MOL0     H31733   9.686   5.531   2.383  2.3807 -2.6011  3.9137
  976MOL0     H31734   9.957   5.615   2.264 -0.1172 -0.1058  1.4514
  976MOL0     H31735   9.826   5.715   2.211  1.1922  0.6149  0.4271
  976MOL0     H31736   9.913   5.660   2.497 -1.5757 -1.3906 -0.4727
  976MOL0     H31737   9.761   5.748   2.449  0.4983  2.3029 -0.5330
  976MOL0     H31738   9.966   5.899   2.492  0.3094  1.6931 -0.6856
  976MOL0     H31739  10.050   5.817   2.361  1.0574 -1.1200  0.1675
  976MOL0     H31740   9.097   5.425   1.976 -1.9586  0.7747  1.6808
  976MOL0     H31741   8.885   5.506   1.858  0.1505  0.3381  1.5236
  976MOL0     H31742   8.734   5.757   1.346 -0.2220  1.5590 -1.3047
  976MOL0     H31743   8.502   5.848   1.274 -2.4140  1.5648  0.3096
  976MOL0     H31744   9.133   5.270   0.208 -2.5451  2.5092  2.5013
  976MOL0     H31745   9.370   5.262   0.215  0.3272  0.7531  1.0757
  976MOL0     H31746   9.763   5.531   0.037  1.6223 -0.1905 -2.0384
  976MOL0     H31747  10.018   5.550   0.060 -0.5514  0.6301 -0.3044
  976MOL0     H31748  10.194   5.519  -0.052 -0.8548 -0.1144 -0.3526
  976MOL0     H31749  10.239   5.349  -0.113 -0.0777 -1.4848  1.5509
  976MOL0     H31750  10.437   5.463  -0.085 -0.2064 -3.2779 -0.8338
  976MOL0     H31751  10.411   5.332   0.018  1.6196  0.9228 -0.5637
  976MOL0     H31752  10.511   5.607   0.075  1.1195 -1.5146 -0.0151
  976MOL0     H31753  10.508   5.474   0.184 -3.2027  0.0564  2.2936
  976MOL0     H31754  10.281   5.517   0.265  2.6463 -2.4177 -0.2200
  976MOL0     H31755  10.409   5.613   0.301 -1.5185 -1.6309  0.8316
  976MOL0     H31756  10.137   5.873   0.080 -2.4844 -2.8813 -2.1758
  976MOL0     H31757  10.052   5.134   0.069 -0.6589 -0.3577 -0.7318
  976MOL0     H31758   9.891   5.004   0.055  0.9032  1.5469  3.5309
  976MOL0     H31759   9.758   5.034   0.157  2.4343 -1.1448  0.5122
  976MOL0     H31760   9.725   5.018  -0.012 -0.9168  1.3565  0.2476
  977MOL0     O31761   9.600   2.501   3.953  0.1626 -0.6029  0.0050
  977MOL0     C31762   9.547   2.434   3.862  0.3784 -0.3284  0.0336
  977MOL0     O31763   9.616   2.372   3.761 -0.0989 -0.0281 -0.5396
  977MOL0     C31764   9.751   2.395   3.753 -0.1311 -0.0118  0.3444
  977MOL0     C31765   9.833   2.311   3.823  0.0767 -0.3451 -0.3342
  977MOL0     C31766   9.971   2.338   3.816  0.1740 -0.2747  0.2849
  977MOL0     C31767  10.022   2.455   3.749  0.3727  0.5740  0.8566
  977MOL0     O31768  10.160   2.475   3.748 -1.0855  0.2909  0.0468
  977MOL0     C31769  10.233   2.589   3.698 -0.4451  0.2996 -1.0850
  977MOL0     C31770  10.263   2.588   3.544  0.5738  0.6909 -0.1293
  977MOL0     C31771  10.382   2.689   3.511 -0.6279  0.3534 -0.2805
  977MOL0     C31772  10.516   2.613   3.503 -0.1872  0.7317  0.3050
  977MOL0     C31773  10.537   2.555   3.363 -0.1557  0.7406 -0.0760
  977MOL0     C31774  10.675   2.492   3.342  0.3459 -0.2072 -0.3342
  977MOL0     C31775  10.689   2.455   3.194  0.1986 -0.0545 -0.2757
  977MOL0     C31776  10.813   2.370   3.168 -0.4033 -0.0655  0.5375
  977MOL0     N31777  10.931   2.448   3.211  0.0194  0.6664 -0.1171
  977MOL0     C31778  10.968   2.551   3.136 -0.5060  0.3093 -1.0498
  977MOL0     C31779  11.093   2.571   3.190  0.2894 -0.1861 -0.4224
  977MOL0     C31780  11.173   2.690   3.160  0.0337 -0.5733 -0.3874
  977MOL0     C31781  11.284   2.658   3.061  0.1104 -0.1957  0.2778
  977MOL0     C31782  11.407   2.594   3.129 -0.8064 -0.5492 -0.2614
  977MOL0     C31783  11.488   2.518   3.028  0.7773  0.1596  0.0423
  977MOL0     O31784  11.519   2.614   2.926  0.4307  0.4269  0.2499
  977MOL0     C31785  11.647   2.662   2.905  0.6046  0.5755 -0.3582
  977MOL0     C31786  11.767   2.597   2.946  0.5083 -0.9663  0.8656
  977MOL0     C31787  11.887   2.659   2.907  0.1054  0.2238 -0.5114
  977MOL0     C31788  11.900   2.772   2.819  0.4004  0.5930 -0.9761
  977MOL0     C31789  12.032   2.808   2.767  0.0606  0.3644 -0.3174
  977MOL0     O31790  12.044   2.877   2.649  0.4135  0.1904 -0.4757
  977MOL0     C31791  12.166   2.916   2.615  0.3978 -0.0458 -0.0006
  977MOL0     C31792  12.253   3.000   2.683 -0.7739  0.4269 -0.6961
  977MOL0     C31793  12.376   3.044   2.623  0.7980  0.0022  0.1614
  977MOL0     C31794  12.407   2.985   2.496 -0.6209 -0.4972  0.1016
  977MOL0     O31795  12.514   3.012   2.424 -0.2485  0.1771 -0.2492
  977MOL0     C31796  12.619   3.104   2.467  0.0441 -0.6199 -0.5329
  977MOL0     C31797  12.706   3.161   2.355 -0.0448  0.6247  0.4686
  977MOL0     C31798  12.810   3.061   2.307 -0.2361  0.1205  0.0900
  977MOL0     C31799  12.925   3.121   2.209 -0.5432 -0.5019 -0.3355
  977MOL0     C31800  12.868   3.173   2.080 -0.2311  0.2669  0.2487
  977MOL0     C31801  12.992   3.205   1.983  0.7657 -0.4352  0.3304
  977MOL0     C31802  12.937   3.239   1.833 -0.8937  0.3760  0.3073
  977MOL0     C31803  13.022   3.346   1.757 -0.0112  0.5107  0.1707
  977MOL0    Cl31804  13.184   3.291   1.690  0.4435 -0.1203  0.0412
  977MOL0     C31805  12.317   2.904   2.434 -0.6732  0.0970 -0.5706
  977MOL0     C31806  12.204   2.850   2.496  0.3858  0.1501  0.3452
  977MOL0     O31807  12.129   2.773   2.840  0.5697  0.2784 -0.3845
  977MOL0     C31808  11.785   2.827   2.780  0.0875 -0.0494  0.0427
  977MOL0     C31809  11.660   2.776   2.824  0.1965  0.4955  0.7777
  977MOL0     N31810  11.126   2.474   3.288 -0.5926 -0.6931  0.6962
  977MOL0     N31811  11.022   2.402   3.304 -0.7697  0.0614  0.2282
  977MOL0     C31812   9.935   2.538   3.682 -0.1932 -0.4662  0.6763
  977MOL0     C31813   9.796   2.503   3.680 -0.1875 -0.4658  0.6954
  977MOL0     C31814   9.397   2.415   3.873  0.2637 -0.2460  0.3150
  977MOL0     C31815   9.329   2.457   3.980  0.5674  0.2647  0.2773
  977MOL0     C31816   9.187   2.461   3.991 -0.2610  0.5247  0.3889
  977MOL0     C31817   9.100   2.418   3.890 -0.6816  0.2227 -0.4191
  977MOL0     O31818   8.965   2.396   3.901 -0.6514 -0.0107  0.2007
  977MOL0     C31819   8.904   2.424   4.021 -0.4080 -0.9588 -1.1129
  977MOL0     C31820   8.749   2.407   4.023 -0.1574  0.4370  1.7654
  977MOL0     C31821   8.694   2.508   3.935  0.8695 -0.5907 -0.1388
  977MOL0     C31822   8.535   2.539   3.946  0.0218 -0.2070  0.1373
  977MOL0     C31823   8.493   2.627   3.835 -0.4948 -0.2239  0.3816
  977MOL0     C31824   8.474   2.705   3.743  1.0858  0.1925 -0.0440
  977MOL0     C31825   9.168   2.378   3.776 -0.1241  0.0548  0.2717
  977MOL0     C31826   9.307   2.373   3.764  0.1460  0.1377 -0.3767
  977MOL0     C31827   9.359   2.351   3.624  1.0972 -0.2346 -0.9425
  977MOL0     H31828   9.783   2.228   3.872 -0.6232  0.0995 -0.2798
  977MOL0     H31829  10.047   2.276   3.862 -0.3431 -0.8187  0.4202
  977MOL0     H31830  10.177   2.676   3.733  2.2321  0.7375  2.7077
  977MOL0     H31831  10.331   2.588   3.746  0.2821  0.3768 -2.5209
  977MOL0     H31832  10.171   2.621   3.494 -0.0082  0.7850  0.9798
  977MOL0     H31833  10.296   2.490   3.511  0.6931  0.8066 -0.3578
  977MOL0     H31834  10.390   2.759   3.595  2.2191  0.2506 -0.3971
  977MOL0     H31835  10.362   2.741   3.417 -0.7109  0.2995 -0.2930
  977MOL0     H31836  10.601   2.682   3.505 -0.1424  0.6585  1.7795
  977MOL0     H31837  10.539   2.543   3.583 -0.6070  1.6032  1.2105
  977MOL0     H31838  10.468   2.472   3.347  2.4385 -1.5937  0.0818
  977MOL0     H31839  10.523   2.631   3.286  1.2211 -0.8459 -1.9871
  977MOL0     H31840  10.743   2.571   3.373 -1.1505  2.4669 -3.3625
  977MOL0     H31841  10.677   2.410   3.415 -3.1238  0.3696  0.5888
  977MOL0     H31842  10.690   2.542   3.128 -4.7987 -1.6081 -2.9094
  977MOL0     H31843  10.606   2.400   3.148 -1.0184  3.5684 -2.8310
  977MOL0     H31844  10.810   2.274   3.221 -1.3256 -0.3275  0.0282
  977MOL0     H31845  10.834   2.347   3.063  0.1000 -0.3226  0.6898
  977MOL0     H31846  10.918   2.612   3.062 -0.1292  3.1138  0.8693
  977MOL0     H31847  11.112   2.768   3.113  3.3386  2.2946 -0.3517
  977MOL0     H31848  11.216   2.724   3.255  2.8153 -2.8750 -0.6995
  977MOL0     H31849  11.238   2.595   2.984 -0.9168  0.9145 -0.0668
  977MOL0     H31850  11.304   2.750   3.005 -2.5158  0.7218  0.7059
  977MOL0     H31851  11.379   2.531   3.214  0.1740 -1.7724 -0.8004
  977MOL0     H31852  11.466   2.681   3.161 -1.5103 -0.3853  0.6055
  977MOL0     H31853  11.423   2.434   3.001 -0.6322  1.2241 -0.0324
  977MOL0     H31854  11.577   2.477   3.076  0.0271 -0.1105  1.2379
  977MOL0     H31855  11.764   2.510   3.011 -2.0937 -1.6199 -0.0245
  977MOL0     H31856  11.981   2.621   2.945  1.7014  3.7173 -0.5002
  977MOL0     H31857  12.228   3.047   2.778  2.8536  1.2762 -0.0357
  977MOL0     H31858  12.441   3.106   2.684 -1.5085  1.0907  1.6396
  977MOL0     H31859  12.580   3.189   2.524 -1.3639 -1.5734  0.0068
  977MOL0     H31860  12.681   3.044   2.534  1.0526 -1.5687 -2.2609
  977MOL0     H31861  12.639   3.203   2.279 -1.3749 -1.2739  0.5279
  977MOL0     H31862  12.762   3.242   2.402 -0.3902 -0.3116  2.5938
  977MOL0     H31863  12.864   3.027   2.396 -0.9080  0.0590  0.4823
  977MOL0     H31864  12.765   2.972   2.260 -1.4351  0.5139  0.4490
  977MOL0     H31865  12.996   3.039   2.190  1.2261  0.9979 -0.4496
  977MOL0     H31866  12.979   3.200   2.261  1.6640 -1.1782 -1.4567
  977MOL0     H31867  12.810   3.265   2.091 -1.6512 -0.8921  5.2948
  977MOL0     H31868  12.799   3.106   2.029 -2.0840  1.2057  1.4335
  977MOL0     H31869  13.052   3.281   2.035  1.2594  0.2607 -1.2078
  977MOL0     H31870  13.059   3.119   1.968  1.8410  0.4785 -0.2207
  977MOL0     H31871  12.834   3.274   1.839 -1.4995 -1.2494 -0.0709
  977MOL0     H31872  12.926   3.146   1.777  0.6447  1.1893 -1.4419
  977MOL0     H31873  12.964   3.384   1.673 -0.5766  1.0717  0.8014
  977MOL0     H31874  13.034   3.433   1.823  0.4991 -0.1737  1.0074
  977MOL0     H31875  12.357   2.862   2.342  1.9156 -0.3904  0.6912
  977MOL0     H31876  12.137   2.777   2.452  1.0815 -0.7714  0.7996
  977MOL0     H31877  11.776   2.903   2.702 -0.3739  0.9792  1.0773
  977MOL0     H31878  11.568   2.816   2.785 -1.3723 -2.2528  1.4091
  977MOL0     H31879   9.973   2.617   3.617  0.8282 -1.8077 -0.4283
  977MOL0     H31880   9.731   2.573   3.627 -1.8088 -1.2225  1.6143
  977MOL0     H31881   9.392   2.489   4.062  1.3234 -1.7752  0.5681
  977MOL0     H31882   9.158   2.505   4.086  1.3979  1.4757  0.4939
  977MOL0     H31883   8.920   2.530   4.038 -1.7592 -0.2619 -3.6970
  977MOL0     H31884   8.950   2.372   4.107 -2.1773 -0.6200  0.0891
  977MOL0     H31885   8.708   2.409   4.125  0.7424  1.8639  2.1253
  977MOL0     H31886   8.721   2.309   3.983  1.1726 -0.0059  1.8762
  977MOL0     H31887   8.720   2.476   3.834 -2.5747  0.4216 -1.4803
  977MOL0     H31888   8.732   2.606   3.966 -0.4517 -0.0705 -0.1110
  977MOL0     H31889   8.484   2.443   3.939 -3.3959  1.5524 -1.0102
  977MOL0     H31890   8.517   2.583   4.044  1.8210 -0.9022  0.8292
  977MOL0     H31891   8.456   2.782   3.671  1.7091 -1.0337 -1.5660
  977MOL0     H31892   9.105   2.344   3.695 -1.0906  1.2422  0.4968
  977MOL0     H31893   9.279   2.360   3.550  1.1188  2.1895 -0.7467
  977MOL0     H31894   9.434   2.426   3.595 -0.4904  1.7891 -0.0196
  977MOL0     H31895   9.401   2.250   3.625 -1.7367 -1.5124  1.0547
  978MOL0     O31896   7.934   7.414   6.819  0.1559  0.1856  0.0721
  978MOL0     C31897   8.001   7.501   6.758  0.0310  0.4429 -0.9686
  978MOL0     O31898   8.121   7.548   6.800 -0.2462  0.1072  0.1277
  978MOL0     C31899   8.185   7.499   6.914 -0.1891 -0.3029  0.8499
  978MOL0     C31900   8.124   7.496   7.038  0.2538 -0.0948 -0.0282
  978MOL0     C31901   8.180   7.429   7.147 -0.4577  0.3466 -1.2784
  978MOL0     C31902   8.312   7.371   7.131  0.0668 -0.0796  0.1127
  978MOL0     O31903   8.394   7.314   7.237  0.2700 -0.0391  0.5259
  978MOL0     C31904   8.351   7.362   7.367  0.2421 -0.3225 -0.0007
  978MOL0     C31905   8.455   7.318   7.474 -0.3862 -0.2085 -0.7639
  978MOL0     C31906   8.598   7.371   7.443  0.0993 -0.1976  0.9261
  978MOL0     C31907   8.687   7.354   7.565 -0.5551  0.7178 -0.0986
  978MOL0     C31908   8.759   7.491   7.597  0.2304  0.4529  0.2142
  978MOL0     C31909   8.862   7.519   7.486  0.1368 -0.3715 -0.4472
  978MOL0     C31910   8.911   7.665   7.504  0.3606 -0.1314 -0.1405
  978MOL0     C31911   9.014   7.678   7.613  0.3579  0.2417 -0.4107
  978MOL0     N31912   9.143   7.629   7.568 -0.3055  0.6124  0.1422
  978MOL0     C31913   9.210   7.675   7.460 -0.4995  0.3125  0.3024
  978MOL0     C31914   9.319   7.596   7.460 -0.2571  0.3519 -0.3870
  978MOL0     C31915   9.440   7.599   7.367  0.1711  0.4637 -0.1344
  978MOL0     C31916   9.539   7.711   7.384 -0.0431  0.5610 -0.0464
  978MOL0     C31917   9.624   7.693   7.515  1.6569  1.6411  0.7370
  978MOL0     C31918   9.713   7.802   7.544 -0.5544 -0.1336  0.4102
  978MOL0     O31919   9.830   7.781   7.469 -0.2719 -0.1820  0.0086
  978MOL0     C31920   9.935   7.880   7.466 -0.0324  0.9899  0.7741
  978MOL0     C31921  10.025   7.855   7.369  0.4828  0.3796  1.5983
  978MOL0     C31922  10.125   7.956   7.338  0.3797 -0.0223 -0.3137
  978MOL0     C31923  10.125   8.075   7.409 -0.6932  0.4871  0.3186
  978MOL0     C31924  10.229   8.174   7.380 -0.1000 -0.9874 -0.1716
  978MOL0     O31925  10.320   8.154   7.282  0.0258 -0.5182  0.1880
  978MOL0     C31926  10.404   8.264   7.248  0.3678  0.0002  0.4496
  978MOL0     C31927  10.522   8.216   7.178 -0.2743 -0.3053 -0.8634
  978MOL0     C31928  10.617   8.307   7.133  0.2985  0.0325 -0.4341
  978MOL0     C31929  10.612   8.441   7.163 -0.3326 -0.3498 -0.4464
  978MOL0     O31930  10.715   8.520   7.118 -0.0698  0.2187  0.1255
  978MOL0     C31931  10.742   8.654   7.163  0.3771  0.3019  0.8125
  978MOL0     C31932  10.873   8.708   7.093  0.1376  0.2650 -0.1773
  978MOL0     C31933  10.994   8.639   7.146 -0.7738  0.3307 -0.3372
  978MOL0     C31934  11.036   8.513   7.055  0.5368  0.3371  0.6105
  978MOL0     C31935  11.179   8.461   7.051 -0.6744  1.2277 -1.3788
  978MOL0     C31936  11.221   8.408   7.190 -0.1046  0.0674  0.1162
  978MOL0     C31937  11.353   8.336   7.183 -0.5414 -0.0727 -0.3460
  978MOL0     C31938  11.397   8.287   7.319 -0.3493 -0.4689 -0.3366
  978MOL0    Cl31939  11.401   8.419   7.445  0.3046  0.0290  0.3683
  978MOL0     C31940  10.495   8.491   7.225  0.9562 -0.1957 -0.0639
  978MOL0     C31941  10.391   8.410   7.266  0.5030  0.0307  0.2341
  978MOL0     O31942  10.230   8.266   7.459 -0.4509 -0.1786 -0.1006
  978MOL0     C31943  10.024   8.097   7.506  0.2418  0.5632 -0.9336
  978MOL0     C31944   9.937   7.998   7.535  0.4986 -0.9618  0.3281
  978MOL0     N31945   9.317   7.507   7.564  0.9297  0.4503  0.2363
  978MOL0     N31946   9.207   7.527   7.626  0.3122 -0.4197  0.0922
  978MOL0     C31947   8.386   7.390   7.012 -1.0079 -0.7283 -0.2391
  978MOL0     C31948   8.314   7.450   6.903  0.2630 -0.4526  0.1369
  978MOL0     C31949   7.957   7.566   6.627 -1.1826  0.5504  0.0426
  978MOL0     C31950   8.032   7.675   6.573  0.6727  0.7735 -0.5138
  978MOL0     C31951   8.011   7.737   6.453  0.5210  0.5891  0.1564
  978MOL0     C31952   7.907   7.680   6.372  0.3217 -0.2467 -0.3962
  978MOL0     O31953   7.875   7.731   6.249 -0.0840  0.2002  0.2866
  978MOL0     C31954   7.867   7.873   6.237  0.9076 -0.9110  0.1075
  978MOL0     C31955   7.787   7.917   6.108  0.4714  0.1813  0.5097
  978MOL0     C31956   7.646   7.859   6.103 -0.3407  0.3515 -0.5757
  978MOL0     C31957   7.574   7.868   5.967  0.4847  0.0592 -0.2922
  978MOL0     C31958   7.628   7.773   5.865  0.9721  0.3796  0.2548
  978MOL0     C31959   7.675   7.704   5.775 -0.1736  0.9893  0.3331
  978MOL0     C31960   7.838   7.571   6.417 -0.3555  0.3853 -0.0704
  978MOL0     C31961   7.856   7.518   6.547  0.2895 -0.1117 -0.1614
  978MOL0     C31962   7.781   7.392   6.578 -0.2383 -0.1072 -0.9670
  978MOL0     H31963   8.024   7.538   7.030  0.7289  0.8154 -1.5712
  978MOL0     H31964   8.117   7.410   7.232 -0.5160  0.7472 -1.2282
  978MOL0     H31965   8.333   7.469   7.362 -0.1603 -0.4276 -1.6386
  978MOL0     H31966   8.259   7.304   7.381  0.0002  0.2990  1.0891
  978MOL0     H31967   8.464   7.209   7.485  2.4078  0.0997  1.3064
  978MOL0     H31968   8.423   7.344   7.575  1.6728  0.1609 -0.1587
  978MOL0     H31969   8.584   7.478   7.428  0.1797 -0.3275 -0.1790
  978MOL0     H31970   8.644   7.330   7.352 -0.3592  0.3172  0.4546
  978MOL0     H31971   8.626   7.323   7.651  0.6617 -0.6444  0.3014
  978MOL0     H31972   8.768   7.282   7.550  0.9026  2.3384 -0.3268
  978MOL0     H31973   8.686   7.571   7.607 -0.7790 -0.2002 -1.5048
  978MOL0     H31974   8.815   7.485   7.691  2.0008 -3.7630 -0.8366
  978MOL0     H31975   8.951   7.456   7.498  2.8558  3.3594  0.6995
  978MOL0     H31976   8.816   7.498   7.389  1.3664  1.2194 -1.4312
  978MOL0     H31977   8.821   7.724   7.525 -0.8558 -1.3005 -1.7222
  978MOL0     H31978   8.927   7.704   7.403 -0.2841  3.9588  1.1801
  978MOL0     H31979   9.029   7.781   7.644 -0.1384 -0.9278  4.4159
  978MOL0     H31980   8.988   7.619   7.701  0.5624 -1.0317 -1.1650
  978MOL0     H31981   9.189   7.756   7.391  1.7956 -0.4920 -1.4557
  978MOL0     H31982   9.493   7.506   7.390  0.6033  1.0718  1.4874
  978MOL0     H31983   9.400   7.593   7.266 -1.5877 -1.3590  0.5892
  978MOL0     H31984   9.611   7.703   7.302 -0.4418  0.5617 -0.3985
  978MOL0     H31985   9.490   7.809   7.387  0.3306  0.7757 -0.7914
  978MOL0     H31986   9.676   7.597   7.516 -2.0185 -0.6587 -1.9786
  978MOL0     H31987   9.539   7.682   7.584  0.2069 -0.9959 -1.2800
  978MOL0     H31988   9.737   7.820   7.649  2.7878 -0.5149 -0.1783
  978MOL0     H31989   9.663   7.898   7.527  1.3880  1.2656  2.0564
  978MOL0     H31990  10.027   7.763   7.311 -0.3962  2.4569 -1.9960
  978MOL0     H31991  10.196   7.939   7.258  0.3044 -1.8648 -0.0295
  978MOL0     H31992  10.544   8.110   7.170  2.0470  0.0051  0.4053
  978MOL0     H31993  10.705   8.262   7.090 -0.7082 -1.9563 -0.5404
  978MOL0     H31994  10.671   8.731   7.131  0.0760 -0.2472  0.1284
  978MOL0     H31995  10.757   8.667   7.270 -0.9814  1.1269  0.9346
  978MOL0     H31996  10.854   8.693   6.986 -1.1936 -0.2383  0.1127
  978MOL0     H31997  10.877   8.816   7.113  1.7218  0.3171 -0.6382
  978MOL0     H31998  11.072   8.714   7.136 -0.5924  0.0960 -0.7085
  978MOL0     H31999  10.975   8.611   7.250 -1.4013 -0.2018 -0.5882
  978MOL0     H32000  11.017   8.544   6.952 -0.8835 -0.4121  0.6246
  978MOL0     H32001  10.973   8.436   7.101  0.9181 -0.5989 -0.4075
  978MOL0     H32002  11.246   8.544   7.026 -0.4283  0.9301 -1.7102
  978MOL0     H32003  11.175   8.381   6.976 -1.9462 -1.7588  1.6235
  978MOL0     H32004  11.227   8.483   7.269  0.8725 -0.8027  0.9135
  978MOL0     H32005  11.151   8.331   7.224  0.2118  0.1904  1.0682
  978MOL0     H32006  11.432   8.396   7.136 -0.1014 -1.7884 -1.8932
  978MOL0     H32007  11.346   8.244   7.125  0.4063 -0.6318  0.3865
  978MOL0     H32008  11.329   8.205   7.344 -1.2540  0.6323  0.9301
  978MOL0     H32009  11.502   8.256   7.312 -0.6225 -1.2677 -1.1607
  978MOL0     H32010  10.487   8.600   7.225  0.0312 -0.2515  0.9723
  978MOL0     H32011  10.302   8.456   7.305  0.4259  1.8571 -1.8736
  978MOL0     H32012  10.015   8.198   7.545 -0.3879  1.5248 -3.4141
  978MOL0     H32013   9.864   8.031   7.608  2.3818 -1.0495  2.3821
  978MOL0     H32014   8.485   7.351   6.990 -1.7989 -1.9374 -1.9559
  978MOL0     H32015   8.357   7.463   6.804 -0.7017  0.9102 -0.1266
  978MOL0     H32016   8.125   7.695   6.627  0.1916 -1.3160  1.2146
  978MOL0     H32017   8.068   7.819   6.412  0.6576 -0.2644 -1.4542
  978MOL0     H32018   7.961   7.928   6.251  0.9967 -1.4404  1.8111
  978MOL0     H32019   7.800   7.890   6.322 -1.6358 -3.9089 -1.1254
  978MOL0     H32020   7.857   7.881   6.031  1.1344  1.4208  0.5028
  978MOL0     H32021   7.779   8.025   6.097  1.6918  0.3623  1.2131
  978MOL0     H32022   7.583   7.921   6.167 -0.0792  0.8734 -0.8124
  978MOL0     H32023   7.636   7.759   6.146 -1.0236  1.1862  1.3010
  978MOL0     H32024   7.467   7.856   5.984  0.1015  2.1701 -0.9421
  978MOL0     H32025   7.596   7.969   5.931  1.5744  1.0835  2.8665
  978MOL0     H32026   7.701   7.649   5.687 -2.2383  1.2290 -0.4663
  978MOL0     H32027   7.768   7.528   6.346  0.4486 -0.4362 -0.3848
  978MOL0     H32028   7.855   7.311   6.587 -0.8434 -0.5057  0.8707
  978MOL0     H32029   7.736   7.402   6.677  0.5766  2.3088 -0.7765
  978MOL0     H32030   7.713   7.369   6.495  1.6375  1.7420 -3.1441
  979MOL0     O32031   9.385   7.510   3.353  0.5218  0.5740  0.4716
  979MOL0     C32032   9.276   7.510   3.303 -0.8466 -0.2435 -0.5396
  979MOL0     O32033   9.230   7.615   3.217  0.1749  0.0127 -0.3566
  979MOL0     C32034   9.321   7.704   3.162 -0.6159  0.1725  0.4084
  979MOL0     C32035   9.307   7.840   3.170 -0.2168 -0.0929  0.3371
  979MOL0     C32036   9.401   7.924   3.115 -0.1570 -0.0973  0.0430
  979MOL0     C32037   9.515   7.874   3.052 -0.3449 -0.5117 -0.1057
  979MOL0     O32038   9.610   7.964   3.010 -1.1132 -0.0848  0.2591
  979MOL0     C32039   9.668   7.952   2.877  0.0103 -0.2865 -0.3254
  979MOL0     C32040   9.784   8.053   2.888  0.5376  0.1305  0.0068
  979MOL0     C32041   9.879   8.039   2.774  0.2448  0.5046 -0.1781
  979MOL0     C32042  10.014   8.102   2.808 -0.5146 -0.4283 -1.0158
  979MOL0     C32043  10.106   8.088   2.679  0.0473  0.1263  0.2045
  979MOL0     C32044  10.245   8.126   2.720  0.3639  0.6837  0.0066
  979MOL0     C32045  10.335   8.122   2.597 -0.2316 -0.3260  0.0395
  979MOL0     C32046  10.480   8.181   2.626 -0.5145  0.3404 -0.0678
  979MOL0     N32047  10.551   8.192   2.500 -0.0094 -0.0185 -0.5434
  979MOL0     C32048  10.531   8.288   2.407 -0.2717  0.2759  0.8176
  979MOL0     C32049  10.612   8.262   2.301 -0.1452 -0.3107 -0.2106
  979MOL0     C32050  10.620   8.345   2.179  0.0417 -0.2751 -0.2792
  979MOL0     C32051  10.652   8.492   2.206  0.3074  0.3154  0.0639
  979MOL0     C32052  10.753   8.535   2.312  0.4289  0.4035  0.5304
  979MOL0     C32053  10.893   8.478   2.292  0.1210  0.4911  0.5941
  979MOL0     O32054  10.950   8.508   2.157  0.1831 -0.1326 -0.2387
  979MOL0     C32055  11.085   8.510   2.156 -0.6877 -0.3590  1.5109
  979MOL0     C32056  11.166   8.436   2.235  0.3479  0.5045 -0.9511
  979MOL0     C32057  11.302   8.429   2.217  0.3456 -0.7682  0.0399
  979MOL0     C32058  11.362   8.506   2.120  0.2092 -0.3709  1.7104
  979MOL0     C32059  11.506   8.502   2.106  0.4306  0.2550  0.4468
  979MOL0     O32060  11.573   8.433   2.200  0.4082 -0.1093  0.3087
  979MOL0     C32061  11.712   8.445   2.224 -0.0969  1.0136  0.2932
  979MOL0     C32062  11.797   8.335   2.268 -0.2763 -0.6153 -0.1314
  979MOL0     C32063  11.934   8.359   2.283 -0.4848  1.3713 -0.0665
  979MOL0     C32064  11.988   8.483   2.271 -0.9490  0.1383 -0.4466
  979MOL0     O32065  12.127   8.498   2.281  0.1583 -0.3308 -0.0861
  979MOL0     C32066  12.191   8.623   2.297  0.6818 -0.8536 -0.6371
  979MOL0     C32067  12.218   8.692   2.164  0.5852 -0.2690  0.1615
  979MOL0     C32068  12.339   8.628   2.088  0.4234 -0.2928 -0.7359
  979MOL0     C32069  12.365   8.704   1.951  0.4243  0.4609 -0.2416
  979MOL0     C32070  12.459   8.644   1.845  0.8778  0.7023  0.3820
  979MOL0     C32071  12.387   8.517   1.783  0.0530 -0.5681  0.2337
  979MOL0     C32072  12.478   8.466   1.653  0.3990  0.0102 -0.8466
  979MOL0     C32073  12.625   8.452   1.694 -0.5809  0.2964 -0.4119
  979MOL0    Cl32074  12.640   8.321   1.820  0.1989 -0.0713 -0.0468
  979MOL0     C32075  11.914   8.591   2.235  0.6187 -0.9949  0.7577
  979MOL0     C32076  11.774   8.568   2.216 -0.4932  0.2435  0.3031
  979MOL0     O32077  11.555   8.547   2.005 -0.3735  0.1733  0.7925
  979MOL0     C32078  11.285   8.589   2.032  0.7839 -0.6350  0.4734
  979MOL0     C32079  11.147   8.588   2.050 -0.3706 -0.0542  0.7487
  979MOL0     N32080  10.688   8.152   2.339 -0.2814 -0.3059  0.8665
  979MOL0     N32081  10.649   8.113   2.456  0.0981  0.9128 -1.1913
  979MOL0     C32082   9.538   7.731   3.048  0.1136 -0.7569  0.0343
  979MOL0     C32083   9.438   7.650   3.102 -0.7020 -0.7972 -0.3879
  979MOL0     C32084   9.176   7.422   3.357  0.5452  0.6501  0.7201
  979MOL0     C32085   9.192   7.383   3.493 -0.3064  0.8720 -0.1356
  979MOL0     C32086   9.094   7.308   3.562  0.5289 -0.0552 -0.0926
  979MOL0     C32087   8.981   7.267   3.496  0.6435  0.2649 -0.4336
  979MOL0     O32088   8.896   7.174   3.567 -0.1835 -0.3573 -0.1754
  979MOL0     C32089   8.804   7.099   3.486  0.3341  0.3904 -0.2273
  979MOL0     C32090   8.765   6.977   3.562 -0.8594 -0.7336  0.1217
  979MOL0     C32091   8.739   7.010   3.711  0.1005 -0.3025 -0.4545
  979MOL0     C32092   8.686   6.889   3.779 -0.3538  0.7023 -0.1147
  979MOL0     C32093   8.648   6.928   3.912 -0.0551 -0.6075  0.0957
  979MOL0     C32094   8.611   6.961   4.022  0.8928  0.3110 -0.6270
  979MOL0     C32095   8.969   7.293   3.359 -0.0870 -0.6953 -0.7414
  979MOL0     C32096   9.065   7.366   3.292 -0.2471 -0.0437 -0.1437
  979MOL0     C32097   9.044   7.393   3.144  0.4594 -0.3254 -0.4097
  979MOL0     H32098   9.217   7.885   3.211 -1.1963 -1.0490 -0.6879
  979MOL0     H32099   9.381   8.031   3.112  1.0424  0.2119  1.5691
  979MOL0     H32100   9.697   7.848   2.855  0.0790 -0.7724  1.8508
  979MOL0     H32101   9.607   7.991   2.795 -0.2172 -2.9721 -1.5707
  979MOL0     H32102   9.834   8.045   2.985  1.1538 -1.1528 -0.3969
  979MOL0     H32103   9.734   8.149   2.872 -2.5554 -1.3471  0.0146
  979MOL0     H32104   9.834   8.080   2.683 -1.8468 -0.8670  0.1758
  979MOL0     H32105   9.898   7.932   2.761 -0.1884  0.1433  1.8270
  979MOL0     H32106   9.990   8.206   2.830  0.3455 -0.4097 -0.1173
  979MOL0     H32107  10.059   8.062   2.900 -0.1561 -2.0933 -1.8740
  979MOL0     H32108  10.112   7.986   2.641  0.5099  0.0785  0.3921
  979MOL0     H32109  10.070   8.146   2.594  0.4965 -0.7669 -0.5988
  979MOL0     H32110  10.255   8.227   2.761  2.0965  1.3224 -1.7866
  979MOL0     H32111  10.281   8.058   2.798 -1.9744 -0.8842 -0.1866
  979MOL0     H32112  10.289   8.184   2.520 -0.5370 -0.4044  0.1584
  979MOL0     H32113  10.345   8.020   2.558 -2.4743  0.0385 -1.7253
  979MOL0     H32114  10.486   8.273   2.684  1.1284 -1.1043  2.2402
  979MOL0     H32115  10.535   8.110   2.689  0.1189  0.4601 -0.4740
  979MOL0     H32116  10.453   8.363   2.411 -0.0689  0.5063  0.4933
  979MOL0     H32117  10.703   8.310   2.117  0.7055 -2.6320  1.7814
  979MOL0     H32118  10.538   8.333   2.107  1.0751 -0.5977 -1.4308
  979MOL0     H32119  10.678   8.543   2.113  0.2302  0.4766  0.1302
  979MOL0     H32120  10.555   8.535   2.233  0.2750 -0.9936  2.3061
  979MOL0     H32121  10.723   8.498   2.410  0.7023 -1.3496 -0.0083
  979MOL0     H32122  10.755   8.643   2.296  1.2381  0.1875 -1.0782
  979MOL0     H32123  10.894   8.370   2.311 -3.0647  0.1809 -0.4575
  979MOL0     H32124  10.953   8.523   2.372 -2.0649  1.0734  1.9933
  979MOL0     H32125  11.122   8.365   2.304  3.1561 -2.0371 -1.5428
  979MOL0     H32126  11.359   8.365   2.284  2.4481  3.1215  2.3389
  979MOL0     H32127  11.748   8.246   2.304 -0.6836  0.0277  0.9282
  979MOL0     H32128  11.987   8.266   2.304 -1.8153  0.9058  1.4986
  979MOL0     H32129  12.143   8.695   2.364 -0.6871 -0.5854 -1.8473
  979MOL0     H32130  12.290   8.595   2.334  0.9995  1.0685  0.1035
  979MOL0     H32131  12.129   8.694   2.099  0.0437 -1.3143  0.8315
  979MOL0     H32132  12.233   8.796   2.192 -1.4547  0.1157  0.0167
  979MOL0     H32133  12.428   8.629   2.152  1.0227  1.3412 -1.5185
  979MOL0     H32134  12.314   8.524   2.065 -2.9970  0.0717  0.7094
  979MOL0     H32135  12.377   8.810   1.975 -2.9402  1.5553 -2.6723
  979MOL0     H32136  12.267   8.692   1.905 -0.1375 -3.8513  1.5424
  979MOL0     H32137  12.553   8.624   1.898  0.8903  5.1352  2.4795
  979MOL0     H32138  12.477   8.716   1.765 -0.9353  0.0862 -0.6347
  979MOL0     H32139  12.385   8.428   1.847  0.7404 -2.7229 -2.5459
  979MOL0     H32140  12.284   8.540   1.754  0.7269  3.7701  0.5210
  979MOL0     H32141  12.470   8.539   1.572  1.2057  0.7479 -0.2828
  979MOL0     H32142  12.435   8.370   1.620 -1.0319 -1.9680  5.3790
  979MOL0     H32143  12.689   8.431   1.608  3.2583 -1.8269  2.6176
  979MOL0     H32144  12.673   8.545   1.728  0.7474 -0.6552  0.4435
  979MOL0     H32145  11.957   8.690   2.228  2.4193 -1.8370 -1.8360
  979MOL0     H32146  11.708   8.653   2.200  0.9915  1.3507 -0.2362
  979MOL0     H32147  11.331   8.667   1.972 -0.6981 -0.5109 -0.5526
  979MOL0     H32148  11.092   8.665   1.996  0.8665  0.2545 -0.1159
  979MOL0     H32149   9.629   7.683   3.012 -0.4014 -1.3321 -0.5141
  979MOL0     H32150   9.457   7.543   3.105  3.2467 -0.2737 -1.3316
  979MOL0     H32151   9.277   7.421   3.548 -1.2784  1.8923  0.7340
  979MOL0     H32152   9.098   7.298   3.670 -1.1054 -0.1265 -0.0079
  979MOL0     H32153   8.848   7.071   3.390  0.7488 -0.0072  0.0694
  979MOL0     H32154   8.721   7.167   3.468  0.8525  1.0467 -0.1530
  979MOL0     H32155   8.854   6.914   3.560  1.0808  1.8181  0.6667
  979MOL0     H32156   8.687   6.917   3.515  0.6795 -0.3426 -3.2600
  979MOL0     H32157   8.652   7.076   3.716 -0.6707 -1.1739 -1.8353
  979MOL0     H32158   8.826   7.058   3.757 -1.1175  0.3452  1.2864
  979MOL0     H32159   8.602   6.844   3.725  1.1748  0.5343 -2.4934
  979MOL0     H32160   8.764   6.813   3.771 -1.5460 -0.5489 -0.3517
  979MOL0     H32161   8.576   6.978   4.122 -0.3028 -0.0961 -0.9521
  979MOL0     H32162   8.892   7.260   3.290  1.8619 -0.9285 -2.9097
  979MOL0     H32163   8.988   7.487   3.138  2.3719  1.0266  1.5219
  979MOL0     H32164   9.141   7.407   3.095  0.4571  0.6454 -0.1720
  979MOL0     H32165   8.995   7.309   3.094 -0.8188  0.6123 -0.7951
  980MOL0     O32166   8.497   6.300   7.111  0.9700  0.1473  0.1413
  980MOL0     C32167   8.492   6.419   7.081  0.2994  1.1826 -0.2480
  980MOL0     O32168   8.595   6.502   7.097  0.7605 -0.3435 -0.5505
  980MOL0     C32169   8.726   6.457   7.080  0.0915 -0.3969 -0.7747
  980MOL0     C32170   8.765   6.344   7.018  0.4982  0.2190 -0.1825
  980MOL0     C32171   8.904   6.310   7.029  0.4312  0.2676  0.8617
  980MOL0     C32172   8.996   6.390   7.092 -0.2280 -0.5370  0.7207
  980MOL0     O32173   9.130   6.368   7.108  0.2787 -0.1540  0.6618
  980MOL0     C32174   9.182   6.232   7.077  1.0037  0.4570  0.3392
  980MOL0     C32175   9.330   6.228   7.100  0.3597  0.3122  0.3627
  980MOL0     C32176   9.370   6.238   7.246  0.3980 -0.0391  0.5805
  980MOL0     C32177   9.366   6.367   7.329 -1.0984 -0.2908  0.6189
  980MOL0     C32178   9.471   6.476   7.291  0.5507  0.5881 -0.2434
  980MOL0     C32179   9.614   6.426   7.320 -0.3425  0.7508 -0.2410
  980MOL0     C32180   9.707   6.543   7.288  0.6470  0.1135  0.4940
  980MOL0     C32181   9.850   6.492   7.282 -0.0282 -0.6288 -0.6010
  980MOL0     N32182   9.944   6.598   7.248  0.1245 -0.4595  0.8792
  980MOL0     C32183  10.050   6.581   7.160  0.2554  0.1025 -0.1511
  980MOL0     C32184  10.108   6.706   7.153 -0.6316 -1.3387  0.0463
  980MOL0     C32185  10.241   6.761   7.096  0.7325 -0.2261  0.1365
  980MOL0     C32186  10.361   6.712   7.177  1.0800  0.1138  0.1453
  980MOL0     C32187  10.487   6.743   7.104  0.0633 -0.2873 -0.0523
  980MOL0     C32188  10.610   6.736   7.189 -0.2449  0.2070  0.4808
  980MOL0     O32189  10.714   6.754   7.093  0.0146  0.3585 -0.8605
  980MOL0     C32190  10.850   6.765   7.128  0.5062 -0.4178 -1.1773
  980MOL0     C32191  10.898   6.751   7.258  0.3276 -0.0973 -0.4894
  980MOL0     C32192  11.038   6.754   7.277 -0.2690  0.6977 -0.2445
  980MOL0     C32193  11.122   6.776   7.167  0.1541 -0.3357  0.8092
  980MOL0     C32194  11.272   6.774   7.184 -0.9360 -0.0462  0.3631
  980MOL0     O32195  11.324   6.754   7.314 -0.0479  0.0061  0.2858
  980MOL0     C32196  11.458   6.730   7.321 -0.6084 -0.4731 -0.0149
  980MOL0     C32197  11.502   6.594   7.319  0.3090 -0.0787 -0.4614
  980MOL0     C32198  11.642   6.575   7.344 -0.0010  0.4833  0.8777
  980MOL0     C32199  11.732   6.684   7.345  0.4119  0.5651  0.3969
  980MOL0     O32200  11.862   6.659   7.348 -0.2283 -0.7066 -0.0908
  980MOL0     C32201  11.942   6.723   7.254 -0.1401 -0.0869 -0.1976
  980MOL0     C32202  12.083   6.677   7.258  0.5791  1.2794  1.1004
  980MOL0     C32203  12.102   6.527   7.238 -0.6356 -1.0120  0.5304
  980MOL0     C32204  12.253   6.497   7.241 -0.5045 -0.0156 -0.0173
  980MOL0     C32205  12.270   6.347   7.289 -0.0089 -0.5668 -0.9673
  980MOL0     C32206  12.408   6.324   7.359  0.6647 -0.3670 -1.3105
  980MOL0     C32207  12.514   6.296   7.262 -0.3974 -0.7226  0.3795
  980MOL0     C32208  12.573   6.411   7.180 -0.2093 -0.6636 -0.9340
  980MOL0    Cl32209  12.735   6.375   7.106 -0.1818 -0.3805 -0.4445
  980MOL0     C32210  11.686   6.814   7.324  0.4643 -0.5038 -0.8136
  980MOL0     C32211  11.549   6.838   7.328  0.5306  0.5855  0.0039
  980MOL0     O32212  11.343   6.765   7.083  0.0818 -0.2156  0.3712
  980MOL0     C32213  11.065   6.799   7.041  1.1731 -0.9071 -0.3412
  980MOL0     C32214  10.924   6.792   7.015  0.0506  0.6035 -0.4311
  980MOL0     N32215  10.044   6.784   7.247  0.3741 -0.1541 -0.5132
  980MOL0     N32216   9.948   6.718   7.303 -0.1513 -0.2898  0.1081
  980MOL0     C32217   8.952   6.510   7.146 -0.1814  0.5097  0.4837
  980MOL0     C32218   8.813   6.545   7.143  0.1660  0.4824  0.1892
  980MOL0     C32219   8.360   6.472   7.051 -0.4627 -0.3077 -0.0576
  980MOL0     C32220   8.279   6.499   7.160  0.4519 -0.2620  0.7881
  980MOL0     C32221   8.146   6.533   7.133  0.4133 -0.6564 -0.2479
  980MOL0     C32222   8.097   6.514   6.996  0.4097 -0.0727 -0.7163
  980MOL0     O32223   7.960   6.519   6.971 -0.4825  0.3529 -0.3855
  980MOL0     C32224   7.872   6.576   7.065 -0.2330 -0.0875 -0.0302
  980MOL0     C32225   7.736   6.600   7.005  0.3005  0.7388 -0.1468
  980MOL0     C32226   7.634   6.658   7.109  0.4697  0.0981  0.4778
  980MOL0     C32227   7.641   6.809   7.128  0.0910 -0.3346 -0.7711
  980MOL0     C32228   7.573   6.855   7.251  0.4156 -0.6295  0.4284
  980MOL0     C32229   7.540   6.893   7.355 -0.5287  0.3791 -0.3201
  980MOL0     C32230   8.182   6.496   6.891 -0.2358  0.3473 -0.9208
  980MOL0     C32231   8.314   6.466   6.921 -0.7480  0.2272  0.9320
  980MOL0     C32232   8.410   6.438   6.807  0.4074 -0.2223  0.2631
  980MOL0     H32233   8.696   6.277   6.968 -1.5313  1.3194  1.0071
  980MOL0     H32234   8.936   6.222   6.975  0.5171  1.0646 -0.4416
  980MOL0     H32235   9.133   6.165   7.149  0.5256  3.2699  2.8197
  980MOL0     H32236   9.163   6.210   6.971  0.2380 -1.1608  0.7708
  980MOL0     H32237   9.368   6.314   7.043 -3.0272  1.8917  0.2830
  980MOL0     H32238   9.371   6.130   7.071 -0.0280  0.3396 -0.3059
  980MOL0     H32239   9.473   6.204   7.258  0.7799 -0.0994 -2.2330
  980MOL0     H32240   9.309   6.163   7.296  1.4447 -0.6034  1.0247
  980MOL0     H32241   9.267   6.413   7.314 -0.8412 -0.3871 -1.6955
  980MOL0     H32242   9.384   6.340   7.434  7.2924  2.7096  0.7087
  980MOL0     H32243   9.474   6.503   7.185  5.3734 -2.4957 -1.2032
  980MOL0     H32244   9.452   6.569   7.346 -0.8025 -0.2529  0.7595
  980MOL0     H32245   9.625   6.390   7.422 -0.1673 -0.2425 -0.5940
  980MOL0     H32246   9.650   6.339   7.265  0.7852  0.4800  0.8947
  980MOL0     H32247   9.691   6.620   7.364  2.3797  0.4056  0.5980
  980MOL0     H32248   9.685   6.590   7.192  0.1851 -1.1330 -0.0314
  980MOL0     H32249   9.890   6.475   7.383 -3.6023  0.7127  1.1954
  980MOL0     H32250   9.868   6.406   7.216  1.5393  1.0968 -2.5407
  980MOL0     H32251  10.079   6.490   7.110 -0.2867 -0.2340  0.1376
  980MOL0     H32252  10.252   6.731   6.991 -3.7064  0.5637 -0.7573
  980MOL0     H32253  10.229   6.869   7.085 -0.9648 -0.6422 -3.7279
  980MOL0     H32254  10.350   6.768   7.270  1.6986  0.5196 -0.0141
  980MOL0     H32255  10.353   6.607   7.204  3.0388 -0.4958 -1.3764
  980MOL0     H32256  10.485   6.838   7.049  0.5890 -0.8064 -1.0041
  980MOL0     H32257  10.500   6.669   7.024  3.1833  0.9492 -0.8280
  980MOL0     H32258  10.619   6.641   7.241 -1.8503  1.5639  3.4600
  980MOL0     H32259  10.616   6.812   7.268 -1.2176 -0.3394  1.0989
  980MOL0     H32260  10.830   6.719   7.337  1.2226  0.3613  0.4730
  980MOL0     H32261  11.077   6.739   7.378 -0.9971  0.4391  0.0095
  980MOL0     H32262  11.427   6.515   7.326  3.1226 -3.1464 -1.9338
  980MOL0     H32263  11.681   6.475   7.357  0.3947  0.3913 -0.8028
  980MOL0     H32264  11.898   6.727   7.154 -0.5635  0.7461  0.0158
  980MOL0     H32265  11.949   6.830   7.273  1.0528 -0.4607  1.7817
  980MOL0     H32266  12.135   6.727   7.177  2.8870 -0.9739  1.0466
  980MOL0     H32267  12.131   6.722   7.346  0.9512  1.5764  0.7443
  980MOL0     H32268  12.054   6.467   7.316  2.0919 -2.2174  1.4328
  980MOL0     H32269  12.051   6.507   7.143  0.7910  3.0642 -1.3084
  980MOL0     H32270  12.302   6.564   7.313 -1.9007 -0.5502  1.4741
  980MOL0     H32271  12.298   6.516   7.144 -0.3335 -2.2939 -0.4365
  980MOL0     H32272  12.261   6.279   7.204 -0.0097 -1.8113  0.0017
  980MOL0     H32273  12.187   6.322   7.356  2.0750 -1.5568  1.3605
  980MOL0     H32274  12.424   6.417   7.415 -2.6020 -0.6315  0.2691
  980MOL0     H32275  12.399   6.242   7.431  1.0396  0.0605 -0.7693
  980MOL0     H32276  12.476   6.227   7.186  2.4967 -1.5549 -0.4506
  980MOL0     H32277  12.593   6.241   7.315  1.4446 -0.6032 -2.0751
  980MOL0     H32278  12.498   6.434   7.104 -1.0966 -1.6181 -0.3768
  980MOL0     H32279  12.582   6.503   7.237 -0.9700 -1.2290  0.1225
  980MOL0     H32280  11.756   6.897   7.326  0.5476 -0.5631 -1.2178
  980MOL0     H32281  11.506   6.937   7.331 -2.5739 -0.6056 -1.1001
  980MOL0     H32282  11.139   6.810   6.962  1.3448  0.1098 -0.0580
  980MOL0     H32283  10.894   6.805   6.912  3.9235  2.0416 -1.5430
  980MOL0     H32284   9.017   6.581   7.196 -0.3306  1.0649 -0.0813
  980MOL0     H32285   8.779   6.636   7.191  2.8396  2.0461 -0.7225
  980MOL0     H32286   8.315   6.487   7.261  1.9589 -0.7438  0.2102
  980MOL0     H32287   8.073   6.548   7.213  0.0427 -2.8418 -0.1252
  980MOL0     H32288   7.924   6.668   7.092  1.9612 -1.0573 -0.6847
  980MOL0     H32289   7.860   6.512   7.153  0.3454  0.1400  0.2211
  980MOL0     H32290   7.705   6.506   6.959  3.0124  0.3441 -1.3429
  980MOL0     H32291   7.743   6.660   6.914  2.4554 -1.0704 -1.2661
  980MOL0     H32292   7.652   6.614   7.207 -0.2464 -0.0336  0.5603
  980MOL0     H32293   7.538   6.621   7.070 -0.3111 -0.0771  2.4861
  980MOL0     H32294   7.746   6.830   7.148 -0.3504 -0.0035  1.4839
  980MOL0     H32295   7.614   6.860   7.035 -0.5946 -0.0878 -0.4438
  980MOL0     H32296   7.516   6.916   7.456 -2.6893 -2.3670 -0.0731
  980MOL0     H32297   8.150   6.489   6.788  1.8765  0.5815 -1.6386
  980MOL0     H32298   8.486   6.515   6.795 -0.7310  0.9584  0.3860
  980MOL0     H32299   8.462   6.343   6.820  1.9106  0.1422 -2.4092
  980MOL0     H32300   8.359   6.427   6.711 -2.6584 -3.0394  1.9877
  981MOL0     O32301   6.801  10.626   8.997  0.2789 -0.2660  0.8925
  981MOL0     C32302   6.700  10.634   8.929 -0.5863 -0.9873  1.0647
  981MOL0     O32303   6.653  10.752   8.871  0.2861 -0.0578  0.5798
  981MOL0     C32304   6.707  10.873   8.904 -0.7155  0.5333 -0.1218
  981MOL0     C32305   6.625  10.981   8.938 -0.1484 -0.3553  0.6799
  981MOL0     C32306   6.682  11.111   8.963 -0.2969  0.0118  0.2232
  981MOL0     C32307   6.819  11.129   8.930  0.9607 -0.7384  1.1139
  981MOL0     O32308   6.875  11.257   8.959  0.3008  0.2277 -0.2435
  981MOL0     C32309   7.003  11.298   8.899 -0.2612  0.8259  0.1299
  981MOL0     C32310   7.053  11.427   8.965 -0.1195  0.1669  0.0582
  981MOL0     C32311   7.174  11.479   8.900 -0.6816 -0.1312 -0.6536
  981MOL0     C32312   7.302  11.394   8.898 -0.4817 -0.4584  0.5425
  981MOL0     C32313   7.422  11.474   8.844  0.0708  0.0424 -0.1551
  981MOL0     C32314   7.559  11.396   8.832  0.4990  0.7660 -1.0815
  981MOL0     C32315   7.673  11.489   8.800 -0.0166 -0.0045 -0.3461
  981MOL0     C32316   7.649  11.558   8.664  0.3980  0.3395  0.1740
  981MOL0     N32317   7.644  11.464   8.562 -0.6028  0.2802 -0.0608
  981MOL0     C32318   7.737  11.368   8.543 -0.4159  0.2914 -0.2873
  981MOL0     C32319   7.676  11.282   8.464  0.5397  0.4276  0.0330
  981MOL0     C32320   7.738  11.166   8.383  0.0195  0.6136 -0.4126
  981MOL0     C32321   7.732  11.186   8.232  0.2443 -0.0650 -0.2755
  981MOL0     C32322   7.833  11.096   8.155 -0.5950 -0.5049  1.0333
  981MOL0     C32323   7.959  11.180   8.111  0.0095  0.4384 -0.3645
  981MOL0     O32324   7.943  11.249   7.987  0.1119  0.5137 -0.1000
  981MOL0     C32325   8.051  11.249   7.901 -0.8631  0.0109  0.2629
  981MOL0     C32326   8.113  11.366   7.865 -0.7838  0.3537  0.7845
  981MOL0     C32327   8.230  11.377   7.790 -0.2279  0.0329 -0.2249
  981MOL0     C32328   8.291  11.255   7.751 -0.1922 -0.2098 -0.0329
  981MOL0     C32329   8.418  11.262   7.677 -0.0284  0.3268  0.4169
  981MOL0     O32330   8.483  11.382   7.683  0.1808 -1.0669  0.1693
  981MOL0     C32331   8.596  11.393   7.606  0.1268 -0.6198 -0.0889
  981MOL0     C32332   8.708  11.456   7.667 -0.0064  0.8574  0.0246
  981MOL0     C32333   8.829  11.471   7.597 -0.2328  0.1245 -0.0757
  981MOL0     C32334   8.845  11.421   7.470  0.4928 -0.7973  0.1444
  981MOL0     O32335   8.974  11.408   7.418  0.3899 -0.2009 -0.0094
  981MOL0     C32336   9.057  11.304   7.475 -0.4190  0.3694 -0.0664
  981MOL0     C32337   9.191  11.367   7.533 -0.1127 -0.0587 -0.3581
  981MOL0     C32338   9.277  11.435   7.426  0.7497 -0.1763  0.5270
  981MOL0     C32339   9.330  11.326   7.325 -0.3222 -0.5865 -0.3573
  981MOL0     C32340   9.472  11.372   7.258  0.1329  0.7039  0.0563
  981MOL0     C32341   9.593  11.371   7.355 -0.0252 -0.2845  0.1206
  981MOL0     C32342   9.720  11.392   7.277 -0.2783  0.1389  0.3440
  981MOL0     C32343   9.835  11.419   7.372  0.2432 -0.3573 -0.9235
  981MOL0    Cl32344   9.991  11.469   7.282  0.1159 -0.3986 -0.0258
  981MOL0     C32345   8.733  11.362   7.408 -0.5328 -0.5522  0.4698
  981MOL0     C32346   8.611  11.351   7.474 -0.0250  0.1421  0.1809
  981MOL0     O32347   8.476  11.156   7.645 -0.3219  0.0863 -0.0766
  981MOL0     C32348   8.227  11.134   7.783 -0.7674 -0.3351 -0.2592
  981MOL0     C32349   8.110  11.134   7.856  0.1794  0.2853 -0.5260
  981MOL0     N32350   7.545  11.314   8.439  0.2390  1.0237 -0.4155
  981MOL0     N32351   7.531  11.425   8.502 -0.6788 -0.3975 -0.3655
  981MOL0     C32352   6.898  11.023   8.883 -0.1163  0.7457 -0.4825
  981MOL0     C32353   6.851  10.895   8.874  0.0299  0.4222  0.0742
  981MOL0     C32354   6.622  10.516   8.907  0.3759  0.8227 -0.6987
  981MOL0     C32355   6.596  10.475   8.772 -0.6375 -0.0029 -0.2547
  981MOL0     C32356   6.532  10.361   8.740 -0.0151 -0.1472  0.5464
  981MOL0     C32357   6.485  10.272   8.837  0.0612  0.5041 -0.5073
  981MOL0     O32358   6.422  10.148   8.826 -0.1154  0.1150  0.7840
  981MOL0     C32359   6.401  10.101   8.695  0.0028  0.4350  0.2192
  981MOL0     C32360   6.316   9.979   8.692 -0.0137 -0.0895  0.1229
  981MOL0     C32361   6.206   9.988   8.591  0.3013 -0.5635 -0.4552
  981MOL0     C32362   6.087   9.893   8.632 -0.8860 -0.3885  0.0050
  981MOL0     C32363   5.976   9.942   8.542 -0.9229  1.0848  0.6128
  981MOL0     C32364   5.898   9.990   8.470 -0.4639 -0.5407  0.8877
  981MOL0     C32365   6.507  10.311   8.970  0.3363  1.0584 -0.0970
  981MOL0     C32366   6.561  10.434   9.005 -0.2917 -0.8634 -0.7482
  981MOL0     C32367   6.571  10.475   9.149 -0.9977  0.1438  0.4573
  981MOL0     H32368   6.517  10.964   8.941 -0.7437  1.4354 -3.4726
  981MOL0     H32369   6.616  11.190   8.997 -1.4392 -0.7377 -0.1928
  981MOL0     H32370   7.081  11.223   8.904 -0.0733  0.9253 -0.9808
  981MOL0     H32371   6.988  11.310   8.791  0.0661 -1.1882 -0.1729
  981MOL0     H32372   7.071  11.396   9.068  0.1170 -3.9990 -1.0636
  981MOL0     H32373   6.982  11.510   8.970 -0.8298 -0.2115 -2.4806
  981MOL0     H32374   7.198  11.574   8.949 -0.3293 -1.5901  2.2173
  981MOL0     H32375   7.142  11.510   8.800 -1.7450  0.3804 -0.1690
  981MOL0     H32376   7.326  11.351   8.996 -2.6253  1.5185  2.0286
  981MOL0     H32377   7.288  11.301   8.842  1.4567 -1.5098  1.6785
  981MOL0     H32378   7.385  11.495   8.743 -0.6433  0.0016  0.0893
  981MOL0     H32379   7.420  11.569   8.897 -2.9929  1.1383 -1.9635
  981MOL0     H32380   7.581  11.360   8.932 -1.3353 -0.2986 -1.0029
  981MOL0     H32381   7.547  11.304   8.774  0.0825 -0.5035  0.9527
  981MOL0     H32382   7.775  11.450   8.804 -0.1853 -0.6770 -1.7787
  981MOL0     H32383   7.680  11.558   8.884  0.5257 -1.3567  0.7628
  981MOL0     H32384   7.560  11.620   8.670  1.2413  1.5173  0.7896
  981MOL0     H32385   7.737  11.621   8.646  1.5456 -0.5442  2.2292
  981MOL0     H32386   7.837  11.370   8.586  0.1905  1.4887 -1.6684
  981MOL0     H32387   7.840  11.146   8.415  0.1121  1.3649 -0.2156
  981MOL0     H32388   7.669  11.085   8.411 -1.4623  2.2671  0.9876
  981MOL0     H32389   7.631  11.160   8.198 -0.9597  2.3255  1.1889
  981MOL0     H32390   7.768  11.286   8.208 -0.3554  0.4813  1.0144
  981MOL0     H32391   7.794  11.066   8.057 -0.0693  1.6830  0.0855
  981MOL0     H32392   7.879  11.018   8.217 -0.3653 -2.1898 -1.1156
  981MOL0     H32393   8.036  11.102   8.100 -0.3987 -0.0369  0.0744
  981MOL0     H32394   7.979  11.248   8.195  0.3313  0.1756 -0.2228
  981MOL0     H32395   8.068  11.461   7.891  0.0020  0.0564  3.5622
  981MOL0     H32396   8.277  11.474   7.780 -2.6257  1.2261 -0.5480
  981MOL0     H32397   8.702  11.480   7.773  0.5051  1.3084 -0.0398
  981MOL0     H32398   8.914  11.518   7.644 -0.1437 -0.4613  0.3694
  981MOL0     H32399   8.995  11.246   7.545 -3.1481  0.8444 -1.9454
  981MOL0     H32400   9.072  11.237   7.390 -1.6264  0.3124 -0.2582
  981MOL0     H32401   9.164  11.445   7.604 -1.1792 -0.7318  0.0081
  981MOL0     H32402   9.245  11.286   7.583  0.5756 -0.6771 -2.0222
  981MOL0     H32403   9.223  11.497   7.355  2.0761 -2.0644 -2.2971
  981MOL0     H32404   9.358  11.494   7.469  1.6324  0.9573 -2.4667
  981MOL0     H32405   9.243  11.313   7.259 -1.3811 -0.6524  1.0109
  981MOL0     H32406   9.345  11.233   7.380  0.9023  0.9126  2.0060
  981MOL0     H32407   9.472  11.474   7.219 -1.0851  1.3295  1.5852
  981MOL0     H32408   9.498  11.301   7.178 -2.3855  0.7413 -0.8761
  981MOL0     H32409   9.593  11.451   7.430  3.4399  0.3537 -0.3850
  981MOL0     H32410   9.594  11.269   7.393  0.6022 -0.5441 -0.5566
  981MOL0     H32411   9.710  11.481   7.214 -3.5424  0.6149  1.3209
  981MOL0     H32412   9.749  11.301   7.224  3.2489  1.0817  0.3985
  981MOL0     H32413   9.811  11.502   7.439  1.2471 -2.6492  2.5252
  981MOL0     H32414   9.855  11.336   7.441  0.1400 -0.0701 -0.5421
  981MOL0     H32415   8.731  11.310   7.313  0.2164  0.0077  0.1393
  981MOL0     H32416   8.534  11.294   7.423  2.8964 -3.4568 -0.6461
  981MOL0     H32417   8.270  11.041   7.746  0.5251  1.4853 -3.8140
  981MOL0     H32418   8.059  11.040   7.876 -1.6131  1.4658  0.8407
  981MOL0     H32419   7.005  11.032   8.867  0.2233 -0.0579  1.1118
  981MOL0     H32420   6.918  10.820   8.834 -1.5997 -0.8862 -0.3116
  981MOL0     H32421   6.643  10.538   8.698  0.5533 -0.0058  0.4650
  981MOL0     H32422   6.502  10.340   8.638 -2.4272 -2.8179  1.6451
  981MOL0     H32423   6.497  10.087   8.645 -0.8854  3.0150 -2.5551
  981MOL0     H32424   6.351  10.181   8.638 -2.2597 -2.1952 -1.7383
  981MOL0     H32425   6.270   9.972   8.791  0.3344 -1.2210  0.2202
  981MOL0     H32426   6.383   9.895   8.673  0.3470  0.1020  0.5335
  981MOL0     H32427   6.257   9.959   8.499  2.2386  1.2327 -0.0128
  981MOL0     H32428   6.162  10.087   8.576 -4.3683 -1.4764  4.0563
  981MOL0     H32429   6.114   9.788   8.618 -1.0126 -0.3961 -0.1953
  981MOL0     H32430   6.045   9.911   8.731  1.3565 -0.6962  1.0688
  981MOL0     H32431   5.823  10.027   8.403  1.3386 -0.8591 -1.4326
  981MOL0     H32432   6.460  10.242   9.039  1.0921  0.2778 -0.3425
  981MOL0     H32433   6.583  10.582   9.168  0.9066 -0.0261  0.3202
  981MOL0     H32434   6.488  10.431   9.206 -0.1238 -1.3743  0.6064
  981MOL0     H32435   6.659  10.420   9.184 -0.4025 -0.2734 -1.5636
  982MOL0     O32436   8.894   5.685   2.420 -0.2119  0.1652 -0.6390
  982MOL0     C32437   8.902   5.614   2.319 -0.4789 -0.2761 -1.1628
  982MOL0     O32438   8.998   5.514   2.295  0.2380 -0.6891 -0.6275
  982MOL0     C32439   9.087   5.495   2.393 -0.1525  1.1286 -0.7432
  982MOL0     C32440   9.208   5.563   2.384  0.5472  0.7368  0.1059
  982MOL0     C32441   9.313   5.540   2.476  0.6056  0.5291  0.0080
  982MOL0     C32442   9.291   5.441   2.577  0.1528 -0.2236  0.2239
  982MOL0     O32443   9.390   5.418   2.670  0.5470 -0.1243  0.2710
  982MOL0     C32444   9.529   5.420   2.637  0.3668 -0.1676  0.5475
  982MOL0     C32445   9.593   5.327   2.733  0.0666  1.3056 -0.0704
  982MOL0     C32446   9.594   5.179   2.671 -1.0998  0.0380  0.1795
  982MOL0     C32447   9.452   5.147   2.619  0.0116 -0.1668 -0.1257
  982MOL0     C32448   9.432   4.994   2.601 -0.2531 -0.3329  1.2448
  982MOL0     C32449   9.295   4.971   2.528  0.4791  0.0676  0.1022
  982MOL0     C32450   9.202   4.977   2.647  0.1276 -0.3430  0.6997
  982MOL0     C32451   9.055   5.009   2.590 -0.0263  0.0548 -0.0112
  982MOL0     N32452   8.948   4.987   2.693  0.2081  0.5661  0.8251
  982MOL0     C32453   8.922   5.078   2.789  0.2531  0.3952 -0.2897
  982MOL0     C32454   8.822   5.017   2.860  0.1720 -0.1421 -0.4273
  982MOL0     C32455   8.770   5.077   2.980 -0.4659  0.2450 -0.1919
  982MOL0     C32456   8.875   5.098   3.090  0.9112  1.0791 -0.5755
  982MOL0     C32457   8.801   5.171   3.203  0.1173  0.3304 -0.8880
  982MOL0     C32458   8.890   5.197   3.330  0.1567  0.0324  0.1355
  982MOL0     O32459   8.996   5.287   3.284 -0.1086  0.4014 -0.2442
  982MOL0     C32460   9.121   5.270   3.342  0.1610  0.5646 -0.3836
  982MOL0     C32461   9.204   5.169   3.297 -0.2454 -0.0784 -0.9256
  982MOL0     C32462   9.324   5.149   3.365 -0.0658  0.8511 -0.1749
  982MOL0     C32463   9.367   5.226   3.468 -0.2712  1.5952  0.1118
  982MOL0     C32464   9.487   5.195   3.546 -0.2527  0.3757 -0.1185
  982MOL0     O32465   9.512   5.266   3.659  0.0646 -0.1504  0.0822
  982MOL0     C32466   9.626   5.239   3.734 -0.2270 -0.6315 -0.3599
  982MOL0     C32467   9.751   5.238   3.677 -0.1719 -0.8951  0.2471
  982MOL0     C32468   9.866   5.247   3.760 -0.3902 -0.0712  0.2686
  982MOL0     C32469   9.859   5.235   3.898 -0.0146 -0.0928  0.0944
  982MOL0     O32470   9.971   5.218   3.982  0.5053  0.1231  0.5364
  982MOL0     C32471   9.998   5.340   4.047  0.0444  0.1269  0.7041
  982MOL0     C32472  10.105   5.335   4.157 -0.2635  0.0279 -0.4979
  982MOL0     C32473  10.178   5.465   4.179  0.6022 -0.0736  0.4291
  982MOL0     C32474  10.309   5.450   4.266 -0.3838 -0.0333 -0.1424
  982MOL0     C32475  10.396   5.577   4.243 -0.4284  1.3767 -0.2823
  982MOL0     C32476  10.520   5.567   4.331 -0.3262 -0.2711 -0.3887
  982MOL0     C32477  10.615   5.681   4.288  0.0524  0.0091 -0.3091
  982MOL0     C32478  10.733   5.667   4.377  0.4526  0.0908 -0.4510
  982MOL0    Cl32479  10.837   5.812   4.368 -0.1861 -0.1684 -0.0639
  982MOL0     C32480   9.730   5.224   3.951  0.0156 -0.3121 -0.4630
  982MOL0     C32481   9.609   5.221   3.875 -0.4975  0.5522  0.8301
  982MOL0     O32482   9.559   5.106   3.508  0.4938 -0.2671 -0.1477
  982MOL0     C32483   9.297   5.339   3.500  1.5478 -0.2243 -0.0867
  982MOL0     C32484   9.175   5.361   3.432  0.6422  1.0459 -0.3444
  982MOL0     N32485   8.791   4.895   2.800  0.5890 -0.0940 -0.1267
  982MOL0     N32486   8.860   4.881   2.694 -0.8253  0.0598 -0.3432
  982MOL0     C32487   9.173   5.374   2.585  0.5107 -0.1024 -0.4333
  982MOL0     C32488   9.068   5.401   2.502 -0.0141  1.1290 -0.0227
  982MOL0     C32489   8.789   5.624   2.227 -0.1578 -0.8951 -0.2374
  982MOL0     C32490   8.778   5.525   2.131 -0.3845  0.7065  0.9447
  982MOL0     C32491   8.679   5.517   2.035  0.2325  0.0536  0.1566
  982MOL0     C32492   8.574   5.601   2.025  0.1808 -0.3356  0.2237
  982MOL0     O32493   8.473   5.578   1.935  0.4807  0.0067 -0.2025
  982MOL0     C32494   8.352   5.666   1.942 -0.3919  0.1776  0.1481
  982MOL0     C32495   8.266   5.646   1.819 -0.1186  0.7802  0.7100
  982MOL0     C32496   8.136   5.726   1.810 -0.3845  0.1071 -0.5642
  982MOL0     C32497   8.070   5.739   1.674 -0.7025  0.0329 -0.5767
  982MOL0     C32498   7.936   5.787   1.688  0.4326  0.2374  0.5576
  982MOL0     C32499   7.825   5.843   1.685  0.4929  0.0373 -0.1278
  982MOL0     C32500   8.578   5.699   2.127 -0.0314 -0.5015  1.5232
  982MOL0     C32501   8.687   5.720   2.223 -0.3570 -0.5752 -0.1329
  982MOL0     C32502   8.678   5.844   2.312  0.6342 -0.4801  0.4971
  982MOL0     H32503   9.220   5.620   2.293 -1.0601 -1.2431 -1.4497
  982MOL0     H32504   9.405   5.595   2.457  0.2026  0.5789 -2.0321
  982MOL0     H32505   9.548   5.395   2.533 -0.6641 -1.8152  0.7198
  982MOL0     H32506   9.582   5.514   2.660 -0.1920 -0.1060  1.6774
  982MOL0     H32507   9.543   5.328   2.831 -0.9363  0.2351 -0.5445
  982MOL0     H32508   9.698   5.356   2.746  1.1686 -0.5969 -3.4142
  982MOL0     H32509   9.626   5.111   2.751  0.3836  1.3793  0.7950
  982MOL0     H32510   9.660   5.166   2.584 -1.8334 -0.5634 -0.2929
  982MOL0     H32511   9.369   5.189   2.677  2.4318  0.0072  3.5682
  982MOL0     H32512   9.448   5.203   2.525  2.1009  2.9371  1.4669
  982MOL0     H32513   9.513   4.951   2.542  1.1295 -0.7887  3.3968
  982MOL0     H32514   9.437   4.944   2.698  2.0024  1.2767  2.0365
  982MOL0     H32515   9.280   5.056   2.460 -0.5790  0.2048  0.4970
  982MOL0     H32516   9.295   4.871   2.484  0.2518 -1.1572  2.7285
  982MOL0     H32517   9.232   5.054   2.718 -0.2367  0.2683  0.1936
  982MOL0     H32518   9.198   4.886   2.708  0.6209  0.0084  1.2766
  982MOL0     H32519   9.050   5.111   2.551 -0.8115 -0.3536 -1.0139
  982MOL0     H32520   9.039   4.946   2.502  0.5553  0.4559 -0.4064
  982MOL0     H32521   8.966   5.176   2.805  1.9766 -0.7389  2.7583
  982MOL0     H32522   8.734   5.175   2.948  1.0200  0.3157 -1.8119
  982MOL0     H32523   8.681   5.026   3.018  0.0832 -0.2873  0.4113
  982MOL0     H32524   8.916   5.000   3.114 -2.1172 -0.9790 -3.0327
  982MOL0     H32525   8.946   5.170   3.048  0.4622  0.9394 -1.5978
  982MOL0     H32526   8.718   5.109   3.238  0.4807  0.8394  1.0198
  982MOL0     H32527   8.768   5.270   3.170  0.0220 -0.2465 -2.5795
  982MOL0     H32528   8.928   5.103   3.372 -1.8946 -1.1068 -0.4212
  982MOL0     H32529   8.826   5.247   3.404 -1.1059  0.2653 -1.0882
  982MOL0     H32530   9.176   5.106   3.213 -0.2137  2.0528 -2.6181
  982MOL0     H32531   9.383   5.062   3.337 -0.6477  0.5593 -0.5201
  982MOL0     H32532   9.761   5.251   3.569 -0.2805 -1.5437  0.1497
  982MOL0     H32533   9.965   5.254   3.716 -0.8289 -0.9768 -0.9475
  982MOL0     H32534  10.041   5.409   3.974  0.8531 -0.3915  0.6705
  982MOL0     H32535   9.900   5.373   4.081  1.0733  0.0855  4.1130
  982MOL0     H32536  10.068   5.294   4.251  0.2262  0.8444  0.0650
  982MOL0     H32537  10.168   5.254   4.118 -2.4026 -2.2899  0.6077
  982MOL0     H32538  10.211   5.510   4.085 -2.4388 -0.7787 -1.0820
  982MOL0     H32539  10.107   5.536   4.223  0.9802 -0.9772  2.6261
  982MOL0     H32540  10.364   5.362   4.233  3.6359  2.3240 -0.3277
  982MOL0     H32541  10.296   5.431   4.372  1.2474 -0.7055 -0.0431
  982MOL0     H32542  10.334   5.657   4.284 -1.7165 -0.2177  0.9925
  982MOL0     H32543  10.402   5.592   4.135  0.5461  3.3010 -0.0090
  982MOL0     H32544  10.501   5.569   4.438 -0.7578  2.4888 -0.4397
  982MOL0     H32545  10.575   5.475   4.311 -1.9665 -2.0505  2.5184
  982MOL0     H32546  10.571   5.780   4.303  0.3730  0.1982 -0.5892
  982MOL0     H32547  10.642   5.663   4.183  0.7491 -0.9793  0.0224
  982MOL0     H32548  10.689   5.661   4.477 -4.3488  1.3223 -2.2378
  982MOL0     H32549  10.779   5.568   4.368  2.4749  0.8309  0.9620
  982MOL0     H32550   9.721   5.221   4.059  1.9077 -3.2447 -0.2832
  982MOL0     H32551   9.508   5.217   3.914 -1.3588 -1.5728 -1.3668
  982MOL0     H32552   9.342   5.398   3.579 -1.0678  1.4652  0.2782
  982MOL0     H32553   9.108   5.440   3.465 -0.3551 -1.2762  4.0436
  982MOL0     H32554   9.168   5.298   2.662 -2.1149  2.0265  1.7060
  982MOL0     H32555   8.980   5.341   2.518  0.6641  0.7592  2.8712
  982MOL0     H32556   8.859   5.452   2.131 -0.7664  0.2804  1.5920
  982MOL0     H32557   8.675   5.437   1.962 -0.6232 -0.0333  0.2871
  982MOL0     H32558   8.376   5.773   1.942  1.4064 -0.1863  0.3683
  982MOL0     H32559   8.296   5.643   2.033 -0.2701  0.8964  0.4089
  982MOL0     H32560   8.238   5.541   1.807  0.3860  0.7678 -0.4610
  982MOL0     H32561   8.321   5.674   1.729 -1.7399 -2.1817 -1.3880
  982MOL0     H32562   8.156   5.825   1.852 -1.5324  0.3528 -0.5504
  982MOL0     H32563   8.071   5.688   1.890  2.3321  1.1386  2.3297
  982MOL0     H32564   8.121   5.820   1.620  1.8213 -0.2129  1.2377
  982MOL0     H32565   8.080   5.642   1.626  2.3444  0.2187 -0.5562
  982MOL0     H32566   7.738   5.905   1.688  1.3505  1.2332  0.9338
  982MOL0     H32567   8.499   5.773   2.129  1.6407  1.3883  0.9689
  982MOL0     H32568   8.653   5.809   2.413 -0.3365 -3.1841 -0.6068
  982MOL0     H32569   8.775   5.895   2.310  0.6153 -0.4676 -0.6972
  982MOL0     H32570   8.597   5.907   2.275  1.3945 -1.4804 -3.3187
  983MOL0     O32571   2.278   0.138  11.021 -0.5269 -0.5166 -0.0925
  983MOL0     C32572   2.288   0.125  10.901 -1.3069  0.5644  0.3511
  983MOL0     O32573   2.399   0.069  10.838 -0.6997  0.0874  0.8546
  983MOL0     C32574   2.514   0.020  10.908 -0.8731 -0.0588  0.0021
  983MOL0     C32575   2.610  -0.043  10.824 -0.0004  1.1174 -0.6772
  983MOL0     C32576   2.737  -0.078  10.868  0.2246 -0.4377  0.3506
  983MOL0     C32577   2.774  -0.076  11.001 -0.3974 -0.5760  0.6893
  983MOL0     O32578   2.899  -0.123  11.051 -1.0797  0.2876  0.0039
  983MOL0     C32579   2.945  -0.242  10.985 -0.0207  0.3233 -0.3542
  983MOL0     C32580   3.063  -0.213  10.887  0.4919  0.2366 -0.2745
  983MOL0     C32581   3.175  -0.149  10.963 -0.5415 -0.3103 -0.3314
  983MOL0     C32582   3.318  -0.169  10.897 -0.0061  0.5856 -0.5805
  983MOL0     C32583   3.432  -0.109  10.972 -0.8745 -0.2153 -0.6964
  983MOL0     C32584   3.443  -0.156  11.127 -0.0517 -0.1510  0.4027
  983MOL0     C32585   3.472  -0.308  11.138 -0.2270 -0.3698 -0.7304
  983MOL0     C32586   3.622  -0.339  11.105  0.6753  0.6056 -0.1112
  983MOL0     N32587   3.712  -0.326  11.226 -0.4214  0.2320 -0.5003
  983MOL0     C32588   3.758  -0.212  11.292  0.6055  0.1531 -0.3193
  983MOL0     C32589   3.847  -0.262  11.381 -0.1193  0.1395  0.7263
  983MOL0     C32590   3.943  -0.183  11.466 -0.0119 -0.0218  0.5236
  983MOL0     C32591   4.042  -0.099  11.373 -0.3058 -0.1046  0.7569
  983MOL0     C32592   4.158  -0.040  11.465 -0.5724  0.9659  0.0946
  983MOL0     C32593   4.211   0.096  11.425 -1.0080  0.2691  0.0705
  983MOL0     O32594   4.272   0.092  11.298 -0.4246  0.2223 -0.4655
  983MOL0     C32595   4.413   0.085  11.289 -0.3569 -0.0032  0.0276
  983MOL0     C32596   4.488   0.189  11.350 -0.2078 -0.4056  0.3969
  983MOL0     C32597   4.631   0.179  11.342  0.5749 -0.1828  0.3902
  983MOL0     C32598   4.693   0.060  11.295 -0.1317  0.6048  0.2008
  983MOL0     C32599   4.843   0.032  11.299 -0.8884  0.4459  0.2147
  983MOL0     O32600   4.927   0.142  11.295  0.3664  0.1511  0.3006
  983MOL0     C32601   5.064   0.146  11.310 -0.2508  0.3806  0.5758
  983MOL0     C32602   5.151   0.050  11.258 -0.5112 -0.4779 -0.6281
  983MOL0     C32603   5.286   0.073  11.244  0.1422 -0.2119  0.4231
  983MOL0     C32604   5.342   0.190  11.299 -0.3640  0.2985 -0.7209
  983MOL0     O32605   5.479   0.222  11.291  0.2766 -0.2627 -0.2112
  983MOL0     C32606   5.546   0.283  11.400 -0.5253 -0.4170  0.1429
  983MOL0     C32607   5.672   0.343  11.349 -0.0460  0.4000  0.9016
  983MOL0     C32608   5.733   0.452  11.445  0.7807 -0.0471  0.6101
  983MOL0     C32609   5.870   0.495  11.400 -0.1318 -1.0418 -0.4826
  983MOL0     C32610   5.933   0.598  11.489 -0.4145  0.3905 -0.4959
  983MOL0     C32611   6.039   0.682  11.432 -1.0814  0.2361 -0.4552
  983MOL0     C32612   6.173   0.611  11.452  0.8560  0.7372 -0.1643
  983MOL0     C32613   6.288   0.707  11.462  0.2738 -0.8176  0.6436
  983MOL0    Cl32614   6.299   0.797  11.307 -0.5293  0.1908 -0.1085
  983MOL0     C32615   5.256   0.283  11.345  0.8148 -0.4140  0.2257
  983MOL0     C32616   5.122   0.264  11.355  0.6094  0.3177 -0.6660
  983MOL0     O32617   4.876  -0.083  11.319 -0.7841 -0.0342  0.5417
  983MOL0     C32618   4.613  -0.044  11.239 -0.5862 -0.3015 -0.2681
  983MOL0     C32619   4.475  -0.030  11.238 -1.2943  0.4019  0.0835
  983MOL0     N32620   3.852  -0.399  11.378  0.4207  0.0629 -0.1087
  983MOL0     N32621   3.770  -0.434  11.285 -0.2387 -0.4037 -0.1697
  983MOL0     C32622   2.682  -0.015  11.087 -0.7494  0.2180 -0.4337
  983MOL0     C32623   2.555   0.027  11.040 -0.0055 -0.2625 -0.4045
  983MOL0     C32624   2.184   0.185  10.817 -0.1970  0.3249 -0.1787
  983MOL0     C32625   2.220   0.190  10.678  0.0903 -0.6656  0.6901
  983MOL0     C32626   2.143   0.261  10.584  0.4977 -0.6207  0.0418
  983MOL0     C32627   2.022   0.305  10.623  0.8030  0.3189 -0.2433
  983MOL0     O32628   1.945   0.370  10.531  0.3872 -0.5770 -0.1178
  983MOL0     C32629   1.906   0.509  10.553  0.4706 -0.0874 -0.3399
  983MOL0     C32630   1.956   0.592  10.429 -0.1506 -0.5044 -0.1580
  983MOL0     C32631   1.894   0.555  10.286 -0.2079  0.6352 -0.1813
  983MOL0     C32632   1.758   0.622  10.247  0.0347 -0.9406 -0.5282
  983MOL0     C32633   1.729   0.608  10.100 -0.4138  0.0722 -0.2763
  983MOL0     C32634   1.725   0.583   9.979 -0.8493 -0.4053  0.2478
  983MOL0     C32635   1.978   0.288  10.753 -1.0199  0.4057 -0.4319
  983MOL0     C32636   2.058   0.235  10.856 -0.8103  0.4820 -0.2441
  983MOL0     C32637   2.001   0.229  10.998  0.5930 -0.1454  0.0280
  983MOL0     H32638   2.588  -0.051  10.718 -1.6818  0.6450 -0.3397
  983MOL0     H32639   2.810  -0.103  10.791  0.0823  0.8218 -0.2108
  983MOL0     H32640   2.980  -0.307  11.066  2.3471 -0.0391 -1.5794
  983MOL0     H32641   2.862  -0.293  10.935 -0.8373  0.4327  0.8588
  983MOL0     H32642   3.034  -0.143  10.808 -3.9170  0.3098  1.1763
  983MOL0     H32643   3.100  -0.305  10.841  2.6339  0.8356  0.1242
  983MOL0     H32644   3.183  -0.200  11.060 -2.0532 -0.2661 -0.1678
  983MOL0     H32645   3.167  -0.041  10.978  4.4134  0.6333 -2.5851
  983MOL0     H32646   3.341  -0.274  10.878  0.2568  0.2785  1.2055
  983MOL0     H32647   3.308  -0.116  10.803 -1.6199 -0.5656 -1.1027
  983MOL0     H32648   3.525  -0.138  10.921 -0.7659 -0.5254 -0.3287
  983MOL0     H32649   3.438   0.000  10.965 -0.9351 -0.2120 -0.6909
  983MOL0     H32650   3.526  -0.093  11.160 -1.4042  2.7907 -1.4468
  983MOL0     H32651   3.349  -0.124  11.172 -0.0522 -1.5556  1.4865
  983MOL0     H32652   3.403  -0.356  11.067  2.5160 -2.6776 -2.0659
  983MOL0     H32653   3.454  -0.334  11.242  1.3046  2.5037  0.3601
  983MOL0     H32654   3.626  -0.443  11.070 -3.8127  0.8676 -2.0747
  983MOL0     H32655   3.663  -0.266  11.035 -2.0403  1.0619 -1.3638
  983MOL0     H32656   3.743  -0.109  11.261 -0.3974 -0.3566 -1.6215
  983MOL0     H32657   3.903  -0.114  11.541  3.6518  2.4901  0.4225
  983MOL0     H32658   4.005  -0.256  11.519  1.4801  0.4186 -0.5730
  983MOL0     H32659   4.078  -0.168  11.296 -0.1869  0.5309  0.2344
  983MOL0     H32660   4.001  -0.009  11.326  0.1527 -1.2512 -1.9750
  983MOL0     H32661   4.240  -0.113  11.460 -0.3141  1.2627 -0.0492
  983MOL0     H32662   4.123  -0.044  11.569  1.4418 -0.9246  0.8041
  983MOL0     H32663   4.290   0.133  11.490  0.9762 -0.7333 -1.6769
  983MOL0     H32664   4.135   0.174  11.422  1.3219  2.6940  0.8002
  983MOL0     H32665   4.449   0.273  11.406  0.9258  0.6894 -0.4192
  983MOL0     H32666   4.695   0.256  11.384 -0.8122  0.5356  1.2563
  983MOL0     H32667   5.111  -0.038  11.210 -2.4416  0.3211 -0.5817
  983MOL0     H32668   5.352   0.008  11.188  1.6384  1.3910  0.2433
  983MOL0     H32669   5.485   0.365  11.438  0.3490  0.9832 -1.4056
  983MOL0     H32670   5.563   0.231  11.495  1.2792  2.7594  1.7097
  983MOL0     H32671   5.746   0.266  11.325 -0.3391  0.5924 -0.6973
  983MOL0     H32672   5.657   0.394  11.253  0.3183  0.8162  1.0593
  983MOL0     H32673   5.668   0.540  11.453  0.8401 -0.1643  3.2734
  983MOL0     H32674   5.746   0.416  11.548  1.9302 -2.2172 -0.2311
  983MOL0     H32675   5.869   0.534  11.298 -1.1756  2.7924  0.8402
  983MOL0     H32676   5.941   0.412  11.392 -0.3381 -1.1780 -0.9087
  983MOL0     H32677   5.968   0.558  11.584  1.0665  1.7623 -0.4386
  983MOL0     H32678   5.853   0.669  11.510 -2.2550 -2.2612  2.4109
  983MOL0     H32679   6.041   0.694  11.323 -1.6922  1.2170 -0.3615
  983MOL0     H32680   6.041   0.777  11.485  1.8282 -1.0293  2.0665
  983MOL0     H32681   6.197   0.542  11.371 -1.3214 -1.1702  0.7007
  983MOL0     H32682   6.158   0.553  11.544  2.4510 -0.6384 -0.7248
  983MOL0     H32683   6.277   0.785  11.537  2.0038  0.8902 -0.7652
  983MOL0     H32684   6.381   0.658  11.492  1.4397  1.5981  1.2063
  983MOL0     H32685   5.289   0.377  11.388 -0.3389  0.1934 -0.1815
  983MOL0     H32686   5.067   0.346  11.400  0.0168 -0.2076 -0.4146
  983MOL0     H32687   4.652  -0.137  11.199  0.1388  0.1010 -0.5093
  983MOL0     H32688   4.411  -0.109  11.201  1.9102 -2.5693  0.3753
  983MOL0     H32689   2.718  -0.005  11.189  0.1632  0.7912 -0.7997
  983MOL0     H32690   2.494   0.080  11.112 -0.7738 -2.3632  0.5876
  983MOL0     H32691   2.317   0.163  10.639 -1.4148 -2.6620 -2.0852
  983MOL0     H32692   2.182   0.281  10.485  1.3191  1.8040  0.8077
  983MOL0     H32693   1.942   0.554  10.646  0.5237  2.1668 -1.3766
  983MOL0     H32694   1.798   0.523  10.559  0.7090  1.2409  2.5869
  983MOL0     H32695   2.063   0.572  10.427  0.6786  2.7650  2.3074
  983MOL0     H32696   1.969   0.700  10.438  3.9692 -0.7073 -1.6028
  983MOL0     H32697   1.867   0.449  10.277 -0.2984  0.8385 -3.1120
  983MOL0     H32698   1.971   0.590  10.217 -0.4816  2.5221  0.4037
  983MOL0     H32699   1.684   0.570  10.308  0.0523 -0.4459 -0.0813
  983MOL0     H32700   1.757   0.728  10.275  0.9546 -1.6047  2.3262
  983MOL0     H32701   1.735   0.545   9.880 -2.1805  1.5095 -0.6756
  983MOL0     H32702   1.883   0.331  10.783 -1.3749 -0.5435 -0.1516
  983MOL0     H32703   1.905   0.280  10.986  0.0156 -1.6351 -2.2080
  983MOL0     H32704   1.991   0.124  11.028 -0.4617 -0.8558 -2.6024
  983MOL0     H32705   2.069   0.277  11.069  1.7851 -2.2855  0.4243
  984MOL0     O32706   5.410   1.686   6.133  0.1615 -0.6131 -0.5576
  984MOL0     C32707   5.344   1.578   6.109 -0.3111 -0.4941 -0.2226
  984MOL0     O32708   5.388   1.478   6.031 -0.0708 -0.2310  0.1011
  984MOL0     C32709   5.515   1.491   5.984 -0.1561  0.9039 -0.4375
  984MOL0     C32710   5.534   1.506   5.848  0.4715 -0.9833 -0.7288
  984MOL0     C32711   5.655   1.532   5.793  0.6502  0.1487  0.2658
  984MOL0     C32712   5.772   1.510   5.863 -0.3767 -0.4215  0.4647
  984MOL0     O32713   5.890   1.524   5.794 -0.5058 -0.2429  0.3594
  984MOL0     C32714   6.008   1.525   5.877 -0.0944  0.7155  0.0215
  984MOL0     C32715   6.114   1.592   5.791 -0.1538  0.4763  0.1167
  984MOL0     C32716   6.263   1.572   5.826 -0.0570  0.4752  1.0269
  984MOL0     C32717   6.355   1.660   5.737  0.6219 -0.3820  0.1618
  984MOL0     C32718   6.495   1.618   5.764  0.2294 -0.2118 -0.1299
  984MOL0     C32719   6.593   1.641   5.642 -1.0421  0.1176 -0.1510
  984MOL0     C32720   6.740   1.596   5.655 -0.1996  0.4737 -0.2406
  984MOL0     C32721   6.801   1.639   5.792 -0.3623  0.5564  0.2602
  984MOL0     N32722   6.948   1.663   5.793  0.8706 -0.2158  0.1078
  984MOL0     C32723   6.991   1.777   5.732 -1.1244  0.4527  0.5268
  984MOL0     C32724   7.127   1.778   5.749  0.1994 -0.7280  0.0829
  984MOL0     C32725   7.222   1.886   5.700  0.0491  0.5473  0.4661
  984MOL0     C32726   7.323   1.921   5.806  0.1210 -0.8389  0.2176
  984MOL0     C32727   7.425   2.024   5.756  0.5137  0.7022 -0.5871
  984MOL0     C32728   7.525   1.981   5.645  0.3586 -0.0007 -0.3272
  984MOL0     O32729   7.597   1.859   5.676  0.0890  1.1514  0.0611
  984MOL0     C32730   7.719   1.847   5.617  0.1106  0.1585  0.0793
  984MOL0     C32731   7.741   1.877   5.476 -0.1949  0.1320 -0.3239
  984MOL0     C32732   7.870   1.859   5.423 -0.4343  0.2656 -0.3121
  984MOL0     C32733   7.979   1.802   5.503  0.0651  0.9816  0.3278
  984MOL0     C32734   8.106   1.778   5.433  0.0565  0.3486  0.6059
  984MOL0     O32735   8.175   1.673   5.488  0.2738 -0.0900  0.5362
  984MOL0     C32736   8.278   1.633   5.407 -0.2381  0.3734 -0.3604
  984MOL0     C32737   8.391   1.709   5.395 -0.8346  0.1797  0.2002
  984MOL0     C32738   8.493   1.662   5.306 -0.6020 -0.0242  0.4652
  984MOL0     C32739   8.486   1.538   5.241 -0.7590 -0.9702 -1.2639
  984MOL0     O32740   8.584   1.486   5.160 -0.6677  0.6507 -0.6310
  984MOL0     C32741   8.707   1.565   5.140  0.2083 -0.0228  0.3701
  984MOL0     C32742   8.807   1.546   5.258  0.0610  0.5969 -0.4732
  984MOL0     C32743   8.936   1.614   5.228  0.5980 -0.0606  0.6165
  984MOL0     C32744   8.954   1.748   5.307  0.6437 -0.4067  0.5231
  984MOL0     C32745   9.101   1.801   5.305  0.2980  0.0558  0.1025
  984MOL0     C32746   9.216   1.715   5.364 -1.0060 -0.3462  0.1225
  984MOL0     C32747   9.345   1.789   5.379 -0.2809  0.6716  0.7778
  984MOL0     C32748   9.458   1.683   5.397  0.1012  1.5629 -0.3835
  984MOL0    Cl32749   9.610   1.762   5.378 -0.2744 -0.0747  0.3832
  984MOL0     C32750   8.370   1.458   5.269  0.2793  0.4697 -0.7939
  984MOL0     C32751   8.259   1.510   5.342  0.4260 -0.0752 -0.8591
  984MOL0     O32752   8.144   1.846   5.341  0.0238 -0.0208  0.2705
  984MOL0     C32753   7.952   1.785   5.637 -1.0298  0.3664 -0.3694
  984MOL0     C32754   7.827   1.802   5.697  0.7518 -0.2038  0.8576
  984MOL0     N32755   7.156   1.674   5.833  1.0223 -0.0301  0.0593
  984MOL0     N32756   7.051   1.604   5.862 -0.6899 -0.0687 -0.3569
  984MOL0     C32757   5.761   1.483   5.999 -0.3584  0.2723  0.0598
  984MOL0     C32758   5.634   1.473   6.057  0.6251 -0.1746 -0.4880
  984MOL0     C32759   5.218   1.543   6.174 -0.0317  0.3278  0.3197
  984MOL0     C32760   5.109   1.518   6.086  0.3760  0.5670  0.3690
  984MOL0     C32761   4.985   1.489   6.145  0.7186  0.0217  0.2996
  984MOL0     C32762   4.963   1.490   6.287  0.3749  0.6990 -0.5819
  984MOL0     O32763   4.834   1.468   6.333 -0.3977 -0.4189  0.7036
  984MOL0     C32764   4.838   1.402   6.464 -0.3444  0.1075 -1.0567
  984MOL0     C32765   4.705   1.330   6.497  0.4965 -0.4720 -0.4508
  984MOL0     C32766   4.575   1.405   6.483 -0.5689  0.6714  1.0643
  984MOL0     C32767   4.448   1.332   6.523  0.8196  0.4520 -0.6398
  984MOL0     C32768   4.451   1.297   6.669 -0.1760  0.1378 -0.4871
  984MOL0     C32769   4.472   1.292   6.788 -0.4069 -0.3553 -0.2391
  984MOL0     C32770   5.076   1.530   6.369  0.2037 -1.0288  0.1970
  984MOL0     C32771   5.202   1.552   6.310  0.4244  0.6022 -1.3365
  984MOL0     C32772   5.314   1.589   6.407 -0.0440  0.2692 -0.5807
  984MOL0     H32773   5.446   1.505   5.783  0.1877  0.0551 -0.3672
  984MOL0     H32774   5.670   1.567   5.692 -1.6362  2.1025  0.5248
  984MOL0     H32775   5.989   1.586   5.966  2.4890 -0.2984  1.3790
  984MOL0     H32776   6.028   1.423   5.910  0.0232  0.7324  0.0050
  984MOL0     H32777   6.092   1.699   5.790 -1.2150  0.3029  1.4542
  984MOL0     H32778   6.108   1.553   5.689  0.2817 -1.0233  0.6347
  984MOL0     H32779   6.279   1.465   5.809  0.2735  0.5812  0.6837
  984MOL0     H32780   6.274   1.593   5.933 -2.6274 -0.4725  1.5662
  984MOL0     H32781   6.325   1.631   5.636  0.7038 -2.1676  0.6181
  984MOL0     H32782   6.351   1.768   5.754  3.0925  0.0238 -1.4273
  984MOL0     H32783   6.528   1.670   5.854  2.7247  0.2183 -1.2240
  984MOL0     H32784   6.502   1.512   5.789  2.0696 -0.3488 -1.0417
  984MOL0     H32785   6.566   1.585   5.552  2.2696 -1.8331 -0.1066
  984MOL0     H32786   6.599   1.750   5.629 -0.1125  0.0690 -0.2174
  984MOL0     H32787   6.782   1.652   5.571 -0.2801  3.2349  1.4393
  984MOL0     H32788   6.740   1.487   5.643 -1.5217  0.5971 -1.6152
  984MOL0     H32789   6.757   1.732   5.827 -1.3950 -0.0122  0.5187
  984MOL0     H32790   6.768   1.569   5.869 -0.9646  0.1584 -0.3423
  984MOL0     H32791   6.934   1.852   5.679 -1.2189  0.4057  0.5611
  984MOL0     H32792   7.271   1.863   5.605 -2.7538  0.2562 -1.0320
  984MOL0     H32793   7.147   1.964   5.683 -1.7311 -0.9269  1.2612
  984MOL0     H32794   7.268   1.964   5.890  1.3232 -0.4103  0.8024
  984MOL0     H32795   7.373   1.837   5.855 -0.0057 -0.4081  1.1050
  984MOL0     H32796   7.490   2.046   5.842  0.2712 -1.8998  0.3509
  984MOL0     H32797   7.367   2.114   5.736  1.1394  1.4536  0.8708
  984MOL0     H32798   7.600   2.060   5.647  1.5999 -1.1276  0.7971
  984MOL0     H32799   7.478   1.974   5.547  0.9642 -3.9176 -0.5052
  984MOL0     H32800   7.654   1.913   5.422 -2.2183  2.4375  3.9115
  984MOL0     H32801   7.887   1.900   5.324  0.4620  0.7449  0.0189
  984MOL0     H32802   8.396   1.803   5.448  1.0367 -0.0096  0.4336
  984MOL0     H32803   8.577   1.731   5.303 -3.5474  3.9301  1.3048
  984MOL0     H32804   8.749   1.518   5.050 -0.6196  1.8613 -1.0700
  984MOL0     H32805   8.680   1.666   5.110  0.2723 -1.4024 -5.6315
  984MOL0     H32806   8.779   1.596   5.351 -1.0339  0.0344 -0.4830
  984MOL0     H32807   8.823   1.438   5.268 -1.5433  0.1923 -1.8360
  984MOL0     H32808   9.018   1.545   5.249 -0.3696 -0.7023  2.6162
  984MOL0     H32809   8.941   1.640   5.122  2.2212 -1.1975  0.3811
  984MOL0     H32810   8.928   1.752   5.413  2.2293 -0.4299  0.9397
  984MOL0     H32811   8.898   1.824   5.250  1.2630  0.5654  1.1731
  984MOL0     H32812   9.096   1.896   5.359  0.9083 -0.2416  0.6967
  984MOL0     H32813   9.126   1.836   5.205 -2.2734  2.3306  0.1306
  984MOL0     H32814   9.199   1.674   5.464 -0.3418 -1.0228 -0.0270
  984MOL0     H32815   9.226   1.626   5.301 -0.5825 -0.3910  0.2482
  984MOL0     H32816   9.345   1.856   5.465  1.2288  0.6652  0.8016
  984MOL0     H32817   9.361   1.845   5.287  2.5680  1.6534  1.7781
  984MOL0     H32818   9.438   1.650   5.500  0.7924  2.0476 -0.0885
  984MOL0     H32819   9.457   1.603   5.322  0.6968  2.2114 -1.0856
  984MOL0     H32820   8.369   1.365   5.213 -0.6121 -1.0865  1.6976
  984MOL0     H32821   8.172   1.446   5.346  1.6586 -1.9496 -2.1496
  984MOL0     H32822   8.037   1.762   5.701 -0.6393 -2.3242 -1.7368
  984MOL0     H32823   7.805   1.782   5.801  0.0008 -0.8399  0.5862
  984MOL0     H32824   5.852   1.470   6.055  0.2908  1.1619 -0.7461
  984MOL0     H32825   5.637   1.470   6.166  3.1362  3.8578 -0.2240
  984MOL0     H32826   5.132   1.516   5.980 -0.0581 -1.8975  0.2729
  984MOL0     H32827   4.912   1.458   6.072 -1.2946 -0.0412  2.2391
  984MOL0     H32828   4.861   1.481   6.536  0.8114 -0.0219 -1.2706
  984MOL0     H32829   4.918   1.328   6.461  0.7017  1.2032 -3.4453
  984MOL0     H32830   4.705   1.294   6.600 -1.5383 -1.1775 -0.6509
  984MOL0     H32831   4.705   1.239   6.438  2.1968 -1.9909  1.7444
  984MOL0     H32832   4.559   1.440   6.380  1.6486  1.1311  0.8424
  984MOL0     H32833   4.587   1.499   6.538  0.8752  2.1779 -1.6179
  984MOL0     H32834   4.354   1.385   6.506 -0.0645  0.1636  2.6470
  984MOL0     H32835   4.437   1.239   6.466 -3.6821 -0.7584  1.7125
  984MOL0     H32836   4.482   1.282   6.894  1.1307 -1.0102 -0.4136
  984MOL0     H32837   5.050   1.556   6.471 -5.3869 -0.5304 -1.0374
  984MOL0     H32838   5.358   1.684   6.377 -0.6023 -0.0213 -2.5015
  984MOL0     H32839   5.264   1.583   6.504 -1.7376 -2.1344 -1.4977
  984MOL0     H32840   5.387   1.510   6.388  0.4682 -0.0326  2.2605
  985MOL0     O32841   2.572   0.496   4.556  0.0716 -0.3509  0.5297
  985MOL0     C32842   2.560   0.546   4.447  0.1632  0.2459  0.0934
  985MOL0     O32843   2.660   0.597   4.375  0.2604 -0.0053 -0.0216
  985MOL0     C32844   2.795   0.580   4.413 -0.0866  0.6673  0.7850
  985MOL0     C32845   2.890   0.618   4.314 -0.0434 -0.0308  0.7065
  985MOL0     C32846   3.030   0.593   4.331  0.4303 -0.1305 -0.1219
  985MOL0     C32847   3.078   0.531   4.447 -0.2822 -0.4710 -0.4261
  985MOL0     O32848   3.211   0.527   4.467  0.1345 -0.2257 -0.8521
  985MOL0     C32849   3.254   0.450   4.582  0.2093 -0.1967 -0.2394
  985MOL0     C32850   3.395   0.407   4.564 -0.7199 -1.0890 -0.4917
  985MOL0     C32851   3.444   0.342   4.687 -0.4340  0.4911  0.0804
  985MOL0     C32852   3.576   0.272   4.658 -0.7625  0.1919 -0.4652
  985MOL0     C32853   3.688   0.367   4.614 -0.1868 -0.1764 -0.1009
  985MOL0     C32854   3.820   0.295   4.612  0.9850  0.7899 -0.1117
  985MOL0     C32855   3.943   0.375   4.569  0.8748  0.8198 -0.1921
  985MOL0     C32856   4.058   0.279   4.564  0.1125  0.2435  0.1519
  985MOL0     N32857   4.182   0.360   4.541 -0.1430  0.1383 -0.0455
  985MOL0     C32858   4.213   0.462   4.630  0.1050 -0.3663 -0.1919
  985MOL0     C32859   4.331   0.503   4.584  0.1605 -0.1883 -0.7909
  985MOL0     C32860   4.413   0.622   4.639 -0.1649  0.0843 -0.2346
  985MOL0     C32861   4.563   0.588   4.649 -0.4465 -0.8032 -0.1463
  985MOL0     C32862   4.629   0.681   4.750 -0.6073  0.5899 -0.0343
  985MOL0     C32863   4.781   0.659   4.750  0.8207  0.4793  0.0517
  985MOL0     O32864   4.818   0.555   4.838 -0.4621 -0.5084 -0.1950
  985MOL0     C32865   4.954   0.523   4.848 -0.2228  0.7610 -0.7012
  985MOL0     C32866   4.982   0.393   4.898 -0.7301 -0.0073 -0.3238
  985MOL0     C32867   5.113   0.346   4.912 -0.3336  0.3610 -0.3137
  985MOL0     C32868   5.222   0.427   4.896 -0.0833  0.1586  1.2352
  985MOL0     C32869   5.362   0.389   4.935 -0.2319 -0.2334 -1.0804
  985MOL0     O32870   5.461   0.476   4.923 -0.5820 -0.3807 -0.6389
  985MOL0     C32871   5.584   0.438   4.988  0.4806 -0.5963 -0.0799
  985MOL0     C32872   5.607   0.500   5.108 -0.1612 -0.5262  0.0480
  985MOL0     C32873   5.724   0.475   5.182  1.2756  0.2511  0.0024
  985MOL0     C32874   5.806   0.372   5.140 -0.6533 -0.4773  0.2321
  985MOL0     O32875   5.905   0.328   5.222 -0.5995 -0.0362 -0.1751
  985MOL0     C32876   6.037   0.306   5.174 -0.2821 -1.0706 -0.2688
  985MOL0     C32877   6.145   0.336   5.293  0.3438 -0.0778  0.3879
  985MOL0     C32878   6.279   0.359   5.212  0.8562 -0.6827 -0.6431
  985MOL0     C32879   6.389   0.407   5.308  0.3247 -0.0104  0.6000
  985MOL0     C32880   6.526   0.414   5.255 -1.1001 -0.1801 -0.4822
  985MOL0     C32881   6.644   0.414   5.363  1.3145  0.7901  0.1588
  985MOL0     C32882   6.672   0.554   5.413 -1.7978 -0.1995  0.1961
  985MOL0     C32883   6.812   0.547   5.476  0.1207 -0.4952 -0.2730
  985MOL0    Cl32884   6.858   0.704   5.549 -0.4327 -0.3121  0.0130
  985MOL0     C32885   5.780   0.311   5.017 -0.8756 -0.0253 -0.1356
  985MOL0     C32886   5.672   0.349   4.940 -1.0274  0.1351 -0.1833
  985MOL0     O32887   5.375   0.276   4.974 -0.2230 -0.3669 -0.1399
  985MOL0     C32888   5.197   0.558   4.854 -0.1783 -0.1838  0.8740
  985MOL0     C32889   5.070   0.606   4.836 -0.5189  0.6557  0.5778
  985MOL0     N32890   4.367   0.426   4.476  0.5569 -0.2707  0.1370
  985MOL0     N32891   4.277   0.345   4.449 -0.0962 -0.6617  0.0497
  985MOL0     C32892   2.983   0.497   4.544  0.1496  0.0119 -0.2240
  985MOL0     C32893   2.849   0.520   4.527  0.0639  0.3746 -0.3245
  985MOL0     C32894   2.424   0.581   4.402  0.1567 -0.1445  0.0429
  985MOL0     C32895   2.326   0.478   4.397 -0.5323  0.0326 -0.0099
  985MOL0     C32896   2.199   0.501   4.363  0.5016  0.3282  0.5146
  985MOL0     C32897   2.153   0.628   4.333  0.0977 -0.0600  0.4479
  985MOL0     O32898   2.021   0.655   4.295  0.6093  0.5541  0.1564
  985MOL0     C32899   1.967   0.785   4.315 -0.7106  0.5836  0.3154
  985MOL0     C32900   1.807   0.776   4.320  0.1876  1.0721  0.0546
  985MOL0     C32901   1.747   0.751   4.187  0.5809  0.5035  0.0708
  985MOL0     C32902   1.594   0.745   4.190 -0.7076 -0.8611  0.2599
  985MOL0     C32903   1.558   0.687   4.065 -0.3777 -0.5726  0.2226
  985MOL0     C32904   1.533   0.632   3.961  0.2304 -0.2752 -0.5144
  985MOL0     C32905   2.246   0.728   4.330  0.2476  0.2615 -0.4444
  985MOL0     C32906   2.381   0.713   4.365  0.2192  0.4860  0.2551
  985MOL0     C32907   2.472   0.835   4.375  0.0136  0.6400  0.1564
  985MOL0     H32908   2.865   0.654   4.214 -0.7263 -2.5754 -0.1116
  985MOL0     H32909   3.100   0.615   4.251 -1.3464 -1.9714 -2.3404
  985MOL0     H32910   3.237   0.504   4.675 -1.1812 -0.2862 -0.4189
  985MOL0     H32911   3.194   0.359   4.578  0.8848 -0.7387  1.2216
  985MOL0     H32912   3.454   0.498   4.552 -1.5206 -0.7731 -2.4606
  985MOL0     H32913   3.406   0.347   4.473 -0.7693 -0.4791 -0.9040
  985MOL0     H32914   3.384   0.266   4.737  0.9677 -1.4346 -1.0352
  985MOL0     H32915   3.459   0.426   4.756 -0.7130 -0.1782  0.9782
  985MOL0     H32916   3.611   0.219   4.747 -1.0830 -0.6963 -0.8644
  985MOL0     H32917   3.564   0.186   4.592  2.5649 -1.2631  0.6066
  985MOL0     H32918   3.668   0.415   4.518 -0.3823 -0.7950 -0.3757
  985MOL0     H32919   3.698   0.450   4.685  1.6432 -0.5100  0.0702
  985MOL0     H32920   3.844   0.243   4.705 -0.3141 -0.7491 -0.6013
  985MOL0     H32921   3.809   0.213   4.542 -0.5589  1.3788 -0.6035
  985MOL0     H32922   3.949   0.453   4.645 -1.3518  0.1807  0.7130
  985MOL0     H32923   3.939   0.410   4.466 -0.0996 -0.1069 -0.4782
  985MOL0     H32924   4.068   0.224   4.658 -0.6404  0.2335  0.2362
  985MOL0     H32925   4.041   0.206   4.484  0.1228  1.3697 -0.9142
  985MOL0     H32926   4.148   0.489   4.712 -0.8052  0.7237 -1.2251
  985MOL0     H32927   4.400   0.712   4.578 -0.5834 -0.1858 -0.5497
  985MOL0     H32928   4.372   0.653   4.736  0.8159  2.7932 -0.5989
  985MOL0     H32929   4.576   0.479   4.654 -2.0451 -0.9994  0.5806
  985MOL0     H32930   4.609   0.601   4.551 -0.1968 -2.6308 -0.3227
  985MOL0     H32931   4.582   0.680   4.849 -1.6517  3.4114 -0.4063
  985MOL0     H32932   4.604   0.785   4.727 -2.5061  0.2699  0.4093
  985MOL0     H32933   4.836   0.750   4.777  1.7759  0.1456 -0.7180
  985MOL0     H32934   4.811   0.625   4.651 -2.7707 -0.9622 -0.7064
  985MOL0     H32935   4.903   0.321   4.911  0.8565 -1.3154  4.5284
  985MOL0     H32936   5.135   0.248   4.953  2.0874  1.0534  0.2351
  985MOL0     H32937   5.530   0.568   5.143 -1.1334 -2.0367  0.9653
  985MOL0     H32938   5.750   0.523   5.276  0.5522 -0.3512  0.5246
  985MOL0     H32939   6.039   0.202   5.143  0.2135 -1.3330  0.6028
  985MOL0     H32940   6.049   0.378   5.092 -2.1369 -1.0597 -0.5648
  985MOL0     H32941   6.105   0.414   5.360 -2.8357 -2.9562  2.1706
  985MOL0     H32942   6.137   0.248   5.357 -0.0841 -1.8914 -2.0257
  985MOL0     H32943   6.307   0.265   5.164  0.3895 -0.1022 -2.0903
  985MOL0     H32944   6.256   0.442   5.145 -1.9846  0.3753  1.4243
  985MOL0     H32945   6.403   0.337   5.390  4.2142  0.9712  0.9889
  985MOL0     H32946   6.351   0.502   5.346 -2.5065 -0.8533  0.1245
  985MOL0     H32947   6.534   0.509   5.201 -2.5826  0.7991  0.9066
  985MOL0     H32948   6.543   0.331   5.186  0.2236 -0.9316  0.7091
  985MOL0     H32949   6.625   0.352   5.450  0.3027  1.2078  0.2470
  985MOL0     H32950   6.728   0.372   5.307  0.4221 -1.5243  0.4669
  985MOL0     H32951   6.588   0.582   5.478 -1.9773  0.4908 -0.3265
  985MOL0     H32952   6.666   0.624   5.330 -0.9891 -1.0543 -0.6153
  985MOL0     H32953   6.812   0.467   5.551 -0.0619  1.2996  1.7625
  985MOL0     H32954   6.885   0.531   5.397  0.7397  0.3781  0.1040
  985MOL0     H32955   5.841   0.233   4.974  0.3546  2.3003 -2.9374
  985MOL0     H32956   5.654   0.290   4.850  1.1748 -2.8082  1.1504
  985MOL0     H32957   5.275   0.621   4.812 -2.1426  0.6550 -1.7493
  985MOL0     H32958   5.085   0.703   4.789  4.0007 -0.1136 -0.0244
  985MOL0     H32959   3.021   0.449   4.634  0.8752  0.2195 -0.4125
  985MOL0     H32960   2.788   0.471   4.602 -0.0377 -1.8158 -1.7422
  985MOL0     H32961   2.352   0.375   4.419 -0.3042 -0.0855 -0.7797
  985MOL0     H32962   2.117   0.430   4.366 -0.7559  1.7403  1.1588
  985MOL0     H32963   2.002   0.843   4.230 -0.3784 -1.3540 -0.9272
  985MOL0     H32964   2.008   0.823   4.409  0.5590 -0.0594  0.0329
  985MOL0     H32965   1.771   0.867   4.369  0.9763  0.9749  0.8412
  985MOL0     H32966   1.779   0.692   4.385  0.7731 -0.7357 -1.8951
  985MOL0     H32967   1.777   0.648   4.165  3.1904  1.1311  0.3755
  985MOL0     H32968   1.781   0.819   4.109  1.7422  0.9341  0.9247
  985MOL0     H32969   1.565   0.678   4.272  3.5680 -0.7920  2.0816
  985MOL0     H32970   1.544   0.841   4.205  0.5018  0.1121 -1.6329
  985MOL0     H32971   1.523   0.590   3.863  1.4107  1.6808 -1.5307
  985MOL0     H32972   2.219   0.828   4.297 -2.1379  0.3245  1.4398
  985MOL0     H32973   2.430   0.923   4.326 -0.0009  0.6809  0.2434
  985MOL0     H32974   2.501   0.850   4.479  1.8139  1.2497 -0.4098
  985MOL0     H32975   2.569   0.808   4.333  0.8121  0.4933  2.0197
  986MOL0     O32976  10.437   1.683   5.321 -0.8275 -0.5895  0.7002
  986MOL0     C32977  10.429   1.595   5.237 -0.1010  1.0179 -0.4556
  986MOL0     O32978  10.487   1.477   5.257 -0.1293  0.5972  0.1609
  986MOL0     C32979  10.551   1.453   5.375 -0.2205 -0.1993  0.5610
  986MOL0     C32980  10.690   1.425   5.367 -0.3759  0.6168  0.0156
  986MOL0     C32981  10.753   1.386   5.483 -0.8949  0.4552  1.3110
  986MOL0     C32982  10.682   1.354   5.594 -0.3608 -0.0741  0.7180
  986MOL0     O32983  10.768   1.302   5.693  0.2911 -0.0886 -0.6224
  986MOL0     C32984  10.707   1.287   5.823  0.4757  0.1587  0.6010
  986MOL0     C32985  10.800   1.230   5.927 -1.3211 -0.2494 -0.0178
  986MOL0     C32986  10.943   1.293   5.933  0.2870  0.2928 -0.3147
  986MOL0     C32987  10.930   1.431   6.008  0.1923  0.4608 -0.3403
  986MOL0     C32988  11.019   1.539   5.950 -0.2052  0.0889 -0.4737
  986MOL0     C32989  10.993   1.671   6.019 -0.6651  0.3718  0.1341
  986MOL0     C32990  11.091   1.784   5.970  0.4114  0.6341 -0.1795
  986MOL0     C32991  11.224   1.766   6.042  0.0841  0.1819  0.4253
  986MOL0     N32992  11.308   1.879   6.022 -0.5117 -1.0449  0.5551
  986MOL0     C32993  11.342   1.963   6.124  0.8973 -0.4140  0.2651
  986MOL0     C32994  11.455   2.031   6.076 -0.1948  0.5151  0.6157
  986MOL0     C32995  11.532   2.144   6.136  0.6029 -0.3269 -0.7648
  986MOL0     C32996  11.596   2.092   6.270 -0.7549 -0.3817 -0.4034
  986MOL0     C32997  11.658   2.214   6.337  0.3806  0.7268 -0.3310
  986MOL0     C32998  11.781   2.263   6.291 -0.4912  0.3519 -0.2319
  986MOL0     O32999  11.883   2.161   6.289 -0.1325  0.5704 -0.1064
  986MOL0     C33000  12.018   2.196   6.314 -0.3441 -0.3369 -0.7124
  986MOL0     C33001  12.106   2.093   6.293  0.0104  0.5510  0.2627
  986MOL0     C33002  12.242   2.114   6.303  0.1135 -0.6377  0.2070
  986MOL0     C33003  12.299   2.237   6.322  0.2046 -0.4534 -0.1032
  986MOL0     C33004  12.443   2.267   6.327  0.0271  0.3868  0.6075
  986MOL0     O33005  12.478   2.403   6.316  0.5662  0.6692  0.4944
  986MOL0     C33006  12.608   2.433   6.280  0.1292 -0.1710 -0.0619
  986MOL0     C33007  12.670   2.374   6.168  0.5480 -0.2276  0.6668
  986MOL0     C33008  12.802   2.413   6.156  0.0410 -0.4565 -0.2640
  986MOL0     C33009  12.865   2.513   6.233  0.1814  0.1456 -0.4238
  986MOL0     O33010  12.996   2.535   6.208  0.8415  0.1718  0.2583
  986MOL0     C33011  13.081   2.580   6.315  0.1131  0.2344 -0.8246
  986MOL0     C33012  13.210   2.504   6.295 -0.2915 -0.1716  0.1960
  986MOL0     C33013  13.341   2.574   6.343  0.7576 -0.1586 -0.1496
  986MOL0     C33014  13.464   2.503   6.287 -0.3442  0.3352 -0.0247
  986MOL0     C33015  13.599   2.573   6.323  0.5020  0.1548 -0.2530
  986MOL0     C33016  13.715   2.491   6.289 -0.0171  0.1506  0.6007
  986MOL0     C33017  13.849   2.556   6.323 -0.0741 -0.2156  0.3906
  986MOL0     C33018  13.858   2.598   6.473  0.4524 -0.4894  0.0322
  986MOL0    Cl33019  14.023   2.633   6.518 -0.5317  0.2396  0.0259
  986MOL0     C33020  12.798   2.577   6.338 -1.0974  0.5280  0.1460
  986MOL0     C33021  12.665   2.534   6.362 -0.5412  0.2319 -0.6885
  986MOL0     O33022  12.520   2.172   6.328  0.0181  0.3131 -0.3773
  986MOL0     C33023  12.209   2.346   6.340 -0.0633 -0.1992  0.9064
  986MOL0     C33024  12.066   2.324   6.337  0.5822 -0.3090 -0.4146
  986MOL0     N33025  11.478   1.981   5.951 -0.3200  0.8793  0.0480
  986MOL0     N33026  11.404   1.880   5.931 -0.7077 -0.2431 -0.1167
  986MOL0     C33027  10.546   1.380   5.606 -0.4789 -1.1806  0.4765
  986MOL0     C33028  10.480   1.436   5.492  0.3248 -0.1993  0.4669
  986MOL0     C33029  10.353   1.619   5.112 -0.4006  0.0202 -0.6501
  986MOL0     C33030  10.273   1.736   5.111 -0.3952  0.0007  0.1079
  986MOL0     C33031  10.189   1.758   5.003  0.1210  0.4374  0.4613
  986MOL0     C33032  10.176   1.671   4.897  0.3934 -0.0953  0.4885
  986MOL0     O33033  10.086   1.681   4.791  0.5989  0.0827  0.4328
  986MOL0     C33034   9.965   1.753   4.813 -0.0586  0.3337  0.5860
  986MOL0     C33035   9.866   1.686   4.908 -0.2886  0.1944 -0.2457
  986MOL0     C33036   9.726   1.735   4.893 -0.9419 -0.4988  0.2421
  986MOL0     C33037   9.631   1.666   4.986 -0.1012 -0.2195  0.3310
  986MOL0     C33038   9.508   1.748   4.992  0.0553  0.4015  0.0348
  986MOL0     C33039   9.410   1.811   4.995  0.6688 -0.3281  0.2698
  986MOL0     C33040  10.263   1.566   4.892 -0.1535 -0.6413  0.4032
  986MOL0     C33041  10.354   1.537   4.994 -0.2593  0.2719 -0.2077
  986MOL0     C33042  10.446   1.415   4.968  0.3431  0.0697  0.4573
  986MOL0     H33043  10.736   1.431   5.269 -1.2520 -2.5610 -0.6944
  986MOL0     H33044  10.860   1.369   5.476 -1.1187 -0.4840 -0.2657
  986MOL0     H33045  10.660   1.377   5.865  0.2401 -1.0106  3.0569
  986MOL0     H33046  10.631   1.210   5.808  1.0651 -0.3284  0.0894
  986MOL0     H33047  10.811   1.123   5.906 -0.5824 -0.1891  0.0359
  986MOL0     H33048  10.752   1.246   6.024  1.3492  0.8143  1.2130
  986MOL0     H33049  10.975   1.314   5.831  1.0104  0.0310 -0.1414
  986MOL0     H33050  11.018   1.230   5.980  0.1732 -0.1256 -0.6931
  986MOL0     H33051  10.829   1.474   6.010  0.0563  0.3196 -2.1961
  986MOL0     H33052  10.963   1.409   6.110 -1.6027  1.0565  0.4184
  986MOL0     H33053  11.127   1.520   5.958  0.1450  1.3637 -1.7877
  986MOL0     H33054  11.012   1.544   5.841  1.0902 -2.7582 -0.7900
  986MOL0     H33055  10.892   1.711   6.003 -0.7205  0.7255  1.2475
  986MOL0     H33056  11.004   1.653   6.126  0.0493 -1.3711 -0.2020
  986MOL0     H33057  11.047   1.876   6.012 -0.1015  0.7501 -0.9613
  986MOL0     H33058  11.101   1.795   5.862 -2.5836  1.5502 -0.4322
  986MOL0     H33059  11.205   1.740   6.147 -0.1013 -1.6719 -0.0216
  986MOL0     H33060  11.275   1.679   6.000 -0.6437  0.1364 -0.3960
  986MOL0     H33061  11.302   1.979   6.223  4.2372 -0.3292  1.7393
  986MOL0     H33062  11.613   2.182   6.074  2.6747  1.6804  2.8691
  986MOL0     H33063  11.467   2.230   6.155  0.0096 -1.3368  2.4179
  986MOL0     H33064  11.515   2.061   6.336  0.4487  0.9046  1.7995
  986MOL0     H33065  11.675   2.017   6.258  0.5291  1.0613 -1.4331
  986MOL0     H33066  11.678   2.163   6.431  1.9311 -1.2344 -1.6358
  986MOL0     H33067  11.585   2.295   6.346  0.7420  1.3339 -2.3763
  986MOL0     H33068  11.815   2.345   6.355 -0.4948 -0.9275  1.4804
  986MOL0     H33069  11.774   2.311   6.193  0.7632  3.4516  1.0525
  986MOL0     H33070  12.074   1.995   6.257  2.8814 -0.0966 -0.7856
  986MOL0     H33071  12.309   2.034   6.272  0.5431 -0.2831  0.2055
  986MOL0     H33072  12.640   2.288   6.108  1.1928  2.2522 -3.6350
  986MOL0     H33073  12.861   2.372   6.075  1.2769  1.4895 -0.4136
  986MOL0     H33074  13.108   2.684   6.297  2.4436 -0.3719 -1.2004
  986MOL0     H33075  13.042   2.551   6.413  0.1043  0.5138 -0.7459
  986MOL0     H33076  13.198   2.402   6.334  0.8739  0.1422  1.4755
  986MOL0     H33077  13.223   2.498   6.187  2.5371  0.4768  0.4161
  986MOL0     H33078  13.343   2.679   6.313 -0.2202  0.9296  3.1366
  986MOL0     H33079  13.342   2.574   6.452 -1.6079 -2.7481 -0.0002
  986MOL0     H33080  13.464   2.482   6.180  1.2370 -2.1984  0.3614
  986MOL0     H33081  13.468   2.405   6.336  2.4621  2.1469  3.9046
  986MOL0     H33082  13.605   2.590   6.431 -0.9021  1.0287 -0.2824
  986MOL0     H33083  13.601   2.669   6.270 -0.7571  0.2933 -0.0924
  986MOL0     H33084  13.707   2.400   6.349  2.8031 -2.3420 -2.3752
  986MOL0     H33085  13.720   2.468   6.182  0.1627 -2.0122  1.0422
  986MOL0     H33086  13.860   2.645   6.261 -0.2321 -0.5914 -0.1823
  986MOL0     H33087  13.930   2.483   6.316  1.6157  1.5915  0.3174
  986MOL0     H33088  13.797   2.683   6.504  1.4317 -0.1888  1.2016
  986MOL0     H33089  13.828   2.517   6.541  0.8573 -0.7847 -0.1390
  986MOL0     H33090  12.860   2.644   6.398 -0.6770 -0.8992  1.3754
  986MOL0     H33091  12.607   2.563   6.449 -1.5490 -1.8227 -0.6085
  986MOL0     H33092  12.241   2.450   6.346  2.4851 -0.9123  1.0281
  986MOL0     H33093  11.999   2.409   6.350  1.3168  0.8039 -3.2061
  986MOL0     H33094  10.492   1.343   5.691 -0.2824  1.1722  1.7084
  986MOL0     H33095  10.374   1.457   5.499  0.3675  0.0223  0.4436
  986MOL0     H33096  10.263   1.803   5.195 -3.0282 -2.0497  1.6023
  986MOL0     H33097  10.123   1.844   5.010  0.7848  0.9336  0.7281
  986MOL0     H33098   9.912   1.767   4.719 -2.7033 -2.1400  1.5584
  986MOL0     H33099   9.982   1.857   4.842 -3.5824  0.7595  1.5675
  986MOL0     H33100   9.896   1.696   5.013 -0.6722  0.7010 -0.1841
  986MOL0     H33101   9.869   1.578   4.891  0.9004  0.1831 -0.0605
  986MOL0     H33102   9.692   1.714   4.791 -1.5809 -0.5088  0.4534
  986MOL0     H33103   9.721   1.843   4.907 -0.8652 -0.4998  0.2788
  986MOL0     H33104   9.600   1.569   4.945 -2.2827  0.4728  0.2082
  986MOL0     H33105   9.669   1.649   5.087 -1.5045  0.8206  1.0535
  986MOL0     H33106   9.312   1.855   4.989 -0.3831 -2.3326  1.5812
  986MOL0     H33107  10.263   1.503   4.805 -0.4405  0.2629 -0.2696
  986MOL0     H33108  10.409   1.324   5.016 -0.3997 -0.9173 -1.8316
  986MOL0     H33109  10.454   1.382   4.864 -1.0853 -0.4225  0.4748
  986MOL0     H33110  10.549   1.442   4.994 -0.5352  2.1244  2.1381
  987MOL0     O33111   2.815   0.014   0.345 -0.1451  0.2205 -0.2414
  987MOL0     C33112   2.746  -0.022   0.441 -0.7393 -0.7407 -0.4676
  987MOL0     O33113   2.776   0.015   0.571  0.1290 -0.4983 -0.1078
  987MOL0     C33114   2.865   0.110   0.582  0.7687 -0.0961 -0.7264
  987MOL0     C33115   2.815   0.243   0.595  0.2377  0.1224  0.1988
  987MOL0     C33116   2.902   0.350   0.596  0.3018 -0.4752 -0.6853
  987MOL0     C33117   3.046   0.332   0.588 -0.3428 -0.7809  0.5114
  987MOL0     O33118   3.128   0.445   0.592  0.6473 -0.7400  0.3891
  987MOL0     C33119   3.263   0.422   0.555  0.7750  0.7308  0.3063
  987MOL0     C33120   3.325   0.557   0.523  0.6124 -0.0897  0.1723
  987MOL0     C33121   3.477   0.554   0.491  0.0047 -0.3096 -0.7565
  987MOL0     C33122   3.568   0.531   0.613  0.5555 -0.0593  0.1225
  987MOL0     C33123   3.702   0.492   0.564 -0.4391 -0.2399 -0.0091
  987MOL0     C33124   3.799   0.458   0.680 -0.9020 -0.3272 -0.0342
  987MOL0     C33125   3.861   0.584   0.753 -0.0673  0.0849  0.0497
  987MOL0     C33126   3.929   0.538   0.882  0.4892  0.0347  0.3436
  987MOL0     N33127   4.033   0.445   0.837 -0.4288  0.5504 -0.2059
  987MOL0     C33128   4.038   0.305   0.854 -1.1105  0.1398  0.0257
  987MOL0     C33129   4.158   0.268   0.794  1.0357 -0.2306 -0.2421
  987MOL0     C33130   4.225   0.136   0.798 -0.2174 -0.4234  0.2178
  987MOL0     C33131   4.265   0.105   0.648 -0.5935  0.4537 -0.2234
  987MOL0     C33132   4.384   0.008   0.640 -0.1031  0.4064 -0.3125
  987MOL0     C33133   4.411  -0.029   0.489  1.1691 -0.5340 -0.7355
  987MOL0     O33134   4.488  -0.146   0.486  0.0304  1.2317  0.5920
  987MOL0     C33135   4.626  -0.124   0.480 -1.0223  0.2770  0.3174
  987MOL0     C33136   4.700  -0.159   0.594  0.2035 -0.3663 -0.0465
  987MOL0     C33137   4.838  -0.143   0.593  0.9453  0.0077 -1.2592
  987MOL0     C33138   4.908  -0.101   0.478 -0.1019 -0.0103 -0.7630
  987MOL0     C33139   5.061  -0.106   0.490  0.6739 -0.6665 -0.0993
  987MOL0     O33140   5.140  -0.100   0.381  0.2867 -0.2025  0.4498
  987MOL0     C33141   5.270  -0.132   0.386 -0.2454 -0.2496 -0.1590
  987MOL0     C33142   5.322  -0.256   0.425 -0.3967 -0.8223  0.6227
  987MOL0     C33143   5.456  -0.277   0.442  0.2547 -0.0166 -0.2329
  987MOL0     C33144   5.541  -0.172   0.411 -0.6256 -0.3000 -0.5535
  987MOL0     O33145   5.680  -0.181   0.423  0.4264 -0.0975  0.4728
  987MOL0     C33146   5.729  -0.222   0.550  0.5635 -0.1690  0.6508
  987MOL0     C33147   5.872  -0.196   0.538  0.0179 -0.9948  0.0240
  987MOL0     C33148   5.894  -0.047   0.548 -0.3799 -0.2186  0.2055
  987MOL0     C33149   5.930   0.000   0.409  0.3799  0.0226 -0.5733
  987MOL0     C33150   5.968   0.160   0.419 -0.2586  1.0768 -0.0097
  987MOL0     C33151   6.107   0.175   0.477  0.4527  0.5139 -0.2484
  987MOL0     C33152   6.133   0.326   0.492  0.2266 -0.1750  0.7672
  987MOL0     C33153   6.276   0.351   0.531  0.0031 -0.0086 -0.4983
  987MOL0    Cl33154   6.308   0.524   0.510 -0.3495 -0.0465  0.3766
  987MOL0     C33155   5.505  -0.059   0.356  0.0764 -0.2395  0.0642
  987MOL0     C33156   5.366  -0.030   0.351 -0.0497  0.4531 -0.3125
  987MOL0     O33157   5.105  -0.113   0.610  0.4705 -0.0864  0.6000
  987MOL0     C33158   4.842  -0.079   0.363  0.9630 -0.0289 -0.2919
  987MOL0     C33159   4.700  -0.092   0.363  0.0147 -0.2661 -0.0044
  987MOL0     N33160   4.212   0.386   0.750 -0.9914 -0.2308 -0.8453
  987MOL0     N33161   4.142   0.485   0.777  0.9069 -0.9519 -0.4205
  987MOL0     C33162   3.084   0.199   0.579 -0.0852  0.6311  0.0351
  987MOL0     C33163   3.001   0.089   0.572  0.1431 -0.7137 -0.6040
  987MOL0     C33164   2.640  -0.111   0.410  0.1791  0.0630 -0.4021
  987MOL0     C33165   2.621  -0.211   0.507  0.4388 -0.3496  0.2616
  987MOL0     C33166   2.513  -0.307   0.483  0.3676 -0.0515  0.1495
  987MOL0     C33167   2.426  -0.305   0.378  0.1350 -0.2451  0.5808
  987MOL0     O33168   2.328  -0.402   0.365  0.4188  0.0995 -0.1785
  987MOL0     C33169   2.288  -0.486   0.474 -0.8408 -0.5709 -0.3162
  987MOL0     C33170   2.220  -0.413   0.591 -0.0286 -0.3974 -0.8012
  987MOL0     C33171   2.082  -0.357   0.547 -0.0876  0.2595  0.3806
  987MOL0     C33172   2.015  -0.266   0.652  0.6120  1.4708  0.0375
  987MOL0     C33173   1.879  -0.219   0.606  0.3477  0.3675 -0.5791
  987MOL0     C33174   1.775  -0.178   0.571  0.1495 -0.8047 -0.8485
  987MOL0     C33175   2.450  -0.205   0.280  0.6835 -0.3044  0.1857
  987MOL0     C33176   2.553  -0.109   0.295  0.3468 -0.1355  0.5461
  987MOL0     C33177   2.563   0.007   0.197  0.2121 -0.4871  0.5826
  987MOL0     H33178   2.708   0.258   0.603 -0.3168 -3.3759  1.2608
  987MOL0     H33179   2.866   0.452   0.597  1.0715 -0.1193  2.6656
  987MOL0     H33180   3.308   0.380   0.645 -3.5479  0.1916  2.4341
  987MOL0     H33181   3.266   0.358   0.466 -1.9275  0.1314  0.5800
  987MOL0     H33182   3.323   0.627   0.607  0.5815  0.4735 -0.2915
  987MOL0     H33183   3.272   0.609   0.444 -1.5974 -1.3685  0.7405
  987MOL0     H33184   3.496   0.650   0.444 -2.4432  0.2146 -0.8158
  987MOL0     H33185   3.489   0.471   0.421 -0.1741 -0.9365 -0.0567
  987MOL0     H33186   3.556   0.620   0.675  2.3755 -0.5745  1.2870
  987MOL0     H33187   3.535   0.458   0.688 -0.1375 -0.6514 -0.7378
  987MOL0     H33188   3.686   0.408   0.495 -0.3204  0.4241 -0.8644
  987MOL0     H33189   3.737   0.583   0.514  0.1054 -1.1981 -1.4534
  987MOL0     H33190   3.747   0.393   0.750 -0.9661 -1.8849 -1.4708
  987MOL0     H33191   3.874   0.398   0.628 -1.8865 -1.7658  0.1429
  987MOL0     H33192   3.777   0.646   0.784 -1.3416 -1.7141  0.3807
  987MOL0     H33193   3.930   0.638   0.688  1.2428 -1.0825  0.4007
  987MOL0     H33194   3.978   0.622   0.932  1.7302  0.7255 -1.9009
  987MOL0     H33195   3.858   0.490   0.950  0.4188  0.5096  0.6075
  987MOL0     H33196   3.972   0.236   0.905 -0.1151  1.7956  3.9354
  987MOL0     H33197   4.315   0.154   0.858 -0.9653  2.3505  0.6402
  987MOL0     H33198   4.160   0.060   0.841 -1.2043 -0.7448 -1.7283
  987MOL0     H33199   4.184   0.073   0.582 -0.6200 -0.0937  0.0696
  987MOL0     H33200   4.302   0.201   0.609 -2.3367  1.7320  1.1161
  987MOL0     H33201   4.362  -0.086   0.692 -0.2349  0.3774 -0.4203
  987MOL0     H33202   4.473   0.055   0.683  2.6318 -1.8408 -3.0675
  987MOL0     H33203   4.458   0.062   0.448  0.0495 -0.1698 -1.2627
  987MOL0     H33204   4.315  -0.047   0.440  1.6191 -1.4160 -1.3227
  987MOL0     H33205   4.637  -0.206   0.669  1.7540 -2.2985  0.1279
  987MOL0     H33206   4.892  -0.167   0.683 -0.2036 -0.9280 -0.7863
  987MOL0     H33207   5.250  -0.336   0.439 -0.7598 -0.6014  0.0592
  987MOL0     H33208   5.491  -0.367   0.491 -0.4506  1.0282  2.4077
  987MOL0     H33209   5.676  -0.158   0.621 -1.5888  2.7407 -3.1172
  987MOL0     H33210   5.715  -0.329   0.567  0.9171  0.1152  3.0786
  987MOL0     H33211   5.932  -0.241   0.618  2.3503  1.9295  0.0997
  987MOL0     H33212   5.910  -0.233   0.442  0.0807  0.8421 -0.6953
  987MOL0     H33213   5.805   0.005   0.582  0.4263 -0.1953  2.4302
  987MOL0     H33214   5.980  -0.028   0.613 -1.1632  0.8824  0.9433
  987MOL0     H33215   5.848   0.000   0.337  1.6954 -0.9089 -2.1456
  987MOL0     H33216   6.008  -0.061   0.363  0.4570 -2.1942  2.2370
  987MOL0     H33217   5.898   0.209   0.487 -1.2360 -1.3000  0.8100
  987MOL0     H33218   5.963   0.187   0.313  3.1026 -2.0113 -1.1390
  987MOL0     H33219   6.115   0.131   0.576 -1.1717  0.9426  0.1019
  987MOL0     H33220   6.178   0.138   0.402  1.1857  1.5073 -0.0733
  987MOL0     H33221   6.062   0.372   0.561 -1.4012 -1.8843  0.2974
  987MOL0     H33222   6.123   0.371   0.393  1.9564  1.8419  1.4287
  987MOL0     H33223   6.284   0.333   0.639 -3.6106  1.0493  0.1072
  987MOL0     H33224   6.350   0.291   0.478 -0.5405 -1.9402  0.8304
  987MOL0     H33225   5.586   0.012   0.343 -0.0834  0.1025  0.8742
  987MOL0     H33226   5.325   0.068   0.328  0.4602  0.6748 -0.2889
  987MOL0     H33227   4.884  -0.076   0.263 -0.1589 -1.9750 -0.8803
  987MOL0     H33228   4.652  -0.085   0.266  0.2132 -3.1557 -0.3779
  987MOL0     H33229   3.191   0.189   0.561  0.1196  0.9758  0.9559
  987MOL0     H33230   3.040  -0.012   0.565 -1.2469 -1.4929  1.8123
  987MOL0     H33231   2.682  -0.210   0.597  0.2548 -1.9762  0.4212
  987MOL0     H33232   2.501  -0.383   0.560 -0.5858 -0.0730 -0.0049
  987MOL0     H33233   2.371  -0.546   0.511 -1.6465 -1.2026  0.5276
  987MOL0     H33234   2.213  -0.560   0.446 -0.5490 -0.8822 -0.2747
  987MOL0     H33235   2.279  -0.328   0.627  2.8730 -2.6990  0.3048
  987MOL0     H33236   2.209  -0.486   0.672  0.2325  1.8148  1.3293
  987MOL0     H33237   2.018  -0.442   0.520 -1.6049  1.5280 -0.1555
  987MOL0     H33238   2.107  -0.302   0.457  0.0993  0.4463  0.5461
  987MOL0     H33239   2.005  -0.319   0.748  0.6668 -0.5003 -1.0024
  987MOL0     H33240   2.081  -0.181   0.677  0.2649  1.7448  0.0318
  987MOL0     H33241   1.677  -0.163   0.531  0.1111  1.0643 -0.1295
  987MOL0     H33242   2.372  -0.192   0.205  1.5342  1.3089 -0.4698
  987MOL0     H33243   2.575   0.101   0.251 -0.3219 -1.2587  2.1083
  987MOL0     H33244   2.657  -0.012   0.144  1.2027 -1.8022  2.6558
  987MOL0     H33245   2.482   0.009   0.124  1.9995 -0.2041 -1.5099
  988MOL0     O33246   0.094   7.586   0.470  0.0095  0.5608  0.8202
  988MOL0     C33247   0.074   7.612   0.586 -0.0583  0.6657  0.9488
  988MOL0     O33248   0.160   7.575   0.687  0.0638  0.7140 -0.0513
  988MOL0     C33249   0.284   7.525   0.643  0.1440 -0.2001  1.1976
  988MOL0     C33250   0.365   7.611   0.570 -0.3017 -0.0408  0.2248
  988MOL0     C33251   0.498   7.575   0.545 -0.9154  0.6789  0.7942
  988MOL0     C33252   0.549   7.451   0.579  0.2280  0.4247 -1.0834
  988MOL0     O33253   0.679   7.406   0.536  0.4760 -0.1438 -0.4994
  988MOL0     C33254   0.778   7.399   0.641 -0.4769  0.3309  0.7916
  988MOL0     C33255   0.881   7.306   0.584 -0.6348  0.9958  0.7377
  988MOL0     C33256   1.011   7.295   0.669 -1.1512  0.4283 -0.9494
  988MOL0     C33257   1.127   7.237   0.589 -0.1596 -0.3335  0.1477
  988MOL0     C33258   1.256   7.223   0.675  0.9469 -0.9091 -0.5904
  988MOL0     C33259   1.385   7.215   0.593  0.2936 -0.2602 -0.0335
  988MOL0     C33260   1.517   7.229   0.668  0.7610 -0.8178 -0.4295
  988MOL0     C33261   1.645   7.197   0.580 -0.5989 -0.8307  0.0814
  988MOL0     N33262   1.770   7.173   0.653  0.1646  0.0463  0.7541
  988MOL0     C33263   1.865   7.269   0.690  0.4398 -0.7002 -0.7199
  988MOL0     C33264   1.959   7.204   0.759 -0.0336  0.6078  0.1237
  988MOL0     C33265   2.080   7.261   0.827  0.4812 -0.2429 -0.9977
  988MOL0     C33266   2.175   7.335   0.726 -0.1271 -1.2341 -0.0941
  988MOL0     C33267   2.305   7.392   0.789 -0.4621  0.0917  0.5728
  988MOL0     C33268   2.381   7.483   0.701  0.1091  0.1137 -0.3384
  988MOL0     O33269   2.497   7.530   0.777  0.0130 -0.2261 -0.3810
  988MOL0     C33270   2.612   7.493   0.723  0.0080 -0.0321 -0.2998
  988MOL0     C33271   2.723   7.577   0.743  0.0843 -0.1912  0.0096
  988MOL0     C33272   2.848   7.540   0.686 -0.1282 -0.3281 -0.1582
  988MOL0     C33273   2.864   7.416   0.616 -0.8606  0.2026  0.7062
  988MOL0     C33274   2.987   7.360   0.562 -0.4827 -0.8123  0.2327
  988MOL0     O33275   3.109   7.429   0.575  0.1386 -0.4481  0.1798
  988MOL0     C33276   3.224   7.372   0.528  0.0313  0.0818 -0.4032
  988MOL0     C33277   3.331   7.339   0.622  0.2701  0.5354 -0.4630
  988MOL0     C33278   3.452   7.283   0.580 -0.6551  0.4823 -0.1128
  988MOL0     C33279   3.474   7.244   0.450  0.0286 -0.1748  0.6941
  988MOL0     O33280   3.592   7.201   0.392 -0.5510 -0.1170 -0.1599
  988MOL0     C33281   3.723   7.201   0.460  0.5423 -0.4240  0.2257
  988MOL0     C33282   3.833   7.133   0.378 -0.3057 -0.2810  0.0198
  988MOL0     C33283   3.977   7.160   0.425 -0.2305  0.2026  0.0949
  988MOL0     C33284   4.000   7.142   0.566 -0.1245 -0.8489 -0.5915
  988MOL0     C33285   4.138   7.184   0.629  0.3302  0.2511  0.4391
  988MOL0     C33286   4.174   7.104   0.754  0.1117 -0.5962 -0.0577
  988MOL0     C33287   4.323   7.147   0.781  0.3178 -0.0933 -0.3988
  988MOL0     C33288   4.316   7.273   0.868  0.3478 -1.0047  0.2171
  988MOL0    Cl33289   4.479   7.310   0.915  0.0415  0.2502 -0.4115
  988MOL0     C33290   3.373   7.280   0.352  0.7565  0.3299  0.0746
  988MOL0     C33291   3.256   7.353   0.388  0.4898 -0.5853  0.6010
  988MOL0     O33292   2.980   7.259   0.502  0.0474 -0.4157  0.4534
  988MOL0     C33293   2.752   7.332   0.608 -0.2616 -0.0438 -1.0882
  988MOL0     C33294   2.626   7.369   0.661 -0.6425  0.1197  1.2987
  988MOL0     N33295   1.932   7.064   0.746  0.1137 -0.2671  0.4224
  988MOL0     N33296   1.819   7.052   0.687 -0.2727 -0.5061 -0.1735
  988MOL0     C33297   0.462   7.357   0.648  0.3846 -0.0139  0.0647
  988MOL0     C33298   0.334   7.397   0.685  0.9093  0.0775  0.0010
  988MOL0     C33299  -0.058   7.678   0.615  0.9823  0.7922 -0.3719
  988MOL0     C33300  -0.135   7.722   0.506  1.6568  0.8833  0.1427
  988MOL0     C33301  -0.264   7.774   0.510  0.8915 -0.1672 -0.4857
  988MOL0     C33302  -0.322   7.781   0.641  0.1920  0.6910  0.2522
  988MOL0     O33303  -0.444   7.826   0.682  0.1882 -0.4983  0.5443
  988MOL0     C33304  -0.532   7.871   0.578  0.4964  0.4536  0.0582
  988MOL0     C33305  -0.669   7.897   0.632 -1.1090  0.4369 -0.0604
  988MOL0     C33306  -0.772   7.917   0.507 -0.0050 -0.4439  0.1851
  988MOL0     C33307  -0.892   7.999   0.537 -0.5056 -0.0476  0.1475
  988MOL0     C33308  -0.959   7.955   0.658  0.8224  0.9459  0.1136
  988MOL0     C33309  -0.996   7.908   0.762  0.0913  0.2275 -0.3980
  988MOL0     C33310  -0.248   7.738   0.754 -0.5556  0.3704  0.0714
  988MOL0     C33311  -0.116   7.677   0.745 -0.0161 -1.2131 -0.1837
  988MOL0     C33312  -0.055   7.608   0.869 -0.0763 -0.0389 -0.7339
  988MOL0     H33313   0.320   7.705   0.540  1.2386  1.3255  1.9194
  988MOL0     H33314   0.570   7.629   0.485 -0.4115 -0.3641  0.4356
  988MOL0     H33315   0.816   7.501   0.645 -2.0876  1.0396 -0.7002
  988MOL0     H33316   0.739   7.359   0.736 -0.5779  0.1097  0.6585
  988MOL0     H33317   0.894   7.339   0.480  0.0799 -0.7503  0.2326
  988MOL0     H33318   0.838   7.206   0.570  1.7646  0.2926 -3.3618
  988MOL0     H33319   1.002   7.232   0.759  0.0278  0.6760 -0.6304
  988MOL0     H33320   1.055   7.387   0.709  4.4852 -1.3717 -2.0303
  988MOL0     H33321   1.100   7.137   0.554 -1.2470  0.4944 -1.4652
  988MOL0     H33322   1.135   7.312   0.510 -1.8119  1.8399  1.8987
  988MOL0     H33323   1.265   7.311   0.739  2.5734 -1.1078 -0.5166
  988MOL0     H33324   1.255   7.132   0.735  0.7180  0.1758  1.0963
  988MOL0     H33325   1.392   7.128   0.527  2.6258 -2.2091  2.5095
  988MOL0     H33326   1.385   7.298   0.522 -0.3188 -1.0779 -1.0210
  988MOL0     H33327   1.507   7.154   0.748  1.0139 -2.2525 -1.6844
  988MOL0     H33328   1.525   7.335   0.692  0.6976 -0.6893 -0.9571
  988MOL0     H33329   1.628   7.114   0.512 -0.6705 -1.4035  0.7871
  988MOL0     H33330   1.675   7.286   0.524 -0.0151 -0.1567  1.4147
  988MOL0     H33331   1.849   7.376   0.686 -3.0530 -0.7789  3.3987
  988MOL0     H33332   2.037   7.328   0.902  1.7567  0.0543 -0.4972
  988MOL0     H33333   2.133   7.182   0.882  0.4423 -0.5239 -1.3638
  988MOL0     H33334   2.204   7.257   0.655  2.4282 -0.0060 -0.5011
  988MOL0     H33335   2.123   7.412   0.668  2.4864  1.9827  1.5268
  988MOL0     H33336   2.358   7.306   0.832 -0.2870 -1.4285 -2.4112
  988MOL0     H33337   2.276   7.450   0.877 -2.4046 -1.6133  1.1489
  988MOL0     H33338   2.326   7.576   0.686 -1.9095 -0.6292  1.9268
  988MOL0     H33339   2.398   7.431   0.606 -0.6730 -2.3425  0.7716
  988MOL0     H33340   2.715   7.672   0.795 -3.0212 -0.1785 -0.3113
  988MOL0     H33341   2.930   7.610   0.697  0.6589 -0.8747 -2.0190
  988MOL0     H33342   3.319   7.351   0.729 -1.9095 -1.4980 -0.3925
  988MOL0     H33343   3.524   7.265   0.658 -2.4436 -1.9945  1.0866
  988MOL0     H33344   3.764   7.301   0.478 -0.6533  0.3890 -1.2784
  988MOL0     H33345   3.718   7.154   0.559  1.9687 -1.7308 -0.2795
  988MOL0     H33346   3.806   7.027   0.372  1.1812 -0.6055 -1.9952
  988MOL0     H33347   3.821   7.158   0.273 -1.5955 -1.6942 -0.2146
  988MOL0     H33348   4.042   7.089   0.373 -0.1017  1.4624 -1.5369
  988MOL0     H33349   4.006   7.259   0.390 -0.1378  0.0141 -0.3794
  988MOL0     H33350   3.977   7.038   0.592 -1.6671 -1.3488 -3.5221
  988MOL0     H33351   3.935   7.209   0.624  0.4135 -0.4088 -0.4799
  988MOL0     H33352   4.140   7.292   0.643  0.5029  0.1280  1.4717
  988MOL0     H33353   4.209   7.167   0.548 -0.0460  1.4508 -0.1631
  988MOL0     H33354   4.110   7.125   0.841 -0.6763 -0.2054 -0.7261
  988MOL0     H33355   4.156   6.999   0.727  1.6360 -1.0276  0.4842
  988MOL0     H33356   4.383   7.164   0.692  0.1684 -0.5555 -0.5883
  988MOL0     H33357   4.370   7.071   0.843  1.2113 -0.5190 -1.5701
  988MOL0     H33358   4.275   7.356   0.810  4.3480  0.1753 -1.2877
  988MOL0     H33359   4.258   7.261   0.961 -1.0369 -4.1737 -0.9222
  988MOL0     H33360   3.405   7.259   0.250  4.6908  2.2863  0.6803
  988MOL0     H33361   3.172   7.378   0.323 -0.0041 -0.3608  1.3045
  988MOL0     H33362   2.766   7.233   0.567  1.7918 -0.7189  1.0557
  988MOL0     H33363   2.554   7.289   0.655 -0.8830  0.4420 -1.5631
  988MOL0     H33364   0.497   7.255   0.644  0.6129  0.0775 -0.3373
  988MOL0     H33365   0.269   7.321   0.727  1.8563 -1.3676 -1.0538
  988MOL0     H33366  -0.091   7.715   0.407 -0.9724 -0.8131 -0.9989
  988MOL0     H33367  -0.328   7.819   0.435 -1.4183  1.6823  2.3616
  988MOL0     H33368  -0.548   7.791   0.505  1.1573  0.4346 -0.0722
  988MOL0     H33369  -0.503   7.963   0.526  1.1670  2.0445  3.0808
  988MOL0     H33370  -0.665   7.992   0.687 -0.7608  0.9698 -0.9801
  988MOL0     H33371  -0.701   7.816   0.699  1.7429 -1.7090 -1.1239
  988MOL0     H33372  -0.796   7.817   0.470  1.6434 -1.0889  0.7391
  988MOL0     H33373  -0.719   7.968   0.426 -1.4216  1.1028  0.1848
  988MOL0     H33374  -0.871   8.106   0.543  0.6784 -0.3267  1.3915
  988MOL0     H33375  -0.961   7.989   0.453  1.7273 -0.8398 -1.7048
  988MOL0     H33376  -1.029   7.862   0.853 -2.0353 -0.9065 -1.6613
  988MOL0     H33377  -0.292   7.750   0.852  0.1547  1.4104  0.2755
  988MOL0     H33378  -0.021   7.507   0.842 -1.2127 -0.9159  0.9289
  988MOL0     H33379   0.027   7.667   0.911 -3.2578  2.6264  2.3781
  988MOL0     H33380  -0.130   7.591   0.948  0.4008 -3.1560 -0.8115
  989MOL0     O33381   2.881   0.825   1.798 -0.6586 -0.4664 -0.4094
  989MOL0     C33382   2.862   0.788   1.914 -0.3351 -0.7413 -0.1056
  989MOL0     O33383   2.957   0.761   2.007 -0.6074  0.2938 -0.3554
  989MOL0     C33384   3.084   0.783   1.966  0.2772  0.4176 -0.3110
  989MOL0     C33385   3.138   0.910   1.945  0.5371 -0.2311  0.0277
  989MOL0     C33386   3.269   0.923   1.914  0.5506 -0.8114  0.7289
  989MOL0     C33387   3.355   0.817   1.891  0.5665 -0.1731  0.0719
  989MOL0     O33388   3.473   0.845   1.847 -0.0519  0.7061  0.0170
  989MOL0     C33389   3.580   0.825   1.940  0.0502  0.5797  0.2207
  989MOL0     C33390   3.689   0.934   1.891  0.2327  0.0789  0.3879
  989MOL0     C33391   3.682   1.052   1.985 -0.5413 -0.5070 -0.0642
  989MOL0     C33392   3.795   1.146   1.948 -0.3096 -0.0143 -1.0528
  989MOL0     C33393   3.770   1.287   2.009 -0.4918  0.0938 -0.0395
  989MOL0     C33394   3.873   1.385   1.960 -0.5220  0.0637  0.0641
  989MOL0     C33395   3.864   1.519   2.029 -0.8228  0.9574 -0.3383
  989MOL0     C33396   3.906   1.526   2.179  0.2938  0.8072  0.2980
  989MOL0     N33397   4.054   1.521   2.198  0.0360  0.1728  0.0369
  989MOL0     C33398   4.147   1.625   2.180  0.5949 -0.0830 -0.2642
  989MOL0     C33399   4.262   1.566   2.205  0.2966 -0.3488 -0.7665
  989MOL0     C33400   4.390   1.650   2.196 -0.3164  0.6674 -1.0912
  989MOL0     C33401   4.507   1.624   2.291 -0.1568  0.8715 -0.3656
  989MOL0     C33402   4.622   1.710   2.253  0.1066 -0.1041  0.7018
  989MOL0     C33403   4.740   1.689   2.336 -0.2438  0.3117 -0.1011
  989MOL0     O33404   4.829   1.580   2.294 -0.0483 -0.6105 -0.4241
  989MOL0     C33405   4.954   1.575   2.342 -0.8754 -0.4518 -1.1739
  989MOL0     C33406   5.006   1.674   2.438 -0.2095 -0.2496  0.3421
  989MOL0     C33407   5.127   1.659   2.501 -0.0967  0.2636 -0.2275
  989MOL0     C33408   5.218   1.555   2.461  0.1138 -0.4648 -0.4635
  989MOL0     C33409   5.347   1.539   2.526  0.9501 -0.2010  0.1553
  989MOL0     O33410   5.418   1.432   2.486  0.0546  0.2991  0.0878
  989MOL0     C33411   5.550   1.418   2.526 -0.0925 -0.4174  0.1430
  989MOL0     C33412   5.644   1.523   2.537 -0.7184  0.8419  0.7691
  989MOL0     C33413   5.775   1.493   2.580 -0.2700  0.2074  0.5781
  989MOL0     C33414   5.812   1.365   2.614  0.4853  0.0849 -0.2248
  989MOL0     O33415   5.933   1.344   2.666  0.3697 -0.4161  0.5429
  989MOL0     C33416   5.931   1.277   2.797 -0.6350 -0.3976  0.4270
  989MOL0     C33417   6.063   1.317   2.868  0.1191 -0.3077 -0.4841
  989MOL0     C33418   6.186   1.275   2.781 -0.1903 -0.1548  0.0493
  989MOL0     C33419   6.316   1.323   2.852 -0.3120  0.3861 -0.7264
  989MOL0     C33420   6.440   1.294   2.765 -1.0442 -0.2492 -0.0982
  989MOL0     C33421   6.567   1.295   2.847  0.0954 -0.0910  0.6982
  989MOL0     C33422   6.695   1.271   2.757 -0.2069  0.5572  0.2496
  989MOL0     C33423   6.822   1.260   2.836 -0.5019  0.8986  0.1426
  989MOL0    Cl33424   6.954   1.194   2.734  0.1424 -0.3136 -0.5161
  989MOL0     C33425   5.723   1.263   2.593  0.4130 -0.6893 -0.5116
  989MOL0     C33426   5.593   1.290   2.554  0.6015 -0.5363  0.0404
  989MOL0     O33427   5.377   1.626   2.608 -0.2160 -0.2198  0.1533
  989MOL0     C33428   5.169   1.457   2.368 -0.9287 -0.3766  0.7699
  989MOL0     C33429   5.036   1.468   2.314 -0.5392 -0.0403 -1.0646
  989MOL0     N33430   4.241   1.426   2.222  0.2337 -0.1641 -0.2855
  989MOL0     N33431   4.117   1.399   2.212 -0.2790 -0.7351  0.2237
  989MOL0     C33432   3.301   0.689   1.896 -0.1207 -0.4774 -0.1598
  989MOL0     C33433   3.167   0.674   1.936 -0.8056  0.2752 -0.1842
  989MOL0     C33434   2.729   0.782   1.966  0.4161 -0.1269  0.3940
  989MOL0     C33435   2.695   0.713   2.085  0.4010 -0.1472 -0.2890
  989MOL0     C33436   2.569   0.693   2.135  0.4093  0.1900 -0.5826
  989MOL0     C33437   2.464   0.763   2.076 -0.5087  0.3347 -0.2331
  989MOL0     O33438   2.342   0.755   2.141 -0.4776 -0.0207 -0.7852
  989MOL0     C33439   2.225   0.802   2.073  0.2124  0.1372 -0.2917
  989MOL0     C33440   2.106   0.775   2.172 -0.1849  0.6902  0.7701
  989MOL0     C33441   2.122   0.850   2.303  0.5530  0.7181  0.9631
  989MOL0     C33442   2.107   1.006   2.287 -0.1848  0.2700  0.7851
  989MOL0     C33443   2.027   1.070   2.396 -0.1751 -0.3904  1.1930
  989MOL0     C33444   1.969   1.135   2.484 -0.2820  0.0487 -0.0680
  989MOL0     C33445   2.488   0.848   1.975  0.0132  0.1970  0.6948
  989MOL0     C33446   2.618   0.856   1.913  0.8897  0.7820  0.3272
  989MOL0     C33447   2.636   0.961   1.804 -0.1586  0.5303 -0.3112
  989MOL0     H33448   3.081   1.001   1.960  3.0493  2.0850 -2.9649
  989MOL0     H33449   3.299   1.025   1.896  0.2225 -0.5323  1.6758
  989MOL0     H33450   3.545   0.840   2.043  0.8787  1.9705  0.3255
  989MOL0     H33451   3.625   0.726   1.929 -0.8322  0.3339 -1.5982
  989MOL0     H33452   3.690   0.961   1.785 -1.8451 -0.9595  0.0502
  989MOL0     H33453   3.786   0.889   1.913  0.5430  0.9386  0.7991
  989MOL0     H33454   3.680   1.016   2.088 -2.0011 -1.9627 -0.5631
  989MOL0     H33455   3.586   1.104   1.972 -0.6822  0.2104  2.9637
  989MOL0     H33456   3.887   1.112   1.996 -2.0680 -1.5092  1.5216
  989MOL0     H33457   3.799   1.163   1.840 -0.1571 -0.2484 -1.0832
  989MOL0     H33458   3.676   1.336   1.982 -0.2095  1.2175  0.9370
  989MOL0     H33459   3.757   1.281   2.117  0.5829  0.8313  0.1533
  989MOL0     H33460   3.975   1.352   1.979  0.4586  1.5769 -2.2115
  989MOL0     H33461   3.861   1.411   1.854 -0.9010 -1.2034 -0.2205
  989MOL0     H33462   3.758   1.546   2.030 -1.3958 -0.8159  3.1477
  989MOL0     H33463   3.925   1.583   1.966  2.7581 -1.8448 -0.0566
  989MOL0     H33464   3.871   1.621   2.220 -2.8832 -0.1765  0.1414
  989MOL0     H33465   3.861   1.448   2.242  0.0944  1.9793  1.6434
  989MOL0     H33466   4.118   1.728   2.160 -0.3806 -0.5207 -1.1727
  989MOL0     H33467   4.425   1.631   2.094  2.1213  1.5462 -0.4860
  989MOL0     H33468   4.362   1.755   2.191 -1.1498  0.4176 -2.1779
  989MOL0     H33469   4.477   1.632   2.396  2.2921 -4.4228  1.0739
  989MOL0     H33470   4.541   1.523   2.267  0.8009  0.7070  1.4948
  989MOL0     H33471   4.586   1.813   2.259  2.1747  0.6740  0.8144
  989MOL0     H33472   4.645   1.697   2.147 -0.5665  2.6487  0.1535
  989MOL0     H33473   4.711   1.677   2.441 -0.1542 -2.8210 -0.3408
  989MOL0     H33474   4.801   1.780   2.333  0.1310  0.0816  0.3244
  989MOL0     H33475   4.949   1.762   2.468  0.3137 -0.0058  0.6428
  989MOL0     H33476   5.156   1.737   2.572 -2.2311  0.6397  0.2841
  989MOL0     H33477   5.622   1.627   2.518  1.8365  1.4055  0.5513
  989MOL0     H33478   5.846   1.576   2.585  1.5243 -1.3157  2.5152
  989MOL0     H33479   5.841   1.293   2.857 -0.5331 -2.0812  1.0776
  989MOL0     H33480   5.918   1.170   2.780 -1.2395 -0.1921 -0.4785
  989MOL0     H33481   6.076   1.424   2.886  4.2156 -0.6054 -0.6823
  989MOL0     H33482   6.066   1.267   2.965 -0.6885 -2.7696 -1.6429
  989MOL0     H33483   6.194   1.169   2.756  2.6817  0.8474 -4.4485
  989MOL0     H33484   6.175   1.324   2.684 -2.5186  1.2077  0.9323
  989MOL0     H33485   6.327   1.274   2.949  0.6333  2.2617  0.1740
  989MOL0     H33486   6.301   1.430   2.873  0.2993 -0.1707  3.5103
  989MOL0     H33487   6.444   1.369   2.685  1.9586 -0.6395 -0.4257
  989MOL0     H33488   6.433   1.201   2.708  2.1141 -1.0008  0.5649
  989MOL0     H33489   6.583   1.390   2.898  0.4974  1.6470 -2.4367
  989MOL0     H33490   6.565   1.215   2.921 -0.7331 -0.1471  0.6174
  989MOL0     H33491   6.704   1.350   2.682  1.8765 -0.5798 -0.7483
  989MOL0     H33492   6.689   1.184   2.692  4.3175  0.4928 -0.3721
  989MOL0     H33493   6.841   1.360   2.876  0.4948  0.8790 -0.2556
  989MOL0     H33494   6.806   1.201   2.927  1.4972 -0.5963 -0.4025
  989MOL0     H33495   5.749   1.162   2.622 -1.0215 -0.7354  0.7327
  989MOL0     H33496   5.518   1.212   2.542 -1.8596  1.9365 -1.8650
  989MOL0     H33497   5.229   1.371   2.339 -2.5219 -2.0411  2.1733
  989MOL0     H33498   4.996   1.393   2.247  1.9802 -3.0118  0.4848
  989MOL0     H33499   3.357   0.602   1.865  1.3301 -0.3152  1.8459
  989MOL0     H33500   3.113   0.580   1.934 -3.0721  1.3965  1.9817
  989MOL0     H33501   2.774   0.656   2.132  1.5033  1.8763  0.4497
  989MOL0     H33502   2.543   0.623   2.214 -2.4008  1.5100 -0.1977
  989MOL0     H33503   2.216   0.752   1.976 -0.2496  1.3490 -0.8939
  989MOL0     H33504   2.221   0.909   2.051 -2.7287 -0.0709 -1.1170
  989MOL0     H33505   2.109   0.668   2.193 -0.4060  0.3103 -0.9446
  989MOL0     H33506   2.013   0.803   2.122  1.3710  2.8826 -1.1394
  989MOL0     H33507   2.219   0.823   2.347  0.9021 -0.5587 -0.4945
  989MOL0     H33508   2.054   0.803   2.375  2.2815  0.7971  2.7388
  989MOL0     H33509   2.202   1.060   2.297 -0.5739  1.4215 -1.2489
  989MOL0     H33510   2.065   1.032   2.190 -0.9757 -0.3475  0.9535
  989MOL0     H33511   1.899   1.187   2.547 -0.4020  1.2709 -1.1713
  989MOL0     H33512   2.411   0.911   1.933  1.2913  0.5261 -1.2968
  989MOL0     H33513   2.545   0.992   1.752 -0.9395  2.6030  2.1403
  989MOL0     H33514   2.695   1.041   1.849  2.0625 -1.0182 -0.2754
  989MOL0     H33515   2.692   0.908   1.725 -0.5767 -1.8351  0.8735
  990MOL0     O33516   9.407   7.754   2.029 -0.0442 -1.1496 -0.0903
  990MOL0     C33517   9.356   7.648   2.032  0.5664  0.1336 -0.1984
  990MOL0     O33518   9.427   7.535   2.013  0.4584  0.1299  0.3802
  990MOL0     C33519   9.566   7.543   2.003  0.0326 -0.0773  0.6860
  990MOL0     C33520   9.641   7.480   2.105  0.5305 -0.5181 -0.1457
  990MOL0     C33521   9.779   7.485   2.106 -0.2672 -0.7204 -0.4206
  990MOL0     C33522   9.854   7.540   1.999  0.8975 -0.6166 -0.6645
  990MOL0     O33523   9.986   7.542   1.973  0.0558  0.2919  0.6034
  990MOL0     C33524  10.067   7.484   2.077  1.2427  0.3830  0.1362
  990MOL0     C33525  10.091   7.331   2.059 -0.5728  0.6146  0.4295
  990MOL0     C33526  10.217   7.317   1.970 -0.8217 -0.2107 -0.1704
  990MOL0     C33527  10.268   7.174   1.934 -0.8722 -0.3265 -0.0418
  990MOL0     C33528  10.415   7.185   1.883  0.3056  0.3592  0.1984
  990MOL0     C33529  10.473   7.043   1.847  0.4279  0.7787  0.9097
  990MOL0     C33530  10.614   7.065   1.795 -0.0172 -0.6400 -0.4446
  990MOL0     C33531  10.720   7.044   1.892 -0.0645  0.6343 -0.5816
  990MOL0     N33532  10.725   6.904   1.940 -0.1810 -0.5142 -0.4988
  990MOL0     C33533  10.686   6.862   2.063 -0.6871 -0.0691  0.2151
  990MOL0     C33534  10.712   6.729   2.066 -0.1071  1.1518 -0.8178
  990MOL0     C33535  10.700   6.642   2.188  0.1641  0.3856  0.2179
  990MOL0     C33536  10.824   6.625   2.277  0.0122 -0.2236 -0.1344
  990MOL0     C33537  10.776   6.506   2.366 -0.4856  0.1972 -0.2157
  990MOL0     C33538  10.877   6.486   2.485 -0.6954  0.9948 -0.7771
  990MOL0     O33539  10.999   6.431   2.437 -0.4936 -0.9983  0.8367
  990MOL0     C33540  11.105   6.401   2.516 -0.6811 -0.9534  0.1444
  990MOL0     C33541  11.211   6.332   2.462 -0.1784  0.1581 -0.1541
  990MOL0     C33542  11.330   6.301   2.525  0.1458  0.0743  0.0248
  990MOL0     C33543  11.337   6.339   2.657  0.1013  0.2139  0.0348
  990MOL0     C33544  11.454   6.301   2.736 -1.1448 -0.5000 -0.3325
  990MOL0     O33545  11.574   6.290   2.676  0.0228 -0.6921  0.0873
  990MOL0     C33546  11.687   6.324   2.748  0.0592 -0.7048  0.1018
  990MOL0     C33547  11.707   6.399   2.871 -0.2651  0.0260  0.5556
  990MOL0     C33548  11.837   6.427   2.923  0.0121  0.4812  0.6415
  990MOL0     C33549  11.957   6.401   2.845  0.4535 -0.0225  1.0816
  990MOL0     O33550  12.076   6.444   2.907 -0.3332 -0.1080  0.2537
  990MOL0     C33551  12.194   6.385   2.866 -0.0240  0.4874  0.4454
  990MOL0     C33552  12.316   6.448   2.940  0.8871  0.5536  0.4663
  990MOL0     C33553  12.443   6.367   2.909 -0.5721  0.7341  0.0502
  990MOL0     C33554  12.561   6.473   2.922  0.8241  0.0117 -0.1648
  990MOL0     C33555  12.696   6.419   2.879  0.3536 -0.6064 -0.1294
  990MOL0     C33556  12.803   6.528   2.891  0.5807  0.5937  0.9508
  990MOL0     C33557  12.946   6.486   2.849  0.6872 -0.6761 -0.7386
  990MOL0     C33558  13.055   6.581   2.912  1.0014 -0.0366  0.3499
  990MOL0    Cl33559  13.047   6.758   2.861  0.6610  0.5774  0.5818
  990MOL0     C33560  11.930   6.343   2.718  0.1798 -0.7456 -0.9909
  990MOL0     C33561  11.803   6.304   2.677 -0.1448 -0.1219 -0.3981
  990MOL0     O33562  11.435   6.284   2.858 -0.6053  0.0352 -0.4748
  990MOL0     C33563  11.229   6.399   2.721 -0.7592  0.2454  0.7205
  990MOL0     C33564  11.121   6.434   2.652  0.1805 -0.3374 -0.1282
  990MOL0     N33565  10.764   6.698   1.944  0.4189  0.3921 -0.5642
  990MOL0     N33566  10.764   6.801   1.865 -0.8172  0.5205 -0.2739
  990MOL0     C33567   9.778   7.607   1.900  0.6965  0.0682 -0.0326
  990MOL0     C33568   9.639   7.611   1.902  0.4205  0.2869  0.4501
  990MOL0     C33569   9.215   7.638   2.082 -0.8585 -0.6389  0.0813
  990MOL0     C33570   9.174   7.513   2.134 -0.3754 -0.2257  0.1156
  990MOL0     C33571   9.048   7.489   2.189 -0.2354  0.3037 -0.2814
  990MOL0     C33572   8.954   7.589   2.176  0.0134 -0.4721  1.0202
  990MOL0     O33573   8.827   7.559   2.210 -0.1450  0.6470  0.7634
  990MOL0     C33574   8.774   7.554   2.343 -0.6024  0.5598 -0.3156
  990MOL0     C33575   8.622   7.566   2.343 -0.1543 -0.8564 -0.1346
  990MOL0     C33576   8.568   7.608   2.478  0.2282 -0.3593  0.4246
  990MOL0     C33577   8.436   7.693   2.477 -0.2909  0.5638  0.4565
  990MOL0     C33578   8.316   7.614   2.467 -0.5301  0.3675  0.2325
  990MOL0     C33579   8.218   7.547   2.464 -0.1350  0.7176 -0.1073
  990MOL0     C33580   8.981   7.702   2.106  0.7928  0.7076 -0.6751
  990MOL0     C33581   9.108   7.730   2.061  0.4478  0.8628  0.0640
  990MOL0     C33582   9.132   7.852   1.988  0.1557  0.2195 -0.2656
  990MOL0     H33583   9.589   7.434   2.188  1.1942 -1.7470 -0.3852
  990MOL0     H33584   9.824   7.439   2.194 -0.4239  0.6207  0.4072
  990MOL0     H33585  10.168   7.526   2.080  1.7497 -0.7872 -0.1674
  990MOL0     H33586  10.022   7.502   2.175 -0.6382 -2.4068 -0.0895
  990MOL0     H33587  10.007   7.279   2.012  0.6763  0.7082 -2.0364
  990MOL0     H33588  10.109   7.283   2.156 -1.6584 -0.7569 -0.0075
  990MOL0     H33589  10.299   7.359   2.029 -0.9618 -1.5641  1.0198
  990MOL0     H33590  10.210   7.381   1.881  0.2029  1.1868  0.7073
  990MOL0     H33591  10.264   7.103   2.017 -0.3125 -0.6330 -0.2718
  990MOL0     H33592  10.205   7.143   1.850 -0.6061  0.6342 -0.6075
  990MOL0     H33593  10.426   7.247   1.794 -0.2707 -0.4231 -0.4365
  990MOL0     H33594  10.464   7.234   1.968  0.1375 -1.3232  1.3238
  990MOL0     H33595  10.465   6.977   1.934  0.3014  0.7447  0.8717
  990MOL0     H33596  10.426   7.003   1.757  1.0576 -0.4344  1.1094
  990MOL0     H33597  10.633   7.166   1.759 -0.5048 -0.8003 -1.1769
  990MOL0     H33598  10.630   6.989   1.718  0.9443 -0.9819  0.0789
  990MOL0     H33599  10.814   7.068   1.841 -0.8405 -0.9815 -2.9643
  990MOL0     H33600  10.707   7.110   1.978 -2.1629 -0.3236 -0.0956
  990MOL0     H33601  10.658   6.938   2.135 -3.0559  1.9513 -2.6204
  990MOL0     H33602  10.615   6.668   2.251 -0.7320 -1.7693  0.0124
  990MOL0     H33603  10.678   6.543   2.145  0.7490 -0.3190  1.4903
  990MOL0     H33604  10.917   6.595   2.227 -0.7072 -3.9777  0.4610
  990MOL0     H33605  10.835   6.712   2.341  1.4305  0.8675 -1.7567
  990MOL0     H33606  10.786   6.418   2.302 -0.5369  2.5813 -3.8275
  990MOL0     H33607  10.674   6.513   2.406  0.5039  0.4258  2.4764
  990MOL0     H33608  10.832   6.415   2.555 -2.7905  2.6472 -0.3164
  990MOL0     H33609  10.889   6.576   2.545 -1.8659 -1.3382  3.3101
  990MOL0     H33610  11.198   6.296   2.361  1.1596 -0.7803 -0.0110
  990MOL0     H33611  11.407   6.244   2.473  0.6089  0.9421 -0.2577
  990MOL0     H33612  11.616   6.435   2.919 -0.4537  3.5046 -2.0511
  990MOL0     H33613  11.850   6.476   3.019  0.7873 -1.1083  1.3896
  990MOL0     H33614  12.177   6.279   2.884 -1.7589  0.3798 -1.4476
  990MOL0     H33615  12.216   6.401   2.760  2.7273 -1.8050  0.5582
  990MOL0     H33616  12.314   6.550   2.899 -1.8728 -0.3750 -1.9785
  990MOL0     H33617  12.301   6.455   3.048 -0.1777 -0.1020  0.3671
  990MOL0     H33618  12.448   6.286   2.982  2.7323  0.2335 -0.5428
  990MOL0     H33619  12.440   6.321   2.810  1.3796 -1.8061  1.0504
  990MOL0     H33620  12.560   6.516   3.023  2.8741 -0.6423  0.1787
  990MOL0     H33621  12.541   6.560   2.859  0.1731  1.1968  1.5823
  990MOL0     H33622  12.693   6.392   2.773 -0.2091  0.2139 -0.3289
  990MOL0     H33623  12.718   6.335   2.945 -1.7096 -1.2466 -0.1999
  990MOL0     H33624  12.774   6.612   2.827  1.8209  0.2855 -0.0550
  990MOL0     H33625  12.810   6.564   2.995 -0.4182  0.4052  1.0940
  990MOL0     H33626  12.951   6.475   2.740 -0.1605 -0.2393 -0.8301
  990MOL0     H33627  12.962   6.383   2.883  0.7177 -2.0171 -4.4134
  990MOL0     H33628  13.068   6.554   3.017 -0.7623 -4.8546 -0.4106
  990MOL0     H33629  13.145   6.547   2.861  0.9209  0.3539 -0.0572
  990MOL0     H33630  12.019   6.322   2.659  0.8604  1.7309 -0.9700
  990MOL0     H33631  11.802   6.267   2.575 -0.6417  0.4320 -0.5985
  990MOL0     H33632  11.233   6.418   2.828  1.9041  0.4537  0.6366
  990MOL0     H33633  11.041   6.488   2.702  1.4494  0.9250  0.5986
  990MOL0     H33634   9.830   7.655   1.817  1.3294 -0.8621 -0.1779
  990MOL0     H33635   9.588   7.668   1.825  0.3195  1.9519  1.6772
  990MOL0     H33636   9.246   7.432   2.144 -0.1586 -0.0246  0.1832
  990MOL0     H33637   9.019   7.402   2.246 -0.3059 -0.6099 -1.6822
  990MOL0     H33638   8.816   7.643   2.392 -0.6575  2.1660 -2.9626
  990MOL0     H33639   8.812   7.472   2.405 -1.3794 -1.0927 -1.9177
  990MOL0     H33640   8.570   7.473   2.317 -1.9545 -0.5093  1.9193
  990MOL0     H33641   8.598   7.648   2.275 -1.3204  0.2425  1.5210
  990MOL0     H33642   8.647   7.669   2.523 -1.0557  1.6149  0.1514
  990MOL0     H33643   8.541   7.523   2.542 -1.4723 -1.0762 -1.1472
  990MOL0     H33644   8.426   7.745   2.573 -1.5666  1.0916  0.0710
  990MOL0     H33645   8.435   7.767   2.395 -0.7035  1.3697  1.1709
  990MOL0     H33646   8.135   7.481   2.444  0.1711  0.3924 -0.3257
  990MOL0     H33647   8.901   7.774   2.093 -0.3284 -0.0429  1.5901
  990MOL0     H33648   9.040   7.898   1.950 -0.4201 -1.5790 -1.1189
  990MOL0     H33649   9.175   7.927   2.056  0.6571  1.6540 -2.0765
  990MOL0     H33650   9.196   7.834   1.901  1.1233 -4.6891  1.1527
  991MOL0     O33651   4.440   3.264   7.210  0.0749  0.8139  0.3834
  991MOL0     C33652   4.394   3.354   7.147  1.0264  0.0936 -0.3363
  991MOL0     O33653   4.457   3.472   7.114 -1.1071  0.5877 -0.4760
  991MOL0     C33654   4.589   3.484   7.158 -0.4353  0.4584 -0.3695
  991MOL0     C33655   4.625   3.497   7.293 -0.9239  0.2706 -0.2188
  991MOL0     C33656   4.760   3.511   7.325  0.1301 -0.2898  0.0938
  991MOL0     C33657   4.868   3.510   7.235  0.2336 -0.0448 -0.7985
  991MOL0     O33658   5.004   3.531   7.262  0.5231 -0.7049 -0.0912
  991MOL0     C33659   5.050   3.590   7.386 -0.0170  0.3907  0.9257
  991MOL0     C33660   5.193   3.656   7.367 -0.3625 -0.4291  1.1352
  991MOL0     C33661   5.297   3.552   7.324  0.6957 -0.6858  0.7516
  991MOL0     C33662   5.420   3.607   7.253 -0.2035  0.3127  0.8201
  991MOL0     C33663   5.517   3.661   7.367  0.9077  0.0664  0.0122
  991MOL0     C33664   5.645   3.721   7.300 -0.9232  0.0116 -0.4035
  991MOL0     C33665   5.741   3.767   7.409  0.4793 -0.2325 -0.2017
  991MOL0     C33666   5.887   3.727   7.384  0.1290  0.0598 -0.0298
  991MOL0     N33667   5.957   3.817   7.291 -0.2541 -0.0538  0.1081
  991MOL0     C33668   6.046   3.767   7.195  0.1294 -0.5115  0.6874
  991MOL0     C33669   6.070   3.870   7.113 -0.8768 -0.2349 -0.6747
  991MOL0     C33670   6.163   3.875   7.000  0.5076  1.2829 -0.2410
  991MOL0     C33671   6.309   3.919   7.014 -0.0914 -0.4925 -0.1676
  991MOL0     C33672   6.378   3.834   7.126  0.4072  0.2973 -0.6181
  991MOL0     C33673   6.535   3.853   7.126 -0.3543 -0.3883  0.4449
  991MOL0     O33674   6.574   3.985   7.168  0.3359  0.3469  0.2903
  991MOL0     C33675   6.704   4.021   7.190  0.2069 -0.0982  0.6677
  991MOL0     C33676   6.725   4.136   7.271  0.4549  0.1095  0.4601
  991MOL0     C33677   6.848   4.186   7.298 -0.2139 -0.6706  0.5725
  991MOL0     C33678   6.959   4.113   7.251 -0.3616  0.9205  0.2883
  991MOL0     C33679   7.097   4.167   7.291  0.6775  0.7157  0.5187
  991MOL0     O33680   7.109   4.261   7.397  0.1407 -0.7373  0.5295
  991MOL0     C33681   7.240   4.284   7.438  0.2750  0.3344 -0.0069
  991MOL0     C33682   7.310   4.397   7.403 -0.7683 -0.0311  0.4923
  991MOL0     C33683   7.441   4.416   7.444  0.6020 -0.8820 -0.5843
  991MOL0     C33684   7.512   4.320   7.525  0.1009  0.1663 -0.2035
  991MOL0     O33685   7.644   4.334   7.568 -0.0274  0.8255 -0.2342
  991MOL0     C33686   7.723   4.437   7.506  1.2237 -0.5848  0.4624
  991MOL0     C33687   7.862   4.421   7.539  0.1199 -0.4226  0.1565
  991MOL0     C33688   7.948   4.325   7.457  0.3704 -0.1870 -0.0286
  991MOL0     C33689   8.081   4.307   7.534  0.7885 -0.7262  0.0790
  991MOL0     C33690   8.187   4.247   7.442 -0.2194  0.3771  0.0362
  991MOL0     C33691   8.316   4.225   7.524 -0.1901  0.4442 -0.2507
  991MOL0     C33692   8.428   4.147   7.446  0.0597 -0.3181  0.6126
  991MOL0     C33693   8.547   4.145   7.537  0.6804  0.8402  0.0149
  991MOL0    Cl33694   8.540   4.040   7.691 -0.2327  0.0080 -0.0835
  991MOL0     C33695   7.436   4.203   7.553  0.5655 -0.5333  0.2243
  991MOL0     C33696   7.308   4.190   7.512  0.1094  0.0479  0.4262
  991MOL0     O33697   7.190   4.108   7.235 -0.6867 -0.3927 -0.4314
  991MOL0     C33698   6.939   3.992   7.182  0.0645 -0.0663  0.0095
  991MOL0     C33699   6.812   3.955   7.144 -0.6589  0.0545  0.2371
  991MOL0     N33700   6.002   3.981   7.158 -0.7118  1.1585 -0.3537
  991MOL0     N33701   5.938   3.948   7.261 -0.4383  0.0501  0.5033
  991MOL0     C33702   4.828   3.500   7.098  0.1644 -0.5206 -0.1300
  991MOL0     C33703   4.691   3.483   7.061  0.0715 -0.7091  0.1689
  991MOL0     C33704   4.256   3.348   7.109 -0.1563 -0.0438 -0.4650
  991MOL0     C33705   4.219   3.415   6.989  0.5940 -0.6839  1.0239
  991MOL0     C33706   4.083   3.429   6.946  0.2697  0.1659  0.1948
  991MOL0     C33707   3.982   3.374   7.028  0.2322  0.5640  0.9251
  991MOL0     O33708   3.845   3.391   7.009 -0.0405  0.0504  0.0986
  991MOL0     C33709   3.818   3.456   6.889  0.5748  0.3104  0.7027
  991MOL0     C33710   3.667   3.447   6.868  0.0159  0.0194  0.3457
  991MOL0     C33711   3.627   3.525   6.736 -0.5565 -0.0123  0.2099
  991MOL0     C33712   3.476   3.540   6.733 -0.0533 -0.2514  0.0924
  991MOL0     C33713   3.434   3.677   6.676 -0.3992 -0.3545  0.4971
  991MOL0     C33714   3.387   3.780   6.636 -0.2093  0.3866  0.7298
  991MOL0     C33715   4.014   3.299   7.138  0.6764 -0.0379 -0.1811
  991MOL0     C33716   4.154   3.285   7.180  0.8198  0.8101 -0.7241
  991MOL0     C33717   4.168   3.208   7.314  0.8507 -0.0910  0.0857
  991MOL0     H33718   4.549   3.496   7.370  0.0315 -0.6913  0.7407
  991MOL0     H33719   4.777   3.506   7.432  1.1075 -1.2348 -0.0899
  991MOL0     H33720   4.979   3.665   7.422  0.8412  2.1689 -0.9263
  991MOL0     H33721   5.049   3.505   7.455 -0.0734  0.6098  1.1903
  991MOL0     H33722   5.232   3.692   7.463  2.1844 -2.4257  0.9480
  991MOL0     H33723   5.180   3.732   7.289 -1.4451 -1.0485  0.6797
  991MOL0     H33724   5.236   3.491   7.256 -0.8768  1.8894 -0.2902
  991MOL0     H33725   5.311   3.487   7.411 -0.3218  0.7439  2.0181
  991MOL0     H33726   5.474   3.526   7.201  0.0708  0.3124  1.1017
  991MOL0     H33727   5.379   3.685   7.189 -2.0387  0.6470  2.3391
  991MOL0     H33728   5.460   3.742   7.413  2.0044  0.1668  1.2584
  991MOL0     H33729   5.544   3.586   7.442  0.9309  0.3893  0.3306
  991MOL0     H33730   5.695   3.639   7.247 -0.7920 -0.1751  0.0136
  991MOL0     H33731   5.619   3.808   7.239 -0.6684  0.7904  0.5894
  991MOL0     H33732   5.707   3.730   7.506  1.8694 -0.0955  0.3613
  991MOL0     H33733   5.733   3.875   7.427 -1.2675 -0.2198 -0.8611
  991MOL0     H33734   5.936   3.721   7.481  4.0427  1.2992 -1.7298
  991MOL0     H33735   5.885   3.628   7.336 -1.5065 -0.7150  1.5197
  991MOL0     H33736   6.099   3.672   7.202  3.5883  1.0794 -1.6290
  991MOL0     H33737   6.160   3.778   6.949 -0.5526  0.6420  0.9707
  991MOL0     H33738   6.106   3.935   6.928  2.2277  1.1142 -1.8144
  991MOL0     H33739   6.355   3.908   6.915  0.6984 -0.8189  0.2221
  991MOL0     H33740   6.309   4.024   7.048 -0.2070 -0.5898  0.1374
  991MOL0     H33741   6.359   3.728   7.104 -0.8723  0.4118 -0.1355
  991MOL0     H33742   6.332   3.855   7.223 -3.5492 -0.1367 -2.1947
  991MOL0     H33743   6.579   3.827   7.030  0.4477  1.2991  0.3245
  991MOL0     H33744   6.587   3.788   7.197 -0.0521  0.5709  1.1218
  991MOL0     H33745   6.635   4.188   7.301  1.5232  0.7023  2.9419
  991MOL0     H33746   6.861   4.275   7.359 -1.7574 -1.0424  1.4948
  991MOL0     H33747   7.267   4.474   7.340  0.8601  1.2402  0.8606
  991MOL0     H33748   7.484   4.506   7.402 -1.2832  0.1141 -0.4831
  991MOL0     H33749   7.708   4.443   7.397  1.9759  0.6158  0.4081
  991MOL0     H33750   7.684   4.534   7.539  1.6293  0.9185 -2.9796
  991MOL0     H33751   7.909   4.520   7.538 -0.0935 -0.1939 -3.8128
  991MOL0     H33752   7.868   4.391   7.644 -1.4338 -0.0726  0.3761
  991MOL0     H33753   7.900   4.227   7.449 -1.3432  0.3698  2.3246
  991MOL0     H33754   7.964   4.377   7.362 -2.1192  0.3289 -0.2396
  991MOL0     H33755   8.061   4.248   7.624 -0.8850  1.6431  1.3621
  991MOL0     H33756   8.113   4.406   7.569 -2.2484  0.2581  0.3188
  991MOL0     H33757   8.212   4.315   7.361  3.1496  0.0495  0.6474
  991MOL0     H33758   8.150   4.157   7.392  0.2443 -0.5026  1.2246
  991MOL0     H33759   8.346   4.323   7.563 -2.7323  1.0733  0.2724
  991MOL0     H33760   8.282   4.163   7.608 -0.7064  2.3113  0.9667
  991MOL0     H33761   8.460   4.199   7.355  0.6571 -0.3048  0.8233
  991MOL0     H33762   8.386   4.049   7.422  2.7492 -1.7428  1.2718
  991MOL0     H33763   8.634   4.109   7.481 -1.2861 -4.2922 -0.3366
  991MOL0     H33764   8.556   4.248   7.572  0.5004  0.9650 -0.3039
  991MOL0     H33765   7.489   4.129   7.613  0.5815  1.6414  3.1320
  991MOL0     H33766   7.255   4.103   7.550 -1.0593  0.3456 -0.4499
  991MOL0     H33767   7.025   3.941   7.141  1.6896  0.1941  2.8097
  991MOL0     H33768   6.801   3.883   7.064  0.4009  1.5351 -1.3032
  991MOL0     H33769   4.908   3.485   7.026 -0.2023 -2.5798 -0.1871
  991MOL0     H33770   4.676   3.465   6.955  1.9469 -0.5084 -0.1566
  991MOL0     H33771   4.285   3.457   6.913 -1.4456 -1.0874 -1.0938
  991MOL0     H33772   4.066   3.471   6.847 -2.4346  0.2233  0.5921
  991MOL0     H33773   3.872   3.403   6.810  1.3810  0.4009  1.1753
  991MOL0     H33774   3.842   3.563   6.887 -0.5340  0.5905  1.3838
  991MOL0     H33775   3.615   3.492   6.954  0.5843  0.3686  0.5142
  991MOL0     H33776   3.628   3.345   6.870 -1.9687  0.7362  0.2502
  991MOL0     H33777   3.657   3.453   6.658 -0.9061 -0.4547  0.4776
  991MOL0     H33778   3.683   3.617   6.717 -0.3272 -0.5656 -2.1582
  991MOL0     H33779   3.436   3.457   6.675 -0.8162 -1.6667  2.5366
  991MOL0     H33780   3.437   3.537   6.835  0.7025 -0.5365  0.3787
  991MOL0     H33781   3.345   3.859   6.576  0.8558 -0.2320 -0.8956
  991MOL0     H33782   3.934   3.256   7.197  0.6659 -1.5193 -1.2312
  991MOL0     H33783   4.198   3.104   7.300 -1.4553 -0.7394 -0.4114
  991MOL0     H33784   4.228   3.266   7.386 -1.5731 -0.3754  2.5268
  991MOL0     H33785   4.068   3.200   7.359  0.1822  0.0934 -1.3242
  992MOL0     O33786   7.605   2.977   4.685 -0.5746 -0.7592  0.0860
  992MOL0     C33787   7.551   3.033   4.592 -0.5567 -1.1764 -0.5089
  992MOL0     O33788   7.612   3.109   4.505  0.3388  0.0849 -0.0351
  992MOL0     C33789   7.751   3.111   4.488  0.2705 -0.4809  0.0454
  992MOL0     C33790   7.833   2.994   4.509  0.8398  0.9968  0.5450
  992MOL0     C33791   7.972   3.004   4.490 -0.2589  0.5715  0.8902
  992MOL0     C33792   8.039   3.120   4.445 -0.3578  0.9260 -0.2805
  992MOL0     O33793   8.162   3.113   4.383 -0.4932 -0.8511  0.3749
  992MOL0     C33794   8.260   3.009   4.396 -0.0537  0.5450 -0.2742
  992MOL0     C33795   8.315   2.984   4.534 -0.2326  0.4454 -0.5100
  992MOL0     C33796   8.375   3.105   4.595  0.4291 -0.0761  0.4079
  992MOL0     C33797   8.477   3.068   4.707 -0.3484 -0.1536  0.2891
  992MOL0     C33798   8.607   3.024   4.635  0.1645  0.2495 -0.7114
  992MOL0     C33799   8.721   3.010   4.740 -0.0146  0.4018  0.9821
  992MOL0     C33800   8.852   2.964   4.678  0.2761  0.5394  0.4065
  992MOL0     C33801   8.953   2.949   4.788 -0.7273  0.4086 -0.7876
  992MOL0     N33802   9.090   2.931   4.739 -0.2294  0.1006 -0.6027
  992MOL0     C33803   9.194   3.024   4.753  0.1704  0.3957 -0.3789
  992MOL0     C33804   9.292   2.972   4.670  0.0630 -0.1978 -0.7831
  992MOL0     C33805   9.433   3.027   4.656 -0.4954  0.3005 -0.0060
  992MOL0     C33806   9.474   3.051   4.508 -0.1833  0.9517  0.0650
  992MOL0     C33807   9.365   3.137   4.444  0.0152 -0.4236  0.5208
  992MOL0     C33808   9.405   3.194   4.302  0.6404 -0.0656 -0.2529
  992MOL0     O33809   9.315   3.302   4.273 -0.3080 -0.7790 -0.8091
  992MOL0     C33810   9.225   3.279   4.180 -0.3681  0.0376  0.2808
  992MOL0     C33811   9.175   3.399   4.127 -0.4965 -0.2463 -0.5584
  992MOL0     C33812   9.072   3.399   4.033  0.5985  0.5294  1.1745
  992MOL0     C33813   9.012   3.282   3.996  0.3125 -0.0996  0.2812
  992MOL0     C33814   8.915   3.274   3.886  0.2639 -0.1657  0.4853
  992MOL0     O33815   8.891   3.151   3.827  0.3628 -0.7103 -0.3678
  992MOL0     C33816   8.791   3.124   3.747  0.0971  0.1818 -0.1286
  992MOL0     C33817   8.792   2.997   3.677 -0.5209 -0.2054  0.6896
  992MOL0     C33818   8.697   2.966   3.579 -0.5298 -0.1086  0.7254
  992MOL0     C33819   8.600   3.054   3.540  0.7365  1.0468 -0.7639
  992MOL0     O33820   8.509   3.006   3.454 -0.6969 -0.0577  0.0644
  992MOL0     C33821   8.395   3.081   3.411 -1.2560  0.1252 -0.6167
  992MOL0     C33822   8.284   3.040   3.504  0.1031  0.0662  0.1457
  992MOL0     C33823   8.229   2.903   3.475 -0.3098  0.4202 -0.3587
  992MOL0     C33824   8.082   2.877   3.543 -0.5353 -0.1512 -0.7007
  992MOL0     C33825   8.046   2.729   3.571 -0.4137  0.1739  0.3583
  992MOL0     C33826   8.124   2.657   3.677  1.0549 -0.5658  0.5492
  992MOL0     C33827   8.097   2.707   3.816  0.8465 -0.1166 -0.1062
  992MOL0     C33828   8.139   2.607   3.922  0.8655  0.5022  0.3900
  992MOL0    Cl33829   8.049   2.651   4.069  0.4235 -0.1657  0.1246
  992MOL0     C33830   8.593   3.176   3.610  0.1616 -0.0895  0.2292
  992MOL0     C33831   8.685   3.203   3.712 -0.6710  0.0089 -0.0439
  992MOL0     O33832   8.862   3.379   3.850 -0.3919  0.0002 -0.2890
  992MOL0     C33833   9.056   3.158   4.053 -0.1125  0.6991 -0.3184
  992MOL0     C33834   9.164   3.161   4.148  0.3109  0.4077  0.0103
  992MOL0     N33835   9.238   2.864   4.595 -0.2960  0.3072  0.4596
  992MOL0     N33836   9.125   2.838   4.640 -0.0835  0.0464  0.3321
  992MOL0     C33837   7.953   3.230   4.433  0.8550  0.1543  0.5398
  992MOL0     C33838   7.813   3.228   4.460 -0.1050  0.8057 -0.6388
  992MOL0     C33839   7.403   3.045   4.589  0.0382 -0.4043 -0.4211
  992MOL0     C33840   7.352   3.153   4.518  0.2570  0.1004 -0.5553
  992MOL0     C33841   7.211   3.163   4.513 -0.3215  0.1299  0.1410
  992MOL0     C33842   7.127   3.082   4.592 -0.4693  0.2313  0.6019
  992MOL0     O33843   6.991   3.089   4.608 -0.1802  1.0168  0.2189
  992MOL0     C33844   6.927   3.194   4.529  0.6530  1.0443 -0.1410
  992MOL0     C33845   6.791   3.217   4.591  0.9721 -0.3427  0.7774
  992MOL0     C33846   6.712   3.328   4.517 -0.3916  0.0746 -0.1297
  992MOL0     C33847   6.566   3.322   4.573 -0.3161 -0.1047  0.2584
  992MOL0     C33848   6.501   3.193   4.539 -0.0580 -0.4224 -0.2595
  992MOL0     C33849   6.441   3.089   4.521 -0.5296 -0.4017  0.0847
  992MOL0     C33850   7.190   2.976   4.662  1.0101 -0.4316  0.2068
  992MOL0     C33851   7.321   2.952   4.661  0.0729  0.1423  0.3329
  992MOL0     C33852   7.362   2.835   4.740  1.0041  0.1105  0.0360
  992MOL0     H33853   7.793   2.898   4.541  0.9425  1.5009  2.2824
  992MOL0     H33854   8.038   2.918   4.483 -1.6463 -0.3961 -2.3705
  992MOL0     H33855   8.199   2.921   4.370  0.9577 -0.5034  0.7755
  992MOL0     H33856   8.344   3.014   4.326  0.4977 -0.6837  0.2597
  992MOL0     H33857   8.393   2.907   4.525  3.0454  3.4287  0.2598
  992MOL0     H33858   8.233   2.945   4.595  1.7132 -0.1276  1.9233
  992MOL0     H33859   8.300   3.178   4.629 -1.3101 -2.0581  1.0502
  992MOL0     H33860   8.431   3.157   4.517  0.2659  3.0548  2.2331
  992MOL0     H33861   8.502   3.165   4.751 -0.0264  0.7537 -1.7739
  992MOL0     H33862   8.429   2.998   4.776 -0.7149  1.1248  1.3674
  992MOL0     H33863   8.596   2.933   4.575  1.6466  0.7003 -1.7282
  992MOL0     H33864   8.647   3.107   4.576  0.6997 -0.5164 -1.4409
  992MOL0     H33865   8.739   3.109   4.784  0.6487  0.7495 -0.0354
  992MOL0     H33866   8.682   2.947   4.820 -0.4513  2.6514  2.6543
  992MOL0     H33867   8.897   3.033   4.606 -2.0910  1.4982 -0.2382
  992MOL0     H33868   8.834   2.867   4.630  3.7239  0.2628 -0.5804
  992MOL0     H33869   8.952   3.032   4.860  0.3552 -1.8726  2.0712
  992MOL0     H33870   8.920   2.859   4.840 -1.3004  1.6642  1.1075
  992MOL0     H33871   9.197   3.103   4.826 -5.9801 -1.4845  2.6053
  992MOL0     H33872   9.439   3.130   4.694  1.9307  0.2836 -0.1857
  992MOL0     H33873   9.504   2.967   4.713 -1.8125 -1.7029 -0.3995
  992MOL0     H33874   9.563   3.114   4.499  1.0195 -0.1080  3.2549
  992MOL0     H33875   9.489   2.959   4.450  1.0868  2.3476 -1.9589
  992MOL0     H33876   9.350   3.217   4.517 -2.1414 -0.8312  0.5890
  992MOL0     H33877   9.269   3.086   4.434  0.0619 -0.2032 -1.4840
  992MOL0     H33878   9.404   3.110   4.233 -1.5551 -0.5402  0.2779
  992MOL0     H33879   9.502   3.243   4.298  2.4725 -3.0853  2.5554
  992MOL0     H33880   9.227   3.489   4.154  1.5600 -1.9561  1.5667
  992MOL0     H33881   9.041   3.490   3.983 -2.5166 -0.8344  0.3733
  992MOL0     H33882   8.865   2.921   3.705  0.1092 -0.1206 -0.6612
  992MOL0     H33883   8.695   2.863   3.544  0.7583 -0.0609  0.4921
  992MOL0     H33884   8.419   3.188   3.408 -2.4621  0.4498  0.5321
  992MOL0     H33885   8.375   3.046   3.310  0.7446 -0.3276 -0.9026
  992MOL0     H33886   8.324   3.054   3.605 -1.9201  2.1131  0.7487
  992MOL0     H33887   8.196   3.104   3.497 -1.6738 -2.1486  1.0225
  992MOL0     H33888   8.223   2.889   3.367 -1.2103 -2.2916 -0.0162
  992MOL0     H33889   8.304   2.829   3.505 -2.7084 -1.7224  0.6717
  992MOL0     H33890   8.006   2.918   3.477 -0.6332  0.6328 -0.1020
  992MOL0     H33891   8.089   2.930   3.639 -0.4912 -2.8516  0.8978
  992MOL0     H33892   8.063   2.683   3.474 -2.1330  2.1578 -0.9959
  992MOL0     H33893   7.937   2.718   3.581 -0.6151 -0.3713 -1.9108
  992MOL0     H33894   8.090   2.553   3.678 -0.5391 -0.2187  5.1086
  992MOL0     H33895   8.229   2.666   3.646  0.8653 -0.2380 -0.0085
  992MOL0     H33896   7.988   2.720   3.819  0.5668 -2.2834  0.7464
  992MOL0     H33897   8.140   2.807   3.826 -1.2318  1.1694 -2.6211
  992MOL0     H33898   8.110   2.506   3.891 -1.2967  0.7133  1.5503
  992MOL0     H33899   8.247   2.615   3.938  0.8627 -0.7332  1.1617
  992MOL0     H33900   8.509   3.245   3.599 -0.8673 -1.3267  0.0482
  992MOL0     H33901   8.663   3.294   3.766  0.1864 -0.4731  1.1794
  992MOL0     H33902   9.019   3.063   4.017  0.8564  0.0996  0.2316
  992MOL0     H33903   9.208   3.073   4.194 -0.3930  0.1548  0.2126
  992MOL0     H33904   8.003   3.314   4.386 -2.3951  1.3234 -1.0753
  992MOL0     H33905   7.756   3.320   4.457  0.6715  1.3977  1.3110
  992MOL0     H33906   7.410   3.225   4.461  3.8518 -1.0599  1.3820
  992MOL0     H33907   7.167   3.247   4.460 -0.4681  1.0482  1.6483
  992MOL0     H33908   6.911   3.166   4.425  2.4268  1.7310 -0.6352
  992MOL0     H33909   6.981   3.289   4.521  0.9949  0.8173 -0.5745
  992MOL0     H33910   6.812   3.247   4.694  2.8737  1.1146  0.0365
  992MOL0     H33911   6.738   3.121   4.590 -1.7382  1.0166  2.4655
  992MOL0     H33912   6.712   3.313   4.409 -3.0414  1.1515 -0.3645
  992MOL0     H33913   6.764   3.420   4.546 -2.7577  0.6095  3.1329
  992MOL0     H33914   6.563   3.345   4.680 -0.0314  1.2613 -0.0036
  992MOL0     H33915   6.505   3.401   4.528 -0.6555 -0.5450 -0.0678
  992MOL0     H33916   6.381   3.002   4.503  1.0236 -1.9396  1.8452
  992MOL0     H33917   7.119   2.916   4.719  1.0539 -0.9282 -0.2578
  992MOL0     H33918   7.284   2.761   4.759  0.7614  0.3492 -0.0165
  992MOL0     H33919   7.441   2.770   4.701  1.5289 -1.3086  3.1653
  992MOL0     H33920   7.414   2.873   4.829  0.5159 -0.6874  0.6820
  993MOL0     O33921   8.182   2.869   0.762  0.5853 -0.3787  0.2164
  993MOL0     C33922   8.152   2.931   0.861 -0.2446  0.7769 -0.3115
  993MOL0     O33923   8.238   2.991   0.949  0.1058  0.5256 -0.4062
  993MOL0     C33924   8.373   2.966   0.927 -0.1019  0.5129 -1.0128
  993MOL0     C33925   8.431   2.841   0.895 -0.8305 -0.0343 -0.2033
  993MOL0     C33926   8.572   2.821   0.898  0.4430  0.1397 -0.3847
  993MOL0     C33927   8.657   2.929   0.922 -0.1252 -0.1044  0.0926
  993MOL0     O33928   8.793   2.905   0.916 -0.1784 -0.1954 -0.4852
  993MOL0     C33929   8.886   3.016   0.948  0.5438  1.0903 -0.1379
  993MOL0     C33930   9.030   2.964   0.951  0.2769  0.4578  0.2203
  993MOL0     C33931   9.062   2.865   0.836 -0.0059  0.1977 -0.0265
  993MOL0     C33932   9.220   2.842   0.827  0.6717  0.4745  0.1211
  993MOL0     C33933   9.278   2.757   0.942 -0.8060 -0.6806  0.1252
  993MOL0     C33934   9.429   2.731   0.928  0.4145 -0.2395  0.2125
  993MOL0     C33935   9.495   2.708   1.067  0.0320  1.0842 -0.1776
  993MOL0     C33936   9.652   2.736   1.065  0.0069  0.3232  0.0787
  993MOL0     N33937   9.724   2.727   1.190 -0.0043 -0.1507 -0.3127
  993MOL0     C33938   9.741   2.612   1.260  0.0856  0.6924  0.1771
  993MOL0     C33939   9.819   2.641   1.365 -0.5218 -0.1980 -0.7359
  993MOL0     C33940   9.863   2.530   1.476  0.7321 -0.2352 -0.4196
  993MOL0     C33941  10.010   2.488   1.467 -0.3415  0.5092  0.1992
  993MOL0     C33942  10.041   2.400   1.340 -0.0382 -1.0278  0.1608
  993MOL0     C33943  10.177   2.363   1.287 -0.5312  0.2906 -0.5701
  993MOL0     O33944  10.261   2.314   1.388  0.1112 -0.2561 -0.5332
  993MOL0     C33945  10.385   2.262   1.347  0.0763 -0.4935 -0.2394
  993MOL0     C33946  10.503   2.327   1.375 -0.2322 -0.7891  0.7403
  993MOL0     C33947  10.627   2.270   1.325  0.0842  0.6345  0.0875
  993MOL0     C33948  10.631   2.153   1.237 -0.1086 -0.5878 -1.1654
  993MOL0     C33949  10.768   2.110   1.200 -0.9017 -0.4431 -0.3258
  993MOL0     O33950  10.884   2.164   1.251  0.3552  0.3256  0.6142
  993MOL0     C33951  11.000   2.101   1.215  0.0176 -0.2409  0.6864
  993MOL0     C33952  11.113   2.190   1.196  0.0664  0.4692 -0.0558
  993MOL0     C33953  11.233   2.140   1.147  0.3794  0.7893 -0.1361
  993MOL0     C33954  11.246   2.001   1.131 -0.3653 -0.5851 -0.8022
  993MOL0     O33955  11.368   1.959   1.086  0.3998 -0.1277  0.3011
  993MOL0     C33956  11.391   1.817   1.056 -0.3171  0.5895 -0.7516
  993MOL0     C33957  11.540   1.780   1.011 -0.5431 -0.2114  0.0754
  993MOL0     C33958  11.590   1.867   0.892 -0.3161  0.1406  0.2636
  993MOL0     C33959  11.730   1.818   0.847 -0.0140 -0.5482  0.0142
  993MOL0     C33960  11.787   1.917   0.745 -0.2730  0.3111 -0.0997
  993MOL0     C33961  11.914   1.861   0.675 -0.7348 -1.2251 -0.1628
  993MOL0     C33962  11.993   1.766   0.768  0.7575  0.3935 -0.6440
  993MOL0     C33963  12.131   1.729   0.700  0.1014 -0.3084 -0.6485
  993MOL0    Cl33964  12.253   1.707   0.816 -0.1599  0.1284 -0.0738
  993MOL0     C33965  11.139   1.909   1.156 -0.3867  0.5623  0.0931
  993MOL0     C33966  11.021   1.964   1.197  0.3938 -0.6615  0.7107
  993MOL0     O33967  10.762   2.025   1.114 -0.1607 -0.1302 -0.2185
  993MOL0     C33968  10.510   2.098   1.209  0.7054 -0.5425  0.4206
  993MOL0     C33969  10.393   2.149   1.267 -0.2415  0.7623 -0.3333
  993MOL0     N33970   9.851   2.777   1.360 -0.3309  0.2857  0.3250
  993MOL0     N33971   9.792   2.825   1.258  0.9290  0.2029  0.6723
  993MOL0     C33972   8.598   3.065   0.940  0.0938 -0.5805 -0.0980
  993MOL0     C33973   8.458   3.078   0.940 -0.6607 -0.4891  0.0034
  993MOL0     C33974   8.009   2.957   0.883 -0.4249  0.5480  0.3119
  993MOL0     C33975   7.985   3.064   0.972 -0.1428  0.6402  0.1495
  993MOL0     C33976   7.854   3.085   1.010 -0.8006  0.6956  0.5163
  993MOL0     C33977   7.742   3.015   0.971  0.1132  0.5056  0.3534
  993MOL0     O33978   7.615   3.047   1.019 -0.4215 -0.0043 -0.0597
  993MOL0     C33979   7.500   2.977   0.970 -0.2287  0.8181 -0.6799
  993MOL0     C33980   7.390   3.011   1.064  0.6212 -0.3389  0.2363
  993MOL0     C33981   7.243   2.961   1.044 -0.2446  0.3834  0.7843
  993MOL0     C33982   7.191   3.005   0.912  0.1245  0.0022  0.4896
  993MOL0     C33983   7.043   3.017   0.911  0.4686  0.4001  0.0915
  993MOL0     C33984   6.923   3.038   0.910  0.7061 -0.1623 -0.0391
  993MOL0     C33985   7.773   2.907   0.892  0.2274 -0.1090  0.1354
  993MOL0     C33986   7.899   2.875   0.844  0.8018  0.0481 -0.3078
  993MOL0     C33987   7.913   2.748   0.763  0.1495 -0.5889  0.6496
  993MOL0     H33988   8.363   2.756   0.892  0.4304 -1.0452 -1.9038
  993MOL0     H33989   8.611   2.725   0.867 -0.1791 -0.4101  0.4874
  993MOL0     H33990   8.882   3.091   0.869  1.3051 -0.3327 -1.5866
  993MOL0     H33991   8.856   3.057   1.044  1.2474  1.5086 -0.0965
  993MOL0     H33992   9.059   2.914   1.044 -0.0968 -1.9198 -0.8666
  993MOL0     H33993   9.092   3.054   0.954  2.4009 -0.9621  1.1980
  993MOL0     H33994   9.019   2.892   0.739 -1.2340 -0.1865  0.3946
  993MOL0     H33995   9.026   2.763   0.854  3.8437 -1.3428  0.0606
  993MOL0     H33996   9.238   2.781   0.738  2.3146  0.4099  0.4663
  993MOL0     H33997   9.271   2.938   0.826  1.4145  0.0878 -0.7950
  993MOL0     H33998   9.261   2.813   1.035 -0.4411  0.3367 -0.4017
  993MOL0     H33999   9.239   2.656   0.952  1.2444 -1.5179  0.1203
  993MOL0     H34000   9.442   2.646   0.861 -1.1818 -1.0777  0.8997
  993MOL0     H34001   9.474   2.823   0.890 -1.8243  1.0714  0.5389
  993MOL0     H34002   9.477   2.605   1.100 -0.7050  0.1431 -3.2274
  993MOL0     H34003   9.453   2.781   1.137  2.5530  2.8861 -0.3778
  993MOL0     H34004   9.712   2.670   1.003  0.9376  0.5897  0.6744
  993MOL0     H34005   9.655   2.839   1.027 -1.2425 -0.4018 -2.2157
  993MOL0     H34006   9.719   2.509   1.232 -0.5075  0.7255  0.5068
  993MOL0     H34007   9.848   2.594   1.564  2.4847 -0.4493  0.0805
  993MOL0     H34008   9.791   2.448   1.485  0.4753  0.0004 -0.3003
  993MOL0     H34009  10.071   2.578   1.456  0.5182 -0.1777 -0.7835
  993MOL0     H34010  10.039   2.435   1.558 -0.3473  0.3734  0.1224
  993MOL0     H34011   9.990   2.446   1.255 -0.9200 -0.7929  0.8008
  993MOL0     H34012  10.000   2.300   1.357  0.3490 -1.1169  0.5741
  993MOL0     H34013  10.218   2.451   1.238 -1.3162 -0.0824 -1.9308
  993MOL0     H34014  10.170   2.301   1.197 -0.0350 -1.7228  0.6946
  993MOL0     H34015  10.509   2.419   1.433  1.3602  1.2475 -2.3800
  993MOL0     H34016  10.714   2.324   1.361  2.6444 -2.0923 -1.6280
  993MOL0     H34017  11.109   2.298   1.200 -4.0159  0.4644  2.6326
  993MOL0     H34018  11.308   2.214   1.123 -0.0616  1.4994  0.6102
  993MOL0     H34019  11.362   1.756   1.142  1.4540 -2.4339 -2.1562
  993MOL0     H34020  11.320   1.786   0.979 -3.5698  0.7437  1.9458
  993MOL0     H34021  11.600   1.786   1.102  0.8558 -4.7355 -0.3011
  993MOL0     H34022  11.545   1.675   0.981 -1.9120 -0.6705  1.3149
  993MOL0     H34023  11.520   1.873   0.808 -0.3365 -0.0816  0.2635
  993MOL0     H34024  11.597   1.972   0.924 -2.1418  0.3231  0.2143
  993MOL0     H34025  11.714   1.725   0.791 -2.0021  0.0992 -0.5770
  993MOL0     H34026  11.795   1.802   0.933  0.6433  0.5096 -0.2590
  993MOL0     H34027  11.822   2.006   0.798  0.6545  0.7085 -1.3122
  993MOL0     H34028  11.710   1.951   0.675 -2.1061  3.1431  3.0124
  993MOL0     H34029  11.882   1.810   0.583 -2.6483  0.2601 -0.3955
  993MOL0     H34030  11.976   1.947   0.648 -3.0572  0.9999  1.0655
  993MOL0     H34031  11.933   1.675   0.768  1.0539  0.1941 -0.4191
  993MOL0     H34032  12.002   1.803   0.870 -1.1829 -0.6494 -0.0422
  993MOL0     H34033  12.121   1.643   0.633  0.3296 -2.0749  1.4662
  993MOL0     H34034  12.157   1.813   0.635  0.8892  0.7587  0.9925
  993MOL0     H34035  11.148   1.802   1.143  0.9575  0.3210  2.5098
  993MOL0     H34036  10.950   1.886   1.224  0.9098 -0.7360  1.9440
  993MOL0     H34037  10.504   2.016   1.139  1.7243 -0.7206  0.5212
  993MOL0     H34038  10.295   2.106   1.258  0.4544 -1.0214  0.2736
  993MOL0     H34039   8.655   3.155   0.962  0.0436 -0.6415  0.2775
  993MOL0     H34040   8.419   3.174   0.974  0.9518  0.1457  0.1897
  993MOL0     H34041   8.064   3.121   1.020 -0.9156  2.7378 -0.9010
  993MOL0     H34042   7.833   3.163   1.081 -0.2041  0.6437  0.7572
  993MOL0     H34043   7.511   2.869   0.986  2.5242  1.0065 -0.8664
  993MOL0     H34044   7.470   3.010   0.871 -1.0293 -0.6548 -0.9577
  993MOL0     H34045   7.378   3.120   1.067  1.4613 -0.1704 -1.3775
  993MOL0     H34046   7.422   2.987   1.166  0.0282  2.0795  1.0557
  993MOL0     H34047   7.170   3.003   1.113 -1.0936  0.1551  0.0446
  993MOL0     H34048   7.233   2.852   1.052  1.4898  0.0229 -1.0988
  993MOL0     H34049   7.235   3.100   0.882 -1.4488  0.9751  1.1609
  993MOL0     H34050   7.229   2.926   0.847  0.0376  0.6989 -0.4145
  993MOL0     H34051   6.818   3.057   0.912  0.8658  0.6867  0.5765
  993MOL0     H34052   7.699   2.837   0.854 -1.5162  1.5528  0.3161
  993MOL0     H34053   7.898   2.752   0.654  0.6131 -0.6403  0.5833
  993MOL0     H34054   8.009   2.701   0.785 -0.4097 -2.3466 -0.4310
  993MOL0     H34055   7.839   2.672   0.792 -0.6022  0.3646  1.2879
  994MOL0     O34056   3.295   0.473   8.881 -0.2246 -0.5666 -0.0376
  994MOL0     C34057   3.270   0.409   8.780 -0.7097  0.0530 -0.6642
  994MOL0     O34058   3.377   0.362   8.703 -0.3906  0.5090 -0.0931
  994MOL0     C34059   3.503   0.379   8.757  0.2956 -0.4572 -0.1522
  994MOL0     C34060   3.598   0.464   8.697 -0.3222  0.1082  0.7674
  994MOL0     C34061   3.728   0.474   8.735  0.6939 -0.6626  0.1180
  994MOL0     C34062   3.764   0.397   8.835  0.1384  0.9773 -0.0294
  994MOL0     O34063   3.893   0.412   8.883  0.0049  0.4161  1.4019
  994MOL0     C34064   4.007   0.401   8.795 -0.3700 -0.9282  0.2357
  994MOL0     C34065   4.008   0.263   8.734  0.3604  1.0197 -0.1553
  994MOL0     C34066   4.130   0.238   8.637 -0.5862 -0.2746 -0.2327
  994MOL0     C34067   4.247   0.342   8.643  1.3197  0.4090 -0.5955
  994MOL0     C34068   4.367   0.296   8.554 -0.0422 -0.1839  0.0288
  994MOL0     C34069   4.489   0.390   8.580 -0.4720  0.5419  0.1828
  994MOL0     C34070   4.612   0.330   8.528  1.0357  0.4535  0.2092
  994MOL0     C34071   4.702   0.423   8.453 -0.1446  0.9289  0.1796
  994MOL0     N34072   4.757   0.518   8.542  0.0652 -0.8503 -0.9030
  994MOL0     C34073   4.830   0.495   8.657 -0.6077  0.2095  0.5591
  994MOL0     C34074   4.887   0.609   8.691 -0.9327 -0.5053 -0.7806
  994MOL0     C34075   4.975   0.615   8.821 -0.2957  0.4537  0.6462
  994MOL0     C34076   5.126   0.636   8.784  0.0848  1.1632  0.0695
  994MOL0     C34077   5.153   0.773   8.729 -0.4781 -0.4777  0.1556
  994MOL0     C34078   5.297   0.798   8.714 -0.2354  0.5076 -0.1311
  994MOL0     O34079   5.332   0.922   8.651  0.2788  0.7474  0.2875
  994MOL0     C34080   5.463   0.960   8.650  0.2771 -0.7145  0.8466
  994MOL0     C34081   5.570   0.878   8.675  0.1180 -0.4739  0.2974
  994MOL0     C34082   5.698   0.926   8.660 -0.1111  0.1230 -0.0024
  994MOL0     C34083   5.724   1.052   8.599  0.8033  0.8440  0.1241
  994MOL0     C34084   5.864   1.099   8.560  0.7818  0.0197 -0.3348
  994MOL0     O34085   5.968   1.024   8.609  0.0125  0.5400  0.5691
  994MOL0     C34086   6.090   1.087   8.596 -0.2742 -0.0563  0.2054
  994MOL0     C34087   6.197   1.020   8.537  0.2388  0.2186  0.8303
  994MOL0     C34088   6.332   1.062   8.547 -0.5051 -0.4823  0.6366
  994MOL0     C34089   6.361   1.182   8.607  0.0410  0.3509  0.0306
  994MOL0     O34090   6.491   1.242   8.604  0.1223 -0.4965  0.0639
  994MOL0     C34091   6.584   1.212   8.505 -0.2467 -0.3927  0.1458
  994MOL0     C34092   6.674   1.103   8.564 -0.4238 -0.7767  0.5369
  994MOL0     C34093   6.804   1.064   8.477 -0.1177 -0.2872 -0.4465
  994MOL0     C34094   6.890   0.960   8.554  0.4563 -0.2898 -0.7427
  994MOL0     C34095   7.028   0.935   8.485  0.3271  0.0914 -0.3866
  994MOL0     C34096   7.102   0.817   8.539  0.3271  0.1205 -0.2409
  994MOL0     C34097   7.232   0.775   8.466 -0.1556  0.2203  0.1882
  994MOL0     C34098   7.303   0.660   8.524 -1.1352  0.0547 -0.2814
  994MOL0    Cl34099   7.201   0.504   8.497  0.0367 -0.4235 -0.3666
  994MOL0     C34100   6.260   1.245   8.667 -0.1041 -0.4072 -0.5610
  994MOL0     C34101   6.127   1.197   8.671 -0.3220 -0.3128  0.1821
  994MOL0     O34102   5.870   1.195   8.490  0.9432  0.0086  0.7619
  994MOL0     C34103   5.613   1.125   8.564  0.0191 -0.6160  0.4405
  994MOL0     C34104   5.488   1.082   8.585 -0.8063  0.9050  0.3140
  994MOL0     N34105   4.850   0.703   8.601 -0.7428  0.3742 -0.4252
  994MOL0     N34106   4.769   0.650   8.520  0.1991  0.1177  0.2408
  994MOL0     C34107   3.674   0.299   8.896  0.5911 -0.3249 -0.1808
  994MOL0     C34108   3.540   0.298   8.860  0.0321  0.4699  1.0107
  994MOL0     C34109   3.130   0.377   8.744  0.3980 -0.4645  0.2601
  994MOL0     C34110   3.026   0.438   8.809  0.3763  0.6485  0.1831
  994MOL0     C34111   2.884   0.424   8.788 -0.0428  0.2880  0.0637
  994MOL0     C34112   2.849   0.328   8.693  0.2470 -0.2281 -0.7253
  994MOL0     O34113   2.721   0.295   8.656 -0.1994 -0.0348  0.1551
  994MOL0     C34114   2.608   0.381   8.684 -0.7521  0.6291 -0.5115
  994MOL0     C34115   2.494   0.307   8.607 -0.8296  0.3321 -0.7962
  994MOL0     C34116   2.446   0.178   8.666  0.6350  0.3319 -1.0506
  994MOL0     C34117   2.423   0.064   8.579  0.2378  0.1598  0.7146
  994MOL0     C34118   2.320   0.094   8.482 -0.2079 -0.1005 -0.0712
  994MOL0     C34119   2.229   0.103   8.406  0.1617 -0.7780  0.3198
  994MOL0     C34120   2.951   0.262   8.627  0.0633  0.0152  0.5722
  994MOL0     C34121   3.087   0.290   8.639  1.1444 -0.0789 -1.0579
  994MOL0     C34122   3.181   0.204   8.557  0.6260 -0.4746 -0.7444
  994MOL0     H34123   3.580   0.538   8.619 -0.4020  1.6085  2.1575
  994MOL0     H34124   3.797   0.550   8.698  0.0469 -0.7042 -1.2352
  994MOL0     H34125   3.987   0.481   8.723 -1.2477  0.3730  1.8216
  994MOL0     H34126   4.099   0.419   8.851 -1.1943  3.5223  0.6101
  994MOL0     H34127   3.922   0.252   8.667  1.5013 -3.0750 -1.2004
  994MOL0     H34128   4.002   0.177   8.802 -1.1491  1.1555 -0.0623
  994MOL0     H34129   4.101   0.229   8.532  4.3460 -3.4867 -1.6529
  994MOL0     H34130   4.167   0.140   8.670 -0.9656 -0.7681 -1.2367
  994MOL0     H34131   4.207   0.438   8.610 -0.6236 -0.3547 -0.5941
  994MOL0     H34132   4.280   0.350   8.747  0.9976 -0.8221 -0.3835
  994MOL0     H34133   4.399   0.195   8.581  2.5359  0.3990 -0.5865
  994MOL0     H34134   4.350   0.301   8.446 -1.5193  1.1644  0.2713
  994MOL0     H34135   4.474   0.493   8.548  0.1280  1.3027  2.1980
  994MOL0     H34136   4.514   0.392   8.686  1.5038  0.8276 -0.2476
  994MOL0     H34137   4.591   0.254   8.452 -0.3662 -0.2843  1.2804
  994MOL0     H34138   4.662   0.276   8.609 -2.4922  1.2363  3.1783
  994MOL0     H34139   4.773   0.362   8.396 -0.9887  0.0080  0.0872
  994MOL0     H34140   4.655   0.474   8.369  0.8251  2.6993  0.6404
  994MOL0     H34141   4.832   0.405   8.718  1.2801  0.3376  0.7461
  994MOL0     H34142   4.940   0.695   8.887  0.7506  2.3416 -0.9776
  994MOL0     H34143   4.966   0.516   8.866 -1.1555  1.2412  2.3040
  994MOL0     H34144   5.180   0.625   8.879 -0.9621 -0.6163  0.4955
  994MOL0     H34145   5.151   0.561   8.709  0.2170 -0.0885  1.3111
  994MOL0     H34146   5.103   0.849   8.789 -2.8641 -0.9880 -1.0398
  994MOL0     H34147   5.101   0.783   8.633  1.1260  1.1230 -0.6020
  994MOL0     H34148   5.348   0.711   8.671 -2.1013  0.0643 -1.5898
  994MOL0     H34149   5.339   0.795   8.816  1.7881 -4.6695 -0.7782
  994MOL0     H34150   5.564   0.787   8.735 -0.6938 -1.9527 -1.9297
  994MOL0     H34151   5.784   0.865   8.687 -0.2705  0.8816  2.4740
  994MOL0     H34152   6.178   0.924   8.490  0.3418  1.0827 -1.0596
  994MOL0     H34153   6.418   1.004   8.515  0.2414  1.3684 -0.8915
  994MOL0     H34154   6.538   1.182   8.410 -0.7255 -3.2448  1.1714
  994MOL0     H34155   6.643   1.304   8.492 -0.0561 -0.6565 -0.9913
  994MOL0     H34156   6.712   1.146   8.657 -2.2703 -0.6732  1.2840
  994MOL0     H34157   6.617   1.013   8.585 -1.2921 -1.0709 -2.5685
  994MOL0     H34158   6.774   1.017   8.383  1.4086 -0.1256 -1.0318
  994MOL0     H34159   6.866   1.152   8.460  1.5541 -2.0846 -5.3764
  994MOL0     H34160   6.833   0.866   8.551  1.6677 -1.2237  2.1035
  994MOL0     H34161   6.902   0.998   8.656 -3.1067  1.7014 -0.9024
  994MOL0     H34162   7.086   1.027   8.498 -1.3012  1.1155 -0.1421
  994MOL0     H34163   7.020   0.924   8.377  0.4104 -0.6911 -0.3251
  994MOL0     H34164   7.114   0.825   8.648  0.0739  4.7161 -0.3613
  994MOL0     H34165   7.038   0.731   8.516  0.8613  0.2725 -2.4777
  994MOL0     H34166   7.294   0.865   8.457  1.3633 -0.9465 -2.2147
  994MOL0     H34167   7.207   0.750   8.362  1.6019  0.3314 -0.2955
  994MOL0     H34168   7.396   0.635   8.472 -0.8242 -0.9373  0.7082
  994MOL0     H34169   7.314   0.674   8.632 -2.6523  1.9417 -0.3137
  994MOL0     H34170   6.282   1.326   8.736  1.3985 -0.8941 -0.4266
  994MOL0     H34171   6.052   1.256   8.723 -0.0723 -0.1327  0.3409
  994MOL0     H34172   5.617   1.223   8.517 -0.3685 -0.0736  1.4897
  994MOL0     H34173   5.404   1.143   8.555  0.4482  1.8086 -1.5516
  994MOL0     H34174   3.718   0.238   8.975 -1.4752  1.5295  2.6236
  994MOL0     H34175   3.477   0.221   8.903  0.7071  1.2152  3.5104
  994MOL0     H34176   3.064   0.515   8.875 -0.9151  1.9217 -0.5030
  994MOL0     H34177   2.808   0.477   8.844  0.2655  0.4577  0.3247
  994MOL0     H34178   2.628   0.476   8.634 -2.5453  1.0675 -0.4427
  994MOL0     H34179   2.601   0.402   8.791  1.4499  1.6633 -0.5277
  994MOL0     H34180   2.535   0.287   8.508  3.1297 -1.1838  0.9667
  994MOL0     H34181   2.410   0.374   8.584 -0.7073  1.2554  1.1934
  994MOL0     H34182   2.359   0.204   8.726  1.5909 -1.6344  1.3670
  994MOL0     H34183   2.518   0.146   8.742 -0.4149 -2.1686 -1.0363
  994MOL0     H34184   2.518   0.051   8.526 -0.3426 -1.9762  0.1122
  994MOL0     H34185   2.401  -0.019   8.647  1.6611 -2.4566 -1.8070
  994MOL0     H34186   2.145   0.094   8.339  0.6067 -2.5608 -0.0494
  994MOL0     H34187   2.910   0.176   8.576  3.1273 -1.8971  1.0862
  994MOL0     H34188   3.140   0.132   8.485 -1.7909  0.7250 -0.6532
  994MOL0     H34189   3.248   0.275   8.507 -2.6980  4.2671  0.8380
  994MOL0     H34190   3.247   0.147   8.624 -0.1010  0.7185  1.0743
  995MOL0     O34191   3.564   6.778   0.582  0.3003  0.2145  0.5824
  995MOL0     C34192   3.549   6.701   0.482 -0.1088 -0.2584 -0.0079
  995MOL0     O34193   3.626   6.591   0.459  0.1159  0.0813  0.0640
  995MOL0     C34194   3.746   6.589   0.515  0.2125  0.1037 -0.1354
  995MOL0     C34195   3.840   6.690   0.486  0.6125  0.6265 -0.1439
  995MOL0     C34196   3.973   6.679   0.531 -0.3071  0.4012  0.3318
  995MOL0     C34197   4.015   6.569   0.600 -0.8407  0.0372 -0.3546
  995MOL0     O34198   4.152   6.559   0.628 -0.2407 -0.4874  0.4867
  995MOL0     C34199   4.208   6.422   0.659  0.7378  0.1159  0.6153
  995MOL0     C34200   4.365   6.439   0.679  0.7041 -0.4172  0.5507
  995MOL0     C34201   4.452   6.411   0.554 -0.0699  0.7938  0.3019
  995MOL0     C34202   4.408   6.488   0.430 -0.1243 -0.0103  0.0060
  995MOL0     C34203   4.535   6.517   0.351 -0.3785 -0.3547 -0.2496
  995MOL0     C34204   4.497   6.591   0.217  0.1049 -0.4413 -0.1021
  995MOL0     C34205   4.619   6.619   0.127  0.2367  0.1860  0.1859
  995MOL0     C34206   4.724   6.718   0.181  0.2377  0.4137  0.4634
  995MOL0     N34207   4.812   6.793   0.086  0.8305 -0.1482  0.4722
  995MOL0     C34208   4.939   6.767   0.070 -0.4224 -0.9212  0.6504
  995MOL0     C34209   4.962   6.849  -0.041 -0.1600  0.2319  0.6130
  995MOL0     C34210   5.100   6.873  -0.091 -0.3456  0.0085  0.1512
  995MOL0     C34211   5.189   6.952  -0.002 -0.4640  0.3877 -0.5186
  995MOL0     C34212   5.162   7.101  -0.020 -0.5102  0.1306 -0.2245
  995MOL0     C34213   5.266   7.180   0.056 -0.2347 -0.0833 -0.7858
  995MOL0     O34214   5.229   7.317   0.062 -0.7069  0.0686 -0.8029
  995MOL0     C34215   5.330   7.397   0.110 -0.2248 -0.3638 -0.0242
  995MOL0     C34216   5.338   7.433   0.246  0.5592  0.3119  0.9354
  995MOL0     C34217   5.433   7.528   0.284  0.1695  0.8113  0.6840
  995MOL0     C34218   5.525   7.584   0.189  0.3189 -0.4941 -1.2904
  995MOL0     C34219   5.639   7.665   0.231 -0.1685 -0.4677  0.4258
  995MOL0     O34220   5.633   7.707   0.366  0.2458  0.0295 -0.1611
  995MOL0     C34221   5.716   7.808   0.418  0.7959 -0.3684  0.2486
  995MOL0     C34222   5.824   7.878   0.354 -0.5428  0.3350  0.0796
  995MOL0     C34223   5.906   7.961   0.424 -0.4362 -0.2113 -0.3600
  995MOL0     C34224   5.880   7.979   0.560 -0.2412 -0.3154  0.7721
  995MOL0     O34225   5.978   8.046   0.617 -0.2133  0.4230 -0.4387
  995MOL0     C34226   5.933   8.159   0.690  0.0139  0.3987  0.3351
  995MOL0     C34227   6.043   8.256   0.711  0.4568  0.2613 -0.1698
  995MOL0     C34228   6.140   8.204   0.822 -0.0701  0.1266  0.4553
  995MOL0     C34229   6.279   8.267   0.842 -0.0708  0.3641 -0.9407
  995MOL0     C34230   6.357   8.190   0.952 -0.2322  0.1844 -0.4552
  995MOL0     C34231   6.509   8.227   0.926 -1.1439  0.3162 -0.5454
  995MOL0     C34232   6.615   8.169   1.019 -0.3769 -0.0098 -0.1257
  995MOL0     C34233   6.612   8.236   1.155 -0.4133 -0.6789  0.8347
  995MOL0    Cl34234   6.641   8.410   1.165  0.2669 -0.2888  0.0016
  995MOL0     C34235   5.771   7.926   0.621  0.0695 -0.1374  0.5104
  995MOL0     C34236   5.690   7.840   0.553  0.0439  0.4639  0.1762
  995MOL0     O34237   5.728   7.684   0.151 -0.1880  0.5529  0.2521
  995MOL0     C34238   5.516   7.532   0.060  0.0634 -0.5055  0.0072
  995MOL0     C34239   5.423   7.442   0.022  0.2261 -0.3729  0.2237
  995MOL0     N34240   4.866   6.938  -0.068 -0.5689  0.2337  0.5956
  995MOL0     N34241   4.772   6.889  -0.001  0.4486  0.0730  0.5602
  995MOL0     C34242   3.919   6.472   0.631  0.0541  0.3376  0.3508
  995MOL0     C34243   3.786   6.477   0.590 -0.3817  0.2606 -0.3330
  995MOL0     C34244   3.418   6.728   0.403  0.1628 -0.1509 -0.6777
  995MOL0     C34245   3.330   6.817   0.459  0.5589  0.3225 -0.9835
  995MOL0     C34246   3.201   6.830   0.404  0.4153  0.4451 -0.1734
  995MOL0     C34247   3.168   6.769   0.278  0.2211  0.2269 -0.5898
  995MOL0     O34248   3.044   6.777   0.213  0.0245  0.0772 -0.2717
  995MOL0     C34249   2.927   6.819   0.298  0.3493  0.8046  0.1742
  995MOL0     C34250   2.896   6.727   0.418 -0.4787  0.0367  0.1265
  995MOL0     C34251   2.780   6.785   0.499  0.0120  0.4790  0.2986
  995MOL0     C34252   2.713   6.683   0.594  0.3863 -0.4505 -0.0798
  995MOL0     C34253   2.651   6.572   0.520  0.2236 -0.4204  0.4473
  995MOL0     C34254   2.626   6.468   0.459 -1.5888  0.1841 -0.3597
  995MOL0     C34255   3.258   6.698   0.221  0.3248  0.7847  0.5920
  995MOL0     C34256   3.383   6.677   0.274  0.3056  0.2329 -0.2234
  995MOL0     C34257   3.481   6.591   0.199 -0.4625  0.0154  0.0279
  995MOL0     H34258   3.802   6.774   0.430 -2.5664 -1.4847 -1.4516
  995MOL0     H34259   4.050   6.750   0.502  1.7551 -2.0499 -0.5666
  995MOL0     H34260   4.172   6.391   0.757  0.9810  0.3356  0.7746
  995MOL0     H34261   4.181   6.351   0.580 -4.2569  1.7538  0.5078
  995MOL0     H34262   4.397   6.362   0.749  0.3241 -2.2569 -1.1950
  995MOL0     H34263   4.389   6.534   0.727 -1.1574 -0.4549  1.6739
  995MOL0     H34264   4.444   6.303   0.537 -0.5349  0.7427  0.7950
  995MOL0     H34265   4.557   6.423   0.580  0.0870 -0.0903  0.1166
  995MOL0     H34266   4.344   6.423   0.370  0.7317 -1.4237  0.5937
  995MOL0     H34267   4.358   6.577   0.471  2.5757  0.1373  3.4251
  995MOL0     H34268   4.606   6.581   0.404 -1.9136 -0.4115  2.0846
  995MOL0     H34269   4.581   6.421   0.328  0.3913 -0.5014  1.6539
  995MOL0     H34270   4.418   6.536   0.165  1.2886 -1.9618 -0.3479
  995MOL0     H34271   4.448   6.683   0.250 -1.1112 -1.1699  0.1866
  995MOL0     H34272   4.586   6.650   0.028  0.1575  2.1722  0.7992
  995MOL0     H34273   4.658   6.517   0.113 -0.3191  0.3617 -3.6118
  995MOL0     H34274   4.677   6.798   0.239  0.0436  1.0920 -0.5986
  995MOL0     H34275   4.781   6.666   0.259  0.2337 -0.1217  0.1179
  995MOL0     H34276   5.010   6.705   0.124  0.1941 -2.3924 -1.6933
  995MOL0     H34277   5.133   6.772  -0.117 -1.3477 -0.0949 -0.7896
  995MOL0     H34278   5.102   6.919  -0.191  0.8749 -0.7260 -0.1999
  995MOL0     H34279   5.178   6.926   0.104 -1.8498  1.3981 -0.3807
  995MOL0     H34280   5.292   6.938  -0.035 -1.4998 -0.8862 -3.5449
  995MOL0     H34281   5.061   7.123   0.014 -0.6419 -0.1267 -0.4480
  995MOL0     H34282   5.173   7.138  -0.123  1.4777  1.1506  0.3088
  995MOL0     H34283   5.365   7.176   0.008  0.9520  2.6880  1.1871
  995MOL0     H34284   5.279   7.157   0.162  2.4060  1.4579 -0.6765
  995MOL0     H34285   5.277   7.391   0.325  0.2687 -0.0184  0.5388
  995MOL0     H34286   5.447   7.541   0.390 -0.2956  1.8172  0.6355
  995MOL0     H34287   5.846   7.858   0.250 -1.0099 -2.5612  0.4326
  995MOL0     H34288   5.990   7.998   0.367 -0.2824  0.3772  0.2323
  995MOL0     H34289   5.849   8.211   0.643 -0.0677  2.6494  2.6901
  995MOL0     H34290   5.901   8.121   0.788 -1.5650  0.9956  0.0739
  995MOL0     H34291   6.097   8.279   0.619  0.7617 -1.8686 -0.5818
  995MOL0     H34292   5.997   8.345   0.754  1.7448  1.2603 -0.7912
  995MOL0     H34293   6.090   8.216   0.918 -1.0756 -0.8510  0.0669
  995MOL0     H34294   6.159   8.100   0.793 -2.9423  0.2791 -2.5916
  995MOL0     H34295   6.269   8.374   0.863  2.3942  0.1612  1.8357
  995MOL0     H34296   6.337   8.267   0.749 -0.4084 -1.1168 -1.1670
  995MOL0     H34297   6.344   8.082   0.952 -2.7040  0.4264 -0.2340
  995MOL0     H34298   6.321   8.221   1.051 -0.8764 -1.7898 -0.0246
  995MOL0     H34299   6.533   8.202   0.822  0.7722 -0.4130  0.0190
  995MOL0     H34300   6.519   8.335   0.942 -1.2884  0.5520 -1.9206
  995MOL0     H34301   6.717   8.183   0.982  0.3831  2.0873  2.4175
  995MOL0     H34302   6.594   8.062   1.032 -1.3746  0.3946  2.1858
  995MOL0     H34303   6.514   8.229   1.202 -1.5212  1.5873 -0.9248
  995MOL0     H34304   6.686   8.189   1.221  2.2626  0.3836 -1.2058
  995MOL0     H34305   5.753   7.955   0.724  0.9280 -1.1429  0.9666
  995MOL0     H34306   5.609   7.794   0.608 -1.9254  3.2402 -0.1840
  995MOL0     H34307   5.587   7.569  -0.014  0.4953 -0.5192  0.4085
  995MOL0     H34308   5.434   7.400  -0.078  2.3574 -0.2728  0.3533
  995MOL0     H34309   3.948   6.389   0.695  0.4809  2.2299  2.7159
  995MOL0     H34310   3.728   6.390   0.620  0.6891 -0.7014 -0.9480
  995MOL0     H34311   3.358   6.872   0.548 -1.5133  4.3327 -2.5437
  995MOL0     H34312   3.135   6.904   0.448 -0.0778  0.9703 -1.7411
  995MOL0     H34313   2.836   6.817   0.238  0.3397 -1.4972  0.1721
  995MOL0     H34314   2.944   6.919   0.340 -1.5268  0.9163  0.7647
  995MOL0     H34315   2.978   6.723   0.490  1.2793  0.2866 -1.8041
  995MOL0     H34316   2.875   6.627   0.379  2.7474 -0.4123 -0.6822
  995MOL0     H34317   2.702   6.813   0.428  0.1531 -1.5732 -0.7521
  995MOL0     H34318   2.820   6.870   0.555  1.6021 -0.3415  0.4738
  995MOL0     H34319   2.779   6.641   0.670  0.2215 -0.0009  0.3161
  995MOL0     H34320   2.633   6.734   0.648 -0.2979  0.8387 -2.1814
  995MOL0     H34321   2.586   6.377   0.418  0.6768 -1.6328  1.1757
  995MOL0     H34322   3.243   6.648   0.126  0.2506 -1.3276  1.6478
  995MOL0     H34323   3.477   6.609   0.091  1.0983 -1.5690 -0.3409
  995MOL0     H34324   3.586   6.612   0.224 -0.6533 -0.3300  1.1758
  995MOL0     H34325   3.458   6.490   0.233 -0.9679  1.4404  4.6045
  996MOL0     O34326   3.515   8.210   9.510  0.1982  0.5918  0.0010
  996MOL0     C34327   3.480   8.284   9.597  0.1499  1.4674  0.2127
  996MOL0     O34328   3.562   8.324   9.695  0.3983 -0.1102 -0.2356
  996MOL0     C34329   3.697   8.317   9.683  0.7946  0.2899  0.0265
  996MOL0     C34330   3.759   8.188   9.685 -0.5930  0.6646 -0.1061
  996MOL0     C34331   3.895   8.173   9.684 -0.4807 -0.1020 -0.7585
  996MOL0     C34332   3.979   8.290   9.674  0.2293  0.3288  0.5666
  996MOL0     O34333   4.114   8.276   9.658 -0.3442  0.1080 -0.5674
  996MOL0     C34334   4.179   8.215   9.770  0.5719  1.5237  0.2454
  996MOL0     C34335   4.320   8.180   9.711 -0.5548 -0.2426  0.3728
  996MOL0     C34336   4.396   8.080   9.809  0.0044 -0.4393 -0.1953
  996MOL0     C34337   4.509   8.006   9.721  0.2557  0.1900 -0.5671
  996MOL0     C34338   4.549   7.863   9.773  1.0901  0.6745  0.6251
  996MOL0     C34339   4.662   7.864   9.878  0.0271  0.2092 -1.0717
  996MOL0     C34340   4.796   7.881   9.807  0.3870  0.0610 -0.0292
  996MOL0     C34341   4.904   7.858   9.914  0.0930  0.3310 -0.3477
  996MOL0     N34342   5.029   7.866   9.836  0.0618  0.2060 -0.6571
  996MOL0     C34343   5.110   7.763   9.796  0.1638 -0.0746 -0.0302
  996MOL0     C34344   5.200   7.831   9.713  0.1815  0.0340  0.1538
  996MOL0     C34345   5.309   7.780   9.615  0.6555 -0.0480 -0.8863
  996MOL0     C34346   5.438   7.852   9.654  0.3751 -0.7248 -0.1238
  996MOL0     C34347   5.551   7.788   9.568 -0.6194 -0.4034  0.3585
  996MOL0     C34348   5.659   7.716   9.653 -0.0206 -0.2673  0.2711
  996MOL0     O34349   5.702   7.823   9.740 -0.1540  0.2505  0.0069
  996MOL0     C34350   5.836   7.833   9.752 -0.1526  0.5691  0.0421
  996MOL0     C34351   5.930   7.724   9.776  0.4576 -0.6033  0.4736
  996MOL0     C34352   6.063   7.752   9.784 -0.4109 -0.3106  0.2598
  996MOL0     C34353   6.114   7.875   9.750  0.2067  0.5021 -0.2165
  996MOL0     C34354   6.262   7.899   9.748  1.3575  0.3221  0.0318
  996MOL0     O34355   6.352   7.804   9.808 -0.6878 -0.4060 -0.7968
  996MOL0     C34356   6.482   7.838   9.787  0.3087  0.5435 -0.3811
  996MOL0     C34357   6.556   7.886   9.899 -0.4500  0.0823 -0.7871
  996MOL0     C34358   6.690   7.924   9.897  0.3376 -0.2401  0.1626
  996MOL0     C34359   6.751   7.923   9.773  0.2707 -0.9633 -0.0353
  996MOL0     O34360   6.876   7.968   9.738 -0.1862 -0.0280 -0.4985
  996MOL0     C34361   6.973   7.998   9.840  0.3281 -0.1529  1.0983
  996MOL0     C34362   7.109   8.046   9.775 -0.1344  0.0269 -0.7119
  996MOL0     C34363   7.224   8.079   9.880  0.3967 -0.3822 -0.0981
  996MOL0     C34364   7.334   8.165   9.815  0.9911 -0.2038  0.3505
  996MOL0     C34365   7.435   8.069   9.746  0.0805 -0.5024 -0.2552
  996MOL0     C34366   7.550   8.138   9.683  0.3200 -0.4611  0.0194
  996MOL0     C34367   7.639   8.033   9.628 -0.1650 -0.0242 -0.5662
  996MOL0     C34368   7.755   8.098   9.545 -0.1614  0.1876  0.7503
  996MOL0    Cl34369   7.860   8.219   9.625 -0.1877 -0.3306 -0.5803
  996MOL0     C34370   6.681   7.872   9.659  0.3526  0.3666 -0.7510
  996MOL0     C34371   6.547   7.832   9.670 -0.5796  0.0236 -0.6257
  996MOL0     O34372   6.292   8.011   9.698 -0.2831  0.5973 -0.3451
  996MOL0     C34373   6.026   7.984   9.741 -0.5395  0.2988 -0.5461
  996MOL0     C34374   5.886   7.960   9.734  0.1311 -0.0421  0.7302
  996MOL0     N34375   5.174   7.958   9.716  0.4636 -0.2321  0.1639
  996MOL0     N34376   5.083   7.984   9.799 -0.3902  0.5684 -0.0229
  996MOL0     C34377   3.920   8.419   9.683 -0.0655  0.3984 -0.2015
  996MOL0     C34378   3.780   8.424   9.692  0.2446  0.2281  0.3331
  996MOL0     C34379   3.347   8.337   9.585 -0.1356 -0.3624  0.0885
  996MOL0     C34380   3.326   8.456   9.653  0.3637 -0.8201 -0.2361
  996MOL0     C34381   3.220   8.544   9.619 -0.3924  0.3947  0.4086
  996MOL0     C34382   3.127   8.497   9.530  0.4498  0.0985  0.8233
  996MOL0     O34383   3.019   8.576   9.515  0.2167  0.1579  0.1953
  996MOL0     C34384   2.916   8.564   9.416 -0.0301  0.2966  0.3226
  996MOL0     C34385   2.917   8.700   9.328 -0.6260  0.8566 -0.8131
  996MOL0     C34386   2.814   8.688   9.212 -1.2288  0.1958  0.5907
  996MOL0     C34387   2.825   8.797   9.106  0.0992 -0.1737 -0.0373
  996MOL0     C34388   2.801   8.929   9.166 -0.3073  0.1567  0.9784
  996MOL0     C34389   2.778   9.042   9.210 -0.2767  0.4515  0.4016
  996MOL0     C34390   3.135   8.369   9.473  0.1579 -0.9336  0.0604
  996MOL0     C34391   3.248   8.289   9.492 -0.0237 -0.3099 -1.5482
  996MOL0     C34392   3.252   8.158   9.426  0.6696  0.0657 -0.2249
  996MOL0     H34393   3.700   8.099   9.706 -0.5172  0.6886  0.2183
  996MOL0     H34394   3.924   8.071   9.705 -2.1588 -0.0156  2.6280
  996MOL0     H34395   4.183   8.277   9.859 -2.1226  2.5619 -0.2710
  996MOL0     H34396   4.130   8.120   9.794  1.6074  0.9859  0.2719
  996MOL0     H34397   4.386   8.267   9.707 -0.7123 -0.1146  0.5318
  996MOL0     H34398   4.312   8.148   9.607  0.3446 -0.3683  0.3336
  996MOL0     H34399   4.335   7.999   9.850  2.1976 -1.6639  0.8170
  996MOL0     H34400   4.439   8.144   9.887 -0.9653  2.2307 -1.7149
  996MOL0     H34401   4.480   7.995   9.616  0.2321  0.4673 -0.5884
  996MOL0     H34402   4.598   8.069   9.730  2.1419 -2.3789 -0.1178
  996MOL0     H34403   4.453   7.822   9.805 -0.3227  1.7133 -1.9371
  996MOL0     H34404   4.568   7.799   9.687  0.2810 -0.7094  1.4510
  996MOL0     H34405   4.637   7.939   9.954 -1.4116 -1.7818  0.5465
  996MOL0     H34406   4.672   7.767   9.927  0.6752  0.9817  0.3894
  996MOL0     H34407   4.815   7.975   9.753 -3.7578  0.7055 -0.6811
  996MOL0     H34408   4.812   7.797   9.738  3.3645  1.5877 -1.3945
  996MOL0     H34409   4.907   7.930   9.996 -0.5020  1.3851 -1.2380
  996MOL0     H34410   4.889   7.764   9.967  0.9273  0.2549 -0.2364
  996MOL0     H34411   5.101   7.656   9.814 -0.7943  0.1039  0.5909
  996MOL0     H34412   5.321   7.672   9.618 -0.0991 -0.1461 -1.1907
  996MOL0     H34413   5.279   7.806   9.513  0.4639  0.7074 -0.6463
  996MOL0     H34414   5.437   7.960   9.636  1.3242 -0.3658  1.7592
  996MOL0     H34415   5.450   7.846   9.763 -0.8657  0.2317  0.0848
  996MOL0     H34416   5.599   7.866   9.509  3.6187 -3.2767 -0.3883
  996MOL0     H34417   5.512   7.712   9.500  2.4768 -0.8546 -1.0616
  996MOL0     H34418   5.729   7.688   9.574 -2.0074  0.0032 -1.6680
  996MOL0     H34419   5.621   7.626   9.702  1.7659  0.4509  3.3164
  996MOL0     H34420   5.883   7.628   9.758  2.8062 -1.2362 -3.1080
  996MOL0     H34421   6.129   7.669   9.810  2.3511  1.7816  0.4309
  996MOL0     H34422   6.513   7.888   9.998  1.1201 -1.6110 -0.0214
  996MOL0     H34423   6.741   7.945   9.991  1.3247 -1.0442 -0.1702
  996MOL0     H34424   6.944   8.087   9.897  1.0466  0.4504  0.5477
  996MOL0     H34425   6.981   7.911   9.906 -0.8401 -0.9066  0.2735
  996MOL0     H34426   7.148   7.970   9.707 -0.1250  0.4035 -1.1311
  996MOL0     H34427   7.085   8.135   9.716 -2.0886  0.9283  1.3170
  996MOL0     H34428   7.176   8.133   9.962  0.2266 -1.0795  0.2709
  996MOL0     H34429   7.260   7.986   9.925 -1.2361 -0.2726  1.5866
  996MOL0     H34430   7.385   8.218   9.897 -0.4677  1.7084  0.1101
  996MOL0     H34431   7.285   8.239   9.751 -1.9525 -1.4378  1.0330
  996MOL0     H34432   7.371   8.010   9.679 -1.8327 -0.8325  1.7106
  996MOL0     H34433   7.470   8.000   9.823  0.7469  0.5566  0.4121
  996MOL0     H34434   7.522   8.217   9.613  2.0479 -0.0016 -0.1976
  996MOL0     H34435   7.612   8.184   9.761  1.5782 -0.4441 -0.9591
  996MOL0     H34436   7.597   7.961   9.557  1.1493  0.6227 -2.0742
  996MOL0     H34437   7.677   7.970   9.710  0.3461 -0.9250 -1.4625
  996MOL0     H34438   7.821   8.015   9.518  0.7149  0.5870  1.6190
  996MOL0     H34439   7.718   8.138   9.450  1.1365 -1.5161 -0.5330
  996MOL0     H34440   6.734   7.861   9.565 -1.5239 -1.6153 -1.6696
  996MOL0     H34441   6.484   7.787   9.594 -0.5390  0.9315 -1.2111
  996MOL0     H34442   6.059   8.087   9.729 -0.1146  0.1193 -0.9225
  996MOL0     H34443   5.830   8.052   9.723  1.4129  0.5506 -1.6784
  996MOL0     H34444   3.984   8.505   9.670 -0.9972  1.2136  0.4982
  996MOL0     H34445   3.736   8.523   9.699  0.0008  0.0274  3.0625
  996MOL0     H34446   3.394   8.492   9.729 -2.6621  1.7191  1.5194
  996MOL0     H34447   3.217   8.632   9.682  1.6336 -1.2503  3.0317
  996MOL0     H34448   2.817   8.548   9.458 -0.3832 -0.1860 -0.6538
  996MOL0     H34449   2.940   8.491   9.339 -0.7576  0.4545 -0.0631
  996MOL0     H34450   3.014   8.701   9.277  0.9908 -1.1589  1.9321
  996MOL0     H34451   2.893   8.786   9.391 -1.2700  0.0756  0.0358
  996MOL0     H34452   2.711   8.705   9.245 -1.5228  0.9157 -0.6346
  996MOL0     H34453   2.817   8.590   9.163 -1.8917  1.1192 -1.3780
  996MOL0     H34454   2.922   8.793   9.054 -0.9281  0.8537 -2.1881
  996MOL0     H34455   2.750   8.772   9.030  2.9648  0.5263 -3.3776
  996MOL0     H34456   2.749   9.132   9.260 -0.0513 -0.2163  1.7744
  996MOL0     H34457   3.045   8.340   9.420 -1.5904  3.1455  0.3834
  996MOL0     H34458   3.307   8.167   9.331 -2.2704 -1.1784 -2.1655
  996MOL0     H34459   3.299   8.082   9.488  1.4203  0.7526  0.0725
  996MOL0     H34460   3.155   8.115   9.400  0.9712 -0.8181  0.0858
  997MOL0     O34461  10.459   4.090   7.238 -0.1540  0.1727 -1.4791
  997MOL0     C34462  10.418   3.977   7.246  0.5551 -0.1584  0.1418
  997MOL0     O34463  10.505   3.870   7.263 -0.0926 -0.0315 -0.1080
  997MOL0     C34464  10.603   3.879   7.359  0.0730 -0.2414 -0.3791
  997MOL0     C34465  10.599   3.786   7.466  0.5391 -0.0439  0.7454
  997MOL0     C34466  10.698   3.781   7.558 -0.3413 -0.0073 -0.7056
  997MOL0     C34467  10.807   3.864   7.549  0.5684 -0.2388 -0.4475
  997MOL0     O34468  10.906   3.846   7.642  0.6068  0.2044 -0.4493
  997MOL0     C34469  10.966   3.967   7.683  0.3453 -0.8535  0.6041
  997MOL0     C34470  11.065   3.927   7.797 -0.4895  0.3403  0.2777
  997MOL0     C34471  11.200   3.973   7.752 -0.6288  0.3124 -0.6724
  997MOL0     C34472  11.302   3.973   7.861 -0.3840  0.5719  0.1054
  997MOL0     C34473  11.287   4.097   7.943 -0.4359 -0.3820 -0.1739
  997MOL0     C34474  11.390   4.119   8.055  0.4612  0.2931  0.3039
  997MOL0     C34475  11.394   4.263   8.093 -0.5408  0.3532  0.2653
  997MOL0     C34476  11.451   4.283   8.235  0.6900  0.6240 -0.2780
  997MOL0     N34477  11.482   4.423   8.261  0.0470 -0.0133  0.4171
  997MOL0     C34478  11.581   4.500   8.206  0.7539 -0.5976 -0.0465
  997MOL0     C34479  11.557   4.623   8.266 -0.0104  0.3936  0.1939
  997MOL0     C34480  11.634   4.748   8.212  1.5070  0.5057 -0.2682
  997MOL0     C34481  11.763   4.776   8.270  0.2100  0.0006  0.0163
  997MOL0     C34482  11.767   4.884   8.384  0.2374  0.4459  0.8335
  997MOL0     C34483  11.909   4.895   8.434  0.6971 -0.4062  0.2782
  997MOL0     O34484  11.994   4.947   8.332 -0.4663 -0.3730  1.1536
  997MOL0     C34485  12.129   4.918   8.341  0.8050 -0.4391 -0.1839
  997MOL0     C34486  12.195   4.823   8.417  1.1633  0.7368 -0.0738
  997MOL0     C34487  12.331   4.797   8.409  0.5738 -0.4896 -0.5347
  997MOL0     C34488  12.415   4.886   8.339  0.5800 -0.3837 -0.1729
  997MOL0     C34489  12.559   4.866   8.351 -0.0944 -1.1403  0.5772
  997MOL0     O34490  12.616   4.814   8.462  0.7106 -0.2312  0.7705
  997MOL0     C34491  12.752   4.811   8.474  0.6741  0.7054 -0.3796
  997MOL0     C34492  12.831   4.927   8.495 -0.2801  0.4452  0.1864
  997MOL0     C34493  12.965   4.913   8.530  0.5500 -0.3535  0.8015
  997MOL0     C34494  13.034   4.790   8.532  0.7756  0.0819  0.1208
  997MOL0     O34495  13.167   4.792   8.572 -0.0097  0.4992  0.1146
  997MOL0     C34496  13.244   4.674   8.578 -0.4183  0.0759 -0.2878
  997MOL0     C34497  13.387   4.707   8.545  0.0926  0.2720 -1.7490
  997MOL0     C34498  13.445   4.814   8.633 -0.0276 -0.9076 -0.8586
  997MOL0     C34499  13.597   4.840   8.614 -0.3143 -0.3012  0.7411
  997MOL0     C34500  13.677   4.806   8.746 -1.0677  0.6453  0.7089
  997MOL0     C34501  13.825   4.859   8.735 -0.8724  0.3377 -0.2669
  997MOL0     C34502  13.908   4.830   8.854  0.1390  0.5437  0.2842
  997MOL0     C34503  13.871   4.937   8.956  0.2777 -0.2245 -0.4833
  997MOL0    Cl34504  13.954   5.084   8.921 -0.6351 -0.2178  0.1463
  997MOL0     C34505  12.950   4.683   8.525  0.3964  0.1598  0.2492
  997MOL0     C34506  12.812   4.688   8.497 -0.1459  0.1269  0.5392
  997MOL0     O34507  12.617   4.892   8.246  0.4477 -0.1049  0.1039
  997MOL0     C34508  12.349   4.986   8.262  0.1232  0.6102  0.1413
  997MOL0     C34509  12.212   5.005   8.264  0.2601  0.4644 -0.2793
  997MOL0     N34510  11.452   4.620   8.354  0.0696 -0.2035 -0.4411
  997MOL0     N34511  11.412   4.500   8.347 -0.2733  0.2298  0.1926
  997MOL0     C34512  10.812   3.961   7.441 -0.0298  0.1047  0.3107
  997MOL0     C34513  10.711   3.964   7.344  0.2231  0.6836 -0.1999
  997MOL0     C34514  10.286   3.947   7.182 -0.0640 -0.1811 -0.1839
  997MOL0     C34515  10.270   3.830   7.105  0.1979  0.7614  0.1305
  997MOL0     C34516  10.152   3.787   7.055  0.9321 -0.6559  0.2563
  997MOL0     C34517  10.039   3.868   7.067  0.1766 -0.3281 -0.3800
  997MOL0     O34518   9.921   3.814   7.022 -0.3432 -0.4839  0.3467
  997MOL0     C34519   9.810   3.897   7.025  0.5431  0.9577 -0.1336
  997MOL0     C34520   9.690   3.830   6.963  0.0185 -0.2220  0.1224
  997MOL0     C34521   9.560   3.900   6.998  0.3496 -0.3157  0.6239
  997MOL0     C34522   9.449   3.867   6.899  0.0726  0.1433 -0.0133
  997MOL0     C34523   9.335   3.954   6.919 -0.1121 -0.2789  0.2223
  997MOL0     C34524   9.232   4.013   6.925  0.5510 -0.1120 -0.1556
  997MOL0     C34525  10.044   3.986   7.146  0.2784 -0.1650 -0.3744
  997MOL0     C34526  10.166   4.022   7.206  0.0309 -0.1093  0.2781
  997MOL0     C34527  10.178   4.146   7.297 -0.9530 -0.3174 -0.9313
  997MOL0     H34528  10.510   3.724   7.471 -1.2397  2.4114  3.4228
  997MOL0     H34529  10.692   3.717   7.646 -0.8426  2.1254  0.8978
  997MOL0     H34530  11.023   4.021   7.607  0.6951  1.2456  2.2525
  997MOL0     H34531  10.892   4.041   7.714  1.1493  2.0700 -3.5863
  997MOL0     H34532  11.060   3.818   7.805 -1.5780  0.2207 -1.3841
  997MOL0     H34533  11.027   3.973   7.888  0.6507  0.4108  0.7303
  997MOL0     H34534  11.172   4.070   7.711 -1.4591 -0.2860 -1.5599
  997MOL0     H34535  11.235   3.905   7.674  0.9587  1.4295 -0.9747
  997MOL0     H34536  11.285   3.880   7.917 -0.5462  0.4510 -0.1411
  997MOL0     H34537  11.405   3.975   7.823  1.2128 -0.0147  3.9278
  997MOL0     H34538  11.282   4.179   7.871 -1.6402 -1.4387 -1.3428
  997MOL0     H34539  11.192   4.095   7.997  0.9995  0.3517  2.5813
  997MOL0     H34540  11.343   4.062   8.136  0.0398 -0.7483 -0.6442
  997MOL0     H34541  11.487   4.077   8.029 -0.8900 -2.1086 -1.3041
  997MOL0     H34542  11.289   4.293   8.106 -0.1333  0.9437  2.5932
  997MOL0     H34543  11.450   4.317   8.016 -4.1049  1.8282 -1.5565
  997MOL0     H34544  11.384   4.234   8.306  1.2961 -2.1544 -1.4842
  997MOL0     H34545  11.545   4.228   8.251 -0.2367 -1.0564 -0.4363
  997MOL0     H34546  11.637   4.485   8.114  1.6825 -0.1977  0.4345
  997MOL0     H34547  11.636   4.741   8.103 -1.2698  2.0334 -0.5127
  997MOL0     H34548  11.562   4.828   8.230  1.1400  0.2672 -0.6538
  997MOL0     H34549  11.801   4.684   8.316  0.0935  0.0100  0.1321
  997MOL0     H34550  11.829   4.805   8.188 -0.6318  0.2962 -0.5689
  997MOL0     H34551  11.702   4.848   8.465  0.0955 -0.9113  0.1351
  997MOL0     H34552  11.728   4.979   8.348 -4.2707 -2.2383 -2.2627
  997MOL0     H34553  11.926   4.793   8.470  0.5745 -0.1535  1.0687
  997MOL0     H34554  11.908   4.966   8.518 -0.4500  0.8556 -0.7534
  997MOL0     H34555  12.136   4.751   8.473  1.1023  2.5364  2.3312
  997MOL0     H34556  12.375   4.717   8.467  0.3618 -1.1152 -1.2124
  997MOL0     H34557  12.774   5.019   8.488 -0.5777  0.2170 -0.4264
  997MOL0     H34558  13.037   4.994   8.523 -0.2378  0.2125 -1.6619
  997MOL0     H34559  13.220   4.629   8.674 -1.7664  2.1578  0.4348
  997MOL0     H34560  13.212   4.603   8.501 -1.5792  0.3763 -0.0967
  997MOL0     H34561  13.437   4.612   8.564 -0.2055  0.4607  0.1528
  997MOL0     H34562  13.402   4.746   8.444 -0.0351 -2.4831 -2.9106
  997MOL0     H34563  13.405   4.913   8.608  3.1610  0.0661 -2.6250
  997MOL0     H34564  13.422   4.792   8.738  3.0273 -0.9570 -0.0957
  997MOL0     H34565  13.614   4.938   8.568  0.5418 -1.0846 -0.6597
  997MOL0     H34566  13.621   4.773   8.531  0.3797  0.3472  0.4060
  997MOL0     H34567  13.663   4.700   8.772  0.8320  0.3845  0.7524
  997MOL0     H34568  13.629   4.865   8.824  0.9843  0.7106  1.9900
  997MOL0     H34569  13.882   4.806   8.658 -0.6664 -1.0586  0.7850
  997MOL0     H34570  13.822   4.965   8.710 -0.9665  0.6734  1.0534
  997MOL0     H34571  14.016   4.833   8.835  0.1615 -2.7542 -0.8486
  997MOL0     H34572  13.866   4.739   8.898 -0.1291 -0.1278 -1.2849
  997MOL0     H34573  13.763   4.954   8.962  0.6624  2.0710  1.7583
  997MOL0     H34574  13.909   4.909   9.055  1.0471 -0.0590 -0.7263
  997MOL0     H34575  12.995   4.584   8.528  1.7223  0.7193 -0.4873
  997MOL0     H34576  12.754   4.597   8.485  0.6859 -0.2793 -0.5827
  997MOL0     H34577  12.406   5.062   8.209 -0.2557  1.9313  1.5692
  997MOL0     H34578  12.170   5.084   8.203  2.3090  0.1520 -2.2198
  997MOL0     H34579  10.894   4.032   7.435 -0.6829  0.8971  0.7312
  997MOL0     H34580  10.717   4.032   7.260  1.7989  1.4414  0.4787
  997MOL0     H34581  10.357   3.767   7.094  0.9823  1.8490 -0.0561
  997MOL0     H34582  10.143   3.693   7.002 -0.7971  1.2765 -3.1777
  997MOL0     H34583   9.837   3.990   6.974  0.0739  0.9188 -0.4549
  997MOL0     H34584   9.786   3.909   7.131 -2.5243 -0.1278 -0.6217
  997MOL0     H34585   9.683   3.721   6.976  0.6973 -0.2297  0.4904
  997MOL0     H34586   9.709   3.842   6.856 -1.6561 -1.5948 -0.3753
  997MOL0     H34587   9.578   4.007   6.984  0.7691 -0.6212 -1.5024
  997MOL0     H34588   9.526   3.881   7.101  0.7195  0.4823  0.9029
  997MOL0     H34589   9.467   3.861   6.792 -3.3590  1.3284 -0.8061
  997MOL0     H34590   9.419   3.762   6.910  1.6013 -0.6802 -2.7097
  997MOL0     H34591   9.131   4.041   6.901 -0.5660 -3.4243  0.0912
  997MOL0     H34592   9.957   4.047   7.167 -0.0574 -0.8594  0.3113
  997MOL0     H34593  10.233   4.233   7.261  0.9035 -0.2280  1.8638
  997MOL0     H34594  10.080   4.189   7.322 -0.4186  0.9477 -0.9392
  997MOL0     H34595  10.231   4.127   7.390 -0.8054 -0.4201 -1.0358
  998MOL0     O34596   6.978   8.208   8.136 -0.5736 -0.2544  0.1862
  998MOL0     C34597   7.023   8.119   8.068  0.4131 -0.1800 -0.8991
  998MOL0     O34598   7.010   8.104   7.938 -0.2153 -0.4587  0.4660
  998MOL0     C34599   6.878   8.133   7.894 -0.0050 -0.2449  0.0596
  998MOL0     C34600   6.842   8.261   7.835  0.7690  0.3338  0.9012
  998MOL0     C34601   6.711   8.274   7.786  0.9212  0.0312 -0.0393
  998MOL0     C34602   6.617   8.172   7.795 -0.4951  1.3536 -0.1765
  998MOL0     O34603   6.491   8.202   7.749  0.0926 -0.3863  0.2846
  998MOL0     C34604   6.390   8.099   7.727  0.5318  0.0002  0.6653
  998MOL0     C34605   6.274   8.140   7.634  0.0360 -0.6195  0.7766
  998MOL0     C34606   6.304   8.202   7.494 -0.6316  0.0403  0.0983
  998MOL0     C34607   6.365   8.343   7.482  0.3509  0.3404 -0.3292
  998MOL0     C34608   6.446   8.376   7.362  0.1575 -0.3539 -0.0520
  998MOL0     C34609   6.499   8.512   7.373 -0.2805 -0.4133  0.0067
  998MOL0     C34610   6.585   8.551   7.255  1.1753 -0.3266  0.1063
  998MOL0     C34611   6.694   8.644   7.300 -0.0475 -0.5531 -1.4406
  998MOL0     N34612   6.769   8.690   7.182 -0.8807 -0.0519  0.0388
  998MOL0     C34613   6.876   8.623   7.120  0.0117  0.2079 -0.3644
  998MOL0     C34614   6.935   8.717   7.036  0.0885 -0.0515 -0.4605
  998MOL0     C34615   7.048   8.699   6.946 -0.1368 -0.5523  0.6011
  998MOL0     C34616   7.188   8.760   6.996 -1.1004  0.3073 -0.5352
  998MOL0     C34617   7.186   8.914   6.997  0.4482 -0.8031 -0.3206
  998MOL0     C34618   7.331   8.968   7.029 -0.4559  0.6629 -0.6127
  998MOL0     O34619   7.410   8.968   6.906  0.1523 -0.0913  0.0305
  998MOL0     C34620   7.551   8.975   6.914 -0.6271 -0.3790  0.5375
  998MOL0     C34621   7.625   8.926   6.804 -0.6026 -0.0859  0.0581
  998MOL0     C34622   7.769   8.939   6.799  0.6448  1.2323  0.2655
  998MOL0     C34623   7.831   9.007   6.907  0.3266  0.7583  0.5463
  998MOL0     C34624   7.972   9.031   6.897 -0.5454  1.1924  0.2383
  998MOL0     O34625   8.014   9.137   6.977 -0.6770  0.3781  1.0690
  998MOL0     C34626   8.147   9.180   6.971  0.0157 -0.4592 -0.9429
  998MOL0     C34627   8.163   9.294   7.053  1.5989  0.3951  0.2603
  998MOL0     C34628   8.282   9.354   7.057  1.0834 -0.0311  0.0301
  998MOL0     C34629   8.396   9.307   6.989 -0.0013  0.0888  0.2463
  998MOL0     O34630   8.506   9.380   7.016 -0.3120 -0.2150 -0.4750
  998MOL0     C34631   8.625   9.303   7.025 -1.1956 -0.3187 -0.3081
  998MOL0     C34632   8.623   9.179   7.113  0.2489 -0.1946  0.6217
  998MOL0     C34633   8.589   9.202   7.263 -0.0791 -0.1251 -0.2861
  998MOL0     C34634   8.600   9.070   7.329 -0.4340 -0.4651 -0.1789
  998MOL0     C34635   8.614   9.071   7.486  1.0983  0.3167  0.2812
  998MOL0     C34636   8.740   9.119   7.547 -0.6494 -0.3600 -0.8251
  998MOL0     C34637   8.862   9.031   7.503  0.4766 -0.3845 -0.3802
  998MOL0     C34638   8.983   9.032   7.588 -0.6942  0.0441 -0.3230
  998MOL0    Cl34639   9.086   9.187   7.581  0.0859 -0.2005 -0.1741
  998MOL0     C34640   8.377   9.203   6.898  0.2645  0.3130 -0.3846
  998MOL0     C34641   8.252   9.130   6.899  0.1398 -0.2260 -0.2246
  998MOL0     O34642   8.032   8.966   6.815  0.1029 -0.4817  0.4914
  998MOL0     C34643   7.753   9.057   7.014  0.8346 -0.4956  0.4696
  998MOL0     C34644   7.615   9.039   7.020  0.7560 -0.3924  0.3674
  998MOL0     N34645   6.866   8.834   7.046 -0.4685 -0.6546 -0.7003
  998MOL0     N34646   6.772   8.813   7.127 -0.1839 -0.6792 -0.3722
  998MOL0     C34647   6.654   8.045   7.848 -0.0382 -0.1907 -0.1014
  998MOL0     C34648   6.786   8.026   7.891  0.0870 -0.2790 -0.0670
  998MOL0     C34649   7.099   8.029   8.149  0.3445  1.3432 -0.3317
  998MOL0     C34650   7.148   7.904   8.095  0.2587 -0.4250 -0.7380
  998MOL0     C34651   7.214   7.803   8.165  0.3659 -0.8015  0.3503
  998MOL0     C34652   7.249   7.825   8.300 -0.4029  0.5737  0.0998
  998MOL0     O34653   7.309   7.733   8.381 -0.6648 -0.5429  0.4280
  998MOL0     C34654   7.300   7.590   8.367  0.3224 -0.9435  0.5209
  998MOL0     C34655   7.382   7.512   8.473 -0.8998  0.5005 -0.9552
  998MOL0     C34656   7.308   7.506   8.608  0.1494  0.8568  0.6101
  998MOL0     C34657   7.328   7.370   8.678 -0.4473 -0.1714  0.5838
  998MOL0     C34658   7.465   7.367   8.732 -0.3606 -0.1859 -0.0805
  998MOL0     C34659   7.574   7.358   8.782  0.6639 -0.6091 -0.2138
  998MOL0     C34660   7.211   7.951   8.358 -0.6740  0.0644 -0.3165
  998MOL0     C34661   7.141   8.053   8.289  0.2656  0.6337 -0.1446
  998MOL0     C34662   7.114   8.174   8.371 -0.2502 -0.7605 -0.6234
  998MOL0     H34663   6.907   8.348   7.838  0.4668  0.5497  1.3646
  998MOL0     H34664   6.676   8.363   7.735  0.0786  1.0317  2.1878
  998MOL0     H34665   6.432   8.006   7.687 -0.6965 -0.5032  0.5134
  998MOL0     H34666   6.348   8.065   7.822 -2.7987 -0.6482 -0.8896
  998MOL0     H34667   6.213   8.214   7.687  3.3041  0.5563  3.2261
  998MOL0     H34668   6.215   8.051   7.610 -1.6553  1.1924 -2.4021
  998MOL0     H34669   6.209   8.195   7.439 -1.1845 -0.0752  1.0409
  998MOL0     H34670   6.369   8.135   7.437 -1.7847 -0.1444 -1.0536
  998MOL0     H34671   6.289   8.421   7.473  0.3134  0.4393  0.6833
  998MOL0     H34672   6.417   8.362   7.576 -0.6481  0.2729  0.2605
  998MOL0     H34673   6.531   8.308   7.364  0.4907  0.0379 -0.7932
  998MOL0     H34674   6.385   8.365   7.273 -0.9340 -1.4968  0.7999
  998MOL0     H34675   6.411   8.576   7.383  0.9012  1.1171  1.0390
  998MOL0     H34676   6.558   8.520   7.464 -1.2389 -0.1986  0.6289
  998MOL0     H34677   6.511   8.597   7.188  0.1359 -2.0282  0.0408
  998MOL0     H34678   6.623   8.462   7.204  0.1110 -1.1744  0.7457
  998MOL0     H34679   6.661   8.730   7.358  1.3049 -0.4562 -0.7632
  998MOL0     H34680   6.758   8.585   7.367 -2.6198 -1.2445  0.5535
  998MOL0     H34681   6.901   8.519   7.136 -0.4199  0.3959  1.7811
  998MOL0     H34682   7.056   8.592   6.927 -0.8398 -0.2025 -2.0490
  998MOL0     H34683   7.020   8.745   6.851  0.0788 -3.9986 -1.3039
  998MOL0     H34684   7.202   8.724   7.098  1.7511 -1.4443 -1.4320
  998MOL0     H34685   7.270   8.721   6.935 -1.3031  1.4505 -1.5771
  998MOL0     H34686   7.124   8.940   7.083 -0.4770 -2.4589 -0.4616
  998MOL0     H34687   7.154   8.965   6.906  3.3640  1.9166 -0.0136
  998MOL0     H34688   7.371   8.891   7.096 -3.4810  0.3218  0.9925
  998MOL0     H34689   7.332   9.068   7.074 -0.4191  2.1767 -3.7035
  998MOL0     H34690   7.581   8.869   6.723 -1.6014  0.5915  0.1113
  998MOL0     H34691   7.815   8.888   6.715 -0.8857  1.6860 -0.8837
  998MOL0     H34692   8.071   9.327   7.101  0.1556 -2.0517 -0.6145
  998MOL0     H34693   8.296   9.439   7.124 -1.4430  1.8927 -1.6619
  998MOL0     H34694   8.643   9.259   6.926 -0.5452 -0.9939  0.1028
  998MOL0     H34695   8.706   9.369   7.054 -2.8699  1.5371  0.3798
  998MOL0     H34696   8.545   9.113   7.075  0.3081  0.0931 -0.0223
  998MOL0     H34697   8.724   9.136   7.114  0.7164  0.8752  2.0778
  998MOL0     H34698   8.663   9.268   7.309  0.3763  1.0371 -2.5435
  998MOL0     H34699   8.488   9.241   7.274 -0.1866 -0.0615 -1.3811
  998MOL0     H34700   8.684   9.014   7.287  0.2770  0.9903 -0.7507
  998MOL0     H34701   8.509   9.012   7.314 -2.0974  1.6041  1.3536
  998MOL0     H34702   8.599   8.965   7.510 -1.2687  0.1087 -1.7373
  998MOL0     H34703   8.524   9.121   7.522 -0.7977 -1.5013 -1.6187
  998MOL0     H34704   8.751   9.224   7.518 -0.3365  0.8214  2.9380
  998MOL0     H34705   8.727   9.111   7.656 -1.5039 -0.0490 -0.8889
  998MOL0     H34706   8.902   9.060   7.405  1.7553 -1.2855 -0.1462
  998MOL0     H34707   8.821   8.931   7.493  3.7397 -1.7179 -2.0481
  998MOL0     H34708   8.944   9.016   7.689  0.8706 -1.1295  0.1286
  998MOL0     H34709   9.049   8.953   7.553 -3.5827 -1.5826 -2.5047
  998MOL0     H34710   8.463   9.166   6.841 -1.1064 -2.4001 -0.8822
  998MOL0     H34711   8.240   9.060   6.818 -1.1647 -0.2306 -0.0388
  998MOL0     H34712   7.794   9.122   7.091  0.0912 -0.2093  0.6285
  998MOL0     H34713   7.553   9.091   7.094  1.0303 -2.2656  1.9907
  998MOL0     H34714   6.586   7.960   7.849  0.8853 -0.9691 -1.0357
  998MOL0     H34715   6.819   7.933   7.936 -0.3341 -0.7952 -0.7983
  998MOL0     H34716   7.114   7.883   7.994 -4.7283  1.0063  0.3912
  998MOL0     H34717   7.226   7.709   8.112 -0.1536  1.4100 -4.2210
  998MOL0     H34718   7.337   7.558   8.269 -0.0802 -1.1744  0.4431
  998MOL0     H34719   7.195   7.561   8.374 -0.8498  2.4704 -0.7840
  998MOL0     H34720   7.486   7.545   8.474 -0.5579 -0.5463 -0.5157
  998MOL0     H34721   7.387   7.408   8.440  0.5425  1.0767 -2.7274
  998MOL0     H34722   7.202   7.523   8.588  0.4255  1.1490 -0.6827
  998MOL0     H34723   7.344   7.583   8.677  0.4409 -0.2758  1.7743
  998MOL0     H34724   7.252   7.349   8.753  1.7874  2.3714  3.8010
  998MOL0     H34725   7.309   7.291   8.604  0.5814 -0.5631  0.7152
  998MOL0     H34726   7.670   7.345   8.829  0.3183 -0.6309  0.4869
  998MOL0     H34727   7.244   7.967   8.460 -1.0036  0.5412 -0.2875
  998MOL0     H34728   7.162   8.173   8.469 -3.3009  2.3839  1.1340
  998MOL0     H34729   7.142   8.271   8.329 -0.2446  0.7836  2.7145
  998MOL0     H34730   7.009   8.190   8.395  0.3169  3.5158 -0.1863
  999MOL0     O34731   8.925   3.193   8.087 -0.3364  0.7997 -0.1350
  999MOL0     C34732   8.922   3.187   7.964 -0.3284 -0.6092 -0.2872
  999MOL0     O34733   9.014   3.139   7.886  0.5596  0.7514 -0.3321
  999MOL0     C34734   9.124   3.083   7.939  0.1774 -0.3040 -0.2977
  999MOL0     C34735   9.219   3.161   8.019  0.6181 -0.0231  0.2254
  999MOL0     C34736   9.332   3.098   8.061  0.0776 -0.1308 -0.5215
  999MOL0     C34737   9.360   2.965   8.022  0.5362 -0.1076  0.7049
  999MOL0     O34738   9.481   2.921   8.062 -0.2566 -0.1421  0.1273
  999MOL0     C34739   9.503   2.773   8.042 -0.3434 -0.4526  0.4191
  999MOL0     C34740   9.608   2.741   8.149  0.8794 -0.1431  0.1015
  999MOL0     C34741   9.654   2.588   8.139 -0.3252 -0.4143 -0.3849
  999MOL0     C34742   9.552   2.479   8.179 -0.3652 -0.5144 -0.2282
  999MOL0     C34743   9.623   2.339   8.153 -0.1985 -0.3126 -0.2137
  999MOL0     C34744   9.581   2.278   8.016  0.2757 -0.5959 -1.2151
  999MOL0     C34745   9.676   2.170   7.959 -0.1964 -0.4023 -0.2252
  999MOL0     C34746   9.644   2.136   7.818  0.4661  0.9051  0.3381
  999MOL0     N34747   9.741   2.035   7.764  0.1313 -0.2209  0.8124
  999MOL0     C34748   9.777   1.922   7.834  0.7400  0.2340  0.1833
  999MOL0     C34749   9.881   1.874   7.764  0.3698  0.4566  0.5022
  999MOL0     C34750   9.976   1.757   7.811  0.5272 -0.1666  0.0023
  999MOL0     C34751  10.112   1.776   7.740 -0.3708 -0.0510 -0.3257
  999MOL0     C34752  10.236   1.707   7.805  0.2437 -0.0398 -0.2215
  999MOL0     C34753  10.356   1.742   7.725 -0.5913  0.6715 -0.2006
  999MOL0     O34754  10.384   1.670   7.605  0.4291  0.1014  0.4095
  999MOL0     C34755  10.508   1.695   7.546  0.5152  0.4242  0.0660
  999MOL0     C34756  10.600   1.788   7.592  0.3827  0.6246 -0.0895
  999MOL0     C34757  10.715   1.802   7.524  0.0764  0.6232 -0.8920
  999MOL0     C34758  10.743   1.739   7.409 -0.0989 -0.5938  0.8147
  999MOL0     C34759  10.874   1.745   7.332 -0.6259 -0.6846 -0.4191
  999MOL0     O34760  10.982   1.792   7.403  0.8020 -0.6672 -0.3416
  999MOL0     C34761  11.095   1.776   7.335 -0.4053  0.3974 -0.4585
  999MOL0     C34762  11.132   1.868   7.234 -0.0732  0.2911 -0.5174
  999MOL0     C34763  11.260   1.860   7.183 -0.6359 -0.1678 -0.2280
  999MOL0     C34764  11.348   1.766   7.230 -1.0756 -0.2101 -0.1864
  999MOL0     O34765  11.467   1.770   7.167 -0.5555 -0.1846  0.1383
  999MOL0     C34766  11.565   1.665   7.199  0.2699 -0.2257  0.2208
  999MOL0     C34767  11.695   1.693   7.133 -0.6341 -0.4577  0.3616
  999MOL0     C34768  11.758   1.831   7.145 -0.0356  0.3169 -0.1075
  999MOL0     C34769  11.892   1.844   7.073 -0.3368 -0.0401 -0.8009
  999MOL0     C34770  11.953   1.980   7.113 -0.7731  0.3460  1.0685
  999MOL0     C34771  12.091   1.988   7.057 -0.0993  0.5057  0.1812
  999MOL0     C34772  12.154   2.124   7.093  0.4704  0.0183  0.3636
  999MOL0     C34773  12.288   2.134   7.012  0.9580 -0.7302  0.1486
  999MOL0    Cl34774  12.400   2.249   7.092  0.0449  0.3467  0.2666
  999MOL0     C34775  11.311   1.679   7.331 -0.7671  0.5640 -1.1909
  999MOL0     C34776  11.185   1.680   7.386  0.3460  0.4656  0.2447
  999MOL0     O34777  10.878   1.708   7.216 -0.2951 -0.1547  0.1125
  999MOL0     C34778  10.649   1.645   7.358 -0.6666 -0.2954 -0.2362
  999MOL0     C34779  10.533   1.630   7.420 -0.1275  0.3091 -0.1753
  999MOL0     N34780   9.902   1.951   7.648  0.1646 -0.5630  0.4670
  999MOL0     N34781   9.822   2.051   7.660  0.3552  0.4821  1.1785
  999MOL0     C34782   9.261   2.893   7.949 -0.0586 -0.3883 -1.0794
  999MOL0     C34783   9.142   2.952   7.915 -0.0163  0.7321  0.2269
  999MOL0     C34784   8.801   3.220   7.882 -0.2035 -0.3001 -0.1641
  999MOL0     C34785   8.798   3.178   7.745 -0.2750  0.0287 -0.1928
  999MOL0     C34786   8.691   3.221   7.665  0.9615 -0.2218 -0.0707
  999MOL0     C34787   8.594   3.308   7.717  0.7650  0.5286  0.3825
  999MOL0     O34788   8.488   3.359   7.641 -0.3502  0.2529 -0.7334
  999MOL0     C34789   8.494   3.343   7.492 -1.3103 -0.1380 -0.1394
  999MOL0     C34790   8.395   3.434   7.426  0.0840 -0.4909 -0.0032
  999MOL0     C34791   8.256   3.371   7.438 -0.1359 -0.2839 -0.1456
  999MOL0     C34792   8.161   3.455   7.357 -0.1583 -0.0816  0.1320
  999MOL0     C34793   8.032   3.383   7.345  0.6232  0.2171  0.5944
  999MOL0     C34794   7.929   3.320   7.328 -0.2446  0.2654 -0.1048
  999MOL0     C34795   8.590   3.338   7.855 -0.3184  0.8390  0.6187
  999MOL0     C34796   8.689   3.297   7.937 -0.1965  0.2185  0.4378
  999MOL0     C34797   8.669   3.335   8.079  0.1685 -0.5174 -0.2858
  999MOL0     H34798   9.188   3.262   8.044 -2.4373 -0.2218 -2.0950
  999MOL0     H34799   9.409   3.141   8.125 -1.4250  0.4206  1.0192
  999MOL0     H34800   9.420   2.708   8.072  1.9256 -2.6004  2.4479
  999MOL0     H34801   9.537   2.757   7.939 -0.2370  2.0931 -0.0210
  999MOL0     H34802   9.563   2.767   8.245 -2.5715  4.9605 -2.4022
  999MOL0     H34803   9.693   2.806   8.126  0.6167  1.9784  4.1650
  999MOL0     H34804   9.740   2.586   8.205  1.3319  1.1010 -2.3566
  999MOL0     H34805   9.689   2.575   8.036 -1.6421 -0.2577 -0.8782
  999MOL0     H34806   9.525   2.490   8.285  1.8794  0.8734  0.2878
  999MOL0     H34807   9.459   2.497   8.125 -1.6107  0.3832  2.0745
  999MOL0     H34808   9.731   2.354   8.154 -0.4134  1.7819 -1.5741
  999MOL0     H34809   9.600   2.267   8.231  1.6017  1.2654  1.8877
  999MOL0     H34810   9.479   2.238   8.015  0.9359 -2.5562  0.8776
  999MOL0     H34811   9.587   2.359   7.944 -4.6412  0.6709 -0.5678
  999MOL0     H34812   9.661   2.082   8.023  1.1352 -0.0131  0.6593
  999MOL0     H34813   9.783   2.193   7.960  0.0165 -1.3237  0.9416
  999MOL0     H34814   9.545   2.093   7.802  1.2433 -0.2690 -1.7563
  999MOL0     H34815   9.643   2.219   7.747 -2.3458 -1.0703 -2.1914
  999MOL0     H34816   9.733   1.892   7.929 -4.4085 -0.7977 -2.1625
  999MOL0     H34817   9.992   1.732   7.916  0.9714  0.5318  0.1044
  999MOL0     H34818   9.925   1.672   7.763  0.8144  1.1867 -2.9654
  999MOL0     H34819  10.094   1.751   7.635  1.0496  0.8092 -0.7996
  999MOL0     H34820  10.135   1.883   7.745 -0.8076 -0.0124  1.3198
  999MOL0     H34821  10.230   1.598   7.814  2.6421 -0.2028  0.1051
  999MOL0     H34822  10.244   1.751   7.906  2.1530 -0.7755  0.0045
  999MOL0     H34823  10.436   1.725   7.799 -0.5526 -2.9697 -0.9184
  999MOL0     H34824  10.352   1.849   7.699 -3.2226  0.5493 -0.5919
  999MOL0     H34825  10.592   1.845   7.684 -1.6145 -0.6267  0.5557
  999MOL0     H34826  10.793   1.862   7.570  0.0916  0.5944 -0.8808
  999MOL0     H34827  11.057   1.936   7.193  0.5051 -0.2493 -2.6270
  999MOL0     H34828  11.293   1.935   7.112  0.7551 -1.4222 -0.9702
  999MOL0     H34829  11.584   1.661   7.307 -2.6535 -1.8396  0.7966
  999MOL0     H34830  11.531   1.565   7.170 -0.1513  0.5535 -2.1926
  999MOL0     H34831  11.757   1.622   7.188 -1.3840 -1.2962  0.1646
  999MOL0     H34832  11.686   1.663   7.028  0.5944 -1.7243  0.5872
  999MOL0     H34833  11.697   1.913   7.106 -1.5612  0.1024  1.7049
  999MOL0     H34834  11.772   1.861   7.249 -0.3183  1.8481 -0.4887
  999MOL0     H34835  11.875   1.841   6.965  1.7823 -0.9064 -1.1580
  999MOL0     H34836  11.955   1.756   7.089  0.5307  0.5034 -1.1791
  999MOL0     H34837  11.954   2.007   7.219 -1.4537  2.5709  0.5601
  999MOL0     H34838  11.886   2.055   7.069  1.3073  0.9866 -1.2648
  999MOL0     H34839  12.156   1.910   7.097  0.8735  1.1833 -0.0466
  999MOL0     H34840  12.088   1.961   6.950 -0.8208  1.2321  0.0120
  999MOL0     H34841  12.168   2.118   7.202 -1.4031  1.0554  0.7055
  999MOL0     H34842  12.081   2.204   7.078  0.4800  0.5535  2.7069
  999MOL0     H34843  12.341   2.038   7.009  1.5568 -0.3934 -1.1664
  999MOL0     H34844  12.267   2.162   6.908 -0.5297 -1.2846  0.2855
  999MOL0     H34845  11.385   1.609   7.368 -0.3463 -0.6469 -4.0897
  999MOL0     H34846  11.169   1.609   7.467 -0.7516  2.0329  1.4484
  999MOL0     H34847  10.662   1.599   7.261 -0.1044 -2.0691  0.6351
  999MOL0     H34848  10.452   1.568   7.382 -0.2942  0.1233  0.4527
  999MOL0     H34849   9.275   2.787   7.930  0.4780 -0.7079  0.8569
  999MOL0     H34850   9.063   2.894   7.868  1.8307 -1.5521 -0.2446
  999MOL0     H34851   8.878   3.120   7.700  1.0939  0.3759  1.7090
  999MOL0     H34852   8.685   3.180   7.565 -3.6715 -1.6694  0.5511
  999MOL0     H34853   8.486   3.241   7.455  2.6314 -1.1431  1.2702
  999MOL0     H34854   8.595   3.372   7.461 -0.9629 -2.2148 -1.0927
  999MOL0     H34855   8.417   3.442   7.319  0.4645 -0.0947  0.1009
  999MOL0     H34856   8.403   3.538   7.461  1.7255 -0.0652 -1.4845
  999MOL0     H34857   8.221   3.358   7.541 -1.8336 -0.5689 -0.7294
  999MOL0     H34858   8.256   3.274   7.387 -0.8368  0.6052 -1.9208
  999MOL0     H34859   8.153   3.556   7.398  0.0491 -0.7972  2.0508
  999MOL0     H34860   8.193   3.464   7.253 -1.3603  3.8405 -0.0459
  999MOL0     H34861   7.840   3.262   7.319 -0.2291  0.1770  0.2810
  999MOL0     H34862   8.514   3.405   7.895 -0.9615  0.2607  0.3897
  999MOL0     H34863   8.697   3.256   8.149 -1.9752 -0.7037  0.4367
  999MOL0     H34864   8.731   3.423   8.095 -1.6579  0.7458  0.1318
  999MOL0     H34865   8.567   3.369   8.098  0.2585 -0.6901  0.5152
 1000MOL0     O34866  10.907   9.510   7.206 -0.3472 -0.3473 -0.3692
 1000MOL0     C34867  10.841   9.592   7.142  0.2818  0.4032 -0.7814
 1000MOL0     O34868  10.886   9.712   7.099 -0.0015  0.0215  0.5096
 1000MOL0     C34869  11.013   9.751   7.137 -0.1528  1.1381 -0.1488
 1000MOL0     C34870  11.129   9.677   7.089  0.3467 -0.0812 -0.1489
 1000MOL0     C34871  11.252   9.729   7.102  0.7509  0.2451  0.3398
 1000MOL0     C34872  11.263   9.855   7.175 -0.2413  0.2385 -0.0906
 1000MOL0     O34873  11.381   9.909   7.216 -0.4344  0.2839 -0.8212
 1000MOL0     C34874  11.511   9.853   7.177  0.4990 -0.2176  0.6090
 1000MOL0     C34875  11.610   9.966   7.190 -0.1167  0.1430  0.1441
 1000MOL0     C34876  11.755   9.933   7.154  0.3639 -0.3984 -0.3148
 1000MOL0     C34877  11.761   9.843   7.030  0.4427  0.3217 -0.9823
 1000MOL0     C34878  11.900   9.833   6.977 -0.4769  0.1901  0.3795
 1000MOL0     C34879  11.990   9.756   7.071  0.1675 -0.1224  0.8835
 1000MOL0     C34880  12.123   9.700   6.999  0.5195  0.2413  0.3115
 1000MOL0     C34881  12.220   9.814   6.950  0.1466 -0.4918  0.7596
 1000MOL0     N34882  12.318   9.859   7.049  0.6600 -0.0866  0.4086
 1000MOL0     C34883  12.419   9.782   7.090 -0.3749  0.0503 -0.5951
 1000MOL0     C34884  12.488   9.857   7.177  0.0597 -0.3487 -0.5378
 1000MOL0     C34885  12.606   9.827   7.261 -0.5689 -0.2752 -0.5113
 1000MOL0     C34886  12.735   9.820   7.171 -0.2664  0.1451  0.8511
 1000MOL0     C34887  12.856   9.829   7.249  0.3126  1.0589  0.0264
 1000MOL0     C34888  12.971   9.808   7.156 -0.0818 -0.7654  0.3789
 1000MOL0     O34889  13.085   9.789   7.239 -1.0815 -0.1849 -0.5345
 1000MOL0     C34890  13.207   9.759   7.182  0.3500  0.2320  0.0066
 1000MOL0     C34891  13.305   9.741   7.276 -0.1366  0.4183  0.6355
 1000MOL0     C34892  13.436   9.725   7.241 -1.0764 -0.3915 -0.3195
 1000MOL0     C34893  13.480   9.742   7.105 -0.0416  1.1415 -0.0300
 1000MOL0     C34894  13.624   9.734   7.071 -0.2946 -0.0388 -0.0211
 1000MOL0     O34895  13.645   9.706   6.940  0.3109 -0.4950 -0.4990
 1000MOL0     C34896  13.774   9.707   6.883 -0.8330  0.6557 -0.0345
 1000MOL0     C34897  13.879   9.644   6.953 -0.3257  0.6561  0.4133
 1000MOL0     C34898  14.004   9.641   6.895 -0.0098 -0.2477  0.8648
 1000MOL0     C34899  14.014   9.674   6.757 -0.1623  0.2842  0.8820
 1000MOL0     O34900  14.126   9.675   6.676  0.2730 -0.7078  0.2400
 1000MOL0     C34901  14.238   9.597   6.723  0.0694  0.4547 -0.0627
 1000MOL0     C34902  14.333   9.586   6.609  0.3944 -0.5654 -0.0794
 1000MOL0     C34903  14.449   9.501   6.662 -0.5034  0.1342 -0.4158
 1000MOL0     C34904  14.562   9.504   6.552  0.4770  0.4710  0.1321
 1000MOL0     C34905  14.686   9.430   6.600  0.2327  0.3749 -0.2760
 1000MOL0     C34906  14.791   9.430   6.496 -0.0097 -0.2861  0.0103
 1000MOL0     C34907  14.907   9.336   6.530  0.2580 -1.1574 -0.3067
 1000MOL0     C34908  15.022   9.343   6.423  0.9028 -0.3430  0.9525
 1000MOL0    Cl34909  14.961   9.312   6.256  0.6726  0.4716 -0.1783
 1000MOL0     C34910  13.902   9.732   6.688  0.2957  0.1676  0.6675
 1000MOL0     C34911  13.784   9.753   6.755  0.9675  0.1318  0.5161
 1000MOL0     O34912  13.709   9.743   7.155  0.7101  0.2335 -0.0714
 1000MOL0     C34913  13.385   9.784   7.013  0.9781 -0.9452  0.0814
 1000MOL0     C34914  13.250   9.791   7.052  0.0395 -0.5484 -0.2683
 1000MOL0     N34915  12.425   9.982   7.193  0.6235  0.2305  0.0401
 1000MOL0     N34916  12.324   9.980   7.112 -0.2762  0.2322 -0.0981
 1000MOL0     C34917  11.151   9.922   7.221  0.4086  0.0344 -0.1510
 1000MOL0     C34918  11.023   9.872   7.191 -0.1007  0.5651 -0.2864
 1000MOL0     C34919  10.695   9.569   7.120 -0.3050 -0.3221  0.0254
 1000MOL0     C34920  10.643   9.657   7.021 -0.3133  0.5033  0.3054
 1000MOL0     C34921  10.514   9.648   6.987  0.0229 -0.2844  0.0450
 1000MOL0     C34922  10.426   9.559   7.054 -0.3809  0.2391 -0.1494
 1000MOL0     O34923  10.298   9.559   7.009 -1.1716  0.5881 -0.6111
 1000MOL0     C34924  10.202   9.475   7.082 -0.2982  0.5765 -0.4702
 1000MOL0     C34925  10.067   9.481   7.006 -0.4519  0.5495  0.3027
 1000MOL0     C34926   9.991   9.614   7.024  0.1944 -0.1631  0.4617
 1000MOL0     C34927   9.840   9.608   6.999  0.0714 -0.4178  0.5029
 1000MOL0     C34928   9.793   9.563   6.868  0.8352 -0.4435  0.3136
 1000MOL0     C34929   9.718   9.546   6.773 -0.0353 -0.6031 -0.6086
 1000MOL0     C34930  10.482   9.472   7.150 -0.2149 -0.3805  0.5297
 1000MOL0     C34931  10.619   9.475   7.187  0.1023  0.3593  0.0737
 1000MOL0     C34932  10.667   9.381   7.288 -0.2366 -0.1602 -0.7158
 1000MOL0     H34933  11.107   9.582   7.042  1.0736 -0.1223 -0.4097
 1000MOL0     H34934  11.336   9.683   7.051 -0.3234 -0.8832 -0.4507
 1000MOL0     H34935  11.541   9.772   7.244 -0.7447 -0.6236  0.7045
 1000MOL0     H34936  11.520   9.822   7.072  1.3468  1.5191  0.1365
 1000MOL0     H34937  11.606  10.029   7.280 -0.4111  0.2844  0.0341
 1000MOL0     H34938  11.574  10.038   7.115  2.5260  1.2752 -0.1760
 1000MOL0     H34939  11.802   9.890   7.243 -2.1813 -1.1172  0.7857
 1000MOL0     H34940  11.811  10.023   7.125 -0.1503 -0.9864 -3.4230
 1000MOL0     H34941  11.731   9.741   7.057 -3.0570  1.8078  1.4842
 1000MOL0     H34942  11.695   9.878   6.950  1.4930  0.6035 -1.7621
 1000MOL0     H34943  11.899   9.781   6.881 -1.0537  0.7575  0.0648
 1000MOL0     H34944  11.950   9.929   6.959  0.5656 -0.7722 -2.1917
 1000MOL0     H34945  12.029   9.816   7.153  3.5670 -0.5947 -0.2250
 1000MOL0     H34946  11.941   9.665   7.107 -0.1682  0.3992  1.7694
 1000MOL0     H34947  12.092   9.643   6.911  1.4312  2.0858 -1.2743
 1000MOL0     H34948  12.173   9.632   7.069  1.6354  0.3404 -0.3599
 1000MOL0     H34949  12.281   9.775   6.867 -0.2175  0.8547 -0.1812
 1000MOL0     H34950  12.161   9.895   6.906 -1.6766 -2.6921 -1.1017
 1000MOL0     H34951  12.451   9.680   7.066  0.0576  0.0301  0.0494
 1000MOL0     H34952  12.614   9.905   7.337  1.1483  1.5870 -2.4528
 1000MOL0     H34953  12.588   9.732   7.312 -1.4731  0.6395  0.9122
 1000MOL0     H34954  12.728   9.729   7.112 -2.2650 -1.2732  3.0824
 1000MOL0     H34955  12.733   9.892   7.089  1.9211 -1.2117 -0.4864
 1000MOL0     H34956  12.850   9.748   7.322 -1.8612 -0.8146 -2.0468
 1000MOL0     H34957  12.851   9.927   7.296 -0.9049  1.1168 -0.1848
 1000MOL0     H34958  12.980   9.896   7.091  0.7120 -2.2855 -1.6779
 1000MOL0     H34959  12.963   9.714   7.100  2.1432 -1.4396  1.0954
 1000MOL0     H34960  13.264   9.735   7.377 -0.3844  1.9254  0.6411
 1000MOL0     H34961  13.505   9.701   7.321 -0.2548  2.2267 -0.1658
 1000MOL0     H34962  13.871   9.609   7.056  1.5109 -0.5256  0.1888
 1000MOL0     H34963  14.094   9.623   6.952  1.0258  0.6209 -0.4486
 1000MOL0     H34964  14.290   9.652   6.802  0.4006 -0.2789  0.2385
 1000MOL0     H34965  14.198   9.502   6.759  2.4018 -0.5642  0.0303
 1000MOL0     H34966  14.284   9.532   6.527  0.8218  0.6747 -1.1739
 1000MOL0     H34967  14.359   9.681   6.562 -1.9502  0.8957  1.4034
 1000MOL0     H34968  14.483   9.549   6.755  0.6977 -2.1669  0.3998
 1000MOL0     H34969  14.416   9.398   6.679  1.0793 -0.2622  0.4546
 1000MOL0     H34970  14.578   9.610   6.530 -1.8816  0.2267 -3.8310
 1000MOL0     H34971  14.526   9.468   6.455 -0.1982 -0.1299  0.5923
 1000MOL0     H34972  14.665   9.328   6.631  0.7742 -0.0582 -1.2767
 1000MOL0     H34973  14.726   9.481   6.689  2.9602 -0.0383 -1.1565
 1000MOL0     H34974  14.744   9.387   6.407 -0.0124  0.1543 -0.2032
 1000MOL0     H34975  14.837   9.527   6.476  1.1410 -0.9999 -0.9229
 1000MOL0     H34976  14.872   9.236   6.555 -0.5794 -0.8249 -0.1118
 1000MOL0     H34977  14.956   9.376   6.620 -2.6844  0.7338  0.6114
 1000MOL0     H34978  15.062   9.444   6.421 -0.3998  0.1944 -1.0913
 1000MOL0     H34979  15.104   9.273   6.440 -0.7387 -3.3035 -1.8807
 1000MOL0     H34980  13.903   9.772   6.587  1.0963 -2.5168 -0.4678
 1000MOL0     H34981  13.692   9.782   6.704  1.7823  3.2736  0.5970
 1000MOL0     H34982  13.416   9.793   6.909 -3.4033 -3.2940 -1.6736
 1000MOL0     H34983  13.172   9.803   6.978 -0.3418  0.1696  0.2416
 1000MOL0     H34984  11.166  10.008   7.286  1.9991  0.0400 -0.4994
 1000MOL0     H34985  10.938   9.908   7.249 -0.9711 -2.3455  0.3786
 1000MOL0     H34986  10.701   9.731   6.967 -0.1674 -0.1999 -0.5266
 1000MOL0     H34987  10.477   9.708   6.904  2.6100  1.0437 -0.2647
 1000MOL0     H34988  10.194   9.519   7.182  2.6860  0.0322  0.0878
 1000MOL0     H34989  10.233   9.372   7.104 -0.1004  0.5990 -0.6389
 1000MOL0     H34990  10.009   9.403   7.057 -0.3392 -0.5284 -1.1610
 1000MOL0     H34991  10.072   9.448   6.902 -0.3909 -0.6470  0.6684
 1000MOL0     H34992  10.035   9.692   6.961 -1.9525  0.1376 -0.7685
 1000MOL0     H34993  10.014   9.642   7.127 -2.5065 -1.9245  1.6538
 1000MOL0     H34994   9.794   9.546   7.076 -0.8753 -0.5029 -0.1226
 1000MOL0     H34995   9.799   9.708   7.016 -1.2487 -1.0903  1.4619
 1000MOL0     H34996   9.645   9.548   6.695 -1.5697  3.6128  0.6505
 1000MOL0     H34997  10.413   9.411   7.207 -1.1478 -1.7870 -1.9780
 1000MOL0     H34998  10.731   9.306   7.241 -0.1705 -1.0754  0.7623
 1000MOL0     H34999  10.728   9.433   7.362  0.3489 -2.1445  0.2791
 1000MOL0     H35000  10.589   9.334   7.348 -0.2999 -0.1414 -0.7825
 1001MOL0     O35001   8.791   9.146   3.215 -0.1825 -0.4969  0.3305
 1001MOL0     C35002   8.699   9.165   3.136 -0.6302 -0.1078 -0.6266
 1001MOL0     O35003   8.672   9.292   3.081 -0.4531 -0.4893 -0.2303
 1001MOL0     C35004   8.736   9.394   3.140  0.5300 -0.1210 -0.4781
 1001MOL0     C35005   8.868   9.420   3.102 -0.3545 -0.0071 -0.1806
 1001MOL0     C35006   8.943   9.504   3.170 -0.0710 -0.0976 -0.6181
 1001MOL0     C35007   8.888   9.588   3.268 -0.0384  0.0897 -0.3361
 1001MOL0     O35008   8.936   9.687   3.351 -0.5666 -0.1339  0.0690
 1001MOL0     C35009   9.073   9.717   3.307  0.7389 -0.0179  0.4417
 1001MOL0     C35010   9.109   9.844   3.381  0.2182 -0.9814 -0.2550
 1001MOL0     C35011   9.103   9.824   3.539  0.4047  0.4792 -0.1725
 1001MOL0     C35012   9.137   9.956   3.613  0.4612 -0.0244 -0.0972
 1001MOL0     C35013   9.282  10.001   3.608  1.2115  0.2188  0.2453
 1001MOL0     C35014   9.398   9.896   3.645 -0.4781 -0.9339 -1.2793
 1001MOL0     C35015   9.537   9.958   3.613  0.1013 -0.4816 -0.7925
 1001MOL0     C35016   9.654   9.878   3.639  0.1135 -0.3987 -0.3320
 1001MOL0     N35017   9.666   9.837   3.777 -0.4858 -0.1160 -0.7903
 1001MOL0     C35018   9.689   9.940   3.875 -0.1295 -0.1854  0.5358
 1001MOL0     C35019   9.664   9.868   3.987  0.2105 -0.0604  0.4284
 1001MOL0     C35020   9.652   9.929   4.126 -0.1054  1.1686  0.2389
 1001MOL0     C35021   9.774   9.904   4.221 -0.5237  0.3151  0.5309
 1001MOL0     C35022   9.905   9.967   4.176  0.8963  0.6435  0.6547
 1001MOL0     C35023  10.021   9.948   4.271 -0.0418  0.4029 -0.8395
 1001MOL0     O35024  10.113  10.048   4.224 -1.4786 -0.5453  0.1440
 1001MOL0     C35025  10.247  10.044   4.259  0.0336 -0.7323 -0.2912
 1001MOL0     C35026  10.294   9.951   4.350  0.5374  0.4089 -0.5189
 1001MOL0     C35027  10.437   9.945   4.381  0.7103 -0.4901  0.3436
 1001MOL0     C35028  10.535  10.026   4.319  0.3984  0.6969  0.0006
 1001MOL0     C35029  10.678  10.019   4.351  0.1424  0.0130  0.4265
 1001MOL0     O35030  10.745  10.127   4.312 -0.0766 -1.2071 -0.0286
 1001MOL0     C35031  10.887  10.120   4.323  1.2089 -0.4534  0.6729
 1001MOL0     C35032  10.963  10.202   4.235 -0.2441 -0.2606  0.3937
 1001MOL0     C35033  11.101  10.221   4.253 -0.6518  0.8879  0.0667
 1001MOL0     C35034  11.174  10.136   4.342  0.4205  0.1551 -0.7110
 1001MOL0     O35035  11.307  10.152   4.355  0.0366  0.9466  0.2321
 1001MOL0     C35036  11.382  10.031   4.390  0.0364  0.7913 -0.3952
 1001MOL0     C35037  11.527  10.056   4.369 -0.3445 -0.1968 -0.0810
 1001MOL0     C35038  11.573  10.176   4.460 -0.2526 -0.3789 -0.1048
 1001MOL0     C35039  11.719  10.198   4.425 -0.7989 -0.0153  0.5615
 1001MOL0     C35040  11.784  10.333   4.476 -0.4481  0.0531 -0.4439
 1001MOL0     C35041  11.764  10.448   4.378 -0.4627 -0.3769  0.3779
 1001MOL0     C35042  11.805  10.584   4.438 -0.4069 -0.0549 -0.7308
 1001MOL0     C35043  11.919  10.659   4.368 -0.9374  0.7091  0.7795
 1001MOL0    Cl35044  12.069  10.565   4.398 -0.2547 -0.0300 -0.1637
 1001MOL0     C35045  11.096  10.060   4.436 -0.1155  0.2731 -0.0547
 1001MOL0     C35046  10.955  10.059   4.425 -0.0163  0.1399 -0.6174
 1001MOL0     O35047  10.717   9.910   4.394  0.2852  0.2138  0.6263
 1001MOL0     C35048  10.477  10.118   4.221  0.2971  0.1741  0.1473
 1001MOL0     C35049  10.344  10.122   4.192  0.1638 -0.4824 -0.6530
 1001MOL0     N35050   9.648   9.737   3.963  0.1676  0.1588 -0.4414
 1001MOL0     N35051   9.662   9.709   3.835  0.7518 -0.1466  0.4031
 1001MOL0     C35052   8.756   9.558   3.305 -0.8304  0.1861 -0.2802
 1001MOL0     C35053   8.676   9.461   3.241  0.2590 -0.3417  0.1023
 1001MOL0     C35054   8.614   9.052   3.098  0.4304  0.1361  0.1546
 1001MOL0     C35055   8.515   9.084   3.006 -0.2101  0.1105  0.6718
 1001MOL0     C35056   8.431   8.987   2.945  0.0324 -1.3392 -0.1194
 1001MOL0     C35057   8.427   8.861   2.997 -0.2648  0.6583  0.4082
 1001MOL0     O35058   8.360   8.754   2.941  0.4264 -0.5854 -0.2103
 1001MOL0     C35059   8.260   8.774   2.835 -1.1894  0.8573  0.2484
 1001MOL0     C35060   8.179   8.643   2.803  0.0904  0.3435 -0.3451
 1001MOL0     C35061   8.068   8.676   2.695 -0.7632  0.0119 -0.0088
 1001MOL0     C35062   8.002   8.540   2.650  0.1762  0.0163  0.3152
 1001MOL0     C35063   7.864   8.529   2.690 -0.1415 -0.0898  0.6668
 1001MOL0     C35064   7.744   8.519   2.725  0.0531  0.7804 -0.5233
 1001MOL0     C35065   8.515   8.828   3.098  0.2158  0.1683 -0.7665
 1001MOL0     C35066   8.611   8.918   3.147 -0.3927  0.0857  0.8497
 1001MOL0     C35067   8.725   8.864   3.239  0.2527  0.1906  0.0007
 1001MOL0     H35068   8.918   9.358   3.028  3.7189  1.3817  1.1439
 1001MOL0     H35069   9.049   9.522   3.150  0.0327  1.3288  0.9262
 1001MOL0     H35070   9.153   9.650   3.339  0.9329  0.1632  0.3388
 1001MOL0     H35071   9.075   9.734   3.199 -1.3832  1.2172  0.5383
 1001MOL0     H35072   9.053   9.931   3.346  2.9536  1.5227  1.1009
 1001MOL0     H35073   9.211   9.879   3.361 -0.5835  2.1567  0.5543
 1001MOL0     H35074   9.167   9.740   3.568 -0.1434 -0.3272 -1.2262
 1001MOL0     H35075   9.000   9.795   3.559 -0.1183  1.4292 -1.3882
 1001MOL0     H35076   9.086  10.045   3.575  0.1334  0.4712  1.4230
 1001MOL0     H35077   9.106   9.952   3.717 -2.5829  3.5130 -0.6539
 1001MOL0     H35078   9.301  10.026   3.503  0.6409  1.9343  0.5159
 1001MOL0     H35079   9.301  10.099   3.653  1.7525  0.1423  0.1982
 1001MOL0     H35080   9.388   9.848   3.742  0.2794  0.9579 -0.2022
 1001MOL0     H35081   9.387   9.812   3.576 -0.0368 -2.7121  0.7148
 1001MOL0     H35082   9.542  10.048   3.676 -0.1765 -0.3806 -0.9136
 1001MOL0     H35083   9.538   9.986   3.507  1.3446 -3.0502 -1.5247
 1001MOL0     H35084   9.653   9.793   3.569  0.3449  0.0858 -0.9281
 1001MOL0     H35085   9.742   9.939   3.616  0.3194 -0.5108  0.1382
 1001MOL0     H35086   9.687  10.048   3.870 -2.3036 -0.1773  0.3653
 1001MOL0     H35087   9.647  10.037   4.111  0.0468  0.9640 -1.5758
 1001MOL0     H35088   9.567   9.894   4.185 -0.9542  0.8562 -1.1185
 1001MOL0     H35089   9.748   9.954   4.314 -1.9520 -3.9470  2.6943
 1001MOL0     H35090   9.788   9.796   4.229 -0.7709  0.2349 -0.0195
 1001MOL0     H35091   9.890  10.073   4.155  1.1379  0.4873 -0.3602
 1001MOL0     H35092   9.931   9.930   4.076 -2.4841  4.1746 -1.8630
 1001MOL0     H35093  10.073   9.852   4.269  0.6460  0.6282  2.0575
 1001MOL0     H35094   9.991   9.972   4.373 -0.4823 -0.7364 -0.6871
 1001MOL0     H35095  10.232   9.896   4.421  0.9940  1.3763  0.6692
 1001MOL0     H35096  10.465   9.876   4.460 -3.2185 -1.5997  0.9618
 1001MOL0     H35097  10.914  10.267   4.163 -1.9048  0.0098  1.7209
 1001MOL0     H35098  11.165  10.293   4.205 -1.2078 -0.2457 -2.5449
 1001MOL0     H35099  11.365   9.995   4.492  0.4892  1.0041 -0.2421
 1001MOL0     H35100  11.356   9.951   4.321 -2.3594  0.6494  0.5828
 1001MOL0     H35101  11.581   9.965   4.398 -1.3130 -0.0849  2.2210
 1001MOL0     H35102  11.536  10.078   4.262  0.4163  1.4347  0.2860
 1001MOL0     H35103  11.516  10.268   4.443  1.1658  0.3082 -1.4737
 1001MOL0     H35104  11.568  10.156   4.567  0.0508  0.1969  0.0189
 1001MOL0     H35105  11.720  10.206   4.316  1.1747  0.4042  0.5795
 1001MOL0     H35106  11.776  10.110   4.456  0.0509 -0.0465 -0.9704
 1001MOL0     H35107  11.892  10.330   4.496 -0.6265 -0.0413  0.6037
 1001MOL0     H35108  11.740  10.346   4.576  1.3403 -0.7584  0.4911
 1001MOL0     H35109  11.812  10.428   4.282 -0.7710  2.1930 -0.3735
 1001MOL0     H35110  11.659  10.466   4.353  0.8182  3.2091 -3.4515
 1001MOL0     H35111  11.829  10.570   4.544 -1.3561 -0.2249 -0.5308
 1001MOL0     H35112  11.716  10.647   4.439 -2.1189 -2.2977  1.3426
 1001MOL0     H35113  11.892  10.675   4.263 -0.4501  2.8408  0.9409
 1001MOL0     H35114  11.940  10.761   4.400  3.2078  0.0183  0.7624
 1001MOL0     H35115  11.139   9.998   4.513 -0.9948 -1.2569 -0.7501
 1001MOL0     H35116  10.887  10.011   4.496 -0.6473  0.3629 -1.0589
 1001MOL0     H35117  10.547  10.180   4.166  0.1685 -0.8244 -1.1962
 1001MOL0     H35118  10.312  10.181   4.106  1.6386 -1.8613 -2.2134
 1001MOL0     H35119   8.721   9.620   3.387  0.3016  0.5249 -0.0365
 1001MOL0     H35120   8.576   9.433   3.273  0.4686 -0.5218  0.6158
 1001MOL0     H35121   8.506   9.184   2.965 -2.1344 -1.0589 -2.1350
 1001MOL0     H35122   8.361   9.023   2.870  0.5047  1.2241  0.5502
 1001MOL0     H35123   8.311   8.804   2.743  3.0374  1.1867  2.4271
 1001MOL0     H35124   8.191   8.856   2.857 -1.0812  0.5215  2.0226
 1001MOL0     H35125   8.126   8.592   2.883  0.2677 -1.8215 -1.5495
 1001MOL0     H35126   8.254   8.573   2.765  1.9529 -0.1641  3.7187
 1001MOL0     H35127   8.112   8.725   2.608 -2.3431  2.0731  0.2744
 1001MOL0     H35128   7.995   8.749   2.732  0.8351  4.1271 -3.9751
 1001MOL0     H35129   8.015   8.524   2.542 -1.6789 -0.7778  0.1740
 1001MOL0     H35130   8.049   8.456   2.702 -0.2882  0.4062  1.3870
 1001MOL0     H35131   7.640   8.524   2.749 -0.8740 -0.6813 -3.7022
 1001MOL0     H35132   8.511   8.725   3.130 -0.3114  0.8023  1.4358
 1001MOL0     H35133   8.689   8.885   3.340 -0.6950 -3.1199  0.4608
 1001MOL0     H35134   8.735   8.756   3.244  0.8026  0.2963  1.7190
 1001MOL0     H35135   8.822   8.910   3.216 -0.6997  3.5020  1.8950
 1002MOL0     O35136   4.204   0.964   6.454  0.2092  0.1468  0.0167
 1002MOL0     C35137   4.239   1.065   6.399 -0.3767  0.3354  0.0007
 1002MOL0     O35138   4.190   1.186   6.419  0.6157  0.5913 -0.3050
 1002MOL0     C35139   4.085   1.195   6.509  0.0236 -1.1459  0.5179
 1002MOL0     C35140   4.104   1.215   6.646  0.5012  0.1729  0.5828
 1002MOL0     C35141   3.999   1.226   6.735 -0.6242  0.0509 -0.2350
 1002MOL0     C35142   3.866   1.187   6.692 -0.6113 -0.8545 -0.2581
 1002MOL0     O35143   3.758   1.202   6.770  0.3826 -0.3752  0.6871
 1002MOL0     C35144   3.776   1.239   6.914 -0.6645  0.1788  0.0236
 1002MOL0     C35145   3.653   1.237   6.994 -0.4504 -0.7593  0.2075
 1002MOL0     C35146   3.529   1.163   6.941  0.0931 -0.2403 -0.1221
 1002MOL0     C35147   3.413   1.167   7.035  0.0738 -0.1578  0.1637
 1002MOL0     C35148   3.326   1.044   7.033  0.6302 -1.0458 -0.5347
 1002MOL0     C35149   3.217   1.061   7.144 -0.6289 -0.0030  0.5833
 1002MOL0     C35150   3.131   0.939   7.156 -0.1586  1.1588  0.4615
 1002MOL0     C35151   3.010   0.967   7.241 -0.1673 -0.2297 -0.4967
 1002MOL0     N35152   2.907   0.859   7.240  0.8233  0.3271  0.0194
 1002MOL0     C35153   2.921   0.731   7.281 -0.3283 -0.3426  0.3522
 1002MOL0     C35154   2.799   0.675   7.263 -0.7090  0.8925  0.3499
 1002MOL0     C35155   2.772   0.535   7.301  0.2380  0.0517 -0.5959
 1002MOL0     C35156   2.814   0.502   7.445 -0.0537  0.2635 -0.0406
 1002MOL0     C35157   2.741   0.588   7.550 -0.3468  0.8382  0.2040
 1002MOL0     C35158   2.788   0.567   7.688 -0.6870 -0.4983 -0.5380
 1002MOL0     O35159   2.895   0.657   7.727  0.6787 -0.2129 -0.4474
 1002MOL0     C35160   3.023   0.612   7.741  0.6869 -0.1051 -0.6211
 1002MOL0     C35161   3.080   0.498   7.684 -0.5884 -0.2107 -0.3686
 1002MOL0     C35162   3.217   0.464   7.709 -0.3753 -0.4979 -0.1175
 1002MOL0     C35163   3.294   0.543   7.794 -0.1504 -0.0281 -0.5226
 1002MOL0     C35164   3.431   0.514   7.829  0.5582  0.4541 -0.0802
 1002MOL0     O35165   3.490   0.405   7.763 -0.5520  0.2021 -0.0443
 1002MOL0     C35166   3.630   0.386   7.766  0.9954 -0.2710 -0.4441
 1002MOL0     C35167   3.674   0.257   7.806  0.1622 -0.6633 -0.7492
 1002MOL0     C35168   3.808   0.225   7.810  0.0251 -0.4754 -0.8542
 1002MOL0     C35169   3.907   0.318   7.776 -0.3683  0.2681 -1.0420
 1002MOL0     O35170   4.028   0.267   7.762 -0.2265  0.0114 -0.0621
 1002MOL0     C35171   4.144   0.351   7.768 -0.1572 -0.1725  0.2674
 1002MOL0     C35172   4.274   0.275   7.747  0.4708  0.9085 -0.6242
 1002MOL0     C35173   4.312   0.265   7.597  0.1037 -0.1653 -0.5333
 1002MOL0     C35174   4.457   0.199   7.579 -0.4848 -0.4620 -0.1263
 1002MOL0     C35175   4.464   0.049   7.606 -0.4559 -0.5643 -0.2008
 1002MOL0     C35176   4.605   0.007   7.646  0.3697  0.0553  0.2451
 1002MOL0     C35177   4.719   0.025   7.546  0.1328  0.6563  0.6868
 1002MOL0     C35178   4.699  -0.009   7.402  0.3955  0.0711  0.7125
 1002MOL0    Cl35179   4.632  -0.169   7.390 -0.1743 -0.6613  0.2566
 1002MOL0     C35180   3.861   0.452   7.735 -0.6796 -0.0815  0.2041
 1002MOL0     C35181   3.727   0.482   7.732  0.4802 -0.6717  0.3892
 1002MOL0     O35182   3.492   0.586   7.905 -0.1270 -0.4287 -0.4745
 1002MOL0     C35183   3.234   0.655   7.851  0.4752 -0.6356 -0.4761
 1002MOL0     C35184   3.103   0.691   7.828  0.7097  0.3749 -0.0926
 1002MOL0     N35185   2.719   0.767   7.201 -0.2381  0.5229 -0.5308
 1002MOL0     N35186   2.783   0.878   7.187  0.6469 -0.0674  0.4885
 1002MOL0     C35187   3.849   1.170   6.554 -0.4074 -0.7144  0.6898
 1002MOL0     C35188   3.952   1.174   6.466 -0.3514 -1.1081 -0.7048
 1002MOL0     C35189   4.358   1.044   6.310  0.4928 -0.3551 -0.4502
 1002MOL0     C35190   4.447   0.935   6.333  0.8936 -0.2624  0.2239
 1002MOL0     C35191   4.562   0.925   6.264 -0.2947 -0.1718  0.3053
 1002MOL0     C35192   4.602   1.024   6.170  0.6765 -0.5687 -0.0228
 1002MOL0     O35193   4.719   1.032   6.100 -0.0070 -0.3698  0.3351
 1002MOL0     C35194   4.839   0.979   6.153 -0.1475 -0.5853 -0.4708
 1002MOL0     C35195   4.922   1.098   6.180 -0.6257 -0.7137  0.8706
 1002MOL0     C35196   5.050   1.048   6.237 -0.5738  0.3909 -0.1164
 1002MOL0     C35197   5.150   1.165   6.256  0.9875  0.1577 -0.4419
 1002MOL0     C35198   5.268   1.116   6.328 -0.4575  0.6103 -0.3713
 1002MOL0     C35199   5.367   1.078   6.384  0.3005  0.4804  0.2514
 1002MOL0     C35200   4.517   1.127   6.133 -0.2822  0.5743  0.1046
 1002MOL0     C35201   4.389   1.135   6.203  0.7760  1.0134  0.4407
 1002MOL0     C35202   4.284   1.232   6.162 -0.4672 -0.0465 -0.0661
 1002MOL0     H35203   4.205   1.233   6.682  2.6250 -4.9637 -1.7969
 1002MOL0     H35204   4.027   1.250   6.838  0.0365 -1.4930 -0.0237
 1002MOL0     H35205   3.851   1.166   6.947 -1.5186 -0.5492  0.4209
 1002MOL0     H35206   3.820   1.337   6.930 -2.6405  1.0421  0.4540
 1002MOL0     H35207   3.609   1.337   7.006  0.1363 -0.3380 -0.9727
 1002MOL0     H35208   3.675   1.207   7.096 -3.7033  0.1325  1.2885
 1002MOL0     H35209   3.553   1.058   6.922  1.7893 -0.2123  1.6380
 1002MOL0     H35210   3.499   1.216   6.850 -2.1408 -0.3161  0.5095
 1002MOL0     H35211   3.451   1.185   7.136 -1.0528 -3.2676  1.2543
 1002MOL0     H35212   3.353   1.255   7.009  1.2313  0.3284 -0.9948
 1002MOL0     H35213   3.277   1.042   6.935 -1.7916 -0.8891  0.6042
 1002MOL0     H35214   3.377   0.950   7.055 -0.6343 -1.9235 -1.2015
 1002MOL0     H35215   3.271   1.077   7.238  1.5884 -0.5016 -0.5223
 1002MOL0     H35216   3.151   1.145   7.121 -0.1983  0.4096  0.8262
 1002MOL0     H35217   3.192   0.861   7.202  3.0003  3.1255 -0.0732
 1002MOL0     H35218   3.087   0.907   7.060  1.0507 -0.1205  0.3081
 1002MOL0     H35219   3.037   0.991   7.344 -1.0303  0.9276 -0.5148
 1002MOL0     H35220   2.966   1.063   7.210 -2.0044 -0.3239  1.5105
 1002MOL0     H35221   3.010   0.694   7.330  0.2843  0.1779 -0.3355
 1002MOL0     H35222   2.664   0.523   7.286 -0.1501 -1.5326  2.7260
 1002MOL0     H35223   2.808   0.458   7.232 -1.2436 -1.6054  0.3953
 1002MOL0     H35224   2.785   0.396   7.455 -3.6804  1.1774  0.6508
 1002MOL0     H35225   2.922   0.515   7.451  0.1943 -1.8944  1.2948
 1002MOL0     H35226   2.636   0.560   7.537 -0.2131 -0.0346  0.8963
 1002MOL0     H35227   2.745   0.694   7.522 -0.0314  0.9835  0.7754
 1002MOL0     H35228   2.815   0.464   7.710  1.8301 -0.0055 -1.0053
 1002MOL0     H35229   2.704   0.600   7.750  1.7650  2.8209  1.3320
 1002MOL0     H35230   3.020   0.432   7.623 -1.3585  0.3753 -0.2602
 1002MOL0     H35231   3.262   0.375   7.667 -0.0823  0.6306 -2.3896
 1002MOL0     H35232   3.598   0.180   7.818  0.5743 -0.9113  0.3345
 1002MOL0     H35233   3.834   0.122   7.834 -0.4368 -0.2007  1.0182
 1002MOL0     H35234   4.139   0.420   7.683 -0.6265 -0.7455 -0.1775
 1002MOL0     H35235   4.143   0.404   7.864 -3.1392 -0.5394  0.5306
 1002MOL0     H35236   4.360   0.317   7.799  0.8526 -0.6377  0.0637
 1002MOL0     H35237   4.265   0.174   7.787  2.1370  1.0469  0.1997
 1002MOL0     H35238   4.242   0.207   7.534  1.5460 -2.4962 -0.1107
 1002MOL0     H35239   4.312   0.367   7.558 -0.8795  0.5629  1.2834
 1002MOL0     H35240   4.526   0.243   7.652 -1.6632 -1.5226  1.6733
 1002MOL0     H35241   4.505   0.216   7.482  2.5190  1.2005  1.4724
 1002MOL0     H35242   4.436  -0.000   7.513 -2.1488  0.0510 -0.0449
 1002MOL0     H35243   4.394   0.030   7.688  1.7641 -1.2923  1.6271
 1002MOL0     H35244   4.631   0.058   7.739  0.0370  4.4719 -1.8324
 1002MOL0     H35245   4.608  -0.100   7.671  0.0749  0.0949  0.4487
 1002MOL0     H35246   4.800  -0.033   7.592 -1.6748 -2.4599  0.2308
 1002MOL0     H35247   4.742   0.132   7.546  0.3960  0.6164 -0.5950
 1002MOL0     H35248   4.629   0.058   7.350 -0.7558 -1.6279  0.0008
 1002MOL0     H35249   4.802  -0.007   7.366  0.7083 -0.1554  1.5794
 1002MOL0     H35250   3.932   0.530   7.708  1.1741 -1.1243  1.8018
 1002MOL0     H35251   3.685   0.581   7.715  2.1451  0.0186  0.0360
 1002MOL0     H35252   3.286   0.725   7.915  0.8795 -0.3645 -1.0940
 1002MOL0     H35253   3.055   0.776   7.875 -2.8207 -2.5014  2.0195
 1002MOL0     H35254   3.753   1.164   6.503 -0.4954  1.9291  0.4195
 1002MOL0     H35255   3.927   1.167   6.361  0.9810  2.6551 -1.4145
 1002MOL0     H35256   4.420   0.863   6.410  0.1099 -0.2048  0.0058
 1002MOL0     H35257   4.630   0.842   6.280  0.3929 -0.5279 -3.6580
 1002MOL0     H35258   4.882   0.908   6.081 -0.7847 -1.2598 -0.1976
 1002MOL0     H35259   4.820   0.929   6.248 -1.5967  0.8180  0.0318
 1002MOL0     H35260   4.869   1.169   6.246 -0.8392  0.6438 -0.6937
 1002MOL0     H35261   4.948   1.149   6.087  4.7873 -1.9492  1.4330
 1002MOL0     H35262   5.098   0.983   6.163 -3.0534 -0.1245 -1.3836
 1002MOL0     H35263   5.037   0.983   6.324  3.0310 -3.7529 -2.2461
 1002MOL0     H35264   5.179   1.215   6.163  2.8166  1.7649  0.9124
 1002MOL0     H35265   5.100   1.239   6.319  1.8324  1.2754 -1.0484
 1002MOL0     H35266   5.453   1.039   6.434  0.6569 -0.1772 -0.8384
 1002MOL0     H35267   4.543   1.199   6.057  1.9742  1.5368  1.6694
 1002MOL0     H35268   4.188   1.178   6.159  0.7468 -2.3093 -0.7922
 1002MOL0     H35269   4.279   1.324   6.221 -2.0000 -0.5058  0.5718
 1002MOL0     H35270   4.307   1.257   6.058 -0.3851 -2.6015 -0.7337
 1003MOL0     O35271  10.652   3.220  10.660 -0.7635  0.3905  0.7305
 1003MOL0     C35272  10.753   3.214  10.734 -0.8893  1.5603  0.2865
 1003MOL0     O35273  10.745   3.212  10.869  0.5036  0.1227 -0.3287
 1003MOL0     C35274  10.633   3.267  10.929 -0.2620  0.1271  0.3261
 1003MOL0     C35275  10.587   3.403  10.918 -0.4074  0.0913 -0.1407
 1003MOL0     C35276  10.474   3.438  10.988 -1.1423 -0.0408  0.1671
 1003MOL0     C35277  10.401   3.353  11.072 -0.1243  0.2934 -0.3162
 1003MOL0     O35278  10.298   3.394  11.160 -0.7049  0.0514 -0.7297
 1003MOL0     C35279  10.186   3.303  11.186 -0.4312 -0.1342  0.0370
 1003MOL0     C35280  10.085   3.382  11.263  0.7189  0.0540 -0.0025
 1003MOL0     C35281   9.966   3.294  11.315  0.4311  0.5111 -0.7278
 1003MOL0     C35282   9.940   3.300  11.465  0.1302  0.4579  0.4659
 1003MOL0     C35283  10.030   3.197  11.539 -0.4694 -0.4164 -0.1231
 1003MOL0     C35284   9.978   3.187  11.685  0.0691  0.3278  0.1171
 1003MOL0     C35285  10.070   3.093  11.756  1.0371  0.2006  0.4230
 1003MOL0     C35286  10.201   3.156  11.787  0.0462 -0.1986 -0.1188
 1003MOL0     N35287  10.268   3.080  11.895  0.3706 -0.3895  0.4319
 1003MOL0     C35288  10.325   2.961  11.885 -0.9767 -0.6017  0.1527
 1003MOL0     C35289  10.372   2.927  12.008  0.2692  0.0418 -0.4845
 1003MOL0     C35290  10.450   2.804  12.043 -0.0984 -0.4096  0.4590
 1003MOL0     C35291  10.601   2.824  12.021  0.8654  0.0321  0.1379
 1003MOL0     C35292  10.646   2.925  12.124  0.2805 -0.1073 -0.5411
 1003MOL0     C35293  10.789   2.965  12.114  0.6482 -0.7168 -0.1507
 1003MOL0     O35294  10.886   2.859  12.084 -0.1773 -0.7416 -0.0171
 1003MOL0     C35295  11.021   2.876  12.083  0.1551  0.8511 -0.1968
 1003MOL0     C35296  11.093   2.996  12.120  0.7388 -0.1560 -0.2721
 1003MOL0     C35297  11.225   3.003  12.114 -0.0913 -0.1837 -0.9696
 1003MOL0     C35298  11.303   2.893  12.064  0.3488 -0.4043 -0.9979
 1003MOL0     C35299  11.453   2.920  12.037  0.2578 -0.1464 -0.4085
 1003MOL0     O35300  11.500   3.046  12.077 -0.0179  0.5179  0.7625
 1003MOL0     C35301  11.634   3.072  12.063  0.0057  0.3832  0.3196
 1003MOL0     C35302  11.710   3.092  12.176 -0.8937  0.2970  0.3024
 1003MOL0     C35303  11.844   3.125  12.155 -0.3012  0.2735 -1.2355
 1003MOL0     C35304  11.902   3.144  12.027  1.3527  0.8040 -0.3925
 1003MOL0     O35305  12.029   3.172  12.006  0.4242  0.2023 -0.4762
 1003MOL0     C35306  12.103   3.232  12.113 -0.1034  0.1637  0.3448
 1003MOL0     C35307  12.231   3.301  12.071  0.3427 -0.0569 -0.3078
 1003MOL0     C35308  12.337   3.200  12.016  0.0793  0.3413  0.1969
 1003MOL0     C35309  12.466   3.282  11.988  0.4187 -0.0633  0.3453
 1003MOL0     C35310  12.581   3.185  11.977 -0.6177  1.0949  0.2458
 1003MOL0     C35311  12.708   3.248  11.916  0.4644 -0.0422 -0.4891
 1003MOL0     C35312  12.823   3.148  11.897  0.2563  0.6738  0.1919
 1003MOL0     C35313  12.940   3.208  11.827  0.6039 -0.5721 -0.4988
 1003MOL0    Cl35314  13.066   3.075  11.805  0.1531 -0.0316 -0.2945
 1003MOL0     C35315  11.819   3.114  11.915 -0.5105  0.2987 -0.2331
 1003MOL0     C35316  11.687   3.075  11.935 -0.9745  1.1173 -0.6922
 1003MOL0     O35317  11.517   2.827  11.980  0.3601  0.0062 -0.2764
 1003MOL0     C35318  11.242   2.775  12.041  0.2362  0.4301  0.2804
 1003MOL0     C35319  11.102   2.767  12.047  0.2455  0.1844 -0.3477
 1003MOL0     N35320  10.343   3.033  12.089 -0.4988  1.0018 -0.1579
 1003MOL0     N35321  10.273   3.117  12.026 -0.1559  0.4056  0.2150
 1003MOL0     C35322  10.448   3.220  11.078  0.0051  0.2646  0.0669
 1003MOL0     C35323  10.564   3.173  11.008 -0.8971 -0.1167 -0.8747
 1003MOL0     C35324  10.891   3.207  10.672 -0.3715  0.2133  0.2878
 1003MOL0     C35325  10.902   3.149  10.539 -0.6104 -0.0886 -0.4026
 1003MOL0     C35326  11.026   3.131  10.481  0.9038  0.8540  0.3694
 1003MOL0     C35327  11.131   3.177  10.544 -1.4840 -0.2341 -0.5319
 1003MOL0     O35328  11.257   3.162  10.490 -0.0920  0.5870  0.6620
 1003MOL0     C35329  11.270   3.102  10.365 -0.5102  0.6500  0.0900
 1003MOL0     C35330  11.415   3.057  10.340 -0.1318  0.0090 -0.4045
 1003MOL0     C35331  11.520   3.181  10.361 -0.1754  0.1098  0.3202
 1003MOL0     C35332  11.500   3.305  10.267  0.5120  1.0565  0.5539
 1003MOL0     C35333  11.596   3.412  10.300 -0.6652  0.4816 -0.8027
 1003MOL0     C35334  11.678   3.500  10.323 -0.7176  0.4769  0.3805
 1003MOL0     C35335  11.128   3.247  10.662 -0.0345  0.7548  0.2631
 1003MOL0     C35336  11.008   3.257  10.734  1.0358  0.0505  0.6647
 1003MOL0     C35337  10.988   3.334  10.867 -0.3932  0.2405  0.2184
 1003MOL0     H35338  10.651   3.457  10.849  0.5309 -0.4985  0.2395
 1003MOL0     H35339  10.437   3.538  10.966  1.0468  0.8628  0.3546
 1003MOL0     H35340  10.141   3.264  11.095  0.3695 -2.9625  0.7404
 1003MOL0     H35341  10.216   3.219  11.250 -1.9625  0.4367  1.5972
 1003MOL0     H35342  10.057   3.468  11.202  3.3601 -0.4319 -2.0947
 1003MOL0     H35343  10.133   3.421  11.353  3.5958 -2.9597 -0.0389
 1003MOL0     H35344   9.994   3.191  11.290  2.9870  0.8171  0.5445
 1003MOL0     H35345   9.870   3.316  11.269 -0.7716  0.0590  1.4214
 1003MOL0     H35346   9.939   3.406  11.492 -1.3470  0.9714 -1.4005
 1003MOL0     H35347   9.840   3.262  11.489 -0.2247  1.7704  1.1419
 1003MOL0     H35348  10.023   3.094  11.502  1.9787 -1.4176  1.8828
 1003MOL0     H35349  10.136   3.224  11.534 -0.0135 -1.5490  2.0301
 1003MOL0     H35350   9.977   3.278  11.746  1.6389  1.1621 -1.0109
 1003MOL0     H35351   9.876   3.147  11.682  0.2985 -0.2637 -0.0698
 1003MOL0     H35352  10.084   3.000  11.699 -1.5603 -0.8199  1.2931
 1003MOL0     H35353  10.019   3.055  11.845 -2.4934  2.6489 -0.3411
 1003MOL0     H35354  10.270   3.151  11.702  1.1644  0.3879  0.7187
 1003MOL0     H35355  10.179   3.259  11.817  0.4099  0.2465 -1.3384
 1003MOL0     H35356  10.342   2.905  11.794 -2.1362  1.0746 -1.1356
 1003MOL0     H35357  10.433   2.771  12.146  0.4902  1.0464  1.0447
 1003MOL0     H35358  10.416   2.731  11.968 -0.1284  0.8954 -0.8566
 1003MOL0     H35359  10.652   2.727  12.027 -0.0853 -0.4829  0.0801
 1003MOL0     H35360  10.617   2.856  11.918  2.1591 -1.6196 -0.2076
 1003MOL0     H35361  10.624   2.890  12.225 -1.1420  3.4172  0.5318
 1003MOL0     H35362  10.596   3.020  12.102  0.6201 -0.3250 -2.4426
 1003MOL0     H35363  10.810   3.004  12.214  1.2910  0.3798 -0.6974
 1003MOL0     H35364  10.810   3.039  12.036  1.2730  0.1961  0.8535
 1003MOL0     H35365  11.041   3.091  12.132  0.5122 -0.3371  0.2146
 1003MOL0     H35366  11.275   3.097  12.135  1.0686 -0.8993 -0.4089
 1003MOL0     H35367  11.662   3.096  12.274  0.7965  2.0540  1.1107
 1003MOL0     H35368  11.908   3.143  12.241 -0.4307 -1.9782 -0.6183
 1003MOL0     H35369  12.038   3.305  12.161 -0.0356 -1.5044  3.2065
 1003MOL0     H35370  12.138   3.152  12.179  1.1601  0.7210  0.3754
 1003MOL0     H35371  12.212   3.387  12.006  1.1892  1.3932  1.2697
 1003MOL0     H35372  12.265   3.348  12.164  0.4856 -0.7308 -0.0128
 1003MOL0     H35373  12.359   3.120  12.088 -0.4595  0.4834  0.5300
 1003MOL0     H35374  12.309   3.145  11.926 -0.5978  3.9796 -2.0331
 1003MOL0     H35375  12.486   3.362  12.059  1.9061  1.2115 -1.4017
 1003MOL0     H35376  12.456   3.333  11.892 -1.8912 -1.9567 -0.5313
 1003MOL0     H35377  12.551   3.103  11.912  0.1554 -0.0917  1.3293
 1003MOL0     H35378  12.612   3.145  12.074  2.0250 -2.8855 -1.9255
 1003MOL0     H35379  12.677   3.289  11.819 -1.8922 -0.3680  0.0764
 1003MOL0     H35380  12.744   3.325  11.985  0.8458  0.0031 -0.7294
 1003MOL0     H35381  12.789   3.064  11.837  2.4270  1.9962 -3.1954
 1003MOL0     H35382  12.859   3.120  11.997 -0.5501  2.4938  1.0311
 1003MOL0     H35383  12.901   3.243  11.731  0.5323 -0.4109 -0.4112
 1003MOL0     H35384  12.974   3.287  11.895 -0.1032 -1.5241  0.9947
 1003MOL0     H35385  11.860   3.124  11.815  1.3846 -0.5004  0.4143
 1003MOL0     H35386  11.629   3.047  11.847 -1.6364 -1.1918  0.4055
 1003MOL0     H35387  11.287   2.683  12.006 -2.0121  0.5035 -3.2074
 1003MOL0     H35388  11.058   2.672  12.018 -0.3958 -0.3386  2.1236
 1003MOL0     H35389  10.396   3.155  11.147  0.2471  0.9325  0.8994
 1003MOL0     H35390  10.603   3.073  11.021 -1.1743  0.0593  2.1880
 1003MOL0     H35391  10.815   3.114  10.485 -0.8268 -1.8933  1.0235
 1003MOL0     H35392  11.026   3.081  10.385  1.7253  0.5933  0.5029
 1003MOL0     H35393  11.242   3.181  10.294 -0.2027  1.3116  0.6964
 1003MOL0     H35394  11.212   3.010  10.357  0.5570 -0.1220  0.9288
 1003MOL0     H35395  11.433   3.006  10.244  1.0359  3.3054 -2.0941
 1003MOL0     H35396  11.443   2.985  10.417  0.2377  1.5722  0.9771
 1003MOL0     H35397  11.623   3.148  10.348 -0.1285  0.2151  0.4201
 1003MOL0     H35398  11.503   3.212  10.465 -2.2902 -0.6595  0.2617
 1003MOL0     H35399  11.520   3.266  10.167 -1.5513 -0.6768  0.7377
 1003MOL0     H35400  11.397   3.341  10.275  0.2392  0.2729  0.6404
 1003MOL0     H35401  11.742   3.583  10.344  1.3980 -1.1682  0.7855
 1003MOL0     H35402  11.224   3.283  10.698 -0.2848  0.6383  1.0796
 1003MOL0     H35403  11.067   3.409  10.864  1.7721 -1.7307  2.9579
 1003MOL0     H35404  10.899   3.397  10.875  1.5771  3.2090  0.5945
 1003MOL0     H35405  11.000   3.262  10.949 -0.0223  0.4082  0.3122
 1004MOL0     O35406   9.408   5.920   9.276  0.0060  0.0141 -0.5711
 1004MOL0     C35407   9.344   5.883   9.376  0.4203 -0.2350 -0.2439
 1004MOL0     O35408   9.398   5.830   9.495 -0.9547  1.1235 -0.1812
 1004MOL0     C35409   9.530   5.793   9.492 -0.7640 -0.7576 -0.0532
 1004MOL0     C35410   9.585   5.695   9.403 -0.2562 -0.5969 -0.4734
 1004MOL0     C35411   9.719   5.666   9.400 -0.4921 -0.5234  0.3752
 1004MOL0     C35412   9.814   5.736   9.474 -0.1523 -0.1604  0.3288
 1004MOL0     O35413   9.952   5.736   9.469 -0.1633  0.8402 -0.4098
 1004MOL0     C35414  10.013   5.669   9.362  0.3207  0.1180  1.0697
 1004MOL0     C35415  10.158   5.686   9.379 -0.1408  0.4131  0.0195
 1004MOL0     C35416  10.240   5.581   9.293  0.1822 -0.8491  0.3842
 1004MOL0     C35417  10.383   5.620   9.267 -0.1600  0.2519 -0.1105
 1004MOL0     C35418  10.484   5.588   9.377 -0.1033  0.1746  0.2984
 1004MOL0     C35419  10.603   5.684   9.355  0.1094 -0.6855 -0.4719
 1004MOL0     C35420  10.717   5.669   9.450 -0.9094 -0.7669  0.1158
 1004MOL0     C35421  10.843   5.742   9.388  0.2058 -0.8085 -0.3482
 1004MOL0     N35422  10.965   5.711   9.465 -0.2165 -0.9032  0.1112
 1004MOL0     C35423  11.000   5.774   9.590 -0.0062 -0.4397  1.0915
 1004MOL0     C35424  11.130   5.769   9.590  0.2877  0.2532  0.8858
 1004MOL0     C35425  11.216   5.816   9.703 -0.0433 -0.9125 -0.6522
 1004MOL0     C35426  11.162   5.785   9.840  0.3565  0.9698  0.3420
 1004MOL0     C35427  11.173   5.631   9.880 -0.5620 -0.1726 -0.1948
 1004MOL0     C35428  11.060   5.543   9.825  0.2921 -1.2090  0.2156
 1004MOL0     O35429  10.939   5.596   9.872  0.0039  0.2767  0.1573
 1004MOL0     C35430  10.827   5.543   9.812 -0.2255 -0.1053 -0.3640
 1004MOL0     C35431  10.709   5.600   9.862  0.1549  0.8868  0.6457
 1004MOL0     C35432  10.579   5.551   9.823  0.7376  0.1907  0.2227
 1004MOL0     C35433  10.566   5.447   9.729  0.1176  0.2396  0.1567
 1004MOL0     C35434  10.438   5.412   9.678  0.7165  0.8896 -0.1117
 1004MOL0     O35435  10.327   5.446   9.746 -0.9203 -0.1238 -0.7781
 1004MOL0     C35436  10.203   5.440   9.700 -0.5526 -0.1786  0.9972
 1004MOL0     C35437  10.156   5.340   9.617  0.0147  0.8249  0.0804
 1004MOL0     C35438  10.018   5.334   9.588 -0.3244  0.0542 -0.5860
 1004MOL0     C35439   9.929   5.417   9.656  0.0286 -0.4037 -0.0911
 1004MOL0     O35440   9.795   5.407   9.640 -0.5597 -0.1554  0.2414
 1004MOL0     C35441   9.736   5.289   9.578  0.5093 -0.2740  0.5880
 1004MOL0     C35442   9.584   5.280   9.610  0.3556 -0.8978 -0.4016
 1004MOL0     C35443   9.500   5.391   9.538  0.2890  0.2118 -0.3741
 1004MOL0     C35444   9.460   5.365   9.392  0.2198 -0.3725  0.0011
 1004MOL0     C35445   9.330   5.437   9.352 -0.7652  0.5212 -0.1550
 1004MOL0     C35446   9.297   5.446   9.204 -0.0146 -1.5526 -0.0593
 1004MOL0     C35447   9.176   5.549   9.184  1.0465  0.6448  0.6096
 1004MOL0     C35448   9.149   5.583   9.040  0.3481 -0.2791  0.6098
 1004MOL0    Cl35449   8.996   5.673   9.035  0.3508  0.4102  0.2779
 1004MOL0     C35450   9.981   5.519   9.738  1.2408  0.6683  0.8276
 1004MOL0     C35451  10.120   5.530   9.764  0.7252 -0.4556  0.0497
 1004MOL0     O35452  10.431   5.366   9.565 -0.4662  0.3641  0.2071
 1004MOL0     C35453  10.688   5.393   9.682 -0.3197  0.0015 -0.7702
 1004MOL0     C35454  10.817   5.442   9.714 -0.7583 -0.2418 -0.5794
 1004MOL0     N35455  11.170   5.719   9.466 -0.1326 -0.5944 -1.1096
 1004MOL0     N35456  11.075   5.688   9.387 -0.0945 -0.0149  0.2361
 1004MOL0     C35457   9.765   5.827   9.566 -0.2424  1.4085 -0.3920
 1004MOL0     C35458   9.628   5.846   9.578 -0.7012 -0.3850  0.0492
 1004MOL0     C35459   9.188   5.906   9.378  0.3806 -0.0225 -0.2508
 1004MOL0     C35460   9.114   5.865   9.491 -0.3308  0.2117  0.4027
 1004MOL0     C35461   8.974   5.876   9.498 -0.2208 -0.5490 -0.2622
 1004MOL0     C35462   8.893   5.927   9.392 -0.1382  0.3676  0.2741
 1004MOL0     O35463   8.762   5.942   9.390  0.8046  0.3461  0.2356
 1004MOL0     C35464   8.685   5.823   9.419  0.1789  0.6470 -0.1574
 1004MOL0     C35465   8.550   5.842   9.358 -0.3985 -0.7501 -0.6977
 1004MOL0     C35466   8.546   5.852   9.205 -0.5588  0.2249 -0.3078
 1004MOL0     C35467   8.588   5.718   9.131 -0.1892  0.7156  0.8929
 1004MOL0     C35468   8.499   5.609   9.177  0.1033 -0.2542  0.6109
 1004MOL0     C35469   8.425   5.519   9.205 -0.5014 -0.2159  0.5248
 1004MOL0     C35470   8.966   5.989   9.291 -0.9465  0.1424  0.9216
 1004MOL0     C35471   9.114   5.980   9.280  0.1688  0.5355  0.5486
 1004MOL0     C35472   9.182   6.042   9.163  0.5238 -0.4946  0.1627
 1004MOL0     H35473   9.525   5.633   9.337 -0.6544 -0.0909 -0.5961
 1004MOL0     H35474   9.746   5.604   9.314 -1.8324  0.1438 -0.5573
 1004MOL0     H35475   9.978   5.566   9.353 -1.9868  0.8642  0.9601
 1004MOL0     H35476   9.989   5.729   9.274 -1.8939 -3.0396 -0.6952
 1004MOL0     H35477  10.175   5.673   9.486 -0.6703  0.8235  0.1596
 1004MOL0     H35478  10.195   5.787   9.358  0.3753 -0.1198 -1.7763
 1004MOL0     H35479  10.195   5.568   9.195  0.5715 -0.4894  0.1517
 1004MOL0     H35480  10.243   5.483   9.342  2.1344 -0.5517  0.9541
 1004MOL0     H35481  10.422   5.570   9.178 -1.3805  1.3414 -1.3090
 1004MOL0     H35482  10.382   5.729   9.253 -1.6572  0.7254  2.7262
 1004MOL0     H35483  10.436   5.602   9.474  1.9284 -4.7718  2.3007
 1004MOL0     H35484  10.511   5.483   9.383 -1.8530 -0.3350 -0.0318
 1004MOL0     H35485  10.641   5.681   9.252  2.9288  0.8044  0.4326
 1004MOL0     H35486  10.567   5.785   9.378  4.5197  0.2569  4.0392
 1004MOL0     H35487  10.734   5.562   9.466 -0.1471 -0.8683 -1.2387
 1004MOL0     H35488  10.691   5.722   9.543  0.1880 -0.3811  0.2144
 1004MOL0     H35489  10.846   5.712   9.283 -0.5949  0.0285 -0.6235
 1004MOL0     H35490  10.826   5.850   9.382 -0.0780 -0.8827 -0.9241
 1004MOL0     H35491  10.930   5.815   9.663  1.1467 -0.6474  2.3515
 1004MOL0     H35492  11.317   5.774   9.691  1.0291  1.1879  0.4983
 1004MOL0     H35493  11.229   5.924   9.691  1.7254 -1.1228 -1.0065
 1004MOL0     H35494  11.216   5.846   9.913 -2.0394  0.3459  2.8095
 1004MOL0     H35495  11.059   5.820   9.834  0.9028  2.5465 -0.4166
 1004MOL0     H35496  11.163   5.626   9.989 -2.2133  0.2344 -0.3081
 1004MOL0     H35497  11.276   5.605   9.853 -1.2571 -0.5937 -2.5960
 1004MOL0     H35498  11.075   5.440   9.858  0.4559 -0.3618  3.0681
 1004MOL0     H35499  11.070   5.543   9.716  0.5530 -1.1160  0.2395
 1004MOL0     H35500  10.714   5.678   9.938  0.5816  0.6474  0.8644
 1004MOL0     H35501  10.486   5.599   9.851 -0.1730 -1.3777 -0.0076
 1004MOL0     H35502  10.227   5.270   9.576  1.9532  2.7526 -0.0384
 1004MOL0     H35503   9.985   5.260   9.515  1.1435  0.4254 -1.6758
 1004MOL0     H35504   9.738   5.295   9.469 -0.5921  1.2048  0.6069
 1004MOL0     H35505   9.779   5.198   9.622 -0.0846 -0.4044  0.9085
 1004MOL0     H35506   9.544   5.179   9.591  0.8728 -1.3633  0.8936
 1004MOL0     H35507   9.575   5.288   9.719 -0.4984 -0.1000 -0.5222
 1004MOL0     H35508   9.409   5.396   9.598 -1.0596 -1.4387 -2.1263
 1004MOL0     H35509   9.548   5.487   9.557 -0.4878  0.7801 -1.2246
 1004MOL0     H35510   9.469   5.259   9.368  1.1412 -0.3259  0.0962
 1004MOL0     H35511   9.537   5.408   9.327 -0.1236 -0.5007 -0.4976
 1004MOL0     H35512   9.340   5.535   9.399 -4.2258 -0.5960  3.4102
 1004MOL0     H35513   9.243   5.387   9.394 -0.2145 -0.2878  0.0599
 1004MOL0     H35514   9.390   5.484   9.158  1.5026 -2.0342  2.4451
 1004MOL0     H35515   9.278   5.349   9.157  0.4682 -1.2577 -0.9019
 1004MOL0     H35516   9.202   5.641   9.236  0.7377 -0.2610  2.4227
 1004MOL0     H35517   9.091   5.515   9.244  1.4153  0.3932  0.9978
 1004MOL0     H35518   9.223   5.659   9.014 -0.3886 -0.0914 -1.0514
 1004MOL0     H35519   9.146   5.492   8.979 -0.8907 -1.8451  2.8359
 1004MOL0     H35520   9.907   5.584   9.784  0.2262  0.1944 -0.1161
 1004MOL0     H35521  10.170   5.590   9.840  0.9297  0.0961 -0.5166
 1004MOL0     H35522  10.691   5.320   9.601  0.3086  1.1327 -1.7926
 1004MOL0     H35523  10.905   5.396   9.672  0.2648 -0.8822  2.0608
 1004MOL0     H35524   9.826   5.895   9.625  0.9921  1.9162 -2.1854
 1004MOL0     H35525   9.592   5.922   9.647 -1.1547  1.1313 -1.7447
 1004MOL0     H35526   9.173   5.826   9.574 -2.2894  1.7900  2.6889
 1004MOL0     H35527   8.918   5.844   9.586 -2.1626 -1.2559 -1.6878
 1004MOL0     H35528   8.670   5.805   9.526  1.0701 -1.2826 -0.3188
 1004MOL0     H35529   8.730   5.729   9.387 -2.0954 -0.1573 -1.2004
 1004MOL0     H35530   8.511   5.939   9.390  0.4977 -1.0467  1.4735
 1004MOL0     H35531   8.477   5.773   9.401 -1.5915  1.4138  0.9810
 1004MOL0     H35532   8.618   5.932   9.183 -0.5896 -0.0511 -1.4696
 1004MOL0     H35533   8.451   5.885   9.163 -0.0218  1.6725 -0.4424
 1004MOL0     H35534   8.588   5.726   9.022 -1.3922 -0.4137  0.7864
 1004MOL0     H35535   8.689   5.683   9.151 -0.4902 -0.4288  0.4518
 1004MOL0     H35536   8.354   5.442   9.227 -0.7289  0.0573  0.7498
 1004MOL0     H35537   8.917   6.043   9.211 -0.3418 -1.4455 -0.5799
 1004MOL0     H35538   9.115   6.115   9.116  1.3226 -0.2917 -0.6758
 1004MOL0     H35539   9.268   6.104   9.189  2.5603 -2.6508 -1.0876
 1004MOL0     H35540   9.213   5.970   9.087  0.2930  0.3364 -0.7435
 1005MOL0     O35541   3.532   7.953   0.278  0.1179 -0.2540 -0.0978
 1005MOL0     C35542   3.473   7.845   0.278 -0.3601 -0.1344 -0.5881
 1005MOL0     O35543   3.539   7.732   0.268  0.5930  0.7682 -0.3533
 1005MOL0     C35544   3.678   7.727   0.261  0.0876 -0.8337  0.6054
 1005MOL0     C35545   3.762   7.794   0.355  0.2730 -0.2012 -0.1702
 1005MOL0     C35546   3.898   7.773   0.348 -0.1526  0.6333  0.4275
 1005MOL0     C35547   3.955   7.673   0.260  0.7773 -0.6236 -0.0160
 1005MOL0     O35548   4.086   7.658   0.271 -0.0817 -0.2482 -0.7792
 1005MOL0     C35549   4.151   7.536   0.230 -0.0330  0.1610 -0.0988
 1005MOL0     C35550   4.219   7.465   0.353 -0.1838  0.0676  0.2155
 1005MOL0     C35551   4.373   7.490   0.365 -0.0338  0.1240 -0.4418
 1005MOL0     C35552   4.432   7.401   0.481  0.5487  0.7623  0.4535
 1005MOL0     C35553   4.571   7.437   0.529  0.2534 -0.7574 -0.2793
 1005MOL0     C35554   4.563   7.574   0.593  0.2104 -0.4729 -0.1960
 1005MOL0     C35555   4.692   7.619   0.659 -0.3885  0.8381 -0.2083
 1005MOL0     C35556   4.760   7.520   0.757 -0.2444  0.2923 -0.5289
 1005MOL0     N35557   4.891   7.580   0.792  0.1478  0.1204 -0.3739
 1005MOL0     C35558   5.005   7.559   0.735  0.6848  0.0600  0.7207
 1005MOL0     C35559   5.090   7.648   0.782 -0.5133  0.7964  0.2392
 1005MOL0     C35560   5.231   7.659   0.728 -1.0691  0.0966 -0.3974
 1005MOL0     C35561   5.339   7.611   0.818  0.2009 -0.0277 -0.0943
 1005MOL0     C35562   5.402   7.718   0.900 -0.6640  0.3273 -0.0633
 1005MOL0     C35563   5.524   7.667   0.966 -0.0656  0.0156 -0.4321
 1005MOL0     O35564   5.633   7.657   0.871 -0.0936  0.1775  0.1144
 1005MOL0     C35565   5.742   7.581   0.901 -0.1676  0.1134 -0.2707
 1005MOL0     C35566   5.847   7.589   0.811 -0.3898  0.7835  0.5490
 1005MOL0     C35567   5.966   7.525   0.827  0.0596  0.2759  0.4990
 1005MOL0     C35568   5.991   7.466   0.954 -0.2104 -0.6888 -0.2008
 1005MOL0     C35569   6.128   7.399   0.985 -0.2182 -0.8280  0.8420
 1005MOL0     O35570   6.233   7.438   0.909  1.1156 -0.7312 -0.4571
 1005MOL0     C35571   6.366   7.400   0.934 -0.0724 -0.4260 -0.0856
 1005MOL0     C35572   6.465   7.440   0.844  0.2729  0.6305  0.8116
 1005MOL0     C35573   6.598   7.421   0.858 -0.6378 -0.4531  0.7899
 1005MOL0     C35574   6.650   7.354   0.972 -0.3967 -0.0208  0.0535
 1005MOL0     O35575   6.788   7.331   0.990 -0.2724 -0.3999  0.6777
 1005MOL0     C35576   6.823   7.234   1.088 -0.3802 -0.2557  0.2353
 1005MOL0     C35577   6.974   7.191   1.080 -0.1299  1.0915  1.0122
 1005MOL0     C35578   7.004   7.080   0.968  0.4216  0.5430  0.0913
 1005MOL0     C35579   6.963   7.122   0.830  0.0171 -0.9477  0.0488
 1005MOL0     C35580   6.959   6.999   0.734  0.5321  0.4441 -0.1900
 1005MOL0     C35581   7.079   6.902   0.732 -0.0111  0.4237  0.3958
 1005MOL0     C35582   7.047   6.776   0.644  0.4114  0.3998  0.2735
 1005MOL0     C35583   6.978   6.670   0.738  0.1253  0.2953  0.2029
 1005MOL0    Cl35584   7.096   6.580   0.820 -0.4009 -0.2748  0.2443
 1005MOL0     C35585   6.553   7.326   1.073  0.0275  0.0974 -0.1297
 1005MOL0     C35586   6.418   7.346   1.055  0.5607  0.5801  0.6861
 1005MOL0     O35587   6.136   7.331   1.089  0.0182 -0.1534 -0.2084
 1005MOL0     C35588   5.893   7.473   1.053  0.2713  0.1239 -0.0575
 1005MOL0     C35589   5.766   7.514   1.026 -0.3237  0.0030  0.1967
 1005MOL0     N35590   5.014   7.713   0.876 -0.6757 -0.0778  0.0497
 1005MOL0     N35591   4.896   7.675   0.883 -0.7365 -0.0978  0.4436
 1005MOL0     C35592   3.872   7.611   0.170  1.3523 -0.0988 -0.2679
 1005MOL0     C35593   3.733   7.637   0.174 -0.7449  0.3591  0.4892
 1005MOL0     C35594   3.323   7.840   0.288  0.2114  0.4362 -0.1534
 1005MOL0     C35595   3.266   7.710   0.300  0.7267  0.0684  0.1094
 1005MOL0     C35596   3.128   7.697   0.307 -0.2950  0.0462  0.4655
 1005MOL0     C35597   3.049   7.807   0.320  0.2848  0.0027 -0.5423
 1005MOL0     O35598   2.910   7.797   0.353  0.4494  0.8556  0.2175
 1005MOL0     C35599   2.843   7.664   0.346 -0.0651  0.2303 -0.0100
 1005MOL0     C35600   2.701   7.678   0.387  0.0890 -0.7693 -0.1597
 1005MOL0     C35601   2.615   7.552   0.339 -0.6867 -0.2329  0.1976
 1005MOL0     C35602   2.492   7.599   0.269  0.5122  0.8300 -0.2401
 1005MOL0     C35603   2.379   7.629   0.362  0.1926  0.4309  0.0269
 1005MOL0     C35604   2.279   7.666   0.417  0.2877  0.0309  0.5305
 1005MOL0     C35605   3.103   7.936   0.296 -0.1431 -0.1984 -0.0942
 1005MOL0     C35606   3.236   7.950   0.278 -0.0932 -1.1895  0.1413
 1005MOL0     C35607   3.287   8.092   0.240  0.1201  1.0462 -0.0886
 1005MOL0     H35608   3.719   7.848   0.438  2.2717  0.7449  0.3058
 1005MOL0     H35609   3.963   7.819   0.420  0.6438 -1.1876  0.9239
 1005MOL0     H35610   4.092   7.466   0.171 -1.8797  0.6822  1.0156
 1005MOL0     H35611   4.231   7.569   0.164  0.6140  0.0472  0.6129
 1005MOL0     H35612   4.214   7.356   0.348  1.6096 -0.0864  0.9002
 1005MOL0     H35613   4.163   7.493   0.442 -0.8155  2.6635 -0.9029
 1005MOL0     H35614   4.386   7.595   0.392  0.9303 -0.5987  2.1944
 1005MOL0     H35615   4.427   7.459   0.275 -0.9431  0.6037 -1.1720
 1005MOL0     H35616   4.372   7.408   0.572  0.3556  0.9906  0.3084
 1005MOL0     H35617   4.430   7.298   0.446 -6.0726  0.2926  0.9150
 1005MOL0     H35618   4.616   7.366   0.599  0.3307  0.7436  1.2656
 1005MOL0     H35619   4.628   7.446   0.435 -1.5345  1.8557 -1.2217
 1005MOL0     H35620   4.526   7.645   0.519 -1.9921 -2.1682 -0.8195
 1005MOL0     H35621   4.479   7.569   0.662  0.0095  0.3687 -0.3648
 1005MOL0     H35622   4.687   7.717   0.707  1.5821  0.8697  0.0238
 1005MOL0     H35623   4.757   7.643   0.574  0.6927  2.5960  1.0409
 1005MOL0     H35624   4.698   7.507   0.846  0.5843 -1.4184 -0.1614
 1005MOL0     H35625   4.773   7.424   0.707 -1.9094 -0.4484  0.3956
 1005MOL0     H35626   5.027   7.481   0.663  1.2197 -0.5858  1.5508
 1005MOL0     H35627   5.240   7.602   0.636  0.2687  0.1983 -0.3503
 1005MOL0     H35628   5.241   7.765   0.702  0.5416  0.3362  0.9829
 1005MOL0     H35629   5.296   7.536   0.884  1.0670 -0.2135  0.2752
 1005MOL0     H35630   5.419   7.568   0.756 -1.0468 -1.4867 -0.7410
 1005MOL0     H35631   5.333   7.748   0.980 -0.4978  1.2822 -0.2685
 1005MOL0     H35632   5.436   7.810   0.853  0.6092 -0.4434 -0.6858
 1005MOL0     H35633   5.491   7.573   1.011 -1.4351  1.6774  2.2569
 1005MOL0     H35634   5.547   7.735   1.048 -1.2794  0.4240 -0.4216
 1005MOL0     H35635   5.834   7.637   0.714  0.0103 -0.4767 -0.1625
 1005MOL0     H35636   6.048   7.513   0.757  0.5663 -0.7441  1.2488
 1005MOL0     H35637   6.423   7.484   0.754  1.0119 -0.4090 -0.0716
 1005MOL0     H35638   6.669   7.462   0.787 -2.5138  2.4413  0.4002
 1005MOL0     H35639   6.793   7.266   1.188 -1.9702 -0.1441 -0.2364
 1005MOL0     H35640   6.752   7.152   1.071 -2.0392  1.2531 -0.4335
 1005MOL0     H35641   7.035   7.279   1.056  0.8126  0.2083  0.0826
 1005MOL0     H35642   7.013   7.149   1.173  1.8181  3.3694  1.3174
 1005MOL0     H35643   7.109   7.051   0.971  0.6122  1.1527 -0.6183
 1005MOL0     H35644   6.936   6.996   0.989 -0.7185  1.0810 -1.2997
 1005MOL0     H35645   7.025   7.203   0.788  1.2564 -0.8134  2.0006
 1005MOL0     H35646   6.858   7.149   0.835  0.4801  0.9848  0.2083
 1005MOL0     H35647   6.925   7.028   0.634 -2.3904 -1.9933 -0.0543
 1005MOL0     H35648   6.878   6.944   0.783  2.4807 -3.5999 -1.0867
 1005MOL0     H35649   7.173   6.944   0.694 -0.9587  2.7088  0.4279
 1005MOL0     H35650   7.109   6.865   0.831 -0.0569  2.0074  1.0376
 1005MOL0     H35651   7.143   6.746   0.600  0.2477 -0.7618  0.6697
 1005MOL0     H35652   6.973   6.792   0.566  0.8234  0.2175 -0.1611
 1005MOL0     H35653   6.909   6.727   0.801 -0.2575  1.0495 -0.8651
 1005MOL0     H35654   6.927   6.596   0.675  1.5165 -1.5691  1.1688
 1005MOL0     H35655   6.583   7.299   1.173 -1.3712  2.4099  0.9964
 1005MOL0     H35656   6.354   7.331   1.142  0.7385 -1.9715  0.4472
 1005MOL0     H35657   5.904   7.440   1.156  0.5771  3.0055  0.9277
 1005MOL0     H35658   5.693   7.510   1.107 -1.0011 -2.3216 -0.4495
 1005MOL0     H35659   3.913   7.560   0.084  0.2203 -0.4245 -0.6348
 1005MOL0     H35660   3.670   7.584   0.103  0.4530 -0.4622  0.0117
 1005MOL0     H35661   3.324   7.618   0.298  1.0875  0.2415  1.6406
 1005MOL0     H35662   3.082   7.599   0.306 -0.7242  0.2325  1.1882
 1005MOL0     H35663   2.903   7.606   0.416  0.7871  0.8374 -0.2154
 1005MOL0     H35664   2.867   7.624   0.247  0.5677  0.9245 -0.1523
 1005MOL0     H35665   2.660   7.771   0.347  1.4332 -0.0817 -0.0250
 1005MOL0     H35666   2.696   7.685   0.496  1.3995 -0.4998 -0.0976
 1005MOL0     H35667   2.586   7.512   0.437  1.0445 -1.3777  0.3004
 1005MOL0     H35668   2.678   7.477   0.288 -1.1247  0.5067 -1.4918
 1005MOL0     H35669   2.509   7.682   0.199  0.7276 -1.9022 -3.7322
 1005MOL0     H35670   2.467   7.513   0.205  0.7164  1.0450 -0.6141
 1005MOL0     H35671   2.187   7.696   0.462 -0.4298 -0.7378 -0.3937
 1005MOL0     H35672   3.030   8.017   0.295  0.5483  0.4250 -0.5754
 1005MOL0     H35673   3.368   8.126   0.306 -0.8015  1.9126  0.6252
 1005MOL0     H35674   3.327   8.087   0.138 -0.5151 -1.0577 -0.2875
 1005MOL0     H35675   3.206   8.165   0.247  0.1225  1.2933 -1.9820
 1006MOL0     O35676   4.611   6.482   3.772 -0.3878 -0.4673  0.3189
 1006MOL0     C35677   4.588   6.583   3.831 -0.6037  0.1773  0.1721
 1006MOL0     O35678   4.657   6.702   3.809 -0.0845  0.0290 -0.8625
 1006MOL0     C35679   4.760   6.702   3.721  0.3430 -0.8698 -0.6663
 1006MOL0     C35680   4.861   6.607   3.712 -0.0595 -0.0290  0.2114
 1006MOL0     C35681   4.958   6.614   3.606  0.2100 -0.0058 -0.0306
 1006MOL0     C35682   4.963   6.728   3.516  1.1732 -0.0768  0.2140
 1006MOL0     O35683   5.054   6.740   3.413 -0.1872  0.3183  0.4813
 1006MOL0     C35684   5.155   6.640   3.385 -0.3025  1.0623  0.6994
 1006MOL0     C35685   5.279   6.674   3.467  0.5328  0.0743 -0.3339
 1006MOL0     C35686   5.398   6.574   3.453 -0.0338  0.8113  0.0170
 1006MOL0     C35687   5.530   6.605   3.526 -0.0610  0.0178  1.0127
 1006MOL0     C35688   5.614   6.700   3.438 -0.1025  0.7815  0.2599
 1006MOL0     C35689   5.705   6.627   3.333  0.1755  0.1892  0.2623
 1006MOL0     C35690   5.741   6.730   3.223 -0.1030  0.5136 -0.3396
 1006MOL0     C35691   5.815   6.864   3.269 -0.4558 -0.1810  1.0428
 1006MOL0     N35692   5.959   6.859   3.281 -0.2479  0.1325 -0.0205
 1006MOL0     C35693   6.032   6.887   3.395 -0.1362 -0.5709  0.1730
 1006MOL0     C35694   6.161   6.831   3.375  0.9813 -0.2924 -0.3967
 1006MOL0     C35695   6.262   6.854   3.481  0.1410 -0.3626  0.2954
 1006MOL0     C35696   6.309   7.006   3.491 -0.0805  0.3456 -0.1105
 1006MOL0     C35697   6.404   7.065   3.382  0.5367 -0.4397  0.2899
 1006MOL0     C35698   6.543   7.003   3.369  0.0267  0.5058 -0.6733
 1006MOL0     O35699   6.585   6.934   3.483  0.3985 -0.7114  0.1592
 1006MOL0     C35700   6.718   6.940   3.512 -0.3479  0.3351  0.4125
 1006MOL0     C35701   6.818   6.921   3.406  0.6428  0.2573  0.8146
 1006MOL0     C35702   6.954   6.935   3.440  0.3885 -0.2336  0.2893
 1006MOL0     C35703   6.990   6.960   3.573 -0.0447 -2.0321 -0.9775
 1006MOL0     C35704   7.128   6.995   3.614  0.4837  0.0932  0.7901
 1006MOL0     O35705   7.167   6.956   3.740  0.2285  0.6013 -0.5766
 1006MOL0     C35706   7.296   6.987   3.776  0.2583  0.4565  0.5741
 1006MOL0     C35707   7.381   6.879   3.785 -0.0433  0.0988 -0.1488
 1006MOL0     C35708   7.521   6.903   3.809  0.2479  0.0566  1.0738
 1006MOL0     C35709   7.575   7.027   3.811  1.3354  0.3368 -0.0806
 1006MOL0     O35710   7.710   7.044   3.822  0.6005 -0.7441  1.0292
 1006MOL0     C35711   7.755   6.991   3.944 -0.4311  0.1959 -0.6095
 1006MOL0     C35712   7.895   7.037   3.981 -0.2486 -0.1637  0.8621
 1006MOL0     C35713   8.004   6.965   3.906 -0.0256 -0.4892 -0.7779
 1006MOL0     C35714   8.146   7.037   3.938  0.1478  0.0360 -0.2003
 1006MOL0     C35715   8.157   7.177   3.863  0.4960 -0.3823 -0.4112
 1006MOL0     C35716   8.284   7.199   3.790  0.0319 -0.9951  1.1201
 1006MOL0     C35717   8.306   7.342   3.743  0.0429  0.6095  0.2536
 1006MOL0     C35718   8.442   7.360   3.664 -0.0384  0.9684 -0.1562
 1006MOL0    Cl35719   8.573   7.357   3.776  0.3354  0.0613  0.0724
 1006MOL0     C35720   7.488   7.137   3.803 -0.2016  0.5113  0.4071
 1006MOL0     C35721   7.353   7.114   3.791 -0.0865 -1.1097  0.7452
 1006MOL0     O35722   7.190   7.055   3.524  0.5796  0.5174 -0.0309
 1006MOL0     C35723   6.890   6.967   3.676 -1.0183  0.0365 -0.2523
 1006MOL0     C35724   6.757   6.960   3.644 -0.4080 -0.5310  0.7009
 1006MOL0     N35725   6.154   6.786   3.239  0.1774 -0.8036 -0.3500
 1006MOL0     N35726   6.037   6.792   3.187 -0.8206 -0.0038 -0.0849
 1006MOL0     C35727   4.869   6.828   3.541 -0.1144  0.8255  0.2968
 1006MOL0     C35728   4.774   6.819   3.644 -0.4452 -0.1510 -0.4647
 1006MOL0     C35729   4.480   6.584   3.931  0.1133  0.0212  0.4166
 1006MOL0     C35730   4.476   6.694   4.018 -0.3676  0.8405 -0.7245
 1006MOL0     C35731   4.375   6.700   4.110  0.5511  0.0074  0.2641
 1006MOL0     C35732   4.289   6.599   4.133  0.2322  0.4996  0.6470
 1006MOL0     O35733   4.207   6.627   4.240 -0.2154 -0.1837 -0.1289
 1006MOL0     C35734   4.102   6.529   4.266 -0.7474  0.0182 -0.2928
 1006MOL0     C35735   3.974   6.570   4.195 -0.1761  0.4618 -0.3784
 1006MOL0     C35736   3.901   6.670   4.283  0.0366  0.0665  0.4660
 1006MOL0     C35737   3.808   6.601   4.386  0.2729  0.0111  0.6131
 1006MOL0     C35738   3.756   6.702   4.475 -0.0935 -0.9810 -0.5618
 1006MOL0     C35739   3.718   6.801   4.537 -0.7808 -0.0392  0.6064
 1006MOL0     C35740   4.284   6.497   4.044  0.6369 -0.0297  0.0126
 1006MOL0     C35741   4.380   6.478   3.948  0.4081  0.0510  0.2183
 1006MOL0     C35742   4.357   6.361   3.855 -0.0778  0.3978 -0.1172
 1006MOL0     H35743   4.859   6.514   3.768  3.3398 -1.6634 -2.0289
 1006MOL0     H35744   5.031   6.534   3.595 -0.2872 -0.3072 -1.2942
 1006MOL0     H35745   5.119   6.538   3.407  1.1811  0.1503 -0.8419
 1006MOL0     H35746   5.181   6.649   3.279 -1.8518  2.8307  0.4179
 1006MOL0     H35747   5.253   6.678   3.573  1.1414 -0.2539 -0.1661
 1006MOL0     H35748   5.322   6.771   3.441  2.0472 -0.4300  0.2162
 1006MOL0     H35749   5.417   6.559   3.346  2.0080 -0.9365  0.5579
 1006MOL0     H35750   5.368   6.476   3.490  2.8343  0.4582  1.6581
 1006MOL0     H35751   5.493   6.653   3.617 -0.4811  0.3403  0.6799
 1006MOL0     H35752   5.582   6.510   3.538  1.8056  0.5305 -2.0600
 1006MOL0     H35753   5.543   6.755   3.377  0.1417 -1.4482 -2.2244
 1006MOL0     H35754   5.677   6.766   3.499  1.0787  0.6923 -0.8314
 1006MOL0     H35755   5.797   6.584   3.373 -0.0967 -1.3727 -0.7244
 1006MOL0     H35756   5.653   6.545   3.283  1.4183 -0.9755  0.7992
 1006MOL0     H35757   5.648   6.769   3.181  0.5527  2.3976 -0.1239
 1006MOL0     H35758   5.797   6.678   3.145 -2.3278 -1.1217 -0.9348
 1006MOL0     H35759   5.808   6.932   3.184 -0.4783 -2.5315 -0.9653
 1006MOL0     H35760   5.781   6.911   3.362  2.6573 -0.6240  2.5278
 1006MOL0     H35761   6.006   6.937   3.488  2.5180 -0.4026  0.9163
 1006MOL0     H35762   6.210   6.841   3.577  0.4167 -0.7495  0.3941
 1006MOL0     H35763   6.346   6.787   3.461  2.7113  2.1146  1.9894
 1006MOL0     H35764   6.224   7.073   3.509 -1.4472 -1.3615  0.1405
 1006MOL0     H35765   6.355   7.009   3.590 -0.2829  0.0694 -0.0067
 1006MOL0     H35766   6.423   7.169   3.408  3.0273  0.0763 -2.9193
 1006MOL0     H35767   6.350   7.070   3.286  1.2653 -1.8469 -0.2271
 1006MOL0     H35768   6.612   7.083   3.341  1.6111 -0.4721  0.2534
 1006MOL0     H35769   6.549   6.931   3.287 -0.4130 -1.5492  1.0127
 1006MOL0     H35770   6.791   6.910   3.301  1.4735  1.4636  0.4471
 1006MOL0     H35771   7.029   6.936   3.361 -0.9844 -0.7245 -1.0793
 1006MOL0     H35772   7.351   6.774   3.780  0.6526 -0.0958 -0.3896
 1006MOL0     H35773   7.582   6.814   3.816 -1.2512 -1.2412 -1.2453
 1006MOL0     H35774   7.696   7.024   4.031 -1.7295  4.5924 -2.8556
 1006MOL0     H35775   7.765   6.882   3.943  1.0929  0.2830  0.7242
 1006MOL0     H35776   7.902   7.142   3.951 -5.1123 -0.0849 -0.9119
 1006MOL0     H35777   7.910   7.016   4.087 -1.7872 -1.8103  0.7995
 1006MOL0     H35778   8.010   6.862   3.941 -1.7646 -0.7586 -1.2130
 1006MOL0     H35779   7.985   6.971   3.799  2.0764 -3.5250 -1.4428
 1006MOL0     H35780   8.228   6.971   3.908 -1.4959 -3.1216  1.6942
 1006MOL0     H35781   8.154   7.053   4.046 -0.7617 -2.8473  0.3724
 1006MOL0     H35782   8.144   7.258   3.936  0.6124  0.2095 -1.0345
 1006MOL0     H35783   8.069   7.199   3.802  0.8259  0.0287 -0.7470
 1006MOL0     H35784   8.364   7.164   3.855  1.6715  1.4773  0.5316
 1006MOL0     H35785   8.296   7.136   3.701 -0.1446  0.6264 -0.1033
 1006MOL0     H35786   8.299   7.410   3.828 -0.1166 -1.5476  2.0549
 1006MOL0     H35787   8.230   7.373   3.671  1.9793  3.0145 -0.9094
 1006MOL0     H35788   8.458   7.291   3.580 -0.6855 -1.6829  1.7664
 1006MOL0     H35789   8.441   7.460   3.621 -0.2343  0.2054 -2.0017
 1006MOL0     H35790   7.531   7.237   3.803  0.5914  0.1979 -1.0626
 1006MOL0     H35791   7.294   7.205   3.797 -0.3332 -1.3089  1.5018
 1006MOL0     H35792   6.925   6.991   3.776 -0.8645  0.8889 -0.5046
 1006MOL0     H35793   6.677   6.972   3.717 -3.9112 -1.1301 -2.6615
 1006MOL0     H35794   4.870   6.915   3.476  0.0971 -1.5703 -3.1747
 1006MOL0     H35795   4.692   6.890   3.643  1.7483  2.7616  3.0350
 1006MOL0     H35796   4.549   6.774   4.005  0.6827  0.3185  1.4581
 1006MOL0     H35797   4.379   6.790   4.171 -1.7225  0.5484 -0.3022
 1006MOL0     H35798   4.095   6.527   4.375 -0.0435 -0.5447 -0.2486
 1006MOL0     H35799   4.130   6.426   4.242  1.8353  0.5916 -0.0649
 1006MOL0     H35800   3.905   6.489   4.172  0.2059  0.3301 -1.1244
 1006MOL0     H35801   4.000   6.619   4.100 -2.5906  6.4452  1.5779
 1006MOL0     H35802   3.838   6.737   4.224 -0.8845  0.6115  1.9867
 1006MOL0     H35803   3.978   6.729   4.335  1.7496 -0.0286 -1.8106
 1006MOL0     H35804   3.722   6.558   4.334  1.1550 -0.3103 -0.6061
 1006MOL0     H35805   3.862   6.518   4.432 -1.9398 -3.9256 -3.1480
 1006MOL0     H35806   3.680   6.882   4.596 -1.6713 -0.5925  0.8165
 1006MOL0     H35807   4.202   6.427   4.059  2.6037 -1.9921  2.3117
 1006MOL0     H35808   4.434   6.283   3.852 -1.1429 -0.6907  0.0351
 1006MOL0     H35809   4.271   6.303   3.889 -0.9831  2.1954  0.8068
 1006MOL0     H35810   4.336   6.408   3.759  0.1210 -0.3716 -0.5427
 1007MOL0     O35811   7.752   3.949   0.183 -0.1905 -0.3465 -0.1503
 1007MOL0     C35812   7.773   4.020   0.080  0.7116  0.1396  0.2445
 1007MOL0     O35813   7.885   4.087   0.047  0.9733 -0.6573  0.0109
 1007MOL0     C35814   7.982   4.091   0.144  0.0267 -0.2394 -0.9318
 1007MOL0     C35815   8.035   3.969   0.195 -0.0411 -0.1340  0.2987
 1007MOL0     C35816   8.142   3.967   0.283 -0.2854 -0.4460  0.0207
 1007MOL0     C35817   8.216   4.081   0.311  0.3644 -1.0034  0.2082
 1007MOL0     O35818   8.335   4.068   0.376 -0.7798 -0.1545  0.5382
 1007MOL0     C35819   8.435   4.167   0.376  0.1606  0.0576 -0.1037
 1007MOL0     C35820   8.529   4.140   0.258  0.6465 -0.1336 -0.4267
 1007MOL0     C35821   8.658   4.213   0.264 -0.9245  0.4727 -0.1644
 1007MOL0     C35822   8.646   4.357   0.227  0.1290  0.1531  0.0164
 1007MOL0     C35823   8.654   4.368   0.077 -0.5416  0.1286  1.1142
 1007MOL0     C35824   8.658   4.522   0.041  0.3412  0.4523 -0.0834
 1007MOL0     C35825   8.647   4.547  -0.109 -0.6114 -0.1738  0.5590
 1007MOL0     C35826   8.769   4.486  -0.187  0.3042  0.3034  0.4306
 1007MOL0     N35827   8.870   4.579  -0.228 -0.1431  0.2110 -0.8301
 1007MOL0     C35828   8.887   4.626  -0.352  0.3995 -0.1065  1.1352
 1007MOL0     C35829   9.017   4.671  -0.351  0.6437 -0.1080  0.0866
 1007MOL0     C35830   9.098   4.728  -0.469 -0.0908  0.4022 -0.0119
 1007MOL0     C35831   9.016   4.777  -0.592  0.4320 -0.2023  0.3851
 1007MOL0     C35832   8.930   4.900  -0.566  0.0401 -0.4236 -1.0570
 1007MOL0     C35833   8.803   4.891  -0.657 -0.3578  0.3988 -0.4800
 1007MOL0     O35834   8.848   4.863  -0.788 -0.3408 -0.4021 -0.1857
 1007MOL0     C35835   8.763   4.874  -0.894 -0.6961 -0.1526 -0.1395
 1007MOL0     C35836   8.637   4.922  -0.878  0.1936  0.4234 -0.1480
 1007MOL0     C35837   8.546   4.935  -0.991 -0.7543 -0.0174 -0.2650
 1007MOL0     C35838   8.593   4.895  -1.115  0.2397  0.1824  0.7073
 1007MOL0     C35839   8.495   4.910  -1.227  0.0113 -0.6741  0.6699
 1007MOL0     O35840   8.541   4.857  -1.346 -0.2591 -0.0643 -0.3635
 1007MOL0     C35841   8.459   4.878  -1.453 -0.7652 -0.1772 -0.2109
 1007MOL0     C35842   8.402   4.774  -1.526 -0.9578 -0.0549 -0.1828
 1007MOL0     C35843   8.306   4.793  -1.623 -0.5174  0.0129 -0.6279
 1007MOL0     C35844   8.261   4.924  -1.653  0.3434  0.3247 -0.0638
 1007MOL0     O35845   8.163   4.957  -1.744 -0.5319 -0.1082 -0.8726
 1007MOL0     C35846   8.081   4.848  -1.782 -0.7612 -0.1145  0.0844
 1007MOL0     C35847   7.954   4.903  -1.849 -0.3870  0.0028 -0.1260
 1007MOL0     C35848   7.834   4.823  -1.809  0.1430 -0.1458 -0.5711
 1007MOL0     C35849   7.704   4.873  -1.875  0.5870 -0.5046 -0.0454
 1007MOL0     C35850   7.592   4.768  -1.868 -0.7742  0.0524 -0.1651
 1007MOL0     C35851   7.466   4.789  -1.956 -0.8682  0.4650  1.3006
 1007MOL0     C35852   7.506   4.819  -2.109  0.5218  0.3244 -0.3681
 1007MOL0     C35853   7.392   4.843  -2.211 -0.1354 -0.1956  0.0464
 1007MOL0    Cl35854   7.293   4.974  -2.148  0.4247  0.1813 -0.0519
 1007MOL0     C35855   8.333   5.028  -1.596  0.1828 -0.1847  0.3631
 1007MOL0     C35856   8.432   5.001  -1.497  0.2859 -0.6031 -0.8701
 1007MOL0     O35857   8.389   4.974  -1.203  0.3739 -0.1003 -0.1062
 1007MOL0     C35858   8.719   4.837  -1.129  0.2770 -0.8188 -0.4616
 1007MOL0     C35859   8.804   4.828  -1.024 -1.4342 -0.8317 -0.1013
 1007MOL0     N35860   9.058   4.665  -0.221 -0.6181 -1.2739 -0.4256
 1007MOL0     N35861   8.974   4.613  -0.147 -0.8196 -0.5492  0.3443
 1007MOL0     C35862   8.155   4.204   0.271  0.2290 -0.5613  0.4811
 1007MOL0     C35863   8.052   4.210   0.178 -0.1258  0.7504 -0.1277
 1007MOL0     C35864   7.654   4.023  -0.012 -0.1849 -0.6436  0.2416
 1007MOL0     C35865   7.521   3.988   0.035 -0.3570  0.4773  0.8106
 1007MOL0     C35866   7.411   4.008  -0.039  0.2995  0.7169 -0.1054
 1007MOL0     C35867   7.429   4.013  -0.175  0.7062  0.3387 -0.0900
 1007MOL0     O35868   7.323   3.988  -0.258  0.1233 -0.0295 -0.1275
 1007MOL0     C35869   7.190   3.997  -0.213 -0.0300  0.6583 -0.3266
 1007MOL0     C35870   7.101   4.025  -0.326 -0.5622 -0.1178  1.4276
 1007MOL0     C35871   6.965   4.053  -0.270  0.5518 -0.3010  0.2245
 1007MOL0     C35872   6.878   4.116  -0.378  1.0654  0.0573  0.2152
 1007MOL0     C35873   6.738   4.109  -0.336  0.0190  0.3756 -0.0663
 1007MOL0     C35874   6.627   4.100  -0.298  0.1253 -0.1529 -0.7489
 1007MOL0     C35875   7.551   4.028  -0.231 -0.3520  0.2578  0.1236
 1007MOL0     C35876   7.668   4.039  -0.156  0.1049  0.2335  0.3108
 1007MOL0     C35877   7.787   4.085  -0.230  1.0443  0.1192 -0.1240
 1007MOL0     H35878   7.993   3.873   0.168  0.5651 -0.0763 -0.8795
 1007MOL0     H35879   8.180   3.867   0.301 -0.8744 -0.9254 -1.2860
 1007MOL0     H35880   8.399   4.270   0.380 -2.0836 -0.6818  0.5505
 1007MOL0     H35881   8.492   4.149   0.467  2.3067  0.0144 -1.3875
 1007MOL0     H35882   8.482   4.173   0.164  1.7276  1.1650 -0.5403
 1007MOL0     H35883   8.554   4.034   0.252 -1.3174 -0.5870 -1.9211
 1007MOL0     H35884   8.725   4.164   0.192 -1.5438  1.1463 -1.2208
 1007MOL0     H35885   8.696   4.193   0.364  0.5679 -3.5355 -1.3391
 1007MOL0     H35886   8.552   4.395   0.269 -0.5875 -3.2915  1.9560
 1007MOL0     H35887   8.729   4.415   0.267  0.2086  2.2133 -2.8087
 1007MOL0     H35888   8.740   4.314   0.036 -0.2025  0.5657  1.2348
 1007MOL0     H35889   8.560   4.325   0.040  0.8908 -2.1012 -0.1859
 1007MOL0     H35890   8.585   4.579   0.099  0.1889 -0.3922  0.5710
 1007MOL0     H35891   8.758   4.559   0.065  1.2789 -2.1205  0.3059
 1007MOL0     H35892   8.650   4.656  -0.119  0.8048 -0.3574 -2.0119
 1007MOL0     H35893   8.547   4.512  -0.135 -0.7327 -1.2336  2.3175
 1007MOL0     H35894   8.825   4.412  -0.129 -2.9459 -2.3273  0.5044
 1007MOL0     H35895   8.731   4.429  -0.272  2.2056  0.3468 -0.5045
 1007MOL0     H35896   8.822   4.614  -0.438 -1.7042  1.9356  2.2889
 1007MOL0     H35897   9.156   4.817  -0.444 -0.7230  0.8607 -0.1462
 1007MOL0     H35898   9.174   4.652  -0.490  0.0317  0.5329 -0.0427
 1007MOL0     H35899   9.084   4.798  -0.676 -0.3577 -0.3246 -0.2948
 1007MOL0     H35900   8.946   4.698  -0.621  0.1725  0.6306 -1.3757
 1007MOL0     H35901   8.988   4.991  -0.584 -0.9300  0.4184 -0.0868
 1007MOL0     H35902   8.902   4.905  -0.461  1.4871  2.2993 -0.7056
 1007MOL0     H35903   8.746   4.985  -0.651  0.5611  1.0999 -2.0081
 1007MOL0     H35904   8.733   4.812  -0.628  1.3306 -1.6545 -1.7539
 1007MOL0     H35905   8.600   4.957  -0.782  1.1977  3.4102 -0.7316
 1007MOL0     H35906   8.444   4.962  -0.966 -1.0998 -2.5810  1.3705
 1007MOL0     H35907   8.431   4.675  -1.493  1.7058  1.0927  1.3201
 1007MOL0     H35908   8.268   4.703  -1.671  0.4911 -0.3887 -0.6965
 1007MOL0     H35909   8.132   4.792  -1.861 -2.7620 -1.3118 -0.4155
 1007MOL0     H35910   8.064   4.788  -1.692  0.9352  1.3952  1.4983
 1007MOL0     H35911   7.930   5.006  -1.821 -2.6232 -0.4250 -0.2730
 1007MOL0     H35912   7.964   4.910  -1.957 -4.8578  4.0281 -0.6097
 1007MOL0     H35913   7.848   4.716  -1.828 -2.1593 -0.3357 -1.4910
 1007MOL0     H35914   7.824   4.825  -1.700 -0.4820  2.7823 -0.6028
 1007MOL0     H35915   7.728   4.898  -1.979  1.0941 -0.9082 -0.0299
 1007MOL0     H35916   7.675   4.969  -1.830 -4.2379 -1.0065 -1.5066
 1007MOL0     H35917   7.562   4.753  -1.764 -0.4065 -1.2070 -0.2297
 1007MOL0     H35918   7.630   4.673  -1.906 -0.9249 -0.1162  0.1076
 1007MOL0     H35919   7.403   4.700  -1.950  1.3014 -1.1934  0.5896
 1007MOL0     H35920   7.409   4.876  -1.922 -1.7983  0.1248  0.6293
 1007MOL0     H35921   7.565   4.730  -2.132 -1.5573 -2.0649  2.6397
 1007MOL0     H35922   7.564   4.912  -2.108 -0.4467  0.9509 -0.2504
 1007MOL0     H35923   7.426   4.872  -2.310  1.2379 -1.1788  0.2111
 1007MOL0     H35924   7.329   4.753  -2.220 -0.2965  0.0238 -1.2036
 1007MOL0     H35925   8.304   5.129  -1.621 -1.9136 -0.1777  2.4432
 1007MOL0     H35926   8.479   5.085  -1.446  1.6009 -0.4718 -2.2294
 1007MOL0     H35927   8.757   4.803  -1.225 -0.9806 -0.4151 -1.1287
 1007MOL0     H35928   8.903   4.789  -1.046 -1.4573 -0.8509 -0.1730
 1007MOL0     H35929   8.196   4.301   0.294 -2.0128  1.1923 -2.2923
 1007MOL0     H35930   8.021   4.303   0.131  1.3989  2.2799  1.7432
 1007MOL0     H35931   7.507   3.948   0.135  2.4678 -2.8854  0.0530
 1007MOL0     H35932   7.319   3.996   0.018  0.4414  1.0981  0.2091
 1007MOL0     H35933   7.173   4.066  -0.130  0.2071 -0.8586  1.0529
 1007MOL0     H35934   7.154   3.900  -0.177  0.9345  0.0520 -0.9335
 1007MOL0     H35935   7.082   3.945  -0.398  1.7135  1.1060 -0.6618
 1007MOL0     H35936   7.136   4.111  -0.383 -2.9994  2.1991  3.1468
 1007MOL0     H35937   6.966   4.125  -0.187 -0.7710  0.1468 -0.1231
 1007MOL0     H35938   6.930   3.953  -0.246  1.4850 -0.7953 -0.4338
 1007MOL0     H35939   6.902   4.220  -0.402  1.6746 -0.1870 -0.2328
 1007MOL0     H35940   6.880   4.064  -0.474 -3.1964  0.0928 -0.1079
 1007MOL0     H35941   6.529   4.103  -0.253  0.6296  2.4347  0.4220
 1007MOL0     H35942   7.546   4.028  -0.339 -0.1289  0.0473  0.1129
 1007MOL0     H35943   7.849   4.163  -0.185  2.4557 -1.5268  0.9084
 1007MOL0     H35944   7.849   3.996  -0.241  1.3253  0.3920 -0.8760
 1007MOL0     H35945   7.766   4.122  -0.331  0.8472 -0.3552 -0.2609
 1008MOL0     O35946   8.218  10.516  10.556 -0.1090  0.0948  0.2658
 1008MOL0     C35947   8.158  10.593  10.482 -0.5885 -0.3490  0.3071
 1008MOL0     O35948   8.186  10.728  10.467 -0.9312  0.0906  0.3270
 1008MOL0     C35949   8.314  10.765  10.494 -0.1648  0.7301  0.3383
 1008MOL0     C35950   8.343  10.808  10.627  0.1318  0.7392 -0.3004
 1008MOL0     C35951   8.480  10.822  10.656 -0.1706  0.0573  0.0064
 1008MOL0     C35952   8.585  10.805  10.570  0.2915  0.0638  0.4641
 1008MOL0     O35953   8.711  10.816  10.608  0.0943  0.8070 -0.2781
 1008MOL0     C35954   8.752  10.873  10.730  0.0631 -0.1841 -0.0131
 1008MOL0     C35955   8.889  10.953  10.731 -0.9469 -0.6561  0.6428
 1008MOL0     C35956   9.016  10.865  10.728 -0.4721 -0.0350 -0.7547
 1008MOL0     C35957   9.136  10.957  10.726  0.3500  0.9280  0.1089
 1008MOL0     C35958   9.274  10.888  10.747  0.8497  0.0499  0.5868
 1008MOL0     C35959   9.302  10.864  10.898  0.8176 -0.8237  0.0451
 1008MOL0     C35960   9.440  10.806  10.916  0.5350 -0.0519 -0.4435
 1008MOL0     C35961   9.489  10.785  11.060  0.6117 -0.6272  0.1114
 1008MOL0     N35962   9.619  10.731  11.064 -0.2285  0.1841 -0.1361
 1008MOL0     C35963   9.655  10.613  11.116  0.1404  0.4951 -0.6754
 1008MOL0     C35964   9.789  10.621  11.119  0.4449 -0.7545  0.3251
 1008MOL0     C35965   9.876  10.516  11.177  0.3133 -0.4786  0.4728
 1008MOL0     C35966   9.951  10.420  11.078  0.5442 -0.1978 -0.7251
 1008MOL0     C35967  10.077  10.370  11.148  0.2091 -0.1936 -0.0851
 1008MOL0     C35968  10.145  10.260  11.061 -1.2002 -0.6363 -0.4527
 1008MOL0     O35969  10.163  10.317  10.932 -0.8555 -0.4852 -0.2912
 1008MOL0     C35970  10.294  10.355  10.900 -0.4563 -0.6054  0.3392
 1008MOL0     C35971  10.387  10.405  10.990 -0.4456  0.3225  0.2738
 1008MOL0     C35972  10.519  10.451  10.954 -0.2017  0.0074  0.7665
 1008MOL0     C35973  10.564  10.438  10.823 -0.3629  0.4487  0.1025
 1008MOL0     C35974  10.700  10.473  10.782 -0.5673  0.4522  0.2715
 1008MOL0     O35975  10.722  10.484  10.654  0.5316  0.1353  0.3061
 1008MOL0     C35976  10.827  10.547  10.587 -0.5731 -0.0065 -0.6220
 1008MOL0     C35977  10.885  10.662  10.636  0.1806  0.3183  0.4294
 1008MOL0     C35978  10.982  10.738  10.573  0.2160  0.1823 -0.3447
 1008MOL0     C35979  11.022  10.702  10.447 -0.4443  0.4886 -0.0103
 1008MOL0     O35980  11.124  10.756  10.370 -0.4595 -0.9316 -0.3879
 1008MOL0     C35981  11.170  10.893  10.396 -0.4283 -0.4584 -0.7902
 1008MOL0     C35982  11.278  10.900  10.505  0.2584  0.5448  0.5099
 1008MOL0     C35983  11.378  10.782  10.483  0.0334  0.2798  0.5489
 1008MOL0     C35984  11.458  10.785  10.355  0.0863  0.2681  0.6795
 1008MOL0     C35985  11.563  10.666  10.345  0.2565 -0.5055  0.2049
 1008MOL0     C35986  11.668  10.658  10.449 -0.2878  0.2354 -0.0352
 1008MOL0     C35987  11.776  10.560  10.393 -0.1522  0.3501 -0.9084
 1008MOL0     C35988  11.858  10.630  10.279  0.4554 -0.3651 -0.2495
 1008MOL0    Cl35989  11.961  10.743  10.343 -0.0364  0.2121 -0.0745
 1008MOL0     C35990  10.967  10.585  10.393 -0.4795 -0.2937  0.2385
 1008MOL0     C35991  10.867  10.512  10.456  0.2673 -0.1243 -0.0386
 1008MOL0     O35992  10.779  10.497  10.873 -0.6818  0.7427  0.6925
 1008MOL0     C35993  10.482  10.364  10.740  0.5990 -0.4701 -0.0102
 1008MOL0     C35994  10.347  10.336  10.772 -0.3438  0.5767  0.9506
 1008MOL0     N35995   9.832  10.740  11.076  0.5816  0.1106  0.7923
 1008MOL0     N35996   9.726  10.804  11.051 -0.6737  0.1950 -0.6873
 1008MOL0     C35997   8.551  10.766  10.439 -0.3231  0.4568 -0.2806
 1008MOL0     C35998   8.422  10.745  10.398  0.1260  0.5127  0.0282
 1008MOL0     C35999   8.036  10.550  10.419  0.5401 -0.5874  0.3966
 1008MOL0     C36000   7.947  10.647  10.372  0.4355  0.2540 -0.0797
 1008MOL0     C36001   7.830  10.616  10.311  0.1337 -0.5498  0.2681
 1008MOL0     C36002   7.784  10.481  10.305  0.5479 -0.4058 -0.7153
 1008MOL0     O36003   7.664  10.443  10.255  0.0879  0.7281 -0.4778
 1008MOL0     C36004   7.583  10.544  10.203  0.8341 -0.3474  0.1458
 1008MOL0     C36005   7.454  10.478  10.153  0.9398  0.6228  0.4623
 1008MOL0     C36006   7.352  10.583  10.089 -1.1530  0.1916 -0.3876
 1008MOL0     C36007   7.244  10.513  10.010 -0.2674 -0.3486 -0.1176
 1008MOL0     C36008   7.147  10.611   9.952  0.1960 -0.1778 -1.2652
 1008MOL0     C36009   7.057  10.678   9.915  0.1591 -0.3508  0.4433
 1008MOL0     C36010   7.869  10.379  10.347 -0.9746  0.5236 -0.4787
 1008MOL0     C36011   7.995  10.417  10.405  0.0932 -0.5771  0.1771
 1008MOL0     C36012   8.068  10.295  10.463  1.0276 -0.5148  0.6041
 1008MOL0     H36013   8.263  10.815  10.699 -0.9193  1.3129 -1.4947
 1008MOL0     H36014   8.491  10.855  10.759  0.6703  3.6586 -1.0640
 1008MOL0     H36015   8.680  10.951  10.756  0.1714 -0.9795  3.1198
 1008MOL0     H36016   8.755  10.812  10.821 -1.2619  0.2377  0.3414
 1008MOL0     H36017   8.890  11.023  10.815 -1.2850 -1.6667  1.5156
 1008MOL0     H36018   8.897  11.002  10.634  0.1551 -0.0609  1.0146
 1008MOL0     H36019   9.019  10.800  10.641  4.1867 -0.6098 -0.4051
 1008MOL0     H36020   9.020  10.812  10.824 -0.5040  1.3791  0.0631
 1008MOL0     H36021   9.148  10.998  10.626  2.1165 -0.7924 -0.4605
 1008MOL0     H36022   9.127  11.020  10.815  0.2505 -0.0561  0.8112
 1008MOL0     H36023   9.278  10.793  10.691  3.9036 -0.2932  1.2394
 1008MOL0     H36024   9.352  10.953  10.706  0.8933 -0.1109  0.4066
 1008MOL0     H36025   9.294  10.960  10.950 -3.0299 -1.9315  1.9045
 1008MOL0     H36026   9.226  10.808  10.953  1.0687 -1.6220 -0.4077
 1008MOL0     H36027   9.519  10.864  10.868  1.2961 -0.4089  0.3278
 1008MOL0     H36028   9.433  10.708  10.868 -0.4698 -0.3293  0.2407
 1008MOL0     H36029   9.482  10.876  11.121  0.9895 -0.0882 -0.6419
 1008MOL0     H36030   9.424  10.713  11.111  0.4767 -0.3309  0.3641
 1008MOL0     H36031   9.594  10.532  11.157  0.4366  0.8692  0.5404
 1008MOL0     H36032   9.953  10.573  11.229  2.6104 -2.4848 -0.5241
 1008MOL0     H36033   9.827  10.459  11.256  2.8454 -2.1918  0.9377
 1008MOL0     H36034   9.881  10.340  11.052  0.5647 -0.5434  0.2628
 1008MOL0     H36035   9.972  10.483  10.991 -3.7742  2.8903  0.1946
 1008MOL0     H36036  10.038  10.325  11.240 -1.9712 -0.2345 -0.9661
 1008MOL0     H36037  10.148  10.447  11.182 -0.7918  1.3003 -1.2406
 1008MOL0     H36038  10.086  10.170  11.044 -1.3713  0.0058 -3.9176
 1008MOL0     H36039  10.234  10.224  11.114 -1.4129 -1.3635 -0.5786
 1008MOL0     H36040  10.379  10.423  11.097  0.7387  1.9261  0.1337
 1008MOL0     H36041  10.581  10.487  11.036 -0.9589  0.0251  1.3409
 1008MOL0     H36042  10.849  10.695  10.733 -0.7437 -0.1450  0.2548
 1008MOL0     H36043  11.034  10.818  10.624  1.2115 -1.6284  1.6255
 1008MOL0     H36044  11.202  10.928  10.297 -4.3747 -0.8030 -2.3471
 1008MOL0     H36045  11.086  10.959  10.420  1.5671  1.7960  0.4495
 1008MOL0     H36046  11.333  10.995  10.508 -1.7507  1.7367  1.4141
 1008MOL0     H36047  11.250  10.888  10.610  1.1888  0.1906  0.7346
 1008MOL0     H36048  11.448  10.765  10.565  0.3323  0.8612  0.4273
 1008MOL0     H36049  11.317  10.691  10.481  0.7468 -0.2415 -2.6709
 1008MOL0     H36050  11.507  10.882  10.339  0.4939  0.3289  2.1878
 1008MOL0     H36051  11.395  10.772  10.266 -0.1746 -0.5358  0.9713
 1008MOL0     H36052  11.609  10.673  10.246  1.2610 -1.1435  0.6133
 1008MOL0     H36053  11.506  10.574  10.357 -2.4880  1.3348  2.4127
 1008MOL0     H36054  11.709  10.759  10.452 -0.3249  0.5295 -4.1753
 1008MOL0     H36055  11.624  10.626  10.544 -0.7528 -0.2385 -0.4050
 1008MOL0     H36056  11.723  10.468  10.365  0.2194 -0.8976  2.1519
 1008MOL0     H36057  11.847  10.523  10.467 -1.1534 -1.4248 -0.7776
 1008MOL0     H36058  11.919  10.559  10.223  1.0536 -1.7318  2.0022
 1008MOL0     H36059  11.797  10.681  10.204  0.3450  0.0007  0.0890
 1008MOL0     H36060  10.998  10.551  10.295  1.2682 -1.9438  1.2899
 1008MOL0     H36061  10.827  10.426  10.404 -1.7465 -1.1550  2.9223
 1008MOL0     H36062  10.502  10.336  10.637 -0.0783 -2.0424  0.2562
 1008MOL0     H36063  10.280  10.300  10.694 -0.7478 -0.4252  1.7309
 1008MOL0     H36064   8.629  10.748  10.366 -1.0549 -2.0028 -0.5414
 1008MOL0     H36065   8.422  10.708  10.296  1.3958  1.1184 -0.2143
 1008MOL0     H36066   7.977  10.751  10.380  0.9237  0.1939 -0.9788
 1008MOL0     H36067   7.765  10.699  10.286  1.3541  0.5648  0.6572
 1008MOL0     H36068   7.638  10.595  10.123 -0.1813 -1.3969 -1.2734
 1008MOL0     H36069   7.552  10.608  10.286 -2.5579  0.6971 -1.7194
 1008MOL0     H36070   7.405  10.412  10.225 -0.1229  1.4204  0.4874
 1008MOL0     H36071   7.489  10.407  10.078 -1.4465 -0.5733  0.4003
 1008MOL0     H36072   7.409  10.640  10.015  0.3559 -0.3230  0.3317
 1008MOL0     H36073   7.318  10.645  10.172  0.0392 -1.1355  1.1558
 1008MOL0     H36074   7.291  10.462   9.925 -1.2649 -2.0554  0.3067
 1008MOL0     H36075   7.189  10.442  10.073  1.1848 -1.2665  0.1508
 1008MOL0     H36076   6.973  10.739   9.888  1.3536  0.6544 -1.1374
 1008MOL0     H36077   7.844  10.274  10.340  0.2334 -0.1532  3.0177
 1008MOL0     H36078   8.072  10.307  10.572  2.7406 -0.8452  0.6105
 1008MOL0     H36079   8.020  10.204  10.426 -1.6818  0.9139  0.3218
 1008MOL0     H36080   8.166  10.286  10.415  0.2613  0.0562 -1.1431
 1009MOL0     O36081   4.665   4.961   9.581  0.5457  0.3465 -0.2436
 1009MOL0     C36082   4.606   5.038   9.656 -0.0357 -0.3009  0.6446
 1009MOL0     O36083   4.657   5.155   9.698  0.1893  0.4775 -0.2162
 1009MOL0     C36084   4.783   5.166   9.744 -0.1762  0.1563  1.1863
 1009MOL0     C36085   4.839   5.084   9.843  0.4940  1.0353  0.0358
 1009MOL0     C36086   4.973   5.083   9.871 -0.2370  0.6658 -0.3481
 1009MOL0     C36087   5.062   5.171   9.798 -0.3022 -0.1224 -0.3356
 1009MOL0     O36088   5.196   5.157   9.815  0.1835 -0.1138 -0.0534
 1009MOL0     C36089   5.286   5.246   9.744  0.1864  0.4111 -0.4696
 1009MOL0     C36090   5.430   5.179   9.758 -0.3603  0.4721  0.1323
 1009MOL0     C36091   5.492   5.184   9.897  0.1207 -0.8754 -0.8236
 1009MOL0     C36092   5.634   5.127   9.894  0.2142  0.4658 -0.1840
 1009MOL0     C36093   5.703   5.162  10.023 -0.0189  0.7232  0.1803
 1009MOL0     C36094   5.851   5.118  10.015  1.0331 -0.2872 -0.6697
 1009MOL0     C36095   5.920   5.154  10.141 -0.0827  0.3097 -0.6865
 1009MOL0     C36096   6.075   5.173  10.130 -0.3064  0.3786  0.5318
 1009MOL0     N36097   6.111   5.289  10.043  0.1550 -0.2229  0.1667
 1009MOL0     C36098   6.139   5.285   9.903  0.7991 -0.4666 -0.3431
 1009MOL0     C36099   6.166   5.418   9.877  0.5748  0.5996 -0.1210
 1009MOL0     C36100   6.192   5.481   9.746 -1.1355 -0.1327  1.0827
 1009MOL0     C36101   6.208   5.395   9.617 -0.5462 -0.3197 -0.2753
 1009MOL0     C36102   6.225   5.480   9.491 -0.3615 -0.3599  0.5989
 1009MOL0     C36103   6.362   5.550   9.467  1.1970 -0.3774  0.2169
 1009MOL0     O36104   6.459   5.453   9.441  0.9270  0.9134  0.2434
 1009MOL0     C36105   6.574   5.458   9.516 -0.6318 -0.3701 -0.5529
 1009MOL0     C36106   6.687   5.531   9.481  0.3442  0.5829  0.1623
 1009MOL0     C36107   6.792   5.544   9.569 -0.6695 -0.3418  0.1285
 1009MOL0     C36108   6.801   5.465   9.686  0.5546  0.2352 -0.2043
 1009MOL0     C36109   6.925   5.465   9.767  0.0798  0.0288 -0.7903
 1009MOL0     O36110   6.923   5.377   9.870  0.0359 -0.1782  0.1058
 1009MOL0     C36111   7.025   5.368   9.959 -0.3354 -0.7309 -0.2434
 1009MOL0     C36112   7.062   5.477  10.046  0.0928  0.4773 -0.6904
 1009MOL0     C36113   7.159   5.465  10.142  0.0821 -0.4389 -0.3413
 1009MOL0     C36114   7.238   5.346  10.137 -0.0007 -0.2720 -0.4830
 1009MOL0     O36115   7.352   5.338  10.227 -0.6496  0.8539 -0.4903
 1009MOL0     C36116   7.448   5.232  10.205 -0.1035  0.3584 -0.3893
 1009MOL0     C36117   7.555   5.235  10.311  0.0970  0.4733  0.7242
 1009MOL0     C36118   7.663   5.137  10.269 -0.2722 -0.7990  0.0746
 1009MOL0     C36119   7.788   5.131  10.354  1.2299 -0.1008  0.0975
 1009MOL0     C36120   7.904   5.054  10.274  0.8034 -0.8657 -0.5961
 1009MOL0     C36121   8.035   5.050  10.355 -0.8606  0.3065  0.3683
 1009MOL0     C36122   8.109   5.187  10.330  0.3741  0.9246  0.1612
 1009MOL0     C36123   8.225   5.204  10.425  0.3670 -0.4357  0.2447
 1009MOL0    Cl36124   8.263   5.373  10.466  0.0937  0.1785  0.3566
 1009MOL0     C36125   7.194   5.240  10.060 -0.1801 -0.1628  0.5959
 1009MOL0     C36126   7.086   5.249   9.975  0.2319 -0.0448  0.8026
 1009MOL0     O36127   7.020   5.539   9.742 -0.2909 -0.4424  0.1428
 1009MOL0     C36128   6.691   5.377   9.714  0.8062 -0.3147  0.0666
 1009MOL0     C36129   6.578   5.379   9.632 -0.1237  0.0250 -0.3449
 1009MOL0     N36130   6.163   5.493   9.992  0.0637  0.6725  0.0304
 1009MOL0     N36131   6.131   5.411  10.089 -0.2828  0.1602 -0.1575
 1009MOL0     C36132   4.999   5.249   9.697  0.3858  0.3795 -0.0719
 1009MOL0     C36133   4.864   5.253   9.668 -0.2303  0.5370  0.8757
 1009MOL0     C36134   4.461   5.019   9.683  0.5398 -0.4971 -0.5405
 1009MOL0     C36135   4.392   5.117   9.759 -0.1186 -0.3622 -0.1868
 1009MOL0     C36136   4.256   5.110   9.799  0.0706  0.5053 -0.0574
 1009MOL0     C36137   4.178   5.001   9.765  0.0172  0.0915 -0.1906
 1009MOL0     O36138   4.046   5.010   9.809  0.2350  0.4436  0.2245
 1009MOL0     C36139   3.950   4.894   9.797  0.3345 -0.7272 -0.1324
 1009MOL0     C36140   3.828   4.932   9.711  0.4227 -0.2531 -0.6259
 1009MOL0     C36141   3.855   5.048   9.615 -0.4626  0.3195 -0.7744
 1009MOL0     C36142   3.799   5.007   9.479  0.0011 -0.0752  0.1077
 1009MOL0     C36143   3.823   5.113   9.386  0.1831 -0.4585 -0.1342
 1009MOL0     C36144   3.831   5.204   9.308  0.3061  0.1176  0.1621
 1009MOL0     C36145   4.246   4.897   9.700 -0.3153 -0.1236  0.5704
 1009MOL0     C36146   4.383   4.895   9.660 -0.0436 -0.6415 -0.0749
 1009MOL0     C36147   4.438   4.772   9.594 -0.7378 -0.0905 -0.8772
 1009MOL0     H36148   4.771   5.010   9.885  0.9050  0.4087 -0.3779
 1009MOL0     H36149   5.027   5.026   9.946  0.5379  1.0363 -0.6194
 1009MOL0     H36150   5.255   5.235   9.640 -4.9211 -0.0876  0.8022
 1009MOL0     H36151   5.282   5.350   9.776 -0.6196  0.0848  0.5533
 1009MOL0     H36152   5.492   5.246   9.699  0.5557  2.2755  2.9317
 1009MOL0     H36153   5.427   5.075   9.722 -0.7798  1.2578 -2.2707
 1009MOL0     H36154   5.422   5.139   9.968  0.6583 -0.1018  0.2088
 1009MOL0     H36155   5.494   5.289   9.928  0.0844 -1.5331  1.5627
 1009MOL0     H36156   5.623   5.018   9.897  0.7243  0.4157  1.7264
 1009MOL0     H36157   5.698   5.154   9.810  1.5238 -0.3987  0.5052
 1009MOL0     H36158   5.698   5.269  10.045 -1.9320  0.5124  0.9497
 1009MOL0     H36159   5.655   5.113  10.108 -0.2334  2.1668  0.9294
 1009MOL0     H36160   5.857   5.009  10.007  0.9105 -0.5939  2.3006
 1009MOL0     H36161   5.903   5.158   9.927  1.6917  3.7318  1.2948
 1009MOL0     H36162   5.892   5.090  10.225 -0.7332  0.2739 -0.9244
 1009MOL0     H36163   5.882   5.250  10.177  0.3455  0.7538 -1.4007
 1009MOL0     H36164   6.112   5.184  10.232 -1.6278  0.0850  1.0561
 1009MOL0     H36165   6.130   5.085  10.096  0.9636  0.8702  1.2493
 1009MOL0     H36166   6.124   5.204   9.832 -0.4933 -2.2740  1.8556
 1009MOL0     H36167   6.109   5.550   9.728 -2.1404 -1.3405  0.9898
 1009MOL0     H36168   6.277   5.549   9.741 -1.4306  0.1418 -1.2953
 1009MOL0     H36169   6.291   5.326   9.632 -0.6576 -0.5308 -0.6347
 1009MOL0     H36170   6.121   5.329   9.609 -0.1481 -0.7383 -1.2536
 1009MOL0     H36171   6.146   5.554   9.482  1.1230  1.0356 -2.9351
 1009MOL0     H36172   6.215   5.404   9.413 -1.3548 -0.1397  0.5075
 1009MOL0     H36173   6.384   5.613   9.553 -0.7983 -1.1080  1.3344
 1009MOL0     H36174   6.344   5.619   9.384  1.8072  0.4983  0.7869
 1009MOL0     H36175   6.684   5.578   9.384  2.0180  1.5846  0.5570
 1009MOL0     H36176   6.875   5.611   9.547  1.3375 -2.4416  0.8703
 1009MOL0     H36177   7.002   5.567  10.034 -2.7271 -1.1741  0.0049
 1009MOL0     H36178   7.190   5.552  10.199  0.6324  0.4704 -1.9562
 1009MOL0     H36179   7.407   5.131  10.213  0.2990  0.1105 -1.2908
 1009MOL0     H36180   7.488   5.241  10.103 -0.4071 -2.4634 -0.8450
 1009MOL0     H36181   7.605   5.332  10.319  4.4365 -1.4772  0.3339
 1009MOL0     H36182   7.508   5.206  10.406 -2.4966 -1.2147 -0.9466
 1009MOL0     H36183   7.615   5.039  10.266 -0.4973 -0.7104  0.6410
 1009MOL0     H36184   7.693   5.167  10.169 -0.7075 -0.3044  0.0890
 1009MOL0     H36185   7.779   5.072  10.446 -2.8209  1.2453  0.7566
 1009MOL0     H36186   7.817   5.235  10.376  0.5380  0.6094 -2.1268
 1009MOL0     H36187   7.931   5.094  10.176 -0.1815  4.0351  0.8646
 1009MOL0     H36188   7.867   4.951  10.267 -2.9721  0.1665  1.4458
 1009MOL0     H36189   8.016   5.028  10.460 -0.9010 -2.3947 -0.1506
 1009MOL0     H36190   8.092   4.968  10.310  0.4901  1.3885  0.0455
 1009MOL0     H36191   8.046   5.267  10.369 -3.3669 -1.7475  0.1086
 1009MOL0     H36192   8.131   5.208  10.225 -0.5473  1.2186  0.0209
 1009MOL0     H36193   8.198   5.156  10.520 -0.2043  1.2931  0.9921
 1009MOL0     H36194   8.317   5.159  10.386  2.0775  0.4227  3.0300
 1009MOL0     H36195   7.251   5.149  10.048  0.9382  0.6452 -0.5318
 1009MOL0     H36196   7.052   5.175   9.904  0.4807  1.7335 -1.2925
 1009MOL0     H36197   6.701   5.312   9.801 -1.0953 -1.1065 -0.2434
 1009MOL0     H36198   6.493   5.314   9.653  0.1446 -0.1238  0.3315
 1009MOL0     H36199   5.071   5.298   9.633  0.5970 -2.5300 -2.2491
 1009MOL0     H36200   4.824   5.320   9.593  0.1758  1.1610  1.2032
 1009MOL0     H36201   4.439   5.210   9.790 -1.7757  0.9433 -1.3995
 1009MOL0     H36202   4.206   5.186   9.858 -2.0420 -3.1323  3.3214
 1009MOL0     H36203   3.925   4.855   9.896  1.4625  1.0932  0.9190
 1009MOL0     H36204   3.995   4.813   9.738  2.0626  1.8842 -2.6916
 1009MOL0     H36205   3.758   4.974   9.784  1.6291  1.7254 -0.5201
 1009MOL0     H36206   3.775   4.844   9.673 -2.1001  0.6570  0.5032
 1009MOL0     H36207   3.962   5.059   9.592 -0.1697 -1.7127 -0.6106
 1009MOL0     H36208   3.817   5.144   9.650  1.4340  1.1667 -0.8957
 1009MOL0     H36209   3.835   4.908   9.447  0.0453 -0.4011  1.1096
 1009MOL0     H36210   3.692   4.986   9.481  0.3800 -2.7332  3.4964
 1009MOL0     H36211   3.865   5.289   9.252  1.4864  0.2764  1.0681
 1009MOL0     H36212   4.178   4.825   9.656  0.8608 -0.5249 -0.6451
 1009MOL0     H36213   4.459   4.692   9.665  0.1552  0.7616 -0.1605
 1009MOL0     H36214   4.356   4.731   9.534 -2.8409  1.9912  0.4041
 1009MOL0     H36215   4.525   4.785   9.528 -0.3612 -0.6744 -0.4984
 1010MOL0     O36216   6.229   9.912  10.922  0.0413  0.4309 -0.2818
 1010MOL0     C36217   6.164   9.843  10.838  0.0077 -0.5099 -0.0298
 1010MOL0     O36218   6.219   9.740  10.769  0.4102 -0.1232 -0.5881
 1010MOL0     C36219   6.348   9.694  10.812 -0.0741  0.5780 -0.1273
 1010MOL0     C36220   6.350   9.575  10.896 -0.7342  0.1919 -0.3417
 1010MOL0     C36221   6.487   9.531  10.938  0.3392  0.2986 -0.1271
 1010MOL0     C36222   6.607   9.599  10.889  0.0784  0.7382  0.0628
 1010MOL0     O36223   6.738   9.565  10.927 -0.2656  0.6177  0.1861
 1010MOL0     C36224   6.758   9.520  11.063  0.9717 -0.1777  0.7172
 1010MOL0     C36225   6.897   9.517  11.084 -0.7134  0.3626 -0.7532
 1010MOL0     C36226   6.978   9.419  10.995 -0.9644 -0.0267 -0.1834
 1010MOL0     C36227   7.122   9.477  10.989  0.2452  0.2797  0.0279
 1010MOL0     C36228   7.203   9.363  10.923 -0.5419  0.2365  0.1743
 1010MOL0     C36229   7.348   9.375  10.962  0.1537 -0.5970  0.5714
 1010MOL0     C36230   7.386   9.356  11.106 -0.1511  0.1553  0.3075
 1010MOL0     C36231   7.538   9.346  11.106  0.8857 -0.9608 -0.6046
 1010MOL0     N36232   7.577   9.338  11.244  1.1998 -0.0670 -0.0877
 1010MOL0     C36233   7.630   9.224  11.312 -0.4621  0.5468  0.1787
 1010MOL0     C36234   7.671   9.273  11.427 -0.4237 -0.0640  0.0746
 1010MOL0     C36235   7.744   9.188  11.534  0.3892 -0.4201 -0.0513
 1010MOL0     C36236   7.791   9.260  11.660 -0.5119  0.1953  0.3477
 1010MOL0     C36237   7.855   9.173  11.762 -0.5265 -0.3713 -0.0137
 1010MOL0     C36238   7.937   9.250  11.859 -0.0006 -0.6269 -0.8885
 1010MOL0     O36239   7.986   9.160  11.957 -0.1291 -0.4838  0.3029
 1010MOL0     C36240   8.119   9.182  11.990  0.3410 -0.2440 -1.0058
 1010MOL0     C36241   8.161   9.311  12.017 -0.8205  0.1128  0.0098
 1010MOL0     C36242   8.299   9.337  12.048  0.4857 -0.3941 -0.0411
 1010MOL0     C36243   8.392   9.225  12.054  0.8347 -0.0847 -0.4371
 1010MOL0     C36244   8.535   9.255  12.051 -0.2257 -0.3451 -0.5671
 1010MOL0     O36245   8.578   9.384  12.072 -0.1164  0.7534  0.3008
 1010MOL0     C36246   8.703   9.408  12.098  0.1608  1.1305  0.7120
 1010MOL0     C36247   8.785   9.349  12.187  0.4482  0.3886 -0.7655
 1010MOL0     C36248   8.919   9.364  12.209  0.2767  0.5644 -0.2982
 1010MOL0     C36249   8.989   9.451  12.130  0.2074 -0.4852 -0.6459
 1010MOL0     O36250   9.120   9.460  12.147  0.4049  0.3632  0.4767
 1010MOL0     C36251   9.199   9.484  12.029  0.3806 -0.6030  0.2502
 1010MOL0     C36252   9.347   9.476  12.068  1.3423 -0.1096  0.2750
 1010MOL0     C36253   9.431   9.507  11.952  0.1406 -0.0528 -0.4240
 1010MOL0     C36254   9.577   9.484  12.000 -0.7808 -0.0749  0.0215
 1010MOL0     C36255   9.680   9.479  11.879  0.3296  0.0094  0.4223
 1010MOL0     C36256   9.818   9.463  11.933 -0.3277  0.0953  0.0088
 1010MOL0     C36257   9.897   9.400  11.832  0.0034  0.3193  0.2484
 1010MOL0     C36258  10.052   9.395  11.867  0.1032 -0.7094  0.4907
 1010MOL0    Cl36259  10.084   9.316  12.020  0.2791  0.0682 -0.1832
 1010MOL0     C36260   8.916   9.532  12.039 -0.2692  0.2854 -0.4782
 1010MOL0     C36261   8.775   9.508  12.026 -0.0725 -0.1161  0.2852
 1010MOL0     O36262   8.612   9.159  12.054 -0.2954 -0.2609 -0.4067
 1010MOL0     C36263   8.340   9.096  12.040 -0.0800 -0.5060 -0.4463
 1010MOL0     C36264   8.208   9.071  12.006  0.4666 -0.7808  0.1281
 1010MOL0     N36265   7.631   9.405  11.437 -0.0210 -0.5303 -0.4789
 1010MOL0     N36266   7.568   9.442  11.329  0.5896  0.2278 -0.3267
 1010MOL0     C36267   6.590   9.704  10.798 -0.6192  0.4647  0.1794
 1010MOL0     C36268   6.468   9.758  10.771 -0.3716 -0.2821  0.1447
 1010MOL0     C36269   6.032   9.898  10.802  0.3848 -0.7073 -0.0642
 1010MOL0     C36270   6.000  10.028  10.834 -0.0801 -0.7044  1.2162
 1010MOL0     C36271   5.884  10.091  10.798 -0.3639  0.9105  0.2164
 1010MOL0     C36272   5.790  10.019  10.720 -0.4977  0.0943 -0.9306
 1010MOL0     O36273   5.677  10.097  10.685  0.7985  0.4451  0.5522
 1010MOL0     C36274   5.598  10.038  10.579  0.2451 -0.3009 -0.3075
 1010MOL0     C36275   5.475  10.128  10.577  0.5183  0.3758  0.4141
 1010MOL0     C36276   5.496  10.263  10.500  0.3895  0.5624 -0.2025
 1010MOL0     C36277   5.457  10.248  10.359  0.2997  0.4691  0.0390
 1010MOL0     C36278   5.452  10.378  10.295  0.2612 -0.1515 -0.0987
 1010MOL0     C36279   5.465  10.489  10.246 -0.0057  0.6916  0.4087
 1010MOL0     C36280   5.818   9.881  10.697  0.1989 -0.8756  0.1589
 1010MOL0     C36281   5.933   9.823  10.730 -0.2224  0.5152 -0.0272
 1010MOL0     C36282   5.951   9.678  10.720  0.1108  0.3472 -0.0245
 1010MOL0     H36283   6.254   9.532  10.925  0.6524 -2.1621  1.1007
 1010MOL0     H36284   6.507   9.449  11.006 -1.6224 -0.9899 -1.0054
 1010MOL0     H36285   6.699   9.578  11.136  0.4290  1.4330 -0.9011
 1010MOL0     H36286   6.727   9.416  11.071  3.3656 -0.9634  0.2125
 1010MOL0     H36287   6.927   9.488  11.185 -1.7702 -2.9191 -1.2443
 1010MOL0     H36288   6.935   9.618  11.067  2.0723 -0.2796  0.9389
 1010MOL0     H36289   6.954   9.423  10.888  3.4107 -2.0748 -1.4810
 1010MOL0     H36290   6.960   9.316  11.028 -0.1043  0.3145  1.4311
 1010MOL0     H36291   7.113   9.569  10.930 -0.0287  0.7097  0.7237
 1010MOL0     H36292   7.161   9.500  11.089  1.0391  0.2237 -0.2650
 1010MOL0     H36293   7.162   9.266  10.953  2.7779 -1.4593 -0.3200
 1010MOL0     H36294   7.197   9.372  10.814  0.6790 -2.4356 -0.1948
 1010MOL0     H36295   7.408   9.308  10.900  1.5915  0.1243  1.1343
 1010MOL0     H36296   7.375   9.474  10.923 -3.4560  1.2361  2.2982
 1010MOL0     H36297   7.350   9.259  11.142  1.5227 -1.3089 -1.6738
 1010MOL0     H36298   7.350   9.443  11.162 -0.3094  0.9788 -1.0344
 1010MOL0     H36299   7.565   9.268  11.035  0.3003 -0.2374 -1.6558
 1010MOL0     H36300   7.583   9.438  11.066  1.3305 -0.9383 -0.0677
 1010MOL0     H36301   7.636   9.121  11.276 -1.3948  0.6649 -0.3595
 1010MOL0     H36302   7.678   9.104  11.557  0.7206 -0.7530 -0.3071
 1010MOL0     H36303   7.837   9.152  11.487  1.2248  1.4764  0.0749
 1010MOL0     H36304   7.862   9.340  11.635 -1.7674  0.8591 -1.2671
 1010MOL0     H36305   7.697   9.295  11.705 -1.3669 -1.3801 -0.1167
 1010MOL0     H36306   7.929   9.114  11.708 -0.6414 -0.6227  0.1038
 1010MOL0     H36307   7.783   9.104  11.806  0.3050 -0.4696  1.2392
 1010MOL0     H36308   7.868   9.322  11.904 -1.6890 -2.7101  0.0302
 1010MOL0     H36309   8.013   9.307  11.805 -2.4669  2.0984 -1.7553
 1010MOL0     H36310   8.088   9.391  12.007 -0.1224  0.9779  1.4875
 1010MOL0     H36311   8.335   9.438  12.059  0.2809 -0.1416 -1.5004
 1010MOL0     H36312   8.731   9.289  12.259 -0.4552  1.6563 -0.3700
 1010MOL0     H36313   8.969   9.309  12.288 -0.1834 -0.2733 -0.5739
 1010MOL0     H36314   9.176   9.401  11.961  1.5265  1.1357 -2.4307
 1010MOL0     H36315   9.175   9.577  11.977  0.4933 -1.4131 -1.3288
 1010MOL0     H36316   9.359   9.551  12.148 -0.3746 -1.6455  2.1109
 1010MOL0     H36317   9.367   9.377  12.109 -0.1078 -0.7548 -0.5067
 1010MOL0     H36318   9.409   9.438  11.870 -1.1245 -0.3364  0.1378
 1010MOL0     H36319   9.417   9.611  11.920 -0.5883  0.3250  1.0545
 1010MOL0     H36320   9.595   9.397  12.063  0.2010 -0.8739 -1.3260
 1010MOL0     H36321   9.608   9.581  12.042  2.0297  0.7860 -3.5243
 1010MOL0     H36322   9.668   9.575  11.828 -2.2150  0.2917  1.3906
 1010MOL0     H36323   9.655   9.393  11.816  0.2581 -0.5744  1.2318
 1010MOL0     H36324   9.859   9.561  11.959  0.1772  0.0689 -0.6824
 1010MOL0     H36325   9.821   9.402  12.024  1.4392 -0.3462 -0.3163
 1010MOL0     H36326   9.887   9.465  11.745 -0.2440  2.0323  1.5139
 1010MOL0     H36327   9.864   9.298  11.808 -2.9473  0.6808  2.2461
 1010MOL0     H36328  10.103   9.344  11.785 -1.0282  1.8564 -1.9829
 1010MOL0     H36329  10.090   9.498  11.871 -2.2438  0.3013 -1.0442
 1010MOL0     H36330   8.958   9.612  11.979  2.3607 -0.2997  0.4422
 1010MOL0     H36331   8.720   9.564  11.952 -0.2400 -2.6254 -1.6357
 1010MOL0     H36332   8.414   9.017  12.039 -0.0237 -0.4561 -2.4475
 1010MOL0     H36333   8.171   8.972  11.982 -1.1696  0.3259 -2.2994
 1010MOL0     H36334   6.674   9.755  10.753 -0.4398  1.5906  1.7104
 1010MOL0     H36335   6.464   9.848  10.710  4.3514  2.3408  3.1598
 1010MOL0     H36336   6.071  10.095  10.881 -1.4072  2.2535 -0.6999
 1010MOL0     H36337   5.864  10.197  10.811  1.3628  1.5433 -1.6674
 1010MOL0     H36338   5.562   9.937  10.601 -0.7246  0.1168  0.0315
 1010MOL0     H36339   5.644  10.046  10.479  2.0645 -1.0300  0.4158
 1010MOL0     H36340   5.436  10.162  10.674 -0.9823  0.2210 -0.1059
 1010MOL0     H36341   5.397  10.071  10.526  2.6533 -1.2878 -1.2111
 1010MOL0     H36342   5.594  10.309  10.516  0.5666  0.0382  0.2750
 1010MOL0     H36343   5.424  10.330  10.548 -0.5435 -0.8277  0.4361
 1010MOL0     H36344   5.537  10.186  10.317  0.7295  0.7176  0.4850
 1010MOL0     H36345   5.357  10.204  10.362  0.9095 -1.0422 -0.3402
 1010MOL0     H36346   5.491  10.589  10.218  0.3241  0.7313  0.8537
 1010MOL0     H36347   5.743   9.821  10.645 -2.6208  3.1221 -0.8385
 1010MOL0     H36348   5.858   9.634  10.685 -0.6999  2.3287 -0.5044
 1010MOL0     H36349   6.032   9.656  10.649 -0.7523  0.6852 -1.1356
 1010MOL0     H36350   5.966   9.629  10.817  0.7488 -0.9698 -0.7760
 1011MOL0     O36351   9.867   6.691   5.110  0.0945 -0.1095  1.2746
 1011MOL0     C36352   9.773   6.680   5.029  0.3993  0.7117 -0.0020
 1011MOL0     O36353   9.767   6.730   4.902 -0.0320 -0.1760  0.0967
 1011MOL0     C36354   9.867   6.807   4.858 -0.1552 -0.2398 -0.3255
 1011MOL0     C36355   9.867   6.942   4.886  0.1229 -0.3969 -0.2656
 1011MOL0     C36356   9.973   7.020   4.847  1.0632 -0.2896 -0.3146
 1011MOL0     C36357  10.083   6.970   4.777 -0.4751  0.4178  0.4450
 1011MOL0     O36358  10.177   7.063   4.743  0.3713  0.4482  0.1902
 1011MOL0     C36359  10.317   7.022   4.744  0.6357 -0.3323 -0.5910
 1011MOL0     C36360  10.399   7.146   4.699 -0.0209  0.2081  0.0974
 1011MOL0     C36361  10.551   7.132   4.693  0.0647  0.2697  0.4935
 1011MOL0     C36362  10.617   7.262   4.640  0.0358 -0.6295  0.3124
 1011MOL0     C36363  10.767   7.257   4.637  0.4107 -0.2832 -0.2598
 1011MOL0     C36364  10.819   7.283   4.774  0.2784  0.6898 -0.2549
 1011MOL0     C36365  10.964   7.274   4.776  0.1332  0.7705 -0.0053
 1011MOL0     C36366  11.031   7.315   4.910  0.6611 -0.2895 -0.0154
 1011MOL0     N36367  11.173   7.311   4.902  0.3003  0.3044 -0.9617
 1011MOL0     C36368  11.252   7.412   4.958  0.0761  0.2805 -0.7093
 1011MOL0     C36369  11.379   7.382   4.920 -0.7794 -0.0238  0.1379
 1011MOL0     C36370  11.507   7.449   4.968 -0.5510  0.4913 -0.3155
 1011MOL0     C36371  11.619   7.440   4.865 -0.6551  0.5546 -0.2102
 1011MOL0     C36372  11.610   7.546   4.760  0.2186 -0.8829  0.0695
 1011MOL0     C36373  11.713   7.530   4.653 -0.7382 -0.3310 -0.1572
 1011MOL0     O36374  11.810   7.633   4.689 -0.2460 -0.0644  0.1078
 1011MOL0     C36375  11.934   7.628   4.622  0.2761 -0.0625  0.6709
 1011MOL0     C36376  11.962   7.564   4.501  0.7351 -0.0454 -0.1159
 1011MOL0     C36377  12.082   7.564   4.443 -0.2062 -1.2437  0.7734
 1011MOL0     C36378  12.191   7.630   4.502  0.9602  0.1745  0.3455
 1011MOL0     C36379  12.328   7.608   4.453 -1.0552  0.2927 -0.0055
 1011MOL0     O36380  12.341   7.575   4.323 -0.2853 -0.1179  0.1535
 1011MOL0     C36381  12.459   7.555   4.252 -0.2610 -0.4645 -0.2544
 1011MOL0     C36382  12.471   7.449   4.158  0.5144  0.2855  0.1277
 1011MOL0     C36383  12.589   7.433   4.078 -0.3766 -0.2293 -0.3639
 1011MOL0     C36384  12.701   7.522   4.087 -0.6139 -0.1625  0.2635
 1011MOL0     O36385  12.807   7.510   4.005 -0.0043  0.8946  0.2488
 1011MOL0     C36386  12.917   7.610   4.017  0.6018 -0.5372  0.4363
 1011MOL0     C36387  13.011   7.590   3.911  0.6188 -0.3046  0.2536
 1011MOL0     C36388  13.087   7.449   3.916 -0.4495 -0.6941  0.3059
 1011MOL0     C36389  13.185   7.437   4.028  0.6484  0.2187 -0.4039
 1011MOL0     C36390  13.273   7.308   4.012 -0.4969 -0.5408  0.3600
 1011MOL0     C36391  13.381   7.296   4.111 -0.1165 -0.7676  0.5697
 1011MOL0     C36392  13.468   7.174   4.088 -0.3999  0.4742 -0.7391
 1011MOL0     C36393  13.553   7.147   4.222  0.7046  0.3309  0.2234
 1011MOL0    Cl36394  13.702   7.062   4.178  0.0928 -0.4568  0.0206
 1011MOL0     C36395  12.684   7.629   4.178  0.5918 -0.6552 -0.1691
 1011MOL0     C36396  12.567   7.643   4.258  0.0763  0.5027  0.3146
 1011MOL0     O36397  12.416   7.623   4.533  0.5003 -0.7977  0.2308
 1011MOL0     C36398  12.168   7.696   4.622 -0.3965 -0.3245 -0.3171
 1011MOL0     C36399  12.037   7.698   4.683  0.0687  0.4399 -0.4266
 1011MOL0     N36400  11.370   7.278   4.836  0.0425  0.3026 -0.3524
 1011MOL0     N36401  11.249   7.244   4.812 -0.1218  0.0302  0.8958
 1011MOL0     C36402  10.087   6.832   4.753  0.3715  0.3751 -0.4049
 1011MOL0     C36403   9.981   6.751   4.795 -0.0634  0.5227 -1.1803
 1011MOL0     C36404   9.661   6.585   5.057 -0.2291  0.7609 -1.2948
 1011MOL0     C36405   9.585   6.532   4.956  0.5857  0.5432  0.1031
 1011MOL0     C36406   9.477   6.437   4.973 -0.3813 -0.0861  0.8105
 1011MOL0     C36407   9.437   6.411   5.105 -0.1914  0.2573 -0.6769
 1011MOL0     O36408   9.346   6.311   5.121 -0.0630  0.0813 -0.2053
 1011MOL0     C36409   9.314   6.270   5.261  0.0239 -0.1536  0.2877
 1011MOL0     C36410   9.410   6.152   5.293  0.6877 -0.0309  0.2013
 1011MOL0     C36411   9.382   6.106   5.436  0.7212  0.5123  0.2619
 1011MOL0     C36412   9.403   5.963   5.467  0.1835 -0.3382 -0.0166
 1011MOL0     C36413   9.532   5.912   5.410  0.5074 -0.3257 -0.2166
 1011MOL0     C36414   9.632   5.855   5.387  0.9917 -0.7532  0.4848
 1011MOL0     C36415   9.514   6.470   5.215 -0.0022  0.7036 -0.0008
 1011MOL0     C36416   9.624   6.547   5.195 -1.0276  0.3458 -0.1379
 1011MOL0     C36417   9.705   6.576   5.323  0.0341  0.5966  0.5970
 1011MOL0     H36418   9.786   6.978   4.949 -0.1721  0.5976 -1.1868
 1011MOL0     H36419   9.960   7.127   4.863  1.0449 -0.2338 -0.6988
 1011MOL0     H36420  10.343   7.002   4.848  0.4327 -0.6812 -0.6068
 1011MOL0     H36421  10.343   6.931   4.690  0.2017 -1.0408  0.3640
 1011MOL0     H36422  10.363   7.224   4.767 -3.8811 -1.3700  0.1711
 1011MOL0     H36423  10.369   7.170   4.597  1.2198 -3.5591 -1.2965
 1011MOL0     H36424  10.581   7.041   4.639  2.8687  0.8539  0.8837
 1011MOL0     H36425  10.585   7.119   4.796  1.3947 -1.2184 -0.0823
 1011MOL0     H36426  10.582   7.261   4.537  3.9863 -3.8510 -1.2649
 1011MOL0     H36427  10.567   7.347   4.688 -1.0620 -0.6578 -0.7481
 1011MOL0     H36428  10.812   7.166   4.597 -0.5861 -0.1129 -1.8645
 1011MOL0     H36429  10.802   7.339   4.573  1.7271  0.9126  1.8795
 1011MOL0     H36430  10.786   7.385   4.798  0.2566  0.5026  0.5166
 1011MOL0     H36431  10.769   7.224   4.851 -1.4641  0.7122 -1.2914
 1011MOL0     H36432  11.004   7.337   4.696  1.8455 -0.1760  0.0574
 1011MOL0     H36433  10.982   7.169   4.752  1.3651  1.1865 -0.9785
 1011MOL0     H36434  11.005   7.420   4.925  0.1302 -0.3713 -0.3188
 1011MOL0     H36435  11.011   7.250   4.996  2.4961 -1.5229 -0.4643
 1011MOL0     H36436  11.214   7.486   5.027 -0.5474  0.1462 -0.8979
 1011MOL0     H36437  11.502   7.557   4.982 -0.1508  1.0914 -3.8212
 1011MOL0     H36438  11.547   7.408   5.061 -1.7772 -0.7899 -0.3047
 1011MOL0     H36439  11.707   7.450   4.929 -0.1197 -2.9216 -0.2111
 1011MOL0     H36440  11.619   7.341   4.817 -1.7347 -0.5219  1.8508
 1011MOL0     H36441  11.620   7.649   4.796  1.8010 -1.1427  0.4315
 1011MOL0     H36442  11.513   7.545   4.709 -1.2534 -0.1214  2.6552
 1011MOL0     H36443  11.679   7.565   4.555  0.0441 -1.0227 -0.6841
 1011MOL0     H36444  11.752   7.429   4.660  1.7573  0.4229 -1.8854
 1011MOL0     H36445  11.882   7.516   4.445  1.8969  0.3671 -2.2450
 1011MOL0     H36446  12.098   7.513   4.348 -1.7996  0.4277 -0.4782
 1011MOL0     H36447  12.384   7.387   4.136 -0.0773  1.5044 -1.1073
 1011MOL0     H36448  12.596   7.353   4.004 -0.1084 -0.8275  0.2969
 1011MOL0     H36449  12.876   7.711   4.012  1.2027 -0.2627  0.9733
 1011MOL0     H36450  12.968   7.598   4.113 -0.8005  4.4678  2.1405
 1011MOL0     H36451  12.961   7.575   3.815  0.2286 -2.4973  0.7354
 1011MOL0     H36452  13.073   7.680   3.903  0.4504 -0.2344 -0.2741
 1011MOL0     H36453  13.024   7.360   3.915  0.5786 -1.4496  0.3913
 1011MOL0     H36454  13.144   7.429   3.824  1.0714  1.3669  0.7411
 1011MOL0     H36455  13.133   7.439   4.124 -1.9363  1.1180 -1.7212
 1011MOL0     H36456  13.263   7.514   4.020  0.2124  0.7486  0.3202
 1011MOL0     H36457  13.323   7.299   3.915 -2.0288 -1.2954 -0.3899
 1011MOL0     H36458  13.213   7.217   4.008  0.8435 -1.3966 -1.9547
 1011MOL0     H36459  13.449   7.382   4.114  0.0944 -0.9474  0.9816
 1011MOL0     H36460  13.344   7.299   4.214  0.0934 -0.3099  0.6365
 1011MOL0     H36461  13.538   7.181   4.004  0.1187 -1.5493 -0.5297
 1011MOL0     H36462  13.405   7.089   4.060 -0.3572  0.7836 -1.8382
 1011MOL0     H36463  13.576   7.245   4.265 -0.8634  1.0317 -0.4589
 1011MOL0     H36464  13.484   7.092   4.286  1.7189 -1.2984 -0.0168
 1011MOL0     H36465  12.759   7.707   4.189 -0.4486  0.2764  0.6632
 1011MOL0     H36466  12.553   7.717   4.337  0.7175 -0.3374  1.2444
 1011MOL0     H36467  12.248   7.752   4.670 -0.5672 -1.7783  1.8081
 1011MOL0     H36468  12.030   7.753   4.776  1.2304 -1.0307  0.5759
 1011MOL0     H36469  10.170   6.787   4.699  1.1467  0.4054  0.7381
 1011MOL0     H36470  10.001   6.644   4.790  2.4590  0.8870 -0.3945
 1011MOL0     H36471   9.604   6.551   4.851 -2.8562 -0.2650 -0.7902
 1011MOL0     H36472   9.422   6.395   4.889  4.0496 -1.3578 -1.7977
 1011MOL0     H36473   9.210   6.237   5.257  0.4883 -1.5852 -0.7566
 1011MOL0     H36474   9.313   6.351   5.334  1.2795  2.1972 -2.1333
 1011MOL0     H36475   9.511   6.187   5.268  0.1946  0.7359 -0.7927
 1011MOL0     H36476   9.377   6.076   5.222  0.4296 -0.1870  0.4879
 1011MOL0     H36477   9.279   6.127   5.464  0.5635 -0.6156  0.5688
 1011MOL0     H36478   9.445   6.172   5.497  0.8847  0.5353  0.0677
 1011MOL0     H36479   9.398   5.943   5.574  1.1791  0.5278  0.2089
 1011MOL0     H36480   9.326   5.899   5.423 -0.4691  1.3184 -1.4177
 1011MOL0     H36481   9.717   5.796   5.358  2.6089  0.9385  1.5393
 1011MOL0     H36482   9.475   6.448   5.314 -3.0941 -0.0957 -1.2768
 1011MOL0     H36483   9.729   6.682   5.320 -0.3191  0.6910  0.9289
 1011MOL0     H36484   9.650   6.572   5.418  0.8510 -2.5497  1.0538
 1011MOL0     H36485   9.783   6.500   5.333 -1.4669 -0.9013  1.5644
 1012MOL0     O36486  10.599   1.928   0.324 -0.6157 -0.3073 -0.4439
 1012MOL0     C36487  10.546   2.031   0.281  0.1076  0.1741  0.1905
 1012MOL0     O36488  10.607   2.128   0.203  0.8263  0.2678 -0.4698
 1012MOL0     C36489  10.742   2.120   0.207 -1.0415 -0.8375 -0.2388
 1012MOL0     C36490  10.808   2.099   0.081  0.4171  0.1327  0.5146
 1012MOL0     C36491  10.945   2.059   0.084  1.1758 -0.6751 -0.0923
 1012MOL0     C36492  11.021   2.054   0.202  0.9005 -0.5940 -0.1457
 1012MOL0     O36493  11.145   2.012   0.196  0.3268  0.8308  0.2194
 1012MOL0     C36494  11.158   1.886   0.266 -0.2947 -0.9012  0.4877
 1012MOL0     C36495  11.307   1.833   0.255  0.3625  0.3902 -0.1322
 1012MOL0     C36496  11.419   1.925   0.306  0.7747  1.1296  0.4479
 1012MOL0     C36497  11.556   1.862   0.282  0.1173 -0.1876  0.1746
 1012MOL0     C36498  11.672   1.925   0.363  1.0012 -0.8217 -0.6777
 1012MOL0     C36499  11.708   2.071   0.314  0.7577 -0.3080  0.1643
 1012MOL0     C36500  11.840   2.121   0.376  0.4208  0.7708 -0.7367
 1012MOL0     C36501  11.891   2.245   0.303  0.1655  0.5194 -0.0980
 1012MOL0     N36502  12.030   2.275   0.341  0.5277 -0.7185 -0.8770
 1012MOL0     C36503  12.089   2.242   0.458 -0.4175 -0.2809  0.1151
 1012MOL0     C36504  12.218   2.240   0.426  0.8845 -0.8404 -0.5909
 1012MOL0     C36505  12.332   2.205   0.514  0.2342  0.4087 -0.2191
 1012MOL0     C36506  12.332   2.053   0.550  0.4190  0.1090 -0.7760
 1012MOL0     C36507  12.423   2.019   0.669  0.1992 -0.7269  0.1083
 1012MOL0     C36508  12.571   2.064   0.669  0.5999  1.0356  1.2030
 1012MOL0     O36509  12.650   1.988   0.578  0.3325 -0.1886  0.5234
 1012MOL0     C36510  12.765   1.934   0.627 -1.1439 -0.0650 -0.5484
 1012MOL0     C36511  12.887   2.006   0.651  1.1546  0.4702 -0.1120
 1012MOL0     C36512  13.004   1.938   0.686 -0.3965 -0.0292  0.8727
 1012MOL0     C36513  13.004   1.797   0.703 -0.2513  0.2637  0.2968
 1012MOL0     C36514  13.128   1.719   0.739 -0.5701  0.0067  0.1177
 1012MOL0     O36515  13.248   1.766   0.691 -0.2891  0.5478  0.2934
 1012MOL0     C36516  13.368   1.714   0.732 -0.4181 -0.3603 -0.2663
 1012MOL0     C36517  13.440   1.796   0.822 -0.0667  0.7835  0.2808
 1012MOL0     C36518  13.579   1.760   0.848  0.6681 -0.1412 -0.7705
 1012MOL0     C36519  13.635   1.642   0.802  0.0763  0.4797 -0.7330
 1012MOL0     O36520  13.743   1.580   0.848  0.1369 -0.3582 -0.6473
 1012MOL0     C36521  13.835   1.670   0.896 -0.3236 -0.7164  0.2843
 1012MOL0     C36522  13.966   1.593   0.881 -0.0696  0.0577 -0.2988
 1012MOL0     C36523  14.086   1.667   0.966 -0.4158  0.6607  0.7479
 1012MOL0     C36524  14.210   1.590   0.942  0.1308 -0.6672  0.6526
 1012MOL0     C36525  14.336   1.664   1.006  0.8724 -0.0300 -0.0594
 1012MOL0     C36526  14.335   1.637   1.160 -0.2080  0.6275 -0.2550
 1012MOL0     C36527  14.427   1.723   1.244  0.2687 -0.0291  0.3199
 1012MOL0     C36528  14.434   1.671   1.381 -0.2261  0.3799  0.0953
 1012MOL0    Cl36529  14.572   1.750   1.476 -0.2218  0.2971 -0.5328
 1012MOL0     C36530  13.559   1.552   0.723 -1.2737 -0.2968  0.4466
 1012MOL0     C36531  13.428   1.592   0.682  0.1771 -0.4460  0.1405
 1012MOL0     O36532  13.114   1.619   0.812 -0.1142 -0.2350  0.6535
 1012MOL0     C36533  12.883   1.727   0.684 -0.0418 -0.3771 -0.5107
 1012MOL0     C36534  12.768   1.803   0.657 -0.3910 -0.5925 -0.3700
 1012MOL0     N36535  12.231   2.291   0.296 -0.0656 -0.2774 -0.0891
 1012MOL0     N36536  12.122   2.306   0.240 -0.0635  0.6536  0.1215
 1012MOL0     C36537  10.960   2.100   0.314  0.3948  0.1212  0.8140
 1012MOL0     C36538  10.828   2.128   0.323  0.4649 -0.7771  0.2596
 1012MOL0     C36539  10.404   2.068   0.312 -0.1488  0.2711 -0.0730
 1012MOL0     C36540  10.321   2.096   0.198 -0.0655 -0.4020 -0.1690
 1012MOL0     C36541  10.188   2.131   0.218 -0.0693  0.4958  0.6849
 1012MOL0     C36542  10.129   2.129   0.336 -0.3725 -0.4358  0.6419
 1012MOL0     O36543   9.992   2.156   0.330  0.0119 -0.0693  0.3030
 1012MOL0     C36544   9.919   2.234   0.429 -0.6447  0.2350 -0.2843
 1012MOL0     C36545   9.792   2.294   0.362  0.2708  0.7525 -0.3581
 1012MOL0     C36546   9.696   2.184   0.305  0.8675 -0.7940 -0.1875
 1012MOL0     C36547   9.603   2.257   0.212 -0.7556 -0.1262  0.6647
 1012MOL0     C36548   9.495   2.160   0.181  0.0200 -0.5225 -1.0437
 1012MOL0     C36549   9.396   2.099   0.141 -0.8012 -0.9358 -0.2751
 1012MOL0     C36550  10.212   2.105   0.449  0.8453 -0.8820 -0.0384
 1012MOL0     C36551  10.349   2.069   0.438  0.3777 -0.9855 -0.8190
 1012MOL0     C36552  10.417   2.011   0.558  0.1864 -0.1997 -0.3783
 1012MOL0     H36553  10.743   2.100  -0.006 -0.1170 -0.6935  0.8934
 1012MOL0     H36554  11.005   2.049  -0.006  1.0522 -2.0262 -0.0551
 1012MOL0     H36555  11.149   1.897   0.375  2.4967 -0.9846  0.7768
 1012MOL0     H36556  11.092   1.815   0.215  1.1778 -0.8784 -1.5434
 1012MOL0     H36557  11.318   1.802   0.150 -0.4649  1.5690 -0.5884
 1012MOL0     H36558  11.317   1.742   0.314 -1.1290 -1.2900 -2.2851
 1012MOL0     H36559  11.404   1.943   0.413  4.2644  1.6490  0.9771
 1012MOL0     H36560  11.408   2.017   0.247  2.9201  0.8096 -0.5340
 1012MOL0     H36561  11.551   1.756   0.308 -1.1725  0.0717  1.0932
 1012MOL0     H36562  11.570   1.876   0.174  0.5651  1.4673  0.4262
 1012MOL0     H36563  11.655   1.920   0.471 -0.6047 -0.7073 -0.8966
 1012MOL0     H36564  11.749   1.852   0.339 -0.3268 -1.3612 -3.7031
 1012MOL0     H36565  11.724   2.076   0.206 -1.8358 -0.8164 -0.3041
 1012MOL0     H36566  11.624   2.139   0.331 -2.0089 -2.2930 -4.0951
 1012MOL0     H36567  11.910   2.037   0.376 -1.2477 -0.6910 -1.4023
 1012MOL0     H36568  11.821   2.136   0.482  1.6157 -4.1306  0.4362
 1012MOL0     H36569  11.896   2.228   0.195  1.5317 -0.8163  0.1491
 1012MOL0     H36570  11.824   2.329   0.324 -0.3923  0.2519 -0.7707
 1012MOL0     H36571  12.047   2.219   0.555 -1.0275 -0.3543 -0.1599
 1012MOL0     H36572  12.430   2.234   0.474  0.8913 -2.6609 -1.1158
 1012MOL0     H36573  12.321   2.264   0.605  1.2061  0.9087 -0.4145
 1012MOL0     H36574  12.231   2.023   0.578  0.6704 -0.7945 -0.8040
 1012MOL0     H36575  12.356   1.991   0.462  2.1438  1.8419 -1.6015
 1012MOL0     H36576  12.416   1.911   0.683  1.9783 -0.7063  1.5211
 1012MOL0     H36577  12.382   2.064   0.759 -0.8917 -0.4926 -0.4933
 1012MOL0     H36578  12.615   2.042   0.766 -0.2868 -0.7595  1.2411
 1012MOL0     H36579  12.575   2.172   0.650  1.2331  1.0706  1.5000
 1012MOL0     H36580  12.879   2.114   0.657 -2.0448  0.2495  1.9226
 1012MOL0     H36581  13.095   1.994   0.705  0.4605 -1.0696 -0.0193
 1012MOL0     H36582  13.398   1.891   0.851  1.5229  2.9455 -3.7007
 1012MOL0     H36583  13.632   1.831   0.911 -1.1767 -1.2451  2.2298
 1012MOL0     H36584  13.837   1.762   0.836  2.0932 -0.4215  0.6945
 1012MOL0     H36585  13.831   1.677   1.005  0.5053 -2.3278  0.4414
 1012MOL0     H36586  13.957   1.495   0.928 -1.2063 -0.5863 -1.8004
 1012MOL0     H36587  13.992   1.582   0.775 -1.9709 -0.4514 -0.7335
 1012MOL0     H36588  14.101   1.761   0.912  0.1076 -1.0018 -2.1670
 1012MOL0     H36589  14.063   1.678   1.073  1.7389  0.3259  1.2893
 1012MOL0     H36590  14.223   1.567   0.835  0.1779 -1.2662  0.7865
 1012MOL0     H36591  14.203   1.495   0.995 -2.0311 -0.2812  1.1508
 1012MOL0     H36592  14.342   1.768   0.973  2.9509 -0.6620 -1.9377
 1012MOL0     H36593  14.420   1.603   0.972 -1.9979 -4.4389 -0.0091
 1012MOL0     H36594  14.238   1.662   1.204  1.7864  3.8976  2.8036
 1012MOL0     H36595  14.357   1.531   1.180 -2.1059  0.3300  0.4546
 1012MOL0     H36596  14.409   1.830   1.249 -1.2575 -0.3218  2.8367
 1012MOL0     H36597  14.524   1.708   1.197 -0.9666  1.0321 -2.7701
 1012MOL0     H36598  14.344   1.698   1.437 -1.3974  1.7461 -2.3055
 1012MOL0     H36599  14.444   1.562   1.380 -1.7163  0.2285 -1.2463
 1012MOL0     H36600  13.606   1.456   0.708  0.7376  0.3914  1.9596
 1012MOL0     H36601  13.370   1.531   0.614  2.8732 -1.8794 -1.0231
 1012MOL0     H36602  12.869   1.619   0.681 -5.6484  0.0847 -2.7967
 1012MOL0     H36603  12.675   1.754   0.628 -0.7940  2.7162 -6.1528
 1012MOL0     H36604  11.018   2.110   0.405  0.8621 -2.3923  0.8705
 1012MOL0     H36605  10.782   2.154   0.417 -2.0628 -0.1962 -1.0627
 1012MOL0     H36606  10.357   2.087   0.096  0.3770  0.4512 -0.1000
 1012MOL0     H36607  10.120   2.149   0.136  1.8844  0.3598 -1.0610
 1012MOL0     H36608   9.984   2.309   0.474 -1.3767 -0.1298  1.4748
 1012MOL0     H36609   9.896   2.163   0.509  2.5725  0.1917  0.7266
 1012MOL0     H36610   9.829   2.358   0.282  2.0118 -0.1865 -0.3553
 1012MOL0     H36611   9.732   2.349   0.434  1.9793  2.4825 -0.1792
 1012MOL0     H36612   9.639   2.147   0.391 -0.4937  1.2074 -0.1375
 1012MOL0     H36613   9.766   2.118   0.254  1.9337 -0.5946  0.9734
 1012MOL0     H36614   9.565   2.354   0.246 -0.0169 -0.2061  1.7695
 1012MOL0     H36615   9.662   2.285   0.125 -2.9173  1.1216 -0.4900
 1012MOL0     H36616   9.330   2.038   0.082 -0.3550 -2.2199  0.4985
 1012MOL0     H36617  10.168   2.111   0.548  1.2591 -0.1737  0.1140
 1012MOL0     H36618  10.364   2.053   0.644 -0.1440 -0.0147 -0.6709
 1012MOL0     H36619  10.406   1.902   0.564 -2.4987  0.0522  0.3015
 1012MOL0     H36620  10.525   2.027   0.567 -0.2706  3.0588  0.2769
 1013MOL0     O36621   2.972   6.676   4.416  0.3668 -0.1504 -0.9333
 1013MOL0     C36622   2.946   6.795   4.423 -0.0772 -0.6381  0.1539
 1013MOL0     O36623   3.037   6.893   4.410 -0.0858  0.1937  0.3648
 1013MOL0     C36624   3.160   6.855   4.352  1.1465  0.1498  0.5133
 1013MOL0     C36625   3.262   6.824   4.437 -0.5502  0.5540  0.2065
 1013MOL0     C36626   3.375   6.757   4.390 -0.5068  0.1398 -0.0172
 1013MOL0     C36627   3.383   6.726   4.252  0.2651  0.2885 -0.1568
 1013MOL0     O36628   3.497   6.654   4.221  0.2344  0.0456 -0.0869
 1013MOL0     C36629   3.512   6.613   4.084  0.6058  0.2057 -0.8681
 1013MOL0     C36630   3.635   6.529   4.063 -0.1225 -0.3143 -0.3770
 1013MOL0     C36631   3.631   6.449   3.928 -0.0109 -0.3965 -0.0735
 1013MOL0     C36632   3.778   6.428   3.870  0.2089 -0.4705  0.3551
 1013MOL0     C36633   3.773   6.327   3.752 -0.7266 -0.5815  0.2828
 1013MOL0     C36634   3.914   6.266   3.714 -0.3814  0.6610 -0.5118
 1013MOL0     C36635   3.900   6.113   3.675  0.6041 -0.3649  0.0206
 1013MOL0     C36636   4.034   6.060   3.658 -0.4767  0.1360 -0.7850
 1013MOL0     N36637   4.111   6.136   3.559 -0.5207  0.2885  0.5101
 1013MOL0     C36638   4.102   6.122   3.423  0.0281  0.2631 -0.1881
 1013MOL0     C36639   4.205   6.186   3.370  0.2386  0.7281 -0.2481
 1013MOL0     C36640   4.228   6.187   3.225 -0.1010 -0.2295 -0.0253
 1013MOL0     C36641   4.219   6.037   3.168  0.4306 -0.4979  0.0129
 1013MOL0     C36642   4.260   6.014   3.032 -0.8223 -0.2866 -0.7362
 1013MOL0     C36643   4.411   6.027   3.006 -0.3315  0.6083  0.0176
 1013MOL0     O36644   4.465   5.909   3.064  0.4504 -0.6186  0.0639
 1013MOL0     C36645   4.600   5.901   3.078  0.1327  0.5295  0.5239
 1013MOL0     C36646   4.647   5.782   3.144 -0.2936  0.4503  0.0584
 1013MOL0     C36647   4.780   5.754   3.152 -1.0129 -0.1193  0.7682
 1013MOL0     C36648   4.882   5.849   3.109  0.1828  0.4630  0.0139
 1013MOL0     C36649   5.029   5.811   3.121  0.3123 -0.1798  0.2813
 1013MOL0     O36650   5.106   5.891   3.042  1.0084  0.4347  0.1703
 1013MOL0     C36651   5.237   5.862   3.030  0.4702 -0.4436 -0.5593
 1013MOL0     C36652   5.323   5.900   3.141  0.0515  0.2068  0.2604
 1013MOL0     C36653   5.467   5.892   3.119  1.2856 -0.1337 -0.2553
 1013MOL0     C36654   5.513   5.828   2.999 -0.1807  0.4835 -0.3827
 1013MOL0     O36655   5.642   5.801   2.969 -0.4314  0.3743 -0.1090
 1013MOL0     C36656   5.741   5.879   3.036  0.0146 -0.0962 -0.3826
 1013MOL0     C36657   5.860   5.890   2.952  0.1256  0.5820  0.4563
 1013MOL0     C36658   5.924   5.757   2.929 -0.4751  0.0010  0.2065
 1013MOL0     C36659   6.037   5.750   2.822 -0.0588  0.6256  0.3407
 1013MOL0     C36660   6.075   5.599   2.779 -0.1178 -0.6151  0.4245
 1013MOL0     C36661   6.172   5.600   2.657 -0.1368 -0.7939  1.0657
 1013MOL0     C36662   6.266   5.469   2.651  0.5131  0.0392  0.3292
 1013MOL0     C36663   6.202   5.339   2.614  0.1619 -0.6042  0.1243
 1013MOL0    Cl36664   6.341   5.223   2.609  0.1124  0.2382  0.0295
 1013MOL0     C36665   5.424   5.782   2.897  0.4304  0.1081  0.0939
 1013MOL0     C36666   5.286   5.808   2.909 -1.3124 -0.4109 -0.2248
 1013MOL0     O36667   5.070   5.711   3.179  0.0998  0.3594 -0.1467
 1013MOL0     C36668   4.840   5.970   3.059 -0.4570 -0.7488 -0.6627
 1013MOL0     C36669   4.701   5.991   3.041  0.3576 -0.9434  0.3377
 1013MOL0     N36670   4.289   6.232   3.473 -0.4994 -0.7690 -0.3442
 1013MOL0     N36671   4.230   6.187   3.578 -0.2822 -0.2341 -0.0131
 1013MOL0     C36672   3.282   6.769   4.162  0.4584 -0.0682 -0.1301
 1013MOL0     C36673   3.166   6.825   4.209  0.1426 -0.5740 -0.3086
 1013MOL0     C36674   2.812   6.822   4.479  0.1789 -0.6858  0.5794
 1013MOL0     C36675   2.765   6.733   4.582  0.6237  0.4950 -0.0920
 1013MOL0     C36676   2.651   6.765   4.659  0.5142 -0.1981  0.4274
 1013MOL0     C36677   2.584   6.883   4.629  0.1256  0.0190 -0.0516
 1013MOL0     O36678   2.458   6.910   4.688  0.5594  0.3604 -0.4499
 1013MOL0     C36679   2.399   6.813   4.781 -1.0860 -0.2853 -0.6668
 1013MOL0     C36680   2.265   6.872   4.834  0.3738  0.4471  0.0460
 1013MOL0     C36681   2.275   7.010   4.910 -0.2513  0.6935 -0.4360
 1013MOL0     C36682   2.235   7.009   5.062 -0.5626  0.0156  0.4304
 1013MOL0     C36683   2.094   7.008   5.081  0.3806 -0.7927 -1.0916
 1013MOL0     C36684   1.972   7.013   5.090 -0.1383 -0.3445  0.1587
 1013MOL0     C36685   2.622   6.966   4.527 -0.0981 -0.1612  0.3691
 1013MOL0     C36686   2.738   6.932   4.453  0.4913 -0.3704 -0.1419
 1013MOL0     C36687   2.780   7.024   4.339  0.2696  0.1496 -0.2908
 1013MOL0     H36688   3.248   6.845   4.542  2.2946 -1.0257  1.0315
 1013MOL0     H36689   3.457   6.730   4.456  3.0766  1.2194 -3.6285
 1013MOL0     H36690   3.429   6.550   4.052  1.2070 -1.1919  0.1737
 1013MOL0     H36691   3.512   6.689   4.005  3.5958 -0.0623 -1.2633
 1013MOL0     H36692   3.648   6.460   4.147  0.7604  1.8157  1.3738
 1013MOL0     H36693   3.727   6.588   4.053  0.3440 -1.1083 -0.8339
 1013MOL0     H36694   3.573   6.505   3.855  1.8239 -0.0523 -1.3246
 1013MOL0     H36695   3.572   6.359   3.952 -2.1407  0.9949  0.1651
 1013MOL0     H36696   3.807   6.524   3.828  1.0284 -1.5545 -1.7440
 1013MOL0     H36697   3.855   6.409   3.945  0.9211  2.3426  0.4357
 1013MOL0     H36698   3.704   6.249   3.786 -0.9849 -0.5361 -0.1357
 1013MOL0     H36699   3.724   6.372   3.666 -1.1316  0.2956  0.9621
 1013MOL0     H36700   3.962   6.329   3.639  1.2084  0.5613  0.3858
 1013MOL0     H36701   3.977   6.270   3.803 -1.3015 -0.2996  0.2149
 1013MOL0     H36702   3.841   6.099   3.584  2.2630  1.4335 -1.4641
 1013MOL0     H36703   3.843   6.074   3.759 -0.8619  1.9172  0.1813
 1013MOL0     H36704   4.089   6.064   3.753  0.5916  0.5203 -1.4025
 1013MOL0     H36705   4.021   5.958   3.622  0.7451  0.7715 -3.2213
 1013MOL0     H36706   4.022   6.075   3.366  1.3070 -2.6283  0.2628
 1013MOL0     H36707   4.147   6.246   3.183  0.0825  0.2290  0.2529
 1013MOL0     H36708   4.321   6.240   3.203  0.4122 -1.0306  0.1682
 1013MOL0     H36709   4.277   5.963   3.225  0.0667  0.0437  1.1205
 1013MOL0     H36710   4.122   6.000   3.202  1.7298 -1.6771  2.8483
 1013MOL0     H36711   4.201   6.081   2.968 -1.8114  0.0546  0.5069
 1013MOL0     H36712   4.229   5.913   3.003  5.0401 -2.8776  0.7315
 1013MOL0     H36713   4.454   6.112   3.059  2.9621 -1.1998  0.4924
 1013MOL0     H36714   4.436   6.030   2.899 -0.8518  0.9746 -0.1004
 1013MOL0     H36715   4.578   5.706   3.179 -0.3030  0.8483  0.9343
 1013MOL0     H36716   4.819   5.666   3.203  3.6216  1.5095  0.4858
 1013MOL0     H36717   5.280   5.935   3.234 -0.4598 -0.3204  0.2251
 1013MOL0     H36718   5.536   5.925   3.196  1.7604  0.1447 -0.7956
 1013MOL0     H36719   5.704   5.982   3.045  0.8152  0.0740  1.3414
 1013MOL0     H36720   5.765   5.847   3.138 -1.6761  0.4626  0.2259
 1013MOL0     H36721   5.828   5.933   2.857 -1.7985 -3.4742 -0.9283
 1013MOL0     H36722   5.938   5.951   2.998  4.0962 -1.5296 -2.8824
 1013MOL0     H36723   5.958   5.717   3.025  2.8531 -0.4584 -1.0278
 1013MOL0     H36724   5.854   5.683   2.887  1.1429 -1.5864  0.1982
 1013MOL0     H36725   6.124   5.798   2.867 -0.0973  0.7485  0.2819
 1013MOL0     H36726   6.000   5.809   2.737  1.1506  2.0686  0.7918
 1013MOL0     H36727   5.982   5.545   2.760 -0.1960  0.0413 -1.3237
 1013MOL0     H36728   6.127   5.563   2.868  1.7463  1.9333  0.5022
 1013MOL0     H36729   6.111   5.606   2.566  2.1519 -0.0998 -0.4998
 1013MOL0     H36730   6.241   5.684   2.651 -0.8795 -0.2424 -0.2026
 1013MOL0     H36731   6.310   5.456   2.751 -2.7673  0.8674  2.0193
 1013MOL0     H36732   6.341   5.494   2.576 -0.6850  0.5652 -0.7255
 1013MOL0     H36733   6.119   5.310   2.679  0.7862  0.3939  1.4092
 1013MOL0     H36734   6.162   5.352   2.513  0.4242  2.2255  0.2900
 1013MOL0     H36735   5.462   5.725   2.813 -1.5755  0.5346 -1.1628
 1013MOL0     H36736   5.217   5.774   2.833 -1.6565  1.5237 -0.8321
 1013MOL0     H36737   4.913   6.040   3.020  0.5875 -0.7906  1.1159
 1013MOL0     H36738   4.658   6.076   2.988 -0.1475 -0.9944  0.6583
 1013MOL0     H36739   3.305   6.754   4.057  1.2713 -0.8354  0.1457
 1013MOL0     H36740   3.082   6.848   4.145 -0.7839 -5.5941 -1.3838
 1013MOL0     H36741   2.817   6.640   4.601  2.1813  1.9242  3.5709
 1013MOL0     H36742   2.612   6.695   4.732  1.3653  0.9964  2.1135
 1013MOL0     H36743   2.469   6.800   4.865  0.4089 -0.8231 -1.9387
 1013MOL0     H36744   2.381   6.719   4.727 -1.9378  1.0101 -2.7478
 1013MOL0     H36745   2.214   6.792   4.887  1.4764 -0.0254  0.4285
 1013MOL0     H36746   2.204   6.891   4.746  2.1439  1.1489 -1.0822
 1013MOL0     H36747   2.221   7.086   4.853 -0.2000  1.3232  0.3424
 1013MOL0     H36748   2.379   7.044   4.913 -1.1530  3.7015  0.7321
 1013MOL0     H36749   2.286   6.921   5.101  1.5630  0.1675 -1.7915
 1013MOL0     H36750   2.291   7.092   5.105  2.4324 -2.3600  1.4180
 1013MOL0     H36751   1.865   7.020   5.089 -0.0954  0.5456  1.0617
 1013MOL0     H36752   2.563   7.054   4.501 -1.7543 -1.4817 -0.5449
 1013MOL0     H36753   2.843   6.980   4.261  0.7370  1.5487 -0.7352
 1013MOL0     H36754   2.691   7.054   4.282 -1.1933  0.4828  2.0498
 1013MOL0     H36755   2.838   7.112   4.367 -0.4212  1.1659 -1.8601
 1014MOL0     O36756   8.469   7.598   8.684 -0.2737 -0.7211  0.6007
 1014MOL0     C36757   8.547   7.691   8.734 -0.3095  0.1031  0.8214
 1014MOL0     O36758   8.506   7.810   8.779 -0.6682  0.3627 -0.3266
 1014MOL0     C36759   8.373   7.838   8.758  0.0788  0.2977  0.4849
 1014MOL0     C36760   8.335   7.951   8.681 -0.3610  0.6979  0.3697
 1014MOL0     C36761   8.199   7.968   8.662 -0.1481  0.2438  0.5579
 1014MOL0     C36762   8.099   7.884   8.716 -0.4977 -0.0620 -0.0888
 1014MOL0     O36763   7.969   7.908   8.684  0.7987 -0.7904 -0.0112
 1014MOL0     C36764   7.857   7.849   8.754  0.0424  0.6289 -0.5334
 1014MOL0     C36765   7.741   7.953   8.748  0.7336 -0.7726  0.3708
 1014MOL0     C36766   7.684   7.978   8.608 -0.8123 -0.0708  0.4505
 1014MOL0     C36767   7.530   7.992   8.610  0.4773 -0.5958  0.0529
 1014MOL0     C36768   7.492   8.128   8.689  0.3788 -0.3168  1.0846
 1014MOL0     C36769   7.353   8.117   8.759  0.3330 -0.4316  0.1792
 1014MOL0     C36770   7.336   8.244   8.847  0.6302  0.6553 -0.5700
 1014MOL0     C36771   7.196   8.237   8.904  0.1387  0.3669  0.1008
 1014MOL0     N36772   7.097   8.246   8.793 -0.0361  0.5369 -0.1169
 1014MOL0     C36773   7.084   8.363   8.725  1.0490 -0.2179  0.7683
 1014MOL0     C36774   6.957   8.347   8.665 -0.4561 -0.1772 -0.2707
 1014MOL0     C36775   6.903   8.452   8.584  0.4482 -0.1738  0.3919
 1014MOL0     C36776   6.793   8.532   8.660 -0.0347  0.0812 -0.0391
 1014MOL0     C36777   6.728   8.646   8.592  0.6229 -0.5588 -0.1465
 1014MOL0     C36778   6.819   8.758   8.561 -0.4598  0.2570 -0.6914
 1014MOL0     O36779   6.823   8.838   8.677 -0.4053  0.7834 -1.1071
 1014MOL0     C36780   6.934   8.913   8.710 -0.0739 -0.2218 -0.1312
 1014MOL0     C36781   7.038   8.934   8.618  0.1481 -0.0602  0.1077
 1014MOL0     C36782   7.154   9.000   8.665 -0.4356 -0.9273  0.5502
 1014MOL0     C36783   7.173   9.041   8.801 -0.3883 -0.1176  0.1420
 1014MOL0     C36784   7.302   9.090   8.851  0.1205  0.2586 -0.0156
 1014MOL0     O36785   7.413   9.060   8.784  0.1721  0.7901 -0.0291
 1014MOL0     C36786   7.531   9.095   8.852  0.0504 -0.1569  0.4067
 1014MOL0     C36787   7.574   9.050   8.978 -0.0346  0.4264 -0.0321
 1014MOL0     C36788   7.692   9.078   9.035 -0.3415  0.3155 -0.1636
 1014MOL0     C36789   7.775   9.170   8.977 -0.2840  0.5374 -1.1347
 1014MOL0     O36790   7.885   9.210   9.054 -0.2395  0.2485 -0.1395
 1014MOL0     C36791   7.949   9.328   9.018 -0.2495  0.3422  0.7498
 1014MOL0     C36792   8.061   9.348   9.117  0.2792 -0.6137 -0.0723
 1014MOL0     C36793   8.184   9.257   9.091 -0.4893  0.7567 -0.2551
 1014MOL0     C36794   8.293   9.267   9.195 -0.5843  0.6676  0.4123
 1014MOL0     C36795   8.427   9.222   9.154 -0.3556 -0.3935 -0.4122
 1014MOL0     C36796   8.529   9.216   9.269  0.0143 -0.0349  0.0956
 1014MOL0     C36797   8.669   9.165   9.211  0.2561  0.3188  0.3158
 1014MOL0     C36798   8.771   9.136   9.325 -0.4765 -1.1446 -0.2513
 1014MOL0    Cl36799   8.943   9.111   9.264 -0.1234 -0.3614  0.0617
 1014MOL0     C36800   7.731   9.233   8.859 -0.5508 -0.5820 -0.8471
 1014MOL0     C36801   7.615   9.203   8.803  0.6054  0.1115  1.0075
 1014MOL0     O36802   7.294   9.160   8.947  0.2582  0.5779  0.4416
 1014MOL0     C36803   7.061   9.029   8.883  0.4419  0.4046 -0.4620
 1014MOL0     C36804   6.938   8.969   8.840 -0.6078 -0.5393 -0.0985
 1014MOL0     N36805   6.915   8.219   8.689  0.5408  0.5600 -0.1374
 1014MOL0     N36806   7.003   8.153   8.762 -0.0060  0.4786  0.0398
 1014MOL0     C36807   8.138   7.781   8.800  0.2574  0.1986 -0.3425
 1014MOL0     C36808   8.277   7.764   8.832  0.0416 -0.6032  0.2539
 1014MOL0     C36809   8.692   7.653   8.759 -0.2919 -0.9478  0.4310
 1014MOL0     C36810   8.724   7.522   8.796 -0.4151 -0.1903  0.6802
 1014MOL0     C36811   8.865   7.498   8.823  0.7228  0.3228 -0.7161
 1014MOL0     C36812   8.963   7.598   8.824 -0.0202  1.2787  0.5894
 1014MOL0     O36813   9.100   7.593   8.850  0.1162 -0.5315 -0.0399
 1014MOL0     C36814   9.137   7.460   8.880  0.3973 -0.1571 -0.5216
 1014MOL0     C36815   9.289   7.448   8.900  0.2918 -0.7087 -0.2584
 1014MOL0     C36816   9.366   7.533   8.796 -0.9819 -0.7149  0.0353
 1014MOL0     C36817   9.516   7.536   8.821  0.5831 -0.5219  0.5791
 1014MOL0     C36818   9.573   7.409   8.772 -0.0060  0.2521  0.4973
 1014MOL0     C36819   9.633   7.310   8.731 -0.1227 -0.2746  0.0518
 1014MOL0     C36820   8.922   7.727   8.793  0.0676 -0.0587  0.1656
 1014MOL0     C36821   8.785   7.763   8.754 -0.5296 -0.0309 -0.0195
 1014MOL0     C36822   8.761   7.901   8.703 -0.1662 -0.5723  0.1243
 1014MOL0     H36823   8.403   8.013   8.623  0.2995 -0.4337 -0.0872
 1014MOL0     H36824   8.172   8.043   8.588  1.7672  1.1823  0.7582
 1014MOL0     H36825   7.830   7.755   8.706  0.7731  0.4647 -0.6415
 1014MOL0     H36826   7.871   7.838   8.862 -1.8612 -1.2009 -0.4229
 1014MOL0     H36827   7.768   8.046   8.798  0.0262  0.2674 -1.1229
 1014MOL0     H36828   7.663   7.915   8.815  1.0868  1.3770  2.1143
 1014MOL0     H36829   7.707   7.893   8.544  0.7785  0.3838  0.3836
 1014MOL0     H36830   7.739   8.062   8.565 -1.1777  1.2579  2.4274
 1014MOL0     H36831   7.488   8.014   8.512 -1.7470  1.1504  1.3101
 1014MOL0     H36832   7.478   7.906   8.654 -1.6135  0.5978  0.0297
 1014MOL0     H36833   7.562   8.149   8.770 -0.7518  0.0447  1.9923
 1014MOL0     H36834   7.498   8.210   8.617  4.1073 -0.1959  1.3172
 1014MOL0     H36835   7.273   8.111   8.684  1.2657  2.0014 -1.1476
 1014MOL0     H36836   7.349   8.026   8.820 -1.9237 -1.1590 -0.9027
 1014MOL0     H36837   7.354   8.342   8.802  1.2726  1.6346  1.6921
 1014MOL0     H36838   7.407   8.234   8.929 -0.2184 -0.5334  0.0546
 1014MOL0     H36839   7.183   8.146   8.963 -1.1680  1.4441  1.5506
 1014MOL0     H36840   7.185   8.320   8.974 -2.4080 -0.1998  0.4673
 1014MOL0     H36841   7.144   8.453   8.732 -0.5597  0.9825 -0.3104
 1014MOL0     H36842   6.976   8.527   8.551  0.1169  0.1347  0.3492
 1014MOL0     H36843   6.849   8.404   8.502 -0.3292 -1.8992  1.8347
 1014MOL0     H36844   6.719   8.463   8.703  0.8174 -0.1283  1.1567
 1014MOL0     H36845   6.851   8.562   8.748  2.4130 -4.4142  0.1799
 1014MOL0     H36846   6.641   8.682   8.648  0.5300  1.2848 -1.3998
 1014MOL0     H36847   6.688   8.611   8.496  0.3945  0.6082 -0.4921
 1014MOL0     H36848   6.791   8.801   8.464 -0.1099 -1.2718 -1.4874
 1014MOL0     H36849   6.921   8.727   8.537  0.0811  0.5825  1.0440
 1014MOL0     H36850   7.027   8.900   8.515  0.5107 -3.5741  1.1153
 1014MOL0     H36851   7.232   9.025   8.593 -1.1711 -1.5046 -0.4721
 1014MOL0     H36852   7.502   8.992   9.034  0.4760  1.1856  1.4580
 1014MOL0     H36853   7.693   9.044   9.138 -2.7302  0.7747  0.0650
 1014MOL0     H36854   7.990   9.327   8.917 -0.0104 -1.8560  0.8274
 1014MOL0     H36855   7.873   9.406   9.032 -4.1327 -3.1638  1.4712
 1014MOL0     H36856   8.083   9.455   9.114 -2.9484  0.1510  0.2282
 1014MOL0     H36857   8.025   9.321   9.217  0.3842  0.0332  0.1429
 1014MOL0     H36858   8.146   9.155   9.099 -1.0205  0.9081 -0.8256
 1014MOL0     H36859   8.216   9.268   8.987 -1.1801  1.2107 -0.4289
 1014MOL0     H36860   8.250   9.205   9.274  1.1765  0.5768  1.3555
 1014MOL0     H36861   8.303   9.371   9.228 -0.1490  1.0461 -0.8702
 1014MOL0     H36862   8.461   9.295   9.080 -3.1195  1.7267  0.2728
 1014MOL0     H36863   8.423   9.125   9.104 -0.4690  0.5434 -2.2814
 1014MOL0     H36864   8.538   9.317   9.311  1.8342 -0.5490  1.0403
 1014MOL0     H36865   8.495   9.146   9.346  0.9397 -1.1783 -0.5112
 1014MOL0     H36866   8.710   9.228   9.132  0.8106 -0.6734 -0.2048
 1014MOL0     H36867   8.660   9.069   9.159  0.5510  1.1637 -1.3625
 1014MOL0     H36868   8.765   9.222   9.392  2.5193 -0.4151 -0.7701
 1014MOL0     H36869   8.740   9.049   9.384  0.9310 -0.8070  1.0322
 1014MOL0     H36870   7.785   9.320   8.824  3.3817 -2.5342 -0.2059
 1014MOL0     H36871   7.575   9.253   8.715  0.6408  0.4046  1.1560
 1014MOL0     H36872   7.069   9.084   8.977  0.9584 -1.3604  0.5613
 1014MOL0     H36873   6.860   8.961   8.915  0.1904  1.5878  1.0485
 1014MOL0     H36874   8.058   7.733   8.854  1.0348  0.3159  0.9660
 1014MOL0     H36875   8.302   7.679   8.895 -1.7154  1.7155  4.4675
 1014MOL0     H36876   8.639   7.454   8.798 -2.8235  2.4467 -2.2525
 1014MOL0     H36877   8.895   7.399   8.855  4.3496  1.8996  1.3502
 1014MOL0     H36878   9.112   7.401   8.792  0.6173  1.2074 -1.5393
 1014MOL0     H36879   9.086   7.424   8.970  0.1838  0.7453 -0.2627
 1014MOL0     H36880   9.322   7.344   8.891  0.9809 -0.3580 -2.2544
 1014MOL0     H36881   9.327   7.487   8.996  1.0928  2.7969 -1.8228
 1014MOL0     H36882   9.346   7.641   8.792  1.8306 -0.1561 -1.8485
 1014MOL0     H36883   9.344   7.500   8.694  0.6863 -0.9360 -0.2760
 1014MOL0     H36884   9.558   7.624   8.771 -2.0433 -0.1727 -1.2218
 1014MOL0     H36885   9.530   7.553   8.928 -2.9634  2.1054  0.8065
 1014MOL0     H36886   9.694   7.224   8.710  0.1482  0.7439 -4.3337
 1014MOL0     H36887   8.999   7.804   8.794  0.0359 -0.0279  1.2282
 1014MOL0     H36888   8.853   7.938   8.658 -0.4619  1.0220  0.7756
 1014MOL0     H36889   8.683   7.911   8.627  1.5866  1.9866 -1.4856
 1014MOL0     H36890   8.725   7.966   8.784 -2.9279 -0.1268 -1.3520
 1015MOL0     O36891   0.314   1.006   8.997 -0.4669  0.1525 -0.2697
 1015MOL0     C36892   0.314   1.059   9.109  0.4515  0.2134  0.5172
 1015MOL0     O36893   0.424   1.116   9.174 -0.0813 -0.0994  0.5514
 1015MOL0     C36894   0.554   1.099   9.120  0.4757 -0.3797 -0.6072
 1015MOL0     C36895   0.596   1.025   9.001  0.1971  0.0010  0.0667
 1015MOL0     C36896   0.730   1.026   8.963 -0.8523  0.2951 -0.3634
 1015MOL0     C36897   0.820   1.103   9.033 -0.6464  0.1469  0.3793
 1015MOL0     O36898   0.950   1.115   8.990 -0.6865 -0.6053  0.0191
 1015MOL0     C36899   1.024   0.994   8.964  0.3453  0.3878 -0.1165
 1015MOL0     C36900   1.160   1.001   9.039  0.8646 -0.3225 -0.1729
 1015MOL0     C36901   1.259   0.893   8.991  0.1616  0.2662 -0.3073
 1015MOL0     C36902   1.397   0.929   9.033 -0.0890  0.3027  0.3353
 1015MOL0     C36903   1.494   0.828   8.966 -0.4702 -0.7469  0.0371
 1015MOL0     C36904   1.640   0.857   9.007  0.6304 -0.2410  0.0171
 1015MOL0     C36905   1.725   0.739   9.016  0.3083 -0.0496  0.6576
 1015MOL0     C36906   1.871   0.774   9.047 -0.2037 -0.3743  0.8110
 1015MOL0     N36907   1.918   0.904   9.003 -0.0142  0.0400 -0.0507
 1015MOL0     C36908   1.917   1.020   9.081 -0.1107 -1.9509 -0.4164
 1015MOL0     C36909   1.970   1.116   9.003 -0.0063  0.3720 -0.1698
 1015MOL0     C36910   1.987   1.256   9.041 -1.3104 -0.4487 -0.2989
 1015MOL0     C36911   2.106   1.280   9.133  0.6834  0.3836  0.2223
 1015MOL0     C36912   2.103   1.415   9.207 -0.3895  0.6077 -0.1229
 1015MOL0     C36913   2.135   1.531   9.114 -1.1271 -0.3294  0.1591
 1015MOL0     O36914   2.268   1.524   9.039  0.3137 -0.1216 -0.2754
 1015MOL0     C36915   2.373   1.592   9.095  0.8213 -0.3500 -0.2550
 1015MOL0     C36916   2.387   1.628   9.233  0.5715 -0.1992  0.7016
 1015MOL0     C36917   2.494   1.711   9.275 -0.0561  0.4828 -0.0787
 1015MOL0     C36918   2.603   1.735   9.184  0.9155  0.1508 -0.3398
 1015MOL0     C36919   2.718   1.812   9.226  0.8244  0.3006  0.2370
 1015MOL0     O36920   2.753   1.800   9.357 -0.0064  0.4622 -0.2797
 1015MOL0     C36921   2.870   1.856   9.411  0.8180  0.0184 -0.3114
 1015MOL0     C36922   2.889   1.994   9.406  0.0231 -0.3189 -0.5705
 1015MOL0     C36923   3.000   2.055   9.476 -0.3303  0.5688  0.5528
 1015MOL0     C36924   3.099   1.974   9.528 -0.2333  0.0233 -0.3629
 1015MOL0     O36925   3.214   2.036   9.576 -0.1325  0.5934 -0.0872
 1015MOL0     C36926   3.310   1.963   9.647 -0.7173 -0.1917 -0.0135
 1015MOL0     C36927   3.412   2.061   9.711 -0.1546  0.5150  0.1517
 1015MOL0     C36928   3.532   2.002   9.789  0.6425 -0.4313  0.5356
 1015MOL0     C36929   3.616   2.117   9.829 -0.0941  0.2848 -0.2053
 1015MOL0     C36930   3.740   2.064   9.883 -0.8632 -0.7093 -0.0862
 1015MOL0     C36931   3.817   2.185   9.952 -0.3805  0.1324  0.7944
 1015MOL0     C36932   3.935   2.132  10.034 -0.6591 -0.2283  0.0847
 1015MOL0     C36933   4.034   2.244  10.082 -0.0948 -0.8047 -0.2762
 1015MOL0    Cl36934   3.975   2.325  10.232 -0.3062 -0.2807 -0.1398
 1015MOL0     C36935   3.075   1.835   9.534 -0.7550 -0.3887 -0.1559
 1015MOL0     C36936   2.961   1.782   9.478 -0.0431  0.6319  0.4169
 1015MOL0     O36937   2.780   1.870   9.139  0.7182 -0.0771  0.1117
 1015MOL0     C36938   2.591   1.691   9.054 -0.4916 -0.3049  0.2988
 1015MOL0     C36939   2.478   1.618   9.002 -1.4277 -0.1389 -0.1189
 1015MOL0     N36940   2.010   1.055   8.889  1.0475 -0.1391 -0.2343
 1015MOL0     N36941   1.986   0.928   8.884  0.1304 -0.3795 -0.5302
 1015MOL0     C36942   0.781   1.171   9.144 -0.9871 -0.0523  0.3912
 1015MOL0     C36943   0.650   1.168   9.190  0.1399  0.1395 -0.9216
 1015MOL0     C36944   0.185   1.063   9.186  0.2420  0.1663  0.1089
 1015MOL0     C36945   0.184   1.102   9.325  0.4307 -0.1853 -0.3070
 1015MOL0     C36946   0.062   1.128   9.398 -0.9810  0.3686 -0.2620
 1015MOL0     C36947  -0.063   1.094   9.336  0.9947 -0.2648  0.9395
 1015MOL0     O36948  -0.181   1.112   9.394 -0.3213 -0.1446 -0.5542
 1015MOL0     C36949  -0.225   1.239   9.450 -0.0704  0.5970  0.9034
 1015MOL0     C36950  -0.379   1.258   9.491 -0.6699 -0.6165 -0.1446
 1015MOL0     C36951  -0.428   1.193   9.623 -0.5943  1.1563 -0.0956
 1015MOL0     C36952  -0.370   1.061   9.653 -0.2602  0.2257 -1.0365
 1015MOL0     C36953  -0.464   1.008   9.766 -0.0006 -0.8596  0.6194
 1015MOL0     C36954  -0.540   0.963   9.857 -0.3099 -0.3196 -0.0042
 1015MOL0     C36955  -0.069   1.048   9.207  0.3281  0.6405  0.7290
 1015MOL0     C36956   0.050   1.034   9.132 -0.0640  0.2004  0.1503
 1015MOL0     C36957   0.020   1.025   8.984 -0.1458  0.8656  0.0187
 1015MOL0     H36958   0.524   0.979   8.935  0.2267 -2.7137  1.8006
 1015MOL0     H36959   0.766   0.983   8.870 -3.8016 -0.5254 -1.2435
 1015MOL0     H36960   0.965   0.904   8.984 -0.8542 -0.2095 -5.0601
 1015MOL0     H36961   1.051   0.986   8.858 -3.3731 -0.3403 -1.1641
 1015MOL0     H36962   1.137   0.986   9.145  2.6441  0.0721  0.3012
 1015MOL0     H36963   1.202   1.101   9.029 -0.3651  0.1508 -0.9330
 1015MOL0     H36964   1.254   0.882   8.882  1.4933  1.2118 -0.4823
 1015MOL0     H36965   1.225   0.801   9.039 -1.8841 -0.1078 -2.2952
 1015MOL0     H36966   1.423   1.028   8.995  1.8549 -0.0221  0.7211
 1015MOL0     H36967   1.400   0.932   9.142  2.4598  1.0446  0.3002
 1015MOL0     H36968   1.475   0.726   8.998 -1.3678 -0.2167  1.2577
 1015MOL0     H36969   1.486   0.837   8.857  0.1211 -0.3623  0.0175
 1015MOL0     H36970   1.672   0.939   8.942  1.1058  0.9030  1.6058
 1015MOL0     H36971   1.638   0.899   9.108 -0.7276 -3.7368  1.6005
 1015MOL0     H36972   1.715   0.688   8.920  0.1625 -0.2280  0.7669
 1015MOL0     H36973   1.691   0.675   9.098  2.9180  0.6646  2.4315
 1015MOL0     H36974   1.880   0.775   9.156 -2.3553 -0.4207  1.0384
 1015MOL0     H36975   1.926   0.689   9.006 -1.0432 -1.0259  1.0047
 1015MOL0     H36976   1.874   1.038   9.179  0.5019 -1.1684 -0.2854
 1015MOL0     H36977   2.008   1.320   8.955 -0.2404 -1.1715 -0.6011
 1015MOL0     H36978   1.895   1.289   9.089 -0.8587  2.1123 -1.0588
 1015MOL0     H36979   2.113   1.203   9.211 -0.7234 -1.3703 -1.2924
 1015MOL0     H36980   2.202   1.276   9.081  0.6736  0.2737  0.2116
 1015MOL0     H36981   2.164   1.414   9.298 -1.7666  1.1277  0.8438
 1015MOL0     H36982   2.000   1.432   9.241 -0.2677 -0.4448  0.7881
 1015MOL0     H36983   2.132   1.630   9.159  1.6138 -0.0770 -0.0735
 1015MOL0     H36984   2.060   1.521   9.034 -0.7504 -2.7621  0.0161
 1015MOL0     H36985   2.310   1.594   9.301 -0.5350 -0.9779 -0.8609
 1015MOL0     H36986   2.503   1.749   9.377  0.3101  2.3118 -0.7569
 1015MOL0     H36987   2.814   2.063   9.368 -2.8438 -4.3504 -3.0389
 1015MOL0     H36988   3.018   2.162   9.464 -0.0592  0.4955  0.3061
 1015MOL0     H36989   3.261   1.909   9.727 -0.2664  0.5301  0.7705
 1015MOL0     H36990   3.361   1.900   9.574 -0.8999  0.4136 -0.6791
 1015MOL0     H36991   3.461   2.118   9.631  0.3822 -3.1574 -2.3640
 1015MOL0     H36992   3.356   2.130   9.775 -0.4457  0.0670  0.3803
 1015MOL0     H36993   3.495   1.937   9.869  1.4303 -1.5364  0.0233
 1015MOL0     H36994   3.589   1.941   9.718  1.1583  0.4980  0.1377
 1015MOL0     H36995   3.570   2.186   9.900  0.1715 -0.8076  1.0757
 1015MOL0     H36996   3.636   2.179   9.741 -1.7578  1.3676  0.1489
 1015MOL0     H36997   3.797   2.016   9.804 -2.3369 -1.6842 -0.6062
 1015MOL0     H36998   3.724   1.991   9.963 -0.0962  0.8686  1.5857
 1015MOL0     H36999   3.847   2.261   9.879  0.3435 -0.3474  0.5848
 1015MOL0     H37000   3.754   2.243  10.020  1.3002  1.8456  0.9832
 1015MOL0     H37001   3.998   2.068   9.971  0.0897 -0.7269  1.3121
 1015MOL0     H37002   3.908   2.076  10.124 -0.7112  1.9427  1.4827
 1015MOL0     H37003   4.129   2.193  10.102 -1.0405 -3.5766 -2.2657
 1015MOL0     H37004   4.057   2.318  10.005  0.8928 -1.5294 -0.7045
 1015MOL0     H37005   3.137   1.764   9.590  0.4536 -1.5099 -2.7635
 1015MOL0     H37006   2.951   1.674   9.492  0.2124  0.6467  0.7139
 1015MOL0     H37007   2.669   1.723   8.987  0.1610  1.2136  1.7370
 1015MOL0     H37008   2.490   1.573   8.904  1.3844 -1.2694  0.6203
 1015MOL0     H37009   0.868   1.214   9.194  0.9255 -3.6929  0.5173
 1015MOL0     H37010   0.622   1.225   9.278  0.7443  2.8315 -2.3452
 1015MOL0     H37011   0.273   1.118   9.384 -0.1313 -0.8251  0.7357
 1015MOL0     H37012   0.049   1.160   9.500  0.0978  0.9342 -0.2891
 1015MOL0     H37013  -0.209   1.312   9.370  1.7265  1.8728  2.3298
 1015MOL0     H37014  -0.164   1.273   9.534 -2.4635  1.3244  2.4386
 1015MOL0     H37015  -0.445   1.227   9.410  0.5446 -2.0011 -0.6464
 1015MOL0     H37016  -0.396   1.363   9.517 -2.2914 -1.0154  0.5241
 1015MOL0     H37017  -0.536   1.179   9.620 -0.5461  0.8758 -0.4842
 1015MOL0     H37018  -0.390   1.265   9.696 -1.0674 -0.6785  2.0820
 1015MOL0     H37019  -0.375   1.001   9.562  0.3805 -2.1618  0.4436
 1015MOL0     H37020  -0.265   1.059   9.683 -1.0348 -0.6602  1.9166
 1015MOL0     H37021  -0.602   0.932   9.938 -0.0476  1.4742  0.9314
 1015MOL0     H37022  -0.166   1.045   9.158  1.2688  3.7852 -1.6673
 1015MOL0     H37023   0.071   1.104   8.929  1.0576 -1.0856 -1.8394
 1015MOL0     H37024   0.056   0.928   8.947 -0.9231  0.9690 -1.0337
 1015MOL0     H37025  -0.087   1.041   8.968 -0.3302  0.9714  1.2278
 1016MOL0     O37026   5.767   4.822   7.287  0.3371 -0.2860  0.2344
 1016MOL0     C37027   5.689   4.900   7.237  0.3162  0.4184 -0.2444
 1016MOL0     O37028   5.720   5.030   7.180 -0.0609  0.0263  0.0986
 1016MOL0     C37029   5.851   5.061   7.160 -0.8427  0.5796  0.2496
 1016MOL0     C37030   5.917   5.146   7.243 -0.5757  0.0762  0.1369
 1016MOL0     C37031   6.046   5.195   7.216 -0.2803  0.3459 -0.3048
 1016MOL0     C37032   6.123   5.148   7.106 -0.1844  0.0869 -0.0280
 1016MOL0     O37033   6.244   5.196   7.082  0.9762  0.9685  0.1084
 1016MOL0     C37034   6.330   5.116   6.989  0.5004 -0.4411 -0.0232
 1016MOL0     C37035   6.479   5.156   7.002  0.5145 -0.8511 -0.3995
 1016MOL0     C37036   6.490   5.312   6.967 -0.8386 -0.0685 -0.1927
 1016MOL0     C37037   6.641   5.366   6.964 -0.5225  0.2170  0.1273
 1016MOL0     C37038   6.710   5.381   7.098 -0.0768 -0.5959  0.1982
 1016MOL0     C37039   6.833   5.464   7.064 -0.3915 -0.1415 -0.6735
 1016MOL0     C37040   6.937   5.481   7.176 -0.6791  0.2169 -0.1702
 1016MOL0     C37041   6.996   5.349   7.220 -0.1741 -0.7400 -0.1168
 1016MOL0     N37042   7.120   5.377   7.288 -0.9778  0.6281 -0.5149
 1016MOL0     C37043   7.147   5.361   7.424  0.5301 -0.3525 -0.0606
 1016MOL0     C37044   7.277   5.389   7.449  0.5624 -0.4389  0.2706
 1016MOL0     C37045   7.366   5.392   7.574 -0.3811 -0.0272  0.5647
 1016MOL0     C37046   7.410   5.255   7.612  0.5867 -0.2748 -0.4331
 1016MOL0     C37047   7.298   5.171   7.668 -0.5287 -0.5962  0.1231
 1016MOL0     C37048   7.340   5.059   7.769  0.6321 -0.3621  0.9776
 1016MOL0     O37049   7.216   5.016   7.840 -0.5552  0.4894  0.7113
 1016MOL0     C37050   7.100   4.966   7.776 -0.6711 -0.2271  0.7914
 1016MOL0     C37051   7.117   4.877   7.676 -0.2388 -0.6277 -0.2731
 1016MOL0     C37052   7.012   4.789   7.636 -0.1126 -0.7105  0.0064
 1016MOL0     C37053   6.884   4.806   7.692  0.0610 -0.1572 -0.7225
 1016MOL0     C37054   6.770   4.720   7.637  0.5907 -0.0720 -0.5930
 1016MOL0     O37055   6.793   4.641   7.527  0.0047  0.1816 -0.6803
 1016MOL0     C37056   6.690   4.551   7.495 -0.2122  0.1529  0.4946
 1016MOL0     C37057   6.636   4.455   7.575  0.5423 -0.6424 -1.1440
 1016MOL0     C37058   6.530   4.372   7.527  0.3086  0.0387  1.2541
 1016MOL0     C37059   6.480   4.393   7.397  0.5536  0.2868  0.1638
 1016MOL0     O37060   6.368   4.324   7.334  0.4209  0.0984 -0.0003
 1016MOL0     C37061   6.318   4.205   7.400  0.3011 -0.6826 -0.1649
 1016MOL0     C37062   6.210   4.234   7.506  0.1862 -0.3186 -0.5079
 1016MOL0     C37063   6.112   4.116   7.534  0.8456 -0.2293 -0.4076
 1016MOL0     C37064   6.002   4.152   7.642  0.7087  0.3089  0.1470
 1016MOL0     C37065   5.916   4.032   7.670 -0.2164 -0.3459 -0.4068
 1016MOL0     C37066   5.781   4.085   7.741  0.0421 -0.5455  0.1647
 1016MOL0     C37067   5.695   3.968   7.791 -1.0964  0.3537 -0.4580
 1016MOL0     C37068   5.578   4.008   7.875 -0.7533 -0.1620 -0.8301
 1016MOL0    Cl37069   5.517   3.864   7.967 -0.6221 -0.0297 -0.1057
 1016MOL0     C37070   6.534   4.495   7.315  0.1518  0.1553  0.5182
 1016MOL0     C37071   6.633   4.574   7.366 -0.2959  0.0187  0.1134
 1016MOL0     O37072   6.669   4.730   7.708  0.1513  0.3227  0.4425
 1016MOL0     C37073   6.869   4.911   7.785 -0.0664  0.4663 -0.0263
 1016MOL0     C37074   6.973   4.987   7.826  0.0435  0.2457  0.5680
 1016MOL0     N37075   7.334   5.415   7.323  1.6107 -0.3363 -0.7830
 1016MOL0     N37076   7.244   5.395   7.229  0.8655  0.1423 -0.0629
 1016MOL0     C37077   6.051   5.063   7.017 -0.7414  0.9181  0.3445
 1016MOL0     C37078   5.918   5.018   7.046  0.0924  0.7030  0.4296
 1016MOL0     C37079   5.554   4.869   7.230  0.9096  0.1542 -0.2774
 1016MOL0     C37080   5.483   4.935   7.126  0.6606  0.5705 -0.0395
 1016MOL0     C37081   5.347   4.911   7.111  0.9189 -0.1555  0.2543
 1016MOL0     C37082   5.273   4.830   7.201 -0.7084  0.7062  0.0475
 1016MOL0     O37083   5.145   4.822   7.159  0.4737  0.3600 -0.1527
 1016MOL0     C37084   5.066   4.749   7.243 -0.7091 -0.3827  0.1413
 1016MOL0     C37085   4.934   4.768   7.181  0.5011  0.2658 -0.8300
 1016MOL0     C37086   4.830   4.696   7.273 -0.5423 -0.0447  0.7846
 1016MOL0     C37087   4.702   4.686   7.198 -0.1453 -0.6062  0.1721
 1016MOL0     C37088   4.602   4.637   7.290 -0.4622 -0.2701 -0.0589
 1016MOL0     C37089   4.510   4.592   7.348 -0.2497  0.0920  1.1204
 1016MOL0     C37090   5.337   4.766   7.307 -0.0383  0.3694  0.4949
 1016MOL0     C37091   5.480   4.784   7.322  0.0984 -0.7336 -0.6352
 1016MOL0     C37092   5.542   4.701   7.437  0.2509 -0.1532  0.9063
 1016MOL0     H37093   5.859   5.183   7.327  0.2957 -1.5759  1.5275
 1016MOL0     H37094   6.089   5.265   7.287  2.0855 -0.5910 -0.7252
 1016MOL0     H37095   6.318   5.008   7.002 -1.1205 -0.3995 -0.8982
 1016MOL0     H37096   6.293   5.143   6.890 -1.9986 -2.0092  0.3995
 1016MOL0     H37097   6.552   5.095   6.947  1.2388  1.4300 -2.1756
 1016MOL0     H37098   6.505   5.140   7.107 -1.9479  0.3020  0.4479
 1016MOL0     H37099   6.442   5.377   7.041  4.4364  2.8088  1.2018
 1016MOL0     H37100   6.432   5.336   6.877  0.0770  1.6259 -0.3636
 1016MOL0     H37101   6.706   5.298   6.909  0.6572  2.6978 -1.7341
 1016MOL0     H37102   6.637   5.461   6.910  1.3990  1.3402  1.8128
 1016MOL0     H37103   6.647   5.434   7.171  0.9729  2.4165 -0.9256
 1016MOL0     H37104   6.727   5.277   7.126 -1.9197 -1.6731 -2.2625
 1016MOL0     H37105   6.868   5.420   6.970  0.0550  1.9057 -1.5248
 1016MOL0     H37106   6.796   5.563   7.037 -1.5846 -0.3706  0.0495
 1016MOL0     H37107   6.883   5.526   7.260 -2.8016 -0.2443 -1.2210
 1016MOL0     H37108   7.017   5.544   7.136 -0.0541 -0.9221 -0.7500
 1016MOL0     H37109   6.929   5.301   7.292 -1.5524  0.2426 -0.7008
 1016MOL0     H37110   7.023   5.281   7.139 -0.3809 -1.7869  0.6595
 1016MOL0     H37111   7.078   5.318   7.496  1.7656 -1.1526  0.6826
 1016MOL0     H37112   7.449   5.458   7.544 -0.7293  1.4849  2.6476
 1016MOL0     H37113   7.318   5.451   7.653 -4.2180 -2.1044  0.0263
 1016MOL0     H37114   7.455   5.214   7.521  1.1782 -0.8491  0.1072
 1016MOL0     H37115   7.489   5.250   7.687 -2.5165 -2.3019  3.0642
 1016MOL0     H37116   7.250   5.130   7.579  0.2628  0.9311 -1.0442
 1016MOL0     H37117   7.226   5.240   7.715 -2.0273 -1.4357 -0.8414
 1016MOL0     H37118   7.415   5.092   7.842  0.2190  0.7873  0.8947
 1016MOL0     H37119   7.386   4.981   7.707  0.0558  0.0493  0.0060
 1016MOL0     H37120   7.216   4.867   7.633  0.1963 -1.2231  0.8326
 1016MOL0     H37121   7.036   4.715   7.561  3.0620  0.7175 -0.5656
 1016MOL0     H37122   6.671   4.443   7.677 -1.7449 -0.0431 -0.2309
 1016MOL0     H37123   6.465   4.302   7.579  0.2437 -1.3805 -0.6377
 1016MOL0     H37124   6.275   4.137   7.327 -1.3883  0.0523  0.1055
 1016MOL0     H37125   6.401   4.149   7.444  0.0233 -0.0364  1.2498
 1016MOL0     H37126   6.265   4.263   7.596 -0.6467 -1.6652  0.4698
 1016MOL0     H37127   6.147   4.319   7.477  0.4322 -0.0839 -0.3660
 1016MOL0     H37128   6.085   4.073   7.437  0.1828  4.1560 -2.4036
 1016MOL0     H37129   6.163   4.030   7.580 -1.1963 -1.0012  0.5348
 1016MOL0     H37130   5.928   4.225   7.607  0.3832 -1.2127 -2.6181
 1016MOL0     H37131   6.049   4.179   7.737  0.8436 -0.5331  0.3243
 1016MOL0     H37132   5.962   3.968   7.746  1.0431 -0.3970 -1.1843
 1016MOL0     H37133   5.895   3.978   7.577 -3.4938  0.2520 -0.1309
 1016MOL0     H37134   5.807   4.150   7.826 -0.2065 -0.1876 -0.0336
 1016MOL0     H37135   5.716   4.134   7.669 -0.5708 -0.3818  0.8221
 1016MOL0     H37136   5.743   3.897   7.858 -0.6503  0.4149 -0.7106
 1016MOL0     H37137   5.662   3.910   7.704  3.1179 -1.6959 -0.8992
 1016MOL0     H37138   5.609   4.079   7.952 -1.9967  0.6332 -1.0414
 1016MOL0     H37139   5.496   4.054   7.819 -2.4023 -2.1842 -0.1801
 1016MOL0     H37140   6.506   4.513   7.212  0.1099  2.2256  0.8538
 1016MOL0     H37141   6.678   4.658   7.313 -0.0100 -0.1893  0.0291
 1016MOL0     H37142   6.771   4.935   7.825 -0.1052 -0.0275  0.1829
 1016MOL0     H37143   6.974   5.063   7.904  0.4329 -1.0747  1.9001
 1016MOL0     H37144   6.090   5.047   6.917 -0.6723 -0.2850  0.5429
 1016MOL0     H37145   5.853   4.973   6.972 -1.4586  4.9690 -1.1626
 1016MOL0     H37146   5.532   5.003   7.057 -1.7303 -0.8879 -3.4718
 1016MOL0     H37147   5.297   4.956   7.026  2.3215 -2.4614 -1.9612
 1016MOL0     H37148   5.068   4.787   7.346 -2.0237 -1.1635  0.4790
 1016MOL0     H37149   5.101   4.645   7.242 -1.1838 -0.5452 -1.2744
 1016MOL0     H37150   4.927   4.722   7.081  0.3051  0.3030 -0.8352
 1016MOL0     H37151   4.905   4.873   7.172  0.6448  0.8571  3.5906
 1016MOL0     H37152   4.817   4.749   7.367 -0.2522  0.8319  0.3421
 1016MOL0     H37153   4.857   4.591   7.291 -0.5109 -0.2382 -0.3314
 1016MOL0     H37154   4.682   4.791   7.177 -0.5491 -0.2631  2.0344
 1016MOL0     H37155   4.709   4.631   7.104 -1.4675  0.3958 -0.5332
 1016MOL0     H37156   4.428   4.534   7.387 -1.3754  0.5453 -0.4925
 1016MOL0     H37157   5.279   4.714   7.383  0.1112 -2.3119 -1.1228
 1016MOL0     H37158   5.628   4.757   7.474  1.2335 -2.1177  1.7705
 1016MOL0     H37159   5.463   4.694   7.512 -1.8046  2.7537 -0.7928
 1016MOL0     H37160   5.558   4.599   7.400 -1.1209  0.6150 -2.1024
 1017MOL0     O37161   0.099   1.269   2.253  0.0762  0.3740 -0.6540
 1017MOL0     C37162   0.030   1.246   2.354  0.5137  0.1659 -0.8220
 1017MOL0     O37163   0.081   1.215   2.487  0.1178 -0.8552  0.1067
 1017MOL0     C37164   0.222   1.214   2.513  0.1410 -0.2661  0.2763
 1017MOL0     C37165   0.279   1.097   2.571 -0.7171 -0.1976  0.0927
 1017MOL0     C37166   0.426   1.103   2.597  1.3281  0.2360 -0.4113
 1017MOL0     C37167   0.497   1.209   2.546 -0.1110  0.3337  0.7764
 1017MOL0     O37168   0.635   1.203   2.547 -0.5596 -0.0681  0.0275
 1017MOL0     C37169   0.703   1.095   2.614  0.3765  0.1049  0.6215
 1017MOL0     C37170   0.852   1.123   2.609  0.1937  0.7383  0.7641
 1017MOL0     C37171   0.926   1.040   2.700  0.9637 -0.0920 -0.1680
 1017MOL0     C37172   1.075   1.074   2.700  0.5778  0.5204  0.2168
 1017MOL0     C37173   1.123   1.081   2.845 -0.5868  0.4131  0.1260
 1017MOL0     C37174   1.275   1.128   2.858  0.2494  0.3916  0.3751
 1017MOL0     C37175   1.269   1.281   2.860 -0.5379 -0.8260  0.4822
 1017MOL0     C37176   1.404   1.335   2.837 -0.2356  0.2200  0.1265
 1017MOL0     N37177   1.459   1.352   2.971 -0.1027 -0.2144 -0.0921
 1017MOL0     C37178   1.523   1.254   3.040  0.0452  0.7853  0.3613
 1017MOL0     C37179   1.551   1.306   3.158  0.3908 -0.9771 -1.6754
 1017MOL0     C37180   1.623   1.238   3.272 -0.1721 -0.4251 -0.6387
 1017MOL0     C37181   1.530   1.176   3.379 -1.1441 -0.1640  0.6054
 1017MOL0     C37182   1.436   1.068   3.326  0.4310 -0.0182 -0.3927
 1017MOL0     C37183   1.296   1.137   3.281 -0.0322  0.4640  0.0102
 1017MOL0     O37184   1.226   1.022   3.213 -0.0981 -0.9287 -0.8325
 1017MOL0     C37185   1.095   1.048   3.190  0.1251  0.6813  0.0420
 1017MOL0     C37186   1.020   1.166   3.231 -0.3906 -0.3457  0.0032
 1017MOL0     C37187   0.891   1.191   3.205 -0.0069 -0.6688 -0.6860
 1017MOL0     C37188   0.819   1.086   3.138  0.6529  0.0628 -0.1923
 1017MOL0     C37189   0.673   1.107   3.109 -0.2355  1.1496  1.0229
 1017MOL0     O37190   0.621   1.225   3.130  0.1029 -0.2785 -0.3630
 1017MOL0     C37191   0.503   1.267   3.074  0.5856 -0.1294  0.5957
 1017MOL0     C37192   0.480   1.300   2.936 -0.8597 -0.1437 -0.2980
 1017MOL0     C37193   0.359   1.334   2.880 -0.0782 -0.9980  0.1858
 1017MOL0     C37194   0.241   1.338   2.957 -0.0104  0.1186 -0.7305
 1017MOL0     O37195   0.132   1.401   2.900  0.2557  0.0243 -0.2866
 1017MOL0     C37196   0.006   1.367   2.964  0.6008 -0.4363 -0.3812
 1017MOL0     C37197  -0.102   1.390   2.854 -0.1563  0.4461  0.1319
 1017MOL0     C37198  -0.241   1.369   2.912  0.0224  0.3033 -0.5818
 1017MOL0     C37199  -0.350   1.392   2.809 -0.6595 -0.2316  0.7489
 1017MOL0     C37200  -0.492   1.382   2.866  0.1804  0.5688  0.8558
 1017MOL0     C37201  -0.531   1.247   2.934 -0.9061  0.2080  0.4701
 1017MOL0     C37202  -0.668   1.250   3.001 -0.3889  0.2115  0.7743
 1017MOL0     C37203  -0.724   1.109   3.040  0.9198 -0.4651  0.8191
 1017MOL0    Cl37204  -0.608   1.028   3.136  0.2187 -0.1690 -0.3385
 1017MOL0     C37205   0.260   1.293   3.095  0.6968 -0.2309  0.4997
 1017MOL0     C37206   0.385   1.259   3.146 -0.0348  0.6710  0.1606
 1017MOL0     O37207   0.621   1.008   3.047 -0.0156  0.1690 -0.5029
 1017MOL0     C37208   0.887   0.969   3.103 -1.0887  0.9090 -0.3319
 1017MOL0     C37209   1.020   0.942   3.138 -0.1456 -0.0584 -0.2129
 1017MOL0     N37210   1.499   1.433   3.160  0.1556 -0.1804 -0.5427
 1017MOL0     N37211   1.450   1.462   3.055 -0.5909  0.4826  0.3643
 1017MOL0     C37212   0.432   1.312   2.480 -0.1021  0.5176  0.1001
 1017MOL0     C37213   0.300   1.314   2.468  0.4296 -0.7233 -0.1707
 1017MOL0     C37214  -0.115   1.217   2.343 -0.1528 -0.8699  0.7894
 1017MOL0     C37215  -0.170   1.099   2.410 -0.4580 -0.2050  0.7260
 1017MOL0     C37216  -0.301   1.055   2.392 -0.1235  0.0950 -0.5528
 1017MOL0     C37217  -0.394   1.136   2.316 -0.7582 -0.4283 -0.1871
 1017MOL0     O37218  -0.524   1.113   2.301  0.2699  0.4202 -0.1828
 1017MOL0     C37219  -0.597   1.001   2.364 -0.0100  0.0792  0.4738
 1017MOL0     C37220  -0.638   1.027   2.509 -0.1283  0.1996  0.3557
 1017MOL0     C37221  -0.697   0.906   2.561 -0.1118  0.3130 -0.4925
 1017MOL0     C37222  -0.745   0.936   2.702 -0.7701  0.4283  0.2244
 1017MOL0     C37223  -0.862   0.864   2.753  0.3154 -0.5532  0.1746
 1017MOL0     C37224  -0.967   0.813   2.798 -0.1911 -0.0818  0.3036
 1017MOL0     C37225  -0.338   1.255   2.264 -0.0957  0.5793  0.3655
 1017MOL0     C37226  -0.202   1.291   2.260 -0.0984  0.0274 -0.4027
 1017MOL0     C37227  -0.160   1.414   2.187  0.1979  0.3316  0.5539
 1017MOL0     H37228   0.217   1.008   2.582 -1.4889  0.1152 -1.4722
 1017MOL0     H37229   0.478   1.019   2.642  0.0918 -0.4247 -0.1722
 1017MOL0     H37230   0.667   1.098   2.717 -0.0759 -0.5065  0.4850
 1017MOL0     H37231   0.686   0.991   2.587  2.6359 -1.0348  3.1775
 1017MOL0     H37232   0.877   1.225   2.640 -1.4545  0.6833  2.4299
 1017MOL0     H37233   0.877   1.113   2.503 -2.2955 -0.5326  0.2357
 1017MOL0     H37234   0.917   0.937   2.665  1.5734 -0.3151  0.3229
 1017MOL0     H37235   0.883   1.053   2.800  0.9435 -2.3685  0.1599
 1017MOL0     H37236   1.132   0.997   2.648 -2.4112 -0.3970 -1.9859
 1017MOL0     H37237   1.078   1.172   2.651 -0.9632 -0.7262 -2.5880
 1017MOL0     H37238   1.052   1.146   2.898  1.1792 -0.3475  3.7202
 1017MOL0     H37239   1.118   0.989   2.905  2.1652 -1.7568 -2.6443
 1017MOL0     H37240   1.307   1.089   2.956 -1.0709 -1.0538  0.2767
 1017MOL0     H37241   1.349   1.091   2.786  2.3238  0.9387  2.1269
 1017MOL0     H37242   1.219   1.332   2.943  1.6844  1.0928  0.7167
 1017MOL0     H37243   1.203   1.303   2.776 -1.8515  0.5045  1.8093
 1017MOL0     H37244   1.471   1.273   2.776  0.8368 -0.3862  1.8306
 1017MOL0     H37245   1.388   1.434   2.793 -3.4579  1.6188  3.8484
 1017MOL0     H37246   1.553   1.158   3.000 -1.3697  0.4251  0.1280
 1017MOL0     H37247   1.686   1.159   3.231  0.7856  0.1163 -0.2224
 1017MOL0     H37248   1.680   1.316   3.324 -0.4863  1.6126 -3.1399
 1017MOL0     H37249   1.582   1.135   3.467  0.2036  2.5886  1.2030
 1017MOL0     H37250   1.468   1.255   3.423  0.1957  1.3061 -0.0478
 1017MOL0     H37251   1.414   0.984   3.393 -2.0206  1.1330  0.3657
 1017MOL0     H37252   1.483   1.014   3.243  1.1712 -0.0551  0.0445
 1017MOL0     H37253   1.304   1.229   3.222  2.9721  1.5145  1.8622
 1017MOL0     H37254   1.240   1.158   3.372  1.2261  1.7230  0.5316
 1017MOL0     H37255   1.063   1.255   3.276  2.4939 -2.3923  1.5761
 1017MOL0     H37256   0.849   1.288   3.229  2.4248 -0.2304  2.4141
 1017MOL0     H37257   0.565   1.299   2.868  2.6853 -0.7253  3.7150
 1017MOL0     H37258   0.371   1.361   2.776 -0.9328 -0.3511  0.2457
 1017MOL0     H37259  -0.008   1.265   3.001 -2.6684  0.4905  1.3065
 1017MOL0     H37260  -0.013   1.432   3.050  0.7809 -0.8768 -0.0010
 1017MOL0     H37261  -0.095   1.492   2.817 -2.2689  1.2007  1.6299
 1017MOL0     H37262  -0.087   1.321   2.770  1.1902  1.4830 -0.5062
 1017MOL0     H37263  -0.249   1.267   2.951  1.5756  0.4370  0.1930
 1017MOL0     H37264  -0.262   1.434   2.997 -0.3243 -1.6710  0.9196
 1017MOL0     H37265  -0.347   1.328   2.721 -0.0540  0.6737  0.0945
 1017MOL0     H37266  -0.335   1.493   2.768  1.1302 -1.3265 -1.4987
 1017MOL0     H37267  -0.547   1.397   2.773  3.0659  1.2918 -0.8644
 1017MOL0     H37268  -0.498   1.466   2.936  1.2843  1.8495 -0.5093
 1017MOL0     H37269  -0.529   1.165   2.862 -0.0424 -0.5934  1.3689
 1017MOL0     H37270  -0.448   1.230   3.004  2.0951 -1.1161 -3.0828
 1017MOL0     H37271  -0.743   1.298   2.937 -1.7589 -2.2097  0.4342
 1017MOL0     H37272  -0.661   1.319   3.085  2.2641 -1.6736  2.2571
 1017MOL0     H37273  -0.818   1.129   3.094  0.1900 -0.2324 -0.5004
 1017MOL0     H37274  -0.740   1.052   2.949  0.6408 -0.3175  0.7738
 1017MOL0     H37275   0.170   1.304   3.154 -0.0431  3.6349 -1.0678
 1017MOL0     H37276   0.389   1.225   3.249 -1.7400 -0.7418 -0.1986
 1017MOL0     H37277   0.831   0.888   3.056  0.9203 -2.1017  2.1038
 1017MOL0     H37278   1.069   0.849   3.112  2.1701  0.8143  0.7462
 1017MOL0     H37279   0.480   1.399   2.436 -0.5807  0.5363 -0.3931
 1017MOL0     H37280   0.264   1.398   2.409 -2.1475 -1.1680  0.6480
 1017MOL0     H37281  -0.117   1.032   2.477 -1.1473 -0.4206  1.0630
 1017MOL0     H37282  -0.326   0.955   2.426 -0.3060 -0.1593 -1.4002
 1017MOL0     H37283  -0.540   0.908   2.353 -0.0269  0.3021 -2.2038
 1017MOL0     H37284  -0.686   0.983   2.303 -0.2030  2.0223  0.1336
 1017MOL0     H37285  -0.711   1.108   2.498 -0.5353 -0.1631  0.3110
 1017MOL0     H37286  -0.558   1.062   2.574 -0.3877 -0.4192  1.0139
 1017MOL0     H37287  -0.623   0.826   2.552 -0.0296  0.2880  0.3298
 1017MOL0     H37288  -0.788   0.882   2.504 -0.8163 -2.1672  1.4901
 1017MOL0     H37289  -0.659   0.927   2.770  0.4666  0.9267 -1.2251
 1017MOL0     H37290  -0.770   1.042   2.710 -3.1943 -0.0146 -0.7793
 1017MOL0     H37291  -1.063   0.781   2.833 -0.1255 -1.7474 -0.8918
 1017MOL0     H37292  -0.403   1.319   2.206 -0.1296 -0.6697 -1.0244
 1017MOL0     H37293  -0.250   1.463   2.149  0.8614 -1.1058 -3.3499
 1017MOL0     H37294  -0.104   1.479   2.254 -1.4179  2.2584  0.1332
 1017MOL0     H37295  -0.095   1.382   2.105  1.0811 -2.3383  2.1355
 1018MOL0     O37296  10.211  11.098   2.629 -0.6730  0.7529 -0.6836
 1018MOL0     C37297  10.123  11.143   2.562 -0.6061  0.4284  0.5838
 1018MOL0     O37298  10.146  11.219   2.447  0.4996  0.3294  0.4049
 1018MOL0     C37299  10.268  11.273   2.422  0.2854  0.7194  0.1147
 1018MOL0     C37300  10.285  11.406   2.393 -0.3772  0.1611 -0.5637
 1018MOL0     C37301  10.416  11.453   2.364 -0.2512  0.4151  0.0454
 1018MOL0     C37302  10.529  11.376   2.360  0.0030 -0.1496  0.7844
 1018MOL0     O37303  10.647  11.432   2.328 -0.4890  0.7408  0.5059
 1018MOL0     C37304  10.733  11.491   2.423 -0.4504 -0.2387 -0.3417
 1018MOL0     C37305  10.881  11.476   2.368  0.3973  0.2689 -0.2237
 1018MOL0     C37306  10.974  11.502   2.486  0.2608  0.2154  0.2731
 1018MOL0     C37307  11.118  11.495   2.435 -0.6922 -0.9819  0.4892
 1018MOL0     C37308  11.161  11.640   2.396  0.4307 -0.7241  0.4872
 1018MOL0     C37309  11.303  11.636   2.351 -0.7651  0.1460  0.1505
 1018MOL0     C37310  11.354  11.783   2.321 -0.2206 -0.1198  0.4874
 1018MOL0     C37311  11.394  11.880   2.439  0.0972  0.3999 -0.3216
 1018MOL0     N37312  11.429  12.013   2.387 -0.2159 -0.1822  0.6056
 1018MOL0     C37313  11.506  12.049   2.276  0.2001  0.0376  0.1764
 1018MOL0     C37314  11.480  12.181   2.256  0.6888  0.2030 -0.7085
 1018MOL0     C37315  11.539  12.274   2.151  1.0011 -0.0776 -0.7249
 1018MOL0     C37316  11.676  12.234   2.109  0.2396 -0.4722 -0.0658
 1018MOL0     C37317  11.776  12.232   2.225  1.2544  0.3264  0.2430
 1018MOL0     C37318  11.928  12.224   2.184  0.6813  0.4219  0.2834
 1018MOL0     O37319  12.003  12.195   2.298  0.0363  0.3439  0.2798
 1018MOL0     C37320  12.128  12.135   2.289 -0.1790 -0.2621  0.7331
 1018MOL0     C37321  12.174  12.088   2.406  0.0031 -0.9216 -0.6656
 1018MOL0     C37322  12.298  12.026   2.410 -0.0546 -0.0149  0.6536
 1018MOL0     C37323  12.382  12.023   2.293  0.7965 -0.7854 -0.5347
 1018MOL0     C37324  12.519  11.973   2.312  0.4785 -1.0344 -0.0914
 1018MOL0     O37325  12.614  12.008   2.225  0.0894  0.1551  0.1759
 1018MOL0     C37326  12.751  11.968   2.236  0.1760 -0.4405 -0.2287
 1018MOL0     C37327  12.853  12.057   2.210  0.0162  0.1874 -0.1164
 1018MOL0     C37328  12.988  12.008   2.219 -0.2653 -0.7178 -0.3811
 1018MOL0     C37329  13.019  11.878   2.257 -0.4062 -0.0755  0.0074
 1018MOL0     O37330  13.151  11.857   2.271  0.6207 -0.0853  0.2869
 1018MOL0     C37331  13.196  11.721   2.300 -0.0701  0.2387  0.6822
 1018MOL0     C37332  13.341  11.755   2.351  0.3504 -0.4676  0.1033
 1018MOL0     C37333  13.389  11.662   2.460  1.4799 -0.0655  0.1311
 1018MOL0     C37334  13.536  11.686   2.497  0.5174 -0.1095  0.1256
 1018MOL0     C37335  13.542  11.829   2.561  0.2826  0.5183 -0.2734
 1018MOL0     C37336  13.459  11.871   2.684  0.2161  0.5627  0.1385
 1018MOL0     C37337  13.473  12.015   2.713  1.1223 -0.6468 -0.9298
 1018MOL0     C37338  13.382  12.066   2.818  0.5180 -0.4646 -0.6203
 1018MOL0    Cl37339  13.477  12.145   2.946  0.1471  0.5528  0.3373
 1018MOL0     C37340  12.915  11.783   2.274 -0.7820 -0.3257 -0.3011
 1018MOL0     C37341  12.786  11.828   2.270  0.7375 -1.4005  0.3123
 1018MOL0     O37342  12.535  11.903   2.412  0.1259 -0.9406  0.2899
 1018MOL0     C37343  12.325  12.066   2.173 -0.0570 -0.0228 -0.3547
 1018MOL0     C37344  12.205  12.127   2.168 -0.2869 -0.7205 -0.0059
 1018MOL0     N37345  11.375  12.214   2.336 -0.2965  0.5957 -0.7743
 1018MOL0     N37346  11.347  12.117   2.412 -0.5627 -0.0093 -0.1483
 1018MOL0     C37347  10.512  11.244   2.392  0.3083 -0.2199 -0.1099
 1018MOL0     C37348  10.382  11.185   2.411  0.4260 -0.4782 -0.0803
 1018MOL0     C37349   9.979  11.122   2.594  0.9264  1.0211 -0.3243
 1018MOL0     C37350   9.880  11.183   2.510 -0.2891  0.1364  0.0407
 1018MOL0     C37351   9.740  11.163   2.537  0.0758 -0.3092 -0.4742
 1018MOL0     C37352   9.698  11.097   2.657  0.4338  0.4128  0.4987
 1018MOL0     O37353   9.565  11.103   2.701 -0.7172 -0.0575 -0.3241
 1018MOL0     C37354   9.454  11.079   2.610 -0.2943  0.2265 -0.2460
 1018MOL0     C37355   9.395  10.943   2.655  0.5819 -0.7393 -0.2497
 1018MOL0     C37356   9.262  10.910   2.570 -0.6474 -0.3617 -0.5449
 1018MOL0     C37357   9.179  10.805   2.640 -0.6936 -0.3069 -0.5442
 1018MOL0     C37358   9.247  10.675   2.639 -0.2682  0.1869 -0.2380
 1018MOL0     C37359   9.313  10.573   2.638 -0.2831 -0.7523 -0.5472
 1018MOL0     C37360   9.797  11.034   2.736 -0.0442 -0.7802 -0.1704
 1018MOL0     C37361   9.937  11.043   2.706  0.7389  0.2462  1.1096
 1018MOL0     C37362  10.027  10.976   2.806  0.4220 -0.1302  1.2304
 1018MOL0     H37363  10.198  11.470   2.385 -1.9197 -1.8963 -0.8883
 1018MOL0     H37364  10.428  11.559   2.344 -1.0506  1.2532  3.4128
 1018MOL0     H37365  10.695  11.593   2.431  2.0677  0.8566 -1.1397
 1018MOL0     H37366  10.728  11.439   2.519  0.3426 -1.4158 -0.9021
 1018MOL0     H37367  10.904  11.554   2.294  0.8506 -0.8927 -1.3441
 1018MOL0     H37368  10.890  11.378   2.320 -0.8467  0.7161 -1.4581
 1018MOL0     H37369  10.959  11.417   2.553 -2.4544  0.8065  0.5641
 1018MOL0     H37370  10.948  11.597   2.533 -0.8151 -1.4858  3.3953
 1018MOL0     H37371  11.170  11.459   2.524 -4.4936  0.1565  3.4841
 1018MOL0     H37372  11.138  11.427   2.352 -0.4289 -1.0871  0.6363
 1018MOL0     H37373  11.103  11.675   2.310 -1.8153 -1.7878  1.4783
 1018MOL0     H37374  11.144  11.707   2.481  1.3012  0.2348 -0.0747
 1018MOL0     H37375  11.364  11.586   2.427 -1.8493 -1.5259 -0.0268
 1018MOL0     H37376  11.311  11.574   2.261  2.1132 -3.2049  2.4030
 1018MOL0     H37377  11.285  11.843   2.260  1.6614  1.8720  0.1821
 1018MOL0     H37378  11.446  11.761   2.267 -0.1286 -1.9885  1.3392
 1018MOL0     H37379  11.299  11.887   2.493 -0.2590  0.1285 -0.9008
 1018MOL0     H37380  11.473  11.838   2.502  0.1758  0.2960 -0.4866
 1018MOL0     H37381  11.575  11.982   2.226 -0.2825 -0.2557 -0.0976
 1018MOL0     H37382  11.473  12.272   2.063 -0.4888 -3.1977  0.3067
 1018MOL0     H37383  11.535  12.374   2.194  0.3585  0.0841 -1.1350
 1018MOL0     H37384  11.666  12.134   2.065 -2.6920 -0.8446  1.2058
 1018MOL0     H37385  11.714  12.295   2.027 -1.3312  0.1654 -0.3594
 1018MOL0     H37386  11.754  12.146   2.289  0.0540 -0.1583 -0.7735
 1018MOL0     H37387  11.751  12.322   2.282 -1.9998  0.6963 -1.5429
 1018MOL0     H37388  11.970  12.316   2.142 -2.5092  1.2224 -1.4789
 1018MOL0     H37389  11.947  12.147   2.109  1.8842  0.1584  0.8371
 1018MOL0     H37390  12.107  12.108   2.490 -1.1467  1.1893 -2.0076
 1018MOL0     H37391  12.346  11.991   2.501 -2.5164 -4.3167  0.5190
 1018MOL0     H37392  12.842  12.164   2.204  5.1369  0.8971 -1.6829
 1018MOL0     H37393  13.071  12.078   2.224 -1.2251  0.4670 -0.7074
 1018MOL0     H37394  13.135  11.664   2.371 -2.7329 -1.8026 -2.8555
 1018MOL0     H37395  13.191  11.651   2.215 -1.4713  0.0131  0.9217
 1018MOL0     H37396  13.406  11.746   2.264 -0.2464  0.4139 -0.4433
 1018MOL0     H37397  13.350  11.858   2.388 -0.2224 -0.4590  0.2207
 1018MOL0     H37398  13.323  11.670   2.546 -0.1429  3.3589 -1.2324
 1018MOL0     H37399  13.374  11.564   2.414 -3.1464  1.2002 -1.5684
 1018MOL0     H37400  13.591  11.664   2.405 -1.5184 -1.7700 -0.7882
 1018MOL0     H37401  13.554  11.614   2.576 -4.2428 -2.0508 -0.2626
 1018MOL0     H37402  13.524  11.899   2.479 -0.4572 -1.0122 -1.4699
 1018MOL0     H37403  13.645  11.850   2.590 -0.6085  1.4972  2.4676
 1018MOL0     H37404  13.352  11.853   2.673  0.4090 -1.1459  0.8443
 1018MOL0     H37405  13.482  11.808   2.770 -1.9053 -0.2738  0.1476
 1018MOL0     H37406  13.460  12.087   2.632 -2.4562  1.0545  0.9014
 1018MOL0     H37407  13.568  12.025   2.767  0.3966  0.5691  0.1916
 1018MOL0     H37408  13.293  12.127   2.798 -0.7480 -0.9057  2.9450
 1018MOL0     H37409  13.332  11.978   2.858 -0.6550  1.0138  1.3570
 1018MOL0     H37410  12.939  11.679   2.294  1.4803  0.5939  2.3983
 1018MOL0     H37411  12.703  11.760   2.286 -0.9483  0.9434  2.2940
 1018MOL0     H37412  12.384  12.065   2.082 -1.6092 -0.6607 -1.3890
 1018MOL0     H37413  12.179  12.182   2.078  1.2617  1.9498  1.0745
 1018MOL0     H37414  10.590  11.169   2.392  1.3202  0.8077  0.4853
 1018MOL0     H37415  10.378  11.076   2.416  5.6350 -1.0502 -2.0001
 1018MOL0     H37416   9.912  11.247   2.429  0.6281  0.5519  0.7186
 1018MOL0     H37417   9.670  11.228   2.484 -1.1853 -2.2380 -1.2633
 1018MOL0     H37418   9.478  11.057   2.505  2.1247 -3.1992  0.8426
 1018MOL0     H37419   9.379  11.158   2.610 -1.4033 -0.4680 -5.3991
 1018MOL0     H37420   9.368  10.952   2.761 -0.0177 -0.6821 -0.4088
 1018MOL0     H37421   9.471  10.870   2.623  2.9438  2.0994 -1.5458
 1018MOL0     H37422   9.292  10.873   2.472  1.5311  0.2471 -0.1718
 1018MOL0     H37423   9.201  11.000   2.558 -2.4708 -1.3994  0.5401
 1018MOL0     H37424   9.166  10.825   2.747  1.2387 -0.8496 -0.1617
 1018MOL0     H37425   9.082  10.796   2.592  0.0934 -0.6285 -2.1651
 1018MOL0     H37426   9.382  10.494   2.661  1.6699  1.1057  0.3648
 1018MOL0     H37427   9.772  10.984   2.828 -0.3064 -0.3722 -0.0144
 1018MOL0     H37428   9.982  10.921   2.888 -0.8359  0.8318  1.2141
 1018MOL0     H37429  10.090  10.908   2.749  1.5966  0.1911  2.1085
 1018MOL0     H37430  10.102  11.042   2.851  0.2982  0.5018  0.5404
 1019MOL0     O37431   3.706  10.205   4.297 -0.3480  0.6564 -0.1343
 1019MOL0     C37432   3.638  10.111   4.255 -0.0759  0.2066 -0.4788
 1019MOL0     O37433   3.686  10.006   4.179 -0.2256  0.4170 -0.1594
 1019MOL0     C37434   3.814  10.006   4.150 -0.5706  0.6556 -0.2305
 1019MOL0     C37435   3.878  10.118   4.087  0.2920 -0.1884 -0.8392
 1019MOL0     C37436   4.011  10.107   4.054  0.4378 -0.4707  0.3497
 1019MOL0     C37437   4.082   9.988   4.071 -0.8925  0.9781  0.0543
 1019MOL0     O37438   4.222   9.978   4.029  0.6696  0.4245  0.5078
 1019MOL0     C37439   4.307  10.089   4.020  0.1713 -0.2787  0.1574
 1019MOL0     C37440   4.419  10.051   3.925 -0.6210  0.3069  0.3117
 1019MOL0     C37441   4.539  10.148   3.944  0.4063  0.1511 -0.7558
 1019MOL0     C37442   4.658  10.094   3.856  0.1608 -0.2041 -0.9086
 1019MOL0     C37443   4.782  10.180   3.883 -0.3019 -0.3408 -0.4837
 1019MOL0     C37444   4.903  10.100   3.831  0.9271 -0.2301 -0.0983
 1019MOL0     C37445   5.021  10.196   3.825  0.4552  0.3531  0.6800
 1019MOL0     C37446   5.144  10.114   3.808  0.3508  0.4041 -0.1265
 1019MOL0     N37447   5.264  10.196   3.792  0.6099 -0.0353  0.2456
 1019MOL0     C37448   5.348  10.246   3.890 -0.6105 -0.2606  0.1521
 1019MOL0     C37449   5.441  10.322   3.821  0.6812 -0.2356 -0.6783
 1019MOL0     C37450   5.552  10.409   3.878  0.3036 -0.0521  0.4793
 1019MOL0     C37451   5.659  10.445   3.780  0.0655  0.4658  0.4797
 1019MOL0     C37452   5.750  10.551   3.837 -0.4971 -0.4121  0.0137
 1019MOL0     C37453   5.872  10.577   3.757  0.1155  0.9762  0.6057
 1019MOL0     O37454   5.966  10.470   3.761  0.4450 -0.5261 -0.2454
 1019MOL0     C37455   6.084  10.487   3.695 -0.4082  0.4034  0.1740
 1019MOL0     C37456   6.120  10.587   3.605  0.3968 -0.4091  0.8738
 1019MOL0     C37457   6.247  10.600   3.548  0.6211 -0.3015  0.2706
 1019MOL0     C37458   6.337  10.497   3.568 -0.3741  0.0270 -0.4892
 1019MOL0     C37459   6.478  10.502   3.524  0.4563 -0.5079 -1.1903
 1019MOL0     O37460   6.547  10.392   3.525  0.1769  0.0284 -0.2721
 1019MOL0     C37461   6.679  10.405   3.484 -0.5963 -0.5774 -0.1545
 1019MOL0     C37462   6.791  10.360   3.559 -0.0483 -0.2543 -0.4457
 1019MOL0     C37463   6.927  10.374   3.513  1.5821 -0.1643  0.4297
 1019MOL0     C37464   6.963  10.420   3.389  0.0532  0.6477  0.8015
 1019MOL0     O37465   7.097  10.402   3.342  0.8415  0.3152 -0.1702
 1019MOL0     C37466   7.124  10.381   3.198 -0.2644 -0.1145  0.3980
 1019MOL0     C37467   7.263  10.319   3.189 -0.4729  0.4095  0.3847
 1019MOL0     C37468   7.373  10.423   3.240 -0.6208 -0.8470 -1.0026
 1019MOL0     C37469   7.518  10.383   3.211 -0.3210 -0.1556  0.3090
 1019MOL0     C37470   7.606  10.509   3.231 -1.3207 -0.5098  0.7122
 1019MOL0     C37471   7.754  10.474   3.194 -0.4426 -0.6279  0.0803
 1019MOL0     C37472   7.808  10.351   3.264  0.2924 -0.1363  0.3289
 1019MOL0     C37473   7.955  10.365   3.303  0.2929 -0.0491 -0.1197
 1019MOL0    Cl37474   8.048  10.369   3.150 -0.1254  0.3462  0.4916
 1019MOL0     C37475   6.857  10.478   3.314 -1.0695  0.1168 -0.1850
 1019MOL0     C37476   6.723  10.457   3.364  0.2061 -1.0525  0.3986
 1019MOL0     O37477   6.518  10.612   3.486 -0.7007  0.1877  0.5868
 1019MOL0     C37478   6.301  10.391   3.653 -1.4081 -0.4411  0.1658
 1019MOL0     C37479   6.177  10.383   3.711  1.3192  0.1131 -0.2049
 1019MOL0     N37480   5.402  10.327   3.685 -0.2894  0.2265  0.0537
 1019MOL0     N37481   5.300  10.250   3.675 -0.4835 -0.5563 -0.2340
 1019MOL0     C37482   4.019   9.882   4.125 -0.5191  0.2339  0.3147
 1019MOL0     C37483   3.887   9.894   4.172  0.6981 -0.2284 -0.3269
 1019MOL0     C37484   3.491  10.120   4.271  0.5944  0.2726  0.1058
 1019MOL0     C37485   3.408  10.037   4.189  0.2210 -0.6000  0.4368
 1019MOL0     C37486   3.264  10.059   4.179  0.1861  0.8050 -1.3968
 1019MOL0     C37487   3.203  10.143   4.269 -0.0609  0.2139 -0.2242
 1019MOL0     O37488   3.066  10.150   4.266 -0.1539 -0.2746 -0.1258
 1019MOL0     C37489   3.008  10.240   4.361  0.1217 -0.0054  0.0991
 1019MOL0     C37490   2.857  10.221   4.356  0.2154  0.3551  0.6906
 1019MOL0     C37491   2.818  10.087   4.405  0.0530 -0.2506  1.0084
 1019MOL0     C37492   2.664  10.066   4.371 -0.2919  0.1133  0.0801
 1019MOL0     C37493   2.565  10.162   4.417  0.2444  0.5156  0.0579
 1019MOL0     C37494   2.482  10.237   4.456  0.6390  0.1009  0.2383
 1019MOL0     C37495   3.287  10.218   4.359 -0.2910 -0.4165  0.3130
 1019MOL0     C37496   3.424  10.204   4.358 -0.0053 -0.4885  0.0545
 1019MOL0     C37497   3.490  10.281   4.472 -0.1484 -0.9466 -0.1955
 1019MOL0     H37498   3.842  10.221   4.085 -0.0707 -0.3092 -0.6283
 1019MOL0     H37499   4.053  10.197   4.010  1.0639 -0.3282  1.2169
 1019MOL0     H37500   4.268  10.186   3.987 -0.0785 -0.8133 -1.2116
 1019MOL0     H37501   4.338  10.110   4.123  0.9334  2.5232 -0.5407
 1019MOL0     H37502   4.387  10.073   3.823  2.5156 -2.1789 -1.4044
 1019MOL0     H37503   4.453   9.948   3.938 -0.8474  0.3641  1.4121
 1019MOL0     H37504   4.562  10.159   4.051 -0.8545 -0.2229 -0.4346
 1019MOL0     H37505   4.510  10.248   3.911 -1.5463 -0.5080 -1.1390
 1019MOL0     H37506   4.680   9.990   3.882  0.7634  0.4638  1.5517
 1019MOL0     H37507   4.640  10.109   3.750 -0.0295 -2.6749 -1.3032
 1019MOL0     H37508   4.770  10.274   3.828  1.2809  0.5547  0.6349
 1019MOL0     H37509   4.792  10.204   3.989  1.2647  2.4108 -1.1497
 1019MOL0     H37510   4.926  10.008   3.886 -0.2132  0.3513  1.3843
 1019MOL0     H37511   4.887  10.074   3.726  0.0075 -1.0325  0.2291
 1019MOL0     H37512   5.033  10.249   3.920 -1.2233 -1.3040  1.8774
 1019MOL0     H37513   4.998  10.262   3.742 -2.3010  0.2770  1.2879
 1019MOL0     H37514   5.154  10.054   3.898  0.0592 -0.7320 -0.8251
 1019MOL0     H37515   5.129  10.046   3.723 -2.3227 -0.0884  0.6368
 1019MOL0     H37516   5.338  10.225   3.996  1.0602 -1.1897  0.1442
 1019MOL0     H37517   5.508  10.503   3.911 -0.9083 -0.1228 -0.8163
 1019MOL0     H37518   5.591  10.354   3.964  0.6753 -1.8643 -0.7754
 1019MOL0     H37519   5.720  10.364   3.736  1.3054  1.3906  0.4403
 1019MOL0     H37520   5.610  10.479   3.688  1.4639  3.4161  0.7051
 1019MOL0     H37521   5.771  10.525   3.941 -2.3602  0.9606  0.7855
 1019MOL0     H37522   5.697  10.647   3.832  1.7210  0.8411 -3.0219
 1019MOL0     H37523   5.927  10.658   3.805  0.5906  0.4131  1.0274
 1019MOL0     H37524   5.849  10.596   3.652  1.6804 -0.6270 -0.0758
 1019MOL0     H37525   6.041  10.652   3.568 -0.4958 -1.6764  0.4725
 1019MOL0     H37526   6.269  10.691   3.491  1.5620 -0.3195  0.5839
 1019MOL0     H37527   6.765  10.328   3.659  1.1938 -3.5654 -1.0686
 1019MOL0     H37528   7.003  10.339   3.583  0.9702 -2.4366  0.0428
 1019MOL0     H37529   7.049  10.313   3.157  0.6599  0.4196 -2.3928
 1019MOL0     H37530   7.111  10.472   3.140  0.6015  0.7329  1.4592
 1019MOL0     H37531   7.274  10.228   3.248  1.1973  0.2375 -0.1248
 1019MOL0     H37532   7.281  10.292   3.085  1.4280 -0.4051  0.8828
 1019MOL0     H37533   7.353  10.522   3.197  0.6741  0.3606  0.9776
 1019MOL0     H37534   7.360  10.435   3.348  3.8117 -0.5383 -0.2975
 1019MOL0     H37535   7.509  10.350   3.107 -1.0342  0.2094  0.2500
 1019MOL0     H37536   7.530  10.297   3.278  3.1312  0.5463  0.7597
 1019MOL0     H37537   7.600  10.541   3.335 -2.6400  1.7149  0.0083
 1019MOL0     H37538   7.575  10.591   3.165 -2.4704 -0.6297  1.0897
 1019MOL0     H37539   7.761  10.464   3.085 -2.0350 -3.5398  0.1482
 1019MOL0     H37540   7.815  10.560   3.223  1.0370 -0.2785 -3.5410
 1019MOL0     H37541   7.798  10.262   3.202 -1.0172  0.1893  0.0440
 1019MOL0     H37542   7.755  10.340   3.359  0.5089  0.2923  0.5045
 1019MOL0     H37543   7.971  10.461   3.353 -0.3184 -0.1151  0.2069
 1019MOL0     H37544   7.989  10.282   3.366 -1.3919 -0.3629  0.4208
 1019MOL0     H37545   6.863  10.517   3.213  1.5187 -0.0422 -0.1571
 1019MOL0     H37546   6.655  10.472   3.280  0.7522  1.3181  0.3109
 1019MOL0     H37547   6.372  10.314   3.680 -1.2844 -0.5242 -0.3731
 1019MOL0     H37548   6.142  10.298   3.769 -0.8938  2.6932  2.5799
 1019MOL0     H37549   4.071   9.787   4.136 -1.3475 -0.0243  2.4611
 1019MOL0     H37550   3.855   9.806   4.227  3.7000 -0.9172  0.4822
 1019MOL0     H37551   3.453   9.956   4.133 -2.1437 -0.6181 -1.6360
 1019MOL0     H37552   3.199  10.007   4.109  0.8395 -0.1068 -1.3455
 1019MOL0     H37553   3.031  10.345   4.339  1.5441 -0.5679 -1.2683
 1019MOL0     H37554   3.038  10.206   4.461  0.1904 -0.4595 -0.0772
 1019MOL0     H37555   2.818  10.237   4.255  1.9536 -1.1481 -0.2670
 1019MOL0     H37556   2.821  10.290   4.433 -0.5154  1.9426 -1.0024
 1019MOL0     H37557   2.835  10.066   4.511 -0.4524 -0.4199  1.0616
 1019MOL0     H37558   2.874  10.013   4.348  0.0876  1.8110 -1.8485
 1019MOL0     H37559   2.642  10.048   4.266 -1.8486  2.2382 -0.0132
 1019MOL0     H37560   2.639   9.970   4.416  0.1126 -0.5692 -1.1164
 1019MOL0     H37561   2.412  10.314   4.481 -0.1577 -1.0402  1.6993
 1019MOL0     H37562   3.248  10.303   4.413  0.0773  0.7458 -1.1818
 1019MOL0     H37563   3.558  10.208   4.517 -1.6397 -1.2781  1.6457
 1019MOL0     H37564   3.544  10.371   4.443 -1.9413 -0.0827 -1.0137
 1019MOL0     H37565   3.421  10.315   4.549  0.7857 -0.2082  0.3407
 1020MOL0     O37566  10.628   1.468   9.625  0.8351 -0.0794 -0.0433
 1020MOL0     C37567  10.531   1.521   9.578 -0.0278 -0.2958  0.0952
 1020MOL0     O37568  10.539   1.608   9.467  0.4653  0.1264  0.5233
 1020MOL0     C37569  10.657   1.644   9.414 -0.3720 -0.9004 -0.3373
 1020MOL0     C37570  10.680   1.776   9.394  0.2749 -0.0088  0.6368
 1020MOL0     C37571  10.808   1.810   9.333  0.7025 -0.1088 -0.1787
 1020MOL0     C37572  10.912   1.728   9.308 -0.7903  0.4277 -1.0785
 1020MOL0     O37573  11.038   1.755   9.268  0.3245 -0.4007  0.3214
 1020MOL0     C37574  11.103   1.879   9.290 -0.4341 -0.1046 -0.4201
 1020MOL0     C37575  11.165   1.937   9.160 -0.1294  0.2687 -0.1834
 1020MOL0     C37576  11.303   1.890   9.132  0.3007  0.1048  0.1944
 1020MOL0     C37577  11.368   1.929   9.004  0.6306 -0.3056  0.2610
 1020MOL0     C37578  11.513   1.903   9.009  0.1575  0.1058  0.2069
 1020MOL0     C37579  11.569   1.965   8.871  0.0677  0.2616  0.0485
 1020MOL0     C37580  11.724   1.950   8.862  0.9868  0.1387 -0.5370
 1020MOL0     C37581  11.782   2.021   8.735 -0.4379 -0.3194  0.2428
 1020MOL0     N37582  11.922   1.997   8.715  0.2968  0.9411  0.6212
 1020MOL0     C37583  11.969   1.880   8.668 -0.1286 -1.0515 -0.7021
 1020MOL0     C37584  12.092   1.901   8.622 -0.0434  0.6671  0.0517
 1020MOL0     C37585  12.182   1.800   8.562  0.5653  0.2076  0.5903
 1020MOL0     C37586  12.333   1.818   8.595  0.2592  0.2946  0.1961
 1020MOL0     C37587  12.360   1.780   8.741  1.0629  0.7051  0.2628
 1020MOL0     C37588  12.509   1.775   8.773  0.5075  0.5952 -0.9473
 1020MOL0     O37589  12.570   1.905   8.753 -0.4077 -0.0019 -0.0652
 1020MOL0     C37590  12.683   1.897   8.680 -0.1547 -0.0726 -0.4662
 1020MOL0     C37591  12.789   1.809   8.710  0.1684 -0.6724 -0.0537
 1020MOL0     C37592  12.908   1.817   8.633 -0.2582  0.2291  0.2308
 1020MOL0     C37593  12.929   1.911   8.533  0.1149 -0.0990  0.9205
 1020MOL0     C37594  13.053   1.906   8.460  0.2230  0.3973  0.1901
 1020MOL0     O37595  13.162   1.839   8.500  1.0278 -0.3915 -0.3471
 1020MOL0     C37596  13.281   1.864   8.440 -0.3461 -0.2643 -0.1939
 1020MOL0     C37597  13.357   1.757   8.395  0.7349  0.0162 -0.3287
 1020MOL0     C37598  13.480   1.777   8.335  0.4061  0.8269 -0.1310
 1020MOL0     C37599  13.528   1.903   8.322 -0.0919  0.3472 -0.1428
 1020MOL0     O37600  13.654   1.911   8.275  0.3479  0.6286 -0.0500
 1020MOL0     C37601  13.670   1.936   8.135 -0.3795 -0.2819 -0.3463
 1020MOL0     C37602  13.821   1.935   8.094  0.1747  0.5857 -0.1156
 1020MOL0     C37603  13.899   2.052   8.164 -0.1252 -0.2921  0.4096
 1020MOL0     C37604  14.044   2.058   8.118  0.4245 -0.2139  0.8706
 1020MOL0     C37605  14.123   1.937   8.148  0.1852  0.2755 -0.4618
 1020MOL0     C37606  14.241   1.947   8.065 -0.4819  0.1303  0.2974
 1020MOL0     C37607  14.319   1.818   8.105 -0.5509 -0.1298  0.4485
 1020MOL0     C37608  14.470   1.831   8.090 -0.0575  0.3546  0.4401
 1020MOL0    Cl37609  14.515   1.885   7.933 -0.0096  0.1476 -0.0767
 1020MOL0     C37610  13.457   2.014   8.373  0.4711 -0.1031 -0.8988
 1020MOL0     C37611  13.334   1.988   8.431  0.0533 -0.3496 -0.0980
 1020MOL0     O37612  13.042   1.967   8.355 -0.3908  0.1529 -0.4333
 1020MOL0     C37613  12.816   1.993   8.496  0.4220 -0.2654 -0.2054
 1020MOL0     C37614  12.699   1.987   8.567 -0.5025 -0.3813 -0.9575
 1020MOL0     N37615  12.120   2.031   8.647  0.0283 -0.7235 -0.1880
 1020MOL0     N37616  12.014   2.093   8.702  0.3980  0.3168 -0.1047
 1020MOL0     C37617  10.887   1.591   9.341  0.4297 -0.4678  0.3178
 1020MOL0     C37618  10.754   1.553   9.377 -0.2590 -0.2058 -0.5213
 1020MOL0     C37619  10.396   1.519   9.639  0.3008 -0.2489  0.3360
 1020MOL0     C37620  10.289   1.584   9.576  0.6857  0.1455  0.3073
 1020MOL0     C37621  10.154   1.592   9.621 -0.9124  0.4641 -0.2841
 1020MOL0     C37622  10.130   1.517   9.736  0.2694  0.3549  0.5215
 1020MOL0     O37623  10.010   1.520   9.798 -0.7149  0.3279 -0.2264
 1020MOL0     C37624   9.915   1.626   9.768  0.4103  0.0341  0.3859
 1020MOL0     C37625   9.959   1.760   9.840 -0.0979 -0.0145  0.5117
 1020MOL0     C37626   9.924   1.765   9.987 -0.2291  0.3578  0.1013
 1020MOL0     C37627   9.804   1.855  10.021 -0.3174  0.0536 -0.5009
 1020MOL0     C37628   9.832   1.992  10.044 -0.3618  0.0605 -0.0669
 1020MOL0     C37629   9.859   2.111  10.066  0.8147  0.8757 -0.0850
 1020MOL0     C37630  10.228   1.444   9.798 -0.7074  0.0052 -0.4269
 1020MOL0     C37631  10.362   1.444   9.754  0.8819 -0.2629  0.4128
 1020MOL0     C37632  10.459   1.365   9.830 -0.3873  0.6265 -0.0793
 1020MOL0     H37633  10.609   1.852   9.425  0.6695 -0.3267  2.4811
 1020MOL0     H37634  10.820   1.916   9.315 -2.2635 -0.0493 -2.7478
 1020MOL0     H37635  11.035   1.949   9.340 -2.5107 -1.4688 -1.1699
 1020MOL0     H37636  11.184   1.859   9.361 -0.1002 -0.9815 -1.0257
 1020MOL0     H37637  11.161   2.045   9.173  4.7102  0.5654  0.7531
 1020MOL0     H37638  11.103   1.923   9.071 -0.9705  1.0879  0.2557
 1020MOL0     H37639  11.291   1.781   9.126  0.9679  0.1090 -3.1041
 1020MOL0     H37640  11.368   1.914   9.217  0.1330  0.4901  0.2137
 1020MOL0     H37641  11.323   1.870   8.923 -0.7327  1.4088 -0.3101
 1020MOL0     H37642  11.347   2.034   8.981 -2.7926 -0.6295  1.3008
 1020MOL0     H37643  11.563   1.956   9.091  3.6355 -0.2140 -1.5036
 1020MOL0     H37644  11.536   1.796   9.011 -0.2331 -0.0864 -2.1569
 1020MOL0     H37645  11.525   1.911   8.787 -1.7601  0.8862  0.5770
 1020MOL0     H37646  11.534   2.068   8.878 -1.1287  0.1803 -3.2964
 1020MOL0     H37647  11.762   1.848   8.862 -1.4045 -0.8185 -0.0141
 1020MOL0     H37648  11.770   1.992   8.951 -0.3371 -4.9531  2.9713
 1020MOL0     H37649  11.722   1.990   8.649  0.1819  1.9686 -1.0885
 1020MOL0     H37650  11.775   2.130   8.744  2.2296 -0.2040  2.3805
 1020MOL0     H37651  11.909   1.790   8.657 -3.5627  0.7601  1.5663
 1020MOL0     H37652  12.143   1.709   8.608 -0.0099  0.4447  0.5855
 1020MOL0     H37653  12.169   1.790   8.454 -1.7843  0.7059  0.7849
 1020MOL0     H37654  12.388   1.764   8.517 -1.5564 -0.2072 -0.7874
 1020MOL0     H37655  12.363   1.920   8.569 -3.8001  1.2858 -1.3181
 1020MOL0     H37656  12.308   1.688   8.768  2.8347 -0.2427  0.6256
 1020MOL0     H37657  12.321   1.849   8.817 -2.3541 -0.3086 -0.4502
 1020MOL0     H37658  12.558   1.700   8.711 -0.7231 -2.8649  1.9499
 1020MOL0     H37659  12.522   1.750   8.879 -1.7504  0.2538 -0.7026
 1020MOL0     H37660  12.777   1.735   8.789  1.9818 -0.0478  0.8579
 1020MOL0     H37661  12.983   1.744   8.660  0.2830  0.3063 -0.9878
 1020MOL0     H37662  13.311   1.659   8.384 -1.2632  1.1330 -2.8960
 1020MOL0     H37663  13.541   1.702   8.285 -0.9890  0.4821 -1.4113
 1020MOL0     H37664  13.615   1.856   8.085 -1.6942  0.3375  0.0744
 1020MOL0     H37665  13.619   2.031   8.114 -1.4097 -1.0008 -1.2067
 1020MOL0     H37666  13.860   1.841   8.134 -4.1651 -0.5549  2.0253
 1020MOL0     H37667  13.830   1.934   7.985 -1.3278 -0.5862 -0.2556
 1020MOL0     H37668  13.850   2.147   8.141 -0.5278 -0.7804 -0.8622
 1020MOL0     H37669  13.907   2.040   8.272  4.7739 -0.9388  0.1912
 1020MOL0     H37670  14.093   2.147   8.157  0.6835 -0.0579  0.2109
 1020MOL0     H37671  14.044   2.083   8.011 -0.5186  4.1450  1.6933
 1020MOL0     H37672  14.064   1.851   8.117 -1.8038  1.5031 -0.2497
 1020MOL0     H37673  14.141   1.918   8.254 -1.4804 -2.0443 -0.5245
 1020MOL0     H37674  14.228   1.954   7.956 -0.6480 -3.1401  0.0211
 1020MOL0     H37675  14.310   2.026   8.095  1.8055 -2.3867  2.0677
 1020MOL0     H37676  14.288   1.733   8.044 -1.4074  1.5158 -1.5754
 1020MOL0     H37677  14.294   1.791   8.208 -1.0935  1.4476  0.7616
 1020MOL0     H37678  14.514   1.902   8.160 -0.5604 -0.4171  1.5751
 1020MOL0     H37679  14.517   1.735   8.111 -1.1299 -0.8322 -2.0612
 1020MOL0     H37680  13.486   2.119   8.366 -1.4513  0.4068 -1.8592
 1020MOL0     H37681  13.292   2.070   8.490 -3.8091 -2.2897  0.1393
 1020MOL0     H37682  12.819   2.071   8.420 -0.1364 -0.1038 -0.0680
 1020MOL0     H37683  12.619   2.055   8.539 -0.3052  0.5341  0.5771
 1020MOL0     H37684  10.965   1.516   9.331 -0.4593 -1.8311  2.6190
 1020MOL0     H37685  10.729   1.448   9.390 -1.1740  0.1880  1.0907
 1020MOL0     H37686  10.318   1.652   9.496  1.0139 -1.2151 -0.7744
 1020MOL0     H37687  10.081   1.660   9.579 -1.4110  0.4897  0.5913
 1020MOL0     H37688   9.819   1.594   9.809  0.0074 -1.0477 -1.2805
 1020MOL0     H37689   9.896   1.636   9.660 -0.6373 -1.2331  0.4282
 1020MOL0     H37690   9.901   1.839   9.791 -0.4497 -0.1328  0.7362
 1020MOL0     H37691  10.065   1.784   9.827 -0.9326  3.6670 -0.9372
 1020MOL0     H37692  10.016   1.799  10.035  1.4354 -2.0445 -1.2032
 1020MOL0     H37693   9.905   1.660  10.011  1.4750  0.1249  0.5463
 1020MOL0     H37694   9.729   1.848   9.942 -0.2393 -1.7104 -0.4477
 1020MOL0     H37695   9.761   1.806  10.109 -0.2942  0.4490 -0.2657
 1020MOL0     H37696   9.862   2.217  10.081 -0.4537  1.0018 -0.5452
 1020MOL0     H37697  10.213   1.389   9.890  1.5592 -0.0422 -0.0130
 1020MOL0     H37698  10.492   1.285   9.763 -1.0184  2.0071 -2.1022
 1020MOL0     H37699  10.543   1.430   9.854  1.5675 -0.7574 -2.6134
 1020MOL0     H37700  10.425   1.317   9.923 -0.9793 -1.5129 -1.3220
 1021MOL0     O37701   5.737   9.754   0.914 -0.3764 -0.4549 -0.2499
 1021MOL0     C37702   5.702   9.702   1.018  1.2467 -0.1807  0.8492
 1021MOL0     O37703   5.782   9.686   1.136  0.9525 -0.0874 -0.3815
 1021MOL0     C37704   5.899   9.753   1.143  0.1732 -0.0732  0.1735
 1021MOL0     C37705   5.995   9.744   1.042 -0.4995 -0.5408  0.5314
 1021MOL0     C37706   6.116   9.817   1.049  0.1732 -0.1005  0.5795
 1021MOL0     C37707   6.139   9.899   1.157  0.1593 -0.6357 -1.0392
 1021MOL0     O37708   6.255   9.970   1.168  0.4749  0.1969 -0.3933
 1021MOL0     C37709   6.380   9.893   1.173 -0.1037 -0.0345 -0.4640
 1021MOL0     C37710   6.453   9.898   1.312 -0.0978 -0.4740  0.9775
 1021MOL0     C37711   6.603   9.884   1.299  0.0767  0.2582 -0.6089
 1021MOL0     C37712   6.677   9.849   1.427 -0.0302  0.5862 -0.1533
 1021MOL0     C37713   6.828   9.859   1.399  0.0821 -0.1063 -0.1192
 1021MOL0     C37714   6.907   9.821   1.525 -0.0925 -1.0897 -0.1613
 1021MOL0     C37715   7.058   9.839   1.518  0.2329  0.2309 -0.1494
 1021MOL0     C37716   7.106   9.943   1.616 -0.6101 -0.1033 -0.0168
 1021MOL0     N37717   7.246   9.912   1.652  0.1427  0.1149 -0.0022
 1021MOL0     C37718   7.340   9.866   1.559  0.3335  0.0776 -0.2563
 1021MOL0     C37719   7.465   9.902   1.603  0.3225  0.1675  0.3181
 1021MOL0     C37720   7.594   9.890   1.525  0.4448  0.0200 -0.5959
 1021MOL0     C37721   7.719   9.924   1.603  0.0185  0.2471 -0.3925
 1021MOL0     C37722   7.835   9.906   1.514  0.1586  0.4857 -0.6851
 1021MOL0     C37723   7.962   9.956   1.592 -0.5343 -0.2289  0.1527
 1021MOL0     O37724   8.072   9.903   1.517 -0.7906  0.6873  0.0083
 1021MOL0     C37725   8.194   9.891   1.581 -0.4019 -0.2541 -0.9732
 1021MOL0     C37726   8.275   9.790   1.531  0.2276  0.1383  0.0375
 1021MOL0     C37727   8.397   9.768   1.581 -1.0223  0.7358 -0.2679
 1021MOL0     C37728   8.442   9.832   1.698 -0.4945  1.2536  0.8571
 1021MOL0     C37729   8.576   9.800   1.753 -0.0245 -0.6399  0.1756
 1021MOL0     O37730   8.646   9.701   1.685 -0.1366  0.0334  0.1074
 1021MOL0     C37731   8.767   9.660   1.732  0.4418  0.7232 -0.6508
 1021MOL0     C37732   8.883   9.693   1.657  0.1277  0.7690  0.1050
 1021MOL0     C37733   9.012   9.652   1.699  0.5685  0.1796  0.7096
 1021MOL0     C37734   9.029   9.575   1.809  0.1590  0.5042  0.0840
 1021MOL0     O37735   9.158   9.542   1.845  0.4604 -0.4809 -0.5549
 1021MOL0     C37736   9.182   9.480   1.974  0.2394  0.6660  0.4433
 1021MOL0     C37737   9.314   9.418   1.983  0.1958 -0.1352 -0.1143
 1021MOL0     C37738   9.422   9.524   1.991  0.4086  0.4084 -0.0312
 1021MOL0     C37739   9.556   9.447   2.003  1.0305  0.6795 -0.2685
 1021MOL0     C37740   9.661   9.546   2.038  0.1248 -0.0383  0.3343
 1021MOL0     C37741   9.805   9.496   2.002 -0.5896 -0.2107  0.2264
 1021MOL0     C37742   9.899   9.606   2.040 -0.6096 -0.5232  0.2085
 1021MOL0     C37743  10.036   9.563   2.099 -0.5448  0.9275  0.4276
 1021MOL0    Cl37744  10.137   9.506   1.961  0.1583 -0.0914  0.1687
 1021MOL0     C37745   8.914   9.551   1.890  0.7441 -0.1382  0.1514
 1021MOL0     C37746   8.782   9.595   1.857  0.7821 -0.0099  0.4239
 1021MOL0     O37747   8.617   9.865   1.847 -0.5181  0.6690  0.4847
 1021MOL0     C37748   8.364   9.939   1.751  0.0551  0.1738  1.0474
 1021MOL0     C37749   8.236   9.964   1.694 -0.0629 -0.8576 -0.4882
 1021MOL0     N37750   7.440   9.977   1.721  0.5582 -0.0024  0.2124
 1021MOL0     N37751   7.312   9.981   1.747 -0.6334  0.4353 -0.5246
 1021MOL0     C37752   6.044   9.916   1.256  0.1558 -0.0619 -0.1034
 1021MOL0     C37753   5.921   9.848   1.242  0.2131  0.4353 -1.1338
 1021MOL0     C37754   5.566   9.632   1.028  0.3897 -0.0860  0.0524
 1021MOL0     C37755   5.462   9.690   0.951 -0.0054  0.5921  0.5145
 1021MOL0     C37756   5.330   9.641   0.960  0.0011 -0.3457 -0.5808
 1021MOL0     C37757   5.302   9.542   1.044 -0.2193 -0.2252  0.2852
 1021MOL0     O37758   5.171   9.503   1.035 -0.6614  0.3390  0.0079
 1021MOL0     C37759   5.119   9.441   1.148 -0.5444 -0.5316 -0.8176
 1021MOL0     C37760   4.973   9.477   1.167 -0.0376  0.2395 -1.1838
 1021MOL0     C37761   4.922   9.408   1.295  0.1976  0.9232 -0.0612
 1021MOL0     C37762   4.931   9.506   1.405 -0.6199  0.1281 -0.2045
 1021MOL0     C37763   4.951   9.434   1.532 -0.7131 -0.6920 -0.0532
 1021MOL0     C37764   4.968   9.380   1.639 -0.1511 -0.1224  0.2637
 1021MOL0     C37765   5.404   9.480   1.122  0.1691 -0.3744  0.0940
 1021MOL0     C37766   5.533   9.529   1.123 -0.4628 -0.3675  0.2464
 1021MOL0     C37767   5.626   9.469   1.223 -0.4804 -0.3466 -0.0097
 1021MOL0     H37768   5.968   9.681   0.957 -1.0840  2.4938 -1.7227
 1021MOL0     H37769   6.190   9.820   0.970  0.8306 -0.1292  1.1849
 1021MOL0     H37770   6.364   9.789   1.143 -0.0093  0.2826 -1.6915
 1021MOL0     H37771   6.444   9.927   1.091 -1.1540 -0.0905 -1.3235
 1021MOL0     H37772   6.411   9.815   1.370 -1.6244 -0.5817 -0.2444
 1021MOL0     H37773   6.435   9.993   1.362  0.0729  0.8046 -1.2664
 1021MOL0     H37774   6.649   9.971   1.251  2.0634  1.3485  2.8706
 1021MOL0     H37775   6.621   9.802   1.230  1.4216 -1.0484  1.1964
 1021MOL0     H37776   6.653   9.921   1.506  0.2502 -0.7216  1.1482
 1021MOL0     H37777   6.647   9.752   1.467  0.6257  0.0252 -0.9765
 1021MOL0     H37778   6.852   9.788   1.320  2.1756  0.0908  0.2812
 1021MOL0     H37779   6.858   9.956   1.360  0.4580 -0.2571 -0.2077
 1021MOL0     H37780   6.867   9.873   1.612 -0.1753 -1.6382  0.1303
 1021MOL0     H37781   6.891   9.714   1.542  1.6800 -1.2124  0.9944
 1021MOL0     H37782   7.088   9.879   1.420 -1.5985  1.6172 -0.2001
 1021MOL0     H37783   7.103   9.740   1.530  0.7466  0.4664 -0.0698
 1021MOL0     H37784   7.100  10.039   1.563 -3.1873 -0.5747 -0.7052
 1021MOL0     H37785   7.047   9.945   1.709 -0.3172 -0.3426  0.1753
 1021MOL0     H37786   7.321   9.814   1.465  2.1466 -0.7752 -0.1877
 1021MOL0     H37787   7.607   9.789   1.484  0.9393  0.9705 -2.9573
 1021MOL0     H37788   7.583   9.961   1.442 -3.2732 -2.0661 -2.1611
 1021MOL0     H37789   7.707  10.027   1.637 -3.2374  0.0522 -0.6442
 1021MOL0     H37790   7.722   9.861   1.693 -0.5601 -2.3484 -2.0722
 1021MOL0     H37791   7.811   9.969   1.428 -0.7570 -0.2596 -0.9983
 1021MOL0     H37792   7.844   9.801   1.483 -0.2791 -0.0079  0.7697
 1021MOL0     H37793   7.959   9.906   1.689  0.5320 -1.3471 -0.3581
 1021MOL0     H37794   7.967  10.064   1.602  1.2406 -0.0809 -1.7364
 1021MOL0     H37795   8.243   9.741   1.440  0.8644  0.5326 -0.4122
 1021MOL0     H37796   8.453   9.686   1.537 -2.0192 -0.2922  0.3270
 1021MOL0     H37797   8.877   9.749   1.564 -2.2961 -0.5550 -0.6355
 1021MOL0     H37798   9.090   9.687   1.631 -0.7954 -0.5234 -1.3044
 1021MOL0     H37799   9.174   9.554   2.054  1.5378  2.4969 -1.0470
 1021MOL0     H37800   9.113   9.395   1.979  1.2299 -0.6299 -3.5449
 1021MOL0     H37801   9.326   9.353   2.070 -2.7242 -1.5173 -0.6363
 1021MOL0     H37802   9.340   9.357   1.896  2.0480 -1.2526  1.1663
 1021MOL0     H37803   9.417   9.581   1.897 -0.4881  0.2035 -0.1142
 1021MOL0     H37804   9.410   9.600   2.068  2.2038  0.6382  0.0822
 1021MOL0     H37805   9.582   9.406   1.906 -0.6968  0.0937 -0.5096
 1021MOL0     H37806   9.557   9.365   2.075  3.7462 -0.5107 -1.5350
 1021MOL0     H37807   9.650   9.571   2.144  1.0004 -2.8091  1.1660
 1021MOL0     H37808   9.652   9.644   1.989  0.4832  0.5653  1.4460
 1021MOL0     H37809   9.838   9.404   2.051 -1.4909 -1.6926 -1.8220
 1021MOL0     H37810   9.826   9.476   1.896  0.0932  0.1925  0.2781
 1021MOL0     H37811   9.866   9.672   2.121  0.7123  0.9629 -0.4025
 1021MOL0     H37812   9.916   9.674   1.956 -0.1411  1.5320  1.8801
 1021MOL0     H37813  10.087   9.642   2.156  0.7109 -1.3025  2.5976
 1021MOL0     H37814  10.022   9.484   2.174  0.8086  0.1366 -0.1247
 1021MOL0     H37815   8.928   9.498   1.983  1.7493  0.3607  0.2936
 1021MOL0     H37816   8.688   9.571   1.906 -0.0746  2.8202  0.3318
 1021MOL0     H37817   8.388  10.000   1.838  0.1435 -0.3161  1.3693
 1021MOL0     H37818   8.180  10.051   1.726  0.0142 -0.3293 -1.7372
 1021MOL0     H37819   6.079   9.974   1.341  2.9001  0.9132 -1.7658
 1021MOL0     H37820   5.842   9.858   1.316 -1.1539 -1.7700 -2.1983
 1021MOL0     H37821   5.489   9.766   0.879 -1.1406  0.3829 -0.1632
 1021MOL0     H37822   5.250   9.689   0.904 -1.4396  0.5099  2.0524
 1021MOL0     H37823   5.169   9.465   1.242 -0.2747  1.3198 -1.4020
 1021MOL0     H37824   5.124   9.334   1.123 -2.0127 -0.8753  0.2055
 1021MOL0     H37825   4.924   9.429   1.082 -0.2335  0.1322 -1.0102
 1021MOL0     H37826   4.952   9.584   1.163 -0.5815  0.1000 -2.4043
 1021MOL0     H37827   4.977   9.317   1.319  1.7541  2.1964  1.5245
 1021MOL0     H37828   4.822   9.373   1.270  0.5837  0.3600 -0.8406
 1021MOL0     H37829   5.019   9.568   1.384 -1.5574  1.5708 -0.0259
 1021MOL0     H37830   4.840   9.566   1.414 -0.5509 -0.0334  2.6602
 1021MOL0     H37831   4.973   9.327   1.732  3.8796 -0.3670  0.0698
 1021MOL0     H37832   5.371   9.396   1.181 -2.1753 -0.3547 -1.0552
 1021MOL0     H37833   5.587   9.375   1.263  0.5034 -0.1307  1.5604
 1021MOL0     H37834   5.718   9.438   1.174  0.1963 -3.0810  2.6890
 1021MOL0     H37835   5.651   9.538   1.305 -1.5508  1.0270 -0.7830
 1022MOL0     O37836   7.180   2.269   5.829  0.3260  0.2344 -0.2739
 1022MOL0     C37837   7.151   2.392   5.821 -0.0993 -0.3070  0.7380
 1022MOL0     O37838   7.229   2.501   5.797 -0.5073 -0.3712  0.3767
 1022MOL0     C37839   7.362   2.501   5.769  0.5314  0.2229 -0.1332
 1022MOL0     C37840   7.407   2.636   5.760 -0.1902  0.4697  1.7126
 1022MOL0     C37841   7.545   2.656   5.740  0.5001  0.2302 -0.0296
 1022MOL0     C37842   7.637   2.545   5.724 -0.0808 -0.1830 -0.0897
 1022MOL0     O37843   7.759   2.566   5.674 -0.1078 -0.4389 -0.2575
 1022MOL0     C37844   7.881   2.561   5.755  0.4450  1.0183 -0.0033
 1022MOL0     C37845   7.913   2.695   5.819  0.1425  0.9798 -0.8556
 1022MOL0     C37846   7.930   2.795   5.710 -0.8907 -0.3135 -0.5826
 1022MOL0     C37847   8.045   2.775   5.605  0.5714 -0.5478 -0.0892
 1022MOL0     C37848   8.191   2.814   5.658  0.5100  0.2815  0.1505
 1022MOL0     C37849   8.301   2.797   5.551  0.4698 -0.3575 -0.0415
 1022MOL0     C37850   8.351   2.647   5.527  1.1729  0.3813 -0.6187
 1022MOL0     C37851   8.478   2.620   5.439  0.4665 -0.2773 -0.8424
 1022MOL0     N37852   8.493   2.713   5.327 -0.0105  0.7488  0.0757
 1022MOL0     C37853   8.415   2.710   5.217  0.0201 -0.7779 -0.2872
 1022MOL0     C37854   8.457   2.809   5.137 -0.3789 -0.7492  0.8449
 1022MOL0     C37855   8.391   2.838   4.997 -0.4004 -0.2591 -0.5349
 1022MOL0     C37856   8.274   2.941   5.036  0.1224 -0.8869  0.7474
 1022MOL0     C37857   8.173   2.947   4.922 -0.1799  0.4073 -0.1974
 1022MOL0     C37858   8.128   3.084   4.878  0.5458  0.0451 -0.4654
 1022MOL0     O37859   8.075   3.160   4.991 -0.7056 -0.3028  0.2433
 1022MOL0     C37860   7.944   3.178   5.002  0.6863 -0.5432 -0.4765
 1022MOL0     C37861   7.907   3.276   5.099 -0.7488  0.2370 -0.3386
 1022MOL0     C37862   7.766   3.297   5.124  0.9977 -0.1119  0.5103
 1022MOL0     C37863   7.669   3.226   5.053 -1.0267  0.8772 -0.2968
 1022MOL0     C37864   7.533   3.246   5.089 -0.1382  0.4851 -0.1941
 1022MOL0     O37865   7.444   3.155   5.058 -0.3120  0.3351 -0.0295
 1022MOL0     C37866   7.313   3.164   5.086 -0.4497  0.4571 -0.3485
 1022MOL0     C37867   7.227   3.098   4.996  0.1227 -1.0155 -0.6645
 1022MOL0     C37868   7.094   3.094   5.023  0.6726 -0.9305  0.2978
 1022MOL0     C37869   7.039   3.148   5.145  0.2435  0.4939 -0.5686
 1022MOL0     O37870   6.907   3.141   5.179  0.0689  0.3793 -0.3488
 1022MOL0     C37871   6.828   3.033   5.145  0.1912  0.9028  0.0245
 1022MOL0     C37872   6.724   3.055   5.033 -0.0757  0.5164 -0.7138
 1022MOL0     C37873   6.633   3.174   5.062  1.4445  0.2633 -0.4524
 1022MOL0     C37874   6.518   3.192   4.963  0.0448 -0.3882  0.3423
 1022MOL0     C37875   6.422   3.294   5.006 -0.6904 -0.3394 -0.0486
 1022MOL0     C37876   6.284   3.269   4.944  0.0272 -0.2050  0.6766
 1022MOL0     C37877   6.159   3.345   4.995  0.1496 -0.2807 -0.0195
 1022MOL0     C37878   6.021   3.293   4.965 -0.1878  0.7258 -0.4347
 1022MOL0    Cl37879   5.897   3.379   5.066 -0.0280  0.2411  0.1451
 1022MOL0     C37880   7.123   3.208   5.246 -0.0101  1.0928  0.0884
 1022MOL0     C37881   7.260   3.206   5.210  0.3452  0.9157 -0.0045
 1022MOL0     O37882   7.505   3.355   5.140  0.1567  0.5780 -0.0142
 1022MOL0     C37883   7.708   3.133   4.964  0.1958 -0.0406  0.0190
 1022MOL0     C37884   7.846   3.111   4.928 -0.4150 -0.0921 -0.0794
 1022MOL0     N37885   8.547   2.881   5.212 -0.5270  0.2912 -1.1727
 1022MOL0     N37886   8.576   2.826   5.322  0.4374  0.3785  0.1850
 1022MOL0     C37887   7.592   2.413   5.736 -0.2414 -0.1222 -0.5037
 1022MOL0     C37888   7.455   2.394   5.756  0.6947  0.5017 -0.2930
 1022MOL0     C37889   7.004   2.432   5.859  0.5352  0.1554  0.2125
 1022MOL0     C37890   6.943   2.525   5.775  0.0863  0.2600  0.4323
 1022MOL0     C37891   6.811   2.551   5.783  0.2375 -0.4880 -0.9383
 1022MOL0     C37892   6.736   2.497   5.894  0.0637  0.2194 -0.0717
 1022MOL0     O37893   6.603   2.520   5.907  0.1261 -0.3568 -0.5560
 1022MOL0     C37894   6.522   2.517   5.785  0.0016  0.6714 -0.0146
 1022MOL0     C37895   6.377   2.505   5.821  0.1157  0.8058 -0.8233
 1022MOL0     C37896   6.331   2.627   5.913  0.0971 -0.0343 -0.8465
 1022MOL0     C37897   6.184   2.621   5.970 -0.4981 -0.7083  0.1500
 1022MOL0     C37898   6.135   2.487   6.009  0.5445  0.4328 -0.5619
 1022MOL0     C37899   6.113   2.369   6.039 -0.5943  0.2731  0.0186
 1022MOL0     C37900   6.806   2.419   5.981 -0.4966  0.0559 -0.0394
 1022MOL0     C37901   6.930   2.376   5.961 -0.7382 -0.1396  0.2065
 1022MOL0     C37902   6.978   2.255   6.038  0.1276  0.0037 -0.6758
 1022MOL0     H37903   7.326   2.707   5.771 -1.5185 -0.2727 -1.7940
 1022MOL0     H37904   7.583   2.755   5.718  0.8207  0.2550  0.5909
 1022MOL0     H37905   7.855   2.483   5.828  2.1536  2.0713  1.8197
 1022MOL0     H37906   7.963   2.524   5.692 -0.2496  0.0584 -0.3619
 1022MOL0     H37907   8.003   2.693   5.880  0.4293  2.0870 -1.2146
 1022MOL0     H37908   7.829   2.712   5.887 -0.6298 -4.8708  0.1901
 1022MOL0     H37909   7.955   2.890   5.758 -0.6155 -0.3769 -0.5964
 1022MOL0     H37910   7.835   2.813   5.658 -0.1698 -0.0444 -1.8489
 1022MOL0     H37911   8.051   2.670   5.577  1.5757 -1.2291  2.4044
 1022MOL0     H37912   8.028   2.835   5.516  1.6889 -0.3690 -0.2027
 1022MOL0     H37913   8.180   2.917   5.693  0.2401  0.1929  0.3235
 1022MOL0     H37914   8.222   2.747   5.739 -2.3403 -2.2520 -0.6824
 1022MOL0     H37915   8.266   2.835   5.455 -2.5160 -1.5172  0.4852
 1022MOL0     H37916   8.390   2.850   5.585 -0.1262 -0.1618  1.2880
 1022MOL0     H37917   8.273   2.581   5.488  1.0719  0.0159  0.1574
 1022MOL0     H37918   8.377   2.607   5.626  0.7824  1.1970 -0.1758
 1022MOL0     H37919   8.570   2.627   5.498  0.4543  1.4307 -0.9775
 1022MOL0     H37920   8.457   2.522   5.395  0.0968 -1.0243  0.9152
 1022MOL0     H37921   8.350   2.625   5.197 -2.3639  1.0958 -0.9023
 1022MOL0     H37922   8.466   2.876   4.927  0.9772 -2.0110 -0.1104
 1022MOL0     H37923   8.347   2.743   4.964  0.2976  0.1543 -2.8008
 1022MOL0     H37924   8.218   2.920   5.127  0.1761  0.0474  1.0094
 1022MOL0     H37925   8.316   3.039   5.062  1.0330 -1.3030  0.9089
 1022MOL0     H37926   8.083   2.892   4.953  0.1266 -0.3012 -0.5575
 1022MOL0     H37927   8.203   2.889   4.835 -0.0261  1.9370 -1.1907
 1022MOL0     H37928   8.056   3.066   4.797  2.2823 -0.2530 -2.0248
 1022MOL0     H37929   8.205   3.147   4.831  0.3300  1.9365  1.5813
 1022MOL0     H37930   7.991   3.333   5.135 -1.0189  1.0063 -0.9021
 1022MOL0     H37931   7.735   3.380   5.187 -2.2827 -0.8958  0.1391
 1022MOL0     H37932   7.266   3.051   4.907  2.9021  4.0898 -2.5546
 1022MOL0     H37933   7.022   3.047   4.957 -2.1673 -0.4651  2.8476
 1022MOL0     H37934   6.890   2.945   5.125  0.5771  0.7877  1.5985
 1022MOL0     H37935   6.768   3.016   5.235  3.7016  4.4518  3.4508
 1022MOL0     H37936   6.775   3.070   4.938 -1.4029  2.1018 -1.2238
 1022MOL0     H37937   6.657   2.968   5.025 -0.1980  0.4752  0.5569
 1022MOL0     H37938   6.591   3.148   5.159  2.3756  1.2749  0.2461
 1022MOL0     H37939   6.689   3.267   5.074  2.5133 -0.5857  1.5454
 1022MOL0     H37940   6.462   3.100   4.946  2.6985 -1.4902 -4.1734
 1022MOL0     H37941   6.556   3.213   4.862  1.4457 -0.0152  0.9266
 1022MOL0     H37942   6.454   3.397   4.982  2.8687 -0.9702  1.3474
 1022MOL0     H37943   6.415   3.283   5.114 -2.1895  0.1098 -0.0728
 1022MOL0     H37944   6.290   3.285   4.835  0.4305 -1.8941  0.4236
 1022MOL0     H37945   6.254   3.164   4.950 -0.7912 -0.3558 -3.1725
 1022MOL0     H37946   6.183   3.443   4.952 -0.1520 -0.1905  0.0184
 1022MOL0     H37947   6.174   3.353   5.103  3.1165 -2.7784 -0.0948
 1022MOL0     H37948   6.003   3.307   4.858  3.1416  3.8698 -0.7718
 1022MOL0     H37949   6.006   3.192   5.004 -0.3013  1.1055  0.5457
 1022MOL0     H37950   7.075   3.250   5.334 -1.0869  2.7210 -1.2038
 1022MOL0     H37951   7.337   3.243   5.277  3.3276 -0.6293 -2.3576
 1022MOL0     H37952   7.637   3.071   4.908 -0.2157 -1.7225  2.2571
 1022MOL0     H37953   7.868   3.040   4.849 -0.2156 -0.1225  0.0031
 1022MOL0     H37954   7.672   2.340   5.731  1.2801  0.6678  5.3212
 1022MOL0     H37955   7.422   2.291   5.759  0.4622  0.4796 -2.1702
 1022MOL0     H37956   6.999   2.571   5.694 -1.1682  0.0843 -0.5616
 1022MOL0     H37957   6.757   2.627   5.727 -3.5661 -2.1247  0.1717
 1022MOL0     H37958   6.562   2.435   5.725 -0.8376 -1.0638  1.7174
 1022MOL0     H37959   6.535   2.609   5.727  2.7111  1.7821  2.1243
 1022MOL0     H37960   6.358   2.412   5.875  2.1640  0.8246  0.0321
 1022MOL0     H37961   6.313   2.506   5.733 -0.6163  0.0803 -0.3088
 1022MOL0     H37962   6.346   2.723   5.862 -0.5176  0.2418 -0.5307
 1022MOL0     H37963   6.398   2.628   5.999  1.0336  1.7937 -1.5436
 1022MOL0     H37964   6.178   2.690   6.055 -1.7282  0.5847 -0.9276
 1022MOL0     H37965   6.120   2.661   5.891 -0.1244 -0.1495  0.1313
 1022MOL0     H37966   6.083   2.271   6.069  0.1669  0.0545  0.0859
 1022MOL0     H37967   6.747   2.371   6.059  0.5545  1.4958  1.7272
 1022MOL0     H37968   6.952   2.278   6.142  1.7236 -2.5611  0.3954
 1022MOL0     H37969   6.921   2.164   6.018 -1.1742  0.0831  2.1867
 1022MOL0     H37970   7.081   2.218   6.034 -0.5155 -2.4271  1.8790
 1023MOL0     O37971   4.435   0.482   2.212  0.5673  0.1587  0.1277
 1023MOL0     C37972   4.452   0.383   2.140 -0.1392 -0.6056 -1.3386
 1023MOL0     O37973   4.563   0.345   2.063  0.1515 -0.5955 -0.5032
 1023MOL0     C37974   4.681   0.414   2.065  0.9531  0.3039 -0.2769
 1023MOL0     C37975   4.722   0.517   2.150  0.8398  0.1418 -0.3973
 1023MOL0     C37976   4.858   0.570   2.149 -0.0983  0.2711  0.4277
 1023MOL0     C37977   4.955   0.508   2.063  0.4661 -0.4746  0.2680
 1023MOL0     O37978   5.090   0.545   2.058 -0.2953 -0.0239  0.2164
 1023MOL0     C37979   5.131   0.645   2.159 -0.0511 -0.0041 -0.1273
 1023MOL0     C37980   5.277   0.629   2.184  0.5179  0.7826  1.0327
 1023MOL0     C37981   5.304   0.706   2.316 -0.5602 -0.6629  0.0811
 1023MOL0     C37982   5.439   0.666   2.378  0.6782 -0.6635 -0.0535
 1023MOL0     C37983   5.554   0.699   2.281  0.5753 -0.9351 -0.5306
 1023MOL0     C37984   5.673   0.588   2.276  0.3783 -0.6931  0.2836
 1023MOL0     C37985   5.805   0.653   2.240  0.0419  0.4799 -0.1398
 1023MOL0     C37986   5.914   0.560   2.296  1.4395 -0.3982  0.1083
 1023MOL0     N37987   6.051   0.613   2.292  0.1170 -0.5074 -0.5393
 1023MOL0     C37988   6.157   0.531   2.289 -0.0773 -0.1026 -0.0467
 1023MOL0     C37989   6.263   0.618   2.311  0.4092  0.6308 -0.2083
 1023MOL0     C37990   6.409   0.583   2.303 -0.3313  0.2681  0.0668
 1023MOL0     C37991   6.451   0.540   2.442 -0.1705  0.4555 -0.5310
 1023MOL0     C37992   6.599   0.541   2.459  1.2419 -0.3702  0.3498
 1023MOL0     C37993   6.655   0.476   2.577  0.1431  0.3907  0.3316
 1023MOL0     O37994   6.795   0.486   2.564 -0.2531 -0.3859  0.0149
 1023MOL0     C37995   6.888   0.460   2.668 -0.1497 -0.0892 -0.6435
 1023MOL0     C37996   6.867   0.373   2.781  0.4655 -0.8050 -0.4687
 1023MOL0     C37997   6.956   0.343   2.879 -0.2543 -0.3964  0.2095
 1023MOL0     C37998   7.085   0.407   2.868  0.1968  0.2781 -1.1639
 1023MOL0     C37999   7.189   0.366   2.963 -0.6767  0.7152 -1.0594
 1023MOL0     O38000   7.313   0.421   2.934  0.3157 -0.1007 -0.2653
 1023MOL0     C38001   7.427   0.373   2.985 -1.0105 -0.0795  0.2184
 1023MOL0     C38002   7.457   0.270   3.084  0.6187  0.2307 -0.6922
 1023MOL0     C38003   7.591   0.228   3.118  0.0208 -0.1131 -0.3488
 1023MOL0     C38004   7.701   0.288   3.049 -0.6507  0.2501  0.3867
 1023MOL0     O38005   7.835   0.271   3.075  0.3344  0.1955  0.6536
 1023MOL0     C38006   7.871   0.151   3.136 -0.1122  0.2664  0.0422
 1023MOL0     C38007   8.018   0.114   3.093 -0.0286 -0.3959 -0.1499
 1023MOL0     C38008   8.039   0.110   2.943  0.1950  0.6883 -0.2009
 1023MOL0     C38009   8.180   0.066   2.913 -0.3048  0.1242  0.1409
 1023MOL0     C38010   8.215   0.089   2.766  0.4784  1.1896  0.7086
 1023MOL0     C38011   8.370   0.069   2.755  0.1471 -0.3670  1.2204
 1023MOL0     C38012   8.410   0.069   2.610  0.4014  0.0835 -0.6570
 1023MOL0     C38013   8.547   0.013   2.574 -0.2136 -0.1935 -0.5025
 1023MOL0    Cl38014   8.676   0.110   2.659 -0.4034  0.3541  0.1053
 1023MOL0     C38015   7.675   0.389   2.953  0.1230 -0.3312 -0.6290
 1023MOL0     C38016   7.542   0.429   2.928 -0.7073 -1.0707  0.4444
 1023MOL0     O38017   7.167   0.300   3.068  0.3504 -0.0985 -0.2442
 1023MOL0     C38018   7.108   0.501   2.763 -0.7854 -0.2380 -0.2719
 1023MOL0     C38019   7.009   0.524   2.673  0.0005 -0.1354  1.6467
 1023MOL0     N38020   6.217   0.738   2.358  0.0235  0.1326  0.3018
 1023MOL0     N38021   6.092   0.737   2.340  0.4408  0.9509 -0.0696
 1023MOL0     C38022   4.910   0.405   1.972  0.8823  0.5347  0.2377
 1023MOL0     C38023   4.776   0.364   1.979 -0.3467 -0.2443 -0.5866
 1023MOL0     C38024   4.353   0.277   2.167 -0.1208 -0.0149  0.7108
 1023MOL0     C38025   4.220   0.320   2.164 -0.3493 -0.2535 -0.3929
 1023MOL0     C38026   4.119   0.235   2.209  0.9042  1.2923 -0.4048
 1023MOL0     C38027   4.142   0.101   2.224  0.6531 -0.1390 -0.5750
 1023MOL0     O38028   4.034   0.024   2.249 -0.0360 -0.2918 -0.5365
 1023MOL0     C38029   4.056  -0.094   2.341 -0.2761 -0.7911 -0.4014
 1023MOL0     C38030   4.027  -0.231   2.285  0.1917  0.6579  0.2471
 1023MOL0     C38031   4.151  -0.307   2.236  0.2169  0.8659  0.4989
 1023MOL0     C38032   4.120  -0.443   2.169  1.2191 -0.5772 -0.4161
 1023MOL0     C38033   4.043  -0.536   2.259 -0.3770  0.4652  0.8074
 1023MOL0     C38034   3.994  -0.605   2.355 -0.2152  0.0170 -0.2456
 1023MOL0     C38035   4.277   0.049   2.200  0.7753 -0.3887 -0.7703
 1023MOL0     C38036   4.384   0.142   2.182 -0.1496  0.9418  0.3412
 1023MOL0     C38037   4.530   0.085   2.184 -0.9307  0.3844  1.5910
 1023MOL0     H38038   4.646   0.570   2.206 -0.2118  0.1131 -1.7480
 1023MOL0     H38039   4.884   0.655   2.211  0.7919  0.5918 -0.3560
 1023MOL0     H38040   5.100   0.747   2.137  0.6426  0.3597  0.5254
 1023MOL0     H38041   5.084   0.625   2.256  1.3865  1.2465  0.8697
 1023MOL0     H38042   5.323   0.669   2.094  0.6409 -3.4077 -1.0210
 1023MOL0     H38043   5.304   0.523   2.180  2.2733  1.1397 -4.7541
 1023MOL0     H38044   5.226   0.681   2.389  0.1915  0.3129  1.2534
 1023MOL0     H38045   5.312   0.811   2.286  2.0170 -1.5403 -2.9132
 1023MOL0     H38046   5.450   0.729   2.467 -0.2082 -0.9185  0.2487
 1023MOL0     H38047   5.432   0.564   2.416  1.7434 -0.9226 -0.5324
 1023MOL0     H38048   5.526   0.713   2.176 -1.0164 -3.2156 -0.4951
 1023MOL0     H38049   5.600   0.792   2.315 -0.2104  0.1036 -2.1966
 1023MOL0     H38050   5.679   0.535   2.371  2.9636 -1.9729 -0.4999
 1023MOL0     H38051   5.635   0.518   2.201 -3.0513  2.0391 -0.8173
 1023MOL0     H38052   5.806   0.740   2.306 -2.8704  0.6030 -0.1316
 1023MOL0     H38053   5.821   0.679   2.135  0.7653 -1.7661 -0.6470
 1023MOL0     H38054   5.897   0.546   2.403  0.3460  1.0991  0.1682
 1023MOL0     H38055   5.895   0.463   2.249 -1.2322 -0.0035  0.1679
 1023MOL0     H38056   6.174   0.426   2.266  1.2814 -0.5595  2.6658
 1023MOL0     H38057   6.441   0.510   2.228  2.1888 -1.0430  2.2566
 1023MOL0     H38058   6.463   0.673   2.270 -1.9652  1.1237 -0.4052
 1023MOL0     H38059   6.408   0.598   2.524 -1.7300 -0.6649 -0.4868
 1023MOL0     H38060   6.401   0.444   2.460  0.7163  0.4819  2.5521
 1023MOL0     H38061   6.638   0.641   2.439 -0.5343  0.5233  1.1489
 1023MOL0     H38062   6.638   0.492   2.369  3.4957 -0.3244  1.2207
 1023MOL0     H38063   6.623   0.371   2.576 -0.5278  0.5643 -2.3102
 1023MOL0     H38064   6.621   0.517   2.672 -1.6162 -0.3343  0.0544
 1023MOL0     H38065   6.776   0.314   2.783 -0.6135  0.8168  0.2617
 1023MOL0     H38066   6.933   0.262   2.947 -1.1910 -0.0250  0.3488
 1023MOL0     H38067   7.373   0.216   3.126  0.0407  2.2176  0.8579
 1023MOL0     H38068   7.612   0.160   3.200 -0.3046 -1.2510 -1.1883
 1023MOL0     H38069   7.865   0.159   3.245 -1.8493 -1.2449  0.1182
 1023MOL0     H38070   7.799   0.076   3.101  1.3186 -0.7402 -0.8560
 1023MOL0     H38071   8.089   0.187   3.133 -1.5650  1.1933 -0.2368
 1023MOL0     H38072   8.050   0.021   3.141  2.1281 -0.6884 -1.9594
 1023MOL0     H38073   7.977   0.031   2.900 -0.9731  0.4392  1.8198
 1023MOL0     H38074   8.010   0.206   2.899 -3.2188  0.8918  2.0910
 1023MOL0     H38075   8.207  -0.036   2.943  0.3833 -0.7368 -3.0457
 1023MOL0     H38076   8.252   0.125   2.971 -0.0800 -1.1432  1.2121
 1023MOL0     H38077   8.194   0.190   2.730  2.0501  0.6931 -1.8894
 1023MOL0     H38078   8.167   0.020   2.696 -0.2781  1.8169  0.5955
 1023MOL0     H38079   8.421   0.151   2.807 -0.5537 -1.6266  4.0948
 1023MOL0     H38080   8.392  -0.022   2.810 -0.7845 -0.3421  1.6548
 1023MOL0     H38081   8.394   0.172   2.576  0.0116  0.0056 -0.7177
 1023MOL0     H38082   8.347  -0.004   2.558  1.3458 -1.9641  0.9235
 1023MOL0     H38083   8.557  -0.090   2.608  1.2330 -0.1366 -0.7026
 1023MOL0     H38084   8.559   0.005   2.465  1.2066 -1.7529 -0.2602
 1023MOL0     H38085   7.765   0.430   2.909  1.0250 -1.4575  0.0935
 1023MOL0     H38086   7.527   0.509   2.856 -1.2840 -1.8163 -0.2911
 1023MOL0     H38087   7.204   0.548   2.748 -0.2443 -1.4643 -0.7825
 1023MOL0     H38088   7.037   0.596   2.597  1.3017 -1.0734  1.2042
 1023MOL0     H38089   4.975   0.372   1.891 -0.3752 -0.1413 -0.5368
 1023MOL0     H38090   4.739   0.288   1.911 -1.6320 -1.9339  1.8256
 1023MOL0     H38091   4.192   0.421   2.135  1.0390  0.4788  0.6892
 1023MOL0     H38092   4.017   0.271   2.223  0.1186 -0.3778 -1.4826
 1023MOL0     H38093   3.988  -0.082   2.427 -0.2117 -2.0679 -0.1485
 1023MOL0     H38094   4.152  -0.087   2.393 -0.8414 -1.5701  0.8034
 1023MOL0     H38095   3.964  -0.215   2.197  0.0411  0.4556  0.3174
 1023MOL0     H38096   3.972  -0.284   2.363 -0.0827  1.2829  0.4849
 1023MOL0     H38097   4.208  -0.328   2.327 -1.0022  0.2558  1.1505
 1023MOL0     H38098   4.210  -0.246   2.166  0.4791  1.0477  0.8728
 1023MOL0     H38099   4.059  -0.421   2.081  1.2433  0.0551 -0.2802
 1023MOL0     H38100   4.213  -0.486   2.128  1.8865  1.3877 -1.0984
 1023MOL0     H38101   3.943  -0.659   2.432  0.6205  1.3182  1.2762
 1023MOL0     H38102   4.305  -0.056   2.208  2.7403  0.0572 -1.3161
 1023MOL0     H38103   4.599   0.143   2.246  2.1749  1.1302 -2.1556
 1023MOL0     H38104   4.531  -0.016   2.227  0.0543 -1.4118 -2.2470
 1023MOL0     H38105   4.571   0.071   2.084 -3.8828 -0.9550  0.4517
 1024MOL0     O38106   0.279   6.586  10.960 -0.0782 -0.0885  0.0906
 1024MOL0     C38107   0.217   6.689  10.995  0.7823 -0.3960 -0.3495
 1024MOL0     O38108   0.260   6.815  10.969  0.3620 -0.2029 -0.0738
 1024MOL0     C38109   0.371   6.842  10.900 -0.2063  0.2901 -0.0221
 1024MOL0     C38110   0.360   6.940  10.795 -0.3111 -0.4783  0.6451
 1024MOL0     C38111   0.478   6.961  10.716 -0.7389 -0.0819 -0.5316
 1024MOL0     C38112   0.604   6.918  10.756 -0.2725  0.0667  0.2469
 1024MOL0     O38113   0.723   6.956  10.706  0.2175  0.1747  0.3406
 1024MOL0     C38114   0.733   7.042  10.597  0.3020  0.3071  0.2903
 1024MOL0     C38115   0.879   7.079  10.554 -0.2389  0.3588 -0.0817
 1024MOL0     C38116   0.957   6.945  10.532  0.0405  0.3844 -0.8317
 1024MOL0     C38117   1.028   6.886  10.663  0.8165 -0.6546  0.0441
 1024MOL0     C38118   1.112   6.772  10.623 -0.7082 -0.1579  0.8079
 1024MOL0     C38119   1.178   6.722  10.753 -0.0705  0.6341  0.4081
 1024MOL0     C38120   1.254   6.592  10.724  0.0488  0.0375 -0.3004
 1024MOL0     C38121   1.346   6.554  10.844 -0.0146  0.2556 -1.1253
 1024MOL0     N38122   1.437   6.441  10.825 -0.8644 -0.0134  0.3800
 1024MOL0     C38123   1.502   6.368  10.913  0.0627  0.1011  0.4249
 1024MOL0     C38124   1.567   6.268  10.842  0.2758 -0.0017  0.5531
 1024MOL0     C38125   1.646   6.152  10.891 -0.2332 -0.1161  0.9290
 1024MOL0     C38126   1.796   6.149  10.849 -0.3667  0.3296  0.3073
 1024MOL0     C38127   1.876   6.022  10.889 -0.1242 -0.7711 -0.0642
 1024MOL0     C38128   2.031   6.037  10.859  0.7198 -0.3232 -1.1799
 1024MOL0     O38129   2.101   5.930  10.912  0.8432  0.5219 -0.0905
 1024MOL0     C38130   2.237   5.908  10.881 -0.8809  0.1323 -0.3755
 1024MOL0     C38131   2.315   5.987  10.798  0.3688  0.3058  0.2665
 1024MOL0     C38132   2.446   5.954  10.772 -0.7138 -0.2020  0.0913
 1024MOL0     C38133   2.514   5.844  10.835  0.4523 -0.1257  0.6502
 1024MOL0     C38134   2.661   5.833  10.825  0.7266 -0.4064 -0.2030
 1024MOL0     O38135   2.728   5.944  10.777  0.1442 -0.3944  0.1919
 1024MOL0     C38136   2.864   5.925  10.772  1.1615  1.5829 -0.4532
 1024MOL0     C38137   2.921   5.878  10.652  0.5630 -0.4281 -0.2332
 1024MOL0     C38138   3.063   5.885  10.644  0.1496  0.2970 -0.1037
 1024MOL0     C38139   3.146   5.899  10.758  1.0084 -0.7361  0.1564
 1024MOL0     O38140   3.280   5.879  10.743 -0.5561  0.1805  0.1363
 1024MOL0     C38141   3.365   5.903  10.855 -0.6807  0.1202 -1.1947
 1024MOL0     C38142   3.514   5.892  10.833 -0.2550 -0.2902 -0.6735
 1024MOL0     C38143   3.588   6.008  10.908 -0.4002  0.4446 -0.5480
 1024MOL0     C38144   3.738   6.001  10.899  0.4477  1.1305 -0.6005
 1024MOL0     C38145   3.795   6.110  10.984  0.7845  0.7567 -1.2091
 1024MOL0     C38146   3.946   6.107  10.996 -0.2444 -0.5502  0.2866
 1024MOL0     C38147   4.006   6.005  11.091 -0.2539  0.2119 -0.7072
 1024MOL0     C38148   4.164   5.997  11.093  0.1571 -0.1737  1.0035
 1024MOL0    Cl38149   4.229   6.148  11.147  0.3307  0.2047 -0.0289
 1024MOL0     C38150   3.083   5.942  10.874  0.1457 -0.4676  0.2439
 1024MOL0     C38151   2.945   5.959  10.875 -0.0444  0.4902 -0.2530
 1024MOL0     O38152   2.714   5.725  10.855 -0.3171  0.2813 -0.1416
 1024MOL0     C38153   2.437   5.757  10.914  0.6069 -0.7025  0.7089
 1024MOL0     C38154   2.305   5.797  10.943  0.6812  0.2234  0.2879
 1024MOL0     N38155   1.550   6.292  10.711  0.1401 -0.2144 -0.0595
 1024MOL0     N38156   1.472   6.397  10.703 -0.3316  0.2147  0.1595
 1024MOL0     C38157   0.604   6.826  10.857 -0.2061  0.9186  0.4030
 1024MOL0     C38158   0.491   6.784  10.931 -0.0580 -0.0168 -0.6635
 1024MOL0     C38159   0.083   6.673  11.059  0.6058 -0.4646 -1.2503
 1024MOL0     C38160   0.043   6.534  11.072  0.0652 -0.3265  0.0341
 1024MOL0     C38161  -0.074   6.499  11.124  0.5945  0.3071  0.1791
 1024MOL0     C38162  -0.173   6.590  11.147  0.1679 -0.4336 -1.0559
 1024MOL0     O38163  -0.296   6.564  11.208 -0.0423  0.2196 -0.3445
 1024MOL0     C38164  -0.352   6.439  11.178  0.6480 -0.2608  0.5407
 1024MOL0     C38165  -0.499   6.434  11.209  0.3553 -0.3961  0.5177
 1024MOL0     C38166  -0.532   6.491  11.340  0.2164  0.8473 -0.5552
 1024MOL0     C38167  -0.677   6.475  11.376 -0.1855 -0.8986  0.0842
 1024MOL0     C38168  -0.777   6.524  11.277 -0.4497 -0.3728  0.1631
 1024MOL0     C38169  -0.851   6.573  11.192  0.1966 -0.6656  0.0292
 1024MOL0     C38170  -0.145   6.723  11.124 -0.2338  0.1955  0.8650
 1024MOL0     C38171  -0.017   6.766  11.092 -0.2746 -0.9876  0.0258
 1024MOL0     C38172   0.008   6.923  11.073 -0.0345  0.5411  0.4067
 1024MOL0     H38173   0.267   6.983  10.760 -1.3675 -1.6763  1.8609
 1024MOL0     H38174   0.462   7.032  10.635 -1.4277  0.7294  0.2896
 1024MOL0     H38175   0.686   6.993  10.512 -2.4411  2.0117  0.7221
 1024MOL0     H38176   0.673   7.132  10.611  0.6503  0.5109  0.4979
 1024MOL0     H38177   0.921   7.141  10.634 -1.4802  1.5303 -0.3007
 1024MOL0     H38178   0.880   7.141  10.464  0.4760 -2.1381 -1.8956
 1024MOL0     H38179   1.033   6.968  10.456 -1.3166  0.9131 -2.0643
 1024MOL0     H38180   0.893   6.868  10.486  2.7607 -1.6749 -1.4597
 1024MOL0     H38181   1.078   6.971  10.711  0.2941 -0.3641  0.0816
 1024MOL0     H38182   0.955   6.848  10.734  1.6268 -1.8946  0.2387
 1024MOL0     H38183   1.056   6.696  10.567  0.2172 -0.8430  0.7824
 1024MOL0     H38184   1.191   6.813  10.559 -2.3246 -0.5813 -1.6052
 1024MOL0     H38185   1.257   6.790  10.786  1.1881 -0.5042 -0.1625
 1024MOL0     H38186   1.100   6.704  10.828 -1.2852 -2.5338 -1.4027
 1024MOL0     H38187   1.314   6.614  10.636 -0.2512  0.8984 -0.3057
 1024MOL0     H38188   1.183   6.511  10.707 -0.9470  1.1823 -1.8281
 1024MOL0     H38189   1.407   6.643  10.864  0.6897 -0.5722  0.6379
 1024MOL0     H38190   1.290   6.537  10.937 -1.5010 -3.3669 -2.5229
 1024MOL0     H38191   1.501   6.374  11.022  2.2512  2.0236  0.3893
 1024MOL0     H38192   1.656   6.160  11.000  2.2948 -2.1157  0.9341
 1024MOL0     H38193   1.594   6.058  10.875  1.3107 -1.0148  0.9328
 1024MOL0     H38194   1.792   6.151  10.740  3.2127 -1.5306 -0.0048
 1024MOL0     H38195   1.845   6.239  10.887  0.7714 -0.9277  1.9741
 1024MOL0     H38196   1.850   5.936  10.826  2.8734 -1.6345 -0.2883
 1024MOL0     H38197   1.865   6.002  10.997 -2.6436 -0.5788 -0.2341
 1024MOL0     H38198   2.065   6.125  10.914  0.8223 -2.8778  3.3008
 1024MOL0     H38199   2.043   6.047  10.751 -1.3101 -1.6852 -1.5935
 1024MOL0     H38200   2.270   6.071  10.746 -0.4254 -0.9497 -1.1521
 1024MOL0     H38201   2.499   6.017  10.702  0.0318 -2.1712 -1.1929
 1024MOL0     H38202   2.841   5.856  10.582 -0.5155  3.7060 -0.5846
 1024MOL0     H38203   3.103   5.865  10.545 -4.6452 -2.2575 -1.8415
 1024MOL0     H38204   3.352   6.008  10.883  1.4579  0.0545  0.2347
 1024MOL0     H38205   3.337   5.851  10.947  2.3039  0.1287 -0.1851
 1024MOL0     H38206   3.554   5.795  10.864  1.0714 -0.0434 -1.5120
 1024MOL0     H38207   3.554   5.903  10.732  1.5810 -0.6230 -0.0412
 1024MOL0     H38208   3.551   6.105  10.875 -1.8531  1.0149  2.4611
 1024MOL0     H38209   3.571   5.999  11.016  1.5793  2.3252 -0.0043
 1024MOL0     H38210   3.774   6.016  10.797 -3.3474 -1.6037 -2.5491
 1024MOL0     H38211   3.766   5.901  10.932  0.6185  1.4896  0.4095
 1024MOL0     H38212   3.745   6.109  11.082  0.4585  1.2921 -1.3666
 1024MOL0     H38213   3.779   6.205  10.933  0.6993 -0.0771 -2.8007
 1024MOL0     H38214   3.992   6.081  10.900 -1.2092  1.1091 -0.6687
 1024MOL0     H38215   3.989   6.203  11.027 -0.5424 -0.8075  1.5381
 1024MOL0     H38216   3.986   5.905  11.051  0.2723  0.2482 -1.0724
 1024MOL0     H38217   3.962   6.009  11.191 -2.3626  0.2897 -1.5864
 1024MOL0     H38218   4.213   5.921  11.155 -0.6327 -2.7419 -1.3382
 1024MOL0     H38219   4.210   5.968  10.998 -0.2399 -1.1777  1.1044
 1024MOL0     H38220   3.141   5.953  10.965 -0.7304 -0.4673  0.8105
 1024MOL0     H38221   2.887   6.016  10.949 -0.2485  1.0783 -0.8549
 1024MOL0     H38222   2.487   5.678  10.970  1.2382 -0.0681  1.0614
 1024MOL0     H38223   2.251   5.720  10.997  2.5836 -1.6053 -0.2885
 1024MOL0     H38224   0.704   6.798  10.889 -1.2831 -1.5088  2.0285
 1024MOL0     H38225   0.497   6.726  11.022  1.3451  0.8808 -0.1469
 1024MOL0     H38226   0.105   6.450  11.040 -0.7651 -0.2895 -1.8252
 1024MOL0     H38227  -0.078   6.390  11.126 -0.6860  0.3303 -0.1056
 1024MOL0     H38228  -0.301   6.357  11.230  1.2736  0.1344  0.5606
 1024MOL0     H38229  -0.347   6.417  11.070  0.3033 -1.0219  0.6705
 1024MOL0     H38230  -0.546   6.336  11.204  0.3517 -0.7282  4.0823
 1024MOL0     H38231  -0.547   6.491  11.130  0.7227 -0.8669 -0.0545
 1024MOL0     H38232  -0.512   6.598  11.349 -1.2222  1.1512 -0.6945
 1024MOL0     H38233  -0.469   6.447  11.417 -0.1220  1.5034  0.1031
 1024MOL0     H38234  -0.699   6.370  11.398 -0.8114 -1.0917 -1.3769
 1024MOL0     H38235  -0.689   6.529  11.471  1.1509  1.5665 -1.0397
 1024MOL0     H38236  -0.916   6.619  11.120  1.9713  0.3371 -1.0237
 1024MOL0     H38237  -0.222   6.799  11.126 -2.7839 -2.1939  0.2360
 1024MOL0     H38238   0.028   6.945  10.967 -0.8614  0.5957  0.2533
 1024MOL0     H38239  -0.074   6.984  11.111 -0.6231  0.7471 -1.1306
 1024MOL0     H38240   0.095   6.955  11.132 -1.0233  4.4347 -0.0317
  11.28993  11.28993  11.28993
